 Entering Gaussian System, Link 0=g16
 Input=str15.20.-0.5.com
 Output=str15.20.-0.5.log
 Initial command:
 /share/apps/g16/l1.exe "/state/partition1/scr/Gau-1464.inp" -scrdir="/state/partition1/scr/"
 Entering Link 1 = /share/apps/g16/l1.exe PID=      1465.
  
 Copyright (c) 1988,1990,1992,1993,1995,1998,2003,2009,2016,
            Gaussian, Inc.  All Rights Reserved.
  
 This is part of the Gaussian(R) 16 program.  It is based on
 the Gaussian(R) 09 system (copyright 2009, Gaussian, Inc.),
 the Gaussian(R) 03 system (copyright 2003, Gaussian, Inc.),
 the Gaussian(R) 98 system (copyright 1998, Gaussian, Inc.),
 the Gaussian(R) 94 system (copyright 1995, Gaussian, Inc.),
 the Gaussian 92(TM) system (copyright 1992, Gaussian, Inc.),
 the Gaussian 90(TM) system (copyright 1990, Gaussian, Inc.),
 the Gaussian 88(TM) system (copyright 1988, Gaussian, Inc.),
 the Gaussian 86(TM) system (copyright 1986, Carnegie Mellon
 University), and the Gaussian 82(TM) system (copyright 1983,
 Carnegie Mellon University). Gaussian is a federally registered
 trademark of Gaussian, Inc.
  
 This software contains proprietary and confidential information,
 including trade secrets, belonging to Gaussian, Inc.
  
 This software is provided under written license and may be
 used, copied, transmitted, or stored only in accord with that
 written license.
  
 The following legend is applicable only to US Government
 contracts under FAR:
  
                    RESTRICTED RIGHTS LEGEND
  
 Use, reproduction and disclosure by the US Government is
 subject to restrictions as set forth in subparagraphs (a)
 and (c) of the Commercial Computer Software - Restricted
 Rights clause in FAR 52.227-19.
  
 Gaussian, Inc.
 340 Quinnipiac St., Bldg. 40, Wallingford CT 06492
  
  
 ---------------------------------------------------------------
 Warning -- This program may not be used in any manner that
 competes with the business of Gaussian, Inc. or will provide
 assistance to any competitor of Gaussian, Inc.  The licensee
 of this program is prohibited from giving any competitor of
 Gaussian, Inc. access to this program.  By using this program,
 the user acknowledges that Gaussian, Inc. is engaged in the
 business of creating and licensing software in the field of
 computational chemistry and represents and warrants to the
 licensee that it is not a competitor of Gaussian, Inc. and that
 it will not use this program in any manner prohibited above.
 ---------------------------------------------------------------
  

 Cite this work as:
 Gaussian 16, Revision A.03,
 M. J. Frisch, G. W. Trucks, H. B. Schlegel, G. E. Scuseria, 
 M. A. Robb, J. R. Cheeseman, G. Scalmani, V. Barone, 
 G. A. Petersson, H. Nakatsuji, X. Li, M. Caricato, A. V. Marenich, 
 J. Bloino, B. G. Janesko, R. Gomperts, B. Mennucci, H. P. Hratchian, 
 J. V. Ortiz, A. F. Izmaylov, J. L. Sonnenberg, D. Williams-Young, 
 F. Ding, F. Lipparini, F. Egidi, J. Goings, B. Peng, A. Petrone, 
 T. Henderson, D. Ranasinghe, V. G. Zakrzewski, J. Gao, N. Rega, 
 G. Zheng, W. Liang, M. Hada, M. Ehara, K. Toyota, R. Fukuda, 
 J. Hasegawa, M. Ishida, T. Nakajima, Y. Honda, O. Kitao, H. Nakai, 
 T. Vreven, K. Throssell, J. A. Montgomery, Jr., J. E. Peralta, 
 F. Ogliaro, M. J. Bearpark, J. J. Heyd, E. N. Brothers, K. N. Kudin, 
 V. N. Staroverov, T. A. Keith, R. Kobayashi, J. Normand, 
 K. Raghavachari, A. P. Rendell, J. C. Burant, S. S. Iyengar, 
 J. Tomasi, M. Cossi, J. M. Millam, M. Klene, C. Adamo, R. Cammi, 
 J. W. Ochterski, R. L. Martin, K. Morokuma, O. Farkas, 
 J. B. Foresman, and D. J. Fox, Gaussian, Inc., Wallingford CT, 2016.
 
 ******************************************
 Gaussian 16:  EM64L-G16RevA.03 25-Dec-2016
                19-Jan-2018 
 ******************************************
 %nprocshared=32
 Will use up to   32 processors via shared memory.
 %mem=32GB
 %chk=allatoms_t.chk
 ---------------------------------------
 #p wb97xd/cc-pvdz sp scf=(maxcycles=20)
 ---------------------------------------
 1/38=1,172=1/1;
 2/12=2,17=6,18=5,40=1/2;
 3/5=16,11=2,25=1,30=1,74=-58/1,2,3;
 4//1;
 5/5=2,7=20,38=5/2;
 6/7=2,8=2,9=2,10=2,28=1/1;
 99/5=1,9=1/99;
 Leave Link    1 at Fri Jan 19 03:02:32 2018, MaxMem=  4294967296 cpu:               2.7 elap:               0.1
 (Enter /share/apps/g16/l101.exe)
 ------------------
 Base pair stacking
 ------------------
 Symbolic Z-matrix:
 Charge =  0 Multiplicity = 1
 N                     4.18498   6.22655  -5.76101 
 C                     4.13399   7.62068  -6.24248 
 C                     3.79384   4.08132  -5.47412 
 N                     4.81233   4.41149  -4.59186 
 C                     5.00722   5.6907   -4.80001 
 H                     5.74476   6.29888  -4.27553 
 N                     2.15997   2.88419  -6.68255 
 C                     1.88593   4.03561  -7.30441 
 H                     1.09575   3.98363  -8.0522 
 N                     2.43883   5.23596  -7.142 
 C                     3.39686   5.18983  -6.20154 
 C                     3.12911   2.8707   -5.74146 
 N                     3.40411   1.72229  -5.1196 
 H                     4.11357   1.66586  -4.41624 
 H                     2.91064   0.87966  -5.33545 
 H                     5.02202   7.87512  -6.62568 
 H                     3.43107   7.7049   -6.94813 
 H                     3.91433   8.23064  -5.48111 
 N                     0.61926   5.41391  -3.44516 
 C                     0.01378   4.19039  -3.60159 
 C                     0.0276    6.71354  -3.82145 
 N                    -2.70624   2.28955  -4.62628 
 H                    -2.96327   1.3239   -4.65273 
 H                    -3.37353   2.94649  -4.97825 
 N                    -1.21351   3.97163  -4.12115 
 C                    -1.52026   2.68667  -4.14085 
 N                    -0.69004   1.69057  -3.68694 
 H                    -1.00763   0.73496  -3.74089 
 C                     0.57689   1.89256  -3.14847 
 O                     1.24583   0.92386  -2.76786 
 C                     0.9204    3.2681   -3.12073 
 N                     2.07188   3.89988  -2.67146 
 C                     1.84836   5.1685   -2.88325 
 H                     2.54887   5.9703   -2.64731 
 H                     0.60757   7.16143  -4.50103 
 H                    -0.88173   6.56409  -4.20753 
 H                    -0.04662   7.29478  -3.01184 
 H                    -2.90532  -3.84371  -4.87548 
 H                    -3.38134  -3.83693  -3.17901 
 H                    -3.31037  -2.32226  -4.08018 
 H                     1.28984  -4.91704  -2.77903 
 C                     0.65649  -4.04856  -2.96021 
 O                     2.36567  -2.47318  -2.48693 
 C                     1.20783  -2.73649  -2.81075 
 H                     0.67489  -0.76684  -2.96816 
 N                     0.32186  -1.70866  -3.06346 
 O                    -1.70207  -0.85162  -3.63478 
 C                    -0.99504  -1.82315  -3.43251 
 H                    -1.09171  -5.16809  -3.44627 
 C                    -0.62457  -4.19241  -3.3191 
 C                    -2.85456  -3.29232  -3.94841 
 N                    -1.45313  -3.12013  -3.55587 
 H                    -1.96114  -3.48344  -8.95237 
 H                    -2.23684  -2.03736  -8.24884 
 H                    -2.88549  -3.39229  -7.61047 
 H                     3.55698  -1.85046  -4.26737 
 H                     3.01278  -3.44522  -4.53325 
 N                     2.88795  -2.46433  -4.68653 
 C                     1.87401  -1.99673  -5.41759 
 C                    -0.08487  -2.18537  -6.75512 
 N                    -0.22766  -0.86313  -6.94417 
 H                     0.70095   0.88836  -6.42401 
 C                     0.74157  -0.19522  -6.32175 
 N                     1.75799  -0.66173  -5.58906 
 H                    -0.78237  -5.33104  -7.02041 
 C                    -0.34059  -4.36304  -6.78218 
 N                     0.73481  -4.19403  -6.05237 
 C                     0.90803  -2.81777  -6.02727 
 C                    -2.0889   -3.01141  -8.08009 
 N                    -0.88849  -3.18974  -7.24031 
 
 ITRead=  0  0  0  0  0  0  0  0  0  0  0  0  0  0  0  0  0  0  0  0
 ITRead=  0  0  0  0  0  0  0  0  0  0  0  0  0  0  0  0  0  0  0  0
 ITRead=  0  0  0  0  0  0  0  0  0  0  0  0  0  0  0  0  0  0  0  0
 ITRead=  0  0  0  0  0  0  0  0  0  0
 MicOpt= -1 -1 -1 -1 -1 -1 -1 -1 -1 -1 -1 -1 -1 -1 -1 -1 -1 -1 -1 -1
 MicOpt= -1 -1 -1 -1 -1 -1 -1 -1 -1 -1 -1 -1 -1 -1 -1 -1 -1 -1 -1 -1
 MicOpt= -1 -1 -1 -1 -1 -1 -1 -1 -1 -1 -1 -1 -1 -1 -1 -1 -1 -1 -1 -1
 MicOpt= -1 -1 -1 -1 -1 -1 -1 -1 -1 -1
 NAtoms=     70 NQM=       70 NQMF=       0 NMMI=      0 NMMIF=      0
                NMic=       0 NMicF=      0.
                    Isotopes and Nuclear Properties:
 (Nuclear quadrupole moments (NQMom) in fm**2, nuclear magnetic moments (NMagM)
  in nuclear magnetons)

  Atom         1           2           3           4           5           6           7           8           9          10
 IAtWgt=          14          12          12          14          12           1          14          12           1          14
 AtmWgt=  14.0030740  12.0000000  12.0000000  14.0030740  12.0000000   1.0078250  14.0030740  12.0000000   1.0078250  14.0030740
 NucSpn=           2           0           0           2           0           1           2           0           1           2
 AtZEff=  -0.0000000  -0.0000000  -0.0000000  -0.0000000  -0.0000000  -0.0000000  -0.0000000  -0.0000000  -0.0000000  -0.0000000
 NQMom=    2.0440000   0.0000000   0.0000000   2.0440000   0.0000000   0.0000000   2.0440000   0.0000000   0.0000000   2.0440000
 NMagM=    0.4037610   0.0000000   0.0000000   0.4037610   0.0000000   2.7928460   0.4037610   0.0000000   2.7928460   0.4037610
 AtZNuc=   7.0000000   6.0000000   6.0000000   7.0000000   6.0000000   1.0000000   7.0000000   6.0000000   1.0000000   7.0000000

  Atom        11          12          13          14          15          16          17          18          19          20
 IAtWgt=          12          12          14           1           1           1           1           1          14          12
 AtmWgt=  12.0000000  12.0000000  14.0030740   1.0078250   1.0078250   1.0078250   1.0078250   1.0078250  14.0030740  12.0000000
 NucSpn=           0           0           2           1           1           1           1           1           2           0
 AtZEff=  -0.0000000  -0.0000000  -0.0000000  -0.0000000  -0.0000000  -0.0000000  -0.0000000  -0.0000000  -0.0000000  -0.0000000
 NQMom=    0.0000000   0.0000000   2.0440000   0.0000000   0.0000000   0.0000000   0.0000000   0.0000000   2.0440000   0.0000000
 NMagM=    0.0000000   0.0000000   0.4037610   2.7928460   2.7928460   2.7928460   2.7928460   2.7928460   0.4037610   0.0000000
 AtZNuc=   6.0000000   6.0000000   7.0000000   1.0000000   1.0000000   1.0000000   1.0000000   1.0000000   7.0000000   6.0000000

  Atom        21          22          23          24          25          26          27          28          29          30
 IAtWgt=          12          14           1           1          14          12          14           1          12          16
 AtmWgt=  12.0000000  14.0030740   1.0078250   1.0078250  14.0030740  12.0000000  14.0030740   1.0078250  12.0000000  15.9949146
 NucSpn=           0           2           1           1           2           0           2           1           0           0
 AtZEff=  -0.0000000  -0.0000000  -0.0000000  -0.0000000  -0.0000000  -0.0000000  -0.0000000  -0.0000000  -0.0000000  -0.0000000
 NQMom=    0.0000000   2.0440000   0.0000000   0.0000000   2.0440000   0.0000000   2.0440000   0.0000000   0.0000000   0.0000000
 NMagM=    0.0000000   0.4037610   2.7928460   2.7928460   0.4037610   0.0000000   0.4037610   2.7928460   0.0000000   0.0000000
 AtZNuc=   6.0000000   7.0000000   1.0000000   1.0000000   7.0000000   6.0000000   7.0000000   1.0000000   6.0000000   8.0000000

  Atom        31          32          33          34          35          36          37          38          39          40
 IAtWgt=          12          14          12           1           1           1           1           1           1           1
 AtmWgt=  12.0000000  14.0030740  12.0000000   1.0078250   1.0078250   1.0078250   1.0078250   1.0078250   1.0078250   1.0078250
 NucSpn=           0           2           0           1           1           1           1           1           1           1
 AtZEff=  -0.0000000  -0.0000000  -0.0000000  -0.0000000  -0.0000000  -0.0000000  -0.0000000  -0.0000000  -0.0000000  -0.0000000
 NQMom=    0.0000000   2.0440000   0.0000000   0.0000000   0.0000000   0.0000000   0.0000000   0.0000000   0.0000000   0.0000000
 NMagM=    0.0000000   0.4037610   0.0000000   2.7928460   2.7928460   2.7928460   2.7928460   2.7928460   2.7928460   2.7928460
 AtZNuc=   6.0000000   7.0000000   6.0000000   1.0000000   1.0000000   1.0000000   1.0000000   1.0000000   1.0000000   1.0000000

  Atom        41          42          43          44          45          46          47          48          49          50
 IAtWgt=           1          12          16          12           1          14          16          12           1          12
 AtmWgt=   1.0078250  12.0000000  15.9949146  12.0000000   1.0078250  14.0030740  15.9949146  12.0000000   1.0078250  12.0000000
 NucSpn=           1           0           0           0           1           2           0           0           1           0
 AtZEff=  -0.0000000  -0.0000000  -0.0000000  -0.0000000  -0.0000000  -0.0000000  -0.0000000  -0.0000000  -0.0000000  -0.0000000
 NQMom=    0.0000000   0.0000000   0.0000000   0.0000000   0.0000000   2.0440000   0.0000000   0.0000000   0.0000000   0.0000000
 NMagM=    2.7928460   0.0000000   0.0000000   0.0000000   2.7928460   0.4037610   0.0000000   0.0000000   2.7928460   0.0000000
 AtZNuc=   1.0000000   6.0000000   8.0000000   6.0000000   1.0000000   7.0000000   8.0000000   6.0000000   1.0000000   6.0000000

  Atom        51          52          53          54          55          56          57          58          59          60
 IAtWgt=          12          14           1           1           1           1           1          14          12          12
 AtmWgt=  12.0000000  14.0030740   1.0078250   1.0078250   1.0078250   1.0078250   1.0078250  14.0030740  12.0000000  12.0000000
 NucSpn=           0           2           1           1           1           1           1           2           0           0
 AtZEff=  -0.0000000  -0.0000000  -0.0000000  -0.0000000  -0.0000000  -0.0000000  -0.0000000  -0.0000000  -0.0000000  -0.0000000
 NQMom=    0.0000000   2.0440000   0.0000000   0.0000000   0.0000000   0.0000000   0.0000000   2.0440000   0.0000000   0.0000000
 NMagM=    0.0000000   0.4037610   2.7928460   2.7928460   2.7928460   2.7928460   2.7928460   0.4037610   0.0000000   0.0000000
 AtZNuc=   6.0000000   7.0000000   1.0000000   1.0000000   1.0000000   1.0000000   1.0000000   7.0000000   6.0000000   6.0000000

  Atom        61          62          63          64          65          66          67          68          69          70
 IAtWgt=          14           1          12          14           1          12          14          12          12          14
 AtmWgt=  14.0030740   1.0078250  12.0000000  14.0030740   1.0078250  12.0000000  14.0030740  12.0000000  12.0000000  14.0030740
 NucSpn=           2           1           0           2           1           0           2           0           0           2
 AtZEff=  -0.0000000  -0.0000000  -0.0000000  -0.0000000  -0.0000000  -0.0000000  -0.0000000  -0.0000000  -0.0000000  -0.0000000
 NQMom=    2.0440000   0.0000000   0.0000000   2.0440000   0.0000000   0.0000000   2.0440000   0.0000000   0.0000000   2.0440000
 NMagM=    0.4037610   2.7928460   0.0000000   0.4037610   2.7928460   0.0000000   0.4037610   0.0000000   0.0000000   0.4037610
 AtZNuc=   7.0000000   1.0000000   6.0000000   7.0000000   1.0000000   6.0000000   7.0000000   6.0000000   6.0000000   7.0000000
 Leave Link  101 at Fri Jan 19 03:02:33 2018, MaxMem=  4294967296 cpu:               7.7 elap:               0.3
 (Enter /share/apps/g16/l202.exe)
 Stoichiometry    C23H27N17O3
 Framework group  C1[X(C23H27N17O3)]
 Deg. of freedom   204
 Full point group                 C1      NOp   1
 Largest Abelian subgroup         C1      NOp   1
 Largest concise Abelian subgroup C1      NOp   1
                         Standard orientation:                         
 ---------------------------------------------------------------------
 Center     Atomic      Atomic             Coordinates (Angstroms)
 Number     Number       Type             X           Y           Z
 ---------------------------------------------------------------------
      1          7           0       -6.059593   -1.571602    0.260042
      2          6           0       -7.358549   -1.312694    0.910958
      3          6           0       -3.905938   -1.771390   -0.138910
      4          7           0       -4.553449   -2.145926   -1.307314
      5          6           0       -5.825035   -2.010575   -1.020201
      6          1           0       -6.642274   -2.218957   -1.711306
      7          7           0       -2.237241   -1.284196    1.455157
      8          6           0       -3.233567   -0.972274    2.290391
      9          1           0       -2.923907   -0.646939    3.282633
     10          7           0       -4.548798   -1.001754    2.084929
     11          6           0       -4.821219   -1.414784    0.836087
     12          6           0       -2.544133   -1.696365    0.205757
     13          7           0       -1.550964   -2.008178   -0.629449
     14          1           0       -1.731686   -2.317831   -1.563626
     15          1           0       -0.592948   -1.942933   -0.350027
     16          1           0       -7.899928   -2.153480    0.923862
     17          1           0       -7.206212   -1.001075    1.848411
     18          1           0       -7.853415   -0.607422    0.403331
     19          7           0       -4.076996    2.208223   -0.461161
     20          6           0       -2.722199    2.277700   -0.242582
     21          6           0       -5.104143    2.941479    0.305650
     22          7           0       -0.023825    3.548609    1.536535
     23          1           0        0.971763    3.459104    1.530386
     24          1           0       -0.420194    4.159917    2.222044
     25          7           0       -2.106663    3.021510    0.701824
     26          6           0       -0.793632    2.879355    0.665105
     27          7           0       -0.132056    2.071117   -0.227411
     28          1           0        0.874274    2.023872   -0.182342
     29          6           0       -0.745016    1.296925   -1.207599
     30          8           0       -0.055454    0.601406   -1.963563
     31          6           0       -2.155654    1.439209   -1.180539
     32          7           0       -3.135052    0.855080   -1.972038
     33          6           0       -4.255791    1.339454   -1.509935
     34          1           0       -5.244941    1.095413   -1.898898
     35          1           0       -5.726059    2.290765    0.739922
     36          1           0       -4.659981    3.495958    1.008179
     37          1           0       -5.620598    3.536065   -0.309621
     38          1           0        5.816282    1.732347    0.977104
     39          1           0        5.982408    2.878909   -0.350468
     40          1           0        4.525865    2.887991    0.644403
     41          1           0        5.429228   -1.226933   -2.796402
     42          6           0        4.823479   -0.504946   -2.248663
     43          8           0        2.767985   -1.261658   -3.159401
     44          6           0        3.403489   -0.504604   -2.426060
     45          1           0        1.727276    0.479616   -1.785792
     46          7           0        2.732259    0.448476   -1.686920
     47          8           0        2.602762    2.172370   -0.214290
     48          6           0        3.280878    1.365779   -0.826046
     49          1           0        6.462809    0.418583   -1.245918
     50          6           0        5.387746    0.377512   -1.415908
     51          6           0        5.286690    2.263477    0.200252
     52          7           0        4.655445    1.302604   -0.708592
     53          1           0        5.129770   -0.738917    4.303342
     54          1           0        3.866099    0.244151    3.988978
     55          1           0        5.364883    0.657539    3.492133
     56          1           0        1.767661   -2.857358   -1.963550
     57          1           0        3.450580   -3.001102   -1.724328
     58          7           0        2.567944   -2.662595   -1.396321
     59          6           0        2.463859   -1.981813   -0.253135
     60          6           0        3.291518   -0.967803    1.733960
     61          7           0        2.093269   -0.525361    2.149764
     62          1           0        0.135156   -0.547580    1.544867
     63          6           0        1.142473   -0.868586    1.283104
     64          7           0        1.244708   -1.550420    0.137579
     65          1           0        6.486347   -1.455934    1.817144
     66          6           0        5.427854   -1.429337    1.556695
     67          7           0        4.911824   -1.967958    0.479072
     68          6           0        3.557834   -1.682594    0.579103
     69          6           0        4.734624   -0.105043    3.638458
     70          7           0        4.504330   -0.807515    2.361151
 ---------------------------------------------------------------------
 Rotational constants (GHZ):           0.1595277           0.0521613           0.0496846
 Leave Link  202 at Fri Jan 19 03:02:33 2018, MaxMem=  4294967296 cpu:               0.3 elap:               0.0
 (Enter /share/apps/g16/l301.exe)
 Standard basis: CC-pVDZ (5D, 7F)
 Ernie: Thresh=  0.10000D-02 Tol=  0.10000D-05 Strict=F.
 Ernie:  86 primitive shells out of 1081 were deleted.
 There are   780 symmetry adapted cartesian basis functions of A   symmetry.
 There are   737 symmetry adapted basis functions of A   symmetry.
   737 basis functions,  1608 primitive gaussians,   780 cartesian basis functions
   154 alpha electrons      154 beta electrons
       nuclear repulsion energy      5529.6831422652 Hartrees.
 IExCor= 4639 DFT=T Ex+Corr=wB97XD ExCW=0 ScaHFX=  1.000000
 ScaDFX=  1.000000  1.000000  1.000000  1.000000 ScalE2=  1.000000  1.000000
 IRadAn=      5 IRanWt=     -1 IRanGd=            0 ICorTp=0 IEmpDi=121
 HFx  wShort=  0.000000 wLong=  0.200000 cFull=  0.222036 cShort=  0.000000 cLong=  0.777964
 DFx  wShort=  0.000000 wLong=  0.200000 cFull=  0.000000 cShort=  0.000000 cLong=  1.000000
 NAtoms=   70 NActive=   70 NUniq=   70 SFac= 1.00D+00 NAtFMM=   60 NAOKFM=T Big=T
 Integral buffers will be    131072 words long.
 Raffenetti 2 integral format.
 Two-electron integral symmetry is turned on.
 R6Disp:  Grimme-D2 Dispersion energy=       -0.0718104863 Hartrees.
 Nuclear repulsion after empirical dispersion term =     5529.6113317789 Hartrees.
 Leave Link  301 at Fri Jan 19 03:02:33 2018, MaxMem=  4294967296 cpu:               2.2 elap:               0.1
 (Enter /share/apps/g16/l302.exe)
 NPDir=0 NMtPBC=     1 NCelOv=     1 NCel=       1 NClECP=     1 NCelD=      1
         NCelK=      1 NCelE2=     1 NClLst=     1 CellRange=     0.0.
 One-electron integrals computed using PRISM.
 One-electron integral symmetry used in STVInt
 NBasis=   737 RedAO= T EigKep=  6.91D-04  NBF=   737
 NBsUse=   737 1.00D-06 EigRej= -1.00D+00 NBFU=   737
 Precomputing XC quadrature grid using
 IXCGrd= 4 IRadAn=           5 IRanWt=          -1 IRanGd=           0 AccXCQ= 0.00D+00.
 Generated NRdTot=       0 NPtTot=           0 NUsed=           0 NTot=          32
 NSgBfM=   763   762   762   762   763 MxSgAt=    70 MxSgA2=    70.
 Leave Link  302 at Fri Jan 19 03:02:37 2018, MaxMem=  4294967296 cpu:             134.7 elap:               4.2
 (Enter /share/apps/g16/l303.exe)
 DipDrv:  MaxL=1.
 Leave Link  303 at Fri Jan 19 03:02:38 2018, MaxMem=  4294967296 cpu:              12.4 elap:               0.4
 (Enter /share/apps/g16/l401.exe)
 ExpMin= 1.22D-01 ExpMax= 1.17D+04 ExpMxC= 4.01D+02 IAcc=3 IRadAn=         5 AccDes= 0.00D+00
 Harris functional with IExCor= 4639 and IRadAn=       5 diagonalized for initial guess.
 HarFok:  IExCor= 4639 AccDes= 0.00D+00 IRadAn=         5 IDoV= 1 UseB2=F ITyADJ=14
 ICtDFT=  3500011 ScaDFX=  1.000000  1.000000  1.000000  1.000000
 FoFCou: FMM=F IPFlag=           0 FMFlag=      100000 FMFlg1=        2001
         NFxFlg=           0 DoJE=T BraDBF=F KetDBF=T FulRan=T
         wScrn=  0.000000 ICntrl=       500 IOpCl=  0 I1Cent=   200000004 NGrid=           0
         NMat0=    1 NMatS0=      1 NMatT0=    0 NMatD0=    1 NMtDS0=    0 NMtDT0=    0
 Petite list used in FoFCou.
 Harris En= -1963.85463156378    
 JPrj=0 DoOrth=F DoCkMO=F.
 Leave Link  401 at Fri Jan 19 03:02:50 2018, MaxMem=  4294967296 cpu:             401.7 elap:              12.6
 (Enter /share/apps/g16/l502.exe)
 Integral symmetry usage will be decided dynamically.
 Closed shell SCF:
 Using DIIS extrapolation, IDIIS=  1040.
 NGot=  4294967296 LenX=  4293717438 LenY=  4293108258
 Requested convergence on RMS density matrix=1.00D-08 within  20 cycles.
 Requested convergence on MAX density matrix=1.00D-06.
 Requested convergence on             energy=1.00D-06.
 No special actions if energy rises.
 Fock matrices will be formed incrementally for  20 cycles.
 Integral accuracy reduced to 1.0D-05 until final iterations.

 Cycle   1  Pass 0  IDiag  1:
 FoFJK:  IHMeth= 1 ICntrl=       0 DoSepK=T KAlg= 0 I1Cent=           0 FoldK=F
 IRaf=         1 NMat=       1 IRICut=       1 DoRegI=T DoRafI=F ISym2E= 0 IDoP0=0 IntGTp=1.
 FoFCou: FMM=T IPFlag=           0 FMFlag=      100000 FMFlg1=        2001
         NFxFlg=           0 DoJE=T BraDBF=F KetDBF=F FulRan=T
         wScrn=  0.000000 ICntrl=       500 IOpCl=  0 I1Cent=           0 NGrid=           0
         NMat0=    1 NMatS0=      1 NMatT0=    0 NMatD0=    1 NMtDS0=    0 NMtDT0=    0
 Symmetry not used in FoFCou.
 FMM levels:  10  Number of levels for PrismC:   9
 E= -2048.28713809170    
 DIIS: error= 2.54D-02 at cycle   1 NSaved=   1.
 NSaved= 1 IEnMin= 1 EnMin= -2048.28713809170     IErMin= 1 ErrMin= 2.54D-02
 ErrMax= 2.54D-02  0.00D+00 EMaxC= 1.00D-01 BMatC= 8.38D-01 BMatP= 8.38D-01
 IDIUse=3 WtCom= 7.46D-01 WtEn= 2.54D-01
 Coeff-Com:  0.100D+01
 Coeff-En:   0.100D+01
 Coeff:      0.100D+01
 Gap=     0.270 Goal=   None    Shift=    0.000
 GapD=    0.270 DampG=1.000 DampE=0.500 DampFc=0.5000 IDamp=-1.
 Damping current iteration by 5.00D-01
 RMSDP=1.59D-03 MaxDP=1.17D-01              OVMax= 1.83D-01

 Cycle   2  Pass 0  IDiag  1:
 RMSU=  7.96D-04    CP:  9.98D-01
 E= -2048.48311917421     Delta-E=       -0.195981082506 Rises=F Damp=T
 DIIS: error= 1.42D-02 at cycle   2 NSaved=   2.
 NSaved= 2 IEnMin= 2 EnMin= -2048.48311917421     IErMin= 2 ErrMin= 1.42D-02
 ErrMax= 1.42D-02  0.00D+00 EMaxC= 1.00D-01 BMatC= 1.46D-01 BMatP= 8.38D-01
 IDIUse=3 WtCom= 8.58D-01 WtEn= 1.42D-01
 Coeff-Com: -0.179D+00 0.118D+01
 Coeff-En:   0.000D+00 0.100D+01
 Coeff:     -0.154D+00 0.115D+01
 Gap=     0.366 Goal=   None    Shift=    0.000
 RMSDP=6.00D-04 MaxDP=3.18D-02 DE=-1.96D-01 OVMax= 1.58D-01

 Cycle   3  Pass 0  IDiag  1:
 RMSU=  5.93D-04    CP:  9.94D-01  1.10D+00
 E= -2048.66302509053     Delta-E=       -0.179905916320 Rises=F Damp=F
 DIIS: error= 6.11D-03 at cycle   3 NSaved=   3.
 NSaved= 3 IEnMin= 3 EnMin= -2048.66302509053     IErMin= 3 ErrMin= 6.11D-03
 ErrMax= 6.11D-03  0.00D+00 EMaxC= 1.00D-01 BMatC= 6.83D-02 BMatP= 1.46D-01
 IDIUse=3 WtCom= 9.39D-01 WtEn= 6.11D-02
 Coeff-Com: -0.229D+00 0.552D+00 0.677D+00
 Coeff-En:   0.000D+00 0.000D+00 0.100D+01
 Coeff:     -0.215D+00 0.519D+00 0.696D+00
 Gap=     0.281 Goal=   None    Shift=    0.000
 RMSDP=3.79D-04 MaxDP=2.61D-02 DE=-1.80D-01 OVMax= 6.78D-02

 Cycle   4  Pass 0  IDiag  1:
 RMSU=  2.16D-04    CP:  9.94D-01  1.39D+00  6.54D-01
 E= -2048.71507772598     Delta-E=       -0.052052635457 Rises=F Damp=F
 DIIS: error= 2.88D-03 at cycle   4 NSaved=   4.
 NSaved= 4 IEnMin= 4 EnMin= -2048.71507772598     IErMin= 4 ErrMin= 2.88D-03
 ErrMax= 2.88D-03  0.00D+00 EMaxC= 1.00D-01 BMatC= 9.71D-03 BMatP= 6.83D-02
 IDIUse=3 WtCom= 9.71D-01 WtEn= 2.88D-02
 Coeff-Com: -0.966D-01 0.187D+00 0.373D+00 0.536D+00
 Coeff-En:   0.000D+00 0.000D+00 0.671D-01 0.933D+00
 Coeff:     -0.938D-01 0.182D+00 0.365D+00 0.548D+00
 Gap=     0.284 Goal=   None    Shift=    0.000
 RMSDP=1.32D-04 MaxDP=1.09D-02 DE=-5.21D-02 OVMax= 1.70D-02

 Cycle   5  Pass 0  IDiag  1:
 RMSU=  6.12D-05    CP:  9.94D-01  1.36D+00  7.92D-01  6.25D-01
 E= -2048.72324547356     Delta-E=       -0.008167747580 Rises=F Damp=F
 DIIS: error= 3.92D-04 at cycle   5 NSaved=   5.
 NSaved= 5 IEnMin= 5 EnMin= -2048.72324547356     IErMin= 5 ErrMin= 3.92D-04
 ErrMax= 3.92D-04  0.00D+00 EMaxC= 1.00D-01 BMatC= 2.97D-04 BMatP= 9.71D-03
 IDIUse=3 WtCom= 9.96D-01 WtEn= 3.92D-03
 Coeff-Com: -0.247D-01 0.422D-01 0.117D+00 0.236D+00 0.629D+00
 Coeff-En:   0.000D+00 0.000D+00 0.000D+00 0.000D+00 0.100D+01
 Coeff:     -0.246D-01 0.420D-01 0.116D+00 0.235D+00 0.631D+00
 Gap=     0.285 Goal=   None    Shift=    0.000
 RMSDP=2.74D-05 MaxDP=1.68D-03 DE=-8.17D-03 OVMax= 3.58D-03

 Failed to achieve initial convergence to 1.0D-08 in  6 cycles.
 Switch to full accuracy anyway.
 Cycle   6  Pass 1  IDiag  1:
 E= -2048.72356896113     Delta-E=       -0.000323487564 Rises=F Damp=F
 DIIS: error= 1.95D-04 at cycle   1 NSaved=   1.
 NSaved= 1 IEnMin= 1 EnMin= -2048.72356896113     IErMin= 1 ErrMin= 1.95D-04
 ErrMax= 1.95D-04  0.00D+00 EMaxC= 1.00D-01 BMatC= 7.73D-05 BMatP= 7.73D-05
 IDIUse=3 WtCom= 9.98D-01 WtEn= 1.95D-03
 Coeff-Com:  0.100D+01
 Coeff-En:   0.100D+01
 Coeff:      0.100D+01
 Gap=     0.285 Goal=   None    Shift=    0.000
 RMSDP=2.74D-05 MaxDP=1.68D-03 DE=-3.23D-04 OVMax= 2.60D-03

 Cycle   7  Pass 1  IDiag  1:
 RMSU=  1.12D-04    CP:  1.00D+00
 E= -2048.72362720424     Delta-E=       -0.000058243114 Rises=F Damp=F
 DIIS: error= 1.54D-04 at cycle   2 NSaved=   2.
 NSaved= 2 IEnMin= 2 EnMin= -2048.72362720424     IErMin= 2 ErrMin= 1.54D-04
 ErrMax= 1.54D-04  0.00D+00 EMaxC= 1.00D-01 BMatC= 4.59D-05 BMatP= 7.73D-05
 IDIUse=3 WtCom= 9.98D-01 WtEn= 1.54D-03
 Coeff-Com:  0.412D+00 0.588D+00
 Coeff-En:   0.000D+00 0.100D+01
 Coeff:      0.412D+00 0.588D+00
 Gap=     0.285 Goal=   None    Shift=    0.000
 RMSDP=1.19D-05 MaxDP=1.07D-03 DE=-5.82D-05 OVMax= 1.48D-03

 Cycle   8  Pass 1  IDiag  1:
 RMSU=  1.16D-05    CP:  1.00D+00  1.02D+00
 E= -2048.72366062631     Delta-E=       -0.000033422071 Rises=F Damp=F
 DIIS: error= 7.10D-05 at cycle   3 NSaved=   3.
 NSaved= 3 IEnMin= 3 EnMin= -2048.72366062631     IErMin= 3 ErrMin= 7.10D-05
 ErrMax= 7.10D-05  0.00D+00 EMaxC= 1.00D-01 BMatC= 1.05D-05 BMatP= 4.59D-05
 IDIUse=1 WtCom= 1.00D+00 WtEn= 0.00D+00
 Coeff-Com: -0.196D-01 0.309D+00 0.710D+00
 Coeff:     -0.196D-01 0.309D+00 0.710D+00
 Gap=     0.285 Goal=   None    Shift=    0.000
 RMSDP=5.81D-06 MaxDP=4.88D-04 DE=-3.34D-05 OVMax= 6.44D-04

 Cycle   9  Pass 1  IDiag  1:
 RMSU=  4.01D-06    CP:  1.00D+00  1.05D+00  7.66D-01
 E= -2048.72367056989     Delta-E=       -0.000009943579 Rises=F Damp=F
 DIIS: error= 2.60D-05 at cycle   4 NSaved=   4.
 NSaved= 4 IEnMin= 4 EnMin= -2048.72367056989     IErMin= 4 ErrMin= 2.60D-05
 ErrMax= 2.60D-05  0.00D+00 EMaxC= 1.00D-01 BMatC= 5.61D-07 BMatP= 1.05D-05
 IDIUse=1 WtCom= 1.00D+00 WtEn= 0.00D+00
 Coeff-Com: -0.321D-01 0.849D-01 0.264D+00 0.683D+00
 Coeff:     -0.321D-01 0.849D-01 0.264D+00 0.683D+00
 Gap=     0.285 Goal=   None    Shift=    0.000
 RMSDP=1.58D-06 MaxDP=1.12D-04 DE=-9.94D-06 OVMax= 5.39D-04

 Cycle  10  Pass 1  IDiag  1:
 RMSU=  1.40D-06    CP:  1.00D+00  1.06D+00  8.01D-01  1.12D+00
 E= -2048.72367152615     Delta-E=       -0.000000956262 Rises=F Damp=F
 DIIS: error= 9.25D-06 at cycle   5 NSaved=   5.
 NSaved= 5 IEnMin= 5 EnMin= -2048.72367152615     IErMin= 5 ErrMin= 9.25D-06
 ErrMax= 9.25D-06  0.00D+00 EMaxC= 1.00D-01 BMatC= 1.47D-07 BMatP= 5.61D-07
 IDIUse=1 WtCom= 1.00D+00 WtEn= 0.00D+00
 Coeff-Com: -0.386D-02-0.554D-01-0.121D+00 0.225D+00 0.955D+00
 Coeff:     -0.386D-02-0.554D-01-0.121D+00 0.225D+00 0.955D+00
 Gap=     0.285 Goal=   None    Shift=    0.000
 RMSDP=1.32D-06 MaxDP=7.88D-05 DE=-9.56D-07 OVMax= 2.83D-04

 Cycle  11  Pass 1  IDiag  1:
 RMSU=  5.34D-07    CP:  1.00D+00  1.06D+00  8.11D-01  1.41D+00  1.17D+00
 E= -2048.72367183803     Delta-E=       -0.000000311882 Rises=F Damp=F
 DIIS: error= 6.12D-06 at cycle   6 NSaved=   6.
 NSaved= 6 IEnMin= 6 EnMin= -2048.72367183803     IErMin= 6 ErrMin= 6.12D-06
 ErrMax= 6.12D-06  0.00D+00 EMaxC= 1.00D-01 BMatC= 3.44D-08 BMatP= 1.47D-07
 IDIUse=1 WtCom= 1.00D+00 WtEn= 0.00D+00
 Coeff-Com:  0.497D-02-0.469D-01-0.122D+00 0.274D-02 0.518D+00 0.643D+00
 Coeff:      0.497D-02-0.469D-01-0.122D+00 0.274D-02 0.518D+00 0.643D+00
 Gap=     0.285 Goal=   None    Shift=    0.000
 RMSDP=4.32D-07 MaxDP=2.59D-05 DE=-3.12D-07 OVMax= 1.44D-04

 Cycle  12  Pass 1  IDiag  1:
 RMSU=  2.03D-07    CP:  1.00D+00  1.06D+00  8.13D-01  1.49D+00  1.30D+00
                    CP:  9.31D-01
 E= -2048.72367188908     Delta-E=       -0.000000051045 Rises=F Damp=F
 DIIS: error= 1.36D-06 at cycle   7 NSaved=   7.
 NSaved= 7 IEnMin= 7 EnMin= -2048.72367188908     IErMin= 7 ErrMin= 1.36D-06
 ErrMax= 1.36D-06  0.00D+00 EMaxC= 1.00D-01 BMatC= 1.08D-09 BMatP= 3.44D-08
 IDIUse=1 WtCom= 1.00D+00 WtEn= 0.00D+00
 Coeff-Com:  0.139D-02-0.933D-02-0.263D-01-0.672D-02 0.773D-01 0.162D+00
 Coeff-Com:  0.802D+00
 Coeff:      0.139D-02-0.933D-02-0.263D-01-0.672D-02 0.773D-01 0.162D+00
 Coeff:      0.802D+00
 Gap=     0.285 Goal=   None    Shift=    0.000
 RMSDP=9.48D-08 MaxDP=5.00D-06 DE=-5.10D-08 OVMax= 2.47D-05

 Cycle  13  Pass 1  IDiag  1:
 RMSU=  5.80D-08    CP:  1.00D+00  1.06D+00  8.12D-01  1.50D+00  1.32D+00
                    CP:  1.02D+00  1.13D+00
 E= -2048.72367189148     Delta-E=       -0.000000002397 Rises=F Damp=F
 DIIS: error= 1.09D-06 at cycle   8 NSaved=   8.
 NSaved= 8 IEnMin= 8 EnMin= -2048.72367189148     IErMin= 8 ErrMin= 1.09D-06
 ErrMax= 1.09D-06  0.00D+00 EMaxC= 1.00D-01 BMatC= 4.17D-10 BMatP= 1.08D-09
 IDIUse=1 WtCom= 1.00D+00 WtEn= 0.00D+00
 Coeff-Com: -0.772D-03 0.926D-02 0.226D-01-0.211D-02-0.115D+00-0.106D+00
 Coeff-Com:  0.403D+00 0.789D+00
 Coeff:     -0.772D-03 0.926D-02 0.226D-01-0.211D-02-0.115D+00-0.106D+00
 Coeff:      0.403D+00 0.789D+00
 Gap=     0.285 Goal=   None    Shift=    0.000
 RMSDP=5.69D-08 MaxDP=2.67D-06 DE=-2.40D-09 OVMax= 1.34D-05

 Cycle  14  Pass 1  IDiag  1:
 RMSU=  3.04D-08    CP:  1.00D+00  1.06D+00  8.12D-01  1.50D+00  1.33D+00
                    CP:  1.07D+00  1.30D+00  1.08D+00
 E= -2048.72367189216     Delta-E=       -0.000000000679 Rises=F Damp=F
 DIIS: error= 1.96D-07 at cycle   9 NSaved=   9.
 NSaved= 9 IEnMin= 9 EnMin= -2048.72367189216     IErMin= 9 ErrMin= 1.96D-07
 ErrMax= 1.96D-07  0.00D+00 EMaxC= 1.00D-01 BMatC= 4.00D-11 BMatP= 4.17D-10
 IDIUse=1 WtCom= 1.00D+00 WtEn= 0.00D+00
 Coeff-Com: -0.484D-03 0.506D-02 0.126D-01 0.139D-03-0.575D-01-0.634D-01
 Coeff-Com:  0.833D-01 0.320D+00 0.700D+00
 Coeff:     -0.484D-03 0.506D-02 0.126D-01 0.139D-03-0.575D-01-0.634D-01
 Coeff:      0.833D-01 0.320D+00 0.700D+00
 Gap=     0.285 Goal=   None    Shift=    0.000
 RMSDP=1.59D-08 MaxDP=8.73D-07 DE=-6.79D-10 OVMax= 3.70D-06

 Cycle  15  Pass 1  IDiag  1:
 RMSU=  1.05D-08    CP:  1.00D+00  1.06D+00  8.12D-01  1.50D+00  1.33D+00
                    CP:  1.08D+00  1.33D+00  1.21D+00  1.13D+00
 E= -2048.72367189194     Delta-E=        0.000000000217 Rises=F Damp=F
 DIIS: error= 7.59D-08 at cycle  10 NSaved=  10.
 NSaved=10 IEnMin= 9 EnMin= -2048.72367189216     IErMin=10 ErrMin= 7.59D-08
 ErrMax= 7.59D-08  0.00D+00 EMaxC= 1.00D-01 BMatC= 5.91D-12 BMatP= 4.00D-11
 IDIUse=1 WtCom= 1.00D+00 WtEn= 0.00D+00
 Coeff-Com: -0.845D-05-0.155D-03-0.306D-03 0.222D-03 0.340D-02-0.277D-03
 Coeff-Com: -0.450D-01-0.467D-01 0.253D+00 0.836D+00
 Coeff:     -0.845D-05-0.155D-03-0.306D-03 0.222D-03 0.340D-02-0.277D-03
 Coeff:     -0.450D-01-0.467D-01 0.253D+00 0.836D+00
 Gap=     0.285 Goal=   None    Shift=    0.000
 RMSDP=7.25D-09 MaxDP=2.95D-07 DE= 2.17D-10 OVMax= 1.76D-06

 SCF Done:  E(RwB97XD) =  -2048.72367189     A.U. after   15 cycles
            NFock= 15  Conv=0.72D-08     -V/T= 2.0053
 KE= 2.037888936036D+03 PE=-1.584041791907D+04 EE= 6.224193979363D+03
 Leave Link  502 at Fri Jan 19 03:14:19 2018, MaxMem=  4294967296 cpu:           21244.5 elap:             688.8
 (Enter /share/apps/g16/l601.exe)
 Copying SCF densities to generalized density rwf, IOpCl= 0 IROHF=0.

 **********************************************************************

            Population analysis using the SCF density.

 **********************************************************************

 Orbital symmetries:
       Occupied  (A) (A) (A) (A) (A) (A) (A) (A) (A) (A) (A) (A)
                 (A) (A) (A) (A) (A) (A) (A) (A) (A) (A) (A) (A)
                 (A) (A) (A) (A) (A) (A) (A) (A) (A) (A) (A) (A)
                 (A) (A) (A) (A) (A) (A) (A) (A) (A) (A) (A) (A)
                 (A) (A) (A) (A) (A) (A) (A) (A) (A) (A) (A) (A)
                 (A) (A) (A) (A) (A) (A) (A) (A) (A) (A) (A) (A)
                 (A) (A) (A) (A) (A) (A) (A) (A) (A) (A) (A) (A)
                 (A) (A) (A) (A) (A) (A) (A) (A) (A) (A) (A) (A)
                 (A) (A) (A) (A) (A) (A) (A) (A) (A) (A) (A) (A)
                 (A) (A) (A) (A) (A) (A) (A) (A) (A) (A) (A) (A)
                 (A) (A) (A) (A) (A) (A) (A) (A) (A) (A) (A) (A)
                 (A) (A) (A) (A) (A) (A) (A) (A) (A) (A) (A) (A)
                 (A) (A) (A) (A) (A) (A) (A) (A) (A) (A)
       Virtual   (A) (A) (A) (A) (A) (A) (A) (A) (A) (A) (A) (A)
                 (A) (A) (A) (A) (A) (A) (A) (A) (A) (A) (A) (A)
                 (A) (A) (A) (A) (A) (A) (A) (A) (A) (A) (A) (A)
                 (A) (A) (A) (A) (A) (A) (A) (A) (A) (A) (A) (A)
                 (A) (A) (A) (A) (A) (A) (A) (A) (A) (A) (A) (A)
                 (A) (A) (A) (A) (A) (A) (A) (A) (A) (A) (A) (A)
                 (A) (A) (A) (A) (A) (A) (A) (A) (A) (A) (A) (A)
                 (A) (A) (A) (A) (A) (A) (A) (A) (A) (A) (A) (A)
                 (A) (A) (A) (A) (A) (A) (A) (A) (A) (A) (A) (A)
                 (A) (A) (A) (A) (A) (A) (A) (A) (A) (A) (A) (A)
                 (A) (A) (A) (A) (A) (A) (A) (A) (A) (A) (A) (A)
                 (A) (A) (A) (A) (A) (A) (A) (A) (A) (A) (A) (A)
                 (A) (A) (A) (A) (A) (A) (A) (A) (A) (A) (A) (A)
                 (A) (A) (A) (A) (A) (A) (A) (A) (A) (A) (A) (A)
                 (A) (A) (A) (A) (A) (A) (A) (A) (A) (A) (A) (A)
                 (A) (A) (A) (A) (A) (A) (A) (A) (A) (A) (A) (A)
                 (A) (A) (A) (A) (A) (A) (A) (A) (A) (A) (A) (A)
                 (A) (A) (A) (A) (A) (A) (A) (A) (A) (A) (A) (A)
                 (A) (A) (A) (A) (A) (A) (A) (A) (A) (A) (A) (A)
                 (A) (A) (A) (A) (A) (A) (A) (A) (A) (A) (A) (A)
                 (A) (A) (A) (A) (A) (A) (A) (A) (A) (A) (A) (A)
                 (A) (A) (A) (A) (A) (A) (A) (A) (A) (A) (A) (A)
                 (A) (A) (A) (A) (A) (A) (A) (A) (A) (A) (A) (A)
                 (A) (A) (A) (A) (A) (A) (A) (A) (A) (A) (A) (A)
                 (A) (A) (A) (A) (A) (A) (A) (A) (A) (A) (A) (A)
                 (A) (A) (A) (A) (A) (A) (A) (A) (A) (A) (A) (A)
                 (A) (A) (A) (A) (A) (A) (A) (A) (A) (A) (A) (A)
                 (A) (A) (A) (A) (A) (A) (A) (A) (A) (A) (A) (A)
                 (A) (A) (A) (A) (A) (A) (A) (A) (A) (A) (A) (A)
                 (A) (A) (A) (A) (A) (A) (A) (A) (A) (A) (A) (A)
                 (A) (A) (A) (A) (A) (A) (A) (A) (A) (A) (A) (A)
                 (A) (A) (A) (A) (A) (A) (A) (A) (A) (A) (A) (A)
                 (A) (A) (A) (A) (A) (A) (A) (A) (A) (A) (A) (A)
                 (A) (A) (A) (A) (A) (A) (A) (A) (A) (A) (A) (A)
                 (A) (A) (A) (A) (A) (A) (A) (A) (A) (A) (A) (A)
                 (A) (A) (A) (A) (A) (A) (A) (A) (A) (A) (A) (A)
                 (A) (A) (A) (A) (A) (A) (A) (A) (A) (A) (A) (A)
                 (A) (A) (A) (A) (A) (A) (A) (A) (A) (A) (A) (A)
                 (A) (A) (A) (A) (A) (A) (A) (A) (A) (A) (A) (A)
                 (A) (A) (A) (A) (A) (A) (A) (A) (A) (A) (A) (A)
                 (A) (A) (A) (A) (A) (A) (A) (A) (A) (A) (A) (A)
                 (A) (A) (A) (A) (A) (A) (A) (A) (A) (A) (A) (A)
                 (A) (A) (A) (A) (A) (A) (A) (A) (A) (A) (A) (A)
                 (A) (A) (A) (A) (A) (A) (A) (A) (A) (A) (A) (A)
                 (A) (A) (A) (A) (A) (A) (A) (A) (A) (A) (A) (A)
                 (A) (A) (A) (A) (A) (A) (A) (A) (A) (A) (A) (A)
                 (A) (A) (A) (A) (A) (A) (A) (A) (A) (A) (A) (A)
                 (A) (A) (A) (A) (A) (A) (A) (A) (A) (A) (A) (A)
                 (A) (A) (A) (A) (A) (A) (A)
 The electronic state is 1-A.
 Alpha  occ. eigenvalues --  -19.25950 -19.21950 -19.20869 -14.52639 -14.51485
 Alpha  occ. eigenvalues --  -14.49103 -14.48873 -14.47972 -14.47115 -14.46820
 Alpha  occ. eigenvalues --  -14.45741 -14.44400 -14.42901 -14.42682 -14.42162
 Alpha  occ. eigenvalues --  -14.42137 -14.41593 -14.41113 -14.40905 -14.40358
 Alpha  occ. eigenvalues --  -10.45589 -10.41376 -10.40112 -10.38437 -10.38161
 Alpha  occ. eigenvalues --  -10.37604 -10.36931 -10.36042 -10.35625 -10.35530
 Alpha  occ. eigenvalues --  -10.34613 -10.34458 -10.34316 -10.33612 -10.33386
 Alpha  occ. eigenvalues --  -10.33307 -10.33255 -10.31458 -10.31315 -10.30939
 Alpha  occ. eigenvalues --  -10.30776 -10.28713 -10.28224  -1.19552  -1.14177
 Alpha  occ. eigenvalues --   -1.13642  -1.13372  -1.11635  -1.10710  -1.09477
 Alpha  occ. eigenvalues --   -1.08740  -1.07675  -1.05167  -1.03324  -1.02701
 Alpha  occ. eigenvalues --   -1.00534  -0.99903  -0.99838  -0.98670  -0.97190
 Alpha  occ. eigenvalues --   -0.96672  -0.95341  -0.92790  -0.90934  -0.86536
 Alpha  occ. eigenvalues --   -0.84987  -0.84232  -0.84202  -0.83904  -0.82618
 Alpha  occ. eigenvalues --   -0.82579  -0.78918  -0.75796  -0.74745  -0.73793
 Alpha  occ. eigenvalues --   -0.73563  -0.73453  -0.73091  -0.71234  -0.69103
 Alpha  occ. eigenvalues --   -0.67515  -0.66621  -0.66475  -0.65504  -0.64558
 Alpha  occ. eigenvalues --   -0.63911  -0.63042  -0.62802  -0.62728  -0.61871
 Alpha  occ. eigenvalues --   -0.60633  -0.60372  -0.59490  -0.59272  -0.58517
 Alpha  occ. eigenvalues --   -0.58367  -0.58311  -0.57098  -0.56701  -0.56457
 Alpha  occ. eigenvalues --   -0.56077  -0.55461  -0.55273  -0.54589  -0.54249
 Alpha  occ. eigenvalues --   -0.53812  -0.53610  -0.53064  -0.52646  -0.52606
 Alpha  occ. eigenvalues --   -0.52173  -0.52034  -0.51708  -0.51121  -0.50439
 Alpha  occ. eigenvalues --   -0.50403  -0.50128  -0.49548  -0.49348  -0.49057
 Alpha  occ. eigenvalues --   -0.48647  -0.48489  -0.47720  -0.47628  -0.47411
 Alpha  occ. eigenvalues --   -0.47148  -0.45837  -0.45183  -0.43694  -0.42265
 Alpha  occ. eigenvalues --   -0.41327  -0.39600  -0.39545  -0.37741  -0.37421
 Alpha  occ. eigenvalues --   -0.37348  -0.37231  -0.36371  -0.35611  -0.34362
 Alpha  occ. eigenvalues --   -0.33836  -0.33735  -0.33591  -0.33468  -0.33011
 Alpha  occ. eigenvalues --   -0.32768  -0.32463  -0.32023  -0.31311  -0.31123
 Alpha  occ. eigenvalues --   -0.30537  -0.27395  -0.25900  -0.25577
 Alpha virt. eigenvalues --    0.02906   0.05024   0.07709   0.07888   0.08808
 Alpha virt. eigenvalues --    0.09008   0.09653   0.10713   0.10920   0.12217
 Alpha virt. eigenvalues --    0.13345   0.13557   0.14259   0.14418   0.14837
 Alpha virt. eigenvalues --    0.15966   0.16282   0.17610   0.18126   0.18159
 Alpha virt. eigenvalues --    0.18956   0.19001   0.19486   0.20107   0.20237
 Alpha virt. eigenvalues --    0.20738   0.21300   0.21839   0.22040   0.22254
 Alpha virt. eigenvalues --    0.22519   0.22901   0.23445   0.23567   0.23754
 Alpha virt. eigenvalues --    0.23982   0.24181   0.24557   0.25623   0.25705
 Alpha virt. eigenvalues --    0.26217   0.26556   0.27048   0.27863   0.27883
 Alpha virt. eigenvalues --    0.28725   0.29429   0.29788   0.29969   0.30605
 Alpha virt. eigenvalues --    0.31281   0.31709   0.32473   0.32871   0.33956
 Alpha virt. eigenvalues --    0.34004   0.34314   0.35134   0.35685   0.36283
 Alpha virt. eigenvalues --    0.36887   0.37638   0.37779   0.38551   0.39580
 Alpha virt. eigenvalues --    0.40241   0.40500   0.41360   0.41892   0.41953
 Alpha virt. eigenvalues --    0.42303   0.42783   0.43024   0.43977   0.44117
 Alpha virt. eigenvalues --    0.44575   0.45719   0.46062   0.46575   0.46831
 Alpha virt. eigenvalues --    0.47564   0.47603   0.48088   0.49227   0.49777
 Alpha virt. eigenvalues --    0.50096   0.50502   0.50653   0.51199   0.51351
 Alpha virt. eigenvalues --    0.51737   0.51945   0.52195   0.53279   0.53528
 Alpha virt. eigenvalues --    0.54025   0.54210   0.54666   0.54781   0.55246
 Alpha virt. eigenvalues --    0.55746   0.55943   0.56181   0.56991   0.57358
 Alpha virt. eigenvalues --    0.57610   0.58014   0.58701   0.59389   0.59729
 Alpha virt. eigenvalues --    0.59963   0.60700   0.61045   0.61220   0.61513
 Alpha virt. eigenvalues --    0.61943   0.62600   0.62649   0.63810   0.63837
 Alpha virt. eigenvalues --    0.63935   0.64397   0.64786   0.65174   0.65898
 Alpha virt. eigenvalues --    0.66055   0.66190   0.66393   0.66886   0.67604
 Alpha virt. eigenvalues --    0.67985   0.68749   0.69236   0.69463   0.69732
 Alpha virt. eigenvalues --    0.70506   0.70818   0.71251   0.71614   0.72220
 Alpha virt. eigenvalues --    0.72680   0.73211   0.73419   0.73634   0.74023
 Alpha virt. eigenvalues --    0.74303   0.74548   0.75028   0.75458   0.75482
 Alpha virt. eigenvalues --    0.75925   0.76057   0.76381   0.76673   0.77099
 Alpha virt. eigenvalues --    0.78312   0.78440   0.78495   0.78887   0.79148
 Alpha virt. eigenvalues --    0.79536   0.79625   0.79972   0.80665   0.81121
 Alpha virt. eigenvalues --    0.81614   0.82157   0.82254   0.83296   0.83664
 Alpha virt. eigenvalues --    0.83861   0.84066   0.84801   0.85003   0.85505
 Alpha virt. eigenvalues --    0.85723   0.86227   0.86539   0.87358   0.87770
 Alpha virt. eigenvalues --    0.88313   0.88858   0.89226   0.90171   0.90427
 Alpha virt. eigenvalues --    0.91006   0.91017   0.91487   0.91696   0.92359
 Alpha virt. eigenvalues --    0.92931   0.93285   0.93612   0.94026   0.94815
 Alpha virt. eigenvalues --    0.95393   0.95707   0.95946   0.96414   0.96809
 Alpha virt. eigenvalues --    0.97093   0.97848   0.98013   0.98348   0.99120
 Alpha virt. eigenvalues --    0.99362   0.99770   1.00533   1.00833   1.01122
 Alpha virt. eigenvalues --    1.01355   1.01852   1.02357   1.02556   1.02854
 Alpha virt. eigenvalues --    1.03331   1.04102   1.04707   1.05169   1.05678
 Alpha virt. eigenvalues --    1.05828   1.06016   1.06936   1.07374   1.08008
 Alpha virt. eigenvalues --    1.08752   1.09233   1.10037   1.10499   1.10595
 Alpha virt. eigenvalues --    1.11809   1.12055   1.12473   1.13015   1.13026
 Alpha virt. eigenvalues --    1.13833   1.14135   1.14511   1.14919   1.15066
 Alpha virt. eigenvalues --    1.15722   1.16290   1.16987   1.17586   1.18243
 Alpha virt. eigenvalues --    1.18518   1.18939   1.19327   1.19510   1.19888
 Alpha virt. eigenvalues --    1.20351   1.21276   1.21756   1.21861   1.21954
 Alpha virt. eigenvalues --    1.22302   1.22462   1.22850   1.22957   1.23180
 Alpha virt. eigenvalues --    1.23411   1.24008   1.24198   1.24768   1.25445
 Alpha virt. eigenvalues --    1.25737   1.27320   1.27850   1.28402   1.29273
 Alpha virt. eigenvalues --    1.29956   1.30440   1.30749   1.31907   1.32220
 Alpha virt. eigenvalues --    1.32732   1.33013   1.33695   1.34242   1.35131
 Alpha virt. eigenvalues --    1.35145   1.35803   1.36370   1.37080   1.37411
 Alpha virt. eigenvalues --    1.38500   1.38753   1.39909   1.40250   1.41087
 Alpha virt. eigenvalues --    1.41490   1.42204   1.43203   1.44044   1.44852
 Alpha virt. eigenvalues --    1.45446   1.46207   1.47053   1.47722   1.48087
 Alpha virt. eigenvalues --    1.48533   1.49292   1.50058   1.50404   1.51460
 Alpha virt. eigenvalues --    1.51626   1.52490   1.53425   1.53967   1.55130
 Alpha virt. eigenvalues --    1.55600   1.55976   1.56110   1.56330   1.57657
 Alpha virt. eigenvalues --    1.58072   1.59619   1.60287   1.60798   1.61463
 Alpha virt. eigenvalues --    1.61742   1.62631   1.62935   1.63368   1.64470
 Alpha virt. eigenvalues --    1.65065   1.65713   1.66082   1.66884   1.66970
 Alpha virt. eigenvalues --    1.67637   1.68092   1.68521   1.68787   1.69011
 Alpha virt. eigenvalues --    1.70203   1.70742   1.70968   1.71245   1.71711
 Alpha virt. eigenvalues --    1.71879   1.72606   1.73159   1.73490   1.73924
 Alpha virt. eigenvalues --    1.74188   1.74542   1.75082   1.75352   1.75486
 Alpha virt. eigenvalues --    1.75970   1.76355   1.76899   1.77173   1.77381
 Alpha virt. eigenvalues --    1.78091   1.78533   1.78622   1.78783   1.78944
 Alpha virt. eigenvalues --    1.79498   1.79949   1.80106   1.80275   1.80678
 Alpha virt. eigenvalues --    1.81352   1.81754   1.81824   1.82324   1.82608
 Alpha virt. eigenvalues --    1.82883   1.83066   1.83794   1.84579   1.85060
 Alpha virt. eigenvalues --    1.85538   1.86121   1.86518   1.86848   1.87428
 Alpha virt. eigenvalues --    1.87720   1.88228   1.88721   1.89720   1.89820
 Alpha virt. eigenvalues --    1.90432   1.90630   1.91057   1.91851   1.92755
 Alpha virt. eigenvalues --    1.92919   1.93144   1.93301   1.93677   1.94159
 Alpha virt. eigenvalues --    1.95152   1.95670   1.96299   1.97435   1.97793
 Alpha virt. eigenvalues --    1.99186   1.99818   2.00837   2.00912   2.01711
 Alpha virt. eigenvalues --    2.02072   2.02852   2.03374   2.03627   2.04020
 Alpha virt. eigenvalues --    2.04792   2.05397   2.06631   2.07366   2.07768
 Alpha virt. eigenvalues --    2.08211   2.08250   2.09263   2.09764   2.10255
 Alpha virt. eigenvalues --    2.11155   2.11871   2.12220   2.12467   2.13397
 Alpha virt. eigenvalues --    2.14062   2.15859   2.16884   2.17864   2.18694
 Alpha virt. eigenvalues --    2.19722   2.19885   2.21136   2.21252   2.22102
 Alpha virt. eigenvalues --    2.22370   2.22883   2.23128   2.23530   2.23877
 Alpha virt. eigenvalues --    2.24708   2.25306   2.25645   2.26236   2.26555
 Alpha virt. eigenvalues --    2.27548   2.28325   2.29231   2.29629   2.29847
 Alpha virt. eigenvalues --    2.30178   2.30413   2.30906   2.31506   2.32366
 Alpha virt. eigenvalues --    2.33227   2.33760   2.33869   2.34159   2.34418
 Alpha virt. eigenvalues --    2.34481   2.34966   2.35892   2.36628   2.38282
 Alpha virt. eigenvalues --    2.38369   2.40053   2.40702   2.41421   2.41785
 Alpha virt. eigenvalues --    2.42102   2.43492   2.43707   2.44508   2.45141
 Alpha virt. eigenvalues --    2.45224   2.45523   2.46282   2.47119   2.47774
 Alpha virt. eigenvalues --    2.48616   2.49286   2.50366   2.51533   2.51670
 Alpha virt. eigenvalues --    2.52610   2.54102   2.54793   2.55287   2.55882
 Alpha virt. eigenvalues --    2.56019   2.58013   2.58845   2.59630   2.59910
 Alpha virt. eigenvalues --    2.61095   2.61587   2.62058   2.62821   2.63561
 Alpha virt. eigenvalues --    2.64859   2.65211   2.65642   2.66181   2.66504
 Alpha virt. eigenvalues --    2.67219   2.67499   2.67833   2.68733   2.69428
 Alpha virt. eigenvalues --    2.70606   2.71072   2.71272   2.72088   2.72801
 Alpha virt. eigenvalues --    2.73639   2.74026   2.75463   2.75744   2.76858
 Alpha virt. eigenvalues --    2.77439   2.77927   2.78915   2.79175   2.79831
 Alpha virt. eigenvalues --    2.80756   2.80823   2.81147   2.81394   2.81945
 Alpha virt. eigenvalues --    2.82325   2.83048   2.83085   2.83880   2.84778
 Alpha virt. eigenvalues --    2.84912   2.85689   2.86347   2.86656   2.86922
 Alpha virt. eigenvalues --    2.88303   2.88810   2.89590   2.90838   2.93243
 Alpha virt. eigenvalues --    2.94816   2.96489   2.97345   2.97999   2.99259
 Alpha virt. eigenvalues --    2.99530   3.01097   3.02226   3.04648   3.06046
 Alpha virt. eigenvalues --    3.08729   3.10219   3.13452   3.14560   3.14865
 Alpha virt. eigenvalues --    3.15348   3.15980   3.16759   3.18709   3.19667
 Alpha virt. eigenvalues --    3.22614   3.22931   3.23986   3.24573   3.26759
 Alpha virt. eigenvalues --    3.46537   3.47198   3.47653   3.49927   3.50933
 Alpha virt. eigenvalues --    3.53216   3.55330   3.55853   3.57538   3.59929
 Alpha virt. eigenvalues --    3.62670   3.70396   3.75017
          Condensed to atoms (all electrons):
 Mulliken charges:
               1
     1  N   -0.309482
     2  C    0.180253
     3  C    0.046020
     4  N   -0.241735
     5  C    0.118006
     6  H    0.025377
     7  N   -0.290466
     8  C    0.135917
     9  H    0.013417
    10  N   -0.292307
    11  C    0.235570
    12  C    0.091954
    13  N   -0.039361
    14  H    0.113194
    15  H    0.093518
    16  H    0.027752
    17  H    0.034939
    18  H    0.020391
    19  N   -0.307191
    20  C    0.258759
    21  C    0.182434
    22  N   -0.123447
    23  H    0.116561
    24  H    0.119068
    25  N   -0.310461
    26  C    0.246957
    27  N   -0.149290
    28  H    0.121162
    29  C    0.190614
    30  O   -0.328727
    31  C   -0.023523
    32  N   -0.219284
    33  C    0.131425
    34  H    0.022250
    35  H    0.026604
    36  H    0.030168
    37  H    0.022885
    38  H    0.049261
    39  H    0.062270
    40  H    0.076323
    41  H    0.022256
    42  C   -0.066193
    43  O   -0.287129
    44  C    0.133322
    45  H    0.137057
    46  N   -0.112681
    47  O   -0.346922
    48  C    0.349008
    49  H    0.042272
    50  C    0.179813
    51  C    0.043096
    52  N   -0.281150
    53  H    0.032733
    54  H    0.041609
    55  H    0.017723
    56  H    0.126291
    57  H    0.113871
    58  N   -0.008972
    59  C    0.077218
    60  C    0.242556
    61  N   -0.276766
    62  H    0.029739
    63  C    0.159480
    64  N   -0.304286
    65  H    0.028759
    66  C    0.112465
    67  N   -0.249786
    68  C    0.011317
    69  C    0.181679
    70  N   -0.306156
 Sum of Mulliken charges =  -0.00000
 Mulliken charges with hydrogens summed into heavy atoms:
               1
     1  N   -0.309482
     2  C    0.263334
     3  C    0.046020
     4  N   -0.241735
     5  C    0.143383
     7  N   -0.290466
     8  C    0.149334
    10  N   -0.292307
    11  C    0.235570
    12  C    0.091954
    13  N    0.167351
    19  N   -0.307191
    20  C    0.258759
    21  C    0.262091
    22  N    0.112182
    25  N   -0.310461
    26  C    0.246957
    27  N   -0.028128
    29  C    0.190614
    30  O   -0.328727
    31  C   -0.023523
    32  N   -0.219284
    33  C    0.153675
    42  C   -0.043937
    43  O   -0.287129
    44  C    0.133322
    46  N    0.024375
    47  O   -0.346922
    48  C    0.349008
    50  C    0.222085
    51  C    0.230950
    52  N   -0.281150
    58  N    0.231189
    59  C    0.077218
    60  C    0.242556
    61  N   -0.276766
    63  C    0.189219
    64  N   -0.304286
    66  C    0.141224
    67  N   -0.249786
    68  C    0.011317
    69  C    0.273745
    70  N   -0.306156
 Electronic spatial extent (au):  <R**2>=          22569.9167
 Charge=             -0.0000 electrons
 Dipole moment (field-independent basis, Debye):
    X=              5.4721    Y=              4.9046    Z=              5.2815  Tot=              9.0495
 Quadrupole moment (field-independent basis, Debye-Ang):
   XX=           -144.3724   YY=           -229.7792   ZZ=           -251.8365
   XY=              5.2894   XZ=             13.7369   YZ=             11.4814
 Traceless Quadrupole moment (field-independent basis, Debye-Ang):
   XX=             64.2903   YY=            -21.1165   ZZ=            -43.1738
   XY=              5.2894   XZ=             13.7369   YZ=             11.4814
 Octapole moment (field-independent basis, Debye-Ang**2):
  XXX=            -65.7621  YYY=             59.4635  ZZZ=             90.6500  XYY=              6.6829
  XXY=             81.6931  XXZ=             53.2423  XZZ=             90.6671  YZZ=             22.7556
  YYZ=              8.0393  XYZ=              8.1231
 Hexadecapole moment (field-independent basis, Debye-Ang**3):
 XXXX=         -15955.4511 YYYY=          -4575.0043 ZZZZ=          -3618.2265 XXXY=            444.0790
 XXXZ=            405.9339 YYYX=            -11.9062 YYYZ=            254.6979 ZZZX=            287.5870
 ZZZY=             81.4371 XXYY=          -4112.5189 XXZZ=          -3937.3928 YYZZ=          -1282.6105
 XXYZ=             14.0334 YYXZ=            -36.2258 ZZXY=            -36.2964
 N-N= 5.529611331779D+03 E-N=-1.584041792527D+04  KE= 2.037888936036D+03
 No NMR shielding tensors so no spin-rotation constants.
 Leave Link  601 at Fri Jan 19 03:14:21 2018, MaxMem=  4294967296 cpu:              46.6 elap:               1.6
 (Enter /share/apps/g16/l9999.exe)
 1\1\GINC-COMPUTE-0-3\SP\RwB97XD\CC-pVDZ\C23H27N17O3\SATYA\19-Jan-2018\
 0\\#p wb97xd/cc-pvdz sp scf=(maxcycles=20)\\Base pair stacking\\0,1\N,
 0,4.18498,6.22655,-5.76101\C,0,4.13399,7.62068,-6.24248\C,0,3.79384,4.
 08132,-5.47412\N,0,4.81233,4.41149,-4.59186\C,0,5.00722,5.6907,-4.8000
 1\H,0,5.74476,6.29888,-4.27553\N,0,2.15997,2.88419,-6.68255\C,0,1.8859
 3,4.03561,-7.30441\H,0,1.09575,3.98363,-8.0522\N,0,2.43883,5.23596,-7.
 142\C,0,3.39686,5.18983,-6.20154\C,0,3.12911,2.8707,-5.74146\N,0,3.404
 11,1.72229,-5.1196\H,0,4.11357,1.66586,-4.41624\H,0,2.91064,0.87966,-5
 .33545\H,0,5.02202,7.87512,-6.62568\H,0,3.43107,7.7049,-6.94813\H,0,3.
 91433,8.23064,-5.48111\N,0,0.61926,5.41391,-3.44516\C,0,0.01378,4.1903
 9,-3.60159\C,0,0.0276,6.71354,-3.82145\N,0,-2.70624,2.28955,-4.62628\H
 ,0,-2.96327,1.3239,-4.65273\H,0,-3.37353,2.94649,-4.97825\N,0,-1.21351
 ,3.97163,-4.12115\C,0,-1.52026,2.68667,-4.14085\N,0,-0.69004,1.69057,-
 3.68694\H,0,-1.00763,0.73496,-3.74089\C,0,0.57689,1.89256,-3.14847\O,0
 ,1.24583,0.92386,-2.76786\C,0,0.9204,3.2681,-3.12073\N,0,2.07188,3.899
 88,-2.67146\C,0,1.84836,5.1685,-2.88325\H,0,2.54887,5.9703,-2.64731\H,
 0,0.60757,7.16143,-4.50103\H,0,-0.88173,6.56409,-4.20753\H,0,-0.04662,
 7.29478,-3.01184\H,0,-2.90532,-3.84371,-4.87548\H,0,-3.38134,-3.83693,
 -3.17901\H,0,-3.31037,-2.32226,-4.08018\H,0,1.28984,-4.91704,-2.77903\
 C,0,0.65649,-4.04856,-2.96021\O,0,2.36567,-2.47318,-2.48693\C,0,1.2078
 3,-2.73649,-2.81075\H,0,0.67489,-0.76684,-2.96816\N,0,0.32186,-1.70866
 ,-3.06346\O,0,-1.70207,-0.85162,-3.63478\C,0,-0.99504,-1.82315,-3.4325
 1\H,0,-1.09171,-5.16809,-3.44627\C,0,-0.62457,-4.19241,-3.3191\C,0,-2.
 85456,-3.29232,-3.94841\N,0,-1.45313,-3.12013,-3.55587\H,0,-1.96114,-3
 .48344,-8.95237\H,0,-2.23684,-2.03736,-8.24884\H,0,-2.88549,-3.39229,-
 7.61047\H,0,3.55698,-1.85046,-4.26737\H,0,3.01278,-3.44522,-4.53325\N,
 0,2.88795,-2.46433,-4.68653\C,0,1.87401,-1.99673,-5.41759\C,0,-0.08487
 ,-2.18537,-6.75512\N,0,-0.22766,-0.86313,-6.94417\H,0,0.70095,0.88836,
 -6.42401\C,0,0.74157,-0.19522,-6.32175\N,0,1.75799,-0.66173,-5.58906\H
 ,0,-0.78237,-5.33104,-7.02041\C,0,-0.34059,-4.36304,-6.78218\N,0,0.734
 81,-4.19403,-6.05237\C,0,0.90803,-2.81777,-6.02727\C,0,-2.0889,-3.0114
 1,-8.08009\N,0,-0.88849,-3.18974,-7.24031\\Version=EM64L-G16RevA.03\St
 ate=1-A\HF=-2048.7236719\RMSD=7.247e-09\Dipole=-3.2170768,-1.1436209,-
 1.0092326\Quadrupole=-0.244489,36.0241227,-35.7796337,25.2140718,1.147
 0621,6.8787903\PG=C01 [X(C23H27N17O3)]\\@


 WE ARE PERHAPS NOT FAR REMOVED FROM THE TIME WHEN WE SHALL BE ABLE TO SUBMIT
 THE BULK OF CHEMICAL PHENOMENA TO CALCULATION.

            -- JOSEPH LOUIS GAY-LUSSAC
               MEMOIRES DE LA SOCIETE D'ARCUEIL, 2, 207 (1808)
 Job cpu time:       0 days  6 hours  4 minutes 15.2 seconds.
 Elapsed time:       0 days  0 hours 11 minutes 48.3 seconds.
 File lengths (MBytes):  RWF=    298 Int=      0 D2E=      0 Chk=     33 Scr=      1
 Normal termination of Gaussian 16 at Fri Jan 19 03:14:21 2018.
