 Entering Gaussian System, Link 0=g16
 Input=str15.-20.-2.5.com
 Output=str15.-20.-2.5.log
 Initial command:
 /share/apps/g16/l1.exe "/state/partition1/scr/Gau-16433.inp" -scrdir="/state/partition1/scr/"
 Entering Link 1 = /share/apps/g16/l1.exe PID=     16434.
  
 Copyright (c) 1988,1990,1992,1993,1995,1998,2003,2009,2016,
            Gaussian, Inc.  All Rights Reserved.
  
 This is part of the Gaussian(R) 16 program.  It is based on
 the Gaussian(R) 09 system (copyright 2009, Gaussian, Inc.),
 the Gaussian(R) 03 system (copyright 2003, Gaussian, Inc.),
 the Gaussian(R) 98 system (copyright 1998, Gaussian, Inc.),
 the Gaussian(R) 94 system (copyright 1995, Gaussian, Inc.),
 the Gaussian 92(TM) system (copyright 1992, Gaussian, Inc.),
 the Gaussian 90(TM) system (copyright 1990, Gaussian, Inc.),
 the Gaussian 88(TM) system (copyright 1988, Gaussian, Inc.),
 the Gaussian 86(TM) system (copyright 1986, Carnegie Mellon
 University), and the Gaussian 82(TM) system (copyright 1983,
 Carnegie Mellon University). Gaussian is a federally registered
 trademark of Gaussian, Inc.
  
 This software contains proprietary and confidential information,
 including trade secrets, belonging to Gaussian, Inc.
  
 This software is provided under written license and may be
 used, copied, transmitted, or stored only in accord with that
 written license.
  
 The following legend is applicable only to US Government
 contracts under FAR:
  
                    RESTRICTED RIGHTS LEGEND
  
 Use, reproduction and disclosure by the US Government is
 subject to restrictions as set forth in subparagraphs (a)
 and (c) of the Commercial Computer Software - Restricted
 Rights clause in FAR 52.227-19.
  
 Gaussian, Inc.
 340 Quinnipiac St., Bldg. 40, Wallingford CT 06492
  
  
 ---------------------------------------------------------------
 Warning -- This program may not be used in any manner that
 competes with the business of Gaussian, Inc. or will provide
 assistance to any competitor of Gaussian, Inc.  The licensee
 of this program is prohibited from giving any competitor of
 Gaussian, Inc. access to this program.  By using this program,
 the user acknowledges that Gaussian, Inc. is engaged in the
 business of creating and licensing software in the field of
 computational chemistry and represents and warrants to the
 licensee that it is not a competitor of Gaussian, Inc. and that
 it will not use this program in any manner prohibited above.
 ---------------------------------------------------------------
  

 Cite this work as:
 Gaussian 16, Revision A.03,
 M. J. Frisch, G. W. Trucks, H. B. Schlegel, G. E. Scuseria, 
 M. A. Robb, J. R. Cheeseman, G. Scalmani, V. Barone, 
 G. A. Petersson, H. Nakatsuji, X. Li, M. Caricato, A. V. Marenich, 
 J. Bloino, B. G. Janesko, R. Gomperts, B. Mennucci, H. P. Hratchian, 
 J. V. Ortiz, A. F. Izmaylov, J. L. Sonnenberg, D. Williams-Young, 
 F. Ding, F. Lipparini, F. Egidi, J. Goings, B. Peng, A. Petrone, 
 T. Henderson, D. Ranasinghe, V. G. Zakrzewski, J. Gao, N. Rega, 
 G. Zheng, W. Liang, M. Hada, M. Ehara, K. Toyota, R. Fukuda, 
 J. Hasegawa, M. Ishida, T. Nakajima, Y. Honda, O. Kitao, H. Nakai, 
 T. Vreven, K. Throssell, J. A. Montgomery, Jr., J. E. Peralta, 
 F. Ogliaro, M. J. Bearpark, J. J. Heyd, E. N. Brothers, K. N. Kudin, 
 V. N. Staroverov, T. A. Keith, R. Kobayashi, J. Normand, 
 K. Raghavachari, A. P. Rendell, J. C. Burant, S. S. Iyengar, 
 J. Tomasi, M. Cossi, J. M. Millam, M. Klene, C. Adamo, R. Cammi, 
 J. W. Ochterski, R. L. Martin, K. Morokuma, O. Farkas, 
 J. B. Foresman, and D. J. Fox, Gaussian, Inc., Wallingford CT, 2016.
 
 ******************************************
 Gaussian 16:  EM64L-G16RevA.03 25-Dec-2016
                19-Jan-2018 
 ******************************************
 %nprocshared=32
 Will use up to   32 processors via shared memory.
 %mem=32GB
 %chk=allatoms_t.chk
 ---------------------------------------
 #p wb97xd/cc-pvdz sp scf=(maxcycles=20)
 ---------------------------------------
 1/38=1,172=1/1;
 2/12=2,17=6,18=5,40=1/2;
 3/5=16,11=2,25=1,30=1,74=-58/1,2,3;
 4//1;
 5/5=2,7=20,38=5/2;
 6/7=2,8=2,9=2,10=2,28=1/1;
 99/5=1,9=1/99;
 Leave Link    1 at Fri Jan 19 05:43:21 2018, MaxMem=  4294967296 cpu:               2.7 elap:               0.1
 (Enter /share/apps/g16/l101.exe)
 ------------------
 Base pair stacking
 ------------------
 Symbolic Z-matrix:
 Charge =  0 Multiplicity = 1
 N                     0.78438   10.61516  -6.44374 
 C                     0.60837   12.04447  -6.1211 
 C                     0.50601   8.43819  -6.58734 
 N                     1.66955   8.72754  -7.28532 
 C                     1.79069   10.0275  -7.17088 
 H                     2.60246   10.6148  -7.60105 
 N                    -1.30483   7.29087  -5.60375 
 C                    -1.72142   8.48241  -5.163 
 H                    -2.64117   8.4669   -4.57984 
 N                    -1.17502   9.68458  -5.33366 
 C                    -0.05077   9.59168  -6.06296 
 C                    -0.17031   7.23084  -6.33474 
 N                     0.24715   6.04233  -6.7756 
 H                     1.08155   5.95074  -7.32021 
 H                    -0.25962   5.20344  -6.57663 
 H                     0.52863   12.57127  -6.96744 
 H                    -0.2207    12.1642  -5.57573 
 H                     1.3976    12.3705  -5.6007 
 N                    -0.29452   7.37649  -3.02048 
 C                    -0.89914   6.15286  -2.86164 
 C                    -0.9512    8.68482  -2.82619 
 N                    -3.71019   4.2642   -2.09177 
 H                    -3.95508   3.29693  -2.03133 
 H                    -4.42946   4.92809  -1.88531 
 N                    -2.18437   5.94185  -2.50426 
 C                    -2.47313   4.65448  -2.43421 
 N                    -1.57353   3.6491   -2.69387 
 H                    -1.88238   2.69232  -2.61547 
 C                    -0.24616   3.843    -3.06316 
 O                     0.48307   2.86623  -3.27499 
 C                     0.07888   5.22101  -3.14261 
 N                     1.27345   5.84702  -3.47123 
 C                     1.00485   7.12167  -3.38565 
 H                     1.72056   7.92144  -3.57903 
 H                    -0.91836   9.20593  -3.67834 
 H                    -1.90378   8.54117  -2.56121 
 H                    -0.47918   9.19296  -2.1066 
 H                    -4.20725  -1.82918  -2.67677 
 H                    -3.5029   -1.98037  -1.06876 
 H                    -3.97197  -0.39343  -1.67946 
 H                     0.33354  -2.94877  -3.80565 
 C                    -0.24509  -2.08761  -3.47123 
 O                     1.42494  -0.507    -4.05414 
 C                     0.31589  -0.77684  -3.59372 
 H                    -0.13668   1.18206  -3.2113 
 N                    -0.49869   0.24145  -3.14117 
 O                    -2.40084   1.08219  -2.22893 
 C                    -1.75498   0.11884  -2.60241 
 H                    -1.93961  -3.21433  -2.83491 
 C                    -1.46808  -2.23924  -2.94978 
 C                    -3.56512  -1.35693  -1.94827 
 N                    -2.2268   -1.1763   -2.5175 
 H                    -5.83786   1.03918  -3.85725 
 H                    -4.94289   2.15578  -3.07347 
 H                    -4.79077   0.5755   -2.69448 
 H                     0.34386   2.48538  -7.69917 
 H                    -0.38036   0.94129  -7.66199 
 N                    -0.35211   1.87909  -7.31422 
 C                    -1.2051    2.3014   -6.37868 
 C                    -3.01063   2.06961  -4.84634 
 N                    -2.94942   3.33443  -4.39811 
 H                    -1.8536    5.03887  -4.70583 
 C                    -1.97313   4.00035  -5.01155 
 N                    -1.11773   3.57916  -5.94882 
 H                    -4.09788  -0.96637  -5.0762 
 C                    -3.55711  -0.02624  -5.18866 
 N                    -2.55643   0.1638   -6.01341 
 C                    -2.20054   1.48866  -5.80643 
 C                    -4.94917   1.22514  -3.43815 
 N                    -3.88516   1.08519  -4.45121 
 
 ITRead=  0  0  0  0  0  0  0  0  0  0  0  0  0  0  0  0  0  0  0  0
 ITRead=  0  0  0  0  0  0  0  0  0  0  0  0  0  0  0  0  0  0  0  0
 ITRead=  0  0  0  0  0  0  0  0  0  0  0  0  0  0  0  0  0  0  0  0
 ITRead=  0  0  0  0  0  0  0  0  0  0
 MicOpt= -1 -1 -1 -1 -1 -1 -1 -1 -1 -1 -1 -1 -1 -1 -1 -1 -1 -1 -1 -1
 MicOpt= -1 -1 -1 -1 -1 -1 -1 -1 -1 -1 -1 -1 -1 -1 -1 -1 -1 -1 -1 -1
 MicOpt= -1 -1 -1 -1 -1 -1 -1 -1 -1 -1 -1 -1 -1 -1 -1 -1 -1 -1 -1 -1
 MicOpt= -1 -1 -1 -1 -1 -1 -1 -1 -1 -1
 NAtoms=     70 NQM=       70 NQMF=       0 NMMI=      0 NMMIF=      0
                NMic=       0 NMicF=      0.
                    Isotopes and Nuclear Properties:
 (Nuclear quadrupole moments (NQMom) in fm**2, nuclear magnetic moments (NMagM)
  in nuclear magnetons)

  Atom         1           2           3           4           5           6           7           8           9          10
 IAtWgt=          14          12          12          14          12           1          14          12           1          14
 AtmWgt=  14.0030740  12.0000000  12.0000000  14.0030740  12.0000000   1.0078250  14.0030740  12.0000000   1.0078250  14.0030740
 NucSpn=           2           0           0           2           0           1           2           0           1           2
 AtZEff=  -0.0000000  -0.0000000  -0.0000000  -0.0000000  -0.0000000  -0.0000000  -0.0000000  -0.0000000  -0.0000000  -0.0000000
 NQMom=    2.0440000   0.0000000   0.0000000   2.0440000   0.0000000   0.0000000   2.0440000   0.0000000   0.0000000   2.0440000
 NMagM=    0.4037610   0.0000000   0.0000000   0.4037610   0.0000000   2.7928460   0.4037610   0.0000000   2.7928460   0.4037610
 AtZNuc=   7.0000000   6.0000000   6.0000000   7.0000000   6.0000000   1.0000000   7.0000000   6.0000000   1.0000000   7.0000000

  Atom        11          12          13          14          15          16          17          18          19          20
 IAtWgt=          12          12          14           1           1           1           1           1          14          12
 AtmWgt=  12.0000000  12.0000000  14.0030740   1.0078250   1.0078250   1.0078250   1.0078250   1.0078250  14.0030740  12.0000000
 NucSpn=           0           0           2           1           1           1           1           1           2           0
 AtZEff=  -0.0000000  -0.0000000  -0.0000000  -0.0000000  -0.0000000  -0.0000000  -0.0000000  -0.0000000  -0.0000000  -0.0000000
 NQMom=    0.0000000   0.0000000   2.0440000   0.0000000   0.0000000   0.0000000   0.0000000   0.0000000   2.0440000   0.0000000
 NMagM=    0.0000000   0.0000000   0.4037610   2.7928460   2.7928460   2.7928460   2.7928460   2.7928460   0.4037610   0.0000000
 AtZNuc=   6.0000000   6.0000000   7.0000000   1.0000000   1.0000000   1.0000000   1.0000000   1.0000000   7.0000000   6.0000000

  Atom        21          22          23          24          25          26          27          28          29          30
 IAtWgt=          12          14           1           1          14          12          14           1          12          16
 AtmWgt=  12.0000000  14.0030740   1.0078250   1.0078250  14.0030740  12.0000000  14.0030740   1.0078250  12.0000000  15.9949146
 NucSpn=           0           2           1           1           2           0           2           1           0           0
 AtZEff=  -0.0000000  -0.0000000  -0.0000000  -0.0000000  -0.0000000  -0.0000000  -0.0000000  -0.0000000  -0.0000000  -0.0000000
 NQMom=    0.0000000   2.0440000   0.0000000   0.0000000   2.0440000   0.0000000   2.0440000   0.0000000   0.0000000   0.0000000
 NMagM=    0.0000000   0.4037610   2.7928460   2.7928460   0.4037610   0.0000000   0.4037610   2.7928460   0.0000000   0.0000000
 AtZNuc=   6.0000000   7.0000000   1.0000000   1.0000000   7.0000000   6.0000000   7.0000000   1.0000000   6.0000000   8.0000000

  Atom        31          32          33          34          35          36          37          38          39          40
 IAtWgt=          12          14          12           1           1           1           1           1           1           1
 AtmWgt=  12.0000000  14.0030740  12.0000000   1.0078250   1.0078250   1.0078250   1.0078250   1.0078250   1.0078250   1.0078250
 NucSpn=           0           2           0           1           1           1           1           1           1           1
 AtZEff=  -0.0000000  -0.0000000  -0.0000000  -0.0000000  -0.0000000  -0.0000000  -0.0000000  -0.0000000  -0.0000000  -0.0000000
 NQMom=    0.0000000   2.0440000   0.0000000   0.0000000   0.0000000   0.0000000   0.0000000   0.0000000   0.0000000   0.0000000
 NMagM=    0.0000000   0.4037610   0.0000000   2.7928460   2.7928460   2.7928460   2.7928460   2.7928460   2.7928460   2.7928460
 AtZNuc=   6.0000000   7.0000000   6.0000000   1.0000000   1.0000000   1.0000000   1.0000000   1.0000000   1.0000000   1.0000000

  Atom        41          42          43          44          45          46          47          48          49          50
 IAtWgt=           1          12          16          12           1          14          16          12           1          12
 AtmWgt=   1.0078250  12.0000000  15.9949146  12.0000000   1.0078250  14.0030740  15.9949146  12.0000000   1.0078250  12.0000000
 NucSpn=           1           0           0           0           1           2           0           0           1           0
 AtZEff=  -0.0000000  -0.0000000  -0.0000000  -0.0000000  -0.0000000  -0.0000000  -0.0000000  -0.0000000  -0.0000000  -0.0000000
 NQMom=    0.0000000   0.0000000   0.0000000   0.0000000   0.0000000   2.0440000   0.0000000   0.0000000   0.0000000   0.0000000
 NMagM=    2.7928460   0.0000000   0.0000000   0.0000000   2.7928460   0.4037610   0.0000000   0.0000000   2.7928460   0.0000000
 AtZNuc=   1.0000000   6.0000000   8.0000000   6.0000000   1.0000000   7.0000000   8.0000000   6.0000000   1.0000000   6.0000000

  Atom        51          52          53          54          55          56          57          58          59          60
 IAtWgt=          12          14           1           1           1           1           1          14          12          12
 AtmWgt=  12.0000000  14.0030740   1.0078250   1.0078250   1.0078250   1.0078250   1.0078250  14.0030740  12.0000000  12.0000000
 NucSpn=           0           2           1           1           1           1           1           2           0           0
 AtZEff=  -0.0000000  -0.0000000  -0.0000000  -0.0000000  -0.0000000  -0.0000000  -0.0000000  -0.0000000  -0.0000000  -0.0000000
 NQMom=    0.0000000   2.0440000   0.0000000   0.0000000   0.0000000   0.0000000   0.0000000   2.0440000   0.0000000   0.0000000
 NMagM=    0.0000000   0.4037610   2.7928460   2.7928460   2.7928460   2.7928460   2.7928460   0.4037610   0.0000000   0.0000000
 AtZNuc=   6.0000000   7.0000000   1.0000000   1.0000000   1.0000000   1.0000000   1.0000000   7.0000000   6.0000000   6.0000000

  Atom        61          62          63          64          65          66          67          68          69          70
 IAtWgt=          14           1          12          14           1          12          14          12          12          14
 AtmWgt=  14.0030740   1.0078250  12.0000000  14.0030740   1.0078250  12.0000000  14.0030740  12.0000000  12.0000000  14.0030740
 NucSpn=           2           1           0           2           1           0           2           0           0           2
 AtZEff=  -0.0000000  -0.0000000  -0.0000000  -0.0000000  -0.0000000  -0.0000000  -0.0000000  -0.0000000  -0.0000000  -0.0000000
 NQMom=    2.0440000   0.0000000   0.0000000   2.0440000   0.0000000   0.0000000   2.0440000   0.0000000   0.0000000   2.0440000
 NMagM=    0.4037610   2.7928460   0.0000000   0.4037610   2.7928460   0.0000000   0.4037610   0.0000000   0.0000000   0.4037610
 AtZNuc=   7.0000000   1.0000000   6.0000000   7.0000000   1.0000000   6.0000000   7.0000000   6.0000000   6.0000000   7.0000000
 Leave Link  101 at Fri Jan 19 05:43:21 2018, MaxMem=  4294967296 cpu:               7.8 elap:               0.3
 (Enter /share/apps/g16/l202.exe)
 Stoichiometry    C23H27N17O3
 Framework group  C1[X(C23H27N17O3)]
 Deg. of freedom   204
 Full point group                 C1      NOp   1
 Largest Abelian subgroup         C1      NOp   1
 Largest concise Abelian subgroup C1      NOp   1
                         Standard orientation:                         
 ---------------------------------------------------------------------
 Center     Atomic      Atomic             Coordinates (Angstroms)
 Number     Number       Type             X           Y           Z
 ---------------------------------------------------------------------
      1          7           0       -7.042320    0.668123   -0.212293
      2          6           0       -8.293149   -0.112861   -0.153190
      3          6           0       -4.938854    1.261266   -0.459114
      4          7           0       -5.627329    2.411901   -0.103072
      5          6           0       -6.867033    2.008510    0.031374
      6          1           0       -7.701890    2.652476    0.309330
      7          7           0       -3.226247   -0.242325   -1.066670
      8          6           0       -4.171045   -1.187915   -1.094822
      9          1           0       -3.822940   -2.185315   -1.359910
     10          7           0       -5.475155   -1.086897   -0.845859
     11          6           0       -5.797768    0.178353   -0.530407
     12          6           0       -3.582821    1.020588   -0.745747
     13          7           0       -2.641126    1.965880   -0.717114
     14          1           0       -2.859738    2.914256   -0.484726
     15          1           0       -1.685553    1.758433   -0.926844
     16          1           0       -8.951934    0.260361   -0.806547
     17          1           0       -8.102354   -1.067019   -0.381887
     18          1           0       -8.676337   -0.063145    0.769139
     19          7           0       -3.001857   -1.408086    1.441715
     20          6           0       -1.666405   -1.532035    1.142936
     21          6           0       -4.053748   -2.374417    1.066970
     22          7           0        0.936667   -3.306795   -0.318564
     23          1           0        1.925087   -3.208254   -0.430594
     24          1           0        0.514291   -4.122674   -0.714374
     25          7           0       -1.095363   -2.549242    0.462302
     26          6           0        0.209430   -2.386742    0.332995
     27          7           0        0.903788   -1.311115    0.831379
     28          1           0        1.900710   -1.269816    0.685078
     29          6           0        0.336823   -0.252983    1.534793
     30          8           0        1.053190    0.669967    1.941866
     31          6           0       -1.064441   -0.413467    1.681691
     32          7           0       -2.003083    0.396416    2.306126
     33          6           0       -3.134990   -0.232056    2.138761
     34          1           0       -4.100331    0.119238    2.504793
     35          1           0       -4.734263   -1.922323    0.491379
     36          1           0       -3.642601   -3.132360    0.562253
     37          1           0       -4.495470   -2.725390    1.891906
     38          1           0        6.721186   -1.336267   -0.930884
     39          1           0        7.037855   -1.949624    0.690281
     40          1           0        5.510142   -2.321090   -0.109386
     41          1           0        6.504391    2.742116    1.612031
     42          6           0        5.888785    1.867530    1.401381
     43          8           0        3.880263    2.867150    2.171908
     44          6           0        4.488129    1.910914    1.691383
     45          1           0        2.810055    0.744908    1.578019
     46          7           0        3.802125    0.752442    1.387083
     47          8           0        3.631163   -1.376391    0.615047
     48          6           0        4.320281   -0.399385    0.850084
     49          1           0        7.482640    0.674365    0.638634
     50          6           0        6.423248    0.758330    0.877329
     51          6           0        6.276261   -1.571904    0.024407
     52          7           0        5.677714   -0.363625    0.598473
     53          1           0        4.124168   -2.462500   -2.996558
     54          1           0        3.020060   -2.771944   -1.835840
     55          1           0        4.566137   -2.447258   -1.425616
     56          1           0        0.525111    3.771727   -1.194695
     57          1           0        2.167358    3.753908   -1.655997
     58          7           0        1.341926    3.240225   -1.419347
     59          6           0        1.331940    1.905741   -1.404326
     60          6           0        2.287457   -0.259181   -1.652985
     61          7           0        1.164529   -0.922529   -1.331383
     62          1           0       -0.772103   -0.525174   -0.790832
     63          6           0        0.178853   -0.068773   -1.062229
     64          7           0        0.186859    1.268131   -1.076721
     65          1           0        5.375743    0.134849   -2.524393
     66          6           0        4.334139    0.272906   -2.232974
     67          7           0        3.751144    1.436669   -2.079806
     68          6           0        2.452998    1.113636   -1.712083
     69          6           0        3.830103   -2.234468   -2.068376
     70          7           0        3.506941   -0.796576   -1.990740
 ---------------------------------------------------------------------
 Rotational constants (GHZ):           0.1994257           0.0480672           0.0459617
 Leave Link  202 at Fri Jan 19 05:43:21 2018, MaxMem=  4294967296 cpu:               0.3 elap:               0.0
 (Enter /share/apps/g16/l301.exe)
 Standard basis: CC-pVDZ (5D, 7F)
 Ernie: Thresh=  0.10000D-02 Tol=  0.10000D-05 Strict=F.
 Ernie:  86 primitive shells out of 1081 were deleted.
 There are   780 symmetry adapted cartesian basis functions of A   symmetry.
 There are   737 symmetry adapted basis functions of A   symmetry.
   737 basis functions,  1608 primitive gaussians,   780 cartesian basis functions
   154 alpha electrons      154 beta electrons
       nuclear repulsion energy      5599.3998181453 Hartrees.
 IExCor= 4639 DFT=T Ex+Corr=wB97XD ExCW=0 ScaHFX=  1.000000
 ScaDFX=  1.000000  1.000000  1.000000  1.000000 ScalE2=  1.000000  1.000000
 IRadAn=      5 IRanWt=     -1 IRanGd=            0 ICorTp=0 IEmpDi=121
 HFx  wShort=  0.000000 wLong=  0.200000 cFull=  0.222036 cShort=  0.000000 cLong=  0.777964
 DFx  wShort=  0.000000 wLong=  0.200000 cFull=  0.000000 cShort=  0.000000 cLong=  1.000000
 NAtoms=   70 NActive=   70 NUniq=   70 SFac= 1.00D+00 NAtFMM=   60 NAOKFM=T Big=T
 Integral buffers will be    131072 words long.
 Raffenetti 2 integral format.
 Two-electron integral symmetry is turned on.
 R6Disp:  Grimme-D2 Dispersion energy=       -0.0787008587 Hartrees.
 Nuclear repulsion after empirical dispersion term =     5599.3211172866 Hartrees.
 Leave Link  301 at Fri Jan 19 05:43:21 2018, MaxMem=  4294967296 cpu:               2.2 elap:               0.1
 (Enter /share/apps/g16/l302.exe)
 NPDir=0 NMtPBC=     1 NCelOv=     1 NCel=       1 NClECP=     1 NCelD=      1
         NCelK=      1 NCelE2=     1 NClLst=     1 CellRange=     0.0.
 One-electron integrals computed using PRISM.
 One-electron integral symmetry used in STVInt
 NBasis=   737 RedAO= T EigKep=  6.61D-04  NBF=   737
 NBsUse=   737 1.00D-06 EigRej= -1.00D+00 NBFU=   737
 Precomputing XC quadrature grid using
 IXCGrd= 4 IRadAn=           5 IRanWt=          -1 IRanGd=           0 AccXCQ= 0.00D+00.
 Generated NRdTot=       0 NPtTot=           0 NUsed=           0 NTot=          32
 NSgBfM=   757   757   757   757   757 MxSgAt=    70 MxSgA2=    70.
 Leave Link  302 at Fri Jan 19 05:43:26 2018, MaxMem=  4294967296 cpu:             133.8 elap:               4.2
 (Enter /share/apps/g16/l303.exe)
 DipDrv:  MaxL=1.
 Leave Link  303 at Fri Jan 19 05:43:26 2018, MaxMem=  4294967296 cpu:              12.6 elap:               0.4
 (Enter /share/apps/g16/l401.exe)
 ExpMin= 1.22D-01 ExpMax= 1.17D+04 ExpMxC= 4.01D+02 IAcc=3 IRadAn=         5 AccDes= 0.00D+00
 Harris functional with IExCor= 4639 and IRadAn=       5 diagonalized for initial guess.
 HarFok:  IExCor= 4639 AccDes= 0.00D+00 IRadAn=         5 IDoV= 1 UseB2=F ITyADJ=14
 ICtDFT=  3500011 ScaDFX=  1.000000  1.000000  1.000000  1.000000
 FoFCou: FMM=F IPFlag=           0 FMFlag=      100000 FMFlg1=        2001
         NFxFlg=           0 DoJE=T BraDBF=F KetDBF=T FulRan=T
         wScrn=  0.000000 ICntrl=       500 IOpCl=  0 I1Cent=   200000004 NGrid=           0
         NMat0=    1 NMatS0=      1 NMatT0=    0 NMatD0=    1 NMtDS0=    0 NMtDT0=    0
 Petite list used in FoFCou.
 Harris En= -1963.74302776728    
 JPrj=0 DoOrth=F DoCkMO=F.
 Leave Link  401 at Fri Jan 19 05:43:39 2018, MaxMem=  4294967296 cpu:             411.9 elap:              13.0
 (Enter /share/apps/g16/l502.exe)
 Integral symmetry usage will be decided dynamically.
 Closed shell SCF:
 Using DIIS extrapolation, IDIIS=  1040.
 NGot=  4294967296 LenX=  4293717438 LenY=  4293108258
 Requested convergence on RMS density matrix=1.00D-08 within  20 cycles.
 Requested convergence on MAX density matrix=1.00D-06.
 Requested convergence on             energy=1.00D-06.
 No special actions if energy rises.
 Fock matrices will be formed incrementally for  20 cycles.
 Integral accuracy reduced to 1.0D-05 until final iterations.

 Cycle   1  Pass 0  IDiag  1:
 FoFJK:  IHMeth= 1 ICntrl=       0 DoSepK=T KAlg= 0 I1Cent=           0 FoldK=F
 IRaf=         1 NMat=       1 IRICut=       1 DoRegI=T DoRafI=F ISym2E= 0 IDoP0=0 IntGTp=1.
 FoFCou: FMM=T IPFlag=           0 FMFlag=      100000 FMFlg1=        2001
         NFxFlg=           0 DoJE=T BraDBF=F KetDBF=F FulRan=T
         wScrn=  0.000000 ICntrl=       500 IOpCl=  0 I1Cent=           0 NGrid=           0
         NMat0=    1 NMatS0=      1 NMatT0=    0 NMatD0=    1 NMtDS0=    0 NMtDT0=    0
 Symmetry not used in FoFCou.
 FMM levels:  10  Number of levels for PrismC:   9
 E= -2048.20023794895    
 DIIS: error= 1.87D-02 at cycle   1 NSaved=   1.
 NSaved= 1 IEnMin= 1 EnMin= -2048.20023794895     IErMin= 1 ErrMin= 1.87D-02
 ErrMax= 1.87D-02  0.00D+00 EMaxC= 1.00D-01 BMatC= 8.37D-01 BMatP= 8.37D-01
 IDIUse=3 WtCom= 8.13D-01 WtEn= 1.87D-01
 Coeff-Com:  0.100D+01
 Coeff-En:   0.100D+01
 Coeff:      0.100D+01
 Gap=     0.286 Goal=   None    Shift=    0.000
 GapD=    0.286 DampG=1.000 DampE=0.500 DampFc=0.5000 IDamp=-1.
 Damping current iteration by 5.00D-01
 RMSDP=1.65D-03 MaxDP=1.28D-01              OVMax= 2.18D-01

 Cycle   2  Pass 0  IDiag  1:
 RMSU=  8.22D-04    CP:  9.97D-01
 E= -2048.39804160214     Delta-E=       -0.197803653189 Rises=F Damp=T
 DIIS: error= 1.03D-02 at cycle   2 NSaved=   2.
 NSaved= 2 IEnMin= 2 EnMin= -2048.39804160214     IErMin= 2 ErrMin= 1.03D-02
 ErrMax= 1.03D-02  0.00D+00 EMaxC= 1.00D-01 BMatC= 1.46D-01 BMatP= 8.37D-01
 IDIUse=3 WtCom= 8.97D-01 WtEn= 1.03D-01
 Coeff-Com: -0.184D+00 0.118D+01
 Coeff-En:   0.000D+00 0.100D+01
 Coeff:     -0.165D+00 0.116D+01
 Gap=     0.365 Goal=   None    Shift=    0.000
 RMSDP=6.18D-04 MaxDP=3.50D-02 DE=-1.98D-01 OVMax= 1.58D-01

 Cycle   3  Pass 0  IDiag  1:
 RMSU=  6.10D-04    CP:  9.93D-01  1.11D+00
 E= -2048.57764661710     Delta-E=       -0.179605014964 Rises=F Damp=F
 DIIS: error= 8.75D-03 at cycle   3 NSaved=   3.
 NSaved= 3 IEnMin= 3 EnMin= -2048.57764661710     IErMin= 3 ErrMin= 8.75D-03
 ErrMax= 8.75D-03  0.00D+00 EMaxC= 1.00D-01 BMatC= 6.90D-02 BMatP= 1.46D-01
 IDIUse=3 WtCom= 9.13D-01 WtEn= 8.75D-02
 Coeff-Com: -0.233D+00 0.557D+00 0.676D+00
 Coeff-En:   0.000D+00 0.000D+00 0.100D+01
 Coeff:     -0.213D+00 0.509D+00 0.704D+00
 Gap=     0.275 Goal=   None    Shift=    0.000
 RMSDP=3.93D-04 MaxDP=3.42D-02 DE=-1.80D-01 OVMax= 7.33D-02

 Cycle   4  Pass 0  IDiag  1:
 RMSU=  2.16D-04    CP:  9.93D-01  1.41D+00  6.50D-01
 E= -2048.62954407403     Delta-E=       -0.051897456931 Rises=F Damp=F
 DIIS: error= 3.37D-03 at cycle   4 NSaved=   4.
 NSaved= 4 IEnMin= 4 EnMin= -2048.62954407403     IErMin= 4 ErrMin= 3.37D-03
 ErrMax= 3.37D-03  0.00D+00 EMaxC= 1.00D-01 BMatC= 1.07D-02 BMatP= 6.90D-02
 IDIUse=3 WtCom= 9.66D-01 WtEn= 3.37D-02
 Coeff-Com: -0.953D-01 0.184D+00 0.382D+00 0.529D+00
 Coeff-En:   0.000D+00 0.000D+00 0.866D-01 0.913D+00
 Coeff:     -0.921D-01 0.178D+00 0.372D+00 0.542D+00
 Gap=     0.281 Goal=   None    Shift=    0.000
 RMSDP=1.41D-04 MaxDP=1.30D-02 DE=-5.19D-02 OVMax= 1.68D-02

 Cycle   5  Pass 0  IDiag  1:
 RMSU=  6.43D-05    CP:  9.92D-01  1.38D+00  7.96D-01  6.11D-01
 E= -2048.63847253488     Delta-E=       -0.008928460850 Rises=F Damp=F
 DIIS: error= 5.37D-04 at cycle   5 NSaved=   5.
 NSaved= 5 IEnMin= 5 EnMin= -2048.63847253488     IErMin= 5 ErrMin= 5.37D-04
 ErrMax= 5.37D-04  0.00D+00 EMaxC= 1.00D-01 BMatC= 3.14D-04 BMatP= 1.07D-02
 IDIUse=3 WtCom= 9.95D-01 WtEn= 5.37D-03
 Coeff-Com: -0.244D-01 0.415D-01 0.123D+00 0.239D+00 0.622D+00
 Coeff-En:   0.000D+00 0.000D+00 0.000D+00 0.000D+00 0.100D+01
 Coeff:     -0.242D-01 0.413D-01 0.122D+00 0.237D+00 0.624D+00
 Gap=     0.281 Goal=   None    Shift=    0.000
 RMSDP=2.80D-05 MaxDP=2.08D-03 DE=-8.93D-03 OVMax= 3.26D-03

 Failed to achieve initial convergence to 1.0D-08 in  6 cycles.
 Switch to full accuracy anyway.
 Cycle   6  Pass 1  IDiag  1:
 E= -2048.63876308088     Delta-E=       -0.000290546001 Rises=F Damp=F
 DIIS: error= 2.42D-04 at cycle   1 NSaved=   1.
 NSaved= 1 IEnMin= 1 EnMin= -2048.63876308088     IErMin= 1 ErrMin= 2.42D-04
 ErrMax= 2.42D-04  0.00D+00 EMaxC= 1.00D-01 BMatC= 8.12D-05 BMatP= 8.12D-05
 IDIUse=3 WtCom= 9.98D-01 WtEn= 2.42D-03
 Coeff-Com:  0.100D+01
 Coeff-En:   0.100D+01
 Coeff:      0.100D+01
 Gap=     0.281 Goal=   None    Shift=    0.000
 RMSDP=2.80D-05 MaxDP=2.08D-03 DE=-2.91D-04 OVMax= 2.16D-03

 Cycle   7  Pass 1  IDiag  1:
 RMSU=  1.14D-04    CP:  1.00D+00
 E= -2048.63881493743     Delta-E=       -0.000051856544 Rises=F Damp=F
 DIIS: error= 2.32D-04 at cycle   2 NSaved=   2.
 NSaved= 2 IEnMin= 2 EnMin= -2048.63881493743     IErMin= 2 ErrMin= 2.32D-04
 ErrMax= 2.32D-04  0.00D+00 EMaxC= 1.00D-01 BMatC= 5.46D-05 BMatP= 8.12D-05
 IDIUse=3 WtCom= 9.98D-01 WtEn= 2.32D-03
 Coeff-Com:  0.434D+00 0.566D+00
 Coeff-En:   0.938D-01 0.906D+00
 Coeff:      0.434D+00 0.566D+00
 Gap=     0.281 Goal=   None    Shift=    0.000
 RMSDP=1.29D-05 MaxDP=1.12D-03 DE=-5.19D-05 OVMax= 1.49D-03

 Cycle   8  Pass 1  IDiag  1:
 RMSU=  1.27D-05    CP:  1.00D+00  1.02D+00
 E= -2048.63885558762     Delta-E=       -0.000040650190 Rises=F Damp=F
 DIIS: error= 1.21D-04 at cycle   3 NSaved=   3.
 NSaved= 3 IEnMin= 3 EnMin= -2048.63885558762     IErMin= 3 ErrMin= 1.21D-04
 ErrMax= 1.21D-04  0.00D+00 EMaxC= 1.00D-01 BMatC= 1.06D-05 BMatP= 5.46D-05
 IDIUse=3 WtCom= 9.99D-01 WtEn= 1.21D-03
 Coeff-Com: -0.179D-01 0.291D+00 0.727D+00
 Coeff-En:   0.000D+00 0.109D+00 0.891D+00
 Coeff:     -0.179D-01 0.291D+00 0.727D+00
 Gap=     0.281 Goal=   None    Shift=    0.000
 RMSDP=6.04D-06 MaxDP=4.31D-04 DE=-4.07D-05 OVMax= 6.78D-04

 Cycle   9  Pass 1  IDiag  1:
 RMSU=  4.06D-06    CP:  1.00D+00  1.05D+00  7.73D-01
 E= -2048.63886580764     Delta-E=       -0.000010220023 Rises=F Damp=F
 DIIS: error= 1.87D-05 at cycle   4 NSaved=   4.
 NSaved= 4 IEnMin= 4 EnMin= -2048.63886580764     IErMin= 4 ErrMin= 1.87D-05
 ErrMax= 1.87D-05  0.00D+00 EMaxC= 1.00D-01 BMatC= 5.86D-07 BMatP= 1.06D-05
 IDIUse=1 WtCom= 1.00D+00 WtEn= 0.00D+00
 Coeff-Com: -0.321D-01 0.798D-01 0.275D+00 0.677D+00
 Coeff:     -0.321D-01 0.798D-01 0.275D+00 0.677D+00
 Gap=     0.281 Goal=   None    Shift=    0.000
 RMSDP=1.56D-06 MaxDP=1.09D-04 DE=-1.02D-05 OVMax= 3.94D-04

 Cycle  10  Pass 1  IDiag  1:
 RMSU=  1.40D-06    CP:  1.00D+00  1.05D+00  8.07D-01  1.10D+00
 E= -2048.63886676404     Delta-E=       -0.000000956397 Rises=F Damp=F
 DIIS: error= 1.20D-05 at cycle   5 NSaved=   5.
 NSaved= 5 IEnMin= 5 EnMin= -2048.63886676404     IErMin= 5 ErrMin= 1.20D-05
 ErrMax= 1.20D-05  0.00D+00 EMaxC= 1.00D-01 BMatC= 1.32D-07 BMatP= 5.86D-07
 IDIUse=1 WtCom= 1.00D+00 WtEn= 0.00D+00
 Coeff-Com: -0.426D-02-0.504D-01-0.114D+00 0.206D+00 0.962D+00
 Coeff:     -0.426D-02-0.504D-01-0.114D+00 0.206D+00 0.962D+00
 Gap=     0.281 Goal=   None    Shift=    0.000
 RMSDP=1.26D-06 MaxDP=6.86D-05 DE=-9.56D-07 OVMax= 2.19D-04

 Cycle  11  Pass 1  IDiag  1:
 RMSU=  5.29D-07    CP:  1.00D+00  1.05D+00  8.13D-01  1.37D+00  1.18D+00
 E= -2048.63886705107     Delta-E=       -0.000000287027 Rises=F Damp=F
 DIIS: error= 5.26D-06 at cycle   6 NSaved=   6.
 NSaved= 6 IEnMin= 6 EnMin= -2048.63886705107     IErMin= 6 ErrMin= 5.26D-06
 ErrMax= 5.26D-06  0.00D+00 EMaxC= 1.00D-01 BMatC= 3.46D-08 BMatP= 1.32D-07
 IDIUse=1 WtCom= 1.00D+00 WtEn= 0.00D+00
 Coeff-Com:  0.463D-02-0.432D-01-0.119D+00-0.733D-02 0.527D+00 0.637D+00
 Coeff:      0.463D-02-0.432D-01-0.119D+00-0.733D-02 0.527D+00 0.637D+00
 Gap=     0.281 Goal=   None    Shift=    0.000
 RMSDP=4.23D-07 MaxDP=3.15D-05 DE=-2.87D-07 OVMax= 1.02D-04

 Cycle  12  Pass 1  IDiag  1:
 RMSU=  2.02D-07    CP:  1.00D+00  1.05D+00  8.16D-01  1.45D+00  1.31D+00
                    CP:  9.09D-01
 E= -2048.63886709987     Delta-E=       -0.000000048800 Rises=F Damp=F
 DIIS: error= 1.04D-06 at cycle   7 NSaved=   7.
 NSaved= 7 IEnMin= 7 EnMin= -2048.63886709987     IErMin= 7 ErrMin= 1.04D-06
 ErrMax= 1.04D-06  0.00D+00 EMaxC= 1.00D-01 BMatC= 8.34D-10 BMatP= 3.46D-08
 IDIUse=1 WtCom= 1.00D+00 WtEn= 0.00D+00
 Coeff-Com:  0.127D-02-0.874D-02-0.253D-01-0.878D-02 0.851D-01 0.155D+00
 Coeff-Com:  0.801D+00
 Coeff:      0.127D-02-0.874D-02-0.253D-01-0.878D-02 0.851D-01 0.155D+00
 Coeff:      0.801D+00
 Gap=     0.281 Goal=   None    Shift=    0.000
 RMSDP=8.44D-08 MaxDP=5.43D-06 DE=-4.88D-08 OVMax= 1.87D-05

 Cycle  13  Pass 1  IDiag  1:
 RMSU=  5.78D-08    CP:  1.00D+00  1.05D+00  8.15D-01  1.46D+00  1.33D+00
                    CP:  9.83D-01  1.10D+00
 E= -2048.63886710153     Delta-E=       -0.000000001667 Rises=F Damp=F
 DIIS: error= 7.35D-07 at cycle   8 NSaved=   8.
 NSaved= 8 IEnMin= 8 EnMin= -2048.63886710153     IErMin= 8 ErrMin= 7.35D-07
 ErrMax= 7.35D-07  0.00D+00 EMaxC= 1.00D-01 BMatC= 4.06D-10 BMatP= 8.34D-10
 IDIUse=1 WtCom= 1.00D+00 WtEn= 0.00D+00
 Coeff-Com: -0.667D-03 0.796D-02 0.211D-01-0.168D-02-0.109D+00-0.105D+00
 Coeff-Com:  0.424D+00 0.763D+00
 Coeff:     -0.667D-03 0.796D-02 0.211D-01-0.168D-02-0.109D+00-0.105D+00
 Coeff:      0.424D+00 0.763D+00
 Gap=     0.281 Goal=   None    Shift=    0.000
 RMSDP=5.35D-08 MaxDP=3.69D-06 DE=-1.67D-09 OVMax= 9.25D-06

 Cycle  14  Pass 1  IDiag  1:
 RMSU=  3.05D-08    CP:  1.00D+00  1.05D+00  8.15D-01  1.46D+00  1.34D+00
                    CP:  1.02D+00  1.26D+00  9.98D-01
 E= -2048.63886710247     Delta-E=       -0.000000000933 Rises=F Damp=F
 DIIS: error= 1.83D-07 at cycle   9 NSaved=   9.
 NSaved= 9 IEnMin= 9 EnMin= -2048.63886710247     IErMin= 9 ErrMin= 1.83D-07
 ErrMax= 1.83D-07  0.00D+00 EMaxC= 1.00D-01 BMatC= 3.55D-11 BMatP= 4.06D-10
 IDIUse=1 WtCom= 1.00D+00 WtEn= 0.00D+00
 Coeff-Com: -0.428D-03 0.441D-02 0.119D-01 0.653D-03-0.548D-01-0.614D-01
 Coeff-Com:  0.104D+00 0.312D+00 0.684D+00
 Coeff:     -0.428D-03 0.441D-02 0.119D-01 0.653D-03-0.548D-01-0.614D-01
 Coeff:      0.104D+00 0.312D+00 0.684D+00
 Gap=     0.281 Goal=   None    Shift=    0.000
 RMSDP=1.37D-08 MaxDP=8.41D-07 DE=-9.33D-10 OVMax= 2.50D-06

 Cycle  15  Pass 1  IDiag  1:
 RMSU=  9.81D-09    CP:  1.00D+00  1.05D+00  8.15D-01  1.46D+00  1.34D+00
                    CP:  1.03D+00  1.28D+00  1.13D+00  1.09D+00
 E= -2048.63886710223     Delta-E=        0.000000000235 Rises=F Damp=F
 DIIS: error= 9.87D-08 at cycle  10 NSaved=  10.
 NSaved=10 IEnMin= 9 EnMin= -2048.63886710247     IErMin=10 ErrMin= 9.87D-08
 ErrMax= 9.87D-08  0.00D+00 EMaxC= 1.00D-01 BMatC= 5.99D-12 BMatP= 3.55D-11
 IDIUse=1 WtCom= 1.00D+00 WtEn= 0.00D+00
 Coeff-Com: -0.152D-04-0.818D-04-0.102D-03 0.203D-03 0.242D-02-0.113D-02
 Coeff-Com: -0.500D-01-0.533D-01 0.249D+00 0.853D+00
 Coeff:     -0.152D-04-0.818D-04-0.102D-03 0.203D-03 0.242D-02-0.113D-02
 Coeff:     -0.500D-01-0.533D-01 0.249D+00 0.853D+00
 Gap=     0.281 Goal=   None    Shift=    0.000
 RMSDP=7.76D-09 MaxDP=3.64D-07 DE= 2.35D-10 OVMax= 1.47D-06

 SCF Done:  E(RwB97XD) =  -2048.63886710     A.U. after   15 cycles
            NFock= 15  Conv=0.78D-08     -V/T= 2.0050
 KE= 2.038455821840D+03 PE=-1.597937259802D+04 EE= 6.292956791790D+03
 Leave Link  502 at Fri Jan 19 05:56:01 2018, MaxMem=  4294967296 cpu:           22937.8 elap:             741.7
 (Enter /share/apps/g16/l601.exe)
 Copying SCF densities to generalized density rwf, IOpCl= 0 IROHF=0.

 **********************************************************************

            Population analysis using the SCF density.

 **********************************************************************

 Orbital symmetries:
       Occupied  (A) (A) (A) (A) (A) (A) (A) (A) (A) (A) (A) (A)
                 (A) (A) (A) (A) (A) (A) (A) (A) (A) (A) (A) (A)
                 (A) (A) (A) (A) (A) (A) (A) (A) (A) (A) (A) (A)
                 (A) (A) (A) (A) (A) (A) (A) (A) (A) (A) (A) (A)
                 (A) (A) (A) (A) (A) (A) (A) (A) (A) (A) (A) (A)
                 (A) (A) (A) (A) (A) (A) (A) (A) (A) (A) (A) (A)
                 (A) (A) (A) (A) (A) (A) (A) (A) (A) (A) (A) (A)
                 (A) (A) (A) (A) (A) (A) (A) (A) (A) (A) (A) (A)
                 (A) (A) (A) (A) (A) (A) (A) (A) (A) (A) (A) (A)
                 (A) (A) (A) (A) (A) (A) (A) (A) (A) (A) (A) (A)
                 (A) (A) (A) (A) (A) (A) (A) (A) (A) (A) (A) (A)
                 (A) (A) (A) (A) (A) (A) (A) (A) (A) (A) (A) (A)
                 (A) (A) (A) (A) (A) (A) (A) (A) (A) (A)
       Virtual   (A) (A) (A) (A) (A) (A) (A) (A) (A) (A) (A) (A)
                 (A) (A) (A) (A) (A) (A) (A) (A) (A) (A) (A) (A)
                 (A) (A) (A) (A) (A) (A) (A) (A) (A) (A) (A) (A)
                 (A) (A) (A) (A) (A) (A) (A) (A) (A) (A) (A) (A)
                 (A) (A) (A) (A) (A) (A) (A) (A) (A) (A) (A) (A)
                 (A) (A) (A) (A) (A) (A) (A) (A) (A) (A) (A) (A)
                 (A) (A) (A) (A) (A) (A) (A) (A) (A) (A) (A) (A)
                 (A) (A) (A) (A) (A) (A) (A) (A) (A) (A) (A) (A)
                 (A) (A) (A) (A) (A) (A) (A) (A) (A) (A) (A) (A)
                 (A) (A) (A) (A) (A) (A) (A) (A) (A) (A) (A) (A)
                 (A) (A) (A) (A) (A) (A) (A) (A) (A) (A) (A) (A)
                 (A) (A) (A) (A) (A) (A) (A) (A) (A) (A) (A) (A)
                 (A) (A) (A) (A) (A) (A) (A) (A) (A) (A) (A) (A)
                 (A) (A) (A) (A) (A) (A) (A) (A) (A) (A) (A) (A)
                 (A) (A) (A) (A) (A) (A) (A) (A) (A) (A) (A) (A)
                 (A) (A) (A) (A) (A) (A) (A) (A) (A) (A) (A) (A)
                 (A) (A) (A) (A) (A) (A) (A) (A) (A) (A) (A) (A)
                 (A) (A) (A) (A) (A) (A) (A) (A) (A) (A) (A) (A)
                 (A) (A) (A) (A) (A) (A) (A) (A) (A) (A) (A) (A)
                 (A) (A) (A) (A) (A) (A) (A) (A) (A) (A) (A) (A)
                 (A) (A) (A) (A) (A) (A) (A) (A) (A) (A) (A) (A)
                 (A) (A) (A) (A) (A) (A) (A) (A) (A) (A) (A) (A)
                 (A) (A) (A) (A) (A) (A) (A) (A) (A) (A) (A) (A)
                 (A) (A) (A) (A) (A) (A) (A) (A) (A) (A) (A) (A)
                 (A) (A) (A) (A) (A) (A) (A) (A) (A) (A) (A) (A)
                 (A) (A) (A) (A) (A) (A) (A) (A) (A) (A) (A) (A)
                 (A) (A) (A) (A) (A) (A) (A) (A) (A) (A) (A) (A)
                 (A) (A) (A) (A) (A) (A) (A) (A) (A) (A) (A) (A)
                 (A) (A) (A) (A) (A) (A) (A) (A) (A) (A) (A) (A)
                 (A) (A) (A) (A) (A) (A) (A) (A) (A) (A) (A) (A)
                 (A) (A) (A) (A) (A) (A) (A) (A) (A) (A) (A) (A)
                 (A) (A) (A) (A) (A) (A) (A) (A) (A) (A) (A) (A)
                 (A) (A) (A) (A) (A) (A) (A) (A) (A) (A) (A) (A)
                 (A) (A) (A) (A) (A) (A) (A) (A) (A) (A) (A) (A)
                 (A) (A) (A) (A) (A) (A) (A) (A) (A) (A) (A) (A)
                 (A) (A) (A) (A) (A) (A) (A) (A) (A) (A) (A) (A)
                 (A) (A) (A) (A) (A) (A) (A) (A) (A) (A) (A) (A)
                 (A) (A) (A) (A) (A) (A) (A) (A) (A) (A) (A) (A)
                 (A) (A) (A) (A) (A) (A) (A) (A) (A) (A) (A) (A)
                 (A) (A) (A) (A) (A) (A) (A) (A) (A) (A) (A) (A)
                 (A) (A) (A) (A) (A) (A) (A) (A) (A) (A) (A) (A)
                 (A) (A) (A) (A) (A) (A) (A) (A) (A) (A) (A) (A)
                 (A) (A) (A) (A) (A) (A) (A) (A) (A) (A) (A) (A)
                 (A) (A) (A) (A) (A) (A) (A) (A) (A) (A) (A) (A)
                 (A) (A) (A) (A) (A) (A) (A) (A) (A) (A) (A) (A)
                 (A) (A) (A) (A) (A) (A) (A) (A) (A) (A) (A) (A)
                 (A) (A) (A) (A) (A) (A) (A) (A) (A) (A) (A) (A)
                 (A) (A) (A) (A) (A) (A) (A) (A) (A) (A) (A) (A)
                 (A) (A) (A) (A) (A) (A) (A)
 The electronic state is 1-A.
 Alpha  occ. eigenvalues --  -19.26205 -19.22006 -19.20372 -14.52939 -14.51181
 Alpha  occ. eigenvalues --  -14.50323 -14.48030 -14.47805 -14.46782 -14.45917
 Alpha  occ. eigenvalues --  -14.45810 -14.44175 -14.43691 -14.43221 -14.42995
 Alpha  occ. eigenvalues --  -14.42339 -14.42200 -14.41869 -14.41813 -14.40413
 Alpha  occ. eigenvalues --  -10.45850 -10.40573 -10.40120 -10.38545 -10.37896
 Alpha  occ. eigenvalues --  -10.37814 -10.37070 -10.36932 -10.36422 -10.35830
 Alpha  occ. eigenvalues --  -10.35625 -10.35159 -10.34916 -10.34623 -10.33788
 Alpha  occ. eigenvalues --  -10.33476 -10.32785 -10.32260 -10.31252 -10.31247
 Alpha  occ. eigenvalues --  -10.30187 -10.27848 -10.27783  -1.20004  -1.14141
 Alpha  occ. eigenvalues --   -1.13142  -1.13055  -1.13007  -1.10165  -1.09775
 Alpha  occ. eigenvalues --   -1.08528  -1.07847  -1.06910  -1.03654  -1.02724
 Alpha  occ. eigenvalues --   -1.02389  -0.99890  -0.99277  -0.98528  -0.98328
 Alpha  occ. eigenvalues --   -0.96103  -0.95443  -0.94506  -0.91347  -0.86761
 Alpha  occ. eigenvalues --   -0.85927  -0.85391  -0.84352  -0.83892  -0.83563
 Alpha  occ. eigenvalues --   -0.81417  -0.79182  -0.76034  -0.74770  -0.74411
 Alpha  occ. eigenvalues --   -0.73726  -0.73647  -0.73184  -0.72894  -0.69501
 Alpha  occ. eigenvalues --   -0.68050  -0.67186  -0.66774  -0.65905  -0.64864
 Alpha  occ. eigenvalues --   -0.64632  -0.63324  -0.63253  -0.62733  -0.61772
 Alpha  occ. eigenvalues --   -0.61386  -0.61311  -0.59959  -0.59761  -0.59046
 Alpha  occ. eigenvalues --   -0.58552  -0.58293  -0.58171  -0.57922  -0.57177
 Alpha  occ. eigenvalues --   -0.56814  -0.56181  -0.55731  -0.55091  -0.54470
 Alpha  occ. eigenvalues --   -0.54284  -0.53504  -0.53384  -0.53106  -0.52587
 Alpha  occ. eigenvalues --   -0.52139  -0.51894  -0.51785  -0.51434  -0.50889
 Alpha  occ. eigenvalues --   -0.50549  -0.49945  -0.49701  -0.48859  -0.48737
 Alpha  occ. eigenvalues --   -0.48507  -0.48458  -0.47947  -0.47817  -0.47395
 Alpha  occ. eigenvalues --   -0.47104  -0.45924  -0.45617  -0.44371  -0.42656
 Alpha  occ. eigenvalues --   -0.40951  -0.40157  -0.39795  -0.38999  -0.37208
 Alpha  occ. eigenvalues --   -0.37098  -0.37024  -0.35814  -0.35295  -0.35177
 Alpha  occ. eigenvalues --   -0.34954  -0.34579  -0.33575  -0.33165  -0.33121
 Alpha  occ. eigenvalues --   -0.32573  -0.32292  -0.32056  -0.31910  -0.31551
 Alpha  occ. eigenvalues --   -0.31070  -0.27232  -0.26613  -0.25138
 Alpha virt. eigenvalues --    0.02970   0.04684   0.05785   0.07824   0.08467
 Alpha virt. eigenvalues --    0.08931   0.09693   0.10015   0.11295   0.12208
 Alpha virt. eigenvalues --    0.12328   0.13356   0.14558   0.14566   0.15156
 Alpha virt. eigenvalues --    0.15407   0.16225   0.17287   0.18077   0.18116
 Alpha virt. eigenvalues --    0.18586   0.18851   0.19553   0.19973   0.20319
 Alpha virt. eigenvalues --    0.20870   0.21431   0.21530   0.21818   0.22077
 Alpha virt. eigenvalues --    0.22716   0.23187   0.23291   0.23368   0.23907
 Alpha virt. eigenvalues --    0.24298   0.25250   0.25869   0.26126   0.26492
 Alpha virt. eigenvalues --    0.27163   0.27734   0.27958   0.28283   0.28939
 Alpha virt. eigenvalues --    0.29316   0.29832   0.30473   0.31152   0.31254
 Alpha virt. eigenvalues --    0.32265   0.32709   0.32998   0.33545   0.33983
 Alpha virt. eigenvalues --    0.34591   0.35336   0.35912   0.36093   0.36440
 Alpha virt. eigenvalues --    0.37458   0.37943   0.38262   0.39116   0.39294
 Alpha virt. eigenvalues --    0.40350   0.40898   0.41272   0.41365   0.41971
 Alpha virt. eigenvalues --    0.42182   0.43616   0.43862   0.43956   0.44791
 Alpha virt. eigenvalues --    0.45331   0.45696   0.46205   0.46725   0.47655
 Alpha virt. eigenvalues --    0.47757   0.48305   0.48717   0.49474   0.49511
 Alpha virt. eigenvalues --    0.50089   0.50638   0.50970   0.51412   0.51479
 Alpha virt. eigenvalues --    0.52245   0.52859   0.53221   0.53909   0.54023
 Alpha virt. eigenvalues --    0.54701   0.55229   0.55529   0.55597   0.55897
 Alpha virt. eigenvalues --    0.56536   0.56834   0.57360   0.57991   0.58369
 Alpha virt. eigenvalues --    0.58744   0.59148   0.59322   0.60110   0.60353
 Alpha virt. eigenvalues --    0.60601   0.60703   0.61243   0.61685   0.61972
 Alpha virt. eigenvalues --    0.62513   0.63115   0.63276   0.63357   0.63624
 Alpha virt. eigenvalues --    0.64107   0.64651   0.65052   0.65332   0.65861
 Alpha virt. eigenvalues --    0.66454   0.66701   0.67158   0.67569   0.68294
 Alpha virt. eigenvalues --    0.68512   0.68612   0.69329   0.69397   0.69609
 Alpha virt. eigenvalues --    0.70695   0.70994   0.71164   0.72017   0.72648
 Alpha virt. eigenvalues --    0.73042   0.73350   0.73998   0.74333   0.74771
 Alpha virt. eigenvalues --    0.74830   0.74891   0.75583   0.75973   0.76117
 Alpha virt. eigenvalues --    0.76437   0.76652   0.77126   0.77554   0.78144
 Alpha virt. eigenvalues --    0.78443   0.78512   0.78914   0.79299   0.79554
 Alpha virt. eigenvalues --    0.79724   0.80158   0.81039   0.81295   0.81392
 Alpha virt. eigenvalues --    0.81645   0.82533   0.82592   0.83102   0.83456
 Alpha virt. eigenvalues --    0.83851   0.84241   0.84641   0.85347   0.85648
 Alpha virt. eigenvalues --    0.86628   0.87121   0.87417   0.87809   0.88110
 Alpha virt. eigenvalues --    0.88342   0.89460   0.89804   0.90064   0.90384
 Alpha virt. eigenvalues --    0.91041   0.91568   0.92037   0.92250   0.92573
 Alpha virt. eigenvalues --    0.93097   0.93313   0.94215   0.94637   0.94862
 Alpha virt. eigenvalues --    0.96157   0.96440   0.97252   0.97526   0.98078
 Alpha virt. eigenvalues --    0.98406   0.98787   0.99036   0.99313   0.99708
 Alpha virt. eigenvalues --    1.00739   1.01203   1.01252   1.01476   1.02361
 Alpha virt. eigenvalues --    1.02802   1.03319   1.03673   1.03745   1.04514
 Alpha virt. eigenvalues --    1.04699   1.05022   1.06211   1.06410   1.07044
 Alpha virt. eigenvalues --    1.07215   1.07769   1.08647   1.09286   1.09503
 Alpha virt. eigenvalues --    1.10625   1.10872   1.11249   1.12040   1.12237
 Alpha virt. eigenvalues --    1.13248   1.13624   1.13906   1.14469   1.14637
 Alpha virt. eigenvalues --    1.15365   1.15919   1.16035   1.16443   1.17535
 Alpha virt. eigenvalues --    1.17977   1.18476   1.18651   1.19070   1.19413
 Alpha virt. eigenvalues --    1.19764   1.20433   1.20788   1.20996   1.21305
 Alpha virt. eigenvalues --    1.21585   1.21969   1.22391   1.22844   1.23327
 Alpha virt. eigenvalues --    1.23835   1.24129   1.24640   1.24725   1.25518
 Alpha virt. eigenvalues --    1.25866   1.26181   1.27155   1.27531   1.28589
 Alpha virt. eigenvalues --    1.29460   1.29945   1.30208   1.30540   1.31691
 Alpha virt. eigenvalues --    1.32009   1.32113   1.32774   1.33458   1.34285
 Alpha virt. eigenvalues --    1.34500   1.35233   1.35759   1.36095   1.36334
 Alpha virt. eigenvalues --    1.36728   1.38266   1.38906   1.39209   1.40181
 Alpha virt. eigenvalues --    1.40598   1.40906   1.42275   1.42986   1.43289
 Alpha virt. eigenvalues --    1.44526   1.44907   1.45356   1.46237   1.46887
 Alpha virt. eigenvalues --    1.47963   1.48117   1.48449   1.49521   1.50830
 Alpha virt. eigenvalues --    1.51007   1.51778   1.52481   1.52683   1.53516
 Alpha virt. eigenvalues --    1.53973   1.54775   1.55219   1.55434   1.56237
 Alpha virt. eigenvalues --    1.57469   1.58144   1.58257   1.58805   1.59814
 Alpha virt. eigenvalues --    1.60023   1.61316   1.61808   1.62274   1.62892
 Alpha virt. eigenvalues --    1.63464   1.63856   1.65052   1.65160   1.65941
 Alpha virt. eigenvalues --    1.66598   1.66872   1.67326   1.67697   1.68436
 Alpha virt. eigenvalues --    1.68999   1.69185   1.69335   1.70120   1.70413
 Alpha virt. eigenvalues --    1.70723   1.71614   1.72169   1.72389   1.72661
 Alpha virt. eigenvalues --    1.72953   1.73402   1.73667   1.74242   1.74491
 Alpha virt. eigenvalues --    1.74697   1.75212   1.75744   1.76109   1.76451
 Alpha virt. eigenvalues --    1.76527   1.77200   1.77404   1.77521   1.78012
 Alpha virt. eigenvalues --    1.78773   1.79001   1.79109   1.79496   1.79813
 Alpha virt. eigenvalues --    1.80095   1.80904   1.81067   1.82177   1.82502
 Alpha virt. eigenvalues --    1.82848   1.84031   1.84257   1.84649   1.85113
 Alpha virt. eigenvalues --    1.85365   1.86117   1.86365   1.86995   1.87349
 Alpha virt. eigenvalues --    1.87629   1.88274   1.88630   1.89048   1.89651
 Alpha virt. eigenvalues --    1.90330   1.90447   1.90768   1.90984   1.91381
 Alpha virt. eigenvalues --    1.91927   1.92613   1.92764   1.93275   1.93899
 Alpha virt. eigenvalues --    1.94274   1.94564   1.94848   1.95595   1.96495
 Alpha virt. eigenvalues --    1.97326   1.97922   1.98271   1.98960   1.99441
 Alpha virt. eigenvalues --    2.00802   2.01065   2.02199   2.02810   2.03063
 Alpha virt. eigenvalues --    2.03793   2.04253   2.04945   2.05373   2.06219
 Alpha virt. eigenvalues --    2.06740   2.07200   2.08456   2.09099   2.09444
 Alpha virt. eigenvalues --    2.09736   2.10589   2.10743   2.11155   2.12086
 Alpha virt. eigenvalues --    2.12914   2.13397   2.13706   2.14560   2.15810
 Alpha virt. eigenvalues --    2.16454   2.16841   2.17716   2.18838   2.18952
 Alpha virt. eigenvalues --    2.19578   2.20690   2.21051   2.21714   2.23108
 Alpha virt. eigenvalues --    2.23495   2.24064   2.24779   2.25021   2.25691
 Alpha virt. eigenvalues --    2.26622   2.27032   2.27235   2.27981   2.28661
 Alpha virt. eigenvalues --    2.29340   2.29764   2.30490   2.31069   2.31736
 Alpha virt. eigenvalues --    2.32122   2.32857   2.33266   2.33396   2.34116
 Alpha virt. eigenvalues --    2.34546   2.35289   2.35776   2.36363   2.36821
 Alpha virt. eigenvalues --    2.37454   2.37590   2.38324   2.39842   2.39902
 Alpha virt. eigenvalues --    2.40678   2.40844   2.41560   2.41784   2.42384
 Alpha virt. eigenvalues --    2.43097   2.43557   2.44571   2.45033   2.45568
 Alpha virt. eigenvalues --    2.46614   2.46875   2.47671   2.48613   2.49152
 Alpha virt. eigenvalues --    2.49428   2.50406   2.51472   2.51522   2.53132
 Alpha virt. eigenvalues --    2.54140   2.54313   2.55294   2.55964   2.57119
 Alpha virt. eigenvalues --    2.57476   2.58006   2.59751   2.60044   2.60522
 Alpha virt. eigenvalues --    2.60936   2.62618   2.63013   2.63870   2.64309
 Alpha virt. eigenvalues --    2.64925   2.65715   2.66764   2.67206   2.67820
 Alpha virt. eigenvalues --    2.68150   2.68608   2.69164   2.69755   2.70612
 Alpha virt. eigenvalues --    2.71467   2.72546   2.72973   2.73534   2.74955
 Alpha virt. eigenvalues --    2.75306   2.75902   2.76110   2.76990   2.78208
 Alpha virt. eigenvalues --    2.78541   2.78979   2.79314   2.80189   2.81568
 Alpha virt. eigenvalues --    2.81792   2.81937   2.82526   2.83313   2.83762
 Alpha virt. eigenvalues --    2.84479   2.84779   2.86015   2.86423   2.86869
 Alpha virt. eigenvalues --    2.87217   2.87921   2.88950   2.89424   2.89878
 Alpha virt. eigenvalues --    2.92245   2.93546   2.94801   2.96159   2.96980
 Alpha virt. eigenvalues --    2.97681   2.97909   2.98951   3.00071   3.00602
 Alpha virt. eigenvalues --    3.03516   3.04680   3.05793   3.07346   3.08419
 Alpha virt. eigenvalues --    3.10324   3.11639   3.13848   3.14721   3.15845
 Alpha virt. eigenvalues --    3.16668   3.16912   3.18095   3.19944   3.22202
 Alpha virt. eigenvalues --    3.22542   3.23178   3.24736   3.25215   3.28766
 Alpha virt. eigenvalues --    3.46326   3.47254   3.48909   3.50245   3.50480
 Alpha virt. eigenvalues --    3.52723   3.54293   3.56841   3.58914   3.60551
 Alpha virt. eigenvalues --    3.63728   3.71689   3.75007
          Condensed to atoms (all electrons):
 Mulliken charges:
               1
     1  N   -0.315018
     2  C    0.180219
     3  C    0.046814
     4  N   -0.256296
     5  C    0.133847
     6  H    0.031570
     7  N   -0.252516
     8  C    0.117768
     9  H    0.029714
    10  N   -0.298962
    11  C    0.239834
    12  C    0.086068
    13  N   -0.039184
    14  H    0.108029
    15  H    0.088897
    16  H    0.029622
    17  H    0.035722
    18  H    0.028092
    19  N   -0.288055
    20  C    0.223084
    21  C    0.200091
    22  N   -0.067347
    23  H    0.102033
    24  H    0.109563
    25  N   -0.278015
    26  C    0.184636
    27  N   -0.102728
    28  H    0.125500
    29  C    0.123420
    30  O   -0.322989
    31  C    0.024145
    32  N   -0.223812
    33  C    0.110532
    34  H    0.024896
    35  H    0.021866
    36  H    0.013183
    37  H    0.005483
    38  H    0.048791
    39  H    0.066274
    40  H    0.098004
    41  H    0.033133
    42  C   -0.098786
    43  O   -0.263015
    44  C    0.188291
    45  H    0.132391
    46  N   -0.125385
    47  O   -0.350372
    48  C    0.345271
    49  H    0.046160
    50  C    0.166614
    51  C    0.028874
    52  N   -0.283648
    53  H    0.032576
    54  H    0.009224
    55  H   -0.028479
    56  H    0.116051
    57  H    0.120629
    58  N   -0.069727
    59  C    0.134965
    60  C    0.210520
    61  N   -0.295665
    62  H    0.056840
    63  C    0.169515
    64  N   -0.306137
    65  H    0.022467
    66  C    0.107799
    67  N   -0.250602
    68  C    0.026777
    69  C    0.212623
    70  N   -0.281678
 Sum of Mulliken charges =  -0.00000
 Mulliken charges with hydrogens summed into heavy atoms:
               1
     1  N   -0.315018
     2  C    0.273655
     3  C    0.046814
     4  N   -0.256296
     5  C    0.165417
     7  N   -0.252516
     8  C    0.147482
    10  N   -0.298962
    11  C    0.239834
    12  C    0.086068
    13  N    0.157742
    19  N   -0.288055
    20  C    0.223084
    21  C    0.240622
    22  N    0.144249
    25  N   -0.278015
    26  C    0.184636
    27  N    0.022772
    29  C    0.123420
    30  O   -0.322989
    31  C    0.024145
    32  N   -0.223812
    33  C    0.135429
    42  C   -0.065652
    43  O   -0.263015
    44  C    0.188291
    46  N    0.007006
    47  O   -0.350372
    48  C    0.345271
    50  C    0.212774
    51  C    0.241944
    52  N   -0.283648
    58  N    0.166953
    59  C    0.134965
    60  C    0.210520
    61  N   -0.295665
    63  C    0.226354
    64  N   -0.306137
    66  C    0.130267
    67  N   -0.250602
    68  C    0.026777
    69  C    0.225943
    70  N   -0.281678
 Electronic spatial extent (au):  <R**2>=          23507.4244
 Charge=              0.0000 electrons
 Dipole moment (field-independent basis, Debye):
    X=              4.2279    Y=             -5.4431    Z=             -5.1407  Tot=              8.5982
 Quadrupole moment (field-independent basis, Debye-Ang):
   XX=           -136.8951   YY=           -229.8748   ZZ=           -260.2366
   XY=            -19.8130   XZ=            -17.5858   YZ=             -7.4596
 Traceless Quadrupole moment (field-independent basis, Debye-Ang):
   XX=             72.1071   YY=            -20.8727   ZZ=            -51.2344
   XY=            -19.8130   XZ=            -17.5858   YZ=             -7.4596
 Octapole moment (field-independent basis, Debye-Ang**2):
  XXX=            -20.8218  YYY=            -18.6804  ZZZ=            -24.8529  XYY=             34.3634
  XXY=            -85.1684  XXZ=             27.0748  XZZ=              6.9906  YZZ=            -43.1993
  YYZ=            -66.8922  XYZ=             14.5274
 Hexadecapole moment (field-independent basis, Debye-Ang**3):
 XXXX=         -16596.2708 YYYY=          -3552.1302 ZZZZ=          -2887.9883 XXXY=           -534.0326
 XXXZ=           -303.0187 YYYX=            -97.9741 YYYZ=            -54.5278 ZZZX=            -70.7106
 ZZZY=            -11.5149 XXYY=          -4675.1330 XXZZ=          -4523.0670 YYZZ=          -1167.6901
 XXYZ=             50.3645 YYXZ=           -139.4828 ZZXY=           -108.5938
 N-N= 5.599321117287D+03 E-N=-1.597937259165D+04  KE= 2.038455821840D+03
 No NMR shielding tensors so no spin-rotation constants.
 Leave Link  601 at Fri Jan 19 05:56:03 2018, MaxMem=  4294967296 cpu:              46.7 elap:               1.6
 (Enter /share/apps/g16/l9999.exe)
 1\1\GINC-COMPUTE-0-3\SP\RwB97XD\CC-pVDZ\C23H27N17O3\SATYA\19-Jan-2018\
 0\\#p wb97xd/cc-pvdz sp scf=(maxcycles=20)\\Base pair stacking\\0,1\N,
 0,0.78438,10.61516,-6.44374\C,0,0.60837,12.04447,-6.1211\C,0,0.50601,8
 .43819,-6.58734\N,0,1.66955,8.72754,-7.28532\C,0,1.79069,10.0275,-7.17
 088\H,0,2.60246,10.6148,-7.60105\N,0,-1.30483,7.29087,-5.60375\C,0,-1.
 72142,8.48241,-5.163\H,0,-2.64117,8.4669,-4.57984\N,0,-1.17502,9.68458
 ,-5.33366\C,0,-0.05077,9.59168,-6.06296\C,0,-0.17031,7.23084,-6.33474\
 N,0,0.24715,6.04233,-6.7756\H,0,1.08155,5.95074,-7.32021\H,0,-0.25962,
 5.20344,-6.57663\H,0,0.52863,12.57127,-6.96744\H,0,-0.2207,12.1642,-5.
 57573\H,0,1.3976,12.3705,-5.6007\N,0,-0.29452,7.37649,-3.02048\C,0,-0.
 89914,6.15286,-2.86164\C,0,-0.9512,8.68482,-2.82619\N,0,-3.71019,4.264
 2,-2.09177\H,0,-3.95508,3.29693,-2.03133\H,0,-4.42946,4.92809,-1.88531
 \N,0,-2.18437,5.94185,-2.50426\C,0,-2.47313,4.65448,-2.43421\N,0,-1.57
 353,3.6491,-2.69387\H,0,-1.88238,2.69232,-2.61547\C,0,-0.24616,3.843,-
 3.06316\O,0,0.48307,2.86623,-3.27499\C,0,0.07888,5.22101,-3.14261\N,0,
 1.27345,5.84702,-3.47123\C,0,1.00485,7.12167,-3.38565\H,0,1.72056,7.92
 144,-3.57903\H,0,-0.91836,9.20593,-3.67834\H,0,-1.90378,8.54117,-2.561
 21\H,0,-0.47918,9.19296,-2.1066\H,0,-4.20725,-1.82918,-2.67677\H,0,-3.
 5029,-1.98037,-1.06876\H,0,-3.97197,-0.39343,-1.67946\H,0,0.33354,-2.9
 4877,-3.80565\C,0,-0.24509,-2.08761,-3.47123\O,0,1.42494,-0.507,-4.054
 14\C,0,0.31589,-0.77684,-3.59372\H,0,-0.13668,1.18206,-3.2113\N,0,-0.4
 9869,0.24145,-3.14117\O,0,-2.40084,1.08219,-2.22893\C,0,-1.75498,0.118
 84,-2.60241\H,0,-1.93961,-3.21433,-2.83491\C,0,-1.46808,-2.23924,-2.94
 978\C,0,-3.56512,-1.35693,-1.94827\N,0,-2.2268,-1.1763,-2.5175\H,0,-5.
 83786,1.03918,-3.85725\H,0,-4.94289,2.15578,-3.07347\H,0,-4.79077,0.57
 55,-2.69448\H,0,0.34386,2.48538,-7.69917\H,0,-0.38036,0.94129,-7.66199
 \N,0,-0.35211,1.87909,-7.31422\C,0,-1.2051,2.3014,-6.37868\C,0,-3.0106
 3,2.06961,-4.84634\N,0,-2.94942,3.33443,-4.39811\H,0,-1.8536,5.03887,-
 4.70583\C,0,-1.97313,4.00035,-5.01155\N,0,-1.11773,3.57916,-5.94882\H,
 0,-4.09788,-0.96637,-5.0762\C,0,-3.55711,-0.02624,-5.18866\N,0,-2.5564
 3,0.1638,-6.01341\C,0,-2.20054,1.48866,-5.80643\C,0,-4.94917,1.22514,-
 3.43815\N,0,-3.88516,1.08519,-4.45121\\Version=EM64L-G16RevA.03\State=
 1-A\HF=-2048.6388671\RMSD=7.763e-09\Dipole=-3.239413,-0.8680321,0.4427
 082\Quadrupole=-20.1681655,37.5562656,-17.3881001,33.8451126,-18.51978
 44,-12.3826364\PG=C01 [X(C23H27N17O3)]\\@


 A people that values its privileges above its principles soon loses both.
 -- Dwight D. Eisenhower
 Job cpu time:       0 days  6 hours 32 minutes 38.3 seconds.
 Elapsed time:       0 days  0 hours 12 minutes 41.6 seconds.
 File lengths (MBytes):  RWF=    298 Int=      0 D2E=      0 Chk=     33 Scr=      1
 Normal termination of Gaussian 16 at Fri Jan 19 05:56:03 2018.
