 Entering Gaussian System, Link 0=g16
 Input=str15.-10.-0.5.com
 Output=str15.-10.-0.5.log
 Initial command:
 /share/apps/g16/l1.exe "/state/partition1/scr/Gau-15564.inp" -scrdir="/state/partition1/scr/"
 Entering Link 1 = /share/apps/g16/l1.exe PID=     15565.
  
 Copyright (c) 1988,1990,1992,1993,1995,1998,2003,2009,2016,
            Gaussian, Inc.  All Rights Reserved.
  
 This is part of the Gaussian(R) 16 program.  It is based on
 the Gaussian(R) 09 system (copyright 2009, Gaussian, Inc.),
 the Gaussian(R) 03 system (copyright 2003, Gaussian, Inc.),
 the Gaussian(R) 98 system (copyright 1998, Gaussian, Inc.),
 the Gaussian(R) 94 system (copyright 1995, Gaussian, Inc.),
 the Gaussian 92(TM) system (copyright 1992, Gaussian, Inc.),
 the Gaussian 90(TM) system (copyright 1990, Gaussian, Inc.),
 the Gaussian 88(TM) system (copyright 1988, Gaussian, Inc.),
 the Gaussian 86(TM) system (copyright 1986, Carnegie Mellon
 University), and the Gaussian 82(TM) system (copyright 1983,
 Carnegie Mellon University). Gaussian is a federally registered
 trademark of Gaussian, Inc.
  
 This software contains proprietary and confidential information,
 including trade secrets, belonging to Gaussian, Inc.
  
 This software is provided under written license and may be
 used, copied, transmitted, or stored only in accord with that
 written license.
  
 The following legend is applicable only to US Government
 contracts under FAR:
  
                    RESTRICTED RIGHTS LEGEND
  
 Use, reproduction and disclosure by the US Government is
 subject to restrictions as set forth in subparagraphs (a)
 and (c) of the Commercial Computer Software - Restricted
 Rights clause in FAR 52.227-19.
  
 Gaussian, Inc.
 340 Quinnipiac St., Bldg. 40, Wallingford CT 06492
  
  
 ---------------------------------------------------------------
 Warning -- This program may not be used in any manner that
 competes with the business of Gaussian, Inc. or will provide
 assistance to any competitor of Gaussian, Inc.  The licensee
 of this program is prohibited from giving any competitor of
 Gaussian, Inc. access to this program.  By using this program,
 the user acknowledges that Gaussian, Inc. is engaged in the
 business of creating and licensing software in the field of
 computational chemistry and represents and warrants to the
 licensee that it is not a competitor of Gaussian, Inc. and that
 it will not use this program in any manner prohibited above.
 ---------------------------------------------------------------
  

 Cite this work as:
 Gaussian 16, Revision A.03,
 M. J. Frisch, G. W. Trucks, H. B. Schlegel, G. E. Scuseria, 
 M. A. Robb, J. R. Cheeseman, G. Scalmani, V. Barone, 
 G. A. Petersson, H. Nakatsuji, X. Li, M. Caricato, A. V. Marenich, 
 J. Bloino, B. G. Janesko, R. Gomperts, B. Mennucci, H. P. Hratchian, 
 J. V. Ortiz, A. F. Izmaylov, J. L. Sonnenberg, D. Williams-Young, 
 F. Ding, F. Lipparini, F. Egidi, J. Goings, B. Peng, A. Petrone, 
 T. Henderson, D. Ranasinghe, V. G. Zakrzewski, J. Gao, N. Rega, 
 G. Zheng, W. Liang, M. Hada, M. Ehara, K. Toyota, R. Fukuda, 
 J. Hasegawa, M. Ishida, T. Nakajima, Y. Honda, O. Kitao, H. Nakai, 
 T. Vreven, K. Throssell, J. A. Montgomery, Jr., J. E. Peralta, 
 F. Ogliaro, M. J. Bearpark, J. J. Heyd, E. N. Brothers, K. N. Kudin, 
 V. N. Staroverov, T. A. Keith, R. Kobayashi, J. Normand, 
 K. Raghavachari, A. P. Rendell, J. C. Burant, S. S. Iyengar, 
 J. Tomasi, M. Cossi, J. M. Millam, M. Klene, C. Adamo, R. Cammi, 
 J. W. Ochterski, R. L. Martin, K. Morokuma, O. Farkas, 
 J. B. Foresman, and D. J. Fox, Gaussian, Inc., Wallingford CT, 2016.
 
 ******************************************
 Gaussian 16:  EM64L-G16RevA.03 25-Dec-2016
                18-Jan-2018 
 ******************************************
 %nprocshared=32
 Will use up to   32 processors via shared memory.
 %mem=32GB
 %chk=allatoms_t.chk
 ---------------------------------------
 #p wb97xd/cc-pvdz sp scf=(maxcycles=20)
 ---------------------------------------
 1/38=1,172=1/1;
 2/12=2,17=6,18=5,40=1/2;
 3/5=16,11=2,25=1,30=1,74=-58/1,2,3;
 4//1;
 5/5=2,7=20,38=5/2;
 6/7=2,8=2,9=2,10=2,28=1/1;
 99/5=1,9=1/99;
 Leave Link    1 at Thu Jan 18 17:33:27 2018, MaxMem=  4294967296 cpu:               2.7 elap:               0.1
 (Enter /share/apps/g16/l101.exe)
 ------------------
 Base pair stacking
 ------------------
 Symbolic Z-matrix:
 Charge =  0 Multiplicity = 1
 N                     0.82219   6.72048  -6.43701 
 C                     0.54606   8.16514  -6.31567 
 C                     0.61287   4.53134  -6.47123 
 N                     1.93929   4.7992   -6.77715 
 C                     2.01231   6.10735  -6.74429 
 H                     2.91797   6.68282  -6.93809 
 N                    -1.41575   3.41174  -6.03063 
 C                    -1.95703   4.6216   -5.8551 
 H                    -3.01646   4.62483  -5.60241 
 N                    -1.38878   5.82244  -5.94443 
 C                    -0.08807   5.70572  -6.259 
 C                    -0.10488   3.32794  -6.34636 
 N                     0.43725   2.12112  -6.52197 
 H                     1.40379   2.01166  -6.7566 
 H                    -0.10393   1.28573  -6.42506 
 H                     0.74443   8.61797  -7.18502 
 H                    -0.41578   8.30285  -6.08108 
 H                     1.12183   8.55757  -5.5984 
 N                    -0.30408   5.43085  -3.13058 
 C                    -0.92537   4.20794  -3.04961 
 C                    -0.98594   6.73977  -3.08062 
 N                    -3.82413   2.32235  -2.72791 
 H                    -4.0745    1.35541  -2.68832 
 H                    -4.56891   2.98694  -2.66211 
 N                    -2.25245   3.99829  -2.91192 
 C                    -2.54728   2.71132  -2.86313 
 N                    -1.61529   1.70506  -2.9429 
 H                    -1.93178   0.74868  -2.89677 
 C                    -0.24464   1.89757  -3.08476 
 O                     0.51128   0.92011  -3.14709 
 C                     0.08743   3.27514  -3.13866 
 N                     1.31975   3.89986  -3.27283 
 C                     1.03886   5.1747   -3.26304 
 H                     1.77605   5.97366  -3.34954 
 H                    -0.8089    7.24218  -3.92622 
 H                    -1.96957   6.59712  -2.97875 
 H                    -0.64422   7.26601  -2.30273 
 H                    -4.20635  -3.78487  -3.25163 
 H                    -3.78639  -3.89707  -1.54409 
 H                    -4.14645  -2.32636  -2.26143 
 H                     0.46187  -4.90584  -3.56431 
 C                    -0.16641  -4.0405   -3.35293 
 O                     1.57655  -2.46458  -3.67805 
 C                     0.40556  -2.72989  -3.40749 
 H                    -0.1081   -0.76539  -3.15207 
 N                    -0.47557  -1.70607  -3.1235 
 O                    -2.50651  -0.85519  -2.56809 
 C                    -1.80518  -1.82321  -2.80419 
 H                    -1.9432   -5.16158  -2.9896 
 C                    -1.46023  -4.18685  -3.04434 
 C                    -3.69848  -3.29345  -2.43515 
 N                    -2.28292  -3.11855  -2.77181 
 H                    -6.24989  -2.81617  -5.30499 
 H                    -5.66246  -1.61127  -4.37481 
 H                    -5.63682  -3.14954  -3.82971 
 H                     0.841    -1.49473  -7.04817 
 H                     0.14919  -3.05274  -7.11215 
 N                     0.05962  -2.08916  -6.85779 
 C                    -1.05283  -1.6188   -6.28999 
 C                    -3.25807  -1.78125  -5.4112 
 N                    -3.35025  -0.48264  -5.08025 
 H                    -2.21954   1.22469  -5.1648 
 C                    -2.22963   0.16134  -5.40028 
 N                    -1.11435  -0.30797  -5.96901 
 H                    -4.20131  -4.85878  -5.71329 
 C                    -3.65647  -3.91437  -5.7266 
 N                    -2.44245  -3.76098  -6.19597 
 C                    -2.17767  -2.41302  -6.00207 
 C                    -5.54664  -2.56841  -4.63862 
 N                    -4.21035  -2.75717  -5.23586 
 
 ITRead=  0  0  0  0  0  0  0  0  0  0  0  0  0  0  0  0  0  0  0  0
 ITRead=  0  0  0  0  0  0  0  0  0  0  0  0  0  0  0  0  0  0  0  0
 ITRead=  0  0  0  0  0  0  0  0  0  0  0  0  0  0  0  0  0  0  0  0
 ITRead=  0  0  0  0  0  0  0  0  0  0
 MicOpt= -1 -1 -1 -1 -1 -1 -1 -1 -1 -1 -1 -1 -1 -1 -1 -1 -1 -1 -1 -1
 MicOpt= -1 -1 -1 -1 -1 -1 -1 -1 -1 -1 -1 -1 -1 -1 -1 -1 -1 -1 -1 -1
 MicOpt= -1 -1 -1 -1 -1 -1 -1 -1 -1 -1 -1 -1 -1 -1 -1 -1 -1 -1 -1 -1
 MicOpt= -1 -1 -1 -1 -1 -1 -1 -1 -1 -1
 NAtoms=     70 NQM=       70 NQMF=       0 NMMI=      0 NMMIF=      0
                NMic=       0 NMicF=      0.
                    Isotopes and Nuclear Properties:
 (Nuclear quadrupole moments (NQMom) in fm**2, nuclear magnetic moments (NMagM)
  in nuclear magnetons)

  Atom         1           2           3           4           5           6           7           8           9          10
 IAtWgt=          14          12          12          14          12           1          14          12           1          14
 AtmWgt=  14.0030740  12.0000000  12.0000000  14.0030740  12.0000000   1.0078250  14.0030740  12.0000000   1.0078250  14.0030740
 NucSpn=           2           0           0           2           0           1           2           0           1           2
 AtZEff=  -0.0000000  -0.0000000  -0.0000000  -0.0000000  -0.0000000  -0.0000000  -0.0000000  -0.0000000  -0.0000000  -0.0000000
 NQMom=    2.0440000   0.0000000   0.0000000   2.0440000   0.0000000   0.0000000   2.0440000   0.0000000   0.0000000   2.0440000
 NMagM=    0.4037610   0.0000000   0.0000000   0.4037610   0.0000000   2.7928460   0.4037610   0.0000000   2.7928460   0.4037610
 AtZNuc=   7.0000000   6.0000000   6.0000000   7.0000000   6.0000000   1.0000000   7.0000000   6.0000000   1.0000000   7.0000000

  Atom        11          12          13          14          15          16          17          18          19          20
 IAtWgt=          12          12          14           1           1           1           1           1          14          12
 AtmWgt=  12.0000000  12.0000000  14.0030740   1.0078250   1.0078250   1.0078250   1.0078250   1.0078250  14.0030740  12.0000000
 NucSpn=           0           0           2           1           1           1           1           1           2           0
 AtZEff=  -0.0000000  -0.0000000  -0.0000000  -0.0000000  -0.0000000  -0.0000000  -0.0000000  -0.0000000  -0.0000000  -0.0000000
 NQMom=    0.0000000   0.0000000   2.0440000   0.0000000   0.0000000   0.0000000   0.0000000   0.0000000   2.0440000   0.0000000
 NMagM=    0.0000000   0.0000000   0.4037610   2.7928460   2.7928460   2.7928460   2.7928460   2.7928460   0.4037610   0.0000000
 AtZNuc=   6.0000000   6.0000000   7.0000000   1.0000000   1.0000000   1.0000000   1.0000000   1.0000000   7.0000000   6.0000000

  Atom        21          22          23          24          25          26          27          28          29          30
 IAtWgt=          12          14           1           1          14          12          14           1          12          16
 AtmWgt=  12.0000000  14.0030740   1.0078250   1.0078250  14.0030740  12.0000000  14.0030740   1.0078250  12.0000000  15.9949146
 NucSpn=           0           2           1           1           2           0           2           1           0           0
 AtZEff=  -0.0000000  -0.0000000  -0.0000000  -0.0000000  -0.0000000  -0.0000000  -0.0000000  -0.0000000  -0.0000000  -0.0000000
 NQMom=    0.0000000   2.0440000   0.0000000   0.0000000   2.0440000   0.0000000   2.0440000   0.0000000   0.0000000   0.0000000
 NMagM=    0.0000000   0.4037610   2.7928460   2.7928460   0.4037610   0.0000000   0.4037610   2.7928460   0.0000000   0.0000000
 AtZNuc=   6.0000000   7.0000000   1.0000000   1.0000000   7.0000000   6.0000000   7.0000000   1.0000000   6.0000000   8.0000000

  Atom        31          32          33          34          35          36          37          38          39          40
 IAtWgt=          12          14          12           1           1           1           1           1           1           1
 AtmWgt=  12.0000000  14.0030740  12.0000000   1.0078250   1.0078250   1.0078250   1.0078250   1.0078250   1.0078250   1.0078250
 NucSpn=           0           2           0           1           1           1           1           1           1           1
 AtZEff=  -0.0000000  -0.0000000  -0.0000000  -0.0000000  -0.0000000  -0.0000000  -0.0000000  -0.0000000  -0.0000000  -0.0000000
 NQMom=    0.0000000   2.0440000   0.0000000   0.0000000   0.0000000   0.0000000   0.0000000   0.0000000   0.0000000   0.0000000
 NMagM=    0.0000000   0.4037610   0.0000000   2.7928460   2.7928460   2.7928460   2.7928460   2.7928460   2.7928460   2.7928460
 AtZNuc=   6.0000000   7.0000000   6.0000000   1.0000000   1.0000000   1.0000000   1.0000000   1.0000000   1.0000000   1.0000000

  Atom        41          42          43          44          45          46          47          48          49          50
 IAtWgt=           1          12          16          12           1          14          16          12           1          12
 AtmWgt=   1.0078250  12.0000000  15.9949146  12.0000000   1.0078250  14.0030740  15.9949146  12.0000000   1.0078250  12.0000000
 NucSpn=           1           0           0           0           1           2           0           0           1           0
 AtZEff=  -0.0000000  -0.0000000  -0.0000000  -0.0000000  -0.0000000  -0.0000000  -0.0000000  -0.0000000  -0.0000000  -0.0000000
 NQMom=    0.0000000   0.0000000   0.0000000   0.0000000   0.0000000   2.0440000   0.0000000   0.0000000   0.0000000   0.0000000
 NMagM=    2.7928460   0.0000000   0.0000000   0.0000000   2.7928460   0.4037610   0.0000000   0.0000000   2.7928460   0.0000000
 AtZNuc=   1.0000000   6.0000000   8.0000000   6.0000000   1.0000000   7.0000000   8.0000000   6.0000000   1.0000000   6.0000000

  Atom        51          52          53          54          55          56          57          58          59          60
 IAtWgt=          12          14           1           1           1           1           1          14          12          12
 AtmWgt=  12.0000000  14.0030740   1.0078250   1.0078250   1.0078250   1.0078250   1.0078250  14.0030740  12.0000000  12.0000000
 NucSpn=           0           2           1           1           1           1           1           2           0           0
 AtZEff=  -0.0000000  -0.0000000  -0.0000000  -0.0000000  -0.0000000  -0.0000000  -0.0000000  -0.0000000  -0.0000000  -0.0000000
 NQMom=    0.0000000   2.0440000   0.0000000   0.0000000   0.0000000   0.0000000   0.0000000   2.0440000   0.0000000   0.0000000
 NMagM=    0.0000000   0.4037610   2.7928460   2.7928460   2.7928460   2.7928460   2.7928460   0.4037610   0.0000000   0.0000000
 AtZNuc=   6.0000000   7.0000000   1.0000000   1.0000000   1.0000000   1.0000000   1.0000000   7.0000000   6.0000000   6.0000000

  Atom        61          62          63          64          65          66          67          68          69          70
 IAtWgt=          14           1          12          14           1          12          14          12          12          14
 AtmWgt=  14.0030740   1.0078250  12.0000000  14.0030740   1.0078250  12.0000000  14.0030740  12.0000000  12.0000000  14.0030740
 NucSpn=           2           1           0           2           1           0           2           0           0           2
 AtZEff=  -0.0000000  -0.0000000  -0.0000000  -0.0000000  -0.0000000  -0.0000000  -0.0000000  -0.0000000  -0.0000000  -0.0000000
 NQMom=    2.0440000   0.0000000   0.0000000   2.0440000   0.0000000   0.0000000   2.0440000   0.0000000   0.0000000   2.0440000
 NMagM=    0.4037610   2.7928460   0.0000000   0.4037610   2.7928460   0.0000000   0.4037610   0.0000000   0.0000000   0.4037610
 AtZNuc=   7.0000000   1.0000000   6.0000000   7.0000000   1.0000000   6.0000000   7.0000000   6.0000000   6.0000000   7.0000000
 Leave Link  101 at Thu Jan 18 17:33:27 2018, MaxMem=  4294967296 cpu:               7.8 elap:               0.3
 (Enter /share/apps/g16/l202.exe)
 Stoichiometry    C23H27N17O3
 Framework group  C1[X(C23H27N17O3)]
 Deg. of freedom   204
 Full point group                 C1      NOp   1
 Largest Abelian subgroup         C1      NOp   1
 Largest concise Abelian subgroup C1      NOp   1
                         Standard orientation:                         
 ---------------------------------------------------------------------
 Center     Atomic      Atomic             Coordinates (Angstroms)
 Number     Number       Type             X           Y           Z
 ---------------------------------------------------------------------
      1          7           0        6.017922   -1.069030   -0.800299
      2          6           0        7.309066   -0.386037   -1.011209
      3          6           0        3.871978   -1.548129   -0.748272
      4          7           0        4.527093   -2.641357   -0.200183
      5          6           0        5.793720   -2.308965   -0.253463
      6          1           0        6.614529   -2.936254    0.095429
      7          7           0        2.194604   -0.091627   -1.540706
      8          6           0        3.182342    0.754888   -1.849482
      9          1           0        2.865714    1.693983   -2.301259
     10          7           0        4.496317    0.616186   -1.684756
     11          6           0        4.777779   -0.571005   -1.122812
     12          6           0        2.510453   -1.277824   -0.976557
     13          7           0        1.525864   -2.124165   -0.667610
     14          1           0        1.713392   -3.013252   -0.248574
     15          1           0        0.567752   -1.898517   -0.844385
     16          1           0        7.885121   -0.938057   -1.614209
     17          1           0        7.149834    0.507459   -1.430068
     18          1           0        7.770813   -0.262960   -0.132784
     19          7           0        4.137112    1.426602    1.224173
     20          6           0        2.788183    1.593235    1.022456
     21          6           0        5.193239    2.327965    0.721340
     22          7           0        0.149649    3.406016   -0.324285
     23          1           0       -0.847600    3.344670   -0.355236
     24          1           0        0.571160    4.183195   -0.792288
     25          7           0        2.205601    2.600281    0.336519
     26          6           0        0.889347    2.487840    0.315814
     27          7           0        0.194807    1.467986    0.919999
     28          1           0       -0.811368    1.462501    0.852633
     29          6           0        0.773530    0.421365    1.631005
     30          8           0        0.055865   -0.449534    2.138175
     31          6           0        2.187191    0.528505    1.661962
     32          7           0        3.139641   -0.290085    2.253264
     33          6           0        4.278574    0.280602    1.968027
     34          1           0        5.255222   -0.093838    2.276607
     35          1           0        5.808324    1.820139    0.119193
     36          1           0        4.773622    3.077841    0.211573
     37          1           0        5.711699    2.698710    1.491120
     38          1           0       -5.737529    1.658114   -0.391291
     39          1           0       -5.901807    2.361243    1.215964
     40          1           0       -4.428253    2.628271    0.283933
     41          1           0       -5.481076   -2.299631    2.332145
     42          6           0       -4.850256   -1.463297    2.030746
     43          8           0       -2.827971   -2.510080    2.695383
     44          6           0       -3.433919   -1.552733    2.214631
     45          1           0       -1.725716   -0.466447    1.914012
     46          7           0       -2.729255   -0.440580    1.800127
     47          8           0       -2.536505    1.639646    0.909790
     48          6           0       -3.242631    0.705405    1.246316
     49          1           0       -6.451297   -0.240750    1.332277
     50          6           0       -5.380514   -0.358521    1.493239
     51          6           0       -5.210147    1.919849    0.513931
     52          7           0       -4.615974    0.715851    1.101373
     53          1           0       -5.170434    2.183896   -3.346402
     54          1           0       -3.950931    2.656158   -2.370761
     55          1           0       -5.468789    2.540118   -1.781943
     56          1           0       -1.762876   -3.757281   -0.490432
     57          1           0       -3.436765   -3.721042   -0.817347
     58          7           0       -2.566960   -3.229309   -0.764002
     59          6           0       -2.484086   -1.927335   -1.045388
     60          6           0       -3.340650    0.195997   -1.693080
     61          7           0       -2.159296    0.830348   -1.612984
     62          1           0       -0.205849    0.420408   -1.147552
     63          6           0       -1.200545   -0.013999   -1.237758
     64          7           0       -1.281536   -1.318340   -0.955466
     65          1           0       -6.511733   -0.153020   -2.217073
     66          6           0       -5.456958   -0.299680   -1.982812
     67          7           0       -4.925771   -1.441875   -1.620994
     68          6           0       -3.584270   -1.141589   -1.434161
     69          6           0       -4.806338    2.141030   -2.416030
     70          7           0       -4.555078    0.734339   -2.047130
 ---------------------------------------------------------------------
 Rotational constants (GHZ):           0.1806044           0.0525833           0.0510618
 Leave Link  202 at Thu Jan 18 17:33:27 2018, MaxMem=  4294967296 cpu:               0.4 elap:               0.0
 (Enter /share/apps/g16/l301.exe)
 Standard basis: CC-pVDZ (5D, 7F)
 Ernie: Thresh=  0.10000D-02 Tol=  0.10000D-05 Strict=F.
 Ernie:  86 primitive shells out of 1081 were deleted.
 There are   780 symmetry adapted cartesian basis functions of A   symmetry.
 There are   737 symmetry adapted basis functions of A   symmetry.
   737 basis functions,  1608 primitive gaussians,   780 cartesian basis functions
   154 alpha electrons      154 beta electrons
       nuclear repulsion energy      5639.0050910234 Hartrees.
 IExCor= 4639 DFT=T Ex+Corr=wB97XD ExCW=0 ScaHFX=  1.000000
 ScaDFX=  1.000000  1.000000  1.000000  1.000000 ScalE2=  1.000000  1.000000
 IRadAn=      5 IRanWt=     -1 IRanGd=            0 ICorTp=0 IEmpDi=121
 HFx  wShort=  0.000000 wLong=  0.200000 cFull=  0.222036 cShort=  0.000000 cLong=  0.777964
 DFx  wShort=  0.000000 wLong=  0.200000 cFull=  0.000000 cShort=  0.000000 cLong=  1.000000
 NAtoms=   70 NActive=   70 NUniq=   70 SFac= 1.00D+00 NAtFMM=   60 NAOKFM=T Big=T
 Integral buffers will be    131072 words long.
 Raffenetti 2 integral format.
 Two-electron integral symmetry is turned on.
 R6Disp:  Grimme-D2 Dispersion energy=       -0.0819243362 Hartrees.
 Nuclear repulsion after empirical dispersion term =     5638.9231666872 Hartrees.
 Leave Link  301 at Thu Jan 18 17:33:27 2018, MaxMem=  4294967296 cpu:               3.0 elap:               0.1
 (Enter /share/apps/g16/l302.exe)
 NPDir=0 NMtPBC=     1 NCelOv=     1 NCel=       1 NClECP=     1 NCelD=      1
         NCelK=      1 NCelE2=     1 NClLst=     1 CellRange=     0.0.
 One-electron integrals computed using PRISM.
 One-electron integral symmetry used in STVInt
 NBasis=   737 RedAO= T EigKep=  6.58D-04  NBF=   737
 NBsUse=   737 1.00D-06 EigRej= -1.00D+00 NBFU=   737
 Precomputing XC quadrature grid using
 IXCGrd= 4 IRadAn=           5 IRanWt=          -1 IRanGd=           0 AccXCQ= 0.00D+00.
 Generated NRdTot=       0 NPtTot=           0 NUsed=           0 NTot=          32
 NSgBfM=   768   768   768   768   768 MxSgAt=    70 MxSgA2=    70.
 Leave Link  302 at Thu Jan 18 17:33:31 2018, MaxMem=  4294967296 cpu:             138.9 elap:               4.4
 (Enter /share/apps/g16/l303.exe)
 DipDrv:  MaxL=1.
 Leave Link  303 at Thu Jan 18 17:33:32 2018, MaxMem=  4294967296 cpu:              12.6 elap:               0.4
 (Enter /share/apps/g16/l401.exe)
 ExpMin= 1.22D-01 ExpMax= 1.17D+04 ExpMxC= 4.01D+02 IAcc=3 IRadAn=         5 AccDes= 0.00D+00
 Harris functional with IExCor= 4639 and IRadAn=       5 diagonalized for initial guess.
 HarFok:  IExCor= 4639 AccDes= 0.00D+00 IRadAn=         5 IDoV= 1 UseB2=F ITyADJ=14
 ICtDFT=  3500011 ScaDFX=  1.000000  1.000000  1.000000  1.000000
 FoFCou: FMM=F IPFlag=           0 FMFlag=      100000 FMFlg1=        2001
         NFxFlg=           0 DoJE=T BraDBF=F KetDBF=T FulRan=T
         wScrn=  0.000000 ICntrl=       500 IOpCl=  0 I1Cent=   200000004 NGrid=           0
         NMat0=    1 NMatS0=      1 NMatT0=    0 NMatD0=    1 NMtDS0=    0 NMtDT0=    0
 Petite list used in FoFCou.
 Harris En= -1963.86705134384    
 JPrj=0 DoOrth=F DoCkMO=F.
 Leave Link  401 at Thu Jan 18 17:33:45 2018, MaxMem=  4294967296 cpu:             416.5 elap:              13.1
 (Enter /share/apps/g16/l502.exe)
 Integral symmetry usage will be decided dynamically.
 Closed shell SCF:
 Using DIIS extrapolation, IDIIS=  1040.
 NGot=  4294967296 LenX=  4293717438 LenY=  4293108258
 Requested convergence on RMS density matrix=1.00D-08 within  20 cycles.
 Requested convergence on MAX density matrix=1.00D-06.
 Requested convergence on             energy=1.00D-06.
 No special actions if energy rises.
 Fock matrices will be formed incrementally for  20 cycles.
 Integral accuracy reduced to 1.0D-05 until final iterations.

 Cycle   1  Pass 0  IDiag  1:
 FoFJK:  IHMeth= 1 ICntrl=       0 DoSepK=T KAlg= 0 I1Cent=           0 FoldK=F
 IRaf=         1 NMat=       1 IRICut=       1 DoRegI=T DoRafI=F ISym2E= 0 IDoP0=0 IntGTp=1.
 FoFCou: FMM=T IPFlag=           0 FMFlag=      100000 FMFlg1=        2001
         NFxFlg=           0 DoJE=T BraDBF=F KetDBF=F FulRan=T
         wScrn=  0.000000 ICntrl=       500 IOpCl=  0 I1Cent=           0 NGrid=           0
         NMat0=    1 NMatS0=      1 NMatT0=    0 NMatD0=    1 NMtDS0=    0 NMtDT0=    0
 Symmetry not used in FoFCou.
 FMM levels:  10  Number of levels for PrismC:   9
 E= -2048.29636621665    
 DIIS: error= 1.85D-02 at cycle   1 NSaved=   1.
 NSaved= 1 IEnMin= 1 EnMin= -2048.29636621665     IErMin= 1 ErrMin= 1.85D-02
 ErrMax= 1.85D-02  0.00D+00 EMaxC= 1.00D-01 BMatC= 8.40D-01 BMatP= 8.40D-01
 IDIUse=3 WtCom= 8.15D-01 WtEn= 1.85D-01
 Coeff-Com:  0.100D+01
 Coeff-En:   0.100D+01
 Coeff:      0.100D+01
 Gap=     0.255 Goal=   None    Shift=    0.000
 GapD=    0.255 DampG=1.000 DampE=0.500 DampFc=0.5000 IDamp=-1.
 Damping current iteration by 5.00D-01
 RMSDP=1.63D-03 MaxDP=1.27D-01              OVMax= 2.12D-01

 Cycle   2  Pass 0  IDiag  1:
 RMSU=  8.13D-04    CP:  9.97D-01
 E= -2048.49299540752     Delta-E=       -0.196629190868 Rises=F Damp=T
 DIIS: error= 1.04D-02 at cycle   2 NSaved=   2.
 NSaved= 2 IEnMin= 2 EnMin= -2048.49299540752     IErMin= 2 ErrMin= 1.04D-02
 ErrMax= 1.04D-02  0.00D+00 EMaxC= 1.00D-01 BMatC= 1.47D-01 BMatP= 8.40D-01
 IDIUse=3 WtCom= 8.96D-01 WtEn= 1.04D-01
 Coeff-Com: -0.175D+00 0.117D+01
 Coeff-En:   0.000D+00 0.100D+01
 Coeff:     -0.157D+00 0.116D+01
 Gap=     0.362 Goal=   None    Shift=    0.000
 RMSDP=6.12D-04 MaxDP=3.54D-02 DE=-1.97D-01 OVMax= 1.14D-01

 Cycle   3  Pass 0  IDiag  1:
 RMSU=  6.07D-04    CP:  9.94D-01  1.09D+00
 E= -2048.67190021670     Delta-E=       -0.178904809175 Rises=F Damp=F
 DIIS: error= 6.20D-03 at cycle   3 NSaved=   3.
 NSaved= 3 IEnMin= 3 EnMin= -2048.67190021670     IErMin= 3 ErrMin= 6.20D-03
 ErrMax= 6.20D-03  0.00D+00 EMaxC= 1.00D-01 BMatC= 7.24D-02 BMatP= 1.47D-01
 IDIUse=3 WtCom= 9.38D-01 WtEn= 6.20D-02
 Coeff-Com: -0.233D+00 0.561D+00 0.672D+00
 Coeff-En:   0.000D+00 0.000D+00 0.100D+01
 Coeff:     -0.218D+00 0.526D+00 0.692D+00
 Gap=     0.283 Goal=   None    Shift=    0.000
 RMSDP=3.89D-04 MaxDP=3.18D-02 DE=-1.79D-01 OVMax= 7.26D-02

 Cycle   4  Pass 0  IDiag  1:
 RMSU=  2.15D-04    CP:  9.94D-01  1.39D+00  6.53D-01
 E= -2048.72713615917     Delta-E=       -0.055235942472 Rises=F Damp=F
 DIIS: error= 2.74D-03 at cycle   4 NSaved=   4.
 NSaved= 4 IEnMin= 4 EnMin= -2048.72713615917     IErMin= 4 ErrMin= 2.74D-03
 ErrMax= 2.74D-03  0.00D+00 EMaxC= 1.00D-01 BMatC= 9.81D-03 BMatP= 7.24D-02
 IDIUse=3 WtCom= 9.73D-01 WtEn= 2.74D-02
 Coeff-Com: -0.977D-01 0.189D+00 0.370D+00 0.538D+00
 Coeff-En:   0.000D+00 0.000D+00 0.610D-01 0.939D+00
 Coeff:     -0.950D-01 0.184D+00 0.362D+00 0.549D+00
 Gap=     0.286 Goal=   None    Shift=    0.000
 RMSDP=1.34D-04 MaxDP=1.13D-02 DE=-5.52D-02 OVMax= 1.52D-02

 Cycle   5  Pass 0  IDiag  1:
 RMSU=  6.35D-05    CP:  9.94D-01  1.36D+00  7.89D-01  6.23D-01
 E= -2048.73537918999     Delta-E=       -0.008243030826 Rises=F Damp=F
 DIIS: error= 5.03D-04 at cycle   5 NSaved=   5.
 NSaved= 5 IEnMin= 5 EnMin= -2048.73537918999     IErMin= 5 ErrMin= 5.03D-04
 ErrMax= 5.03D-04  0.00D+00 EMaxC= 1.00D-01 BMatC= 3.04D-04 BMatP= 9.81D-03
 IDIUse=3 WtCom= 9.95D-01 WtEn= 5.03D-03
 Coeff-Com: -0.255D-01 0.438D-01 0.118D+00 0.239D+00 0.625D+00
 Coeff-En:   0.000D+00 0.000D+00 0.000D+00 0.000D+00 0.100D+01
 Coeff:     -0.254D-01 0.436D-01 0.117D+00 0.237D+00 0.627D+00
 Gap=     0.286 Goal=   None    Shift=    0.000
 RMSDP=2.75D-05 MaxDP=1.66D-03 DE=-8.24D-03 OVMax= 3.36D-03

 Failed to achieve initial convergence to 1.0D-08 in  6 cycles.
 Switch to full accuracy anyway.
 Cycle   6  Pass 1  IDiag  1:
 E= -2048.73544691345     Delta-E=       -0.000067723452 Rises=F Damp=F
 DIIS: error= 2.50D-04 at cycle   1 NSaved=   1.
 NSaved= 1 IEnMin= 1 EnMin= -2048.73544691345     IErMin= 1 ErrMin= 2.50D-04
 ErrMax= 2.50D-04  0.00D+00 EMaxC= 1.00D-01 BMatC= 7.95D-05 BMatP= 7.95D-05
 IDIUse=3 WtCom= 9.98D-01 WtEn= 2.50D-03
 Coeff-Com:  0.100D+01
 Coeff-En:   0.100D+01
 Coeff:      0.100D+01
 Gap=     0.286 Goal=   None    Shift=    0.000
 RMSDP=2.75D-05 MaxDP=1.66D-03 DE=-6.77D-05 OVMax= 2.54D-03

 Cycle   7  Pass 1  IDiag  1:
 RMSU=  1.17D-04    CP:  1.00D+00
 E= -2048.73550261017     Delta-E=       -0.000055696722 Rises=F Damp=F
 DIIS: error= 1.97D-04 at cycle   2 NSaved=   2.
 NSaved= 2 IEnMin= 2 EnMin= -2048.73550261017     IErMin= 2 ErrMin= 1.97D-04
 ErrMax= 1.97D-04  0.00D+00 EMaxC= 1.00D-01 BMatC= 4.63D-05 BMatP= 7.95D-05
 IDIUse=3 WtCom= 9.98D-01 WtEn= 1.97D-03
 Coeff-Com:  0.410D+00 0.590D+00
 Coeff-En:   0.000D+00 0.100D+01
 Coeff:      0.409D+00 0.591D+00
 Gap=     0.286 Goal=   None    Shift=    0.000
 RMSDP=1.21D-05 MaxDP=9.70D-04 DE=-5.57D-05 OVMax= 1.74D-03

 Cycle   8  Pass 1  IDiag  1:
 RMSU=  1.18D-05    CP:  1.00D+00  1.02D+00
 E= -2048.73553691857     Delta-E=       -0.000034308404 Rises=F Damp=F
 DIIS: error= 1.01D-04 at cycle   3 NSaved=   3.
 NSaved= 3 IEnMin= 3 EnMin= -2048.73553691857     IErMin= 3 ErrMin= 1.01D-04
 ErrMax= 1.01D-04  0.00D+00 EMaxC= 1.00D-01 BMatC= 1.06D-05 BMatP= 4.63D-05
 IDIUse=3 WtCom= 9.99D-01 WtEn= 1.01D-03
 Coeff-Com: -0.183D-01 0.310D+00 0.709D+00
 Coeff-En:   0.000D+00 0.136D+00 0.864D+00
 Coeff:     -0.183D-01 0.310D+00 0.709D+00
 Gap=     0.286 Goal=   None    Shift=    0.000
 RMSDP=5.90D-06 MaxDP=4.44D-04 DE=-3.43D-05 OVMax= 6.58D-04

 Cycle   9  Pass 1  IDiag  1:
 RMSU=  3.99D-06    CP:  1.00D+00  1.05D+00  7.57D-01
 E= -2048.73554716082     Delta-E=       -0.000010242248 Rises=F Damp=F
 DIIS: error= 2.53D-05 at cycle   4 NSaved=   4.
 NSaved= 4 IEnMin= 4 EnMin= -2048.73554716082     IErMin= 4 ErrMin= 2.53D-05
 ErrMax= 2.53D-05  0.00D+00 EMaxC= 1.00D-01 BMatC= 5.67D-07 BMatP= 1.06D-05
 IDIUse=1 WtCom= 1.00D+00 WtEn= 0.00D+00
 Coeff-Com: -0.303D-01 0.884D-01 0.274D+00 0.668D+00
 Coeff:     -0.303D-01 0.884D-01 0.274D+00 0.668D+00
 Gap=     0.286 Goal=   None    Shift=    0.000
 RMSDP=1.50D-06 MaxDP=1.11D-04 DE=-1.02D-05 OVMax= 4.80D-04

 Cycle  10  Pass 1  IDiag  1:
 RMSU=  1.35D-06    CP:  1.00D+00  1.05D+00  7.94D-01  1.09D+00
 E= -2048.73554806115     Delta-E=       -0.000000900333 Rises=F Damp=F
 DIIS: error= 1.24D-05 at cycle   5 NSaved=   5.
 NSaved= 5 IEnMin= 5 EnMin= -2048.73554806115     IErMin= 5 ErrMin= 1.24D-05
 ErrMax= 1.24D-05  0.00D+00 EMaxC= 1.00D-01 BMatC= 1.31D-07 BMatP= 5.67D-07
 IDIUse=1 WtCom= 1.00D+00 WtEn= 0.00D+00
 Coeff-Com: -0.427D-02-0.523D-01-0.108D+00 0.217D+00 0.947D+00
 Coeff:     -0.427D-02-0.523D-01-0.108D+00 0.217D+00 0.947D+00
 Gap=     0.286 Goal=   None    Shift=    0.000
 RMSDP=1.22D-06 MaxDP=6.62D-05 DE=-9.00D-07 OVMax= 2.42D-04

 Cycle  11  Pass 1  IDiag  1:
 RMSU=  5.02D-07    CP:  1.00D+00  1.05D+00  8.05D-01  1.36D+00  1.16D+00
 E= -2048.73554833634     Delta-E=       -0.000000275185 Rises=F Damp=F
 DIIS: error= 5.82D-06 at cycle   6 NSaved=   6.
 NSaved= 6 IEnMin= 6 EnMin= -2048.73554833634     IErMin= 6 ErrMin= 5.82D-06
 ErrMax= 5.82D-06  0.00D+00 EMaxC= 1.00D-01 BMatC= 3.22D-08 BMatP= 1.31D-07
 IDIUse=1 WtCom= 1.00D+00 WtEn= 0.00D+00
 Coeff-Com:  0.452D-02-0.461D-01-0.116D+00-0.318D-02 0.513D+00 0.648D+00
 Coeff:      0.452D-02-0.461D-01-0.116D+00-0.318D-02 0.513D+00 0.648D+00
 Gap=     0.286 Goal=   None    Shift=    0.000
 RMSDP=4.14D-07 MaxDP=3.20D-05 DE=-2.75D-07 OVMax= 1.28D-04

 Cycle  12  Pass 1  IDiag  1:
 RMSU=  1.94D-07    CP:  1.00D+00  1.05D+00  8.08D-01  1.43D+00  1.30D+00
                    CP:  9.34D-01
 E= -2048.73554838371     Delta-E=       -0.000000047375 Rises=F Damp=F
 DIIS: error= 1.17D-06 at cycle   7 NSaved=   7.
 NSaved= 7 IEnMin= 7 EnMin= -2048.73554838371     IErMin= 7 ErrMin= 1.17D-06
 ErrMax= 1.17D-06  0.00D+00 EMaxC= 1.00D-01 BMatC= 8.48D-10 BMatP= 3.22D-08
 IDIUse=1 WtCom= 1.00D+00 WtEn= 0.00D+00
 Coeff-Com:  0.118D-02-0.852D-02-0.228D-01-0.929D-02 0.685D-01 0.146D+00
 Coeff-Com:  0.825D+00
 Coeff:      0.118D-02-0.852D-02-0.228D-01-0.929D-02 0.685D-01 0.146D+00
 Coeff:      0.825D+00
 Gap=     0.286 Goal=   None    Shift=    0.000
 RMSDP=8.63D-08 MaxDP=4.65D-06 DE=-4.74D-08 OVMax= 2.38D-05

 Cycle  13  Pass 1  IDiag  1:
 RMSU=  5.26D-08    CP:  1.00D+00  1.05D+00  8.07D-01  1.44D+00  1.32D+00
                    CP:  1.02D+00  1.14D+00
 E= -2048.73554838564     Delta-E=       -0.000000001931 Rises=F Damp=F
 DIIS: error= 6.66D-07 at cycle   8 NSaved=   8.
 NSaved= 8 IEnMin= 8 EnMin= -2048.73554838564     IErMin= 8 ErrMin= 6.66D-07
 ErrMax= 6.66D-07  0.00D+00 EMaxC= 1.00D-01 BMatC= 3.65D-10 BMatP= 8.48D-10
 IDIUse=1 WtCom= 1.00D+00 WtEn= 0.00D+00
 Coeff-Com: -0.708D-03 0.905D-02 0.220D-01-0.200D-02-0.112D+00-0.112D+00
 Coeff-Com:  0.415D+00 0.780D+00
 Coeff:     -0.708D-03 0.905D-02 0.220D-01-0.200D-02-0.112D+00-0.112D+00
 Coeff:      0.415D+00 0.780D+00
 Gap=     0.286 Goal=   None    Shift=    0.000
 RMSDP=5.15D-08 MaxDP=2.69D-06 DE=-1.93D-09 OVMax= 1.16D-05

 Cycle  14  Pass 1  IDiag  1:
 RMSU=  2.94D-08    CP:  1.00D+00  1.05D+00  8.07D-01  1.45D+00  1.32D+00
                    CP:  1.06D+00  1.30D+00  1.08D+00
 E= -2048.73554838625     Delta-E=       -0.000000000610 Rises=F Damp=F
 DIIS: error= 1.66D-07 at cycle   9 NSaved=   9.
 NSaved= 9 IEnMin= 9 EnMin= -2048.73554838625     IErMin= 9 ErrMin= 1.66D-07
 ErrMax= 1.66D-07  0.00D+00 EMaxC= 1.00D-01 BMatC= 2.88D-11 BMatP= 3.65D-10
 IDIUse=1 WtCom= 1.00D+00 WtEn= 0.00D+00
 Coeff-Com: -0.397D-03 0.439D-02 0.109D-01 0.309D-03-0.494D-01-0.588D-01
 Coeff-Com:  0.743D-01 0.283D+00 0.736D+00
 Coeff:     -0.397D-03 0.439D-02 0.109D-01 0.309D-03-0.494D-01-0.588D-01
 Coeff:      0.743D-01 0.283D+00 0.736D+00
 Gap=     0.286 Goal=   None    Shift=    0.000
 RMSDP=1.42D-08 MaxDP=7.06D-07 DE=-6.10D-10 OVMax= 3.41D-06

 Cycle  15  Pass 1  IDiag  1:
 RMSU=  9.52D-09    CP:  1.00D+00  1.05D+00  8.07D-01  1.45D+00  1.32D+00
                    CP:  1.07D+00  1.33D+00  1.22D+00  1.13D+00
 E= -2048.73554838654     Delta-E=       -0.000000000283 Rises=F Damp=F
 DIIS: error= 5.93D-08 at cycle  10 NSaved=  10.
 NSaved=10 IEnMin=10 EnMin= -2048.73554838654     IErMin=10 ErrMin= 5.93D-08
 ErrMax= 5.93D-08  0.00D+00 EMaxC= 1.00D-01 BMatC= 4.81D-12 BMatP= 2.88D-11
 IDIUse=1 WtCom= 1.00D+00 WtEn= 0.00D+00
 Coeff-Com:  0.187D-04-0.465D-03-0.105D-02 0.206D-03 0.712D-02 0.375D-02
 Coeff-Com: -0.573D-01-0.736D-01 0.245D+00 0.876D+00
 Coeff:      0.187D-04-0.465D-03-0.105D-02 0.206D-03 0.712D-02 0.375D-02
 Coeff:     -0.573D-01-0.736D-01 0.245D+00 0.876D+00
 Gap=     0.286 Goal=   None    Shift=    0.000
 RMSDP=7.07D-09 MaxDP=3.86D-07 DE=-2.83D-10 OVMax= 1.52D-06

 SCF Done:  E(RwB97XD) =  -2048.73554839     A.U. after   15 cycles
            NFock= 15  Conv=0.71D-08     -V/T= 2.0053
 KE= 2.037898607608D+03 PE=-1.605842576148D+04 EE= 6.332868438800D+03
 Leave Link  502 at Thu Jan 18 17:46:23 2018, MaxMem=  4294967296 cpu:           23364.7 elap:             757.9
 (Enter /share/apps/g16/l601.exe)
 Copying SCF densities to generalized density rwf, IOpCl= 0 IROHF=0.

 **********************************************************************

            Population analysis using the SCF density.

 **********************************************************************

 Orbital symmetries:
       Occupied  (A) (A) (A) (A) (A) (A) (A) (A) (A) (A) (A) (A)
                 (A) (A) (A) (A) (A) (A) (A) (A) (A) (A) (A) (A)
                 (A) (A) (A) (A) (A) (A) (A) (A) (A) (A) (A) (A)
                 (A) (A) (A) (A) (A) (A) (A) (A) (A) (A) (A) (A)
                 (A) (A) (A) (A) (A) (A) (A) (A) (A) (A) (A) (A)
                 (A) (A) (A) (A) (A) (A) (A) (A) (A) (A) (A) (A)
                 (A) (A) (A) (A) (A) (A) (A) (A) (A) (A) (A) (A)
                 (A) (A) (A) (A) (A) (A) (A) (A) (A) (A) (A) (A)
                 (A) (A) (A) (A) (A) (A) (A) (A) (A) (A) (A) (A)
                 (A) (A) (A) (A) (A) (A) (A) (A) (A) (A) (A) (A)
                 (A) (A) (A) (A) (A) (A) (A) (A) (A) (A) (A) (A)
                 (A) (A) (A) (A) (A) (A) (A) (A) (A) (A) (A) (A)
                 (A) (A) (A) (A) (A) (A) (A) (A) (A) (A)
       Virtual   (A) (A) (A) (A) (A) (A) (A) (A) (A) (A) (A) (A)
                 (A) (A) (A) (A) (A) (A) (A) (A) (A) (A) (A) (A)
                 (A) (A) (A) (A) (A) (A) (A) (A) (A) (A) (A) (A)
                 (A) (A) (A) (A) (A) (A) (A) (A) (A) (A) (A) (A)
                 (A) (A) (A) (A) (A) (A) (A) (A) (A) (A) (A) (A)
                 (A) (A) (A) (A) (A) (A) (A) (A) (A) (A) (A) (A)
                 (A) (A) (A) (A) (A) (A) (A) (A) (A) (A) (A) (A)
                 (A) (A) (A) (A) (A) (A) (A) (A) (A) (A) (A) (A)
                 (A) (A) (A) (A) (A) (A) (A) (A) (A) (A) (A) (A)
                 (A) (A) (A) (A) (A) (A) (A) (A) (A) (A) (A) (A)
                 (A) (A) (A) (A) (A) (A) (A) (A) (A) (A) (A) (A)
                 (A) (A) (A) (A) (A) (A) (A) (A) (A) (A) (A) (A)
                 (A) (A) (A) (A) (A) (A) (A) (A) (A) (A) (A) (A)
                 (A) (A) (A) (A) (A) (A) (A) (A) (A) (A) (A) (A)
                 (A) (A) (A) (A) (A) (A) (A) (A) (A) (A) (A) (A)
                 (A) (A) (A) (A) (A) (A) (A) (A) (A) (A) (A) (A)
                 (A) (A) (A) (A) (A) (A) (A) (A) (A) (A) (A) (A)
                 (A) (A) (A) (A) (A) (A) (A) (A) (A) (A) (A) (A)
                 (A) (A) (A) (A) (A) (A) (A) (A) (A) (A) (A) (A)
                 (A) (A) (A) (A) (A) (A) (A) (A) (A) (A) (A) (A)
                 (A) (A) (A) (A) (A) (A) (A) (A) (A) (A) (A) (A)
                 (A) (A) (A) (A) (A) (A) (A) (A) (A) (A) (A) (A)
                 (A) (A) (A) (A) (A) (A) (A) (A) (A) (A) (A) (A)
                 (A) (A) (A) (A) (A) (A) (A) (A) (A) (A) (A) (A)
                 (A) (A) (A) (A) (A) (A) (A) (A) (A) (A) (A) (A)
                 (A) (A) (A) (A) (A) (A) (A) (A) (A) (A) (A) (A)
                 (A) (A) (A) (A) (A) (A) (A) (A) (A) (A) (A) (A)
                 (A) (A) (A) (A) (A) (A) (A) (A) (A) (A) (A) (A)
                 (A) (A) (A) (A) (A) (A) (A) (A) (A) (A) (A) (A)
                 (A) (A) (A) (A) (A) (A) (A) (A) (A) (A) (A) (A)
                 (A) (A) (A) (A) (A) (A) (A) (A) (A) (A) (A) (A)
                 (A) (A) (A) (A) (A) (A) (A) (A) (A) (A) (A) (A)
                 (A) (A) (A) (A) (A) (A) (A) (A) (A) (A) (A) (A)
                 (A) (A) (A) (A) (A) (A) (A) (A) (A) (A) (A) (A)
                 (A) (A) (A) (A) (A) (A) (A) (A) (A) (A) (A) (A)
                 (A) (A) (A) (A) (A) (A) (A) (A) (A) (A) (A) (A)
                 (A) (A) (A) (A) (A) (A) (A) (A) (A) (A) (A) (A)
                 (A) (A) (A) (A) (A) (A) (A) (A) (A) (A) (A) (A)
                 (A) (A) (A) (A) (A) (A) (A) (A) (A) (A) (A) (A)
                 (A) (A) (A) (A) (A) (A) (A) (A) (A) (A) (A) (A)
                 (A) (A) (A) (A) (A) (A) (A) (A) (A) (A) (A) (A)
                 (A) (A) (A) (A) (A) (A) (A) (A) (A) (A) (A) (A)
                 (A) (A) (A) (A) (A) (A) (A) (A) (A) (A) (A) (A)
                 (A) (A) (A) (A) (A) (A) (A) (A) (A) (A) (A) (A)
                 (A) (A) (A) (A) (A) (A) (A) (A) (A) (A) (A) (A)
                 (A) (A) (A) (A) (A) (A) (A) (A) (A) (A) (A) (A)
                 (A) (A) (A) (A) (A) (A) (A) (A) (A) (A) (A) (A)
                 (A) (A) (A) (A) (A) (A) (A) (A) (A) (A) (A) (A)
                 (A) (A) (A) (A) (A) (A) (A)
 The electronic state is 1-A.
 Alpha  occ. eigenvalues --  -19.25319 -19.21610 -19.20559 -14.52326 -14.52199
 Alpha  occ. eigenvalues --  -14.49705 -14.48438 -14.47477 -14.47439 -14.46746
 Alpha  occ. eigenvalues --  -14.46481 -14.45298 -14.43933 -14.43852 -14.43019
 Alpha  occ. eigenvalues --  -14.42156 -14.41790 -14.41580 -14.40825 -14.40595
 Alpha  occ. eigenvalues --  -10.45012 -10.41062 -10.39714 -10.39455 -10.38116
 Alpha  occ. eigenvalues --  -10.37840 -10.37362 -10.36948 -10.36190 -10.35331
 Alpha  occ. eigenvalues --  -10.35241 -10.34835 -10.34140 -10.34038 -10.34003
 Alpha  occ. eigenvalues --  -10.33662 -10.33086 -10.32379 -10.32069 -10.30555
 Alpha  occ. eigenvalues --  -10.30155 -10.29260 -10.27857  -1.19116  -1.15110
 Alpha  occ. eigenvalues --   -1.13083  -1.12625  -1.12204  -1.10359  -1.09116
 Alpha  occ. eigenvalues --   -1.08746  -1.08415  -1.05757  -1.04344  -1.02174
 Alpha  occ. eigenvalues --   -1.01229  -1.00865  -0.99558  -0.98363  -0.97814
 Alpha  occ. eigenvalues --   -0.96432  -0.96272  -0.93410  -0.90660  -0.87607
 Alpha  occ. eigenvalues --   -0.86043  -0.84807  -0.83818  -0.83632  -0.83210
 Alpha  occ. eigenvalues --   -0.82036  -0.78530  -0.76785  -0.74660  -0.74333
 Alpha  occ. eigenvalues --   -0.73688  -0.73450  -0.73070  -0.71795  -0.70161
 Alpha  occ. eigenvalues --   -0.67195  -0.67099  -0.66536  -0.66217  -0.64405
 Alpha  occ. eigenvalues --   -0.64024  -0.63644  -0.63473  -0.62541  -0.62272
 Alpha  occ. eigenvalues --   -0.61554  -0.61045  -0.60311  -0.59343  -0.59243
 Alpha  occ. eigenvalues --   -0.58248  -0.57987  -0.57687  -0.57344  -0.56358
 Alpha  occ. eigenvalues --   -0.56027  -0.55723  -0.55274  -0.54848  -0.54128
 Alpha  occ. eigenvalues --   -0.53924  -0.53333  -0.53311  -0.52780  -0.52688
 Alpha  occ. eigenvalues --   -0.52505  -0.52271  -0.51672  -0.51379  -0.50982
 Alpha  occ. eigenvalues --   -0.49982  -0.49805  -0.49369  -0.49193  -0.48941
 Alpha  occ. eigenvalues --   -0.48631  -0.48432  -0.48070  -0.47755  -0.47201
 Alpha  occ. eigenvalues --   -0.47045  -0.45817  -0.45510  -0.44279  -0.42832
 Alpha  occ. eigenvalues --   -0.41869  -0.40461  -0.39124  -0.37899  -0.37547
 Alpha  occ. eigenvalues --   -0.37314  -0.37090  -0.36983  -0.35988  -0.34600
 Alpha  occ. eigenvalues --   -0.34281  -0.34173  -0.33872  -0.33627  -0.32879
 Alpha  occ. eigenvalues --   -0.32456  -0.32306  -0.31674  -0.31577  -0.31211
 Alpha  occ. eigenvalues --   -0.31156  -0.29217  -0.26504  -0.25306
 Alpha virt. eigenvalues --    0.03337   0.04403   0.07088   0.07126   0.08646
 Alpha virt. eigenvalues --    0.08895   0.09824   0.10417   0.10875   0.12417
 Alpha virt. eigenvalues --    0.13282   0.13459   0.14085   0.14355   0.14807
 Alpha virt. eigenvalues --    0.15099   0.16162   0.17345   0.17953   0.18358
 Alpha virt. eigenvalues --    0.18525   0.19273   0.19337   0.19711   0.20157
 Alpha virt. eigenvalues --    0.20597   0.21264   0.21586   0.21643   0.22475
 Alpha virt. eigenvalues --    0.22645   0.22824   0.23031   0.23416   0.24206
 Alpha virt. eigenvalues --    0.24470   0.24658   0.25046   0.25796   0.26056
 Alpha virt. eigenvalues --    0.26639   0.27435   0.27714   0.28170   0.28475
 Alpha virt. eigenvalues --    0.28863   0.29095   0.29662   0.30247   0.30565
 Alpha virt. eigenvalues --    0.31229   0.31775   0.32593   0.33480   0.33632
 Alpha virt. eigenvalues --    0.34094   0.34256   0.35108   0.35835   0.36495
 Alpha virt. eigenvalues --    0.36771   0.37072   0.38202   0.38459   0.39482
 Alpha virt. eigenvalues --    0.39937   0.40083   0.40653   0.41397   0.41879
 Alpha virt. eigenvalues --    0.42555   0.42969   0.43485   0.43562   0.44077
 Alpha virt. eigenvalues --    0.45405   0.45499   0.46281   0.46910   0.47004
 Alpha virt. eigenvalues --    0.47654   0.48191   0.48571   0.48838   0.50208
 Alpha virt. eigenvalues --    0.50345   0.50641   0.50722   0.51194   0.51540
 Alpha virt. eigenvalues --    0.52208   0.52273   0.52770   0.53342   0.53676
 Alpha virt. eigenvalues --    0.54169   0.54458   0.54856   0.55561   0.55658
 Alpha virt. eigenvalues --    0.56000   0.56413   0.56864   0.57386   0.57638
 Alpha virt. eigenvalues --    0.57780   0.58739   0.58972   0.59409   0.60142
 Alpha virt. eigenvalues --    0.60607   0.60908   0.61284   0.61616   0.62224
 Alpha virt. eigenvalues --    0.62568   0.62898   0.63297   0.63862   0.64017
 Alpha virt. eigenvalues --    0.64386   0.64661   0.65139   0.65486   0.65649
 Alpha virt. eigenvalues --    0.66239   0.66487   0.67029   0.67489   0.67627
 Alpha virt. eigenvalues --    0.68154   0.69217   0.69625   0.69887   0.70572
 Alpha virt. eigenvalues --    0.71220   0.71425   0.71786   0.72227   0.72525
 Alpha virt. eigenvalues --    0.73067   0.73189   0.73661   0.74103   0.74275
 Alpha virt. eigenvalues --    0.74605   0.75158   0.75402   0.75902   0.76093
 Alpha virt. eigenvalues --    0.76324   0.76610   0.76831   0.77463   0.78008
 Alpha virt. eigenvalues --    0.78530   0.78601   0.78965   0.79073   0.79184
 Alpha virt. eigenvalues --    0.80037   0.80723   0.81148   0.81253   0.81483
 Alpha virt. eigenvalues --    0.81801   0.82602   0.83045   0.83214   0.83506
 Alpha virt. eigenvalues --    0.83747   0.83823   0.85029   0.85508   0.85780
 Alpha virt. eigenvalues --    0.85879   0.87171   0.87581   0.87791   0.88186
 Alpha virt. eigenvalues --    0.88939   0.89010   0.89376   0.90018   0.90427
 Alpha virt. eigenvalues --    0.91017   0.91367   0.92044   0.92655   0.92805
 Alpha virt. eigenvalues --    0.93682   0.94365   0.94709   0.95236   0.95535
 Alpha virt. eigenvalues --    0.95888   0.96317   0.96888   0.97298   0.97711
 Alpha virt. eigenvalues --    0.98129   0.98441   0.99325   0.99547   0.99919
 Alpha virt. eigenvalues --    1.00444   1.00942   1.01505   1.01780   1.02140
 Alpha virt. eigenvalues --    1.02604   1.03656   1.03803   1.04382   1.05021
 Alpha virt. eigenvalues --    1.05083   1.05712   1.06083   1.06411   1.07025
 Alpha virt. eigenvalues --    1.07270   1.07629   1.08143   1.09128   1.09732
 Alpha virt. eigenvalues --    1.10048   1.10495   1.11358   1.11609   1.11764
 Alpha virt. eigenvalues --    1.12325   1.12936   1.13694   1.14040   1.14078
 Alpha virt. eigenvalues --    1.14619   1.14758   1.15449   1.15714   1.15932
 Alpha virt. eigenvalues --    1.16987   1.17105   1.17492   1.18149   1.18244
 Alpha virt. eigenvalues --    1.18676   1.19135   1.19739   1.20190   1.20737
 Alpha virt. eigenvalues --    1.21087   1.21246   1.21915   1.21987   1.22048
 Alpha virt. eigenvalues --    1.23459   1.23966   1.24132   1.24457   1.24995
 Alpha virt. eigenvalues --    1.25170   1.25273   1.26337   1.27046   1.27269
 Alpha virt. eigenvalues --    1.27770   1.28223   1.28454   1.29441   1.30092
 Alpha virt. eigenvalues --    1.30780   1.30856   1.31451   1.32131   1.32692
 Alpha virt. eigenvalues --    1.33249   1.33431   1.34287   1.34340   1.35189
 Alpha virt. eigenvalues --    1.35452   1.36837   1.37120   1.37787   1.38079
 Alpha virt. eigenvalues --    1.38305   1.39689   1.39975   1.41423   1.42502
 Alpha virt. eigenvalues --    1.42833   1.43675   1.44309   1.45198   1.45299
 Alpha virt. eigenvalues --    1.46692   1.47791   1.48376   1.48916   1.49672
 Alpha virt. eigenvalues --    1.50024   1.50575   1.51314   1.52654   1.52960
 Alpha virt. eigenvalues --    1.54004   1.54353   1.54723   1.55586   1.55992
 Alpha virt. eigenvalues --    1.56649   1.57197   1.57915   1.59269   1.59652
 Alpha virt. eigenvalues --    1.60101   1.61126   1.61569   1.61751   1.62235
 Alpha virt. eigenvalues --    1.62679   1.63079   1.63697   1.64268   1.64708
 Alpha virt. eigenvalues --    1.65196   1.65675   1.66319   1.67169   1.67500
 Alpha virt. eigenvalues --    1.68236   1.68308   1.69358   1.69619   1.70075
 Alpha virt. eigenvalues --    1.71014   1.71597   1.71721   1.72200   1.72707
 Alpha virt. eigenvalues --    1.72998   1.73254   1.73983   1.74136   1.74323
 Alpha virt. eigenvalues --    1.74719   1.75238   1.75716   1.76026   1.76076
 Alpha virt. eigenvalues --    1.76927   1.77040   1.77423   1.77805   1.77907
 Alpha virt. eigenvalues --    1.78746   1.78818   1.79249   1.79640   1.79825
 Alpha virt. eigenvalues --    1.80971   1.81407   1.81476   1.81928   1.82558
 Alpha virt. eigenvalues --    1.82882   1.83208   1.83537   1.84023   1.84354
 Alpha virt. eigenvalues --    1.84907   1.85460   1.85594   1.86252   1.86693
 Alpha virt. eigenvalues --    1.86902   1.87030   1.87990   1.88028   1.88625
 Alpha virt. eigenvalues --    1.89065   1.89188   1.89692   1.90069   1.90284
 Alpha virt. eigenvalues --    1.91160   1.91313   1.91924   1.92495   1.92640
 Alpha virt. eigenvalues --    1.93015   1.93647   1.93787   1.95388   1.96021
 Alpha virt. eigenvalues --    1.96653   1.98001   1.98184   1.98668   1.99125
 Alpha virt. eigenvalues --    2.00255   2.00883   2.02039   2.02239   2.02785
 Alpha virt. eigenvalues --    2.03415   2.03728   2.04779   2.05103   2.05496
 Alpha virt. eigenvalues --    2.06712   2.07245   2.07714   2.08798   2.09078
 Alpha virt. eigenvalues --    2.09541   2.09645   2.10348   2.11458   2.12286
 Alpha virt. eigenvalues --    2.12723   2.12885   2.13577   2.14531   2.15359
 Alpha virt. eigenvalues --    2.16133   2.16789   2.17723   2.18823   2.19234
 Alpha virt. eigenvalues --    2.20312   2.20390   2.21334   2.21575   2.22106
 Alpha virt. eigenvalues --    2.23443   2.23858   2.24472   2.24865   2.25710
 Alpha virt. eigenvalues --    2.26375   2.26645   2.27135   2.27366   2.27782
 Alpha virt. eigenvalues --    2.27945   2.28236   2.29433   2.29802   2.30374
 Alpha virt. eigenvalues --    2.30525   2.32099   2.32776   2.33174   2.33434
 Alpha virt. eigenvalues --    2.34085   2.34417   2.34795   2.35303   2.35540
 Alpha virt. eigenvalues --    2.35947   2.36980   2.37116   2.37340   2.38514
 Alpha virt. eigenvalues --    2.39086   2.39921   2.40052   2.41436   2.41798
 Alpha virt. eigenvalues --    2.42711   2.43636   2.43929   2.44403   2.44881
 Alpha virt. eigenvalues --    2.45376   2.45765   2.46281   2.47280   2.47806
 Alpha virt. eigenvalues --    2.48555   2.49848   2.50482   2.52357   2.52819
 Alpha virt. eigenvalues --    2.53108   2.55515   2.56136   2.56562   2.57070
 Alpha virt. eigenvalues --    2.57471   2.57976   2.58803   2.60634   2.61008
 Alpha virt. eigenvalues --    2.62090   2.63024   2.63480   2.63831   2.64868
 Alpha virt. eigenvalues --    2.65503   2.66316   2.66641   2.67301   2.67982
 Alpha virt. eigenvalues --    2.68314   2.68754   2.69207   2.70143   2.71915
 Alpha virt. eigenvalues --    2.72111   2.72485   2.72851   2.73786   2.74067
 Alpha virt. eigenvalues --    2.74508   2.75124   2.76792   2.76895   2.78451
 Alpha virt. eigenvalues --    2.78607   2.79414   2.79523   2.80365   2.80618
 Alpha virt. eigenvalues --    2.80977   2.81466   2.81910   2.82363   2.82877
 Alpha virt. eigenvalues --    2.83147   2.83391   2.84129   2.84407   2.85638
 Alpha virt. eigenvalues --    2.85960   2.86731   2.86888   2.87690   2.88455
 Alpha virt. eigenvalues --    2.88748   2.89724   2.90278   2.94384   2.95270
 Alpha virt. eigenvalues --    2.95679   2.97653   2.98463   2.99529   2.99755
 Alpha virt. eigenvalues --    3.00500   3.02231   3.03255   3.05331   3.05803
 Alpha virt. eigenvalues --    3.07718   3.10361   3.11210   3.13800   3.14959
 Alpha virt. eigenvalues --    3.16295   3.17562   3.17949   3.19198   3.21314
 Alpha virt. eigenvalues --    3.22725   3.23012   3.23925   3.24510   3.28558
 Alpha virt. eigenvalues --    3.45388   3.47698   3.48354   3.49738   3.50896
 Alpha virt. eigenvalues --    3.53069   3.55207   3.56579   3.58325   3.60525
 Alpha virt. eigenvalues --    3.64107   3.70867   3.75602
          Condensed to atoms (all electrons):
 Mulliken charges:
               1
     1  N   -0.308572
     2  C    0.176066
     3  C    0.065030
     4  N   -0.247667
     5  C    0.124248
     6  H    0.028041
     7  N   -0.280756
     8  C    0.139022
     9  H    0.011998
    10  N   -0.288041
    11  C    0.224186
    12  C    0.084861
    13  N   -0.043385
    14  H    0.110449
    15  H    0.089262
    16  H    0.030305
    17  H    0.044233
    18  H    0.021944
    19  N   -0.284844
    20  C    0.228093
    21  C    0.198326
    22  N   -0.110245
    23  H    0.115712
    24  H    0.116338
    25  N   -0.297360
    26  C    0.220035
    27  N   -0.141470
    28  H    0.124928
    29  C    0.173433
    30  O   -0.323383
    31  C   -0.005310
    32  N   -0.216720
    33  C    0.121129
    34  H    0.017709
    35  H    0.000502
    36  H    0.029348
    37  H    0.018851
    38  H    0.040562
    39  H    0.059575
    40  H    0.073954
    41  H    0.026291
    42  C   -0.095180
    43  O   -0.268838
    44  C    0.166068
    45  H    0.133062
    46  N   -0.120010
    47  O   -0.333196
    48  C    0.328581
    49  H    0.041430
    50  C    0.170196
    51  C    0.044633
    52  N   -0.274194
    53  H    0.034213
    54  H    0.041790
    55  H    0.014219
    56  H    0.122924
    57  H    0.120002
    58  N   -0.054607
    59  C    0.110845
    60  C    0.208675
    61  N   -0.252844
    62  H    0.040514
    63  C    0.140541
    64  N   -0.300571
    65  H    0.035792
    66  C    0.111957
    67  N   -0.242634
    68  C    0.033387
    69  C    0.175803
    70  N   -0.299237
 Sum of Mulliken charges =  -0.00000
 Mulliken charges with hydrogens summed into heavy atoms:
               1
     1  N   -0.308572
     2  C    0.272548
     3  C    0.065030
     4  N   -0.247667
     5  C    0.152289
     7  N   -0.280756
     8  C    0.151020
    10  N   -0.288041
    11  C    0.224186
    12  C    0.084861
    13  N    0.156326
    19  N   -0.284844
    20  C    0.228093
    21  C    0.247026
    22  N    0.121806
    25  N   -0.297360
    26  C    0.220035
    27  N   -0.016541
    29  C    0.173433
    30  O   -0.323383
    31  C   -0.005310
    32  N   -0.216720
    33  C    0.138838
    42  C   -0.068890
    43  O   -0.268838
    44  C    0.166068
    46  N    0.013052
    47  O   -0.333196
    48  C    0.328581
    50  C    0.211626
    51  C    0.218725
    52  N   -0.274194
    58  N    0.188320
    59  C    0.110845
    60  C    0.208675
    61  N   -0.252844
    63  C    0.181056
    64  N   -0.300571
    66  C    0.147749
    67  N   -0.242634
    68  C    0.033387
    69  C    0.266025
    70  N   -0.299237
 Electronic spatial extent (au):  <R**2>=          21876.8943
 Charge=             -0.0000 electrons
 Dipole moment (field-independent basis, Debye):
    X=             -4.9524    Y=              5.7917    Z=             -5.0276  Tot=              9.1294
 Quadrupole moment (field-independent basis, Debye-Ang):
   XX=           -145.8181   YY=           -225.0885   ZZ=           -262.8818
   XY=            -13.0084   XZ=              9.0361   YZ=              5.3495
 Traceless Quadrupole moment (field-independent basis, Debye-Ang):
   XX=             65.4447   YY=            -13.8257   ZZ=            -51.6190
   XY=            -13.0084   XZ=              9.0361   YZ=              5.3495
 Octapole moment (field-independent basis, Debye-Ang**2):
  XXX=             83.0337  YYY=             25.4999  ZZZ=            -41.5592  XYY=            -50.2373
  XXY=             92.3329  XXZ=            -12.4282  XZZ=            -36.9900  YZZ=             55.8475
  YYZ=            -49.7506  XYZ=             28.4740
 Hexadecapole moment (field-independent basis, Debye-Ang**3):
 XXXX=         -16009.8267 YYYY=          -3579.6909 ZZZZ=          -3480.5499 XXXY=           -643.9201
 XXXZ=             96.3227 YYYX=             78.0361 YYYZ=            -43.9191 ZZZX=             96.5964
 ZZZY=             23.4975 XXYY=          -4043.0128 XXZZ=          -4032.0651 YYZZ=          -1298.0625
 XXYZ=            -66.2935 YYXZ=             96.3994 ZZXY=           -122.0168
 N-N= 5.638923166687D+03 E-N=-1.605842575320D+04  KE= 2.037898607608D+03
 No NMR shielding tensors so no spin-rotation constants.
 Leave Link  601 at Thu Jan 18 17:46:25 2018, MaxMem=  4294967296 cpu:              48.8 elap:               1.7
 (Enter /share/apps/g16/l9999.exe)
 1\1\GINC-COMPUTE-0-3\SP\RwB97XD\CC-pVDZ\C23H27N17O3\SATYA\18-Jan-2018\
 0\\#p wb97xd/cc-pvdz sp scf=(maxcycles=20)\\Base pair stacking\\0,1\N,
 0,0.82219,6.72048,-6.43701\C,0,0.54606,8.16514,-6.31567\C,0,0.61287,4.
 53134,-6.47123\N,0,1.93929,4.7992,-6.77715\C,0,2.01231,6.10735,-6.7442
 9\H,0,2.91797,6.68282,-6.93809\N,0,-1.41575,3.41174,-6.03063\C,0,-1.95
 703,4.6216,-5.8551\H,0,-3.01646,4.62483,-5.60241\N,0,-1.38878,5.82244,
 -5.94443\C,0,-0.08807,5.70572,-6.259\C,0,-0.10488,3.32794,-6.34636\N,0
 ,0.43725,2.12112,-6.52197\H,0,1.40379,2.01166,-6.7566\H,0,-0.10393,1.2
 8573,-6.42506\H,0,0.74443,8.61797,-7.18502\H,0,-0.41578,8.30285,-6.081
 08\H,0,1.12183,8.55757,-5.5984\N,0,-0.30408,5.43085,-3.13058\C,0,-0.92
 537,4.20794,-3.04961\C,0,-0.98594,6.73977,-3.08062\N,0,-3.82413,2.3223
 5,-2.72791\H,0,-4.0745,1.35541,-2.68832\H,0,-4.56891,2.98694,-2.66211\
 N,0,-2.25245,3.99829,-2.91192\C,0,-2.54728,2.71132,-2.86313\N,0,-1.615
 29,1.70506,-2.9429\H,0,-1.93178,0.74868,-2.89677\C,0,-0.24464,1.89757,
 -3.08476\O,0,0.51128,0.92011,-3.14709\C,0,0.08743,3.27514,-3.13866\N,0
 ,1.31975,3.89986,-3.27283\C,0,1.03886,5.1747,-3.26304\H,0,1.77605,5.97
 366,-3.34954\H,0,-0.8089,7.24218,-3.92622\H,0,-1.96957,6.59712,-2.9787
 5\H,0,-0.64422,7.26601,-2.30273\H,0,-4.20635,-3.78487,-3.25163\H,0,-3.
 78639,-3.89707,-1.54409\H,0,-4.14645,-2.32636,-2.26143\H,0,0.46187,-4.
 90584,-3.56431\C,0,-0.16641,-4.0405,-3.35293\O,0,1.57655,-2.46458,-3.6
 7805\C,0,0.40556,-2.72989,-3.40749\H,0,-0.1081,-0.76539,-3.15207\N,0,-
 0.47557,-1.70607,-3.1235\O,0,-2.50651,-0.85519,-2.56809\C,0,-1.80518,-
 1.82321,-2.80419\H,0,-1.9432,-5.16158,-2.9896\C,0,-1.46023,-4.18685,-3
 .04434\C,0,-3.69848,-3.29345,-2.43515\N,0,-2.28292,-3.11855,-2.77181\H
 ,0,-6.24989,-2.81617,-5.30499\H,0,-5.66246,-1.61127,-4.37481\H,0,-5.63
 682,-3.14954,-3.82971\H,0,0.841,-1.49473,-7.04817\H,0,0.14919,-3.05274
 ,-7.11215\N,0,0.05962,-2.08916,-6.85779\C,0,-1.05283,-1.6188,-6.28999\
 C,0,-3.25807,-1.78125,-5.4112\N,0,-3.35025,-0.48264,-5.08025\H,0,-2.21
 954,1.22469,-5.1648\C,0,-2.22963,0.16134,-5.40028\N,0,-1.11435,-0.3079
 7,-5.96901\H,0,-4.20131,-4.85878,-5.71329\C,0,-3.65647,-3.91437,-5.726
 6\N,0,-2.44245,-3.76098,-6.19597\C,0,-2.17767,-2.41302,-6.00207\C,0,-5
 .54664,-2.56841,-4.63862\N,0,-4.21035,-2.75717,-5.23586\\Version=EM64L
 -G16RevA.03\State=1-A\HF=-2048.7355484\RMSD=7.068e-09\Dipole=-3.438862
 ,-1.0361042,0.0415896\Quadrupole=-13.6559321,36.6562531,-23.000321,28.
 0581345,-17.3165822,-3.2785185\PG=C01 [X(C23H27N17O3)]\\@


 Until you make peace with who you are,
 you'll never be content with what you have.
                           -- Doris Mortman
 Job cpu time:       0 days  6 hours 39 minutes 57.8 seconds.
 Elapsed time:       0 days  0 hours 12 minutes 58.2 seconds.
 File lengths (MBytes):  RWF=    298 Int=      0 D2E=      0 Chk=     33 Scr=      1
 Normal termination of Gaussian 16 at Thu Jan 18 17:46:25 2018.
