 Entering Gaussian System, Link 0=g16
 Input=str15.-20.0.5.com
 Output=str15.-20.0.5.log
 Initial command:
 /share/apps/g16/l1.exe "/state/partition1/scr/Gau-32554.inp" -scrdir="/state/partition1/scr/"
 Entering Link 1 = /share/apps/g16/l1.exe PID=     32555.
  
 Copyright (c) 1988,1990,1992,1993,1995,1998,2003,2009,2016,
            Gaussian, Inc.  All Rights Reserved.
  
 This is part of the Gaussian(R) 16 program.  It is based on
 the Gaussian(R) 09 system (copyright 2009, Gaussian, Inc.),
 the Gaussian(R) 03 system (copyright 2003, Gaussian, Inc.),
 the Gaussian(R) 98 system (copyright 1998, Gaussian, Inc.),
 the Gaussian(R) 94 system (copyright 1995, Gaussian, Inc.),
 the Gaussian 92(TM) system (copyright 1992, Gaussian, Inc.),
 the Gaussian 90(TM) system (copyright 1990, Gaussian, Inc.),
 the Gaussian 88(TM) system (copyright 1988, Gaussian, Inc.),
 the Gaussian 86(TM) system (copyright 1986, Carnegie Mellon
 University), and the Gaussian 82(TM) system (copyright 1983,
 Carnegie Mellon University). Gaussian is a federally registered
 trademark of Gaussian, Inc.
  
 This software contains proprietary and confidential information,
 including trade secrets, belonging to Gaussian, Inc.
  
 This software is provided under written license and may be
 used, copied, transmitted, or stored only in accord with that
 written license.
  
 The following legend is applicable only to US Government
 contracts under FAR:
  
                    RESTRICTED RIGHTS LEGEND
  
 Use, reproduction and disclosure by the US Government is
 subject to restrictions as set forth in subparagraphs (a)
 and (c) of the Commercial Computer Software - Restricted
 Rights clause in FAR 52.227-19.
  
 Gaussian, Inc.
 340 Quinnipiac St., Bldg. 40, Wallingford CT 06492
  
  
 ---------------------------------------------------------------
 Warning -- This program may not be used in any manner that
 competes with the business of Gaussian, Inc. or will provide
 assistance to any competitor of Gaussian, Inc.  The licensee
 of this program is prohibited from giving any competitor of
 Gaussian, Inc. access to this program.  By using this program,
 the user acknowledges that Gaussian, Inc. is engaged in the
 business of creating and licensing software in the field of
 computational chemistry and represents and warrants to the
 licensee that it is not a competitor of Gaussian, Inc. and that
 it will not use this program in any manner prohibited above.
 ---------------------------------------------------------------
  

 Cite this work as:
 Gaussian 16, Revision A.03,
 M. J. Frisch, G. W. Trucks, H. B. Schlegel, G. E. Scuseria, 
 M. A. Robb, J. R. Cheeseman, G. Scalmani, V. Barone, 
 G. A. Petersson, H. Nakatsuji, X. Li, M. Caricato, A. V. Marenich, 
 J. Bloino, B. G. Janesko, R. Gomperts, B. Mennucci, H. P. Hratchian, 
 J. V. Ortiz, A. F. Izmaylov, J. L. Sonnenberg, D. Williams-Young, 
 F. Ding, F. Lipparini, F. Egidi, J. Goings, B. Peng, A. Petrone, 
 T. Henderson, D. Ranasinghe, V. G. Zakrzewski, J. Gao, N. Rega, 
 G. Zheng, W. Liang, M. Hada, M. Ehara, K. Toyota, R. Fukuda, 
 J. Hasegawa, M. Ishida, T. Nakajima, Y. Honda, O. Kitao, H. Nakai, 
 T. Vreven, K. Throssell, J. A. Montgomery, Jr., J. E. Peralta, 
 F. Ogliaro, M. J. Bearpark, J. J. Heyd, E. N. Brothers, K. N. Kudin, 
 V. N. Staroverov, T. A. Keith, R. Kobayashi, J. Normand, 
 K. Raghavachari, A. P. Rendell, J. C. Burant, S. S. Iyengar, 
 J. Tomasi, M. Cossi, J. M. Millam, M. Klene, C. Adamo, R. Cammi, 
 J. W. Ochterski, R. L. Martin, K. Morokuma, O. Farkas, 
 J. B. Foresman, and D. J. Fox, Gaussian, Inc., Wallingford CT, 2016.
 
 ******************************************
 Gaussian 16:  EM64L-G16RevA.03 25-Dec-2016
                19-Jan-2018 
 ******************************************
 %nprocshared=32
 Will use up to   32 processors via shared memory.
 %mem=32GB
 %chk=allatoms_t.chk
 ---------------------------------------
 #p wb97xd/cc-pvdz sp scf=(maxcycles=20)
 ---------------------------------------
 1/38=1,172=1/1;
 2/12=2,17=6,18=5,40=1/2;
 3/5=16,11=2,25=1,30=1,74=-58/1,2,3;
 4//1;
 5/5=2,7=20,38=5/2;
 6/7=2,8=2,9=2,10=2,28=1/1;
 99/5=1,9=1/99;
 Leave Link    1 at Fri Jan 19 02:49:15 2018, MaxMem=  4294967296 cpu:               2.7 elap:               0.1
 (Enter /share/apps/g16/l101.exe)
 ------------------
 Base pair stacking
 ------------------
 Symbolic Z-matrix:
 Charge =  0 Multiplicity = 1
 N                    -0.66575   4.9507   -6.05506 
 C                    -0.84176   6.38001  -5.73241 
 C                    -0.94411   2.77373  -6.19865 
 N                     0.21942   3.06307  -6.89664 
 C                     0.34056   4.36304  -6.78219 
 H                     1.15233   4.95033  -7.21237 
 N                    -2.75496   1.62641  -5.21506 
 C                    -3.17155   2.81795  -4.77431 
 H                    -4.0913    2.80244  -4.19115 
 N                    -2.62514   4.02012  -4.94497 
 C                    -1.5009    3.92722  -5.67427 
 C                    -1.62044   1.56637  -5.94605 
 N                    -1.20297   0.37787  -6.38691 
 H                    -0.36857   0.28627  -6.93153 
 H                    -1.70975  -0.46102  -6.18795 
 H                    -0.9215    6.90681  -6.57876 
 H                    -1.67083   6.49973  -5.18704 
 H                    -0.05253   6.70603  -5.21201 
 N                    -0.67482   4.44722  -2.95393 
 C                    -1.27943   3.22359  -2.79509 
 C                    -1.33149   5.75555  -2.75964 
 N                    -4.09048   1.33494  -2.02522 
 H                    -4.33537   0.36766  -1.96478 
 H                    -4.80975   1.99882  -1.81876 
 N                    -2.56466   3.01259  -2.43772 
 C                    -2.85342   1.72522  -2.36766 
 N                    -1.95382   0.71983  -2.62732 
 H                    -2.26268  -0.23695  -2.54892 
 C                    -0.62646   0.91373  -2.99661 
 O                     0.10278  -0.06304  -3.20844 
 C                    -0.30142   2.29175  -3.07606 
 N                     0.89316   2.91776  -3.40468 
 C                     0.62456   4.19241  -3.3191 
 H                     1.34027   4.99218  -3.51249 
 H                    -1.29865   6.27667  -3.6118 
 H                    -2.28407   5.6119   -2.49466 
 H                    -0.85947   6.26369  -2.04005 
 H                    -4.58754  -4.75845  -2.61022 
 H                    -3.88319  -4.90963  -1.00221 
 H                    -4.35226  -3.32269  -1.61292 
 H                    -0.04676  -5.87803  -3.7391 
 C                    -0.62538  -5.01688  -3.40468 
 O                     1.04465  -3.43626  -3.98759 
 C                    -0.0644   -3.7061   -3.52717 
 H                    -0.51697  -1.74721  -3.14476 
 N                    -0.87898  -2.68782  -3.07462 
 O                    -2.78113  -1.84708  -2.16238 
 C                    -2.13527  -2.81043  -2.53586 
 H                    -2.3199   -6.14359  -2.76837 
 C                    -1.84837  -5.1685   -2.88324 
 C                    -3.94541  -4.2862   -1.88172 
 N                    -2.60709  -4.10556  -2.45095 
 H                    -7.28799  -4.62529  -3.46857 
 H                    -6.39302  -3.50868  -2.68479 
 H                    -6.2409   -5.08897  -2.3058 
 H                    -1.10627  -3.17908  -7.31048 
 H                    -1.83049  -4.72318  -7.2733 
 N                    -1.80224  -3.78537  -6.92553 
 C                    -2.65523  -3.36307  -5.98999 
 C                    -4.46076  -3.59485  -4.45766 
 N                    -4.39955  -2.33003  -4.00942 
 H                    -3.30373  -0.6256   -4.31715 
 C                    -3.42326  -1.66411  -4.62286 
 N                    -2.56786  -2.08531  -5.56013 
 H                    -5.54801  -6.63084  -4.68752 
 C                    -5.00723  -5.6907   -4.79998 
 N                    -4.00656  -5.50066  -5.62473 
 C                    -3.65067  -4.17581  -5.41774 
 C                    -6.3993   -4.43932  -3.04947 
 N                    -5.33528  -4.57927  -4.06253 
 
 ITRead=  0  0  0  0  0  0  0  0  0  0  0  0  0  0  0  0  0  0  0  0
 ITRead=  0  0  0  0  0  0  0  0  0  0  0  0  0  0  0  0  0  0  0  0
 ITRead=  0  0  0  0  0  0  0  0  0  0  0  0  0  0  0  0  0  0  0  0
 ITRead=  0  0  0  0  0  0  0  0  0  0
 MicOpt= -1 -1 -1 -1 -1 -1 -1 -1 -1 -1 -1 -1 -1 -1 -1 -1 -1 -1 -1 -1
 MicOpt= -1 -1 -1 -1 -1 -1 -1 -1 -1 -1 -1 -1 -1 -1 -1 -1 -1 -1 -1 -1
 MicOpt= -1 -1 -1 -1 -1 -1 -1 -1 -1 -1 -1 -1 -1 -1 -1 -1 -1 -1 -1 -1
 MicOpt= -1 -1 -1 -1 -1 -1 -1 -1 -1 -1
 NAtoms=     70 NQM=       70 NQMF=       0 NMMI=      0 NMMIF=      0
                NMic=       0 NMicF=      0.
                    Isotopes and Nuclear Properties:
 (Nuclear quadrupole moments (NQMom) in fm**2, nuclear magnetic moments (NMagM)
  in nuclear magnetons)

  Atom         1           2           3           4           5           6           7           8           9          10
 IAtWgt=          14          12          12          14          12           1          14          12           1          14
 AtmWgt=  14.0030740  12.0000000  12.0000000  14.0030740  12.0000000   1.0078250  14.0030740  12.0000000   1.0078250  14.0030740
 NucSpn=           2           0           0           2           0           1           2           0           1           2
 AtZEff=  -0.0000000  -0.0000000  -0.0000000  -0.0000000  -0.0000000  -0.0000000  -0.0000000  -0.0000000  -0.0000000  -0.0000000
 NQMom=    2.0440000   0.0000000   0.0000000   2.0440000   0.0000000   0.0000000   2.0440000   0.0000000   0.0000000   2.0440000
 NMagM=    0.4037610   0.0000000   0.0000000   0.4037610   0.0000000   2.7928460   0.4037610   0.0000000   2.7928460   0.4037610
 AtZNuc=   7.0000000   6.0000000   6.0000000   7.0000000   6.0000000   1.0000000   7.0000000   6.0000000   1.0000000   7.0000000

  Atom        11          12          13          14          15          16          17          18          19          20
 IAtWgt=          12          12          14           1           1           1           1           1          14          12
 AtmWgt=  12.0000000  12.0000000  14.0030740   1.0078250   1.0078250   1.0078250   1.0078250   1.0078250  14.0030740  12.0000000
 NucSpn=           0           0           2           1           1           1           1           1           2           0
 AtZEff=  -0.0000000  -0.0000000  -0.0000000  -0.0000000  -0.0000000  -0.0000000  -0.0000000  -0.0000000  -0.0000000  -0.0000000
 NQMom=    0.0000000   0.0000000   2.0440000   0.0000000   0.0000000   0.0000000   0.0000000   0.0000000   2.0440000   0.0000000
 NMagM=    0.0000000   0.0000000   0.4037610   2.7928460   2.7928460   2.7928460   2.7928460   2.7928460   0.4037610   0.0000000
 AtZNuc=   6.0000000   6.0000000   7.0000000   1.0000000   1.0000000   1.0000000   1.0000000   1.0000000   7.0000000   6.0000000

  Atom        21          22          23          24          25          26          27          28          29          30
 IAtWgt=          12          14           1           1          14          12          14           1          12          16
 AtmWgt=  12.0000000  14.0030740   1.0078250   1.0078250  14.0030740  12.0000000  14.0030740   1.0078250  12.0000000  15.9949146
 NucSpn=           0           2           1           1           2           0           2           1           0           0
 AtZEff=  -0.0000000  -0.0000000  -0.0000000  -0.0000000  -0.0000000  -0.0000000  -0.0000000  -0.0000000  -0.0000000  -0.0000000
 NQMom=    0.0000000   2.0440000   0.0000000   0.0000000   2.0440000   0.0000000   2.0440000   0.0000000   0.0000000   0.0000000
 NMagM=    0.0000000   0.4037610   2.7928460   2.7928460   0.4037610   0.0000000   0.4037610   2.7928460   0.0000000   0.0000000
 AtZNuc=   6.0000000   7.0000000   1.0000000   1.0000000   7.0000000   6.0000000   7.0000000   1.0000000   6.0000000   8.0000000

  Atom        31          32          33          34          35          36          37          38          39          40
 IAtWgt=          12          14          12           1           1           1           1           1           1           1
 AtmWgt=  12.0000000  14.0030740  12.0000000   1.0078250   1.0078250   1.0078250   1.0078250   1.0078250   1.0078250   1.0078250
 NucSpn=           0           2           0           1           1           1           1           1           1           1
 AtZEff=  -0.0000000  -0.0000000  -0.0000000  -0.0000000  -0.0000000  -0.0000000  -0.0000000  -0.0000000  -0.0000000  -0.0000000
 NQMom=    0.0000000   2.0440000   0.0000000   0.0000000   0.0000000   0.0000000   0.0000000   0.0000000   0.0000000   0.0000000
 NMagM=    0.0000000   0.4037610   0.0000000   2.7928460   2.7928460   2.7928460   2.7928460   2.7928460   2.7928460   2.7928460
 AtZNuc=   6.0000000   7.0000000   6.0000000   1.0000000   1.0000000   1.0000000   1.0000000   1.0000000   1.0000000   1.0000000

  Atom        41          42          43          44          45          46          47          48          49          50
 IAtWgt=           1          12          16          12           1          14          16          12           1          12
 AtmWgt=   1.0078250  12.0000000  15.9949146  12.0000000   1.0078250  14.0030740  15.9949146  12.0000000   1.0078250  12.0000000
 NucSpn=           1           0           0           0           1           2           0           0           1           0
 AtZEff=  -0.0000000  -0.0000000  -0.0000000  -0.0000000  -0.0000000  -0.0000000  -0.0000000  -0.0000000  -0.0000000  -0.0000000
 NQMom=    0.0000000   0.0000000   0.0000000   0.0000000   0.0000000   2.0440000   0.0000000   0.0000000   0.0000000   0.0000000
 NMagM=    2.7928460   0.0000000   0.0000000   0.0000000   2.7928460   0.4037610   0.0000000   0.0000000   2.7928460   0.0000000
 AtZNuc=   1.0000000   6.0000000   8.0000000   6.0000000   1.0000000   7.0000000   8.0000000   6.0000000   1.0000000   6.0000000

  Atom        51          52          53          54          55          56          57          58          59          60
 IAtWgt=          12          14           1           1           1           1           1          14          12          12
 AtmWgt=  12.0000000  14.0030740   1.0078250   1.0078250   1.0078250   1.0078250   1.0078250  14.0030740  12.0000000  12.0000000
 NucSpn=           0           2           1           1           1           1           1           2           0           0
 AtZEff=  -0.0000000  -0.0000000  -0.0000000  -0.0000000  -0.0000000  -0.0000000  -0.0000000  -0.0000000  -0.0000000  -0.0000000
 NQMom=    0.0000000   2.0440000   0.0000000   0.0000000   0.0000000   0.0000000   0.0000000   2.0440000   0.0000000   0.0000000
 NMagM=    0.0000000   0.4037610   2.7928460   2.7928460   2.7928460   2.7928460   2.7928460   0.4037610   0.0000000   0.0000000
 AtZNuc=   6.0000000   7.0000000   1.0000000   1.0000000   1.0000000   1.0000000   1.0000000   7.0000000   6.0000000   6.0000000

  Atom        61          62          63          64          65          66          67          68          69          70
 IAtWgt=          14           1          12          14           1          12          14          12          12          14
 AtmWgt=  14.0030740   1.0078250  12.0000000  14.0030740   1.0078250  12.0000000  14.0030740  12.0000000  12.0000000  14.0030740
 NucSpn=           2           1           0           2           1           0           2           0           0           2
 AtZEff=  -0.0000000  -0.0000000  -0.0000000  -0.0000000  -0.0000000  -0.0000000  -0.0000000  -0.0000000  -0.0000000  -0.0000000
 NQMom=    2.0440000   0.0000000   0.0000000   2.0440000   0.0000000   0.0000000   2.0440000   0.0000000   0.0000000   2.0440000
 NMagM=    0.4037610   2.7928460   0.0000000   0.4037610   2.7928460   0.0000000   0.4037610   0.0000000   0.0000000   0.4037610
 AtZNuc=   7.0000000   1.0000000   6.0000000   7.0000000   1.0000000   6.0000000   7.0000000   6.0000000   6.0000000   7.0000000
 Leave Link  101 at Fri Jan 19 02:49:15 2018, MaxMem=  4294967296 cpu:               7.8 elap:               0.3
 (Enter /share/apps/g16/l202.exe)
 Stoichiometry    C23H27N17O3
 Framework group  C1[X(C23H27N17O3)]
 Deg. of freedom   204
 Full point group                 C1      NOp   1
 Largest Abelian subgroup         C1      NOp   1
 Largest concise Abelian subgroup C1      NOp   1
                         Standard orientation:                         
 ---------------------------------------------------------------------
 Center     Atomic      Atomic             Coordinates (Angstroms)
 Number     Number       Type             X           Y           Z
 ---------------------------------------------------------------------
      1          7           0        5.443079   -0.944546   -1.223355
      2          6           0        6.740294   -0.244626   -1.296538
      3          6           0        3.290511   -1.395833   -1.213905
      4          7           0        3.941078   -2.603211   -1.004834
      5          6           0        5.211890   -2.283003   -1.018887
      6          1           0        6.030936   -2.990023   -0.883896
      7          7           0        1.617646    0.238493   -1.519638
      8          6           0        2.611757    1.125573   -1.631030
      9          1           0        2.299494    2.154849   -1.802316
     10          7           0        3.927501    0.933006   -1.562926
     11          6           0        4.203213   -0.364392   -1.350403
     12          6           0        1.927816   -1.058924   -1.306115
     13          7           0        0.936870   -1.945925   -1.194642
     14          1           0        1.120042   -2.916796   -1.036273
     15          1           0       -0.021872   -1.670378   -1.265600
     16          1           0        7.282017   -0.621531   -2.047979
     17          1           0        6.585488    0.730123   -1.454705
     18          1           0        7.236095   -0.366435   -0.436693
     19          7           0        4.740658    1.007671    1.135890
     20          6           0        3.388961    1.227625    1.023685
     21          6           0        5.796978    1.927436    0.668011
     22          7           0        0.742169    3.231417    0.003384
     23          1           0       -0.256788    3.198737    0.019816
     24          1           0        1.162948    4.040285   -0.408185
     25          7           0        2.803398    2.312222    0.471585
     26          6           0        1.484960    2.235789    0.510226
     27          7           0        0.791115    1.178936    1.047953
     28          1           0       -0.216885    1.205661    1.034150
     29          6           0        1.372885    0.052580    1.621298
     30          8           0        0.655588   -0.845904    2.078413
     31          6           0        2.788920    0.120261    1.587129
     32          7           0        3.744669   -0.776857    2.043883
     33          6           0        4.884577   -0.209725    1.755486
     34          1           0        5.863721   -0.637576    1.973414
     35          1           0        6.365062    1.466464   -0.012876
     36          1           0        5.375166    2.734601    0.257138
     37          1           0        6.364771    2.206682    1.441607
     38          1           0       -5.191411    1.648551    0.079879
     39          1           0       -5.252667    2.192608    1.754665
     40          1           0       -3.820685    2.513403    0.775947
     41          1           0       -4.918258   -2.565194    2.385579
     42          6           0       -4.278302   -1.719329    2.134212
     43          8           0       -2.257831   -2.877829    2.584453
     44          6           0       -2.857854   -1.862446    2.232655
     45          1           0       -1.134740   -0.795328    1.949027
     46          7           0       -2.141494   -0.732861    1.891916
     47          8           0       -1.930715    1.419913    1.200298
     48          6           0       -2.647063    0.475082    1.481022
     49          1           0       -5.874612   -0.393321    1.645067
     50          6           0       -4.801154   -0.553586    1.736389
     51          6           0       -4.611182    1.805695    0.976931
     52          7           0       -4.025022    0.534665    1.411272
     53          1           0       -5.756653    2.997337   -2.350801
     54          1           0       -4.492654    3.177373   -1.334930
     55          1           0       -5.990384    2.925059   -0.737241
     56          1           0       -2.378060   -3.529623   -1.326417
     57          1           0       -4.061506   -3.388298   -1.563397
     58          7           0       -3.179837   -2.938641   -1.416092
     59          6           0       -3.078900   -1.609888   -1.342664
     60          6           0       -3.911926    0.618855   -1.364322
     61          7           0       -2.714920    1.195239   -1.165843
     62          1           0       -0.755303    0.653629   -0.906684
     63          6           0       -1.761825    0.270497   -1.069083
     64          7           0       -1.860915   -1.060820   -1.142357
     65          1           0       -7.106739    0.458678   -1.833036
     66          6           0       -6.047614    0.242754   -1.689565
     67          7           0       -5.528669   -0.960531   -1.667873
     68          6           0       -4.175063   -0.736380   -1.462362
     69          6           0       -5.360142    2.702855   -1.481285
     70          7           0       -5.126366    1.246002   -1.512022
 ---------------------------------------------------------------------
 Rotational constants (GHZ):           0.1863033           0.0530449           0.0519905
 Leave Link  202 at Fri Jan 19 02:49:15 2018, MaxMem=  4294967296 cpu:               0.3 elap:               0.0
 (Enter /share/apps/g16/l301.exe)
 Standard basis: CC-pVDZ (5D, 7F)
 Ernie: Thresh=  0.10000D-02 Tol=  0.10000D-05 Strict=F.
 Ernie:  86 primitive shells out of 1081 were deleted.
 There are   780 symmetry adapted cartesian basis functions of A   symmetry.
 There are   737 symmetry adapted basis functions of A   symmetry.
   737 basis functions,  1608 primitive gaussians,   780 cartesian basis functions
   154 alpha electrons      154 beta electrons
       nuclear repulsion energy      5699.4254591624 Hartrees.
 IExCor= 4639 DFT=T Ex+Corr=wB97XD ExCW=0 ScaHFX=  1.000000
 ScaDFX=  1.000000  1.000000  1.000000  1.000000 ScalE2=  1.000000  1.000000
 IRadAn=      5 IRanWt=     -1 IRanGd=            0 ICorTp=0 IEmpDi=121
 HFx  wShort=  0.000000 wLong=  0.200000 cFull=  0.222036 cShort=  0.000000 cLong=  0.777964
 DFx  wShort=  0.000000 wLong=  0.200000 cFull=  0.000000 cShort=  0.000000 cLong=  1.000000
 NAtoms=   70 NActive=   70 NUniq=   70 SFac= 1.00D+00 NAtFMM=   60 NAOKFM=T Big=T
 Integral buffers will be    131072 words long.
 Raffenetti 2 integral format.
 Two-electron integral symmetry is turned on.
 R6Disp:  Grimme-D2 Dispersion energy=       -0.0839792307 Hartrees.
 Nuclear repulsion after empirical dispersion term =     5699.3414799318 Hartrees.
 Leave Link  301 at Fri Jan 19 02:49:15 2018, MaxMem=  4294967296 cpu:               2.2 elap:               0.1
 (Enter /share/apps/g16/l302.exe)
 NPDir=0 NMtPBC=     1 NCelOv=     1 NCel=       1 NClECP=     1 NCelD=      1
         NCelK=      1 NCelE2=     1 NClLst=     1 CellRange=     0.0.
 One-electron integrals computed using PRISM.
 One-electron integral symmetry used in STVInt
 NBasis=   737 RedAO= T EigKep=  6.24D-04  NBF=   737
 NBsUse=   737 1.00D-06 EigRej= -1.00D+00 NBFU=   737
 Precomputing XC quadrature grid using
 IXCGrd= 4 IRadAn=           5 IRanWt=          -1 IRanGd=           0 AccXCQ= 0.00D+00.
 Generated NRdTot=       0 NPtTot=           0 NUsed=           0 NTot=          32
 NSgBfM=   771   771   771   771   771 MxSgAt=    70 MxSgA2=    70.
 Leave Link  302 at Fri Jan 19 02:49:19 2018, MaxMem=  4294967296 cpu:             134.3 elap:               4.2
 (Enter /share/apps/g16/l303.exe)
 DipDrv:  MaxL=1.
 Leave Link  303 at Fri Jan 19 02:49:20 2018, MaxMem=  4294967296 cpu:              13.7 elap:               0.5
 (Enter /share/apps/g16/l401.exe)
 ExpMin= 1.22D-01 ExpMax= 1.17D+04 ExpMxC= 4.01D+02 IAcc=3 IRadAn=         5 AccDes= 0.00D+00
 Harris functional with IExCor= 4639 and IRadAn=       5 diagonalized for initial guess.
 HarFok:  IExCor= 4639 AccDes= 0.00D+00 IRadAn=         5 IDoV= 1 UseB2=F ITyADJ=14
 ICtDFT=  3500011 ScaDFX=  1.000000  1.000000  1.000000  1.000000
 FoFCou: FMM=F IPFlag=           0 FMFlag=      100000 FMFlg1=        2001
         NFxFlg=           0 DoJE=T BraDBF=F KetDBF=T FulRan=T
         wScrn=  0.000000 ICntrl=       500 IOpCl=  0 I1Cent=   200000004 NGrid=           0
         NMat0=    1 NMatS0=      1 NMatT0=    0 NMatD0=    1 NMtDS0=    0 NMtDT0=    0
 Petite list used in FoFCou.
 Harris En= -1963.76493471327    
 JPrj=0 DoOrth=F DoCkMO=F.
 Leave Link  401 at Fri Jan 19 02:49:33 2018, MaxMem=  4294967296 cpu:             426.5 elap:              13.4
 (Enter /share/apps/g16/l502.exe)
 Integral symmetry usage will be decided dynamically.
 Closed shell SCF:
 Using DIIS extrapolation, IDIIS=  1040.
 NGot=  4294967296 LenX=  4293717438 LenY=  4293108258
 Requested convergence on RMS density matrix=1.00D-08 within  20 cycles.
 Requested convergence on MAX density matrix=1.00D-06.
 Requested convergence on             energy=1.00D-06.
 No special actions if energy rises.
 Fock matrices will be formed incrementally for  20 cycles.
 Integral accuracy reduced to 1.0D-05 until final iterations.

 Cycle   1  Pass 0  IDiag  1:
 FoFJK:  IHMeth= 1 ICntrl=       0 DoSepK=T KAlg= 0 I1Cent=           0 FoldK=F
 IRaf=         1 NMat=       1 IRICut=       1 DoRegI=T DoRafI=F ISym2E= 0 IDoP0=0 IntGTp=1.
 FoFCou: FMM=T IPFlag=           0 FMFlag=      100000 FMFlg1=        2001
         NFxFlg=           0 DoJE=T BraDBF=F KetDBF=F FulRan=T
         wScrn=  0.000000 ICntrl=       500 IOpCl=  0 I1Cent=           0 NGrid=           0
         NMat0=    1 NMatS0=      1 NMatT0=    0 NMatD0=    1 NMtDS0=    0 NMtDT0=    0
 Symmetry not used in FoFCou.
 FMM levels:  10  Number of levels for PrismC:   9
 E= -2048.22176309047    
 DIIS: error= 1.73D-02 at cycle   1 NSaved=   1.
 NSaved= 1 IEnMin= 1 EnMin= -2048.22176309047     IErMin= 1 ErrMin= 1.73D-02
 ErrMax= 1.73D-02  0.00D+00 EMaxC= 1.00D-01 BMatC= 8.38D-01 BMatP= 8.38D-01
 IDIUse=3 WtCom= 8.27D-01 WtEn= 1.73D-01
 Coeff-Com:  0.100D+01
 Coeff-En:   0.100D+01
 Coeff:      0.100D+01
 Gap=     0.252 Goal=   None    Shift=    0.000
 GapD=    0.252 DampG=1.000 DampE=0.500 DampFc=0.5000 IDamp=-1.
 Damping current iteration by 5.00D-01
 RMSDP=1.66D-03 MaxDP=1.28D-01              OVMax= 2.06D-01

 Cycle   2  Pass 0  IDiag  1:
 RMSU=  8.28D-04    CP:  9.97D-01
 E= -2048.41726307109     Delta-E=       -0.195499980620 Rises=F Damp=T
 DIIS: error= 8.39D-03 at cycle   2 NSaved=   2.
 NSaved= 2 IEnMin= 2 EnMin= -2048.41726307109     IErMin= 2 ErrMin= 8.39D-03
 ErrMax= 8.39D-03  0.00D+00 EMaxC= 1.00D-01 BMatC= 1.47D-01 BMatP= 8.38D-01
 IDIUse=3 WtCom= 9.16D-01 WtEn= 8.39D-02
 Coeff-Com: -0.178D+00 0.118D+01
 Coeff-En:   0.000D+00 0.100D+01
 Coeff:     -0.163D+00 0.116D+01
 Gap=     0.293 Goal=   None    Shift=    0.000
 RMSDP=6.35D-04 MaxDP=3.65D-02 DE=-1.95D-01 OVMax= 1.31D-01

 Cycle   3  Pass 0  IDiag  1:
 RMSU=  6.25D-04    CP:  9.93D-01  1.12D+00
 E= -2048.59225407109     Delta-E=       -0.174991000001 Rises=F Damp=F
 DIIS: error= 6.08D-03 at cycle   3 NSaved=   3.
 NSaved= 3 IEnMin= 3 EnMin= -2048.59225407109     IErMin= 3 ErrMin= 6.08D-03
 ErrMax= 6.08D-03  0.00D+00 EMaxC= 1.00D-01 BMatC= 7.52D-02 BMatP= 1.47D-01
 IDIUse=3 WtCom= 9.39D-01 WtEn= 6.08D-02
 Coeff-Com: -0.237D+00 0.571D+00 0.666D+00
 Coeff-En:   0.000D+00 0.000D+00 0.100D+01
 Coeff:     -0.222D+00 0.536D+00 0.687D+00
 Gap=     0.275 Goal=   None    Shift=    0.000
 RMSDP=4.02D-04 MaxDP=3.34D-02 DE=-1.75D-01 OVMax= 7.72D-02

 Cycle   4  Pass 0  IDiag  1:
 RMSU=  2.22D-04    CP:  9.93D-01  1.42D+00  6.47D-01
 E= -2048.64881072859     Delta-E=       -0.056556657495 Rises=F Damp=F
 DIIS: error= 2.69D-03 at cycle   4 NSaved=   4.
 NSaved= 4 IEnMin= 4 EnMin= -2048.64881072859     IErMin= 4 ErrMin= 2.69D-03
 ErrMax= 2.69D-03  0.00D+00 EMaxC= 1.00D-01 BMatC= 1.04D-02 BMatP= 7.52D-02
 IDIUse=3 WtCom= 9.73D-01 WtEn= 2.69D-02
 Coeff-Com: -0.101D+00 0.196D+00 0.371D+00 0.534D+00
 Coeff-En:   0.000D+00 0.000D+00 0.671D-01 0.933D+00
 Coeff:     -0.981D-01 0.190D+00 0.363D+00 0.545D+00
 Gap=     0.276 Goal=   None    Shift=    0.000
 RMSDP=1.39D-04 MaxDP=1.10D-02 DE=-5.66D-02 OVMax= 1.57D-02

 Cycle   5  Pass 0  IDiag  1:
 RMSU=  6.55D-05    CP:  9.92D-01  1.39D+00  7.82D-01  6.14D-01
 E= -2048.65748677996     Delta-E=       -0.008676051371 Rises=F Damp=F
 DIIS: error= 5.11D-04 at cycle   5 NSaved=   5.
 NSaved= 5 IEnMin= 5 EnMin= -2048.65748677996     IErMin= 5 ErrMin= 5.11D-04
 ErrMax= 5.11D-04  0.00D+00 EMaxC= 1.00D-01 BMatC= 3.32D-04 BMatP= 1.04D-02
 IDIUse=3 WtCom= 9.95D-01 WtEn= 5.11D-03
 Coeff-Com: -0.282D-01 0.491D-01 0.124D+00 0.244D+00 0.611D+00
 Coeff-En:   0.000D+00 0.000D+00 0.000D+00 0.000D+00 0.100D+01
 Coeff:     -0.281D-01 0.489D-01 0.123D+00 0.243D+00 0.613D+00
 Gap=     0.276 Goal=   None    Shift=    0.000
 RMSDP=2.99D-05 MaxDP=2.01D-03 DE=-8.68D-03 OVMax= 3.70D-03

 Failed to achieve initial convergence to 1.0D-08 in  6 cycles.
 Switch to full accuracy anyway.
 Cycle   6  Pass 1  IDiag  1:
 E= -2048.65758448568     Delta-E=       -0.000097705725 Rises=F Damp=F
 DIIS: error= 2.48D-04 at cycle   1 NSaved=   1.
 NSaved= 1 IEnMin= 1 EnMin= -2048.65758448568     IErMin= 1 ErrMin= 2.48D-04
 ErrMax= 2.48D-04  0.00D+00 EMaxC= 1.00D-01 BMatC= 8.66D-05 BMatP= 8.66D-05
 IDIUse=3 WtCom= 9.98D-01 WtEn= 2.48D-03
 Coeff-Com:  0.100D+01
 Coeff-En:   0.100D+01
 Coeff:      0.100D+01
 Gap=     0.276 Goal=   None    Shift=    0.000
 RMSDP=2.99D-05 MaxDP=2.01D-03 DE=-9.77D-05 OVMax= 2.90D-03

 Cycle   7  Pass 1  IDiag  1:
 RMSU=  1.26D-04    CP:  1.00D+00
 E= -2048.65763449263     Delta-E=       -0.000050006949 Rises=F Damp=F
 DIIS: error= 1.68D-04 at cycle   2 NSaved=   2.
 NSaved= 2 IEnMin= 2 EnMin= -2048.65763449263     IErMin= 2 ErrMin= 1.68D-04
 ErrMax= 1.68D-04  0.00D+00 EMaxC= 1.00D-01 BMatC= 5.95D-05 BMatP= 8.66D-05
 IDIUse=3 WtCom= 9.98D-01 WtEn= 1.68D-03
 Coeff-Com:  0.438D+00 0.562D+00
 Coeff-En:   0.169D+00 0.831D+00
 Coeff:      0.438D+00 0.562D+00
 Gap=     0.276 Goal=   None    Shift=    0.000
 RMSDP=1.41D-05 MaxDP=1.13D-03 DE=-5.00D-05 OVMax= 2.10D-03

 Cycle   8  Pass 1  IDiag  1:
 RMSU=  1.39D-05    CP:  1.00D+00  1.02D+00
 E= -2048.65768030547     Delta-E=       -0.000045812836 Rises=F Damp=F
 DIIS: error= 6.52D-05 at cycle   3 NSaved=   3.
 NSaved= 3 IEnMin= 3 EnMin= -2048.65768030547     IErMin= 3 ErrMin= 6.52D-05
 ErrMax= 6.52D-05  0.00D+00 EMaxC= 1.00D-01 BMatC= 1.13D-05 BMatP= 5.95D-05
 IDIUse=1 WtCom= 1.00D+00 WtEn= 0.00D+00
 Coeff-Com: -0.145D-01 0.290D+00 0.724D+00
 Coeff:     -0.145D-01 0.290D+00 0.724D+00
 Gap=     0.276 Goal=   None    Shift=    0.000
 RMSDP=6.46D-06 MaxDP=3.72D-04 DE=-4.58D-05 OVMax= 7.76D-04

 Cycle   9  Pass 1  IDiag  1:
 RMSU=  4.13D-06    CP:  1.00D+00  1.05D+00  7.64D-01
 E= -2048.65769162371     Delta-E=       -0.000011318240 Rises=F Damp=F
 DIIS: error= 2.16D-05 at cycle   4 NSaved=   4.
 NSaved= 4 IEnMin= 4 EnMin= -2048.65769162371     IErMin= 4 ErrMin= 2.16D-05
 ErrMax= 2.16D-05  0.00D+00 EMaxC= 1.00D-01 BMatC= 7.07D-07 BMatP= 1.13D-05
 IDIUse=1 WtCom= 1.00D+00 WtEn= 0.00D+00
 Coeff-Com: -0.307D-01 0.907D-01 0.303D+00 0.637D+00
 Coeff:     -0.307D-01 0.907D-01 0.303D+00 0.637D+00
 Gap=     0.276 Goal=   None    Shift=    0.000
 RMSDP=1.58D-06 MaxDP=1.10D-04 DE=-1.13D-05 OVMax= 4.32D-04

 Cycle  10  Pass 1  IDiag  1:
 RMSU=  1.44D-06    CP:  1.00D+00  1.05D+00  7.99D-01  1.06D+00
 E= -2048.65769263375     Delta-E=       -0.000001010038 Rises=F Damp=F
 DIIS: error= 1.16D-05 at cycle   5 NSaved=   5.
 NSaved= 5 IEnMin= 5 EnMin= -2048.65769263375     IErMin= 5 ErrMin= 1.16D-05
 ErrMax= 1.16D-05  0.00D+00 EMaxC= 1.00D-01 BMatC= 1.28D-07 BMatP= 7.07D-07
 IDIUse=1 WtCom= 1.00D+00 WtEn= 0.00D+00
 Coeff-Com: -0.556D-02-0.417D-01-0.865D-01 0.197D+00 0.936D+00
 Coeff:     -0.556D-02-0.417D-01-0.865D-01 0.197D+00 0.936D+00
 Gap=     0.276 Goal=   None    Shift=    0.000
 RMSDP=1.19D-06 MaxDP=7.06D-05 DE=-1.01D-06 OVMax= 2.89D-04

 Cycle  11  Pass 1  IDiag  1:
 RMSU=  5.29D-07    CP:  1.00D+00  1.05D+00  8.08D-01  1.31D+00  1.18D+00
 E= -2048.65769291055     Delta-E=       -0.000000276800 Rises=F Damp=F
 DIIS: error= 5.02D-06 at cycle   6 NSaved=   6.
 NSaved= 6 IEnMin= 6 EnMin= -2048.65769291055     IErMin= 6 ErrMin= 5.02D-06
 ErrMax= 5.02D-06  0.00D+00 EMaxC= 1.00D-01 BMatC= 3.75D-08 BMatP= 1.28D-07
 IDIUse=1 WtCom= 1.00D+00 WtEn= 0.00D+00
 Coeff-Com:  0.468D-02-0.443D-01-0.121D+00-0.266D-01 0.521D+00 0.666D+00
 Coeff:      0.468D-02-0.443D-01-0.121D+00-0.266D-01 0.521D+00 0.666D+00
 Gap=     0.276 Goal=   None    Shift=    0.000
 RMSDP=4.87D-07 MaxDP=3.57D-05 DE=-2.77D-07 OVMax= 1.43D-04

 Cycle  12  Pass 1  IDiag  1:
 RMSU=  2.18D-07    CP:  1.00D+00  1.05D+00  8.11D-01  1.39D+00  1.34D+00
                    CP:  9.41D-01
 E= -2048.65769296698     Delta-E=       -0.000000056432 Rises=F Damp=F
 DIIS: error= 9.45D-07 at cycle   7 NSaved=   7.
 NSaved= 7 IEnMin= 7 EnMin= -2048.65769296698     IErMin= 7 ErrMin= 9.45D-07
 ErrMax= 9.45D-07  0.00D+00 EMaxC= 1.00D-01 BMatC= 8.92D-10 BMatP= 3.75D-08
 IDIUse=1 WtCom= 1.00D+00 WtEn= 0.00D+00
 Coeff-Com:  0.141D-02-0.102D-01-0.287D-01-0.146D-01 0.948D-01 0.167D+00
 Coeff-Com:  0.790D+00
 Coeff:      0.141D-02-0.102D-01-0.287D-01-0.146D-01 0.948D-01 0.167D+00
 Coeff:      0.790D+00
 Gap=     0.276 Goal=   None    Shift=    0.000
 RMSDP=8.63D-08 MaxDP=5.48D-06 DE=-5.64D-08 OVMax= 2.71D-05

 Cycle  13  Pass 1  IDiag  1:
 RMSU=  5.71D-08    CP:  1.00D+00  1.05D+00  8.11D-01  1.40D+00  1.36D+00
                    CP:  1.02D+00  1.12D+00
 E= -2048.65769296863     Delta-E=       -0.000000001646 Rises=F Damp=F
 DIIS: error= 6.60D-07 at cycle   8 NSaved=   8.
 NSaved= 8 IEnMin= 8 EnMin= -2048.65769296863     IErMin= 8 ErrMin= 6.60D-07
 ErrMax= 6.60D-07  0.00D+00 EMaxC= 1.00D-01 BMatC= 3.94D-10 BMatP= 8.92D-10
 IDIUse=1 WtCom= 1.00D+00 WtEn= 0.00D+00
 Coeff-Com: -0.675D-03 0.794D-02 0.212D-01 0.155D-02-0.104D+00-0.116D+00
 Coeff-Com:  0.392D+00 0.797D+00
 Coeff:     -0.675D-03 0.794D-02 0.212D-01 0.155D-02-0.104D+00-0.116D+00
 Coeff:      0.392D+00 0.797D+00
 Gap=     0.276 Goal=   None    Shift=    0.000
 RMSDP=5.74D-08 MaxDP=3.20D-06 DE=-1.65D-09 OVMax= 1.36D-05

 Cycle  14  Pass 1  IDiag  1:
 RMSU=  3.25D-08    CP:  1.00D+00  1.05D+00  8.11D-01  1.40D+00  1.37D+00
                    CP:  1.06D+00  1.28D+00  1.04D+00
 E= -2048.65769296949     Delta-E=       -0.000000000868 Rises=F Damp=F
 DIIS: error= 1.49D-07 at cycle   9 NSaved=   9.
 NSaved= 9 IEnMin= 9 EnMin= -2048.65769296949     IErMin= 9 ErrMin= 1.49D-07
 ErrMax= 1.49D-07  0.00D+00 EMaxC= 1.00D-01 BMatC= 3.87D-11 BMatP= 3.94D-10
 IDIUse=1 WtCom= 1.00D+00 WtEn= 0.00D+00
 Coeff-Com: -0.441D-03 0.449D-02 0.122D-01 0.245D-02-0.529D-01-0.670D-01
 Coeff-Com:  0.919D-01 0.328D+00 0.681D+00
 Coeff:     -0.441D-03 0.449D-02 0.122D-01 0.245D-02-0.529D-01-0.670D-01
 Coeff:      0.919D-01 0.328D+00 0.681D+00
 Gap=     0.276 Goal=   None    Shift=    0.000
 RMSDP=1.48D-08 MaxDP=6.43D-07 DE=-8.68D-10 OVMax= 3.54D-06

 Cycle  15  Pass 1  IDiag  1:
 RMSU=  1.05D-08    CP:  1.00D+00  1.05D+00  8.11D-01  1.40D+00  1.37D+00
                    CP:  1.06D+00  1.31D+00  1.18D+00  1.08D+00
 E= -2048.65769296950     Delta-E=       -0.000000000004 Rises=F Damp=F
 DIIS: error= 7.99D-08 at cycle  10 NSaved=  10.
 NSaved=10 IEnMin=10 EnMin= -2048.65769296950     IErMin=10 ErrMin= 7.99D-08
 ErrMax= 7.99D-08  0.00D+00 EMaxC= 1.00D-01 BMatC= 6.45D-12 BMatP= 3.87D-11
 IDIUse=1 WtCom= 1.00D+00 WtEn= 0.00D+00
 Coeff-Com: -0.206D-04-0.103D-04 0.438D-04 0.268D-03 0.173D-02-0.139D-02
 Coeff-Com: -0.481D-01-0.558D-01 0.249D+00 0.854D+00
 Coeff:     -0.206D-04-0.103D-04 0.438D-04 0.268D-03 0.173D-02-0.139D-02
 Coeff:     -0.481D-01-0.558D-01 0.249D+00 0.854D+00
 Gap=     0.276 Goal=   None    Shift=    0.000
 RMSDP=8.22D-09 MaxDP=4.58D-07 DE=-3.64D-12 OVMax= 2.10D-06

 SCF Done:  E(RwB97XD) =  -2048.65769297     A.U. after   15 cycles
            NFock= 15  Conv=0.82D-08     -V/T= 2.0050
 KE= 2.038395732726D+03 PE=-1.617921079876D+04 EE= 6.392815893137D+03
 Leave Link  502 at Fri Jan 19 03:02:30 2018, MaxMem=  4294967296 cpu:           23903.4 elap:             776.7
 (Enter /share/apps/g16/l601.exe)
 Copying SCF densities to generalized density rwf, IOpCl= 0 IROHF=0.

 **********************************************************************

            Population analysis using the SCF density.

 **********************************************************************

 Orbital symmetries:
       Occupied  (A) (A) (A) (A) (A) (A) (A) (A) (A) (A) (A) (A)
                 (A) (A) (A) (A) (A) (A) (A) (A) (A) (A) (A) (A)
                 (A) (A) (A) (A) (A) (A) (A) (A) (A) (A) (A) (A)
                 (A) (A) (A) (A) (A) (A) (A) (A) (A) (A) (A) (A)
                 (A) (A) (A) (A) (A) (A) (A) (A) (A) (A) (A) (A)
                 (A) (A) (A) (A) (A) (A) (A) (A) (A) (A) (A) (A)
                 (A) (A) (A) (A) (A) (A) (A) (A) (A) (A) (A) (A)
                 (A) (A) (A) (A) (A) (A) (A) (A) (A) (A) (A) (A)
                 (A) (A) (A) (A) (A) (A) (A) (A) (A) (A) (A) (A)
                 (A) (A) (A) (A) (A) (A) (A) (A) (A) (A) (A) (A)
                 (A) (A) (A) (A) (A) (A) (A) (A) (A) (A) (A) (A)
                 (A) (A) (A) (A) (A) (A) (A) (A) (A) (A) (A) (A)
                 (A) (A) (A) (A) (A) (A) (A) (A) (A) (A)
       Virtual   (A) (A) (A) (A) (A) (A) (A) (A) (A) (A) (A) (A)
                 (A) (A) (A) (A) (A) (A) (A) (A) (A) (A) (A) (A)
                 (A) (A) (A) (A) (A) (A) (A) (A) (A) (A) (A) (A)
                 (A) (A) (A) (A) (A) (A) (A) (A) (A) (A) (A) (A)
                 (A) (A) (A) (A) (A) (A) (A) (A) (A) (A) (A) (A)
                 (A) (A) (A) (A) (A) (A) (A) (A) (A) (A) (A) (A)
                 (A) (A) (A) (A) (A) (A) (A) (A) (A) (A) (A) (A)
                 (A) (A) (A) (A) (A) (A) (A) (A) (A) (A) (A) (A)
                 (A) (A) (A) (A) (A) (A) (A) (A) (A) (A) (A) (A)
                 (A) (A) (A) (A) (A) (A) (A) (A) (A) (A) (A) (A)
                 (A) (A) (A) (A) (A) (A) (A) (A) (A) (A) (A) (A)
                 (A) (A) (A) (A) (A) (A) (A) (A) (A) (A) (A) (A)
                 (A) (A) (A) (A) (A) (A) (A) (A) (A) (A) (A) (A)
                 (A) (A) (A) (A) (A) (A) (A) (A) (A) (A) (A) (A)
                 (A) (A) (A) (A) (A) (A) (A) (A) (A) (A) (A) (A)
                 (A) (A) (A) (A) (A) (A) (A) (A) (A) (A) (A) (A)
                 (A) (A) (A) (A) (A) (A) (A) (A) (A) (A) (A) (A)
                 (A) (A) (A) (A) (A) (A) (A) (A) (A) (A) (A) (A)
                 (A) (A) (A) (A) (A) (A) (A) (A) (A) (A) (A) (A)
                 (A) (A) (A) (A) (A) (A) (A) (A) (A) (A) (A) (A)
                 (A) (A) (A) (A) (A) (A) (A) (A) (A) (A) (A) (A)
                 (A) (A) (A) (A) (A) (A) (A) (A) (A) (A) (A) (A)
                 (A) (A) (A) (A) (A) (A) (A) (A) (A) (A) (A) (A)
                 (A) (A) (A) (A) (A) (A) (A) (A) (A) (A) (A) (A)
                 (A) (A) (A) (A) (A) (A) (A) (A) (A) (A) (A) (A)
                 (A) (A) (A) (A) (A) (A) (A) (A) (A) (A) (A) (A)
                 (A) (A) (A) (A) (A) (A) (A) (A) (A) (A) (A) (A)
                 (A) (A) (A) (A) (A) (A) (A) (A) (A) (A) (A) (A)
                 (A) (A) (A) (A) (A) (A) (A) (A) (A) (A) (A) (A)
                 (A) (A) (A) (A) (A) (A) (A) (A) (A) (A) (A) (A)
                 (A) (A) (A) (A) (A) (A) (A) (A) (A) (A) (A) (A)
                 (A) (A) (A) (A) (A) (A) (A) (A) (A) (A) (A) (A)
                 (A) (A) (A) (A) (A) (A) (A) (A) (A) (A) (A) (A)
                 (A) (A) (A) (A) (A) (A) (A) (A) (A) (A) (A) (A)
                 (A) (A) (A) (A) (A) (A) (A) (A) (A) (A) (A) (A)
                 (A) (A) (A) (A) (A) (A) (A) (A) (A) (A) (A) (A)
                 (A) (A) (A) (A) (A) (A) (A) (A) (A) (A) (A) (A)
                 (A) (A) (A) (A) (A) (A) (A) (A) (A) (A) (A) (A)
                 (A) (A) (A) (A) (A) (A) (A) (A) (A) (A) (A) (A)
                 (A) (A) (A) (A) (A) (A) (A) (A) (A) (A) (A) (A)
                 (A) (A) (A) (A) (A) (A) (A) (A) (A) (A) (A) (A)
                 (A) (A) (A) (A) (A) (A) (A) (A) (A) (A) (A) (A)
                 (A) (A) (A) (A) (A) (A) (A) (A) (A) (A) (A) (A)
                 (A) (A) (A) (A) (A) (A) (A) (A) (A) (A) (A) (A)
                 (A) (A) (A) (A) (A) (A) (A) (A) (A) (A) (A) (A)
                 (A) (A) (A) (A) (A) (A) (A) (A) (A) (A) (A) (A)
                 (A) (A) (A) (A) (A) (A) (A) (A) (A) (A) (A) (A)
                 (A) (A) (A) (A) (A) (A) (A) (A) (A) (A) (A) (A)
                 (A) (A) (A) (A) (A) (A) (A)
 The electronic state is 1-A.
 Alpha  occ. eigenvalues --  -19.24856 -19.21340 -19.20626 -14.52844 -14.51674
 Alpha  occ. eigenvalues --  -14.49259 -14.48758 -14.48181 -14.47208 -14.46847
 Alpha  occ. eigenvalues --  -14.46567 -14.45825 -14.44681 -14.44389 -14.43168
 Alpha  occ. eigenvalues --  -14.41772 -14.41710 -14.41023 -14.40874 -14.40752
 Alpha  occ. eigenvalues --  -10.44547 -10.41013 -10.40110 -10.39455 -10.38386
 Alpha  occ. eigenvalues --  -10.38222 -10.37472 -10.37047 -10.36204 -10.36142
 Alpha  occ. eigenvalues --  -10.34746 -10.34351 -10.34248 -10.33768 -10.33589
 Alpha  occ. eigenvalues --  -10.33581 -10.32935 -10.32881 -10.32036 -10.30453
 Alpha  occ. eigenvalues --  -10.30436 -10.28777 -10.28238  -1.18920  -1.16140
 Alpha  occ. eigenvalues --   -1.13313  -1.12382  -1.11848  -1.10585  -1.09632
 Alpha  occ. eigenvalues --   -1.08726  -1.08573  -1.05719  -1.05096  -1.02068
 Alpha  occ. eigenvalues --   -1.01696  -1.01209  -0.99790  -0.98521  -0.97688
 Alpha  occ. eigenvalues --   -0.97199  -0.96573  -0.93411  -0.90336  -0.88294
 Alpha  occ. eigenvalues --   -0.86860  -0.85028  -0.83992  -0.83444  -0.82937
 Alpha  occ. eigenvalues --   -0.82159  -0.78242  -0.77469  -0.75315  -0.74666
 Alpha  occ. eigenvalues --   -0.73805  -0.73442  -0.72812  -0.71714  -0.70921
 Alpha  occ. eigenvalues --   -0.67579  -0.67259  -0.66939  -0.66409  -0.64922
 Alpha  occ. eigenvalues --   -0.64549  -0.64196  -0.63426  -0.62758  -0.62590
 Alpha  occ. eigenvalues --   -0.61838  -0.61359  -0.60926  -0.60037  -0.59244
 Alpha  occ. eigenvalues --   -0.59152  -0.58521  -0.58286  -0.57329  -0.56809
 Alpha  occ. eigenvalues --   -0.56141  -0.55740  -0.55431  -0.54782  -0.54239
 Alpha  occ. eigenvalues --   -0.53934  -0.53856  -0.53383  -0.53338  -0.52892
 Alpha  occ. eigenvalues --   -0.52177  -0.52060  -0.51257  -0.51177  -0.50757
 Alpha  occ. eigenvalues --   -0.50296  -0.49742  -0.49496  -0.49122  -0.48858
 Alpha  occ. eigenvalues --   -0.48486  -0.48089  -0.48034  -0.47890  -0.47011
 Alpha  occ. eigenvalues --   -0.46879  -0.46041  -0.45145  -0.44689  -0.42647
 Alpha  occ. eigenvalues --   -0.41472  -0.41219  -0.38887  -0.37835  -0.37701
 Alpha  occ. eigenvalues --   -0.37526  -0.37101  -0.36361  -0.36073  -0.35101
 Alpha  occ. eigenvalues --   -0.34884  -0.34538  -0.34027  -0.33477  -0.32871
 Alpha  occ. eigenvalues --   -0.32412  -0.31913  -0.31718  -0.31431  -0.31055
 Alpha  occ. eigenvalues --   -0.30736  -0.29617  -0.26877  -0.24662
 Alpha virt. eigenvalues --    0.02978   0.04185   0.06736   0.07384   0.08453
 Alpha virt. eigenvalues --    0.09012   0.09673   0.09890   0.11076   0.12788
 Alpha virt. eigenvalues --    0.13082   0.13439   0.13983   0.14534   0.14791
 Alpha virt. eigenvalues --    0.15067   0.16044   0.17418   0.17905   0.18219
 Alpha virt. eigenvalues --    0.18445   0.19093   0.19912   0.20266   0.20594
 Alpha virt. eigenvalues --    0.20677   0.20862   0.21087   0.21815   0.22003
 Alpha virt. eigenvalues --    0.22617   0.23174   0.23251   0.24027   0.24333
 Alpha virt. eigenvalues --    0.24472   0.25192   0.25328   0.25382   0.26093
 Alpha virt. eigenvalues --    0.27545   0.27655   0.27903   0.28554   0.28871
 Alpha virt. eigenvalues --    0.29210   0.29602   0.29795   0.30905   0.31037
 Alpha virt. eigenvalues --    0.31650   0.32090   0.32815   0.33179   0.33531
 Alpha virt. eigenvalues --    0.34139   0.35047   0.35189   0.35960   0.36559
 Alpha virt. eigenvalues --    0.36980   0.37200   0.37885   0.38474   0.38988
 Alpha virt. eigenvalues --    0.39338   0.40005   0.40875   0.41491   0.41961
 Alpha virt. eigenvalues --    0.42888   0.43122   0.43348   0.43906   0.44223
 Alpha virt. eigenvalues --    0.45483   0.46053   0.46618   0.47043   0.47191
 Alpha virt. eigenvalues --    0.47918   0.48413   0.49059   0.49363   0.49689
 Alpha virt. eigenvalues --    0.50097   0.50812   0.51350   0.51483   0.51805
 Alpha virt. eigenvalues --    0.52173   0.52719   0.53076   0.53941   0.54206
 Alpha virt. eigenvalues --    0.54306   0.55201   0.55734   0.55929   0.56195
 Alpha virt. eigenvalues --    0.56634   0.57164   0.57431   0.57584   0.57995
 Alpha virt. eigenvalues --    0.58512   0.58674   0.59153   0.59349   0.60054
 Alpha virt. eigenvalues --    0.60611   0.61149   0.61668   0.61847   0.62149
 Alpha virt. eigenvalues --    0.62387   0.62784   0.64118   0.64441   0.64782
 Alpha virt. eigenvalues --    0.65185   0.65775   0.66034   0.66155   0.66777
 Alpha virt. eigenvalues --    0.66907   0.67108   0.68138   0.68494   0.68739
 Alpha virt. eigenvalues --    0.69186   0.69827   0.70202   0.70599   0.71130
 Alpha virt. eigenvalues --    0.71378   0.71831   0.72068   0.72893   0.73092
 Alpha virt. eigenvalues --    0.73212   0.73395   0.73688   0.73796   0.74145
 Alpha virt. eigenvalues --    0.75130   0.75338   0.75880   0.76048   0.76171
 Alpha virt. eigenvalues --    0.76599   0.76875   0.77487   0.78041   0.78336
 Alpha virt. eigenvalues --    0.78899   0.79141   0.79338   0.79355   0.79853
 Alpha virt. eigenvalues --    0.80157   0.80306   0.80640   0.81384   0.81652
 Alpha virt. eigenvalues --    0.81795   0.82517   0.83068   0.83461   0.83615
 Alpha virt. eigenvalues --    0.83854   0.84911   0.85346   0.85722   0.86219
 Alpha virt. eigenvalues --    0.86734   0.86950   0.87551   0.87916   0.88314
 Alpha virt. eigenvalues --    0.88727   0.89173   0.89538   0.89906   0.90649
 Alpha virt. eigenvalues --    0.90754   0.91575   0.91882   0.92136   0.93032
 Alpha virt. eigenvalues --    0.94032   0.94600   0.95037   0.95216   0.95293
 Alpha virt. eigenvalues --    0.95831   0.95975   0.96805   0.97435   0.97881
 Alpha virt. eigenvalues --    0.98191   0.98489   0.99767   0.99975   1.00373
 Alpha virt. eigenvalues --    1.01172   1.01665   1.02163   1.02473   1.02830
 Alpha virt. eigenvalues --    1.03036   1.03424   1.04158   1.04410   1.04909
 Alpha virt. eigenvalues --    1.05007   1.05562   1.05974   1.06496   1.06997
 Alpha virt. eigenvalues --    1.08078   1.08498   1.09480   1.09685   1.10093
 Alpha virt. eigenvalues --    1.11084   1.11491   1.11769   1.12148   1.12730
 Alpha virt. eigenvalues --    1.13171   1.13647   1.13834   1.14202   1.14916
 Alpha virt. eigenvalues --    1.15622   1.16192   1.16508   1.16674   1.17201
 Alpha virt. eigenvalues --    1.17711   1.17962   1.18448   1.18965   1.19351
 Alpha virt. eigenvalues --    1.20110   1.20218   1.20905   1.21349   1.21866
 Alpha virt. eigenvalues --    1.22421   1.22852   1.23333   1.23505   1.24299
 Alpha virt. eigenvalues --    1.24713   1.25035   1.25538   1.25988   1.26354
 Alpha virt. eigenvalues --    1.26930   1.27399   1.28153   1.28528   1.29055
 Alpha virt. eigenvalues --    1.29624   1.30010   1.30319   1.31017   1.31509
 Alpha virt. eigenvalues --    1.31961   1.32401   1.32565   1.33447   1.33997
 Alpha virt. eigenvalues --    1.34596   1.34738   1.35104   1.36137   1.36693
 Alpha virt. eigenvalues --    1.37933   1.38046   1.38676   1.38908   1.39409
 Alpha virt. eigenvalues --    1.40770   1.41146   1.42330   1.43115   1.43801
 Alpha virt. eigenvalues --    1.44437   1.45934   1.46233   1.46468   1.48091
 Alpha virt. eigenvalues --    1.48776   1.49003   1.49648   1.50024   1.50663
 Alpha virt. eigenvalues --    1.51972   1.52628   1.53621   1.54620   1.54932
 Alpha virt. eigenvalues --    1.55780   1.56085   1.57299   1.57927   1.58436
 Alpha virt. eigenvalues --    1.59015   1.59574   1.60060   1.60452   1.61203
 Alpha virt. eigenvalues --    1.61379   1.62036   1.62460   1.63360   1.63458
 Alpha virt. eigenvalues --    1.63773   1.64915   1.65468   1.65745   1.66244
 Alpha virt. eigenvalues --    1.66299   1.66679   1.67643   1.68413   1.68959
 Alpha virt. eigenvalues --    1.69332   1.69593   1.70298   1.70435   1.70666
 Alpha virt. eigenvalues --    1.71378   1.71702   1.71796   1.72078   1.72847
 Alpha virt. eigenvalues --    1.73204   1.73634   1.74492   1.74663   1.75405
 Alpha virt. eigenvalues --    1.75529   1.75658   1.76135   1.76735   1.77283
 Alpha virt. eigenvalues --    1.77342   1.77688   1.78539   1.78638   1.78972
 Alpha virt. eigenvalues --    1.79236   1.79758   1.80173   1.80597   1.81152
 Alpha virt. eigenvalues --    1.81633   1.81893   1.83108   1.83237   1.83564
 Alpha virt. eigenvalues --    1.84295   1.84536   1.84958   1.85677   1.85787
 Alpha virt. eigenvalues --    1.86375   1.86490   1.87106   1.87223   1.87655
 Alpha virt. eigenvalues --    1.88200   1.88846   1.89468   1.89729   1.89832
 Alpha virt. eigenvalues --    1.90742   1.91146   1.91445   1.92000   1.92213
 Alpha virt. eigenvalues --    1.92923   1.93256   1.93353   1.94123   1.94487
 Alpha virt. eigenvalues --    1.94930   1.95506   1.95920   1.97330   1.97493
 Alpha virt. eigenvalues --    1.98285   1.98759   1.99014   1.99898   2.01005
 Alpha virt. eigenvalues --    2.02110   2.03039   2.03308   2.04203   2.04334
 Alpha virt. eigenvalues --    2.04894   2.05728   2.06504   2.07205   2.07638
 Alpha virt. eigenvalues --    2.08124   2.08903   2.09461   2.09637   2.10014
 Alpha virt. eigenvalues --    2.11225   2.11947   2.12324   2.13300   2.14087
 Alpha virt. eigenvalues --    2.14481   2.14860   2.15168   2.15648   2.16041
 Alpha virt. eigenvalues --    2.17409   2.18243   2.18763   2.19394   2.19759
 Alpha virt. eigenvalues --    2.20890   2.21870   2.22607   2.22910   2.23450
 Alpha virt. eigenvalues --    2.23966   2.24820   2.25063   2.25685   2.26537
 Alpha virt. eigenvalues --    2.27192   2.27753   2.28303   2.28805   2.29116
 Alpha virt. eigenvalues --    2.29543   2.30083   2.30879   2.31274   2.31838
 Alpha virt. eigenvalues --    2.32750   2.33080   2.33435   2.34487   2.35165
 Alpha virt. eigenvalues --    2.35360   2.35956   2.36086   2.36284   2.37345
 Alpha virt. eigenvalues --    2.37494   2.37832   2.38761   2.39699   2.40039
 Alpha virt. eigenvalues --    2.40709   2.41296   2.41629   2.42158   2.43793
 Alpha virt. eigenvalues --    2.44226   2.44456   2.44626   2.45057   2.45622
 Alpha virt. eigenvalues --    2.46201   2.46600   2.47542   2.48829   2.49517
 Alpha virt. eigenvalues --    2.49845   2.51312   2.52698   2.53163   2.53661
 Alpha virt. eigenvalues --    2.54290   2.55687   2.56585   2.57239   2.58512
 Alpha virt. eigenvalues --    2.59307   2.59703   2.60572   2.61927   2.62258
 Alpha virt. eigenvalues --    2.63453   2.64339   2.65333   2.65636   2.66298
 Alpha virt. eigenvalues --    2.66501   2.67170   2.67425   2.68082   2.68697
 Alpha virt. eigenvalues --    2.69433   2.70046   2.71287   2.71322   2.71993
 Alpha virt. eigenvalues --    2.72350   2.72882   2.74293   2.74665   2.75633
 Alpha virt. eigenvalues --    2.76401   2.76911   2.77016   2.78205   2.78799
 Alpha virt. eigenvalues --    2.80133   2.80491   2.80729   2.81432   2.81907
 Alpha virt. eigenvalues --    2.82064   2.82725   2.83004   2.83275   2.83732
 Alpha virt. eigenvalues --    2.83990   2.84713   2.85550   2.85631   2.86282
 Alpha virt. eigenvalues --    2.87001   2.87398   2.88112   2.89199   2.90662
 Alpha virt. eigenvalues --    2.92076   2.93641   2.94729   2.95431   2.96480
 Alpha virt. eigenvalues --    2.99456   2.99924   3.00584   3.01684   3.02847
 Alpha virt. eigenvalues --    3.03286   3.03770   3.04626   3.05821   3.08524
 Alpha virt. eigenvalues --    3.09655   3.11238   3.11565   3.14141   3.15611
 Alpha virt. eigenvalues --    3.16765   3.16876   3.17695   3.19977   3.21240
 Alpha virt. eigenvalues --    3.22296   3.23658   3.24533   3.24903   3.28448
 Alpha virt. eigenvalues --    3.44699   3.47860   3.48645   3.49687   3.51609
 Alpha virt. eigenvalues --    3.53425   3.55210   3.56854   3.59179   3.60959
 Alpha virt. eigenvalues --    3.64665   3.71475   3.76112
          Condensed to atoms (all electrons):
 Mulliken charges:
               1
     1  N   -0.301152
     2  C    0.194197
     3  C    0.084663
     4  N   -0.250409
     5  C    0.127382
     6  H    0.024367
     7  N   -0.276932
     8  C    0.139044
     9  H   -0.000048
    10  N   -0.277340
    11  C    0.207043
    12  C    0.068079
    13  N   -0.046789
    14  H    0.109947
    15  H    0.084991
    16  H    0.024103
    17  H    0.048941
    18  H    0.014755
    19  N   -0.274643
    20  C    0.206055
    21  C    0.213041
    22  N   -0.099838
    23  H    0.119312
    24  H    0.119179
    25  N   -0.269546
    26  C    0.184118
    27  N   -0.106417
    28  H    0.114921
    29  C    0.164097
    30  O   -0.319905
    31  C    0.019525
    32  N   -0.213622
    33  C    0.109257
    34  H    0.018029
    35  H   -0.043570
    36  H    0.034325
    37  H    0.022268
    38  H    0.068689
    39  H    0.044250
    40  H    0.074729
    41  H    0.025681
    42  C   -0.101697
    43  O   -0.268399
    44  C    0.170267
    45  H    0.128848
    46  N   -0.110323
    47  O   -0.332216
    48  C    0.320890
    49  H    0.043042
    50  C    0.167559
    51  C    0.023445
    52  N   -0.268413
    53  H    0.030963
    54  H    0.043252
    55  H    0.022721
    56  H    0.123067
    57  H    0.120725
    58  N   -0.062393
    59  C    0.105841
    60  C    0.168353
    61  N   -0.246636
    62  H    0.005435
    63  C    0.170907
    64  N   -0.294715
    65  H    0.036974
    66  C    0.117848
    67  N   -0.246972
    68  C    0.061080
    69  C    0.188027
    70  N   -0.302258
 Sum of Mulliken charges =  -0.00000
 Mulliken charges with hydrogens summed into heavy atoms:
               1
     1  N   -0.301152
     2  C    0.281996
     3  C    0.084663
     4  N   -0.250409
     5  C    0.151748
     7  N   -0.276932
     8  C    0.138996
    10  N   -0.277340
    11  C    0.207043
    12  C    0.068079
    13  N    0.148150
    19  N   -0.274643
    20  C    0.206055
    21  C    0.226063
    22  N    0.138653
    25  N   -0.269546
    26  C    0.184118
    27  N    0.008505
    29  C    0.164097
    30  O   -0.319905
    31  C    0.019525
    32  N   -0.213622
    33  C    0.127286
    42  C   -0.076016
    43  O   -0.268399
    44  C    0.170267
    46  N    0.018525
    47  O   -0.332216
    48  C    0.320890
    50  C    0.210601
    51  C    0.211114
    52  N   -0.268413
    58  N    0.181399
    59  C    0.105841
    60  C    0.168353
    61  N   -0.246636
    63  C    0.176342
    64  N   -0.294715
    66  C    0.154822
    67  N   -0.246972
    68  C    0.061080
    69  C    0.284963
    70  N   -0.302258
 Electronic spatial extent (au):  <R**2>=          21540.5243
 Charge=             -0.0000 electrons
 Dipole moment (field-independent basis, Debye):
    X=             -5.1862    Y=              6.7603    Z=             -4.6169  Tot=              9.6909
 Quadrupole moment (field-independent basis, Debye-Ang):
   XX=           -148.5403   YY=           -228.6705   ZZ=           -262.7521
   XY=             -9.8983   XZ=              0.7286   YZ=             12.5744
 Traceless Quadrupole moment (field-independent basis, Debye-Ang):
   XX=             64.7807   YY=            -15.3495   ZZ=            -49.4311
   XY=             -9.8983   XZ=              0.7286   YZ=             12.5744
 Octapole moment (field-independent basis, Debye-Ang**2):
  XXX=             87.4517  YYY=             55.6911  ZZZ=            -18.0246  XYY=            -76.5366
  XXY=            105.5899  XXZ=            -19.0929  XZZ=            -27.5438  YZZ=             39.3383
  YYZ=            -71.4072  XYZ=             21.0524
 Hexadecapole moment (field-independent basis, Debye-Ang**3):
 XXXX=         -16288.8135 YYYY=          -3440.5935 ZZZZ=          -3489.2848 XXXY=           -703.1171
 XXXZ=            -79.5600 YYYX=             68.9348 YYYZ=             89.8667 ZZZX=             -5.3976
 ZZZY=             63.3492 XXYY=          -3832.7298 XXZZ=          -4046.2370 YYZZ=          -1272.8677
 XXYZ=            -63.2535 YYXZ=            147.8728 ZZXY=            -53.2436
 N-N= 5.699341479932D+03 E-N=-1.617921078337D+04  KE= 2.038395732726D+03
 No NMR shielding tensors so no spin-rotation constants.
 Leave Link  601 at Fri Jan 19 03:02:32 2018, MaxMem=  4294967296 cpu:              49.8 elap:               1.7
 (Enter /share/apps/g16/l9999.exe)
 1\1\GINC-COMPUTE-0-3\SP\RwB97XD\CC-pVDZ\C23H27N17O3\SATYA\19-Jan-2018\
 0\\#p wb97xd/cc-pvdz sp scf=(maxcycles=20)\\Base pair stacking\\0,1\N,
 0,-0.66575,4.9507,-6.05506\C,0,-0.84176,6.38001,-5.73241\C,0,-0.94411,
 2.77373,-6.19865\N,0,0.21942,3.06307,-6.89664\C,0,0.34056,4.36304,-6.7
 8219\H,0,1.15233,4.95033,-7.21237\N,0,-2.75496,1.62641,-5.21506\C,0,-3
 .17155,2.81795,-4.77431\H,0,-4.0913,2.80244,-4.19115\N,0,-2.62514,4.02
 012,-4.94497\C,0,-1.5009,3.92722,-5.67427\C,0,-1.62044,1.56637,-5.9460
 5\N,0,-1.20297,0.37787,-6.38691\H,0,-0.36857,0.28627,-6.93153\H,0,-1.7
 0975,-0.46102,-6.18795\H,0,-0.9215,6.90681,-6.57876\H,0,-1.67083,6.499
 73,-5.18704\H,0,-0.05253,6.70603,-5.21201\N,0,-0.67482,4.44722,-2.9539
 3\C,0,-1.27943,3.22359,-2.79509\C,0,-1.33149,5.75555,-2.75964\N,0,-4.0
 9048,1.33494,-2.02522\H,0,-4.33537,0.36766,-1.96478\H,0,-4.80975,1.998
 82,-1.81876\N,0,-2.56466,3.01259,-2.43772\C,0,-2.85342,1.72522,-2.3676
 6\N,0,-1.95382,0.71983,-2.62732\H,0,-2.26268,-0.23695,-2.54892\C,0,-0.
 62646,0.91373,-2.99661\O,0,0.10278,-0.06304,-3.20844\C,0,-0.30142,2.29
 175,-3.07606\N,0,0.89316,2.91776,-3.40468\C,0,0.62456,4.19241,-3.3191\
 H,0,1.34027,4.99218,-3.51249\H,0,-1.29865,6.27667,-3.6118\H,0,-2.28407
 ,5.6119,-2.49466\H,0,-0.85947,6.26369,-2.04005\H,0,-4.58754,-4.75845,-
 2.61022\H,0,-3.88319,-4.90963,-1.00221\H,0,-4.35226,-3.32269,-1.61292\
 H,0,-0.04676,-5.87803,-3.7391\C,0,-0.62538,-5.01688,-3.40468\O,0,1.044
 65,-3.43626,-3.98759\C,0,-0.0644,-3.7061,-3.52717\H,0,-0.51697,-1.7472
 1,-3.14476\N,0,-0.87898,-2.68782,-3.07462\O,0,-2.78113,-1.84708,-2.162
 38\C,0,-2.13527,-2.81043,-2.53586\H,0,-2.3199,-6.14359,-2.76837\C,0,-1
 .84837,-5.1685,-2.88324\C,0,-3.94541,-4.2862,-1.88172\N,0,-2.60709,-4.
 10556,-2.45095\H,0,-7.28799,-4.62529,-3.46857\H,0,-6.39302,-3.50868,-2
 .68479\H,0,-6.2409,-5.08897,-2.3058\H,0,-1.10627,-3.17908,-7.31048\H,0
 ,-1.83049,-4.72318,-7.2733\N,0,-1.80224,-3.78537,-6.92553\C,0,-2.65523
 ,-3.36307,-5.98999\C,0,-4.46076,-3.59485,-4.45766\N,0,-4.39955,-2.3300
 3,-4.00942\H,0,-3.30373,-0.6256,-4.31715\C,0,-3.42326,-1.66411,-4.6228
 6\N,0,-2.56786,-2.08531,-5.56013\H,0,-5.54801,-6.63084,-4.68752\C,0,-5
 .00723,-5.6907,-4.79998\N,0,-4.00656,-5.50066,-5.62473\C,0,-3.65067,-4
 .17581,-5.41774\C,0,-6.3993,-4.43932,-3.04947\N,0,-5.33528,-4.57927,-4
 .06253\\Version=EM64L-G16RevA.03\State=1-A\HF=-2048.657693\RMSD=8.215e
 -09\Dipole=-3.6245836,-1.0328334,0.5763274\Quadrupole=-23.2861364,38.4
 064697,-15.1203333,25.3848069,-15.8865095,-4.7302441\PG=C01 [X(C23H27N
 17O3)]\\@


 If fifty million people say a stupid thing,
 it is still a stupid thing.
                   -- Anatole France
 Job cpu time:       0 days  6 hours 49 minutes  3.1 seconds.
 Elapsed time:       0 days  0 hours 13 minutes 17.2 seconds.
 File lengths (MBytes):  RWF=    298 Int=      0 D2E=      0 Chk=     33 Scr=      1
 Normal termination of Gaussian 16 at Fri Jan 19 03:02:32 2018.
