 Entering Gaussian System, Link 0=g16
 Input=str15.5.1.0.com
 Output=str15.5.1.0.log
 Initial command:
 /share/apps/g16/l1.exe "/state/partition1/scr/Gau-30624.inp" -scrdir="/state/partition1/scr/"
 Entering Link 1 = /share/apps/g16/l1.exe PID=     30625.
  
 Copyright (c) 1988,1990,1992,1993,1995,1998,2003,2009,2016,
            Gaussian, Inc.  All Rights Reserved.
  
 This is part of the Gaussian(R) 16 program.  It is based on
 the Gaussian(R) 09 system (copyright 2009, Gaussian, Inc.),
 the Gaussian(R) 03 system (copyright 2003, Gaussian, Inc.),
 the Gaussian(R) 98 system (copyright 1998, Gaussian, Inc.),
 the Gaussian(R) 94 system (copyright 1995, Gaussian, Inc.),
 the Gaussian 92(TM) system (copyright 1992, Gaussian, Inc.),
 the Gaussian 90(TM) system (copyright 1990, Gaussian, Inc.),
 the Gaussian 88(TM) system (copyright 1988, Gaussian, Inc.),
 the Gaussian 86(TM) system (copyright 1986, Carnegie Mellon
 University), and the Gaussian 82(TM) system (copyright 1983,
 Carnegie Mellon University). Gaussian is a federally registered
 trademark of Gaussian, Inc.
  
 This software contains proprietary and confidential information,
 including trade secrets, belonging to Gaussian, Inc.
  
 This software is provided under written license and may be
 used, copied, transmitted, or stored only in accord with that
 written license.
  
 The following legend is applicable only to US Government
 contracts under FAR:
  
                    RESTRICTED RIGHTS LEGEND
  
 Use, reproduction and disclosure by the US Government is
 subject to restrictions as set forth in subparagraphs (a)
 and (c) of the Commercial Computer Software - Restricted
 Rights clause in FAR 52.227-19.
  
 Gaussian, Inc.
 340 Quinnipiac St., Bldg. 40, Wallingford CT 06492
  
  
 ---------------------------------------------------------------
 Warning -- This program may not be used in any manner that
 competes with the business of Gaussian, Inc. or will provide
 assistance to any competitor of Gaussian, Inc.  The licensee
 of this program is prohibited from giving any competitor of
 Gaussian, Inc. access to this program.  By using this program,
 the user acknowledges that Gaussian, Inc. is engaged in the
 business of creating and licensing software in the field of
 computational chemistry and represents and warrants to the
 licensee that it is not a competitor of Gaussian, Inc. and that
 it will not use this program in any manner prohibited above.
 ---------------------------------------------------------------
  

 Cite this work as:
 Gaussian 16, Revision A.03,
 M. J. Frisch, G. W. Trucks, H. B. Schlegel, G. E. Scuseria, 
 M. A. Robb, J. R. Cheeseman, G. Scalmani, V. Barone, 
 G. A. Petersson, H. Nakatsuji, X. Li, M. Caricato, A. V. Marenich, 
 J. Bloino, B. G. Janesko, R. Gomperts, B. Mennucci, H. P. Hratchian, 
 J. V. Ortiz, A. F. Izmaylov, J. L. Sonnenberg, D. Williams-Young, 
 F. Ding, F. Lipparini, F. Egidi, J. Goings, B. Peng, A. Petrone, 
 T. Henderson, D. Ranasinghe, V. G. Zakrzewski, J. Gao, N. Rega, 
 G. Zheng, W. Liang, M. Hada, M. Ehara, K. Toyota, R. Fukuda, 
 J. Hasegawa, M. Ishida, T. Nakajima, Y. Honda, O. Kitao, H. Nakai, 
 T. Vreven, K. Throssell, J. A. Montgomery, Jr., J. E. Peralta, 
 F. Ogliaro, M. J. Bearpark, J. J. Heyd, E. N. Brothers, K. N. Kudin, 
 V. N. Staroverov, T. A. Keith, R. Kobayashi, J. Normand, 
 K. Raghavachari, A. P. Rendell, J. C. Burant, S. S. Iyengar, 
 J. Tomasi, M. Cossi, J. M. Millam, M. Klene, C. Adamo, R. Cammi, 
 J. W. Ochterski, R. L. Martin, K. Morokuma, O. Farkas, 
 J. B. Foresman, and D. J. Fox, Gaussian, Inc., Wallingford CT, 2016.
 
 ******************************************
 Gaussian 16:  EM64L-G16RevA.03 25-Dec-2016
                19-Jan-2018 
 ******************************************
 %nprocshared=32
 Will use up to   32 processors via shared memory.
 %mem=32GB
 %chk=allatoms_t.chk
 ---------------------------------------
 #p wb97xd/cc-pvdz sp scf=(maxcycles=20)
 ---------------------------------------
 1/38=1,172=1/1;
 2/12=2,17=6,18=5,40=1/2;
 3/5=16,11=2,25=1,30=1,74=-58/1,2,3;
 4//1;
 5/5=2,7=20,38=5/2;
 6/7=2,8=2,9=2,10=2,28=1/1;
 99/5=1,9=1/99;
 Leave Link    1 at Fri Jan 19 08:24:19 2018, MaxMem=  4294967296 cpu:               2.7 elap:               0.1
 (Enter /share/apps/g16/l101.exe)
 ------------------
 Base pair stacking
 ------------------
 Symbolic Z-matrix:
 Charge =  0 Multiplicity = 1
 N                     1.72967   3.62427  -6.44506 
 C                     1.47026   5.06157  -6.65693 
 C                     1.4996    1.44233  -6.29165 
 N                     2.81908   1.7175   -5.96305 
 C                     2.90488   3.02102  -6.06863 
 H                     3.8098    3.59995  -5.8818 
 N                    -0.52564   0.31432  -6.72634 
 C                    -1.05067   1.51608  -6.98656 
 H                    -2.10235   1.51263  -7.26978 
 N                    -0.47433   2.71582  -6.94962 
 C                     0.81572   2.60773  -6.59112 
 C                     0.77482   0.2391   -6.36827 
 N                     1.30072  -0.95961  -6.10811 
 H                     2.2591   -1.06257  -5.83953 
 H                     0.75498  -1.79515  -6.17275 
 H                     2.07068   5.40728  -7.37814 
 H                     0.51683   5.19269  -6.92694 
 H                     1.64694   5.56271  -5.8098 
 N                    -0.07086   3.94379  -3.33009 
 C                    -0.69683   2.7212   -3.36866 
 C                    -0.73818   5.25024  -3.49918 
 N                    -3.58906   0.83301  -3.73129 
 H                    -3.84483  -0.13331  -3.72416 
 H                    -4.32364   1.49571  -3.8794 
 N                    -2.01607   2.50966  -3.56592 
 C                    -2.31837   1.22359  -3.55044 
 N                    -1.40044   0.21989  -3.35675 
 H                    -1.72178  -0.73598  -3.36046 
 C                    -0.03807   0.41437  -3.15186 
 O                     0.70525  -0.56085  -2.98705 
 C                     0.30187   1.791    -3.16586 
 N                     1.53011   2.41702  -3.00324 
 C                     1.26067   3.69005  -3.10807 
 H                     1.99856   4.48934  -3.03113 
 H                    -0.3501    5.72495  -4.28839 
 H                    -1.71591   5.10618  -3.646 
 H                    -0.60354   5.80391  -2.67812 
 H                    -3.84809  -5.29015  -4.12928 
 H                    -3.87651  -5.34305  -2.3683 
 H                    -4.03655  -3.79904  -3.20602 
 H                     0.74204  -6.39767  -3.20695 
 C                     0.08386  -5.52888  -3.19147 
 O                     1.85801  -3.95606  -3.11558 
 C                     0.65574  -4.218    -3.14286 
 H                     0.10128  -2.24864  -3.09265 
 N                    -0.26485  -3.18965  -3.12683 
 O                    -2.36711  -2.3308   -3.13496 
 C                    -1.63238  -3.30267  -3.1523 
 H                    -1.73104  -6.64602  -3.25433 
 C                    -1.24643  -5.67128  -3.21722 
 C                    -3.56271  -4.76916  -3.22751 
 N                    -2.10743  -4.59857  -3.19889 
 H                    -5.29886  -5.94358  -7.58505 
 H                    -5.18999  -4.60962  -6.65188 
 H                    -5.47019  -6.06423  -5.96656 
 H                     1.803    -4.59581  -5.90794 
 H                     1.18069  -6.17358  -6.0909 
 N                     1.00846  -5.18941  -6.03631 
 C                    -0.22629  -4.69175  -6.13063 
 C                    -2.58785  -4.82181  -6.39115 
 N                    -2.78924  -3.49593  -6.31435 
 H                    -1.70613  -1.77297  -6.07168 
 C                    -1.63335  -2.85727  -6.14426 
 N                    -0.39563  -3.35391  -6.04954 
 H                    -3.36135  -7.94521  -6.70464 
 C                    -2.84901  -6.99085  -6.57953 
 N                    -1.55397  -6.85402  -6.43182 
 C                    -1.37491  -5.48357  -6.3113 
 C                    -4.98999  -5.58763  -6.70306 
 N                    -3.53639  -5.80173  -6.56449 
 
 ITRead=  0  0  0  0  0  0  0  0  0  0  0  0  0  0  0  0  0  0  0  0
 ITRead=  0  0  0  0  0  0  0  0  0  0  0  0  0  0  0  0  0  0  0  0
 ITRead=  0  0  0  0  0  0  0  0  0  0  0  0  0  0  0  0  0  0  0  0
 ITRead=  0  0  0  0  0  0  0  0  0  0
 MicOpt= -1 -1 -1 -1 -1 -1 -1 -1 -1 -1 -1 -1 -1 -1 -1 -1 -1 -1 -1 -1
 MicOpt= -1 -1 -1 -1 -1 -1 -1 -1 -1 -1 -1 -1 -1 -1 -1 -1 -1 -1 -1 -1
 MicOpt= -1 -1 -1 -1 -1 -1 -1 -1 -1 -1 -1 -1 -1 -1 -1 -1 -1 -1 -1 -1
 MicOpt= -1 -1 -1 -1 -1 -1 -1 -1 -1 -1
 NAtoms=     70 NQM=       70 NQMF=       0 NMMI=      0 NMMIF=      0
                NMic=       0 NMicF=      0.
                    Isotopes and Nuclear Properties:
 (Nuclear quadrupole moments (NQMom) in fm**2, nuclear magnetic moments (NMagM)
  in nuclear magnetons)

  Atom         1           2           3           4           5           6           7           8           9          10
 IAtWgt=          14          12          12          14          12           1          14          12           1          14
 AtmWgt=  14.0030740  12.0000000  12.0000000  14.0030740  12.0000000   1.0078250  14.0030740  12.0000000   1.0078250  14.0030740
 NucSpn=           2           0           0           2           0           1           2           0           1           2
 AtZEff=  -0.0000000  -0.0000000  -0.0000000  -0.0000000  -0.0000000  -0.0000000  -0.0000000  -0.0000000  -0.0000000  -0.0000000
 NQMom=    2.0440000   0.0000000   0.0000000   2.0440000   0.0000000   0.0000000   2.0440000   0.0000000   0.0000000   2.0440000
 NMagM=    0.4037610   0.0000000   0.0000000   0.4037610   0.0000000   2.7928460   0.4037610   0.0000000   2.7928460   0.4037610
 AtZNuc=   7.0000000   6.0000000   6.0000000   7.0000000   6.0000000   1.0000000   7.0000000   6.0000000   1.0000000   7.0000000

  Atom        11          12          13          14          15          16          17          18          19          20
 IAtWgt=          12          12          14           1           1           1           1           1          14          12
 AtmWgt=  12.0000000  12.0000000  14.0030740   1.0078250   1.0078250   1.0078250   1.0078250   1.0078250  14.0030740  12.0000000
 NucSpn=           0           0           2           1           1           1           1           1           2           0
 AtZEff=  -0.0000000  -0.0000000  -0.0000000  -0.0000000  -0.0000000  -0.0000000  -0.0000000  -0.0000000  -0.0000000  -0.0000000
 NQMom=    0.0000000   0.0000000   2.0440000   0.0000000   0.0000000   0.0000000   0.0000000   0.0000000   2.0440000   0.0000000
 NMagM=    0.0000000   0.0000000   0.4037610   2.7928460   2.7928460   2.7928460   2.7928460   2.7928460   0.4037610   0.0000000
 AtZNuc=   6.0000000   6.0000000   7.0000000   1.0000000   1.0000000   1.0000000   1.0000000   1.0000000   7.0000000   6.0000000

  Atom        21          22          23          24          25          26          27          28          29          30
 IAtWgt=          12          14           1           1          14          12          14           1          12          16
 AtmWgt=  12.0000000  14.0030740   1.0078250   1.0078250  14.0030740  12.0000000  14.0030740   1.0078250  12.0000000  15.9949146
 NucSpn=           0           2           1           1           2           0           2           1           0           0
 AtZEff=  -0.0000000  -0.0000000  -0.0000000  -0.0000000  -0.0000000  -0.0000000  -0.0000000  -0.0000000  -0.0000000  -0.0000000
 NQMom=    0.0000000   2.0440000   0.0000000   0.0000000   2.0440000   0.0000000   2.0440000   0.0000000   0.0000000   0.0000000
 NMagM=    0.0000000   0.4037610   2.7928460   2.7928460   0.4037610   0.0000000   0.4037610   2.7928460   0.0000000   0.0000000
 AtZNuc=   6.0000000   7.0000000   1.0000000   1.0000000   7.0000000   6.0000000   7.0000000   1.0000000   6.0000000   8.0000000

  Atom        31          32          33          34          35          36          37          38          39          40
 IAtWgt=          12          14          12           1           1           1           1           1           1           1
 AtmWgt=  12.0000000  14.0030740  12.0000000   1.0078250   1.0078250   1.0078250   1.0078250   1.0078250   1.0078250   1.0078250
 NucSpn=           0           2           0           1           1           1           1           1           1           1
 AtZEff=  -0.0000000  -0.0000000  -0.0000000  -0.0000000  -0.0000000  -0.0000000  -0.0000000  -0.0000000  -0.0000000  -0.0000000
 NQMom=    0.0000000   2.0440000   0.0000000   0.0000000   0.0000000   0.0000000   0.0000000   0.0000000   0.0000000   0.0000000
 NMagM=    0.0000000   0.4037610   0.0000000   2.7928460   2.7928460   2.7928460   2.7928460   2.7928460   2.7928460   2.7928460
 AtZNuc=   6.0000000   7.0000000   6.0000000   1.0000000   1.0000000   1.0000000   1.0000000   1.0000000   1.0000000   1.0000000

  Atom        41          42          43          44          45          46          47          48          49          50
 IAtWgt=           1          12          16          12           1          14          16          12           1          12
 AtmWgt=   1.0078250  12.0000000  15.9949146  12.0000000   1.0078250  14.0030740  15.9949146  12.0000000   1.0078250  12.0000000
 NucSpn=           1           0           0           0           1           2           0           0           1           0
 AtZEff=  -0.0000000  -0.0000000  -0.0000000  -0.0000000  -0.0000000  -0.0000000  -0.0000000  -0.0000000  -0.0000000  -0.0000000
 NQMom=    0.0000000   0.0000000   0.0000000   0.0000000   0.0000000   2.0440000   0.0000000   0.0000000   0.0000000   0.0000000
 NMagM=    2.7928460   0.0000000   0.0000000   0.0000000   2.7928460   0.4037610   0.0000000   0.0000000   2.7928460   0.0000000
 AtZNuc=   1.0000000   6.0000000   8.0000000   6.0000000   1.0000000   7.0000000   8.0000000   6.0000000   1.0000000   6.0000000

  Atom        51          52          53          54          55          56          57          58          59          60
 IAtWgt=          12          14           1           1           1           1           1          14          12          12
 AtmWgt=  12.0000000  14.0030740   1.0078250   1.0078250   1.0078250   1.0078250   1.0078250  14.0030740  12.0000000  12.0000000
 NucSpn=           0           2           1           1           1           1           1           2           0           0
 AtZEff=  -0.0000000  -0.0000000  -0.0000000  -0.0000000  -0.0000000  -0.0000000  -0.0000000  -0.0000000  -0.0000000  -0.0000000
 NQMom=    0.0000000   2.0440000   0.0000000   0.0000000   0.0000000   0.0000000   0.0000000   2.0440000   0.0000000   0.0000000
 NMagM=    0.0000000   0.4037610   2.7928460   2.7928460   2.7928460   2.7928460   2.7928460   0.4037610   0.0000000   0.0000000
 AtZNuc=   6.0000000   7.0000000   1.0000000   1.0000000   1.0000000   1.0000000   1.0000000   7.0000000   6.0000000   6.0000000

  Atom        61          62          63          64          65          66          67          68          69          70
 IAtWgt=          14           1          12          14           1          12          14          12          12          14
 AtmWgt=  14.0030740   1.0078250  12.0000000  14.0030740   1.0078250  12.0000000  14.0030740  12.0000000  12.0000000  14.0030740
 NucSpn=           2           1           0           2           1           0           2           0           0           2
 AtZEff=  -0.0000000  -0.0000000  -0.0000000  -0.0000000  -0.0000000  -0.0000000  -0.0000000  -0.0000000  -0.0000000  -0.0000000
 NQMom=    2.0440000   0.0000000   0.0000000   2.0440000   0.0000000   0.0000000   2.0440000   0.0000000   0.0000000   2.0440000
 NMagM=    0.4037610   2.7928460   0.0000000   0.4037610   2.7928460   0.0000000   0.4037610   0.0000000   0.0000000   0.4037610
 AtZNuc=   7.0000000   1.0000000   6.0000000   7.0000000   1.0000000   6.0000000   7.0000000   6.0000000   6.0000000   7.0000000
 Leave Link  101 at Fri Jan 19 08:24:19 2018, MaxMem=  4294967296 cpu:               7.8 elap:               0.3
 (Enter /share/apps/g16/l202.exe)
 Stoichiometry    C23H27N17O3
 Framework group  C1[X(C23H27N17O3)]
 Deg. of freedom   204
 Full point group                 C1      NOp   1
 Largest Abelian subgroup         C1      NOp   1
 Largest concise Abelian subgroup C1      NOp   1
                         Standard orientation:                         
 ---------------------------------------------------------------------
 Center     Atomic      Atomic             Coordinates (Angstroms)
 Number     Number       Type             X           Y           Z
 ---------------------------------------------------------------------
      1          7           0        5.138928   -1.723585   -0.998509
      2          6           0        6.432881   -1.308058   -1.573867
      3          6           0        2.989578   -1.940558   -0.585537
      4          7           0        3.643349   -2.769204    0.314825
      5          6           0        4.912083   -2.605325    0.029987
      6          1           0        5.732633   -3.107527    0.543247
      7          7           0        1.313067   -0.788218   -1.779013
      8          6           0        2.303589   -0.236387   -2.487494
      9          1           0        1.988403    0.460645   -3.262775
     10          7           0        3.618817   -0.415474   -2.382556
     11          6           0        3.898310   -1.289520   -1.401556
     12          6           0        1.626998   -1.663598   -0.799101
     13          7           0        0.639643   -2.215486   -0.090787
     14          1           0        0.825666   -2.868647    0.644062
     15          1           0       -0.319138   -1.995002   -0.270406
     16          1           0        6.910925   -2.108626   -1.935429
     17          1           0        6.275185   -0.653401   -2.312570
     18          1           0        6.993020   -0.879519   -0.864935
     19          7           0        5.037009    1.496459    0.634883
     20          6           0        3.685601    1.709751    0.507387
     21          6           0        6.090087    2.236314   -0.089244
     22          7           0        1.035003    3.433699   -0.929306
     23          1           0        0.036803    3.429192   -0.876196
     24          1           0        1.453272    4.095858   -1.551649
     25          7           0        3.097412    2.623686   -0.294368
     26          6           0        1.780064    2.590089   -0.199156
     27          7           0        1.089611    1.728177    0.618100
     28          1           0        0.082209    1.773208    0.626629
     29          6           0        1.674121    0.779657    1.451475
     30          8           0        0.959785    0.049799    2.149883
     31          6           0        3.089017    0.803774    1.360085
     32          7           0        4.046627    0.037139    2.009835
     33          6           0        5.184204    0.482263    1.549427
     34          1           0        6.163886    0.104789    1.844390
     35          1           0        6.628267    1.599529   -0.640311
     36          1           0        5.666315    2.916158   -0.686316
     37          1           0        6.687527    2.696455    0.566618
     38          1           0       -4.914737    2.062030   -0.267716
     39          1           0       -4.911811    3.029166    1.205137
     40          1           0       -3.509115    3.048295    0.135822
     41          1           0       -4.624677   -1.400872    3.059559
     42          6           0       -3.981458   -0.665816    2.575618
     43          8           0       -1.963819   -1.710433    3.257559
     44          6           0       -2.560712   -0.810175    2.667589
     45          1           0       -0.832970    0.105160    2.063108
     46          7           0       -1.840076    0.173231    2.020407
     47          8           0       -1.621820    2.062521    0.779386
     48          6           0       -2.341800    1.241489    1.319937
     49          1           0       -5.574138    0.520477    1.799801
     50          6           0       -4.500623    0.365585    1.899386
     51          6           0       -4.302472    2.436642    0.539041
     52          7           0       -3.720334    1.311881    1.276460
     53          1           0       -6.077907    1.215101   -3.789619
     54          1           0       -4.737002    1.930957   -3.196634
     55          1           0       -6.185862    2.205495   -2.496991
     56          1           0       -2.689893   -3.324333    1.004179
     57          1           0       -4.385309   -3.271583    0.822834
     58          7           0       -3.490745   -2.883042    0.599170
     59          6           0       -3.372183   -1.823499   -0.203626
     60          6           0       -4.183861   -0.081771   -1.606948
     61          7           0       -2.969789    0.418633   -1.889856
     62          1           0       -1.000992    0.057562   -1.449315
     63          6           0       -2.020590   -0.282547   -1.273197
     64          7           0       -2.137309   -1.344051   -0.468734
     65          1           0       -7.406822   -0.322109   -1.690438
     66          6           0       -6.341770   -0.456229   -1.499064
     67          7           0       -5.833782   -1.394126   -0.737509
     68          6           0       -4.466278   -1.168101   -0.797223
     69          6           0       -5.617576    1.523155   -2.957029
     70          7           0       -5.400312    0.373659   -2.057336
 ---------------------------------------------------------------------
 Rotational constants (GHZ):           0.1681834           0.0518769           0.0508321
 Leave Link  202 at Fri Jan 19 08:24:19 2018, MaxMem=  4294967296 cpu:               0.4 elap:               0.0
 (Enter /share/apps/g16/l301.exe)
 Standard basis: CC-pVDZ (5D, 7F)
 Ernie: Thresh=  0.10000D-02 Tol=  0.10000D-05 Strict=F.
 Ernie:  86 primitive shells out of 1081 were deleted.
 There are   780 symmetry adapted cartesian basis functions of A   symmetry.
 There are   737 symmetry adapted basis functions of A   symmetry.
   737 basis functions,  1608 primitive gaussians,   780 cartesian basis functions
   154 alpha electrons      154 beta electrons
       nuclear repulsion energy      5569.8352461846 Hartrees.
 IExCor= 4639 DFT=T Ex+Corr=wB97XD ExCW=0 ScaHFX=  1.000000
 ScaDFX=  1.000000  1.000000  1.000000  1.000000 ScalE2=  1.000000  1.000000
 IRadAn=      5 IRanWt=     -1 IRanGd=            0 ICorTp=0 IEmpDi=121
 HFx  wShort=  0.000000 wLong=  0.200000 cFull=  0.222036 cShort=  0.000000 cLong=  0.777964
 DFx  wShort=  0.000000 wLong=  0.200000 cFull=  0.000000 cShort=  0.000000 cLong=  1.000000
 NAtoms=   70 NActive=   70 NUniq=   70 SFac= 1.00D+00 NAtFMM=   60 NAOKFM=T Big=T
 Integral buffers will be    131072 words long.
 Raffenetti 2 integral format.
 Two-electron integral symmetry is turned on.
 R6Disp:  Grimme-D2 Dispersion energy=       -0.0769150089 Hartrees.
 Nuclear repulsion after empirical dispersion term =     5569.7583311757 Hartrees.
 Leave Link  301 at Fri Jan 19 08:24:20 2018, MaxMem=  4294967296 cpu:               3.0 elap:               0.1
 (Enter /share/apps/g16/l302.exe)
 NPDir=0 NMtPBC=     1 NCelOv=     1 NCel=       1 NClECP=     1 NCelD=      1
         NCelK=      1 NCelE2=     1 NClLst=     1 CellRange=     0.0.
 One-electron integrals computed using PRISM.
 One-electron integral symmetry used in STVInt
 NBasis=   737 RedAO= T EigKep=  6.36D-04  NBF=   737
 NBsUse=   737 1.00D-06 EigRej= -1.00D+00 NBFU=   737
 Precomputing XC quadrature grid using
 IXCGrd= 4 IRadAn=           5 IRanWt=          -1 IRanGd=           0 AccXCQ= 0.00D+00.
 Generated NRdTot=       0 NPtTot=           0 NUsed=           0 NTot=          32
 NSgBfM=   766   763   763   766   766 MxSgAt=    70 MxSgA2=    70.
 Leave Link  302 at Fri Jan 19 08:24:24 2018, MaxMem=  4294967296 cpu:             139.6 elap:               4.4
 (Enter /share/apps/g16/l303.exe)
 DipDrv:  MaxL=1.
 Leave Link  303 at Fri Jan 19 08:24:25 2018, MaxMem=  4294967296 cpu:              12.6 elap:               0.4
 (Enter /share/apps/g16/l401.exe)
 ExpMin= 1.22D-01 ExpMax= 1.17D+04 ExpMxC= 4.01D+02 IAcc=3 IRadAn=         5 AccDes= 0.00D+00
 Harris functional with IExCor= 4639 and IRadAn=       5 diagonalized for initial guess.
 HarFok:  IExCor= 4639 AccDes= 0.00D+00 IRadAn=         5 IDoV= 1 UseB2=F ITyADJ=14
 ICtDFT=  3500011 ScaDFX=  1.000000  1.000000  1.000000  1.000000
 FoFCou: FMM=F IPFlag=           0 FMFlag=      100000 FMFlg1=        2001
         NFxFlg=           0 DoJE=T BraDBF=F KetDBF=T FulRan=T
         wScrn=  0.000000 ICntrl=       500 IOpCl=  0 I1Cent=   200000004 NGrid=           0
         NMat0=    1 NMatS0=      1 NMatT0=    0 NMatD0=    1 NMtDS0=    0 NMtDT0=    0
 Petite list used in FoFCou.
 Harris En= -1963.88598093198    
 JPrj=0 DoOrth=F DoCkMO=F.
 Leave Link  401 at Fri Jan 19 08:24:37 2018, MaxMem=  4294967296 cpu:             409.1 elap:              12.8
 (Enter /share/apps/g16/l502.exe)
 Integral symmetry usage will be decided dynamically.
 Closed shell SCF:
 Using DIIS extrapolation, IDIIS=  1040.
 NGot=  4294967296 LenX=  4293717438 LenY=  4293108258
 Requested convergence on RMS density matrix=1.00D-08 within  20 cycles.
 Requested convergence on MAX density matrix=1.00D-06.
 Requested convergence on             energy=1.00D-06.
 No special actions if energy rises.
 Fock matrices will be formed incrementally for  20 cycles.
 Integral accuracy reduced to 1.0D-05 until final iterations.

 Cycle   1  Pass 0  IDiag  1:
 FoFJK:  IHMeth= 1 ICntrl=       0 DoSepK=T KAlg= 0 I1Cent=           0 FoldK=F
 IRaf=         1 NMat=       1 IRICut=       1 DoRegI=T DoRafI=F ISym2E= 0 IDoP0=0 IntGTp=1.
 FoFCou: FMM=T IPFlag=           0 FMFlag=      100000 FMFlg1=        2001
         NFxFlg=           0 DoJE=T BraDBF=F KetDBF=F FulRan=T
         wScrn=  0.000000 ICntrl=       500 IOpCl=  0 I1Cent=           0 NGrid=           0
         NMat0=    1 NMatS0=      1 NMatT0=    0 NMatD0=    1 NMtDS0=    0 NMtDT0=    0
 Symmetry not used in FoFCou.
 FMM levels:  10  Number of levels for PrismC:   9
 E= -2048.31833629173    
 DIIS: error= 2.28D-02 at cycle   1 NSaved=   1.
 NSaved= 1 IEnMin= 1 EnMin= -2048.31833629173     IErMin= 1 ErrMin= 2.28D-02
 ErrMax= 2.28D-02  0.00D+00 EMaxC= 1.00D-01 BMatC= 8.34D-01 BMatP= 8.34D-01
 IDIUse=3 WtCom= 7.72D-01 WtEn= 2.28D-01
 Coeff-Com:  0.100D+01
 Coeff-En:   0.100D+01
 Coeff:      0.100D+01
 Gap=     0.259 Goal=   None    Shift=    0.000
 GapD=    0.259 DampG=1.000 DampE=0.500 DampFc=0.5000 IDamp=-1.
 Damping current iteration by 5.00D-01
 RMSDP=1.59D-03 MaxDP=1.16D-01              OVMax= 1.84D-01

 Cycle   2  Pass 0  IDiag  1:
 RMSU=  7.94D-04    CP:  9.98D-01
 E= -2048.51371616015     Delta-E=       -0.195379868417 Rises=F Damp=T
 DIIS: error= 1.25D-02 at cycle   2 NSaved=   2.
 NSaved= 2 IEnMin= 2 EnMin= -2048.51371616015     IErMin= 2 ErrMin= 1.25D-02
 ErrMax= 1.25D-02  0.00D+00 EMaxC= 1.00D-01 BMatC= 1.46D-01 BMatP= 8.34D-01
 IDIUse=3 WtCom= 8.75D-01 WtEn= 1.25D-01
 Coeff-Com: -0.189D+00 0.119D+01
 Coeff-En:   0.000D+00 0.100D+01
 Coeff:     -0.165D+00 0.117D+01
 Gap=     0.326 Goal=   None    Shift=    0.000
 RMSDP=5.98D-04 MaxDP=3.21D-02 DE=-1.95D-01 OVMax= 1.48D-01

 Cycle   3  Pass 0  IDiag  1:
 RMSU=  5.89D-04    CP:  9.94D-01  1.12D+00
 E= -2048.69046707728     Delta-E=       -0.176750917133 Rises=F Damp=F
 DIIS: error= 7.38D-03 at cycle   3 NSaved=   3.
 NSaved= 3 IEnMin= 3 EnMin= -2048.69046707728     IErMin= 3 ErrMin= 7.38D-03
 ErrMax= 7.38D-03  0.00D+00 EMaxC= 1.00D-01 BMatC= 6.79D-02 BMatP= 1.46D-01
 IDIUse=3 WtCom= 9.26D-01 WtEn= 7.38D-02
 Coeff-Com: -0.233D+00 0.558D+00 0.675D+00
 Coeff-En:   0.000D+00 0.000D+00 0.100D+01
 Coeff:     -0.216D+00 0.517D+00 0.699D+00
 Gap=     0.280 Goal=   None    Shift=    0.000
 RMSDP=3.80D-04 MaxDP=2.76D-02 DE=-1.77D-01 OVMax= 7.20D-02

 Cycle   4  Pass 0  IDiag  1:
 RMSU=  2.12D-04    CP:  9.94D-01  1.42D+00  6.49D-01
 E= -2048.74149349973     Delta-E=       -0.051026422443 Rises=F Damp=F
 DIIS: error= 2.57D-03 at cycle   4 NSaved=   4.
 NSaved= 4 IEnMin= 4 EnMin= -2048.74149349973     IErMin= 4 ErrMin= 2.57D-03
 ErrMax= 2.57D-03  0.00D+00 EMaxC= 1.00D-01 BMatC= 1.00D-02 BMatP= 6.79D-02
 IDIUse=3 WtCom= 9.74D-01 WtEn= 2.57D-02
 Coeff-Com: -0.964D-01 0.187D+00 0.377D+00 0.533D+00
 Coeff-En:   0.000D+00 0.000D+00 0.775D-01 0.922D+00
 Coeff:     -0.940D-01 0.182D+00 0.369D+00 0.543D+00
 Gap=     0.283 Goal=   None    Shift=    0.000
 RMSDP=1.33D-04 MaxDP=1.03D-02 DE=-5.10D-02 OVMax= 1.52D-02

 Cycle   5  Pass 0  IDiag  1:
 RMSU=  6.16D-05    CP:  9.94D-01  1.39D+00  7.88D-01  6.20D-01
 E= -2048.74988597073     Delta-E=       -0.008392471003 Rises=F Damp=F
 DIIS: error= 5.29D-04 at cycle   5 NSaved=   5.
 NSaved= 5 IEnMin= 5 EnMin= -2048.74988597073     IErMin= 5 ErrMin= 5.29D-04
 ErrMax= 5.29D-04  0.00D+00 EMaxC= 1.00D-01 BMatC= 2.81D-04 BMatP= 1.00D-02
 IDIUse=3 WtCom= 9.95D-01 WtEn= 5.29D-03
 Coeff-Com: -0.247D-01 0.423D-01 0.119D+00 0.233D+00 0.630D+00
 Coeff-En:   0.000D+00 0.000D+00 0.000D+00 0.000D+00 0.100D+01
 Coeff:     -0.245D-01 0.420D-01 0.119D+00 0.232D+00 0.632D+00
 Gap=     0.283 Goal=   None    Shift=    0.000
 RMSDP=2.67D-05 MaxDP=1.23D-03 DE=-8.39D-03 OVMax= 3.10D-03

 Failed to achieve initial convergence to 1.0D-08 in  6 cycles.
 Switch to full accuracy anyway.
 Cycle   6  Pass 1  IDiag  1:
 E= -2048.75012525392     Delta-E=       -0.000239283191 Rises=F Damp=F
 DIIS: error= 2.03D-04 at cycle   1 NSaved=   1.
 NSaved= 1 IEnMin= 1 EnMin= -2048.75012525392     IErMin= 1 ErrMin= 2.03D-04
 ErrMax= 2.03D-04  0.00D+00 EMaxC= 1.00D-01 BMatC= 7.72D-05 BMatP= 7.72D-05
 IDIUse=3 WtCom= 9.98D-01 WtEn= 2.03D-03
 Coeff-Com:  0.100D+01
 Coeff-En:   0.100D+01
 Coeff:      0.100D+01
 Gap=     0.283 Goal=   None    Shift=    0.000
 RMSDP=2.67D-05 MaxDP=1.23D-03 DE=-2.39D-04 OVMax= 2.79D-03

 Cycle   7  Pass 1  IDiag  1:
 RMSU=  1.15D-04    CP:  1.00D+00
 E= -2048.75017920998     Delta-E=       -0.000053956063 Rises=F Damp=F
 DIIS: error= 2.25D-04 at cycle   2 NSaved=   2.
 NSaved= 2 IEnMin= 2 EnMin= -2048.75017920998     IErMin= 1 ErrMin= 2.03D-04
 ErrMax= 2.25D-04  0.00D+00 EMaxC= 1.00D-01 BMatC= 4.46D-05 BMatP= 7.72D-05
 IDIUse=3 WtCom= 9.98D-01 WtEn= 2.25D-03
 Coeff-Com:  0.408D+00 0.592D+00
 Coeff-En:   0.000D+00 0.100D+01
 Coeff:      0.407D+00 0.593D+00
 Gap=     0.283 Goal=   None    Shift=    0.000
 RMSDP=1.20D-05 MaxDP=7.15D-04 DE=-5.40D-05 OVMax= 1.69D-03

 Cycle   8  Pass 1  IDiag  1:
 RMSU=  1.17D-05    CP:  1.00D+00  1.02D+00
 E= -2048.75021209446     Delta-E=       -0.000032884480 Rises=F Damp=F
 DIIS: error= 8.54D-05 at cycle   3 NSaved=   3.
 NSaved= 3 IEnMin= 3 EnMin= -2048.75021209446     IErMin= 3 ErrMin= 8.54D-05
 ErrMax= 8.54D-05  0.00D+00 EMaxC= 1.00D-01 BMatC= 1.04D-05 BMatP= 4.46D-05
 IDIUse=1 WtCom= 1.00D+00 WtEn= 0.00D+00
 Coeff-Com: -0.184D-01 0.313D+00 0.705D+00
 Coeff:     -0.184D-01 0.313D+00 0.705D+00
 Gap=     0.283 Goal=   None    Shift=    0.000
 RMSDP=5.78D-06 MaxDP=3.70D-04 DE=-3.29D-05 OVMax= 6.04D-04

 Cycle   9  Pass 1  IDiag  1:
 RMSU=  3.82D-06    CP:  1.00D+00  1.05D+00  7.52D-01
 E= -2048.75022213102     Delta-E=       -0.000010036553 Rises=F Damp=F
 DIIS: error= 2.21D-05 at cycle   4 NSaved=   4.
 NSaved= 4 IEnMin= 4 EnMin= -2048.75022213102     IErMin= 4 ErrMin= 2.21D-05
 ErrMax= 2.21D-05  0.00D+00 EMaxC= 1.00D-01 BMatC= 5.28D-07 BMatP= 1.04D-05
 IDIUse=1 WtCom= 1.00D+00 WtEn= 0.00D+00
 Coeff-Com: -0.298D-01 0.899D-01 0.270D+00 0.670D+00
 Coeff:     -0.298D-01 0.899D-01 0.270D+00 0.670D+00
 Gap=     0.283 Goal=   None    Shift=    0.000
 RMSDP=1.44D-06 MaxDP=7.89D-05 DE=-1.00D-05 OVMax= 4.69D-04

 Cycle  10  Pass 1  IDiag  1:
 RMSU=  1.29D-06    CP:  1.00D+00  1.05D+00  7.89D-01  1.09D+00
 E= -2048.75022296668     Delta-E=       -0.000000835660 Rises=F Damp=F
 DIIS: error= 1.26D-05 at cycle   5 NSaved=   5.
 NSaved= 5 IEnMin= 5 EnMin= -2048.75022296668     IErMin= 5 ErrMin= 1.26D-05
 ErrMax= 1.26D-05  0.00D+00 EMaxC= 1.00D-01 BMatC= 1.17D-07 BMatP= 5.28D-07
 IDIUse=1 WtCom= 1.00D+00 WtEn= 0.00D+00
 Coeff-Com: -0.350D-02-0.526D-01-0.110D+00 0.204D+00 0.962D+00
 Coeff:     -0.350D-02-0.526D-01-0.110D+00 0.204D+00 0.962D+00
 Gap=     0.283 Goal=   None    Shift=    0.000
 RMSDP=1.17D-06 MaxDP=5.79D-05 DE=-8.36D-07 OVMax= 2.63D-04

 Cycle  11  Pass 1  IDiag  1:
 RMSU=  4.98D-07    CP:  1.00D+00  1.05D+00  7.98D-01  1.36D+00  1.17D+00
 E= -2048.75022321857     Delta-E=       -0.000000251891 Rises=F Damp=F
 DIIS: error= 6.13D-06 at cycle   6 NSaved=   6.
 NSaved= 6 IEnMin= 6 EnMin= -2048.75022321857     IErMin= 6 ErrMin= 6.13D-06
 ErrMax= 6.13D-06  0.00D+00 EMaxC= 1.00D-01 BMatC= 3.02D-08 BMatP= 1.17D-07
 IDIUse=1 WtCom= 1.00D+00 WtEn= 0.00D+00
 Coeff-Com:  0.465D-02-0.464D-01-0.116D+00-0.862D-02 0.524D+00 0.642D+00
 Coeff:      0.465D-02-0.464D-01-0.116D+00-0.862D-02 0.524D+00 0.642D+00
 Gap=     0.283 Goal=   None    Shift=    0.000
 RMSDP=3.96D-07 MaxDP=2.52D-05 DE=-2.52D-07 OVMax= 1.33D-04

 Cycle  12  Pass 1  IDiag  1:
 RMSU=  1.92D-07    CP:  1.00D+00  1.05D+00  8.01D-01  1.44D+00  1.31D+00
                    CP:  9.48D-01
 E= -2048.75022326245     Delta-E=       -0.000000043885 Rises=F Damp=F
 DIIS: error= 1.04D-06 at cycle   7 NSaved=   7.
 NSaved= 7 IEnMin= 7 EnMin= -2048.75022326245     IErMin= 7 ErrMin= 1.04D-06
 ErrMax= 1.04D-06  0.00D+00 EMaxC= 1.00D-01 BMatC= 7.43D-10 BMatP= 3.02D-08
 IDIUse=1 WtCom= 1.00D+00 WtEn= 0.00D+00
 Coeff-Com:  0.111D-02-0.775D-02-0.207D-01-0.974D-02 0.613D-01 0.133D+00
 Coeff-Com:  0.842D+00
 Coeff:      0.111D-02-0.775D-02-0.207D-01-0.974D-02 0.613D-01 0.133D+00
 Coeff:      0.842D+00
 Gap=     0.283 Goal=   None    Shift=    0.000
 RMSDP=8.59D-08 MaxDP=3.87D-06 DE=-4.39D-08 OVMax= 2.53D-05

 Cycle  13  Pass 1  IDiag  1:
 RMSU=  5.39D-08    CP:  1.00D+00  1.05D+00  8.00D-01  1.44D+00  1.33D+00
                    CP:  1.03D+00  1.13D+00
 E= -2048.75022326439     Delta-E=       -0.000000001933 Rises=F Damp=F
 DIIS: error= 5.75D-07 at cycle   8 NSaved=   8.
 NSaved= 8 IEnMin= 8 EnMin= -2048.75022326439     IErMin= 8 ErrMin= 5.75D-07
 ErrMax= 5.75D-07  0.00D+00 EMaxC= 1.00D-01 BMatC= 3.35D-10 BMatP= 7.43D-10
 IDIUse=1 WtCom= 1.00D+00 WtEn= 0.00D+00
 Coeff-Com: -0.733D-03 0.906D-02 0.218D-01-0.851D-03-0.113D+00-0.111D+00
 Coeff-Com:  0.424D+00 0.771D+00
 Coeff:     -0.733D-03 0.906D-02 0.218D-01-0.851D-03-0.113D+00-0.111D+00
 Coeff:      0.424D+00 0.771D+00
 Gap=     0.283 Goal=   None    Shift=    0.000
 RMSDP=5.01D-08 MaxDP=2.44D-06 DE=-1.93D-09 OVMax= 1.21D-05

 Cycle  14  Pass 1  IDiag  1:
 RMSU=  2.93D-08    CP:  1.00D+00  1.05D+00  8.00D-01  1.45D+00  1.34D+00
                    CP:  1.08D+00  1.29D+00  1.06D+00
 E= -2048.75022326486     Delta-E=       -0.000000000476 Rises=F Damp=F
 DIIS: error= 1.82D-07 at cycle   9 NSaved=   9.
 NSaved= 9 IEnMin= 9 EnMin= -2048.75022326486     IErMin= 9 ErrMin= 1.82D-07
 ErrMax= 1.82D-07  0.00D+00 EMaxC= 1.00D-01 BMatC= 2.62D-11 BMatP= 3.35D-10
 IDIUse=1 WtCom= 1.00D+00 WtEn= 0.00D+00
 Coeff-Com: -0.397D-03 0.429D-02 0.105D-01 0.747D-03-0.493D-01-0.567D-01
 Coeff-Com:  0.798D-01 0.280D+00 0.731D+00
 Coeff:     -0.397D-03 0.429D-02 0.105D-01 0.747D-03-0.493D-01-0.567D-01
 Coeff:      0.798D-01 0.280D+00 0.731D+00
 Gap=     0.283 Goal=   None    Shift=    0.000
 RMSDP=1.36D-08 MaxDP=5.31D-07 DE=-4.76D-10 OVMax= 3.46D-06

 Cycle  15  Pass 1  IDiag  1:
 RMSU=  9.11D-09    CP:  1.00D+00  1.05D+00  8.00D-01  1.45D+00  1.34D+00
                    CP:  1.08D+00  1.31D+00  1.20D+00  1.11D+00
 E= -2048.75022326473     Delta-E=        0.000000000127 Rises=F Damp=F
 DIIS: error= 7.03D-08 at cycle  10 NSaved=  10.
 NSaved=10 IEnMin= 9 EnMin= -2048.75022326486     IErMin=10 ErrMin= 7.03D-08
 ErrMax= 7.03D-08  0.00D+00 EMaxC= 1.00D-01 BMatC= 4.83D-12 BMatP= 2.62D-11
 IDIUse=1 WtCom= 1.00D+00 WtEn= 0.00D+00
 Coeff-Com:  0.205D-04-0.468D-03-0.105D-02 0.195D-03 0.722D-02 0.393D-02
 Coeff-Com: -0.603D-01-0.773D-01 0.253D+00 0.875D+00
 Coeff:      0.205D-04-0.468D-03-0.105D-02 0.195D-03 0.722D-02 0.393D-02
 Coeff:     -0.603D-01-0.773D-01 0.253D+00 0.875D+00
 Gap=     0.283 Goal=   None    Shift=    0.000
 RMSDP=7.14D-09 MaxDP=3.06D-07 DE= 1.27D-10 OVMax= 1.60D-06

 SCF Done:  E(RwB97XD) =  -2048.75022326     A.U. after   15 cycles
            NFock= 15  Conv=0.71D-08     -V/T= 2.0054
 KE= 2.037761541024D+03 PE=-1.592000615503D+04 EE= 6.263736059563D+03
 Leave Link  502 at Fri Jan 19 08:36:28 2018, MaxMem=  4294967296 cpu:           21931.8 elap:             710.5
 (Enter /share/apps/g16/l601.exe)
 Copying SCF densities to generalized density rwf, IOpCl= 0 IROHF=0.

 **********************************************************************

            Population analysis using the SCF density.

 **********************************************************************

 Orbital symmetries:
       Occupied  (A) (A) (A) (A) (A) (A) (A) (A) (A) (A) (A) (A)
                 (A) (A) (A) (A) (A) (A) (A) (A) (A) (A) (A) (A)
                 (A) (A) (A) (A) (A) (A) (A) (A) (A) (A) (A) (A)
                 (A) (A) (A) (A) (A) (A) (A) (A) (A) (A) (A) (A)
                 (A) (A) (A) (A) (A) (A) (A) (A) (A) (A) (A) (A)
                 (A) (A) (A) (A) (A) (A) (A) (A) (A) (A) (A) (A)
                 (A) (A) (A) (A) (A) (A) (A) (A) (A) (A) (A) (A)
                 (A) (A) (A) (A) (A) (A) (A) (A) (A) (A) (A) (A)
                 (A) (A) (A) (A) (A) (A) (A) (A) (A) (A) (A) (A)
                 (A) (A) (A) (A) (A) (A) (A) (A) (A) (A) (A) (A)
                 (A) (A) (A) (A) (A) (A) (A) (A) (A) (A) (A) (A)
                 (A) (A) (A) (A) (A) (A) (A) (A) (A) (A) (A) (A)
                 (A) (A) (A) (A) (A) (A) (A) (A) (A) (A)
       Virtual   (A) (A) (A) (A) (A) (A) (A) (A) (A) (A) (A) (A)
                 (A) (A) (A) (A) (A) (A) (A) (A) (A) (A) (A) (A)
                 (A) (A) (A) (A) (A) (A) (A) (A) (A) (A) (A) (A)
                 (A) (A) (A) (A) (A) (A) (A) (A) (A) (A) (A) (A)
                 (A) (A) (A) (A) (A) (A) (A) (A) (A) (A) (A) (A)
                 (A) (A) (A) (A) (A) (A) (A) (A) (A) (A) (A) (A)
                 (A) (A) (A) (A) (A) (A) (A) (A) (A) (A) (A) (A)
                 (A) (A) (A) (A) (A) (A) (A) (A) (A) (A) (A) (A)
                 (A) (A) (A) (A) (A) (A) (A) (A) (A) (A) (A) (A)
                 (A) (A) (A) (A) (A) (A) (A) (A) (A) (A) (A) (A)
                 (A) (A) (A) (A) (A) (A) (A) (A) (A) (A) (A) (A)
                 (A) (A) (A) (A) (A) (A) (A) (A) (A) (A) (A) (A)
                 (A) (A) (A) (A) (A) (A) (A) (A) (A) (A) (A) (A)
                 (A) (A) (A) (A) (A) (A) (A) (A) (A) (A) (A) (A)
                 (A) (A) (A) (A) (A) (A) (A) (A) (A) (A) (A) (A)
                 (A) (A) (A) (A) (A) (A) (A) (A) (A) (A) (A) (A)
                 (A) (A) (A) (A) (A) (A) (A) (A) (A) (A) (A) (A)
                 (A) (A) (A) (A) (A) (A) (A) (A) (A) (A) (A) (A)
                 (A) (A) (A) (A) (A) (A) (A) (A) (A) (A) (A) (A)
                 (A) (A) (A) (A) (A) (A) (A) (A) (A) (A) (A) (A)
                 (A) (A) (A) (A) (A) (A) (A) (A) (A) (A) (A) (A)
                 (A) (A) (A) (A) (A) (A) (A) (A) (A) (A) (A) (A)
                 (A) (A) (A) (A) (A) (A) (A) (A) (A) (A) (A) (A)
                 (A) (A) (A) (A) (A) (A) (A) (A) (A) (A) (A) (A)
                 (A) (A) (A) (A) (A) (A) (A) (A) (A) (A) (A) (A)
                 (A) (A) (A) (A) (A) (A) (A) (A) (A) (A) (A) (A)
                 (A) (A) (A) (A) (A) (A) (A) (A) (A) (A) (A) (A)
                 (A) (A) (A) (A) (A) (A) (A) (A) (A) (A) (A) (A)
                 (A) (A) (A) (A) (A) (A) (A) (A) (A) (A) (A) (A)
                 (A) (A) (A) (A) (A) (A) (A) (A) (A) (A) (A) (A)
                 (A) (A) (A) (A) (A) (A) (A) (A) (A) (A) (A) (A)
                 (A) (A) (A) (A) (A) (A) (A) (A) (A) (A) (A) (A)
                 (A) (A) (A) (A) (A) (A) (A) (A) (A) (A) (A) (A)
                 (A) (A) (A) (A) (A) (A) (A) (A) (A) (A) (A) (A)
                 (A) (A) (A) (A) (A) (A) (A) (A) (A) (A) (A) (A)
                 (A) (A) (A) (A) (A) (A) (A) (A) (A) (A) (A) (A)
                 (A) (A) (A) (A) (A) (A) (A) (A) (A) (A) (A) (A)
                 (A) (A) (A) (A) (A) (A) (A) (A) (A) (A) (A) (A)
                 (A) (A) (A) (A) (A) (A) (A) (A) (A) (A) (A) (A)
                 (A) (A) (A) (A) (A) (A) (A) (A) (A) (A) (A) (A)
                 (A) (A) (A) (A) (A) (A) (A) (A) (A) (A) (A) (A)
                 (A) (A) (A) (A) (A) (A) (A) (A) (A) (A) (A) (A)
                 (A) (A) (A) (A) (A) (A) (A) (A) (A) (A) (A) (A)
                 (A) (A) (A) (A) (A) (A) (A) (A) (A) (A) (A) (A)
                 (A) (A) (A) (A) (A) (A) (A) (A) (A) (A) (A) (A)
                 (A) (A) (A) (A) (A) (A) (A) (A) (A) (A) (A) (A)
                 (A) (A) (A) (A) (A) (A) (A) (A) (A) (A) (A) (A)
                 (A) (A) (A) (A) (A) (A) (A) (A) (A) (A) (A) (A)
                 (A) (A) (A) (A) (A) (A) (A)
 The electronic state is 1-A.
 Alpha  occ. eigenvalues --  -19.25402 -19.21770 -19.20666 -14.52502 -14.51952
 Alpha  occ. eigenvalues --  -14.49074 -14.48937 -14.47749 -14.47359 -14.46843
 Alpha  occ. eigenvalues --  -14.46664 -14.45349 -14.44318 -14.44270 -14.42554
 Alpha  occ. eigenvalues --  -14.41999 -14.41270 -14.41249 -14.41157 -14.40708
 Alpha  occ. eigenvalues --  -10.44980 -10.41220 -10.39817 -10.39739 -10.38299
 Alpha  occ. eigenvalues --  -10.37930 -10.37128 -10.37124 -10.35791 -10.35752
 Alpha  occ. eigenvalues --  -10.34816 -10.34503 -10.34067 -10.34064 -10.33666
 Alpha  occ. eigenvalues --  -10.33584 -10.33436 -10.32555 -10.31541 -10.31293
 Alpha  occ. eigenvalues --  -10.30547 -10.28699 -10.28275  -1.18992  -1.15222
 Alpha  occ. eigenvalues --   -1.13260  -1.12767  -1.11476  -1.10786  -1.09216
 Alpha  occ. eigenvalues --   -1.08846  -1.08582  -1.05379  -1.04663  -1.02089
 Alpha  occ. eigenvalues --   -1.00929  -1.00713  -0.99745  -0.98601  -0.97154
 Alpha  occ. eigenvalues --   -0.96800  -0.96734  -0.93049  -0.90536  -0.87603
 Alpha  occ. eigenvalues --   -0.85941  -0.84402  -0.84133  -0.83261  -0.82848
 Alpha  occ. eigenvalues --   -0.82566  -0.78395  -0.76942  -0.74789  -0.74771
 Alpha  occ. eigenvalues --   -0.73658  -0.73153  -0.72926  -0.71315  -0.70279
 Alpha  occ. eigenvalues --   -0.67465  -0.66682  -0.66565  -0.66097  -0.64431
 Alpha  occ. eigenvalues --   -0.64093  -0.63636  -0.62983  -0.62658  -0.61846
 Alpha  occ. eigenvalues --   -0.61118  -0.60648  -0.60341  -0.59466  -0.59041
 Alpha  occ. eigenvalues --   -0.58680  -0.58405  -0.57819  -0.56846  -0.55968
 Alpha  occ. eigenvalues --   -0.55776  -0.55727  -0.55248  -0.54357  -0.54126
 Alpha  occ. eigenvalues --   -0.53914  -0.53628  -0.53556  -0.53115  -0.53028
 Alpha  occ. eigenvalues --   -0.52769  -0.52094  -0.52001  -0.50919  -0.50570
 Alpha  occ. eigenvalues --   -0.50289  -0.50002  -0.49321  -0.49141  -0.48965
 Alpha  occ. eigenvalues --   -0.48870  -0.48400  -0.48083  -0.47936  -0.47289
 Alpha  occ. eigenvalues --   -0.47223  -0.46129  -0.44941  -0.44885  -0.43086
 Alpha  occ. eigenvalues --   -0.41295  -0.40658  -0.39067  -0.37867  -0.37459
 Alpha  occ. eigenvalues --   -0.37352  -0.37294  -0.37140  -0.36008  -0.34499
 Alpha  occ. eigenvalues --   -0.34462  -0.33999  -0.33707  -0.33550  -0.33076
 Alpha  occ. eigenvalues --   -0.32734  -0.32378  -0.31884  -0.31474  -0.31082
 Alpha  occ. eigenvalues --   -0.30698  -0.29890  -0.26641  -0.24940
 Alpha virt. eigenvalues --    0.03410   0.04240   0.06953   0.07426   0.08665
 Alpha virt. eigenvalues --    0.09082   0.09784   0.10473   0.10971   0.12204
 Alpha virt. eigenvalues --    0.13079   0.13389   0.14234   0.14344   0.14966
 Alpha virt. eigenvalues --    0.15180   0.16111   0.17317   0.17954   0.18441
 Alpha virt. eigenvalues --    0.18520   0.19158   0.19634   0.20257   0.20466
 Alpha virt. eigenvalues --    0.20649   0.21041   0.21317   0.21616   0.22042
 Alpha virt. eigenvalues --    0.22530   0.22697   0.23314   0.23395   0.23677
 Alpha virt. eigenvalues --    0.23947   0.24187   0.24500   0.24959   0.25554
 Alpha virt. eigenvalues --    0.26445   0.27164   0.27530   0.27664   0.27854
 Alpha virt. eigenvalues --    0.28769   0.29085   0.29285   0.30158   0.30619
 Alpha virt. eigenvalues --    0.30702   0.31719   0.32366   0.33072   0.33251
 Alpha virt. eigenvalues --    0.34206   0.34500   0.35314   0.35662   0.36289
 Alpha virt. eigenvalues --    0.36594   0.36753   0.37698   0.38041   0.38762
 Alpha virt. eigenvalues --    0.39584   0.40054   0.40627   0.41737   0.42019
 Alpha virt. eigenvalues --    0.42312   0.42493   0.43108   0.43938   0.44451
 Alpha virt. eigenvalues --    0.45093   0.45561   0.45896   0.46174   0.46750
 Alpha virt. eigenvalues --    0.46763   0.47586   0.47810   0.48257   0.49119
 Alpha virt. eigenvalues --    0.49647   0.50331   0.50365   0.50953   0.51403
 Alpha virt. eigenvalues --    0.51994   0.52198   0.52637   0.52855   0.53009
 Alpha virt. eigenvalues --    0.53868   0.54085   0.54520   0.54838   0.55361
 Alpha virt. eigenvalues --    0.55853   0.56313   0.56734   0.56936   0.57428
 Alpha virt. eigenvalues --    0.57994   0.58681   0.59114   0.59167   0.59407
 Alpha virt. eigenvalues --    0.60178   0.60499   0.60587   0.61265   0.61619
 Alpha virt. eigenvalues --    0.62000   0.62373   0.62759   0.63003   0.63372
 Alpha virt. eigenvalues --    0.63514   0.64223   0.64397   0.65480   0.65802
 Alpha virt. eigenvalues --    0.66135   0.66456   0.66797   0.67554   0.67718
 Alpha virt. eigenvalues --    0.68023   0.68497   0.69009   0.69438   0.70367
 Alpha virt. eigenvalues --    0.70651   0.71334   0.71614   0.71749   0.72475
 Alpha virt. eigenvalues --    0.72706   0.72963   0.73566   0.73958   0.74174
 Alpha virt. eigenvalues --    0.74428   0.74951   0.75233   0.75772   0.75809
 Alpha virt. eigenvalues --    0.76223   0.76341   0.76716   0.76847   0.77863
 Alpha virt. eigenvalues --    0.78123   0.78580   0.79032   0.79502   0.79886
 Alpha virt. eigenvalues --    0.80020   0.80727   0.81076   0.81219   0.81702
 Alpha virt. eigenvalues --    0.81918   0.82290   0.82588   0.82960   0.83827
 Alpha virt. eigenvalues --    0.84250   0.84497   0.84716   0.85259   0.85466
 Alpha virt. eigenvalues --    0.86290   0.86632   0.87167   0.87378   0.87545
 Alpha virt. eigenvalues --    0.87749   0.88445   0.89084   0.89257   0.90107
 Alpha virt. eigenvalues --    0.90549   0.91166   0.91853   0.92304   0.92543
 Alpha virt. eigenvalues --    0.92908   0.93508   0.94474   0.94629   0.95022
 Alpha virt. eigenvalues --    0.95477   0.95882   0.96244   0.96517   0.96839
 Alpha virt. eigenvalues --    0.97556   0.97833   0.98148   0.98294   0.98475
 Alpha virt. eigenvalues --    0.99365   0.99729   1.00198   1.00948   1.01357
 Alpha virt. eigenvalues --    1.01889   1.02422   1.02745   1.03282   1.03532
 Alpha virt. eigenvalues --    1.03868   1.04411   1.05080   1.05767   1.06320
 Alpha virt. eigenvalues --    1.06507   1.07260   1.07643   1.08204   1.08504
 Alpha virt. eigenvalues --    1.09167   1.09511   1.10203   1.10710   1.10921
 Alpha virt. eigenvalues --    1.11287   1.12370   1.12859   1.13291   1.13643
 Alpha virt. eigenvalues --    1.14398   1.14676   1.15363   1.15604   1.16161
 Alpha virt. eigenvalues --    1.16576   1.17053   1.17537   1.17810   1.18014
 Alpha virt. eigenvalues --    1.18485   1.18979   1.19530   1.19833   1.20134
 Alpha virt. eigenvalues --    1.20544   1.20842   1.21587   1.21753   1.22256
 Alpha virt. eigenvalues --    1.22647   1.22900   1.22985   1.23693   1.23884
 Alpha virt. eigenvalues --    1.24073   1.24609   1.25000   1.25278   1.25895
 Alpha virt. eigenvalues --    1.26589   1.27352   1.28041   1.28428   1.28653
 Alpha virt. eigenvalues --    1.28857   1.29147   1.30104   1.30447   1.30967
 Alpha virt. eigenvalues --    1.31541   1.32253   1.32541   1.33705   1.34221
 Alpha virt. eigenvalues --    1.34738   1.35499   1.35875   1.36205   1.37358
 Alpha virt. eigenvalues --    1.38045   1.38837   1.39290   1.39697   1.40234
 Alpha virt. eigenvalues --    1.41116   1.41493   1.42986   1.43473   1.43989
 Alpha virt. eigenvalues --    1.45514   1.45943   1.46968   1.47720   1.47838
 Alpha virt. eigenvalues --    1.48334   1.48884   1.50424   1.51231   1.51843
 Alpha virt. eigenvalues --    1.52661   1.53328   1.54031   1.54662   1.55268
 Alpha virt. eigenvalues --    1.55947   1.56274   1.56822   1.57400   1.57851
 Alpha virt. eigenvalues --    1.58716   1.59448   1.59950   1.61180   1.61574
 Alpha virt. eigenvalues --    1.61975   1.62361   1.62992   1.63633   1.64409
 Alpha virt. eigenvalues --    1.64818   1.65421   1.66004   1.66632   1.66931
 Alpha virt. eigenvalues --    1.67227   1.67722   1.68126   1.68962   1.69819
 Alpha virt. eigenvalues --    1.71060   1.71307   1.71549   1.71669   1.72223
 Alpha virt. eigenvalues --    1.72303   1.72429   1.73186   1.73943   1.74386
 Alpha virt. eigenvalues --    1.75016   1.75245   1.75327   1.75907   1.76409
 Alpha virt. eigenvalues --    1.76572   1.76946   1.77387   1.77662   1.78030
 Alpha virt. eigenvalues --    1.78124   1.78612   1.78907   1.79323   1.79700
 Alpha virt. eigenvalues --    1.79800   1.79979   1.80344   1.80490   1.80823
 Alpha virt. eigenvalues --    1.81528   1.81979   1.82321   1.82918   1.83662
 Alpha virt. eigenvalues --    1.83854   1.84645   1.84825   1.85057   1.85675
 Alpha virt. eigenvalues --    1.85994   1.86623   1.87294   1.87700   1.87831
 Alpha virt. eigenvalues --    1.88099   1.88943   1.89233   1.89605   1.90052
 Alpha virt. eigenvalues --    1.90609   1.90815   1.91334   1.92356   1.92874
 Alpha virt. eigenvalues --    1.93298   1.93790   1.94435   1.94924   1.95638
 Alpha virt. eigenvalues --    1.96143   1.96607   1.97358   1.97811   1.97935
 Alpha virt. eigenvalues --    1.98773   1.99613   1.99899   2.01073   2.01727
 Alpha virt. eigenvalues --    2.02796   2.03433   2.03598   2.04599   2.04791
 Alpha virt. eigenvalues --    2.05580   2.06244   2.06700   2.07865   2.08027
 Alpha virt. eigenvalues --    2.08631   2.09077   2.10208   2.10386   2.10520
 Alpha virt. eigenvalues --    2.11392   2.12175   2.13767   2.13960   2.15391
 Alpha virt. eigenvalues --    2.15687   2.16259   2.17303   2.17859   2.18500
 Alpha virt. eigenvalues --    2.19895   2.20192   2.20463   2.21659   2.22162
 Alpha virt. eigenvalues --    2.22536   2.22826   2.23944   2.24460   2.24517
 Alpha virt. eigenvalues --    2.25353   2.25511   2.26175   2.26720   2.27001
 Alpha virt. eigenvalues --    2.27622   2.28391   2.29241   2.29607   2.29774
 Alpha virt. eigenvalues --    2.30313   2.31413   2.31599   2.31876   2.32691
 Alpha virt. eigenvalues --    2.33394   2.33511   2.34040   2.34239   2.34930
 Alpha virt. eigenvalues --    2.35515   2.35946   2.36442   2.37320   2.37992
 Alpha virt. eigenvalues --    2.38649   2.39062   2.40194   2.41019   2.41747
 Alpha virt. eigenvalues --    2.41997   2.43081   2.43590   2.43650   2.44573
 Alpha virt. eigenvalues --    2.45305   2.45701   2.46334   2.46768   2.47815
 Alpha virt. eigenvalues --    2.48345   2.49391   2.50429   2.50776   2.51664
 Alpha virt. eigenvalues --    2.52305   2.54151   2.55411   2.56048   2.56239
 Alpha virt. eigenvalues --    2.57581   2.58038   2.58849   2.61103   2.61445
 Alpha virt. eigenvalues --    2.61876   2.62980   2.63407   2.64241   2.65044
 Alpha virt. eigenvalues --    2.65327   2.65550   2.65782   2.65998   2.66985
 Alpha virt. eigenvalues --    2.67154   2.68100   2.68561   2.69126   2.70039
 Alpha virt. eigenvalues --    2.70477   2.70804   2.71229   2.72512   2.73503
 Alpha virt. eigenvalues --    2.74381   2.75094   2.75407   2.76898   2.77413
 Alpha virt. eigenvalues --    2.77724   2.78186   2.79142   2.79160   2.79753
 Alpha virt. eigenvalues --    2.80366   2.80709   2.81010   2.81552   2.81758
 Alpha virt. eigenvalues --    2.82493   2.82724   2.83454   2.84055   2.84592
 Alpha virt. eigenvalues --    2.84986   2.85983   2.86536   2.86742   2.86941
 Alpha virt. eigenvalues --    2.87426   2.88584   2.89469   2.93249   2.94083
 Alpha virt. eigenvalues --    2.94936   2.97187   2.97341   2.98715   2.99964
 Alpha virt. eigenvalues --    3.01321   3.01584   3.02264   3.04356   3.05887
 Alpha virt. eigenvalues --    3.06719   3.09757   3.10591   3.13123   3.14954
 Alpha virt. eigenvalues --    3.15540   3.16254   3.17305   3.18276   3.21020
 Alpha virt. eigenvalues --    3.21684   3.23337   3.24165   3.24593   3.27971
 Alpha virt. eigenvalues --    3.45102   3.47131   3.47662   3.49342   3.50836
 Alpha virt. eigenvalues --    3.52993   3.54877   3.56327   3.58025   3.60172
 Alpha virt. eigenvalues --    3.63614   3.71366   3.75596
          Condensed to atoms (all electrons):
 Mulliken charges:
               1
     1  N   -0.301942
     2  C    0.179238
     3  C    0.058345
     4  N   -0.241672
     5  C    0.134940
     6  H    0.024165
     7  N   -0.290026
     8  C    0.131838
     9  H    0.010050
    10  N   -0.282281
    11  C    0.230838
    12  C    0.077586
    13  N   -0.043482
    14  H    0.114962
    15  H    0.085255
    16  H    0.027812
    17  H    0.036006
    18  H    0.015352
    19  N   -0.302798
    20  C    0.255047
    21  C    0.186130
    22  N   -0.124164
    23  H    0.118641
    24  H    0.118713
    25  N   -0.305514
    26  C    0.242995
    27  N   -0.139032
    28  H    0.119843
    29  C    0.181967
    30  O   -0.322759
    31  C   -0.013632
    32  N   -0.212825
    33  C    0.111369
    34  H    0.019856
    35  H    0.010771
    36  H    0.033686
    37  H    0.025346
    38  H    0.039930
    39  H    0.057173
    40  H    0.077221
    41  H    0.019240
    42  C   -0.102709
    43  O   -0.274960
    44  C    0.164836
    45  H    0.128042
    46  N   -0.105699
    47  O   -0.348781
    48  C    0.332395
    49  H    0.044987
    50  C    0.171032
    51  C    0.048717
    52  N   -0.275492
    53  H    0.036145
    54  H    0.041895
    55  H    0.027486
    56  H    0.126848
    57  H    0.116946
    58  N   -0.045815
    59  C    0.079576
    60  C    0.214307
    61  N   -0.262634
    62  H    0.026804
    63  C    0.159972
    64  N   -0.298363
    65  H    0.036357
    66  C    0.126922
    67  N   -0.253212
    68  C    0.047640
    69  C    0.176783
    70  N   -0.304211
 Sum of Mulliken charges =  -0.00000
 Mulliken charges with hydrogens summed into heavy atoms:
               1
     1  N   -0.301942
     2  C    0.258408
     3  C    0.058345
     4  N   -0.241672
     5  C    0.159105
     7  N   -0.290026
     8  C    0.141888
    10  N   -0.282281
    11  C    0.230838
    12  C    0.077586
    13  N    0.156735
    19  N   -0.302798
    20  C    0.255047
    21  C    0.255933
    22  N    0.113190
    25  N   -0.305514
    26  C    0.242995
    27  N   -0.019189
    29  C    0.181967
    30  O   -0.322759
    31  C   -0.013632
    32  N   -0.212825
    33  C    0.131225
    42  C   -0.083469
    43  O   -0.274960
    44  C    0.164836
    46  N    0.022343
    47  O   -0.348781
    48  C    0.332395
    50  C    0.216018
    51  C    0.223041
    52  N   -0.275492
    58  N    0.197979
    59  C    0.079576
    60  C    0.214307
    61  N   -0.262634
    63  C    0.186776
    64  N   -0.298363
    66  C    0.163279
    67  N   -0.253212
    68  C    0.047640
    69  C    0.282309
    70  N   -0.304211
 Electronic spatial extent (au):  <R**2>=          22228.2085
 Charge=             -0.0000 electrons
 Dipole moment (field-independent basis, Debye):
    X=             -5.3173    Y=              5.6523    Z=             -5.2236  Tot=              9.3546
 Quadrupole moment (field-independent basis, Debye-Ang):
   XX=           -147.1850   YY=           -224.6379   ZZ=           -260.7243
   XY=             -9.8174   XZ=              1.0040   YZ=             -4.2294
 Traceless Quadrupole moment (field-independent basis, Debye-Ang):
   XX=             63.6641   YY=            -13.7888   ZZ=            -49.8752
   XY=             -9.8174   XZ=              1.0040   YZ=             -4.2294
 Octapole moment (field-independent basis, Debye-Ang**2):
  XXX=             96.1739  YYY=             37.5879  ZZZ=            -70.1632  XYY=            -33.4038
  XXY=             88.3019  XXZ=            -81.6762  XZZ=            -79.5759  YZZ=             53.3749
  YYZ=            -19.2733  XYZ=             39.2742
 Hexadecapole moment (field-independent basis, Debye-Ang**3):
 XXXX=         -16490.1580 YYYY=          -3882.1390 ZZZZ=          -3897.5602 XXXY=           -665.3531
 XXXZ=            301.8247 YYYX=            106.2475 YYYZ=           -211.8866 ZZZX=            161.2910
 ZZZY=             -7.2680 XXYY=          -3911.3437 XXZZ=          -3903.2427 YYZZ=          -1297.7280
 XXYZ=           -126.0816 YYXZ=            -68.3331 ZZXY=            -80.7980
 N-N= 5.569758331176D+03 E-N=-1.592000614531D+04  KE= 2.037761541024D+03
 No NMR shielding tensors so no spin-rotation constants.
 Leave Link  601 at Fri Jan 19 08:36:30 2018, MaxMem=  4294967296 cpu:              49.4 elap:               1.7
 (Enter /share/apps/g16/l9999.exe)
 1\1\GINC-COMPUTE-0-3\SP\RwB97XD\CC-pVDZ\C23H27N17O3\SATYA\19-Jan-2018\
 0\\#p wb97xd/cc-pvdz sp scf=(maxcycles=20)\\Base pair stacking\\0,1\N,
 0,1.72967,3.62427,-6.44506\C,0,1.47026,5.06157,-6.65693\C,0,1.4996,1.4
 4233,-6.29165\N,0,2.81908,1.7175,-5.96305\C,0,2.90488,3.02102,-6.06863
 \H,0,3.8098,3.59995,-5.8818\N,0,-0.52564,0.31432,-6.72634\C,0,-1.05067
 ,1.51608,-6.98656\H,0,-2.10235,1.51263,-7.26978\N,0,-0.47433,2.71582,-
 6.94962\C,0,0.81572,2.60773,-6.59112\C,0,0.77482,0.2391,-6.36827\N,0,1
 .30072,-0.95961,-6.10811\H,0,2.2591,-1.06257,-5.83953\H,0,0.75498,-1.7
 9515,-6.17275\H,0,2.07068,5.40728,-7.37814\H,0,0.51683,5.19269,-6.9269
 4\H,0,1.64694,5.56271,-5.8098\N,0,-0.07086,3.94379,-3.33009\C,0,-0.696
 83,2.7212,-3.36866\C,0,-0.73818,5.25024,-3.49918\N,0,-3.58906,0.83301,
 -3.73129\H,0,-3.84483,-0.13331,-3.72416\H,0,-4.32364,1.49571,-3.8794\N
 ,0,-2.01607,2.50966,-3.56592\C,0,-2.31837,1.22359,-3.55044\N,0,-1.4004
 4,0.21989,-3.35675\H,0,-1.72178,-0.73598,-3.36046\C,0,-0.03807,0.41437
 ,-3.15186\O,0,0.70525,-0.56085,-2.98705\C,0,0.30187,1.791,-3.16586\N,0
 ,1.53011,2.41702,-3.00324\C,0,1.26067,3.69005,-3.10807\H,0,1.99856,4.4
 8934,-3.03113\H,0,-0.3501,5.72495,-4.28839\H,0,-1.71591,5.10618,-3.646
 \H,0,-0.60354,5.80391,-2.67812\H,0,-3.84809,-5.29015,-4.12928\H,0,-3.8
 7651,-5.34305,-2.3683\H,0,-4.03655,-3.79904,-3.20602\H,0,0.74204,-6.39
 767,-3.20695\C,0,0.08386,-5.52888,-3.19147\O,0,1.85801,-3.95606,-3.115
 58\C,0,0.65574,-4.218,-3.14286\H,0,0.10128,-2.24864,-3.09265\N,0,-0.26
 485,-3.18965,-3.12683\O,0,-2.36711,-2.3308,-3.13496\C,0,-1.63238,-3.30
 267,-3.1523\H,0,-1.73104,-6.64602,-3.25433\C,0,-1.24643,-5.67128,-3.21
 722\C,0,-3.56271,-4.76916,-3.22751\N,0,-2.10743,-4.59857,-3.19889\H,0,
 -5.29886,-5.94358,-7.58505\H,0,-5.18999,-4.60962,-6.65188\H,0,-5.47019
 ,-6.06423,-5.96656\H,0,1.803,-4.59581,-5.90794\H,0,1.18069,-6.17358,-6
 .0909\N,0,1.00846,-5.18941,-6.03631\C,0,-0.22629,-4.69175,-6.13063\C,0
 ,-2.58785,-4.82181,-6.39115\N,0,-2.78924,-3.49593,-6.31435\H,0,-1.7061
 3,-1.77297,-6.07168\C,0,-1.63335,-2.85727,-6.14426\N,0,-0.39563,-3.353
 91,-6.04954\H,0,-3.36135,-7.94521,-6.70464\C,0,-2.84901,-6.99085,-6.57
 953\N,0,-1.55397,-6.85402,-6.43182\C,0,-1.37491,-5.48357,-6.3113\C,0,-
 4.98999,-5.58763,-6.70306\N,0,-3.53639,-5.80173,-6.56449\\Version=EM64
 L-G16RevA.03\State=1-A\HF=-2048.7502233\RMSD=7.140e-09\Dipole=-3.45308
 78,-1.128045,-0.5906468\Quadrupole=-6.3133354,38.4833026,-32.1699672,2
 3.0449448,-10.4172475,2.5509007\PG=C01 [X(C23H27N17O3)]\\@


 THERE IS NO SUBJECT, HOWEVER COMPLEX,
 WHICH, IF STUDIED WITH PATIENCE AND INTELLIGIENCE
 WILL NOT BECOME
 MORE COMPLEX
                        QUOTED BY D. GORDON ROHMAN
 Job cpu time:       0 days  6 hours 15 minutes 58.8 seconds.
 Elapsed time:       0 days  0 hours 12 minutes 10.6 seconds.
 File lengths (MBytes):  RWF=    298 Int=      0 D2E=      0 Chk=     33 Scr=      1
 Normal termination of Gaussian 16 at Fri Jan 19 08:36:30 2018.
