 Entering Gaussian System, Link 0=g16
 Input=str15.10.-2.5.com
 Output=str15.10.-2.5.log
 Initial command:
 /share/apps/g16/l1.exe "/state/partition1/scr/Gau-3114.inp" -scrdir="/state/partition1/scr/"
 Entering Link 1 = /share/apps/g16/l1.exe PID=      3115.
  
 Copyright (c) 1988,1990,1992,1993,1995,1998,2003,2009,2016,
            Gaussian, Inc.  All Rights Reserved.
  
 This is part of the Gaussian(R) 16 program.  It is based on
 the Gaussian(R) 09 system (copyright 2009, Gaussian, Inc.),
 the Gaussian(R) 03 system (copyright 2003, Gaussian, Inc.),
 the Gaussian(R) 98 system (copyright 1998, Gaussian, Inc.),
 the Gaussian(R) 94 system (copyright 1995, Gaussian, Inc.),
 the Gaussian 92(TM) system (copyright 1992, Gaussian, Inc.),
 the Gaussian 90(TM) system (copyright 1990, Gaussian, Inc.),
 the Gaussian 88(TM) system (copyright 1988, Gaussian, Inc.),
 the Gaussian 86(TM) system (copyright 1986, Carnegie Mellon
 University), and the Gaussian 82(TM) system (copyright 1983,
 Carnegie Mellon University). Gaussian is a federally registered
 trademark of Gaussian, Inc.
  
 This software contains proprietary and confidential information,
 including trade secrets, belonging to Gaussian, Inc.
  
 This software is provided under written license and may be
 used, copied, transmitted, or stored only in accord with that
 written license.
  
 The following legend is applicable only to US Government
 contracts under FAR:
  
                    RESTRICTED RIGHTS LEGEND
  
 Use, reproduction and disclosure by the US Government is
 subject to restrictions as set forth in subparagraphs (a)
 and (c) of the Commercial Computer Software - Restricted
 Rights clause in FAR 52.227-19.
  
 Gaussian, Inc.
 340 Quinnipiac St., Bldg. 40, Wallingford CT 06492
  
  
 ---------------------------------------------------------------
 Warning -- This program may not be used in any manner that
 competes with the business of Gaussian, Inc. or will provide
 assistance to any competitor of Gaussian, Inc.  The licensee
 of this program is prohibited from giving any competitor of
 Gaussian, Inc. access to this program.  By using this program,
 the user acknowledges that Gaussian, Inc. is engaged in the
 business of creating and licensing software in the field of
 computational chemistry and represents and warrants to the
 licensee that it is not a competitor of Gaussian, Inc. and that
 it will not use this program in any manner prohibited above.
 ---------------------------------------------------------------
  

 Cite this work as:
 Gaussian 16, Revision A.03,
 M. J. Frisch, G. W. Trucks, H. B. Schlegel, G. E. Scuseria, 
 M. A. Robb, J. R. Cheeseman, G. Scalmani, V. Barone, 
 G. A. Petersson, H. Nakatsuji, X. Li, M. Caricato, A. V. Marenich, 
 J. Bloino, B. G. Janesko, R. Gomperts, B. Mennucci, H. P. Hratchian, 
 J. V. Ortiz, A. F. Izmaylov, J. L. Sonnenberg, D. Williams-Young, 
 F. Ding, F. Lipparini, F. Egidi, J. Goings, B. Peng, A. Petrone, 
 T. Henderson, D. Ranasinghe, V. G. Zakrzewski, J. Gao, N. Rega, 
 G. Zheng, W. Liang, M. Hada, M. Ehara, K. Toyota, R. Fukuda, 
 J. Hasegawa, M. Ishida, T. Nakajima, Y. Honda, O. Kitao, H. Nakai, 
 T. Vreven, K. Throssell, J. A. Montgomery, Jr., J. E. Peralta, 
 F. Ogliaro, M. J. Bearpark, J. J. Heyd, E. N. Brothers, K. N. Kudin, 
 V. N. Staroverov, T. A. Keith, R. Kobayashi, J. Normand, 
 K. Raghavachari, A. P. Rendell, J. C. Burant, S. S. Iyengar, 
 J. Tomasi, M. Cossi, J. M. Millam, M. Klene, C. Adamo, R. Cammi, 
 J. W. Ochterski, R. L. Martin, K. Morokuma, O. Farkas, 
 J. B. Foresman, and D. J. Fox, Gaussian, Inc., Wallingford CT, 2016.
 
 ******************************************
 Gaussian 16:  EM64L-G16RevA.03 25-Dec-2016
                18-Jan-2018 
 ******************************************
 %nprocshared=32
 Will use up to   32 processors via shared memory.
 %mem=32GB
 %chk=allatoms_t.chk
 ---------------------------------------
 #p wb97xd/cc-pvdz sp scf=(maxcycles=20)
 ---------------------------------------
 1/38=1,172=1/1;
 2/12=2,17=6,18=5,40=1/2;
 3/5=16,11=2,25=1,30=1,74=-58/1,2,3;
 4//1;
 5/5=2,7=20,38=5/2;
 6/7=2,8=2,9=2,10=2,28=1/1;
 99/5=1,9=1/99;
 Leave Link    1 at Thu Jan 18 21:15:39 2018, MaxMem=  4294967296 cpu:               2.7 elap:               0.1
 (Enter /share/apps/g16/l101.exe)
 ------------------
 Base pair stacking
 ------------------
 Symbolic Z-matrix:
 Charge =  0 Multiplicity = 1
 N                     4.0811    10.22692  -6.11839 
 C                     3.87159   11.65351  -6.43294 
 C                     3.81169   8.05408  -5.90986 
 N                     5.06081   8.34289  -5.37978 
 C                     5.17313   9.64039  -5.52662 
 H                     6.03924   10.22658  -5.21811 
 N                     1.87737   6.9089   -6.62396 
 C                     1.41205   8.09817  -7.0198 
 H                     0.42167   8.08267  -7.47275 
 N                     1.98377   9.29807  -6.94052 
 C                     3.19591   9.20536  -6.36908 
 C                     3.10011   6.849    -6.05266 
 N                     3.56633   5.66277  -5.65686 
 H                     4.46628   5.57136  -5.22914 
 H                     3.03223   4.82546  -5.77432 
 H                     4.58568   11.96652  -7.05926 
 H                     2.97698   11.77299  -6.8625 
 H                     3.90974   12.19172  -5.59099 
 N                     0.54168   7.40153  -3.34917 
 C                    -0.08005   6.17868  -3.42761 
 C                    -0.10715   8.70608  -3.5897 
 N                    -2.93256   4.28698  -4.01613 
 H                    -3.18911   3.32084  -4.02012 
 H                    -3.65095   4.94808  -4.23429 
 N                    -1.37769   5.96514  -3.73512 
 C                    -1.68167   4.67937  -3.73118 
 N                    -0.78493   3.67778  -3.44802 
 H                    -1.10585   2.72198  -3.46855 
 C                     0.55502   3.87434  -3.12902 
 O                     1.28032   2.90092  -2.88996 
 C                     0.89647   5.25067  -3.12927 
 N                     2.1069    5.87828  -2.86877 
 C                     1.84892   7.1501   -3.01071 
 H                     2.57838   7.95008  -2.87965 
 H                     0.34784   9.17176  -4.34794 
 H                    -1.06881   8.56053  -3.81837 
 H                    -0.04294   9.269    -2.7664 
 H                    -3.16341  -1.84026  -4.36587 
 H                    -3.34311  -1.8732   -2.61337 
 H                    -3.42881  -0.33875  -3.47908 
 H                     1.32923  -2.93801  -3.04007 
 C                     0.67314  -2.069    -3.091 
 O                     2.43599  -0.49571  -2.88067 
 C                     1.24022  -0.75774  -3.00821 
 H                     0.68573   1.21215  -3.02803 
 N                     0.32282   0.27087  -3.08294 
 O                    -1.76998   1.12992  -3.28138 
 C                    -1.03758   0.1578   -3.22456 
 H                    -1.13091  -3.18648  -3.297 
 C                    -0.65018  -2.21146  -3.22938 
 C                    -2.95598  -1.30913  -3.44884 
 N                    -1.50835  -1.13847  -3.2972 
 H                    -2.73726   0.62147  -7.98619 
 H                    -2.77367   1.99552  -7.10713 
 H                    -3.17474   0.57295  -6.41467 
 H                     4.        2.0388   -5.21745 
 H                     3.40412   0.45478  -5.43167 
 N                     3.23297   1.44048  -5.44945 
 C                     2.03475   1.93409  -5.7685 
 C                    -0.25219   1.7938   -6.41032 
 N                    -0.45308   3.12189  -6.42599 
 H                     0.58853   4.85337  -6.08302 
 C                     0.66377   3.76688  -6.09504 
 N                     1.86486   3.27431  -5.77516 
 H                    -0.98775  -1.34005  -6.71055 
 C                    -0.49566  -0.38133  -6.54425 
 N                     0.75818  -0.23874  -6.19037 
 C                     0.92562   1.13562  -6.10195 
 C                    -2.57566   1.0161   -7.08168 
 N                    -1.16669   0.80763  -6.69521 
 
 ITRead=  0  0  0  0  0  0  0  0  0  0  0  0  0  0  0  0  0  0  0  0
 ITRead=  0  0  0  0  0  0  0  0  0  0  0  0  0  0  0  0  0  0  0  0
 ITRead=  0  0  0  0  0  0  0  0  0  0  0  0  0  0  0  0  0  0  0  0
 ITRead=  0  0  0  0  0  0  0  0  0  0
 MicOpt= -1 -1 -1 -1 -1 -1 -1 -1 -1 -1 -1 -1 -1 -1 -1 -1 -1 -1 -1 -1
 MicOpt= -1 -1 -1 -1 -1 -1 -1 -1 -1 -1 -1 -1 -1 -1 -1 -1 -1 -1 -1 -1
 MicOpt= -1 -1 -1 -1 -1 -1 -1 -1 -1 -1 -1 -1 -1 -1 -1 -1 -1 -1 -1 -1
 MicOpt= -1 -1 -1 -1 -1 -1 -1 -1 -1 -1
 NAtoms=     70 NQM=       70 NQMF=       0 NMMI=      0 NMMIF=      0
                NMic=       0 NMicF=      0.
                    Isotopes and Nuclear Properties:
 (Nuclear quadrupole moments (NQMom) in fm**2, nuclear magnetic moments (NMagM)
  in nuclear magnetons)

  Atom         1           2           3           4           5           6           7           8           9          10
 IAtWgt=          14          12          12          14          12           1          14          12           1          14
 AtmWgt=  14.0030740  12.0000000  12.0000000  14.0030740  12.0000000   1.0078250  14.0030740  12.0000000   1.0078250  14.0030740
 NucSpn=           2           0           0           2           0           1           2           0           1           2
 AtZEff=  -0.0000000  -0.0000000  -0.0000000  -0.0000000  -0.0000000  -0.0000000  -0.0000000  -0.0000000  -0.0000000  -0.0000000
 NQMom=    2.0440000   0.0000000   0.0000000   2.0440000   0.0000000   0.0000000   2.0440000   0.0000000   0.0000000   2.0440000
 NMagM=    0.4037610   0.0000000   0.0000000   0.4037610   0.0000000   2.7928460   0.4037610   0.0000000   2.7928460   0.4037610
 AtZNuc=   7.0000000   6.0000000   6.0000000   7.0000000   6.0000000   1.0000000   7.0000000   6.0000000   1.0000000   7.0000000

  Atom        11          12          13          14          15          16          17          18          19          20
 IAtWgt=          12          12          14           1           1           1           1           1          14          12
 AtmWgt=  12.0000000  12.0000000  14.0030740   1.0078250   1.0078250   1.0078250   1.0078250   1.0078250  14.0030740  12.0000000
 NucSpn=           0           0           2           1           1           1           1           1           2           0
 AtZEff=  -0.0000000  -0.0000000  -0.0000000  -0.0000000  -0.0000000  -0.0000000  -0.0000000  -0.0000000  -0.0000000  -0.0000000
 NQMom=    0.0000000   0.0000000   2.0440000   0.0000000   0.0000000   0.0000000   0.0000000   0.0000000   2.0440000   0.0000000
 NMagM=    0.0000000   0.0000000   0.4037610   2.7928460   2.7928460   2.7928460   2.7928460   2.7928460   0.4037610   0.0000000
 AtZNuc=   6.0000000   6.0000000   7.0000000   1.0000000   1.0000000   1.0000000   1.0000000   1.0000000   7.0000000   6.0000000

  Atom        21          22          23          24          25          26          27          28          29          30
 IAtWgt=          12          14           1           1          14          12          14           1          12          16
 AtmWgt=  12.0000000  14.0030740   1.0078250   1.0078250  14.0030740  12.0000000  14.0030740   1.0078250  12.0000000  15.9949146
 NucSpn=           0           2           1           1           2           0           2           1           0           0
 AtZEff=  -0.0000000  -0.0000000  -0.0000000  -0.0000000  -0.0000000  -0.0000000  -0.0000000  -0.0000000  -0.0000000  -0.0000000
 NQMom=    0.0000000   2.0440000   0.0000000   0.0000000   2.0440000   0.0000000   2.0440000   0.0000000   0.0000000   0.0000000
 NMagM=    0.0000000   0.4037610   2.7928460   2.7928460   0.4037610   0.0000000   0.4037610   2.7928460   0.0000000   0.0000000
 AtZNuc=   6.0000000   7.0000000   1.0000000   1.0000000   7.0000000   6.0000000   7.0000000   1.0000000   6.0000000   8.0000000

  Atom        31          32          33          34          35          36          37          38          39          40
 IAtWgt=          12          14          12           1           1           1           1           1           1           1
 AtmWgt=  12.0000000  14.0030740  12.0000000   1.0078250   1.0078250   1.0078250   1.0078250   1.0078250   1.0078250   1.0078250
 NucSpn=           0           2           0           1           1           1           1           1           1           1
 AtZEff=  -0.0000000  -0.0000000  -0.0000000  -0.0000000  -0.0000000  -0.0000000  -0.0000000  -0.0000000  -0.0000000  -0.0000000
 NQMom=    0.0000000   2.0440000   0.0000000   0.0000000   0.0000000   0.0000000   0.0000000   0.0000000   0.0000000   0.0000000
 NMagM=    0.0000000   0.4037610   0.0000000   2.7928460   2.7928460   2.7928460   2.7928460   2.7928460   2.7928460   2.7928460
 AtZNuc=   6.0000000   7.0000000   6.0000000   1.0000000   1.0000000   1.0000000   1.0000000   1.0000000   1.0000000   1.0000000

  Atom        41          42          43          44          45          46          47          48          49          50
 IAtWgt=           1          12          16          12           1          14          16          12           1          12
 AtmWgt=   1.0078250  12.0000000  15.9949146  12.0000000   1.0078250  14.0030740  15.9949146  12.0000000   1.0078250  12.0000000
 NucSpn=           1           0           0           0           1           2           0           0           1           0
 AtZEff=  -0.0000000  -0.0000000  -0.0000000  -0.0000000  -0.0000000  -0.0000000  -0.0000000  -0.0000000  -0.0000000  -0.0000000
 NQMom=    0.0000000   0.0000000   0.0000000   0.0000000   0.0000000   2.0440000   0.0000000   0.0000000   0.0000000   0.0000000
 NMagM=    2.7928460   0.0000000   0.0000000   0.0000000   2.7928460   0.4037610   0.0000000   0.0000000   2.7928460   0.0000000
 AtZNuc=   1.0000000   6.0000000   8.0000000   6.0000000   1.0000000   7.0000000   8.0000000   6.0000000   1.0000000   6.0000000

  Atom        51          52          53          54          55          56          57          58          59          60
 IAtWgt=          12          14           1           1           1           1           1          14          12          12
 AtmWgt=  12.0000000  14.0030740   1.0078250   1.0078250   1.0078250   1.0078250   1.0078250  14.0030740  12.0000000  12.0000000
 NucSpn=           0           2           1           1           1           1           1           2           0           0
 AtZEff=  -0.0000000  -0.0000000  -0.0000000  -0.0000000  -0.0000000  -0.0000000  -0.0000000  -0.0000000  -0.0000000  -0.0000000
 NQMom=    0.0000000   2.0440000   0.0000000   0.0000000   0.0000000   0.0000000   0.0000000   2.0440000   0.0000000   0.0000000
 NMagM=    0.0000000   0.4037610   2.7928460   2.7928460   2.7928460   2.7928460   2.7928460   0.4037610   0.0000000   0.0000000
 AtZNuc=   6.0000000   7.0000000   1.0000000   1.0000000   1.0000000   1.0000000   1.0000000   7.0000000   6.0000000   6.0000000

  Atom        61          62          63          64          65          66          67          68          69          70
 IAtWgt=          14           1          12          14           1          12          14          12          12          14
 AtmWgt=  14.0030740   1.0078250  12.0000000  14.0030740   1.0078250  12.0000000  14.0030740  12.0000000  12.0000000  14.0030740
 NucSpn=           2           1           0           2           1           0           2           0           0           2
 AtZEff=  -0.0000000  -0.0000000  -0.0000000  -0.0000000  -0.0000000  -0.0000000  -0.0000000  -0.0000000  -0.0000000  -0.0000000
 NQMom=    2.0440000   0.0000000   0.0000000   2.0440000   0.0000000   0.0000000   2.0440000   0.0000000   0.0000000   2.0440000
 NMagM=    0.4037610   2.7928460   0.0000000   0.4037610   2.7928460   0.0000000   0.4037610   0.0000000   0.0000000   0.4037610
 AtZNuc=   7.0000000   1.0000000   6.0000000   7.0000000   1.0000000   6.0000000   7.0000000   6.0000000   6.0000000   7.0000000
 Leave Link  101 at Thu Jan 18 21:15:40 2018, MaxMem=  4294967296 cpu:              10.5 elap:               0.4
 (Enter /share/apps/g16/l202.exe)
 Stoichiometry    C23H27N17O3
 Framework group  C1[X(C23H27N17O3)]
 Deg. of freedom   204
 Full point group                 C1      NOp   1
 Largest Abelian subgroup         C1      NOp   1
 Largest concise Abelian subgroup C1      NOp   1
                         Standard orientation:                         
 ---------------------------------------------------------------------
 Center     Atomic      Atomic             Coordinates (Angstroms)
 Number     Number       Type             X           Y           Z
 ---------------------------------------------------------------------
      1          7           0       -7.133010   -0.783823    0.171128
      2          6           0       -8.414924   -0.129012    0.496573
      3          6           0       -5.004026   -1.332182    0.107662
      4          7           0       -5.650890   -2.184945   -0.774981
      5          6           0       -6.907638   -1.820450   -0.701427
      6          1           0       -7.719953   -2.277829   -1.267018
      7          7           0       -3.344425   -0.253803    1.390547
      8          6           0       -4.325912    0.513830    1.875311
      9          1           0       -4.014279    1.264022    2.600813
     10          7           0       -5.628440    0.493977    1.599745
     11          6           0       -5.904581   -0.462947    0.698377
     12          6           0       -3.654672   -1.207429    0.485335
     13          7           0       -2.676318   -1.974691    0.000264
     14          1           0       -2.860056   -2.692990   -0.671671
     15          1           0       -1.726863   -1.857736    0.291818
     16          1           0       -9.048522   -0.803524    0.875735
     17          1           0       -8.259248    0.594952    1.167963
     18          1           0       -8.809314    0.266952   -0.332689
     19          7           0       -2.864406    1.978096   -1.355215
     20          6           0       -1.522459    2.033480   -1.065087
     21          6           0       -3.864226    2.993361   -0.967553
     22          7           0        1.175675    3.667286    0.388339
     23          1           0        2.158689    3.518902    0.492875
     24          1           0        0.797206    4.500780    0.791799
     25          7           0       -0.896824    3.016766   -0.382620
     26          6           0        0.399078    2.788631   -0.263394
     27          7           0        1.035540    1.682778   -0.772815
     28          1           0        2.030119    1.590937   -0.633737
     29          6           0        0.411773    0.658547   -1.478314
     30          8           0        1.078451   -0.296481   -1.895709
     31          6           0       -0.980688    0.889599   -1.614470
     32          7           0       -1.962743    0.131345   -2.236977
     33          6           0       -3.060742    0.814438   -2.058068
     34          1           0       -4.044837    0.513955   -2.419347
     35          1           0       -4.562582    2.572264   -0.389818
     36          1           0       -3.412391    3.726771   -0.461372
     37          1           0       -4.293408    3.370959   -1.787339
     38          1           0        6.858640    1.407086    0.948779
     39          1           0        7.194629    2.013772   -0.670998
     40          1           0        5.692760    2.456059    0.141471
     41          1           0        6.421534   -2.639823   -1.615999
     42          6           0        5.851772   -1.736935   -1.396020
     43          8           0        3.790738   -2.630438   -2.158197
     44          6           0        4.448775   -1.708650   -1.676444
     45          1           0        2.831780   -0.461146   -1.544616
     46          7           0        3.823502   -0.519293   -1.360677
     47          8           0        3.764173    1.610659   -0.575219
     48          6           0        4.402076    0.601959   -0.820699
     49          1           0        7.508258   -0.629408   -0.637581
     50          6           0        6.444418   -0.658981   -0.869329
     51          6           0        6.419630    1.670441   -0.002002
     52          7           0        5.757691    0.497031   -0.578801
     53          1           0        3.938486    1.032014    4.216876
     54          1           0        2.805902    1.827237    3.352609
     55          1           0        4.357576    1.812912    2.846482
     56          1           0        0.566567   -3.645546   -0.453884
     57          1           0        2.213376   -3.788530   -0.032389
     58          7           0        1.364593   -3.260315    0.009685
     59          6           0        1.300816   -2.094138    0.655546
     60          6           0        2.172170   -0.296069    1.947599
     61          7           0        1.018910    0.391546    1.987600
     62          1           0       -0.907932    0.231549    1.307685
     63          6           0        0.064468   -0.258761    1.325001
     64          7           0        0.126359   -1.426854    0.677473
     65          1           0        5.286276   -0.938266    2.532518
     66          6           0        4.246872   -0.958252    2.203592
     67          7           0        3.708887   -1.918111    1.491609
     68          6           0        2.393566   -1.510733    1.322216
     69          6           0        3.640199    1.279732    3.295114
     70          7           0        3.373930    0.055423    2.515253
 ---------------------------------------------------------------------
 Rotational constants (GHZ):           0.1794078           0.0471005           0.0449531
 Leave Link  202 at Thu Jan 18 21:15:40 2018, MaxMem=  4294967296 cpu:               0.3 elap:               0.0
 (Enter /share/apps/g16/l301.exe)
 Standard basis: CC-pVDZ (5D, 7F)
 Ernie: Thresh=  0.10000D-02 Tol=  0.10000D-05 Strict=F.
 Ernie:  86 primitive shells out of 1081 were deleted.
 There are   780 symmetry adapted cartesian basis functions of A   symmetry.
 There are   737 symmetry adapted basis functions of A   symmetry.
   737 basis functions,  1608 primitive gaussians,   780 cartesian basis functions
   154 alpha electrons      154 beta electrons
       nuclear repulsion energy      5474.5857020670 Hartrees.
 IExCor= 4639 DFT=T Ex+Corr=wB97XD ExCW=0 ScaHFX=  1.000000
 ScaDFX=  1.000000  1.000000  1.000000  1.000000 ScalE2=  1.000000  1.000000
 IRadAn=      5 IRanWt=     -1 IRanGd=            0 ICorTp=0 IEmpDi=121
 HFx  wShort=  0.000000 wLong=  0.200000 cFull=  0.222036 cShort=  0.000000 cLong=  0.777964
 DFx  wShort=  0.000000 wLong=  0.200000 cFull=  0.000000 cShort=  0.000000 cLong=  1.000000
 NAtoms=   70 NActive=   70 NUniq=   70 SFac= 1.00D+00 NAtFMM=   60 NAOKFM=T Big=T
 Integral buffers will be    131072 words long.
 Raffenetti 2 integral format.
 Two-electron integral symmetry is turned on.
 R6Disp:  Grimme-D2 Dispersion energy=       -0.0713287309 Hartrees.
 Nuclear repulsion after empirical dispersion term =     5474.5143733361 Hartrees.
 Leave Link  301 at Thu Jan 18 21:15:40 2018, MaxMem=  4294967296 cpu:               2.2 elap:               0.1
 (Enter /share/apps/g16/l302.exe)
 NPDir=0 NMtPBC=     1 NCelOv=     1 NCel=       1 NClECP=     1 NCelD=      1
         NCelK=      1 NCelE2=     1 NClLst=     1 CellRange=     0.0.
 One-electron integrals computed using PRISM.
 One-electron integral symmetry used in STVInt
 NBasis=   737 RedAO= T EigKep=  7.08D-04  NBF=   737
 NBsUse=   737 1.00D-06 EigRej= -1.00D+00 NBFU=   737
 Precomputing XC quadrature grid using
 IXCGrd= 4 IRadAn=           5 IRanWt=          -1 IRanGd=           0 AccXCQ= 0.00D+00.
 Generated NRdTot=       0 NPtTot=           0 NUsed=           0 NTot=          32
 NSgBfM=   754   754   754   754   754 MxSgAt=    70 MxSgA2=    70.
 Leave Link  302 at Thu Jan 18 21:15:44 2018, MaxMem=  4294967296 cpu:             134.3 elap:               4.2
 (Enter /share/apps/g16/l303.exe)
 DipDrv:  MaxL=1.
 Leave Link  303 at Thu Jan 18 21:15:45 2018, MaxMem=  4294967296 cpu:              12.4 elap:               0.4
 (Enter /share/apps/g16/l401.exe)
 ExpMin= 1.22D-01 ExpMax= 1.17D+04 ExpMxC= 4.01D+02 IAcc=3 IRadAn=         5 AccDes= 0.00D+00
 Harris functional with IExCor= 4639 and IRadAn=       5 diagonalized for initial guess.
 HarFok:  IExCor= 4639 AccDes= 0.00D+00 IRadAn=         5 IDoV= 1 UseB2=F ITyADJ=14
 ICtDFT=  3500011 ScaDFX=  1.000000  1.000000  1.000000  1.000000
 FoFCou: FMM=F IPFlag=           0 FMFlag=      100000 FMFlg1=        2001
         NFxFlg=           0 DoJE=T BraDBF=F KetDBF=T FulRan=T
         wScrn=  0.000000 ICntrl=       500 IOpCl=  0 I1Cent=   200000004 NGrid=           0
         NMat0=    1 NMatS0=      1 NMatT0=    0 NMatD0=    1 NMtDS0=    0 NMtDT0=    0
 Petite list used in FoFCou.
 Harris En= -1963.88789172352    
 JPrj=0 DoOrth=F DoCkMO=F.
 Leave Link  401 at Thu Jan 18 21:15:57 2018, MaxMem=  4294967296 cpu:             398.9 elap:              12.5
 (Enter /share/apps/g16/l502.exe)
 Integral symmetry usage will be decided dynamically.
 Closed shell SCF:
 Using DIIS extrapolation, IDIIS=  1040.
 NGot=  4294967296 LenX=  4293717438 LenY=  4293108258
 Requested convergence on RMS density matrix=1.00D-08 within  20 cycles.
 Requested convergence on MAX density matrix=1.00D-06.
 Requested convergence on             energy=1.00D-06.
 No special actions if energy rises.
 Fock matrices will be formed incrementally for  20 cycles.
 Integral accuracy reduced to 1.0D-05 until final iterations.

 Cycle   1  Pass 0  IDiag  1:
 FoFJK:  IHMeth= 1 ICntrl=       0 DoSepK=T KAlg= 0 I1Cent=           0 FoldK=F
 IRaf=         1 NMat=       1 IRICut=       1 DoRegI=T DoRafI=F ISym2E= 0 IDoP0=0 IntGTp=1.
 FoFCou: FMM=T IPFlag=           0 FMFlag=      100000 FMFlg1=        2001
         NFxFlg=           0 DoJE=T BraDBF=F KetDBF=F FulRan=T
         wScrn=  0.000000 ICntrl=       500 IOpCl=  0 I1Cent=           0 NGrid=           0
         NMat0=    1 NMatS0=      1 NMatT0=    0 NMatD0=    1 NMtDS0=    0 NMtDT0=    0
 Symmetry not used in FoFCou.
 FMM levels:  10  Number of levels for PrismC:   9
 E= -2048.31566088136    
 DIIS: error= 2.29D-02 at cycle   1 NSaved=   1.
 NSaved= 1 IEnMin= 1 EnMin= -2048.31566088136     IErMin= 1 ErrMin= 2.29D-02
 ErrMax= 2.29D-02  0.00D+00 EMaxC= 1.00D-01 BMatC= 8.36D-01 BMatP= 8.36D-01
 IDIUse=3 WtCom= 7.71D-01 WtEn= 2.29D-01
 Coeff-Com:  0.100D+01
 Coeff-En:   0.100D+01
 Coeff:      0.100D+01
 Gap=     0.253 Goal=   None    Shift=    0.000
 GapD=    0.253 DampG=1.000 DampE=0.500 DampFc=0.5000 IDamp=-1.
 Damping current iteration by 5.00D-01
 RMSDP=1.59D-03 MaxDP=1.27D-01              OVMax= 2.13D-01

 Cycle   2  Pass 0  IDiag  1:
 RMSU=  7.96D-04    CP:  9.98D-01
 E= -2048.51237654533     Delta-E=       -0.196715663960 Rises=F Damp=T
 DIIS: error= 1.26D-02 at cycle   2 NSaved=   2.
 NSaved= 2 IEnMin= 2 EnMin= -2048.51237654533     IErMin= 2 ErrMin= 1.26D-02
 ErrMax= 1.26D-02  0.00D+00 EMaxC= 1.00D-01 BMatC= 1.46D-01 BMatP= 8.36D-01
 IDIUse=3 WtCom= 8.74D-01 WtEn= 1.26D-01
 Coeff-Com: -0.185D+00 0.119D+01
 Coeff-En:   0.000D+00 0.100D+01
 Coeff:     -0.162D+00 0.116D+01
 Gap=     0.368 Goal=   None    Shift=    0.000
 RMSDP=5.95D-04 MaxDP=3.42D-02 DE=-1.97D-01 OVMax= 1.63D-01

 Cycle   3  Pass 0  IDiag  1:
 RMSU=  5.87D-04    CP:  9.94D-01  1.11D+00
 E= -2048.69235167531     Delta-E=       -0.179975129990 Rises=F Damp=F
 DIIS: error= 7.13D-03 at cycle   3 NSaved=   3.
 NSaved= 3 IEnMin= 3 EnMin= -2048.69235167531     IErMin= 3 ErrMin= 7.13D-03
 ErrMax= 7.13D-03  0.00D+00 EMaxC= 1.00D-01 BMatC= 6.65D-02 BMatP= 1.46D-01
 IDIUse=3 WtCom= 9.29D-01 WtEn= 7.13D-02
 Coeff-Com: -0.231D+00 0.552D+00 0.679D+00
 Coeff-En:   0.000D+00 0.000D+00 0.100D+01
 Coeff:     -0.214D+00 0.512D+00 0.702D+00
 Gap=     0.280 Goal=   None    Shift=    0.000
 RMSDP=3.71D-04 MaxDP=3.12D-02 DE=-1.80D-01 OVMax= 6.96D-02

 Cycle   4  Pass 0  IDiag  1:
 RMSU=  2.08D-04    CP:  9.94D-01  1.40D+00  6.61D-01
 E= -2048.74332827707     Delta-E=       -0.050976601752 Rises=F Damp=F
 DIIS: error= 2.82D-03 at cycle   4 NSaved=   4.
 NSaved= 4 IEnMin= 4 EnMin= -2048.74332827707     IErMin= 4 ErrMin= 2.82D-03
 ErrMax= 2.82D-03  0.00D+00 EMaxC= 1.00D-01 BMatC= 9.45D-03 BMatP= 6.65D-02
 IDIUse=3 WtCom= 9.72D-01 WtEn= 2.82D-02
 Coeff-Com: -0.959D-01 0.186D+00 0.376D+00 0.534D+00
 Coeff-En:   0.000D+00 0.000D+00 0.651D-01 0.935D+00
 Coeff:     -0.932D-01 0.180D+00 0.367D+00 0.546D+00
 Gap=     0.286 Goal=   None    Shift=    0.000
 RMSDP=1.30D-04 MaxDP=1.13D-02 DE=-5.10D-02 OVMax= 1.62D-02

 Cycle   5  Pass 0  IDiag  1:
 RMSU=  6.10D-05    CP:  9.94D-01  1.37D+00  7.97D-01  6.20D-01
 E= -2048.75124281108     Delta-E=       -0.007914534014 Rises=F Damp=F
 DIIS: error= 5.70D-04 at cycle   5 NSaved=   5.
 NSaved= 5 IEnMin= 5 EnMin= -2048.75124281108     IErMin= 5 ErrMin= 5.70D-04
 ErrMax= 5.70D-04  0.00D+00 EMaxC= 1.00D-01 BMatC= 2.97D-04 BMatP= 9.45D-03
 IDIUse=3 WtCom= 9.94D-01 WtEn= 5.70D-03
 Coeff-Com: -0.246D-01 0.419D-01 0.119D+00 0.238D+00 0.625D+00
 Coeff-En:   0.000D+00 0.000D+00 0.000D+00 0.000D+00 0.100D+01
 Coeff:     -0.244D-01 0.417D-01 0.118D+00 0.237D+00 0.627D+00
 Gap=     0.286 Goal=   None    Shift=    0.000
 RMSDP=2.70D-05 MaxDP=1.92D-03 DE=-7.91D-03 OVMax= 3.28D-03

 Failed to achieve initial convergence to 1.0D-08 in  6 cycles.
 Switch to full accuracy anyway.
 Cycle   6  Pass 1  IDiag  1:
 E= -2048.75143034026     Delta-E=       -0.000187529175 Rises=F Damp=F
 DIIS: error= 2.15D-04 at cycle   1 NSaved=   1.
 NSaved= 1 IEnMin= 1 EnMin= -2048.75143034026     IErMin= 1 ErrMin= 2.15D-04
 ErrMax= 2.15D-04  0.00D+00 EMaxC= 1.00D-01 BMatC= 7.66D-05 BMatP= 7.66D-05
 IDIUse=3 WtCom= 9.98D-01 WtEn= 2.15D-03
 Coeff-Com:  0.100D+01
 Coeff-En:   0.100D+01
 Coeff:      0.100D+01
 Gap=     0.286 Goal=   None    Shift=    0.000
 RMSDP=2.70D-05 MaxDP=1.92D-03 DE=-1.88D-04 OVMax= 2.20D-03

 Cycle   7  Pass 1  IDiag  1:
 RMSU=  1.14D-04    CP:  1.00D+00
 E= -2048.75148493145     Delta-E=       -0.000054591190 Rises=F Damp=F
 DIIS: error= 2.76D-04 at cycle   2 NSaved=   2.
 NSaved= 2 IEnMin= 2 EnMin= -2048.75148493145     IErMin= 1 ErrMin= 2.15D-04
 ErrMax= 2.76D-04  0.00D+00 EMaxC= 1.00D-01 BMatC= 4.56D-05 BMatP= 7.66D-05
 IDIUse=3 WtCom= 9.97D-01 WtEn= 2.76D-03
 Coeff-Com:  0.413D+00 0.587D+00
 Coeff-En:   0.000D+00 0.100D+01
 Coeff:      0.412D+00 0.588D+00
 Gap=     0.286 Goal=   None    Shift=    0.000
 RMSDP=1.19D-05 MaxDP=1.13D-03 DE=-5.46D-05 OVMax= 1.42D-03

 Cycle   8  Pass 1  IDiag  1:
 RMSU=  1.16D-05    CP:  1.00D+00  1.02D+00
 E= -2048.75151782837     Delta-E=       -0.000032896924 Rises=F Damp=F
 DIIS: error= 1.15D-04 at cycle   3 NSaved=   3.
 NSaved= 3 IEnMin= 3 EnMin= -2048.75151782837     IErMin= 3 ErrMin= 1.15D-04
 ErrMax= 1.15D-04  0.00D+00 EMaxC= 1.00D-01 BMatC= 1.05D-05 BMatP= 4.56D-05
 IDIUse=3 WtCom= 9.99D-01 WtEn= 1.15D-03
 Coeff-Com: -0.198D-01 0.311D+00 0.709D+00
 Coeff-En:   0.000D+00 0.132D+00 0.868D+00
 Coeff:     -0.197D-01 0.311D+00 0.709D+00
 Gap=     0.286 Goal=   None    Shift=    0.000
 RMSDP=5.79D-06 MaxDP=4.51D-04 DE=-3.29D-05 OVMax= 6.29D-04

 Cycle   9  Pass 1  IDiag  1:
 RMSU=  3.87D-06    CP:  1.00D+00  1.05D+00  7.62D-01
 E= -2048.75152766138     Delta-E=       -0.000009833007 Rises=F Damp=F
 DIIS: error= 3.53D-05 at cycle   4 NSaved=   4.
 NSaved= 4 IEnMin= 4 EnMin= -2048.75152766138     IErMin= 4 ErrMin= 3.53D-05
 ErrMax= 3.53D-05  0.00D+00 EMaxC= 1.00D-01 BMatC= 5.02D-07 BMatP= 1.05D-05
 IDIUse=1 WtCom= 1.00D+00 WtEn= 0.00D+00
 Coeff-Com: -0.308D-01 0.838D-01 0.257D+00 0.690D+00
 Coeff:     -0.308D-01 0.838D-01 0.257D+00 0.690D+00
 Gap=     0.286 Goal=   None    Shift=    0.000
 RMSDP=1.45D-06 MaxDP=1.17D-04 DE=-9.83D-06 OVMax= 4.48D-04

 Cycle  10  Pass 1  IDiag  1:
 RMSU=  1.29D-06    CP:  1.00D+00  1.06D+00  7.95D-01  1.11D+00
 E= -2048.75152851824     Delta-E=       -0.000000856865 Rises=F Damp=F
 DIIS: error= 1.64D-05 at cycle   5 NSaved=   5.
 NSaved= 5 IEnMin= 5 EnMin= -2048.75152851824     IErMin= 5 ErrMin= 1.64D-05
 ErrMax= 1.64D-05  0.00D+00 EMaxC= 1.00D-01 BMatC= 1.24D-07 BMatP= 5.02D-07
 IDIUse=1 WtCom= 1.00D+00 WtEn= 0.00D+00
 Coeff-Com: -0.305D-02-0.569D-01-0.124D+00 0.207D+00 0.977D+00
 Coeff:     -0.305D-02-0.569D-01-0.124D+00 0.207D+00 0.977D+00
 Gap=     0.286 Goal=   None    Shift=    0.000
 RMSDP=1.23D-06 MaxDP=6.98D-05 DE=-8.57D-07 OVMax= 2.33D-04

 Cycle  11  Pass 1  IDiag  1:
 RMSU=  4.86D-07    CP:  1.00D+00  1.06D+00  8.04D-01  1.39D+00  1.17D+00
 E= -2048.75152878530     Delta-E=       -0.000000267061 Rises=F Damp=F
 DIIS: error= 8.29D-06 at cycle   6 NSaved=   6.
 NSaved= 6 IEnMin= 6 EnMin= -2048.75152878530     IErMin= 6 ErrMin= 8.29D-06
 ErrMax= 8.29D-06  0.00D+00 EMaxC= 1.00D-01 BMatC= 2.98D-08 BMatP= 1.24D-07
 IDIUse=1 WtCom= 1.00D+00 WtEn= 0.00D+00
 Coeff-Com:  0.455D-02-0.451D-01-0.115D+00 0.146D-02 0.525D+00 0.629D+00
 Coeff:      0.455D-02-0.451D-01-0.115D+00 0.146D-02 0.525D+00 0.629D+00
 Gap=     0.286 Goal=   None    Shift=    0.000
 RMSDP=3.64D-07 MaxDP=3.25D-05 DE=-2.67D-07 OVMax= 1.12D-04

 Cycle  12  Pass 1  IDiag  1:
 RMSU=  1.82D-07    CP:  1.00D+00  1.06D+00  8.06D-01  1.46D+00  1.29D+00
                    CP:  9.21D-01
 E= -2048.75152882732     Delta-E=       -0.000000042018 Rises=F Damp=F
 DIIS: error= 1.33D-06 at cycle   7 NSaved=   7.
 NSaved= 7 IEnMin= 7 EnMin= -2048.75152882732     IErMin= 7 ErrMin= 1.33D-06
 ErrMax= 1.33D-06  0.00D+00 EMaxC= 1.00D-01 BMatC= 7.86D-10 BMatP= 2.98D-08
 IDIUse=1 WtCom= 1.00D+00 WtEn= 0.00D+00
 Coeff-Com:  0.109D-02-0.734D-02-0.202D-01-0.807D-02 0.592D-01 0.136D+00
 Coeff-Com:  0.839D+00
 Coeff:      0.109D-02-0.734D-02-0.202D-01-0.807D-02 0.592D-01 0.136D+00
 Coeff:      0.839D+00
 Gap=     0.286 Goal=   None    Shift=    0.000
 RMSDP=8.39D-08 MaxDP=4.57D-06 DE=-4.20D-08 OVMax= 2.04D-05

 Cycle  13  Pass 1  IDiag  1:
 RMSU=  5.07D-08    CP:  1.00D+00  1.06D+00  8.05D-01  1.47D+00  1.31D+00
                    CP:  1.00D+00  1.13D+00
 E= -2048.75152882907     Delta-E=       -0.000000001753 Rises=F Damp=F
 DIIS: error= 6.98D-07 at cycle   8 NSaved=   8.
 NSaved= 8 IEnMin= 8 EnMin= -2048.75152882907     IErMin= 8 ErrMin= 6.98D-07
 ErrMax= 6.98D-07  0.00D+00 EMaxC= 1.00D-01 BMatC= 3.14D-10 BMatP= 7.86D-10
 IDIUse=1 WtCom= 1.00D+00 WtEn= 0.00D+00
 Coeff-Com: -0.694D-03 0.869D-02 0.210D-01-0.243D-02-0.112D+00-0.100D+00
 Coeff-Com:  0.411D+00 0.774D+00
 Coeff:     -0.694D-03 0.869D-02 0.210D-01-0.243D-02-0.112D+00-0.100D+00
 Coeff:      0.411D+00 0.774D+00
 Gap=     0.286 Goal=   None    Shift=    0.000
 RMSDP=4.58D-08 MaxDP=2.42D-06 DE=-1.75D-09 OVMax= 9.97D-06

 Cycle  14  Pass 1  IDiag  1:
 RMSU=  2.63D-08    CP:  1.00D+00  1.06D+00  8.05D-01  1.47D+00  1.32D+00
                    CP:  1.05D+00  1.28D+00  1.08D+00
 E= -2048.75152882951     Delta-E=       -0.000000000432 Rises=F Damp=F
 DIIS: error= 1.57D-07 at cycle   9 NSaved=   9.
 NSaved= 9 IEnMin= 9 EnMin= -2048.75152882951     IErMin= 9 ErrMin= 1.57D-07
 ErrMax= 1.57D-07  0.00D+00 EMaxC= 1.00D-01 BMatC= 2.37D-11 BMatP= 3.14D-10
 IDIUse=1 WtCom= 1.00D+00 WtEn= 0.00D+00
 Coeff-Com: -0.374D-03 0.405D-02 0.100D-01-0.801D-04-0.480D-01-0.520D-01
 Coeff-Com:  0.748D-01 0.276D+00 0.736D+00
 Coeff:     -0.374D-03 0.405D-02 0.100D-01-0.801D-04-0.480D-01-0.520D-01
 Coeff:      0.748D-01 0.276D+00 0.736D+00
 Gap=     0.286 Goal=   None    Shift=    0.000
 RMSDP=1.26D-08 MaxDP=6.53D-07 DE=-4.32D-10 OVMax= 2.90D-06

 Cycle  15  Pass 1  IDiag  1:
 RMSU=  8.59D-09    CP:  1.00D+00  1.06D+00  8.04D-01  1.47D+00  1.32D+00
                    CP:  1.05D+00  1.31D+00  1.20D+00  1.12D+00
 E= -2048.75152882957     Delta-E=       -0.000000000065 Rises=F Damp=F
 DIIS: error= 8.04D-08 at cycle  10 NSaved=  10.
 NSaved=10 IEnMin=10 EnMin= -2048.75152882957     IErMin=10 ErrMin= 8.04D-08
 ErrMax= 8.04D-08  0.00D+00 EMaxC= 1.00D-01 BMatC= 4.26D-12 BMatP= 2.37D-11
 IDIUse=1 WtCom= 1.00D+00 WtEn= 0.00D+00
 Coeff-Com:  0.261D-04-0.530D-03-0.119D-02 0.215D-03 0.804D-02 0.411D-02
 Coeff-Com: -0.568D-01-0.789D-01 0.252D+00 0.873D+00
 Coeff:      0.261D-04-0.530D-03-0.119D-02 0.215D-03 0.804D-02 0.411D-02
 Coeff:     -0.568D-01-0.789D-01 0.252D+00 0.873D+00
 Gap=     0.286 Goal=   None    Shift=    0.000
 RMSDP=6.28D-09 MaxDP=3.58D-07 DE=-6.46D-11 OVMax= 1.26D-06

 SCF Done:  E(RwB97XD) =  -2048.75152883     A.U. after   15 cycles
            NFock= 15  Conv=0.63D-08     -V/T= 2.0054
 KE= 2.037709873153D+03 PE=-1.573004484421D+04 EE= 6.169069068894D+03
 Leave Link  502 at Thu Jan 18 21:27:21 2018, MaxMem=  4294967296 cpu:           21035.0 elap:             683.6
 (Enter /share/apps/g16/l601.exe)
 Copying SCF densities to generalized density rwf, IOpCl= 0 IROHF=0.

 **********************************************************************

            Population analysis using the SCF density.

 **********************************************************************

 Orbital symmetries:
       Occupied  (A) (A) (A) (A) (A) (A) (A) (A) (A) (A) (A) (A)
                 (A) (A) (A) (A) (A) (A) (A) (A) (A) (A) (A) (A)
                 (A) (A) (A) (A) (A) (A) (A) (A) (A) (A) (A) (A)
                 (A) (A) (A) (A) (A) (A) (A) (A) (A) (A) (A) (A)
                 (A) (A) (A) (A) (A) (A) (A) (A) (A) (A) (A) (A)
                 (A) (A) (A) (A) (A) (A) (A) (A) (A) (A) (A) (A)
                 (A) (A) (A) (A) (A) (A) (A) (A) (A) (A) (A) (A)
                 (A) (A) (A) (A) (A) (A) (A) (A) (A) (A) (A) (A)
                 (A) (A) (A) (A) (A) (A) (A) (A) (A) (A) (A) (A)
                 (A) (A) (A) (A) (A) (A) (A) (A) (A) (A) (A) (A)
                 (A) (A) (A) (A) (A) (A) (A) (A) (A) (A) (A) (A)
                 (A) (A) (A) (A) (A) (A) (A) (A) (A) (A) (A) (A)
                 (A) (A) (A) (A) (A) (A) (A) (A) (A) (A)
       Virtual   (A) (A) (A) (A) (A) (A) (A) (A) (A) (A) (A) (A)
                 (A) (A) (A) (A) (A) (A) (A) (A) (A) (A) (A) (A)
                 (A) (A) (A) (A) (A) (A) (A) (A) (A) (A) (A) (A)
                 (A) (A) (A) (A) (A) (A) (A) (A) (A) (A) (A) (A)
                 (A) (A) (A) (A) (A) (A) (A) (A) (A) (A) (A) (A)
                 (A) (A) (A) (A) (A) (A) (A) (A) (A) (A) (A) (A)
                 (A) (A) (A) (A) (A) (A) (A) (A) (A) (A) (A) (A)
                 (A) (A) (A) (A) (A) (A) (A) (A) (A) (A) (A) (A)
                 (A) (A) (A) (A) (A) (A) (A) (A) (A) (A) (A) (A)
                 (A) (A) (A) (A) (A) (A) (A) (A) (A) (A) (A) (A)
                 (A) (A) (A) (A) (A) (A) (A) (A) (A) (A) (A) (A)
                 (A) (A) (A) (A) (A) (A) (A) (A) (A) (A) (A) (A)
                 (A) (A) (A) (A) (A) (A) (A) (A) (A) (A) (A) (A)
                 (A) (A) (A) (A) (A) (A) (A) (A) (A) (A) (A) (A)
                 (A) (A) (A) (A) (A) (A) (A) (A) (A) (A) (A) (A)
                 (A) (A) (A) (A) (A) (A) (A) (A) (A) (A) (A) (A)
                 (A) (A) (A) (A) (A) (A) (A) (A) (A) (A) (A) (A)
                 (A) (A) (A) (A) (A) (A) (A) (A) (A) (A) (A) (A)
                 (A) (A) (A) (A) (A) (A) (A) (A) (A) (A) (A) (A)
                 (A) (A) (A) (A) (A) (A) (A) (A) (A) (A) (A) (A)
                 (A) (A) (A) (A) (A) (A) (A) (A) (A) (A) (A) (A)
                 (A) (A) (A) (A) (A) (A) (A) (A) (A) (A) (A) (A)
                 (A) (A) (A) (A) (A) (A) (A) (A) (A) (A) (A) (A)
                 (A) (A) (A) (A) (A) (A) (A) (A) (A) (A) (A) (A)
                 (A) (A) (A) (A) (A) (A) (A) (A) (A) (A) (A) (A)
                 (A) (A) (A) (A) (A) (A) (A) (A) (A) (A) (A) (A)
                 (A) (A) (A) (A) (A) (A) (A) (A) (A) (A) (A) (A)
                 (A) (A) (A) (A) (A) (A) (A) (A) (A) (A) (A) (A)
                 (A) (A) (A) (A) (A) (A) (A) (A) (A) (A) (A) (A)
                 (A) (A) (A) (A) (A) (A) (A) (A) (A) (A) (A) (A)
                 (A) (A) (A) (A) (A) (A) (A) (A) (A) (A) (A) (A)
                 (A) (A) (A) (A) (A) (A) (A) (A) (A) (A) (A) (A)
                 (A) (A) (A) (A) (A) (A) (A) (A) (A) (A) (A) (A)
                 (A) (A) (A) (A) (A) (A) (A) (A) (A) (A) (A) (A)
                 (A) (A) (A) (A) (A) (A) (A) (A) (A) (A) (A) (A)
                 (A) (A) (A) (A) (A) (A) (A) (A) (A) (A) (A) (A)
                 (A) (A) (A) (A) (A) (A) (A) (A) (A) (A) (A) (A)
                 (A) (A) (A) (A) (A) (A) (A) (A) (A) (A) (A) (A)
                 (A) (A) (A) (A) (A) (A) (A) (A) (A) (A) (A) (A)
                 (A) (A) (A) (A) (A) (A) (A) (A) (A) (A) (A) (A)
                 (A) (A) (A) (A) (A) (A) (A) (A) (A) (A) (A) (A)
                 (A) (A) (A) (A) (A) (A) (A) (A) (A) (A) (A) (A)
                 (A) (A) (A) (A) (A) (A) (A) (A) (A) (A) (A) (A)
                 (A) (A) (A) (A) (A) (A) (A) (A) (A) (A) (A) (A)
                 (A) (A) (A) (A) (A) (A) (A) (A) (A) (A) (A) (A)
                 (A) (A) (A) (A) (A) (A) (A) (A) (A) (A) (A) (A)
                 (A) (A) (A) (A) (A) (A) (A) (A) (A) (A) (A) (A)
                 (A) (A) (A) (A) (A) (A) (A) (A) (A) (A) (A) (A)
                 (A) (A) (A) (A) (A) (A) (A)
 The electronic state is 1-A.
 Alpha  occ. eigenvalues --  -19.26079 -19.22033 -19.20704 -14.52603 -14.50986
 Alpha  occ. eigenvalues --  -14.49858 -14.48553 -14.47823 -14.46868 -14.46754
 Alpha  occ. eigenvalues --  -14.45702 -14.43856 -14.42809 -14.42564 -14.42466
 Alpha  occ. eigenvalues --  -14.42356 -14.42032 -14.41956 -14.41076 -14.40759
 Alpha  occ. eigenvalues --  -10.45629 -10.41220 -10.40120 -10.38304 -10.37880
 Alpha  occ. eigenvalues --  -10.37660 -10.36505 -10.36319 -10.35872 -10.35494
 Alpha  occ. eigenvalues --  -10.35188 -10.34477 -10.34307 -10.34089 -10.34032
 Alpha  occ. eigenvalues --  -10.33137 -10.33020 -10.31852 -10.31016 -10.30828
 Alpha  occ. eigenvalues --  -10.30368 -10.29651 -10.28103  -1.19617  -1.13633
 Alpha  occ. eigenvalues --   -1.13240  -1.13022  -1.12467  -1.10516  -1.09473
 Alpha  occ. eigenvalues --   -1.08609  -1.07228  -1.05953  -1.02768  -1.02514
 Alpha  occ. eigenvalues --   -1.01341  -0.99796  -0.99343  -0.98515  -0.97975
 Alpha  occ. eigenvalues --   -0.96421  -0.94890  -0.93546  -0.91027  -0.86074
 Alpha  occ. eigenvalues --   -0.84977  -0.84566  -0.84040  -0.83949  -0.83298
 Alpha  occ. eigenvalues --   -0.82226  -0.78910  -0.75301  -0.74543  -0.73848
 Alpha  occ. eigenvalues --   -0.73666  -0.73385  -0.73018  -0.72048  -0.68642
 Alpha  occ. eigenvalues --   -0.67376  -0.67234  -0.66601  -0.64943  -0.64477
 Alpha  occ. eigenvalues --   -0.63714  -0.63634  -0.62660  -0.62473  -0.61724
 Alpha  occ. eigenvalues --   -0.61024  -0.60240  -0.59560  -0.58857  -0.58426
 Alpha  occ. eigenvalues --   -0.58247  -0.58026  -0.57428  -0.57235  -0.56433
 Alpha  occ. eigenvalues --   -0.56120  -0.56084  -0.54457  -0.54416  -0.53923
 Alpha  occ. eigenvalues --   -0.53591  -0.53583  -0.52880  -0.52770  -0.52753
 Alpha  occ. eigenvalues --   -0.52238  -0.51954  -0.51728  -0.51271  -0.51063
 Alpha  occ. eigenvalues --   -0.50106  -0.49948  -0.49505  -0.48767  -0.48475
 Alpha  occ. eigenvalues --   -0.48343  -0.48211  -0.47882  -0.47832  -0.47690
 Alpha  occ. eigenvalues --   -0.47387  -0.45962  -0.44999  -0.44084  -0.43004
 Alpha  occ. eigenvalues --   -0.42124  -0.39626  -0.39120  -0.38182  -0.37287
 Alpha  occ. eigenvalues --   -0.37189  -0.36584  -0.35834  -0.35228  -0.34566
 Alpha  occ. eigenvalues --   -0.34477  -0.34467  -0.33271  -0.32874  -0.32823
 Alpha  occ. eigenvalues --   -0.32609  -0.32269  -0.31935  -0.31874  -0.31831
 Alpha  occ. eigenvalues --   -0.31241  -0.27995  -0.26655  -0.25454
 Alpha virt. eigenvalues --    0.03159   0.05510   0.06882   0.08222   0.08889
 Alpha virt. eigenvalues --    0.09100   0.09736   0.10139   0.10678   0.12354
 Alpha virt. eigenvalues --    0.13003   0.13102   0.14616   0.14775   0.15665
 Alpha virt. eigenvalues --    0.15899   0.16434   0.17228   0.17363   0.18601
 Alpha virt. eigenvalues --    0.18936   0.19128   0.19601   0.19938   0.20576
 Alpha virt. eigenvalues --    0.20685   0.21224   0.21496   0.21802   0.22663
 Alpha virt. eigenvalues --    0.22801   0.23054   0.23120   0.23312   0.23510
 Alpha virt. eigenvalues --    0.23594   0.23726   0.24353   0.25090   0.25429
 Alpha virt. eigenvalues --    0.25908   0.26695   0.26840   0.27437   0.27951
 Alpha virt. eigenvalues --    0.28148   0.29073   0.29596   0.30340   0.30797
 Alpha virt. eigenvalues --    0.31492   0.32066   0.33000   0.33295   0.33880
 Alpha virt. eigenvalues --    0.33892   0.35026   0.35192   0.36164   0.36532
 Alpha virt. eigenvalues --    0.37105   0.37595   0.38297   0.38705   0.39645
 Alpha virt. eigenvalues --    0.40498   0.40855   0.41335   0.41511   0.41788
 Alpha virt. eigenvalues --    0.42354   0.42925   0.43237   0.43635   0.44294
 Alpha virt. eigenvalues --    0.45536   0.45686   0.45911   0.46174   0.46630
 Alpha virt. eigenvalues --    0.47075   0.48305   0.48570   0.48862   0.49385
 Alpha virt. eigenvalues --    0.49900   0.50484   0.50575   0.50883   0.51058
 Alpha virt. eigenvalues --    0.51525   0.52174   0.52513   0.53244   0.53552
 Alpha virt. eigenvalues --    0.54099   0.54321   0.54790   0.55013   0.55287
 Alpha virt. eigenvalues --    0.55471   0.56380   0.56654   0.57078   0.57297
 Alpha virt. eigenvalues --    0.58015   0.58587   0.59031   0.59376   0.59650
 Alpha virt. eigenvalues --    0.60120   0.60754   0.60867   0.60966   0.61199
 Alpha virt. eigenvalues --    0.61673   0.61944   0.62381   0.63150   0.63832
 Alpha virt. eigenvalues --    0.64054   0.64324   0.64666   0.65006   0.65327
 Alpha virt. eigenvalues --    0.65622   0.66299   0.66648   0.66996   0.67218
 Alpha virt. eigenvalues --    0.67889   0.68326   0.68332   0.68975   0.69509
 Alpha virt. eigenvalues --    0.69943   0.70215   0.70600   0.71207   0.71615
 Alpha virt. eigenvalues --    0.72055   0.72704   0.73074   0.73665   0.73868
 Alpha virt. eigenvalues --    0.74212   0.74765   0.75088   0.75381   0.75619
 Alpha virt. eigenvalues --    0.75807   0.75963   0.76620   0.76808   0.77042
 Alpha virt. eigenvalues --    0.77668   0.77967   0.78516   0.78809   0.79108
 Alpha virt. eigenvalues --    0.79990   0.80168   0.80295   0.80716   0.81077
 Alpha virt. eigenvalues --    0.81722   0.81888   0.82215   0.82750   0.82999
 Alpha virt. eigenvalues --    0.83326   0.83895   0.84434   0.84664   0.85186
 Alpha virt. eigenvalues --    0.85663   0.86033   0.86671   0.87059   0.87618
 Alpha virt. eigenvalues --    0.87731   0.88225   0.88511   0.89455   0.89540
 Alpha virt. eigenvalues --    0.90250   0.90656   0.91152   0.91883   0.92081
 Alpha virt. eigenvalues --    0.92918   0.93121   0.93213   0.93742   0.93994
 Alpha virt. eigenvalues --    0.94577   0.95376   0.95513   0.96040   0.96819
 Alpha virt. eigenvalues --    0.97024   0.97223   0.98223   0.98640   0.99553
 Alpha virt. eigenvalues --    0.99752   1.00190   1.00426   1.00635   1.01053
 Alpha virt. eigenvalues --    1.01268   1.01931   1.02073   1.03014   1.03110
 Alpha virt. eigenvalues --    1.03608   1.03986   1.04128   1.04777   1.05122
 Alpha virt. eigenvalues --    1.05933   1.06494   1.06839   1.08020   1.09134
 Alpha virt. eigenvalues --    1.09377   1.10058   1.10768   1.11057   1.11299
 Alpha virt. eigenvalues --    1.11787   1.12357   1.12718   1.13078   1.13621
 Alpha virt. eigenvalues --    1.13806   1.14306   1.14938   1.15454   1.15685
 Alpha virt. eigenvalues --    1.16168   1.16672   1.16969   1.17550   1.18081
 Alpha virt. eigenvalues --    1.18152   1.18856   1.19092   1.19225   1.19763
 Alpha virt. eigenvalues --    1.20982   1.21032   1.21300   1.21503   1.21610
 Alpha virt. eigenvalues --    1.21895   1.22517   1.22737   1.23158   1.23372
 Alpha virt. eigenvalues --    1.24130   1.24409   1.24486   1.24826   1.24977
 Alpha virt. eigenvalues --    1.25894   1.26618   1.26743   1.28108   1.28765
 Alpha virt. eigenvalues --    1.29167   1.30008   1.30249   1.30867   1.31727
 Alpha virt. eigenvalues --    1.32398   1.32782   1.33562   1.33836   1.34458
 Alpha virt. eigenvalues --    1.35059   1.35191   1.36025   1.36268   1.36935
 Alpha virt. eigenvalues --    1.37510   1.38109   1.38861   1.39850   1.40179
 Alpha virt. eigenvalues --    1.41042   1.41630   1.42598   1.43654   1.44053
 Alpha virt. eigenvalues --    1.44671   1.46098   1.46763   1.47705   1.47883
 Alpha virt. eigenvalues --    1.48354   1.48978   1.49587   1.50518   1.51135
 Alpha virt. eigenvalues --    1.51596   1.52565   1.53303   1.54047   1.54275
 Alpha virt. eigenvalues --    1.54703   1.55256   1.56022   1.56865   1.57541
 Alpha virt. eigenvalues --    1.58265   1.59457   1.59769   1.60710   1.61136
 Alpha virt. eigenvalues --    1.61605   1.62269   1.62798   1.63310   1.63905
 Alpha virt. eigenvalues --    1.64555   1.65254   1.65819   1.66646   1.67157
 Alpha virt. eigenvalues --    1.67532   1.67910   1.68355   1.68573   1.69019
 Alpha virt. eigenvalues --    1.69369   1.70618   1.70921   1.71209   1.71827
 Alpha virt. eigenvalues --    1.72066   1.72160   1.72815   1.73167   1.73590
 Alpha virt. eigenvalues --    1.73847   1.74217   1.74504   1.74695   1.75196
 Alpha virt. eigenvalues --    1.75722   1.76237   1.76400   1.76848   1.77317
 Alpha virt. eigenvalues --    1.77771   1.77956   1.78373   1.78600   1.78946
 Alpha virt. eigenvalues --    1.79337   1.79471   1.79653   1.79884   1.80483
 Alpha virt. eigenvalues --    1.80669   1.81078   1.81525   1.82097   1.82522
 Alpha virt. eigenvalues --    1.82612   1.83123   1.83607   1.83735   1.84586
 Alpha virt. eigenvalues --    1.85684   1.86290   1.86415   1.86860   1.87295
 Alpha virt. eigenvalues --    1.87449   1.88041   1.88594   1.88780   1.89018
 Alpha virt. eigenvalues --    1.89363   1.90266   1.90392   1.91139   1.91817
 Alpha virt. eigenvalues --    1.91909   1.92608   1.93204   1.93376   1.93978
 Alpha virt. eigenvalues --    1.94834   1.95427   1.96504   1.97014   1.97525
 Alpha virt. eigenvalues --    1.98309   1.98960   1.99406   2.00591   2.00682
 Alpha virt. eigenvalues --    2.01991   2.02188   2.03098   2.03870   2.04172
 Alpha virt. eigenvalues --    2.04464   2.06010   2.06402   2.06919   2.07698
 Alpha virt. eigenvalues --    2.08046   2.08408   2.09291   2.09632   2.09705
 Alpha virt. eigenvalues --    2.10531   2.11170   2.11960   2.12767   2.13304
 Alpha virt. eigenvalues --    2.13564   2.14124   2.15904   2.16706   2.17591
 Alpha virt. eigenvalues --    2.18987   2.19756   2.20192   2.20754   2.21526
 Alpha virt. eigenvalues --    2.21770   2.22039   2.23225   2.23386   2.23602
 Alpha virt. eigenvalues --    2.23853   2.24848   2.26239   2.26694   2.26734
 Alpha virt. eigenvalues --    2.26957   2.28003   2.28688   2.29092   2.29538
 Alpha virt. eigenvalues --    2.29933   2.30271   2.30650   2.32185   2.33244
 Alpha virt. eigenvalues --    2.33440   2.33548   2.33796   2.34297   2.34512
 Alpha virt. eigenvalues --    2.34895   2.36033   2.36486   2.37377   2.37488
 Alpha virt. eigenvalues --    2.37693   2.39234   2.40033   2.40572   2.40963
 Alpha virt. eigenvalues --    2.41173   2.42557   2.42861   2.43563   2.44256
 Alpha virt. eigenvalues --    2.44709   2.45795   2.46364   2.46929   2.47132
 Alpha virt. eigenvalues --    2.47388   2.48531   2.49206   2.50224   2.51787
 Alpha virt. eigenvalues --    2.53003   2.54036   2.54367   2.54752   2.55619
 Alpha virt. eigenvalues --    2.56931   2.57376   2.57688   2.58332   2.59488
 Alpha virt. eigenvalues --    2.60526   2.60678   2.61639   2.61980   2.63296
 Alpha virt. eigenvalues --    2.64113   2.65081   2.65294   2.66227   2.66899
 Alpha virt. eigenvalues --    2.67244   2.67644   2.68046   2.68247   2.69497
 Alpha virt. eigenvalues --    2.70636   2.71019   2.71673   2.71749   2.72738
 Alpha virt. eigenvalues --    2.73612   2.74103   2.74729   2.75342   2.76056
 Alpha virt. eigenvalues --    2.78008   2.78731   2.79109   2.79186   2.79755
 Alpha virt. eigenvalues --    2.79805   2.80794   2.80968   2.81374   2.82038
 Alpha virt. eigenvalues --    2.82219   2.82759   2.83268   2.83622   2.83812
 Alpha virt. eigenvalues --    2.85208   2.85811   2.86471   2.86666   2.86930
 Alpha virt. eigenvalues --    2.87953   2.88163   2.89290   2.91512   2.92985
 Alpha virt. eigenvalues --    2.94215   2.96724   2.97333   2.98480   2.98839
 Alpha virt. eigenvalues --    3.00294   3.01210   3.02450   3.04578   3.06052
 Alpha virt. eigenvalues --    3.06648   3.09586   3.11273   3.14128   3.14529
 Alpha virt. eigenvalues --    3.15513   3.16003   3.16137   3.17769   3.19990
 Alpha virt. eigenvalues --    3.22749   3.22846   3.23946   3.24842   3.27262
 Alpha virt. eigenvalues --    3.46382   3.46678   3.47905   3.50103   3.50721
 Alpha virt. eigenvalues --    3.52590   3.54586   3.56274   3.58087   3.60014
 Alpha virt. eigenvalues --    3.62442   3.71386   3.74620
          Condensed to atoms (all electrons):
 Mulliken charges:
               1
     1  N   -0.309984
     2  C    0.180507
     3  C    0.031213
     4  N   -0.256153
     5  C    0.130766
     6  H    0.029729
     7  N   -0.276962
     8  C    0.128423
     9  H    0.018740
    10  N   -0.290533
    11  C    0.235180
    12  C    0.090744
    13  N   -0.033939
    14  H    0.107734
    15  H    0.090710
    16  H    0.028500
    17  H    0.036185
    18  H    0.025653
    19  N   -0.301512
    20  C    0.246986
    21  C    0.182333
    22  N   -0.119361
    23  H    0.111238
    24  H    0.117836
    25  N   -0.303698
    26  C    0.240336
    27  N   -0.125252
    28  H    0.118554
    29  C    0.154821
    30  O   -0.324798
    31  C   -0.002664
    32  N   -0.227127
    33  C    0.121724
    34  H    0.030483
    35  H    0.027911
    36  H    0.027084
    37  H    0.021719
    38  H    0.052058
    39  H    0.064606
    40  H    0.076139
    41  H    0.030457
    42  C   -0.088069
    43  O   -0.275430
    44  C    0.188077
    45  H    0.134456
    46  N   -0.128042
    47  O   -0.351200
    48  C    0.345363
    49  H    0.044980
    50  C    0.162025
    51  C    0.037214
    52  N   -0.289846
    53  H    0.030833
    54  H    0.037833
    55  H    0.015333
    56  H    0.116357
    57  H    0.120965
    58  N   -0.048312
    59  C    0.130098
    60  C    0.236378
    61  N   -0.271696
    62  H    0.039771
    63  C    0.153370
    64  N   -0.304256
    65  H    0.022869
    66  C    0.115111
    67  N   -0.249511
    68  C    0.010852
    69  C    0.180475
    70  N   -0.302384
 Sum of Mulliken charges =  -0.00000
 Mulliken charges with hydrogens summed into heavy atoms:
               1
     1  N   -0.309984
     2  C    0.270844
     3  C    0.031213
     4  N   -0.256153
     5  C    0.160495
     7  N   -0.276962
     8  C    0.147163
    10  N   -0.290533
    11  C    0.235180
    12  C    0.090744
    13  N    0.164505
    19  N   -0.301512
    20  C    0.246986
    21  C    0.259048
    22  N    0.109713
    25  N   -0.303698
    26  C    0.240336
    27  N   -0.006698
    29  C    0.154821
    30  O   -0.324798
    31  C   -0.002664
    32  N   -0.227127
    33  C    0.152207
    42  C   -0.057612
    43  O   -0.275430
    44  C    0.188077
    46  N    0.006414
    47  O   -0.351200
    48  C    0.345363
    50  C    0.207005
    51  C    0.230017
    52  N   -0.289846
    58  N    0.189009
    59  C    0.130098
    60  C    0.236378
    61  N   -0.271696
    63  C    0.193141
    64  N   -0.304256
    66  C    0.137980
    67  N   -0.249511
    68  C    0.010852
    69  C    0.264474
    70  N   -0.302384
 Electronic spatial extent (au):  <R**2>=          24221.5074
 Charge=             -0.0000 electrons
 Dipole moment (field-independent basis, Debye):
    X=              5.0254    Y=              5.6644    Z=              4.0701  Tot=              8.5968
 Quadrupole moment (field-independent basis, Debye-Ang):
   XX=           -138.5648   YY=           -226.9726   ZZ=           -254.2972
   XY=             13.4874   XZ=             23.8875   YZ=              0.3079
 Traceless Quadrupole moment (field-independent basis, Debye-Ang):
   XX=             68.0468   YY=            -20.3611   ZZ=            -47.6857
   XY=             13.4874   XZ=             23.8875   YZ=              0.3079
 Octapole moment (field-independent basis, Debye-Ang**2):
  XXX=              0.8303  YYY=             43.8435  ZZZ=             52.3876  XYY=             18.9192
  XXY=             92.6313  XXZ=             -7.4714  XZZ=             43.9434  YZZ=             45.6395
  YYZ=             18.0212  XYZ=             27.0543
 Hexadecapole moment (field-independent basis, Debye-Ang**3):
 XXXX=         -16836.7280 YYYY=          -3884.6072 ZZZZ=          -3108.7865 XXXY=            423.9126
 XXXZ=            431.9806 YYYX=             63.2373 YYYZ=            138.5069 ZZZX=            212.9063
 ZZZY=             21.9141 XXYY=          -4724.3831 XXZZ=          -4533.4296 YYZZ=          -1282.8164
 XXYZ=            -11.0182 YYXZ=             92.9045 ZZXY=             99.5335
 N-N= 5.474514373336D+03 E-N=-1.573004483430D+04  KE= 2.037709873153D+03
 No NMR shielding tensors so no spin-rotation constants.
 Leave Link  601 at Thu Jan 18 21:27:23 2018, MaxMem=  4294967296 cpu:              48.0 elap:               1.7
 (Enter /share/apps/g16/l9999.exe)
 1\1\GINC-COMPUTE-0-3\SP\RwB97XD\CC-pVDZ\C23H27N17O3\SATYA\18-Jan-2018\
 0\\#p wb97xd/cc-pvdz sp scf=(maxcycles=20)\\Base pair stacking\\0,1\N,
 0,4.0811,10.22692,-6.11839\C,0,3.87159,11.65351,-6.43294\C,0,3.81169,8
 .05408,-5.90986\N,0,5.06081,8.34289,-5.37978\C,0,5.17313,9.64039,-5.52
 662\H,0,6.03924,10.22658,-5.21811\N,0,1.87737,6.9089,-6.62396\C,0,1.41
 205,8.09817,-7.0198\H,0,0.42167,8.08267,-7.47275\N,0,1.98377,9.29807,-
 6.94052\C,0,3.19591,9.20536,-6.36908\C,0,3.10011,6.849,-6.05266\N,0,3.
 56633,5.66277,-5.65686\H,0,4.46628,5.57136,-5.22914\H,0,3.03223,4.8254
 6,-5.77432\H,0,4.58568,11.96652,-7.05926\H,0,2.97698,11.77299,-6.8625\
 H,0,3.90974,12.19172,-5.59099\N,0,0.54168,7.40153,-3.34917\C,0,-0.0800
 5,6.17868,-3.42761\C,0,-0.10715,8.70608,-3.5897\N,0,-2.93256,4.28698,-
 4.01613\H,0,-3.18911,3.32084,-4.02012\H,0,-3.65095,4.94808,-4.23429\N,
 0,-1.37769,5.96514,-3.73512\C,0,-1.68167,4.67937,-3.73118\N,0,-0.78493
 ,3.67778,-3.44802\H,0,-1.10585,2.72198,-3.46855\C,0,0.55502,3.87434,-3
 .12902\O,0,1.28032,2.90092,-2.88996\C,0,0.89647,5.25067,-3.12927\N,0,2
 .1069,5.87828,-2.86877\C,0,1.84892,7.1501,-3.01071\H,0,2.57838,7.95008
 ,-2.87965\H,0,0.34784,9.17176,-4.34794\H,0,-1.06881,8.56053,-3.81837\H
 ,0,-0.04294,9.269,-2.7664\H,0,-3.16341,-1.84026,-4.36587\H,0,-3.34311,
 -1.8732,-2.61337\H,0,-3.42881,-0.33875,-3.47908\H,0,1.32923,-2.93801,-
 3.04007\C,0,0.67314,-2.069,-3.091\O,0,2.43599,-0.49571,-2.88067\C,0,1.
 24022,-0.75774,-3.00821\H,0,0.68573,1.21215,-3.02803\N,0,0.32282,0.270
 87,-3.08294\O,0,-1.76998,1.12992,-3.28138\C,0,-1.03758,0.1578,-3.22456
 \H,0,-1.13091,-3.18648,-3.297\C,0,-0.65018,-2.21146,-3.22938\C,0,-2.95
 598,-1.30913,-3.44884\N,0,-1.50835,-1.13847,-3.2972\H,0,-2.73726,0.621
 47,-7.98619\H,0,-2.77367,1.99552,-7.10713\H,0,-3.17474,0.57295,-6.4146
 7\H,0,4.,2.0388,-5.21745\H,0,3.40412,0.45478,-5.43167\N,0,3.23297,1.44
 048,-5.44945\C,0,2.03475,1.93409,-5.7685\C,0,-0.25219,1.7938,-6.41032\
 N,0,-0.45308,3.12189,-6.42599\H,0,0.58853,4.85337,-6.08302\C,0,0.66377
 ,3.76688,-6.09504\N,0,1.86486,3.27431,-5.77516\H,0,-0.98775,-1.34005,-
 6.71055\C,0,-0.49566,-0.38133,-6.54425\N,0,0.75818,-0.23874,-6.19037\C
 ,0,0.92562,1.13562,-6.10195\C,0,-2.57566,1.0161,-7.08168\N,0,-1.16669,
 0.80763,-6.69521\\Version=EM64L-G16RevA.03\State=1-A\HF=-2048.7515288\
 RMSD=6.284e-09\Dipole=-3.1600766,-1.0007537,-0.6723321\Quadrupole=2.11
 03157,34.3653861,-36.4757018,33.5719184,-5.5631881,4.7754071\PG=C01 [X
 (C23H27N17O3)]\\@


 THOUGH I SPEAK WITH THE TONGUES OF MEN AND OF ANGELS, 
 AND HAVE NOT LOVE,
 I AM BECOME AS SOUNDING BRASS, A TINKLING CYMBAL.
 AND THOUGH I HAVE THE GIFT OF PROPHECY,
 AND UNDERSTAND ALL MYSTERIES, AND ALL KNOWLEDGE.
 AND THOUGH I HAVE ALL FAITH, SO THAT I COULD REMOVE MOUNTAINS,
 AND HAVE NOT LOVE, I AM NOTHING.
 AND THOUGH I BESTOW ALL MY GOODS TO FEED THE POOR,
 AND THOUGH I GIVE MY BODY TO BE BURNED,
 AND HAVE NOT LOVE IT PROFITETH ME NOTHING.
 LOVE SUFFERETH LONG, AND IS KIND,
 LOVE ENVIETH NOT,
 LOVE VAUNTETH NOT ITSELF, IS NOT PUFFED UP,
 DOTH NOT BEHAVE ITSELF UNSEEMLY, SEEKETH NOT HER OWN,
 IS NOT EASILY PROVOKED, THINKETH NO EVIL,
 REJOICETH NOT IN INIQUITY, BUT REJOICETH IN THE TRUTH,
 BEARETH ALL THINGS, BELIEVETH ALL THINGS,
 HOPETH ALL THINGS, ENDURETH ALL THINGS.
 LOVE NEVER FAILETH, BUT WHETHER THERE BE PROPHECIES, THEY SHALL FAIL, 
 WHETHER THERE BE TONGUES, THEY SHALL CEASE,
 WHETHER THERE BE KNOWLEDGE, IT SHALL VANISH AWAY.
 FOR WE KNOW IN PART, AND WE PROPHESY IN PART.
 BUT WHEN THAT WHICH IS PERFECT IS COME, THEN THAT WHICH IS IN PART 
 SHALL BE DONE AWAY. 
 WHEN I WAS A CHILD, I SPAKE AS A CHILD, I UNDERSTOOD AS A CHILD, 
 I THOUGHT AS A CHILD.
 BUT WHEN I BECAME A MAN, I PUT AWAY CHILDISH THINGS.
 FOR NOW WE SEE THROUGH A GLASS, DARKLY, BUT THEN FACE TO FACE.
 NOW I KNOW IN PART. BUT THEN SHALL I KNOW EVEN AS ALSO I AM KNOWN.
 AND NOW ABIDETH FAITH, HOPE AND LOVE, THESE THREE.
 BUT THE GREATEST OF THESE IS LOVE.

                     I CORINTHIANS 13
 Job cpu time:       0 days  6 hours  0 minutes 46.6 seconds.
 Elapsed time:       0 days  0 hours 11 minutes 43.1 seconds.
 File lengths (MBytes):  RWF=    298 Int=      0 D2E=      0 Chk=     33 Scr=      1
 Normal termination of Gaussian 16 at Thu Jan 18 21:27:23 2018.
