 Entering Gaussian System, Link 0=g16
 Input=str15.20.0.5.com
 Output=str15.20.0.5.log
 Initial command:
 /share/apps/g16/l1.exe "/state/partition1/scr/Gau-2733.inp" -scrdir="/state/partition1/scr/"
 Entering Link 1 = /share/apps/g16/l1.exe PID=      2734.
  
 Copyright (c) 1988,1990,1992,1993,1995,1998,2003,2009,2016,
            Gaussian, Inc.  All Rights Reserved.
  
 This is part of the Gaussian(R) 16 program.  It is based on
 the Gaussian(R) 09 system (copyright 2009, Gaussian, Inc.),
 the Gaussian(R) 03 system (copyright 2003, Gaussian, Inc.),
 the Gaussian(R) 98 system (copyright 1998, Gaussian, Inc.),
 the Gaussian(R) 94 system (copyright 1995, Gaussian, Inc.),
 the Gaussian 92(TM) system (copyright 1992, Gaussian, Inc.),
 the Gaussian 90(TM) system (copyright 1990, Gaussian, Inc.),
 the Gaussian 88(TM) system (copyright 1988, Gaussian, Inc.),
 the Gaussian 86(TM) system (copyright 1986, Carnegie Mellon
 University), and the Gaussian 82(TM) system (copyright 1983,
 Carnegie Mellon University). Gaussian is a federally registered
 trademark of Gaussian, Inc.
  
 This software contains proprietary and confidential information,
 including trade secrets, belonging to Gaussian, Inc.
  
 This software is provided under written license and may be
 used, copied, transmitted, or stored only in accord with that
 written license.
  
 The following legend is applicable only to US Government
 contracts under FAR:
  
                    RESTRICTED RIGHTS LEGEND
  
 Use, reproduction and disclosure by the US Government is
 subject to restrictions as set forth in subparagraphs (a)
 and (c) of the Commercial Computer Software - Restricted
 Rights clause in FAR 52.227-19.
  
 Gaussian, Inc.
 340 Quinnipiac St., Bldg. 40, Wallingford CT 06492
  
  
 ---------------------------------------------------------------
 Warning -- This program may not be used in any manner that
 competes with the business of Gaussian, Inc. or will provide
 assistance to any competitor of Gaussian, Inc.  The licensee
 of this program is prohibited from giving any competitor of
 Gaussian, Inc. access to this program.  By using this program,
 the user acknowledges that Gaussian, Inc. is engaged in the
 business of creating and licensing software in the field of
 computational chemistry and represents and warrants to the
 licensee that it is not a competitor of Gaussian, Inc. and that
 it will not use this program in any manner prohibited above.
 ---------------------------------------------------------------
  

 Cite this work as:
 Gaussian 16, Revision A.03,
 M. J. Frisch, G. W. Trucks, H. B. Schlegel, G. E. Scuseria, 
 M. A. Robb, J. R. Cheeseman, G. Scalmani, V. Barone, 
 G. A. Petersson, H. Nakatsuji, X. Li, M. Caricato, A. V. Marenich, 
 J. Bloino, B. G. Janesko, R. Gomperts, B. Mennucci, H. P. Hratchian, 
 J. V. Ortiz, A. F. Izmaylov, J. L. Sonnenberg, D. Williams-Young, 
 F. Ding, F. Lipparini, F. Egidi, J. Goings, B. Peng, A. Petrone, 
 T. Henderson, D. Ranasinghe, V. G. Zakrzewski, J. Gao, N. Rega, 
 G. Zheng, W. Liang, M. Hada, M. Ehara, K. Toyota, R. Fukuda, 
 J. Hasegawa, M. Ishida, T. Nakajima, Y. Honda, O. Kitao, H. Nakai, 
 T. Vreven, K. Throssell, J. A. Montgomery, Jr., J. E. Peralta, 
 F. Ogliaro, M. J. Bearpark, J. J. Heyd, E. N. Brothers, K. N. Kudin, 
 V. N. Staroverov, T. A. Keith, R. Kobayashi, J. Normand, 
 K. Raghavachari, A. P. Rendell, J. C. Burant, S. S. Iyengar, 
 J. Tomasi, M. Cossi, J. M. Millam, M. Klene, C. Adamo, R. Cammi, 
 J. W. Ochterski, R. L. Martin, K. Morokuma, O. Farkas, 
 J. B. Foresman, and D. J. Fox, Gaussian, Inc., Wallingford CT, 2016.
 
 ******************************************
 Gaussian 16:  EM64L-G16RevA.03 25-Dec-2016
                19-Jan-2018 
 ******************************************
 %nprocshared=32
 Will use up to   32 processors via shared memory.
 %mem=32GB
 %chk=allatoms_t.chk
 ---------------------------------------
 #p wb97xd/cc-pvdz sp scf=(maxcycles=20)
 ---------------------------------------
 1/38=1,172=1/1;
 2/12=2,17=6,18=5,40=1/2;
 3/5=16,11=2,25=1,30=1,74=-58/1,2,3;
 4//1;
 5/5=2,7=20,38=5/2;
 6/7=2,8=2,9=2,10=2,28=1/1;
 99/5=1,9=1/99;
 Leave Link    1 at Fri Jan 19 03:14:21 2018, MaxMem=  4294967296 cpu:               2.7 elap:               0.1
 (Enter /share/apps/g16/l101.exe)
 ------------------
 Base pair stacking
 ------------------
 Symbolic Z-matrix:
 Charge =  0 Multiplicity = 1
 N                     3.70162   4.33839  -5.89056 
 C                     3.65062   5.73252  -6.37204 
 C                     3.31048   2.19316  -5.60368 
 N                     4.32897   2.52333  -4.72141 
 C                     4.52385   3.80254  -4.92956 
 H                     5.2614    4.41072  -4.40508 
 N                     1.6766    0.99603  -6.8121 
 C                     1.40256   2.14745  -7.43397 
 H                     0.61239   2.09548  -8.18175 
 N                     1.95546   3.3478   -7.27156 
 C                     2.91349   3.30167  -6.33109 
 C                     2.64575   0.98254  -5.87101 
 N                     2.92075  -0.16586  -5.24915 
 H                     3.63021  -0.2223   -4.5458 
 H                     2.42727  -1.0085   -5.465 
 H                     4.53866   5.98696  -6.75523 
 H                     2.94771   5.81674  -7.07768 
 H                     3.43096   6.34248  -5.61066 
 N                     0.4925    4.43748  -3.46734 
 C                    -0.11297   3.21397  -3.62377 
 C                    -0.09916   5.73711  -3.84363 
 N                    -2.833     1.31313  -4.64846 
 H                    -3.09003   0.34748  -4.67491 
 H                    -3.50029   1.97006  -5.00043 
 N                    -1.34027   2.99521  -4.14333 
 C                    -1.64702   1.71025  -4.16303 
 N                    -0.8168    0.71415  -3.70912 
 H                    -1.13439  -0.24146  -3.76307 
 C                     0.45013   0.91614  -3.17065 
 O                     1.11908  -0.05257  -2.79004 
 C                     0.79364   2.29168  -3.14291 
 N                     1.94512   2.92346  -2.69364 
 C                     1.7216    4.19208  -2.90543 
 H                     2.42211   4.99388  -2.66949 
 H                     0.48082   6.18501  -4.52321 
 H                    -1.00848   5.58767  -4.22971 
 H                    -0.17338   6.31835  -3.03402 
 H                    -3.03208  -4.82013  -4.89766 
 H                    -3.5081   -4.81335  -3.20119 
 H                    -3.43712  -3.29868  -4.10236 
 H                     1.16309  -5.89346  -2.80121 
 C                     0.52973  -5.02498  -2.98239 
 O                     2.23891  -3.44961  -2.50911 
 C                     1.08107  -3.71291  -2.83294 
 H                     0.54813  -1.74326  -2.99035 
 N                     0.1951   -2.68508  -3.08564 
 O                    -1.82882  -1.82804  -3.65696 
 C                    -1.1218   -2.79958  -3.45469 
 H                    -1.21847  -6.14452  -3.46845 
 C                    -0.75133  -5.16883  -3.34128 
 C                    -2.98132  -4.26874  -3.97059 
 N                    -1.57989  -4.09655  -3.57805 
 H                    -2.44451  -5.3716   -9.08192 
 H                    -2.72021  -3.92552  -8.37839 
 H                    -3.36886  -5.28044  -7.74002 
 H                     3.07362  -3.73862  -4.39692 
 H                     2.52942  -5.33338  -4.66281 
 N                     2.40458  -4.35249  -4.81609 
 C                     1.39064  -3.88489  -5.54714 
 C                    -0.56823  -4.07352  -6.88467 
 N                    -0.71102  -2.75129  -7.07372 
 H                     0.21759  -0.9998   -6.55357 
 C                     0.2582   -2.08338  -6.45131 
 N                     1.27462  -2.54989  -5.71861 
 H                    -1.26574  -7.2192   -7.14996 
 C                    -0.82396  -6.2512   -6.91173 
 N                     0.25145  -6.08219  -6.18193 
 C                     0.42466  -4.70593  -6.15683 
 C                    -2.57226  -4.89956  -8.20965 
 N                    -1.37186  -5.0779   -7.36987 
 
 ITRead=  0  0  0  0  0  0  0  0  0  0  0  0  0  0  0  0  0  0  0  0
 ITRead=  0  0  0  0  0  0  0  0  0  0  0  0  0  0  0  0  0  0  0  0
 ITRead=  0  0  0  0  0  0  0  0  0  0  0  0  0  0  0  0  0  0  0  0
 ITRead=  0  0  0  0  0  0  0  0  0  0
 MicOpt= -1 -1 -1 -1 -1 -1 -1 -1 -1 -1 -1 -1 -1 -1 -1 -1 -1 -1 -1 -1
 MicOpt= -1 -1 -1 -1 -1 -1 -1 -1 -1 -1 -1 -1 -1 -1 -1 -1 -1 -1 -1 -1
 MicOpt= -1 -1 -1 -1 -1 -1 -1 -1 -1 -1 -1 -1 -1 -1 -1 -1 -1 -1 -1 -1
 MicOpt= -1 -1 -1 -1 -1 -1 -1 -1 -1 -1
 NAtoms=     70 NQM=       70 NQMF=       0 NMMI=      0 NMMIF=      0
                NMic=       0 NMicF=      0.
                    Isotopes and Nuclear Properties:
 (Nuclear quadrupole moments (NQMom) in fm**2, nuclear magnetic moments (NMagM)
  in nuclear magnetons)

  Atom         1           2           3           4           5           6           7           8           9          10
 IAtWgt=          14          12          12          14          12           1          14          12           1          14
 AtmWgt=  14.0030740  12.0000000  12.0000000  14.0030740  12.0000000   1.0078250  14.0030740  12.0000000   1.0078250  14.0030740
 NucSpn=           2           0           0           2           0           1           2           0           1           2
 AtZEff=  -0.0000000  -0.0000000  -0.0000000  -0.0000000  -0.0000000  -0.0000000  -0.0000000  -0.0000000  -0.0000000  -0.0000000
 NQMom=    2.0440000   0.0000000   0.0000000   2.0440000   0.0000000   0.0000000   2.0440000   0.0000000   0.0000000   2.0440000
 NMagM=    0.4037610   0.0000000   0.0000000   0.4037610   0.0000000   2.7928460   0.4037610   0.0000000   2.7928460   0.4037610
 AtZNuc=   7.0000000   6.0000000   6.0000000   7.0000000   6.0000000   1.0000000   7.0000000   6.0000000   1.0000000   7.0000000

  Atom        11          12          13          14          15          16          17          18          19          20
 IAtWgt=          12          12          14           1           1           1           1           1          14          12
 AtmWgt=  12.0000000  12.0000000  14.0030740   1.0078250   1.0078250   1.0078250   1.0078250   1.0078250  14.0030740  12.0000000
 NucSpn=           0           0           2           1           1           1           1           1           2           0
 AtZEff=  -0.0000000  -0.0000000  -0.0000000  -0.0000000  -0.0000000  -0.0000000  -0.0000000  -0.0000000  -0.0000000  -0.0000000
 NQMom=    0.0000000   0.0000000   2.0440000   0.0000000   0.0000000   0.0000000   0.0000000   0.0000000   2.0440000   0.0000000
 NMagM=    0.0000000   0.0000000   0.4037610   2.7928460   2.7928460   2.7928460   2.7928460   2.7928460   0.4037610   0.0000000
 AtZNuc=   6.0000000   6.0000000   7.0000000   1.0000000   1.0000000   1.0000000   1.0000000   1.0000000   7.0000000   6.0000000

  Atom        21          22          23          24          25          26          27          28          29          30
 IAtWgt=          12          14           1           1          14          12          14           1          12          16
 AtmWgt=  12.0000000  14.0030740   1.0078250   1.0078250  14.0030740  12.0000000  14.0030740   1.0078250  12.0000000  15.9949146
 NucSpn=           0           2           1           1           2           0           2           1           0           0
 AtZEff=  -0.0000000  -0.0000000  -0.0000000  -0.0000000  -0.0000000  -0.0000000  -0.0000000  -0.0000000  -0.0000000  -0.0000000
 NQMom=    0.0000000   2.0440000   0.0000000   0.0000000   2.0440000   0.0000000   2.0440000   0.0000000   0.0000000   0.0000000
 NMagM=    0.0000000   0.4037610   2.7928460   2.7928460   0.4037610   0.0000000   0.4037610   2.7928460   0.0000000   0.0000000
 AtZNuc=   6.0000000   7.0000000   1.0000000   1.0000000   7.0000000   6.0000000   7.0000000   1.0000000   6.0000000   8.0000000

  Atom        31          32          33          34          35          36          37          38          39          40
 IAtWgt=          12          14          12           1           1           1           1           1           1           1
 AtmWgt=  12.0000000  14.0030740  12.0000000   1.0078250   1.0078250   1.0078250   1.0078250   1.0078250   1.0078250   1.0078250
 NucSpn=           0           2           0           1           1           1           1           1           1           1
 AtZEff=  -0.0000000  -0.0000000  -0.0000000  -0.0000000  -0.0000000  -0.0000000  -0.0000000  -0.0000000  -0.0000000  -0.0000000
 NQMom=    0.0000000   2.0440000   0.0000000   0.0000000   0.0000000   0.0000000   0.0000000   0.0000000   0.0000000   0.0000000
 NMagM=    0.0000000   0.4037610   0.0000000   2.7928460   2.7928460   2.7928460   2.7928460   2.7928460   2.7928460   2.7928460
 AtZNuc=   6.0000000   7.0000000   6.0000000   1.0000000   1.0000000   1.0000000   1.0000000   1.0000000   1.0000000   1.0000000

  Atom        41          42          43          44          45          46          47          48          49          50
 IAtWgt=           1          12          16          12           1          14          16          12           1          12
 AtmWgt=   1.0078250  12.0000000  15.9949146  12.0000000   1.0078250  14.0030740  15.9949146  12.0000000   1.0078250  12.0000000
 NucSpn=           1           0           0           0           1           2           0           0           1           0
 AtZEff=  -0.0000000  -0.0000000  -0.0000000  -0.0000000  -0.0000000  -0.0000000  -0.0000000  -0.0000000  -0.0000000  -0.0000000
 NQMom=    0.0000000   0.0000000   0.0000000   0.0000000   0.0000000   2.0440000   0.0000000   0.0000000   0.0000000   0.0000000
 NMagM=    2.7928460   0.0000000   0.0000000   0.0000000   2.7928460   0.4037610   0.0000000   0.0000000   2.7928460   0.0000000
 AtZNuc=   1.0000000   6.0000000   8.0000000   6.0000000   1.0000000   7.0000000   8.0000000   6.0000000   1.0000000   6.0000000

  Atom        51          52          53          54          55          56          57          58          59          60
 IAtWgt=          12          14           1           1           1           1           1          14          12          12
 AtmWgt=  12.0000000  14.0030740   1.0078250   1.0078250   1.0078250   1.0078250   1.0078250  14.0030740  12.0000000  12.0000000
 NucSpn=           0           2           1           1           1           1           1           2           0           0
 AtZEff=  -0.0000000  -0.0000000  -0.0000000  -0.0000000  -0.0000000  -0.0000000  -0.0000000  -0.0000000  -0.0000000  -0.0000000
 NQMom=    0.0000000   2.0440000   0.0000000   0.0000000   0.0000000   0.0000000   0.0000000   2.0440000   0.0000000   0.0000000
 NMagM=    0.0000000   0.4037610   2.7928460   2.7928460   2.7928460   2.7928460   2.7928460   0.4037610   0.0000000   0.0000000
 AtZNuc=   6.0000000   7.0000000   1.0000000   1.0000000   1.0000000   1.0000000   1.0000000   7.0000000   6.0000000   6.0000000

  Atom        61          62          63          64          65          66          67          68          69          70
 IAtWgt=          14           1          12          14           1          12          14          12          12          14
 AtmWgt=  14.0030740   1.0078250  12.0000000  14.0030740   1.0078250  12.0000000  14.0030740  12.0000000  12.0000000  14.0030740
 NucSpn=           2           1           0           2           1           0           2           0           0           2
 AtZEff=  -0.0000000  -0.0000000  -0.0000000  -0.0000000  -0.0000000  -0.0000000  -0.0000000  -0.0000000  -0.0000000  -0.0000000
 NQMom=    2.0440000   0.0000000   0.0000000   2.0440000   0.0000000   0.0000000   2.0440000   0.0000000   0.0000000   2.0440000
 NMagM=    0.4037610   2.7928460   0.0000000   0.4037610   2.7928460   0.0000000   0.4037610   0.0000000   0.0000000   0.4037610
 AtZNuc=   7.0000000   1.0000000   6.0000000   7.0000000   1.0000000   6.0000000   7.0000000   6.0000000   6.0000000   7.0000000
 Leave Link  101 at Fri Jan 19 03:14:22 2018, MaxMem=  4294967296 cpu:               7.7 elap:               0.3
 (Enter /share/apps/g16/l202.exe)
 Stoichiometry    C23H27N17O3
 Framework group  C1[X(C23H27N17O3)]
 Deg. of freedom   204
 Full point group                 C1      NOp   1
 Largest Abelian subgroup         C1      NOp   1
 Largest concise Abelian subgroup C1      NOp   1
                         Standard orientation:                         
 ---------------------------------------------------------------------
 Center     Atomic      Atomic             Coordinates (Angstroms)
 Number     Number       Type             X           Y           Z
 ---------------------------------------------------------------------
      1          7           0       -5.451054   -1.975088    0.310960
      2          6           0       -6.741596   -1.866648    1.018607
      3          6           0       -3.303444   -1.991810   -0.163166
      4          7           0       -3.964097   -2.295614   -1.344680
      5          6           0       -5.231512   -2.273379   -1.011743
      6          1           0       -6.056241   -2.468994   -1.697672
      7          7           0       -1.617332   -1.548544    1.425387
      8          6           0       -2.603305   -1.384838    2.313444
      9          1           0       -2.282340   -1.135644    3.323953
     10          7           0       -3.920058   -1.482278    2.141451
     11          6           0       -4.206802   -1.791622    0.866101
     12          6           0       -1.938531   -1.859292    0.150495
     13          7           0       -0.955722   -2.023106   -0.737429
     14          1           0       -1.147162   -2.253666   -1.692108
     15          1           0        0.004923   -1.921020   -0.478786
     16          1           0       -7.227492   -2.739075    0.964154
     17          1           0       -6.578478   -1.636351    1.977491
     18          1           0       -7.297012   -1.150785    0.595458
     19          7           0       -4.719314    1.949892   -0.178279
     20          6           0       -3.365228    2.088440    0.009592
     21          6           0       -5.765186    2.536540    0.683516
     22          7           0       -0.695985    3.361148    1.830883
     23          1           0        0.302534    3.339259    1.789346
     24          1           0       -1.107614    3.876509    2.583001
     25          7           0       -2.767454    2.778243    1.005033
     26          6           0       -1.449967    2.728154    0.919443
     27          7           0       -0.768101    2.054626   -0.064901
     28          1           0        0.240133    2.070543   -0.051659
     29          6           0       -1.362548    1.338239   -1.098963
     30          8           0       -0.655430    0.765503   -1.937244
     31          6           0       -2.777719    1.382864   -1.020351
     32          7           0       -3.743532    0.812814   -1.838362
     33          6           0       -4.876968    1.175075   -1.301424
     34          1           0       -5.860873    0.903779   -1.685605
     35          1           0       -6.329586    1.807351    1.068944
     36          1           0       -5.334291    3.049908    1.424485
     37          1           0       -6.338638    3.151285    0.143091
     38          1           0        5.226374    2.000181    0.940911
     39          1           0        5.274905    3.276594   -0.272789
     40          1           0        3.854519    3.093591    0.756961
     41          1           0        4.904124   -0.605106   -3.090866
     42          6           0        4.272022    0.019357   -2.459422
     43          8           0        2.239970   -0.782532   -3.383987
     44          6           0        2.849808   -0.058134   -2.597774
     45          1           0        1.136341    0.746535   -1.820044
     46          7           0        2.143986    0.773235   -1.751679
     47          8           0        1.953608    2.336387   -0.115376
     48          6           0        2.661183    1.638841   -0.820675
     49          1           0        5.881410    0.950389   -1.415930
     50          6           0        4.806109    0.854081   -1.560202
     51          6           0        4.638513    2.566427    0.233908
     52          7           0        4.040106    1.656606   -0.746845
     53          1           0        5.790195   -0.786986    4.114426
     54          1           0        4.456640    0.135066    3.931216
     55          1           0        5.908689    0.693004    3.436918
     56          1           0        2.364305   -2.517936   -2.236377
     57          1           0        4.059968   -2.571237   -2.057506
     58          7           0        3.168887   -2.325176   -1.674554
     59          6           0        3.059509   -1.764935   -0.468185
     60          6           0        3.886150   -0.892028    1.585211
     61          7           0        2.676556   -0.572173    2.074085
     62          1           0        0.704885   -0.667220    1.522660
     63          6           0        1.721409   -0.893880    1.203979
     64          7           0        1.828930   -1.455055   -0.004785
     65          1           0        7.106629   -1.171621    1.534765
     66          6           0        6.040548   -1.190995    1.306632
     67          7           0        5.524514   -1.657670    0.195956
     68          6           0        4.159136   -1.474104    0.359573
     69          6           0        5.333574   -0.120408    3.525216
     70          7           0        5.106390   -0.711703    2.192266
 ---------------------------------------------------------------------
 Rotational constants (GHZ):           0.1574267           0.0525081           0.0501916
 Leave Link  202 at Fri Jan 19 03:14:22 2018, MaxMem=  4294967296 cpu:               0.4 elap:               0.0
 (Enter /share/apps/g16/l301.exe)
 Standard basis: CC-pVDZ (5D, 7F)
 Ernie: Thresh=  0.10000D-02 Tol=  0.10000D-05 Strict=F.
 Ernie:  86 primitive shells out of 1081 were deleted.
 There are   780 symmetry adapted cartesian basis functions of A   symmetry.
 There are   737 symmetry adapted basis functions of A   symmetry.
   737 basis functions,  1608 primitive gaussians,   780 cartesian basis functions
   154 alpha electrons      154 beta electrons
       nuclear repulsion energy      5531.5815291917 Hartrees.
 IExCor= 4639 DFT=T Ex+Corr=wB97XD ExCW=0 ScaHFX=  1.000000
 ScaDFX=  1.000000  1.000000  1.000000  1.000000 ScalE2=  1.000000  1.000000
 IRadAn=      5 IRanWt=     -1 IRanGd=            0 ICorTp=0 IEmpDi=121
 HFx  wShort=  0.000000 wLong=  0.200000 cFull=  0.222036 cShort=  0.000000 cLong=  0.777964
 DFx  wShort=  0.000000 wLong=  0.200000 cFull=  0.000000 cShort=  0.000000 cLong=  1.000000
 NAtoms=   70 NActive=   70 NUniq=   70 SFac= 1.00D+00 NAtFMM=   60 NAOKFM=T Big=T
 Integral buffers will be    131072 words long.
 Raffenetti 2 integral format.
 Two-electron integral symmetry is turned on.
 R6Disp:  Grimme-D2 Dispersion energy=       -0.0718576791 Hartrees.
 Nuclear repulsion after empirical dispersion term =     5531.5096715126 Hartrees.
 Leave Link  301 at Fri Jan 19 03:14:22 2018, MaxMem=  4294967296 cpu:               3.0 elap:               0.1
 (Enter /share/apps/g16/l302.exe)
 NPDir=0 NMtPBC=     1 NCelOv=     1 NCel=       1 NClECP=     1 NCelD=      1
         NCelK=      1 NCelE2=     1 NClLst=     1 CellRange=     0.0.
 One-electron integrals computed using PRISM.
 One-electron integral symmetry used in STVInt
 NBasis=   737 RedAO= T EigKep=  6.76D-04  NBF=   737
 NBsUse=   737 1.00D-06 EigRej= -1.00D+00 NBFU=   737
 Precomputing XC quadrature grid using
 IXCGrd= 4 IRadAn=           5 IRanWt=          -1 IRanGd=           0 AccXCQ= 0.00D+00.
 Generated NRdTot=       0 NPtTot=           0 NUsed=           0 NTot=          32
 NSgBfM=   765   764   764   764   765 MxSgAt=    70 MxSgA2=    70.
 Leave Link  302 at Fri Jan 19 03:14:26 2018, MaxMem=  4294967296 cpu:             139.5 elap:               4.4
 (Enter /share/apps/g16/l303.exe)
 DipDrv:  MaxL=1.
 Leave Link  303 at Fri Jan 19 03:14:27 2018, MaxMem=  4294967296 cpu:              12.5 elap:               0.4
 (Enter /share/apps/g16/l401.exe)
 ExpMin= 1.22D-01 ExpMax= 1.17D+04 ExpMxC= 4.01D+02 IAcc=3 IRadAn=         5 AccDes= 0.00D+00
 Harris functional with IExCor= 4639 and IRadAn=       5 diagonalized for initial guess.
 HarFok:  IExCor= 4639 AccDes= 0.00D+00 IRadAn=         5 IDoV= 1 UseB2=F ITyADJ=14
 ICtDFT=  3500011 ScaDFX=  1.000000  1.000000  1.000000  1.000000
 FoFCou: FMM=F IPFlag=           0 FMFlag=      100000 FMFlg1=        2001
         NFxFlg=           0 DoJE=T BraDBF=F KetDBF=T FulRan=T
         wScrn=  0.000000 ICntrl=       500 IOpCl=  0 I1Cent=   200000004 NGrid=           0
         NMat0=    1 NMatS0=      1 NMatT0=    0 NMatD0=    1 NMtDS0=    0 NMtDT0=    0
 Petite list used in FoFCou.
 Harris En= -1963.85618481494    
 JPrj=0 DoOrth=F DoCkMO=F.
 Leave Link  401 at Fri Jan 19 03:14:39 2018, MaxMem=  4294967296 cpu:             402.5 elap:              12.6
 (Enter /share/apps/g16/l502.exe)
 Integral symmetry usage will be decided dynamically.
 Closed shell SCF:
 Using DIIS extrapolation, IDIIS=  1040.
 NGot=  4294967296 LenX=  4293717438 LenY=  4293108258
 Requested convergence on RMS density matrix=1.00D-08 within  20 cycles.
 Requested convergence on MAX density matrix=1.00D-06.
 Requested convergence on             energy=1.00D-06.
 No special actions if energy rises.
 Fock matrices will be formed incrementally for  20 cycles.
 Integral accuracy reduced to 1.0D-05 until final iterations.

 Cycle   1  Pass 0  IDiag  1:
 FoFJK:  IHMeth= 1 ICntrl=       0 DoSepK=T KAlg= 0 I1Cent=           0 FoldK=F
 IRaf=         1 NMat=       1 IRICut=       1 DoRegI=T DoRafI=F ISym2E= 0 IDoP0=0 IntGTp=1.
 FoFCou: FMM=T IPFlag=           0 FMFlag=      100000 FMFlg1=        2001
         NFxFlg=           0 DoJE=T BraDBF=F KetDBF=F FulRan=T
         wScrn=  0.000000 ICntrl=       500 IOpCl=  0 I1Cent=           0 NGrid=           0
         NMat0=    1 NMatS0=      1 NMatT0=    0 NMatD0=    1 NMtDS0=    0 NMtDT0=    0
 Symmetry not used in FoFCou.
 FMM levels:  10  Number of levels for PrismC:   9
 E= -2048.29432053918    
 DIIS: error= 2.09D-02 at cycle   1 NSaved=   1.
 NSaved= 1 IEnMin= 1 EnMin= -2048.29432053918     IErMin= 1 ErrMin= 2.09D-02
 ErrMax= 2.09D-02  0.00D+00 EMaxC= 1.00D-01 BMatC= 8.35D-01 BMatP= 8.35D-01
 IDIUse=3 WtCom= 7.91D-01 WtEn= 2.09D-01
 Coeff-Com:  0.100D+01
 Coeff-En:   0.100D+01
 Coeff:      0.100D+01
 Gap=     0.260 Goal=   None    Shift=    0.000
 GapD=    0.260 DampG=1.000 DampE=0.500 DampFc=0.5000 IDamp=-1.
 Damping current iteration by 5.00D-01
 RMSDP=1.59D-03 MaxDP=1.20D-01              OVMax= 1.72D-01

 Cycle   2  Pass 0  IDiag  1:
 RMSU=  7.92D-04    CP:  9.98D-01
 E= -2048.48968780492     Delta-E=       -0.195367265745 Rises=F Damp=T
 DIIS: error= 1.17D-02 at cycle   2 NSaved=   2.
 NSaved= 2 IEnMin= 2 EnMin= -2048.48968780492     IErMin= 2 ErrMin= 1.17D-02
 ErrMax= 1.17D-02  0.00D+00 EMaxC= 1.00D-01 BMatC= 1.46D-01 BMatP= 8.35D-01
 IDIUse=3 WtCom= 8.83D-01 WtEn= 1.17D-01
 Coeff-Com: -0.186D+00 0.119D+01
 Coeff-En:   0.000D+00 0.100D+01
 Coeff:     -0.164D+00 0.116D+01
 Gap=     0.357 Goal=   None    Shift=    0.000
 RMSDP=5.99D-04 MaxDP=3.09D-02 DE=-1.95D-01 OVMax= 1.37D-01

 Cycle   3  Pass 0  IDiag  1:
 RMSU=  5.92D-04    CP:  9.94D-01  1.11D+00
 E= -2048.66649109055     Delta-E=       -0.176803285631 Rises=F Damp=F
 DIIS: error= 7.46D-03 at cycle   3 NSaved=   3.
 NSaved= 3 IEnMin= 3 EnMin= -2048.66649109055     IErMin= 3 ErrMin= 7.46D-03
 ErrMax= 7.46D-03  0.00D+00 EMaxC= 1.00D-01 BMatC= 6.90D-02 BMatP= 1.46D-01
 IDIUse=3 WtCom= 9.25D-01 WtEn= 7.46D-02
 Coeff-Com: -0.233D+00 0.559D+00 0.674D+00
 Coeff-En:   0.000D+00 0.000D+00 0.100D+01
 Coeff:     -0.216D+00 0.517D+00 0.698D+00
 Gap=     0.280 Goal=   None    Shift=    0.000
 RMSDP=3.82D-04 MaxDP=2.74D-02 DE=-1.77D-01 OVMax= 6.82D-02

 Cycle   4  Pass 0  IDiag  1:
 RMSU=  2.13D-04    CP:  9.94D-01  1.41D+00  6.47D-01
 E= -2048.71850377222     Delta-E=       -0.052012681667 Rises=F Damp=F
 DIIS: error= 2.85D-03 at cycle   4 NSaved=   4.
 NSaved= 4 IEnMin= 4 EnMin= -2048.71850377222     IErMin= 4 ErrMin= 2.85D-03
 ErrMax= 2.85D-03  0.00D+00 EMaxC= 1.00D-01 BMatC= 1.00D-02 BMatP= 6.90D-02
 IDIUse=3 WtCom= 9.71D-01 WtEn= 2.85D-02
 Coeff-Com: -0.962D-01 0.186D+00 0.375D+00 0.535D+00
 Coeff-En:   0.000D+00 0.000D+00 0.763D-01 0.924D+00
 Coeff:     -0.934D-01 0.181D+00 0.367D+00 0.546D+00
 Gap=     0.284 Goal=   None    Shift=    0.000
 RMSDP=1.33D-04 MaxDP=9.65D-03 DE=-5.20D-02 OVMax= 1.55D-02

 Cycle   5  Pass 0  IDiag  1:
 RMSU=  6.10D-05    CP:  9.94D-01  1.38D+00  7.88D-01  6.22D-01
 E= -2048.72696766154     Delta-E=       -0.008463889324 Rises=F Damp=F
 DIIS: error= 4.18D-04 at cycle   5 NSaved=   5.
 NSaved= 5 IEnMin= 5 EnMin= -2048.72696766154     IErMin= 5 ErrMin= 4.18D-04
 ErrMax= 4.18D-04  0.00D+00 EMaxC= 1.00D-01 BMatC= 2.76D-04 BMatP= 1.00D-02
 IDIUse=3 WtCom= 9.96D-01 WtEn= 4.18D-03
 Coeff-Com: -0.238D-01 0.404D-01 0.115D+00 0.231D+00 0.637D+00
 Coeff-En:   0.000D+00 0.000D+00 0.000D+00 0.000D+00 0.100D+01
 Coeff:     -0.237D-01 0.403D-01 0.115D+00 0.230D+00 0.638D+00
 Gap=     0.284 Goal=   None    Shift=    0.000
 RMSDP=2.69D-05 MaxDP=1.48D-03 DE=-8.46D-03 OVMax= 3.15D-03

 Failed to achieve initial convergence to 1.0D-08 in  6 cycles.
 Switch to full accuracy anyway.
 Cycle   6  Pass 1  IDiag  1:
 E= -2048.72713689150     Delta-E=       -0.000169229956 Rises=F Damp=F
 DIIS: error= 2.54D-04 at cycle   1 NSaved=   1.
 NSaved= 1 IEnMin= 1 EnMin= -2048.72713689150     IErMin= 1 ErrMin= 2.54D-04
 ErrMax= 2.54D-04  0.00D+00 EMaxC= 1.00D-01 BMatC= 7.15D-05 BMatP= 7.15D-05
 IDIUse=3 WtCom= 9.97D-01 WtEn= 2.54D-03
 Coeff-Com:  0.100D+01
 Coeff-En:   0.100D+01
 Coeff:      0.100D+01
 Gap=     0.284 Goal=   None    Shift=    0.000
 RMSDP=2.69D-05 MaxDP=1.48D-03 DE=-1.69D-04 OVMax= 2.89D-03

 Cycle   7  Pass 1  IDiag  1:
 RMSU=  1.12D-04    CP:  1.00D+00
 E= -2048.72718713470     Delta-E=       -0.000050243201 Rises=F Damp=F
 DIIS: error= 1.52D-04 at cycle   2 NSaved=   2.
 NSaved= 2 IEnMin= 2 EnMin= -2048.72718713470     IErMin= 2 ErrMin= 1.52D-04
 ErrMax= 1.52D-04  0.00D+00 EMaxC= 1.00D-01 BMatC= 4.38D-05 BMatP= 7.15D-05
 IDIUse=3 WtCom= 9.98D-01 WtEn= 1.52D-03
 Coeff-Com:  0.419D+00 0.581D+00
 Coeff-En:   0.266D-01 0.973D+00
 Coeff:      0.418D+00 0.582D+00
 Gap=     0.284 Goal=   None    Shift=    0.000
 RMSDP=1.17D-05 MaxDP=7.75D-04 DE=-5.02D-05 OVMax= 1.60D-03

 Cycle   8  Pass 1  IDiag  1:
 RMSU=  1.14D-05    CP:  1.00D+00  1.02D+00
 E= -2048.72722070781     Delta-E=       -0.000033573107 Rises=F Damp=F
 DIIS: error= 7.64D-05 at cycle   3 NSaved=   3.
 NSaved= 3 IEnMin= 3 EnMin= -2048.72722070781     IErMin= 3 ErrMin= 7.64D-05
 ErrMax= 7.64D-05  0.00D+00 EMaxC= 1.00D-01 BMatC= 8.98D-06 BMatP= 4.38D-05
 IDIUse=1 WtCom= 1.00D+00 WtEn= 0.00D+00
 Coeff-Com: -0.171D-01 0.297D+00 0.721D+00
 Coeff:     -0.171D-01 0.297D+00 0.721D+00
 Gap=     0.284 Goal=   None    Shift=    0.000
 RMSDP=5.64D-06 MaxDP=3.12D-04 DE=-3.36D-05 OVMax= 6.50D-04

 Cycle   9  Pass 1  IDiag  1:
 RMSU=  3.81D-06    CP:  1.00D+00  1.05D+00  7.71D-01
 E= -2048.72722971015     Delta-E=       -0.000009002346 Rises=F Damp=F
 DIIS: error= 3.38D-05 at cycle   4 NSaved=   4.
 NSaved= 4 IEnMin= 4 EnMin= -2048.72722971015     IErMin= 4 ErrMin= 3.38D-05
 ErrMax= 3.38D-05  0.00D+00 EMaxC= 1.00D-01 BMatC= 5.28D-07 BMatP= 8.98D-06
 IDIUse=1 WtCom= 1.00D+00 WtEn= 0.00D+00
 Coeff-Com: -0.320D-01 0.808D-01 0.276D+00 0.675D+00
 Coeff:     -0.320D-01 0.808D-01 0.276D+00 0.675D+00
 Gap=     0.284 Goal=   None    Shift=    0.000
 RMSDP=1.49D-06 MaxDP=8.67D-05 DE=-9.00D-06 OVMax= 4.74D-04

 Cycle  10  Pass 1  IDiag  1:
 RMSU=  1.33D-06    CP:  1.00D+00  1.05D+00  8.09D-01  1.10D+00
 E= -2048.72723058183     Delta-E=       -0.000000871678 Rises=F Damp=F
 DIIS: error= 1.14D-05 at cycle   5 NSaved=   5.
 NSaved= 5 IEnMin= 5 EnMin= -2048.72723058183     IErMin= 5 ErrMin= 1.14D-05
 ErrMax= 1.14D-05  0.00D+00 EMaxC= 1.00D-01 BMatC= 1.19D-07 BMatP= 5.28D-07
 IDIUse=1 WtCom= 1.00D+00 WtEn= 0.00D+00
 Coeff-Com: -0.429D-02-0.512D-01-0.113D+00 0.206D+00 0.962D+00
 Coeff:     -0.429D-02-0.512D-01-0.113D+00 0.206D+00 0.962D+00
 Gap=     0.284 Goal=   None    Shift=    0.000
 RMSDP=1.20D-06 MaxDP=5.72D-05 DE=-8.72D-07 OVMax= 2.72D-04

 Cycle  11  Pass 1  IDiag  1:
 RMSU=  4.93D-07    CP:  1.00D+00  1.05D+00  8.19D-01  1.38D+00  1.18D+00
 E= -2048.72723084553     Delta-E=       -0.000000263702 Rises=F Damp=F
 DIIS: error= 7.54D-06 at cycle   6 NSaved=   6.
 NSaved= 6 IEnMin= 6 EnMin= -2048.72723084553     IErMin= 6 ErrMin= 7.54D-06
 ErrMax= 7.54D-06  0.00D+00 EMaxC= 1.00D-01 BMatC= 3.05D-08 BMatP= 1.19D-07
 IDIUse=1 WtCom= 1.00D+00 WtEn= 0.00D+00
 Coeff-Com:  0.487D-02-0.443D-01-0.120D+00-0.115D-01 0.525D+00 0.646D+00
 Coeff:      0.487D-02-0.443D-01-0.120D+00-0.115D-01 0.525D+00 0.646D+00
 Gap=     0.284 Goal=   None    Shift=    0.000
 RMSDP=4.10D-07 MaxDP=2.13D-05 DE=-2.64D-07 OVMax= 1.38D-04

 Cycle  12  Pass 1  IDiag  1:
 RMSU=  1.95D-07    CP:  1.00D+00  1.05D+00  8.22D-01  1.46D+00  1.32D+00
                    CP:  9.43D-01
 E= -2048.72723089104     Delta-E=       -0.000000045514 Rises=F Damp=F
 DIIS: error= 1.09D-06 at cycle   7 NSaved=   7.
 NSaved= 7 IEnMin= 7 EnMin= -2048.72723089104     IErMin= 7 ErrMin= 1.09D-06
 ErrMax= 1.09D-06  0.00D+00 EMaxC= 1.00D-01 BMatC= 7.61D-10 BMatP= 3.05D-08
 IDIUse=1 WtCom= 1.00D+00 WtEn= 0.00D+00
 Coeff-Com:  0.119D-02-0.739D-02-0.214D-01-0.105D-01 0.634D-01 0.134D+00
 Coeff-Com:  0.841D+00
 Coeff:      0.119D-02-0.739D-02-0.214D-01-0.105D-01 0.634D-01 0.134D+00
 Coeff:      0.841D+00
 Gap=     0.284 Goal=   None    Shift=    0.000
 RMSDP=8.81D-08 MaxDP=3.35D-06 DE=-4.55D-08 OVMax= 2.49D-05

 Cycle  13  Pass 1  IDiag  1:
 RMSU=  5.57D-08    CP:  1.00D+00  1.05D+00  8.22D-01  1.47D+00  1.34D+00
                    CP:  1.03D+00  1.13D+00
 E= -2048.72723089305     Delta-E=       -0.000000002006 Rises=F Damp=F
 DIIS: error= 8.05D-07 at cycle   8 NSaved=   8.
 NSaved= 8 IEnMin= 8 EnMin= -2048.72723089305     IErMin= 8 ErrMin= 8.05D-07
 ErrMax= 8.05D-07  0.00D+00 EMaxC= 1.00D-01 BMatC= 3.59D-10 BMatP= 7.61D-10
 IDIUse=1 WtCom= 1.00D+00 WtEn= 0.00D+00
 Coeff-Com: -0.788D-03 0.899D-02 0.236D-01-0.654D-03-0.117D+00-0.118D+00
 Coeff-Com:  0.429D+00 0.775D+00
 Coeff:     -0.788D-03 0.899D-02 0.236D-01-0.654D-03-0.117D+00-0.118D+00
 Coeff:      0.429D+00 0.775D+00
 Gap=     0.284 Goal=   None    Shift=    0.000
 RMSDP=5.27D-08 MaxDP=2.83D-06 DE=-2.01D-09 OVMax= 1.30D-05

 Cycle  14  Pass 1  IDiag  1:
 RMSU=  2.94D-08    CP:  1.00D+00  1.05D+00  8.22D-01  1.47D+00  1.35D+00
                    CP:  1.08D+00  1.30D+00  1.05D+00
 E= -2048.72723089343     Delta-E=       -0.000000000383 Rises=F Damp=F
 DIIS: error= 1.46D-07 at cycle   9 NSaved=   9.
 NSaved= 9 IEnMin= 9 EnMin= -2048.72723089343     IErMin= 9 ErrMin= 1.46D-07
 ErrMax= 1.46D-07  0.00D+00 EMaxC= 1.00D-01 BMatC= 2.74D-11 BMatP= 3.59D-10
 IDIUse=1 WtCom= 1.00D+00 WtEn= 0.00D+00
 Coeff-Com: -0.426D-03 0.421D-02 0.113D-01 0.785D-03-0.509D-01-0.595D-01
 Coeff-Com:  0.836D-01 0.284D+00 0.727D+00
 Coeff:     -0.426D-03 0.421D-02 0.113D-01 0.785D-03-0.509D-01-0.595D-01
 Coeff:      0.836D-01 0.284D+00 0.727D+00
 Gap=     0.284 Goal=   None    Shift=    0.000
 RMSDP=1.40D-08 MaxDP=7.07D-07 DE=-3.83D-10 OVMax= 3.44D-06

 Cycle  15  Pass 1  IDiag  1:
 RMSU=  9.38D-09    CP:  1.00D+00  1.05D+00  8.22D-01  1.47D+00  1.35D+00
                    CP:  1.08D+00  1.33D+00  1.18D+00  1.11D+00
 E= -2048.72723089345     Delta-E=       -0.000000000021 Rises=F Damp=F
 DIIS: error= 6.89D-08 at cycle  10 NSaved=  10.
 NSaved=10 IEnMin=10 EnMin= -2048.72723089345     IErMin=10 ErrMin= 6.89D-08
 ErrMax= 6.89D-08  0.00D+00 EMaxC= 1.00D-01 BMatC= 4.76D-12 BMatP= 2.74D-11
 IDIUse=1 WtCom= 1.00D+00 WtEn= 0.00D+00
 Coeff-Com:  0.252D-04-0.498D-03-0.121D-02 0.159D-03 0.772D-02 0.478D-02
 Coeff-Com: -0.592D-01-0.766D-01 0.240D+00 0.885D+00
 Coeff:      0.252D-04-0.498D-03-0.121D-02 0.159D-03 0.772D-02 0.478D-02
 Coeff:     -0.592D-01-0.766D-01 0.240D+00 0.885D+00
 Gap=     0.284 Goal=   None    Shift=    0.000
 RMSDP=7.17D-09 MaxDP=2.71D-07 DE=-2.09D-11 OVMax= 1.51D-06

 SCF Done:  E(RwB97XD) =  -2048.72723089     A.U. after   15 cycles
            NFock= 15  Conv=0.72D-08     -V/T= 2.0053
 KE= 2.037888622820D+03 PE=-1.584388181365D+04 EE= 6.225756288428D+03
 Leave Link  502 at Fri Jan 19 03:26:04 2018, MaxMem=  4294967296 cpu:           21126.0 elap:             685.0
 (Enter /share/apps/g16/l601.exe)
 Copying SCF densities to generalized density rwf, IOpCl= 0 IROHF=0.

 **********************************************************************

            Population analysis using the SCF density.

 **********************************************************************

 Orbital symmetries:
       Occupied  (A) (A) (A) (A) (A) (A) (A) (A) (A) (A) (A) (A)
                 (A) (A) (A) (A) (A) (A) (A) (A) (A) (A) (A) (A)
                 (A) (A) (A) (A) (A) (A) (A) (A) (A) (A) (A) (A)
                 (A) (A) (A) (A) (A) (A) (A) (A) (A) (A) (A) (A)
                 (A) (A) (A) (A) (A) (A) (A) (A) (A) (A) (A) (A)
                 (A) (A) (A) (A) (A) (A) (A) (A) (A) (A) (A) (A)
                 (A) (A) (A) (A) (A) (A) (A) (A) (A) (A) (A) (A)
                 (A) (A) (A) (A) (A) (A) (A) (A) (A) (A) (A) (A)
                 (A) (A) (A) (A) (A) (A) (A) (A) (A) (A) (A) (A)
                 (A) (A) (A) (A) (A) (A) (A) (A) (A) (A) (A) (A)
                 (A) (A) (A) (A) (A) (A) (A) (A) (A) (A) (A) (A)
                 (A) (A) (A) (A) (A) (A) (A) (A) (A) (A) (A) (A)
                 (A) (A) (A) (A) (A) (A) (A) (A) (A) (A)
       Virtual   (A) (A) (A) (A) (A) (A) (A) (A) (A) (A) (A) (A)
                 (A) (A) (A) (A) (A) (A) (A) (A) (A) (A) (A) (A)
                 (A) (A) (A) (A) (A) (A) (A) (A) (A) (A) (A) (A)
                 (A) (A) (A) (A) (A) (A) (A) (A) (A) (A) (A) (A)
                 (A) (A) (A) (A) (A) (A) (A) (A) (A) (A) (A) (A)
                 (A) (A) (A) (A) (A) (A) (A) (A) (A) (A) (A) (A)
                 (A) (A) (A) (A) (A) (A) (A) (A) (A) (A) (A) (A)
                 (A) (A) (A) (A) (A) (A) (A) (A) (A) (A) (A) (A)
                 (A) (A) (A) (A) (A) (A) (A) (A) (A) (A) (A) (A)
                 (A) (A) (A) (A) (A) (A) (A) (A) (A) (A) (A) (A)
                 (A) (A) (A) (A) (A) (A) (A) (A) (A) (A) (A) (A)
                 (A) (A) (A) (A) (A) (A) (A) (A) (A) (A) (A) (A)
                 (A) (A) (A) (A) (A) (A) (A) (A) (A) (A) (A) (A)
                 (A) (A) (A) (A) (A) (A) (A) (A) (A) (A) (A) (A)
                 (A) (A) (A) (A) (A) (A) (A) (A) (A) (A) (A) (A)
                 (A) (A) (A) (A) (A) (A) (A) (A) (A) (A) (A) (A)
                 (A) (A) (A) (A) (A) (A) (A) (A) (A) (A) (A) (A)
                 (A) (A) (A) (A) (A) (A) (A) (A) (A) (A) (A) (A)
                 (A) (A) (A) (A) (A) (A) (A) (A) (A) (A) (A) (A)
                 (A) (A) (A) (A) (A) (A) (A) (A) (A) (A) (A) (A)
                 (A) (A) (A) (A) (A) (A) (A) (A) (A) (A) (A) (A)
                 (A) (A) (A) (A) (A) (A) (A) (A) (A) (A) (A) (A)
                 (A) (A) (A) (A) (A) (A) (A) (A) (A) (A) (A) (A)
                 (A) (A) (A) (A) (A) (A) (A) (A) (A) (A) (A) (A)
                 (A) (A) (A) (A) (A) (A) (A) (A) (A) (A) (A) (A)
                 (A) (A) (A) (A) (A) (A) (A) (A) (A) (A) (A) (A)
                 (A) (A) (A) (A) (A) (A) (A) (A) (A) (A) (A) (A)
                 (A) (A) (A) (A) (A) (A) (A) (A) (A) (A) (A) (A)
                 (A) (A) (A) (A) (A) (A) (A) (A) (A) (A) (A) (A)
                 (A) (A) (A) (A) (A) (A) (A) (A) (A) (A) (A) (A)
                 (A) (A) (A) (A) (A) (A) (A) (A) (A) (A) (A) (A)
                 (A) (A) (A) (A) (A) (A) (A) (A) (A) (A) (A) (A)
                 (A) (A) (A) (A) (A) (A) (A) (A) (A) (A) (A) (A)
                 (A) (A) (A) (A) (A) (A) (A) (A) (A) (A) (A) (A)
                 (A) (A) (A) (A) (A) (A) (A) (A) (A) (A) (A) (A)
                 (A) (A) (A) (A) (A) (A) (A) (A) (A) (A) (A) (A)
                 (A) (A) (A) (A) (A) (A) (A) (A) (A) (A) (A) (A)
                 (A) (A) (A) (A) (A) (A) (A) (A) (A) (A) (A) (A)
                 (A) (A) (A) (A) (A) (A) (A) (A) (A) (A) (A) (A)
                 (A) (A) (A) (A) (A) (A) (A) (A) (A) (A) (A) (A)
                 (A) (A) (A) (A) (A) (A) (A) (A) (A) (A) (A) (A)
                 (A) (A) (A) (A) (A) (A) (A) (A) (A) (A) (A) (A)
                 (A) (A) (A) (A) (A) (A) (A) (A) (A) (A) (A) (A)
                 (A) (A) (A) (A) (A) (A) (A) (A) (A) (A) (A) (A)
                 (A) (A) (A) (A) (A) (A) (A) (A) (A) (A) (A) (A)
                 (A) (A) (A) (A) (A) (A) (A) (A) (A) (A) (A) (A)
                 (A) (A) (A) (A) (A) (A) (A) (A) (A) (A) (A) (A)
                 (A) (A) (A) (A) (A) (A) (A) (A) (A) (A) (A) (A)
                 (A) (A) (A) (A) (A) (A) (A)
 The electronic state is 1-A.
 Alpha  occ. eigenvalues --  -19.25796 -19.21762 -19.20861 -14.52353 -14.52014
 Alpha  occ. eigenvalues --  -14.49060 -14.48782 -14.47882 -14.47120 -14.46876
 Alpha  occ. eigenvalues --  -14.46463 -14.44927 -14.43705 -14.43583 -14.42211
 Alpha  occ. eigenvalues --  -14.42090 -14.41125 -14.41085 -14.40957 -14.40310
 Alpha  occ. eigenvalues --  -10.45373 -10.41445 -10.40323 -10.38933 -10.38481
 Alpha  occ. eigenvalues --  -10.37522 -10.37369 -10.36628 -10.35405 -10.35317
 Alpha  occ. eigenvalues --  -10.35192 -10.34597 -10.33888 -10.33638 -10.33595
 Alpha  occ. eigenvalues --  -10.33366 -10.33143 -10.32013 -10.31309 -10.31235
 Alpha  occ. eigenvalues --  -10.30788 -10.28458 -10.28347  -1.19387  -1.14728
 Alpha  occ. eigenvalues --   -1.13477  -1.13428  -1.11298  -1.10843  -1.09259
 Alpha  occ. eigenvalues --   -1.08790  -1.08495  -1.05046  -1.04042  -1.02599
 Alpha  occ. eigenvalues --   -1.00420  -1.00375  -0.99955  -0.98756  -0.96940
 Alpha  occ. eigenvalues --   -0.96795  -0.96129  -0.92692  -0.90878  -0.87093
 Alpha  occ. eigenvalues --   -0.85453  -0.84375  -0.83976  -0.83682  -0.82797
 Alpha  occ. eigenvalues --   -0.82391  -0.78798  -0.76407  -0.74876  -0.74258
 Alpha  occ. eigenvalues --   -0.73845  -0.73346  -0.72887  -0.71043  -0.69704
 Alpha  occ. eigenvalues --   -0.67615  -0.66520  -0.66277  -0.66149  -0.64599
 Alpha  occ. eigenvalues --   -0.63961  -0.63505  -0.62831  -0.62675  -0.61985
 Alpha  occ. eigenvalues --   -0.60737  -0.60289  -0.59845  -0.59333  -0.58934
 Alpha  occ. eigenvalues --   -0.58705  -0.58588  -0.57237  -0.56564  -0.56315
 Alpha  occ. eigenvalues --   -0.56037  -0.55384  -0.55191  -0.54792  -0.54368
 Alpha  occ. eigenvalues --   -0.53908  -0.53767  -0.53223  -0.53087  -0.52744
 Alpha  occ. eigenvalues --   -0.52446  -0.52237  -0.51853  -0.50901  -0.50435
 Alpha  occ. eigenvalues --   -0.50291  -0.50030  -0.49563  -0.49488  -0.49086
 Alpha  occ. eigenvalues --   -0.48800  -0.48625  -0.47867  -0.47603  -0.47366
 Alpha  occ. eigenvalues --   -0.46973  -0.46168  -0.44843  -0.44015  -0.42829
 Alpha  occ. eigenvalues --   -0.41068  -0.40168  -0.39427  -0.37911  -0.37465
 Alpha  occ. eigenvalues --   -0.37399  -0.37018  -0.36871  -0.35761  -0.34591
 Alpha  occ. eigenvalues --   -0.33928  -0.33713  -0.33585  -0.33345  -0.33304
 Alpha  occ. eigenvalues --   -0.32872  -0.32360  -0.31903  -0.31801  -0.30876
 Alpha  occ. eigenvalues --   -0.30400  -0.28788  -0.26313  -0.25091
 Alpha virt. eigenvalues --    0.03335   0.04580   0.07413   0.07673   0.08332
 Alpha virt. eigenvalues --    0.09242   0.09493   0.10649   0.11030   0.11815
 Alpha virt. eigenvalues --    0.12902   0.13356   0.14204   0.14375   0.14908
 Alpha virt. eigenvalues --    0.15959   0.16108   0.17126   0.18075   0.18286
 Alpha virt. eigenvalues --    0.18727   0.19349   0.19614   0.20171   0.20470
 Alpha virt. eigenvalues --    0.20804   0.21164   0.21722   0.21978   0.22108
 Alpha virt. eigenvalues --    0.22771   0.23127   0.23272   0.23634   0.23765
 Alpha virt. eigenvalues --    0.24071   0.24324   0.24604   0.25045   0.26028
 Alpha virt. eigenvalues --    0.26604   0.26946   0.27450   0.27578   0.27690
 Alpha virt. eigenvalues --    0.28834   0.29299   0.29660   0.29729   0.30668
 Alpha virt. eigenvalues --    0.31000   0.31646   0.32279   0.32938   0.33509
 Alpha virt. eigenvalues --    0.34079   0.34143   0.35312   0.35736   0.36453
 Alpha virt. eigenvalues --    0.36761   0.36959   0.37688   0.38237   0.38953
 Alpha virt. eigenvalues --    0.40068   0.40203   0.41113   0.41725   0.42144
 Alpha virt. eigenvalues --    0.42460   0.42923   0.43360   0.43877   0.44219
 Alpha virt. eigenvalues --    0.44906   0.45715   0.46030   0.46482   0.46650
 Alpha virt. eigenvalues --    0.47173   0.47422   0.48133   0.48444   0.49293
 Alpha virt. eigenvalues --    0.49845   0.50407   0.50516   0.51132   0.51488
 Alpha virt. eigenvalues --    0.51767   0.52061   0.52381   0.52978   0.53442
 Alpha virt. eigenvalues --    0.53700   0.54072   0.54616   0.54842   0.55255
 Alpha virt. eigenvalues --    0.55790   0.55909   0.56378   0.56765   0.57351
 Alpha virt. eigenvalues --    0.57876   0.58485   0.58762   0.59321   0.59962
 Alpha virt. eigenvalues --    0.60088   0.60547   0.60674   0.61054   0.61404
 Alpha virt. eigenvalues --    0.61657   0.62216   0.62598   0.63020   0.63607
 Alpha virt. eigenvalues --    0.63974   0.64110   0.65004   0.65202   0.65699
 Alpha virt. eigenvalues --    0.65826   0.66142   0.66830   0.67230   0.67546
 Alpha virt. eigenvalues --    0.68187   0.68433   0.68584   0.69315   0.69539
 Alpha virt. eigenvalues --    0.70332   0.70434   0.71244   0.71979   0.72134
 Alpha virt. eigenvalues --    0.72543   0.73182   0.73381   0.73668   0.74035
 Alpha virt. eigenvalues --    0.74345   0.74841   0.75036   0.75199   0.75794
 Alpha virt. eigenvalues --    0.76058   0.76257   0.76524   0.76857   0.77508
 Alpha virt. eigenvalues --    0.77717   0.78311   0.78525   0.78940   0.79127
 Alpha virt. eigenvalues --    0.79827   0.79952   0.80496   0.80635   0.80904
 Alpha virt. eigenvalues --    0.81461   0.82144   0.82519   0.83021   0.83049
 Alpha virt. eigenvalues --    0.83679   0.84109   0.84313   0.84893   0.85515
 Alpha virt. eigenvalues --    0.85704   0.85831   0.86290   0.86574   0.87333
 Alpha virt. eigenvalues --    0.88068   0.88435   0.88838   0.89211   0.89328
 Alpha virt. eigenvalues --    0.90240   0.90726   0.91188   0.91815   0.92072
 Alpha virt. eigenvalues --    0.92669   0.92944   0.93422   0.93595   0.93914
 Alpha virt. eigenvalues --    0.94731   0.94908   0.95811   0.95989   0.96403
 Alpha virt. eigenvalues --    0.96804   0.97212   0.97739   0.98067   0.98209
 Alpha virt. eigenvalues --    0.99095   0.99112   0.99863   1.00187   1.00612
 Alpha virt. eigenvalues --    1.01264   1.01801   1.02264   1.02499   1.02709
 Alpha virt. eigenvalues --    1.03520   1.04195   1.04614   1.05041   1.06048
 Alpha virt. eigenvalues --    1.06176   1.07020   1.07169   1.07588   1.07936
 Alpha virt. eigenvalues --    1.08102   1.09296   1.10370   1.10784   1.11099
 Alpha virt. eigenvalues --    1.11984   1.12228   1.12884   1.13455   1.13790
 Alpha virt. eigenvalues --    1.14302   1.14707   1.15088   1.15423   1.15863
 Alpha virt. eigenvalues --    1.15973   1.17142   1.17235   1.17461   1.17780
 Alpha virt. eigenvalues --    1.18287   1.18563   1.19294   1.19580   1.20289
 Alpha virt. eigenvalues --    1.20376   1.20517   1.21000   1.21327   1.21888
 Alpha virt. eigenvalues --    1.22337   1.22484   1.22945   1.23337   1.23804
 Alpha virt. eigenvalues --    1.24117   1.24612   1.24773   1.25147   1.26036
 Alpha virt. eigenvalues --    1.26604   1.27644   1.28066   1.28096   1.28408
 Alpha virt. eigenvalues --    1.29256   1.30141   1.30750   1.31111   1.31683
 Alpha virt. eigenvalues --    1.32034   1.32493   1.33735   1.34028   1.35176
 Alpha virt. eigenvalues --    1.35385   1.36035   1.36560   1.37125   1.38171
 Alpha virt. eigenvalues --    1.39016   1.39744   1.39990   1.40243   1.40955
 Alpha virt. eigenvalues --    1.41741   1.42834   1.43026   1.44583   1.45869
 Alpha virt. eigenvalues --    1.45897   1.46399   1.46678   1.47592   1.48385
 Alpha virt. eigenvalues --    1.49097   1.49501   1.50098   1.50795   1.51297
 Alpha virt. eigenvalues --    1.52094   1.52514   1.53452   1.53749   1.54066
 Alpha virt. eigenvalues --    1.54918   1.55823   1.55890   1.57149   1.57860
 Alpha virt. eigenvalues --    1.58540   1.58955   1.59231   1.59990   1.60844
 Alpha virt. eigenvalues --    1.61178   1.62744   1.63391   1.63725   1.63838
 Alpha virt. eigenvalues --    1.64562   1.65284   1.65578   1.65690   1.66210
 Alpha virt. eigenvalues --    1.66980   1.68147   1.68884   1.69175   1.69575
 Alpha virt. eigenvalues --    1.70058   1.70237   1.70472   1.71115   1.71772
 Alpha virt. eigenvalues --    1.72294   1.72674   1.73276   1.73428   1.73566
 Alpha virt. eigenvalues --    1.74249   1.74978   1.75386   1.75504   1.75926
 Alpha virt. eigenvalues --    1.76267   1.76970   1.77241   1.77317   1.77968
 Alpha virt. eigenvalues --    1.78265   1.78754   1.78815   1.78986   1.79301
 Alpha virt. eigenvalues --    1.79695   1.80083   1.80249   1.80442   1.80779
 Alpha virt. eigenvalues --    1.81483   1.82008   1.82161   1.82913   1.83235
 Alpha virt. eigenvalues --    1.83547   1.84368   1.84439   1.84741   1.84888
 Alpha virt. eigenvalues --    1.85853   1.86254   1.86610   1.86769   1.87726
 Alpha virt. eigenvalues --    1.88415   1.88615   1.89262   1.89725   1.90102
 Alpha virt. eigenvalues --    1.90502   1.90831   1.91865   1.92124   1.92451
 Alpha virt. eigenvalues --    1.93042   1.93334   1.93670   1.93856   1.94091
 Alpha virt. eigenvalues --    1.94607   1.95987   1.96280   1.97048   1.98156
 Alpha virt. eigenvalues --    1.99050   1.99673   2.00337   2.01301   2.01464
 Alpha virt. eigenvalues --    2.02242   2.02476   2.02928   2.03715   2.04321
 Alpha virt. eigenvalues --    2.05329   2.06385   2.06889   2.07186   2.07536
 Alpha virt. eigenvalues --    2.07823   2.08506   2.09460   2.10128   2.10553
 Alpha virt. eigenvalues --    2.10888   2.11707   2.11989   2.13159   2.14238
 Alpha virt. eigenvalues --    2.15372   2.16645   2.16916   2.17546   2.18097
 Alpha virt. eigenvalues --    2.19104   2.19705   2.20181   2.21464   2.22146
 Alpha virt. eigenvalues --    2.22253   2.22715   2.23054   2.23365   2.24227
 Alpha virt. eigenvalues --    2.24561   2.25529   2.26289   2.26426   2.26893
 Alpha virt. eigenvalues --    2.27511   2.28317   2.28950   2.29242   2.29542
 Alpha virt. eigenvalues --    2.30158   2.31187   2.31325   2.31500   2.32175
 Alpha virt. eigenvalues --    2.32621   2.33116   2.33480   2.34090   2.34325
 Alpha virt. eigenvalues --    2.34659   2.35275   2.35852   2.36786   2.37279
 Alpha virt. eigenvalues --    2.38533   2.39689   2.40904   2.41597   2.41984
 Alpha virt. eigenvalues --    2.42112   2.43137   2.43484   2.43931   2.44551
 Alpha virt. eigenvalues --    2.45404   2.45569   2.46336   2.47317   2.47803
 Alpha virt. eigenvalues --    2.47937   2.49449   2.50530   2.50933   2.51659
 Alpha virt. eigenvalues --    2.52345   2.53829   2.54348   2.54969   2.56141
 Alpha virt. eigenvalues --    2.56392   2.57760   2.58448   2.59564   2.59905
 Alpha virt. eigenvalues --    2.61308   2.61784   2.62695   2.63204   2.63746
 Alpha virt. eigenvalues --    2.64345   2.65054   2.65173   2.65735   2.66056
 Alpha virt. eigenvalues --    2.67103   2.67648   2.68101   2.68964   2.69182
 Alpha virt. eigenvalues --    2.69510   2.70573   2.70744   2.72140   2.72973
 Alpha virt. eigenvalues --    2.73638   2.75289   2.75329   2.75972   2.76383
 Alpha virt. eigenvalues --    2.77416   2.78297   2.79183   2.79473   2.79525
 Alpha virt. eigenvalues --    2.79647   2.80835   2.81126   2.81235   2.81964
 Alpha virt. eigenvalues --    2.82472   2.82800   2.83069   2.83858   2.84259
 Alpha virt. eigenvalues --    2.85153   2.85629   2.85994   2.86240   2.86549
 Alpha virt. eigenvalues --    2.87308   2.88872   2.89182   2.91333   2.93386
 Alpha virt. eigenvalues --    2.93510   2.95988   2.96604   2.98506   2.99623
 Alpha virt. eigenvalues --    3.00144   3.01246   3.01926   3.04876   3.05749
 Alpha virt. eigenvalues --    3.07618   3.09970   3.11664   3.13323   3.15041
 Alpha virt. eigenvalues --    3.15493   3.15971   3.16510   3.17251   3.21225
 Alpha virt. eigenvalues --    3.22027   3.23683   3.24367   3.24832   3.26788
 Alpha virt. eigenvalues --    3.45789   3.47154   3.47790   3.50069   3.50716
 Alpha virt. eigenvalues --    3.53211   3.55669   3.55912   3.57636   3.60052
 Alpha virt. eigenvalues --    3.62496   3.70746   3.75049
          Condensed to atoms (all electrons):
 Mulliken charges:
               1
     1  N   -0.307526
     2  C    0.179962
     3  C    0.048593
     4  N   -0.235818
     5  C    0.123987
     6  H    0.023131
     7  N   -0.295281
     8  C    0.134838
     9  H    0.011186
    10  N   -0.290046
    11  C    0.237250
    12  C    0.089573
    13  N   -0.041436
    14  H    0.115811
    15  H    0.086938
    16  H    0.027273
    17  H    0.034262
    18  H    0.017469
    19  N   -0.307617
    20  C    0.261160
    21  C    0.181846
    22  N   -0.124618
    23  H    0.117560
    24  H    0.119377
    25  N   -0.311693
    26  C    0.249847
    27  N   -0.149036
    28  H    0.119446
    29  C    0.196197
    30  O   -0.327284
    31  C   -0.023257
    32  N   -0.212203
    33  C    0.122686
    34  H    0.018477
    35  H    0.023524
    36  H    0.031692
    37  H    0.024537
    38  H    0.049600
    39  H    0.060455
    40  H    0.076365
    41  H    0.021453
    42  C   -0.100231
    43  O   -0.292612
    44  C    0.150879
    45  H    0.129780
    46  N   -0.098225
    47  O   -0.349786
    48  C    0.341718
    49  H    0.044552
    50  C    0.183683
    51  C    0.044642
    52  N   -0.280235
    53  H    0.034172
    54  H    0.042360
    55  H    0.022297
    56  H    0.130644
    57  H    0.112530
    58  N   -0.025109
    59  C    0.060097
    60  C    0.236383
    61  N   -0.270544
    62  H    0.030201
    63  C    0.160965
    64  N   -0.297111
    65  H    0.034007
    66  C    0.121439
    67  N   -0.254709
    68  C    0.038187
    69  C    0.179954
    70  N   -0.308602
 Sum of Mulliken charges =  -0.00000
 Mulliken charges with hydrogens summed into heavy atoms:
               1
     1  N   -0.307526
     2  C    0.258966
     3  C    0.048593
     4  N   -0.235818
     5  C    0.147118
     7  N   -0.295281
     8  C    0.146024
    10  N   -0.290046
    11  C    0.237250
    12  C    0.089573
    13  N    0.161313
    19  N   -0.307617
    20  C    0.261160
    21  C    0.261599
    22  N    0.112318
    25  N   -0.311693
    26  C    0.249847
    27  N   -0.029590
    29  C    0.196197
    30  O   -0.327284
    31  C   -0.023257
    32  N   -0.212203
    33  C    0.141163
    42  C   -0.078778
    43  O   -0.292612
    44  C    0.150879
    46  N    0.031555
    47  O   -0.349786
    48  C    0.341718
    50  C    0.228235
    51  C    0.231062
    52  N   -0.280235
    58  N    0.218064
    59  C    0.060097
    60  C    0.236383
    61  N   -0.270544
    63  C    0.191166
    64  N   -0.297111
    66  C    0.155446
    67  N   -0.254709
    68  C    0.038187
    69  C    0.278783
    70  N   -0.308602
 Electronic spatial extent (au):  <R**2>=          22445.1247
 Charge=              0.0000 electrons
 Dipole moment (field-independent basis, Debye):
    X=              5.3696    Y=              4.7688    Z=              6.0081  Tot=              9.3633
 Quadrupole moment (field-independent basis, Debye-Ang):
   XX=           -146.1935   YY=           -231.5122   ZZ=           -251.1897
   XY=              7.0154   XZ=              8.0450   YZ=             13.1575
 Traceless Quadrupole moment (field-independent basis, Debye-Ang):
   XX=             63.4383   YY=            -21.8804   ZZ=            -41.5579
   XY=              7.0154   XZ=              8.0450   YZ=             13.1575
 Octapole moment (field-independent basis, Debye-Ang**2):
  XXX=            -92.5367  YYY=             58.3343  ZZZ=             96.0099  XYY=              5.6230
  XXY=             63.5040  XXZ=             90.9979  XZZ=            102.8400  YZZ=             23.6370
  YYZ=             10.6600  XYZ=              1.7806
 Hexadecapole moment (field-independent basis, Debye-Ang**3):
 XXXX=         -16167.8228 YYYY=          -4660.3054 ZZZZ=          -3735.1909 XXXY=            444.9014
 XXXZ=            495.7955 YYYX=             24.7064 YYYZ=            220.1051 ZZZX=            230.5229
 ZZZY=            129.4750 XXYY=          -4017.7137 XXZZ=          -3796.0930 YYZZ=          -1287.5316
 XXYZ=             41.0464 YYXZ=            -66.8948 ZZXY=            -78.0941
 N-N= 5.531509671513D+03 E-N=-1.584388180583D+04  KE= 2.037888622820D+03
 No NMR shielding tensors so no spin-rotation constants.
 Leave Link  601 at Fri Jan 19 03:26:06 2018, MaxMem=  4294967296 cpu:              49.3 elap:               1.7
 (Enter /share/apps/g16/l9999.exe)
 1\1\GINC-COMPUTE-0-3\SP\RwB97XD\CC-pVDZ\C23H27N17O3\SATYA\19-Jan-2018\
 0\\#p wb97xd/cc-pvdz sp scf=(maxcycles=20)\\Base pair stacking\\0,1\N,
 0,3.70162,4.33839,-5.89056\C,0,3.65062,5.73252,-6.37204\C,0,3.31048,2.
 19316,-5.60368\N,0,4.32897,2.52333,-4.72141\C,0,4.52385,3.80254,-4.929
 56\H,0,5.2614,4.41072,-4.40508\N,0,1.6766,0.99603,-6.8121\C,0,1.40256,
 2.14745,-7.43397\H,0,0.61239,2.09548,-8.18175\N,0,1.95546,3.3478,-7.27
 156\C,0,2.91349,3.30167,-6.33109\C,0,2.64575,0.98254,-5.87101\N,0,2.92
 075,-0.16586,-5.24915\H,0,3.63021,-0.2223,-4.5458\H,0,2.42727,-1.0085,
 -5.465\H,0,4.53866,5.98696,-6.75523\H,0,2.94771,5.81674,-7.07768\H,0,3
 .43096,6.34248,-5.61066\N,0,0.4925,4.43748,-3.46734\C,0,-0.11297,3.213
 97,-3.62377\C,0,-0.09916,5.73711,-3.84363\N,0,-2.833,1.31313,-4.64846\
 H,0,-3.09003,0.34748,-4.67491\H,0,-3.50029,1.97006,-5.00043\N,0,-1.340
 27,2.99521,-4.14333\C,0,-1.64702,1.71025,-4.16303\N,0,-0.8168,0.71415,
 -3.70912\H,0,-1.13439,-0.24146,-3.76307\C,0,0.45013,0.91614,-3.17065\O
 ,0,1.11908,-0.05257,-2.79004\C,0,0.79364,2.29168,-3.14291\N,0,1.94512,
 2.92346,-2.69364\C,0,1.7216,4.19208,-2.90543\H,0,2.42211,4.99388,-2.66
 949\H,0,0.48082,6.18501,-4.52321\H,0,-1.00848,5.58767,-4.22971\H,0,-0.
 17338,6.31835,-3.03402\H,0,-3.03208,-4.82013,-4.89766\H,0,-3.5081,-4.8
 1335,-3.20119\H,0,-3.43712,-3.29868,-4.10236\H,0,1.16309,-5.89346,-2.8
 0121\C,0,0.52973,-5.02498,-2.98239\O,0,2.23891,-3.44961,-2.50911\C,0,1
 .08107,-3.71291,-2.83294\H,0,0.54813,-1.74326,-2.99035\N,0,0.1951,-2.6
 8508,-3.08564\O,0,-1.82882,-1.82804,-3.65696\C,0,-1.1218,-2.79958,-3.4
 5469\H,0,-1.21847,-6.14452,-3.46845\C,0,-0.75133,-5.16883,-3.34128\C,0
 ,-2.98132,-4.26874,-3.97059\N,0,-1.57989,-4.09655,-3.57805\H,0,-2.4445
 1,-5.3716,-9.08192\H,0,-2.72021,-3.92552,-8.37839\H,0,-3.36886,-5.2804
 4,-7.74002\H,0,3.07362,-3.73862,-4.39692\H,0,2.52942,-5.33338,-4.66281
 \N,0,2.40458,-4.35249,-4.81609\C,0,1.39064,-3.88489,-5.54714\C,0,-0.56
 823,-4.07352,-6.88467\N,0,-0.71102,-2.75129,-7.07372\H,0,0.21759,-0.99
 98,-6.55357\C,0,0.2582,-2.08338,-6.45131\N,0,1.27462,-2.54989,-5.71861
 \H,0,-1.26574,-7.2192,-7.14996\C,0,-0.82396,-6.2512,-6.91173\N,0,0.251
 45,-6.08219,-6.18193\C,0,0.42466,-4.70593,-6.15683\C,0,-2.57226,-4.899
 56,-8.20965\N,0,-1.37186,-5.0779,-7.36987\\Version=EM64L-G16RevA.03\St
 ate=1-A\HF=-2048.7272309\RMSD=7.167e-09\Dipole=-3.3152512,-1.1264851,-
 1.1447897\Quadrupole=-2.102244,37.2754641,-35.1732202,22.7899451,0.358
 0112,6.7484553\PG=C01 [X(C23H27N17O3)]\\@


 HO!  SUCH BUGS AND GOBLINS IN MY LIFE!

                            -- HAMLET, ACT 5, SCENE 2
 Job cpu time:       0 days  6 hours  2 minutes 29.1 seconds.
 Elapsed time:       0 days  0 hours 11 minutes 44.9 seconds.
 File lengths (MBytes):  RWF=    298 Int=      0 D2E=      0 Chk=     33 Scr=      1
 Normal termination of Gaussian 16 at Fri Jan 19 03:26:07 2018.
