 Entering Gaussian System, Link 0=g16
 Input=str15.-15.0.5.com
 Output=str15.-15.0.5.log
 Initial command:
 /share/apps/g16/l1.exe "/state/partition1/scr/Gau-8546.inp" -scrdir="/state/partition1/scr/"
 Entering Link 1 = /share/apps/g16/l1.exe PID=      8547.
  
 Copyright (c) 1988,1990,1992,1993,1995,1998,2003,2009,2016,
            Gaussian, Inc.  All Rights Reserved.
  
 This is part of the Gaussian(R) 16 program.  It is based on
 the Gaussian(R) 09 system (copyright 2009, Gaussian, Inc.),
 the Gaussian(R) 03 system (copyright 2003, Gaussian, Inc.),
 the Gaussian(R) 98 system (copyright 1998, Gaussian, Inc.),
 the Gaussian(R) 94 system (copyright 1995, Gaussian, Inc.),
 the Gaussian 92(TM) system (copyright 1992, Gaussian, Inc.),
 the Gaussian 90(TM) system (copyright 1990, Gaussian, Inc.),
 the Gaussian 88(TM) system (copyright 1988, Gaussian, Inc.),
 the Gaussian 86(TM) system (copyright 1986, Carnegie Mellon
 University), and the Gaussian 82(TM) system (copyright 1983,
 Carnegie Mellon University). Gaussian is a federally registered
 trademark of Gaussian, Inc.
  
 This software contains proprietary and confidential information,
 including trade secrets, belonging to Gaussian, Inc.
  
 This software is provided under written license and may be
 used, copied, transmitted, or stored only in accord with that
 written license.
  
 The following legend is applicable only to US Government
 contracts under FAR:
  
                    RESTRICTED RIGHTS LEGEND
  
 Use, reproduction and disclosure by the US Government is
 subject to restrictions as set forth in subparagraphs (a)
 and (c) of the Commercial Computer Software - Restricted
 Rights clause in FAR 52.227-19.
  
 Gaussian, Inc.
 340 Quinnipiac St., Bldg. 40, Wallingford CT 06492
  
  
 ---------------------------------------------------------------
 Warning -- This program may not be used in any manner that
 competes with the business of Gaussian, Inc. or will provide
 assistance to any competitor of Gaussian, Inc.  The licensee
 of this program is prohibited from giving any competitor of
 Gaussian, Inc. access to this program.  By using this program,
 the user acknowledges that Gaussian, Inc. is engaged in the
 business of creating and licensing software in the field of
 computational chemistry and represents and warrants to the
 licensee that it is not a competitor of Gaussian, Inc. and that
 it will not use this program in any manner prohibited above.
 ---------------------------------------------------------------
  

 Cite this work as:
 Gaussian 16, Revision A.03,
 M. J. Frisch, G. W. Trucks, H. B. Schlegel, G. E. Scuseria, 
 M. A. Robb, J. R. Cheeseman, G. Scalmani, V. Barone, 
 G. A. Petersson, H. Nakatsuji, X. Li, M. Caricato, A. V. Marenich, 
 J. Bloino, B. G. Janesko, R. Gomperts, B. Mennucci, H. P. Hratchian, 
 J. V. Ortiz, A. F. Izmaylov, J. L. Sonnenberg, D. Williams-Young, 
 F. Ding, F. Lipparini, F. Egidi, J. Goings, B. Peng, A. Petrone, 
 T. Henderson, D. Ranasinghe, V. G. Zakrzewski, J. Gao, N. Rega, 
 G. Zheng, W. Liang, M. Hada, M. Ehara, K. Toyota, R. Fukuda, 
 J. Hasegawa, M. Ishida, T. Nakajima, Y. Honda, O. Kitao, H. Nakai, 
 T. Vreven, K. Throssell, J. A. Montgomery, Jr., J. E. Peralta, 
 F. Ogliaro, M. J. Bearpark, J. J. Heyd, E. N. Brothers, K. N. Kudin, 
 V. N. Staroverov, T. A. Keith, R. Kobayashi, J. Normand, 
 K. Raghavachari, A. P. Rendell, J. C. Burant, S. S. Iyengar, 
 J. Tomasi, M. Cossi, J. M. Millam, M. Klene, C. Adamo, R. Cammi, 
 J. W. Ochterski, R. L. Martin, K. Morokuma, O. Farkas, 
 J. B. Foresman, and D. J. Fox, Gaussian, Inc., Wallingford CT, 2016.
 
 ******************************************
 Gaussian 16:  EM64L-G16RevA.03 25-Dec-2016
                18-Jan-2018 
 ******************************************
 %nprocshared=32
 Will use up to   32 processors via shared memory.
 %mem=32GB
 %chk=allatoms_t.chk
 ---------------------------------------
 #p wb97xd/cc-pvdz sp scf=(maxcycles=20)
 ---------------------------------------
 1/38=1,172=1/1;
 2/12=2,17=6,18=5,40=1/2;
 3/5=16,11=2,25=1,30=1,74=-58/1,2,3;
 4//1;
 5/5=2,7=20,38=5/2;
 6/7=2,8=2,9=2,10=2,28=1/1;
 99/5=1,9=1/99;
 Leave Link    1 at Thu Jan 18 22:17:09 2018, MaxMem=  4294967296 cpu:               2.7 elap:               0.1
 (Enter /share/apps/g16/l101.exe)
 ------------------
 Base pair stacking
 ------------------
 Symbolic Z-matrix:
 Charge =  0 Multiplicity = 1
 N                    -0.19521   4.88372  -6.23551 
 C                    -0.43223   6.32253  -6.0082 
 C                    -0.43046   2.69893  -6.32867 
 N                     0.83002   2.97561  -6.83794 
 C                     0.9213    4.28079  -6.76143 
 H                     1.78859   4.86123  -7.07742 
 N                    -2.37026   1.56774  -5.60719 
 C                    -2.86231   2.77049  -5.29273 
 H                    -3.8654    2.76609  -4.86842 
 N                    -2.30392   3.97219  -5.42312 
 C                    -1.07429   3.86513  -5.95318 
 C                    -1.13045   1.4936   -6.13866 
 N                    -0.63754   0.2939   -6.4532 
 H                     0.27579   0.19168  -6.84892 
 H                    -1.16411  -0.54314  -6.30411 
 H                    -0.37529   6.81262  -6.87811 
 H                    -1.34063   6.45295  -5.61208 
 H                     0.25816   6.68101  -5.37984 
 N                    -0.56016   4.445    -3.0384 
 C                    -1.17414   3.22164  -2.91812 
 C                    -1.23315   5.7537   -2.91546 
 N                    -4.03758   1.33432  -2.36997 
 H                    -4.28515   0.36714  -2.31988 
 H                    -4.77292   1.99858  -2.23307 
 N                    -2.48484   3.01126  -2.66941 
 C                    -2.77643   1.724    -2.60991 
 N                    -1.85631   0.71814  -2.78063 
 H                    -2.16918  -0.23851  -2.71822 
 C                    -0.50259   0.9114   -3.03743 
 O                     0.24366  -0.06576  -3.17535 
 C                    -0.17419   2.28929  -3.10419 
 N                     1.04306   2.91473  -3.33662 
 C                     0.76606   4.18955  -3.28849 
 H                     1.49437   4.98899  -3.42898 
 H                    -1.12853   6.26552  -3.76746 
 H                    -2.20464   5.61051  -2.73116 
 H                    -0.82511   6.27091  -2.16392 
 H                    -4.47297  -4.76637  -2.92733 
 H                    -3.90822  -4.89811  -1.26349 
 H                    -4.32603  -3.31917  -1.92964 
 H                     0.14942  -5.88659  -3.652 
 C                    -0.45703  -5.02331  -3.3778 
 O                     1.25409  -3.44489  -3.83363 
 C                     0.11022  -3.71252  -3.46656 
 H                    -0.37652  -1.75072  -3.14602 
 N                    -0.74168  -2.69143  -3.09656 
 O                    -2.71613  -1.84563  -2.35942 
 C                    -2.03917  -2.81135  -2.66566 
 H                    -2.19786  -6.14733  -2.87592 
 C                    -1.71983  -5.17235  -2.96098 
 C                    -3.89614  -4.28451  -2.15199 
 N                    -2.51441  -4.10669  -2.6069 
 H                    -7.08393  -4.66998  -4.3604 
 H                    -6.3383   -3.50926  -3.48926 
 H                    -6.23931  -5.07016  -3.02252 
 H                    -0.36448  -3.29653  -7.19381 
 H                    -1.07381  -4.84789  -7.20939 
 N                    -1.10996  -3.89617  -6.90255 
 C                    -2.10838  -3.44763  -6.13892 
 C                    -4.1399   -3.64135  -4.91534 
 N                    -4.16244  -2.35831  -4.51821 
 H                    -3.04319  -0.65269  -4.71514 
 C                    -3.10327  -1.70457  -4.99118 
 N                    -2.1022   -2.15205  -5.75616 
 H                    -5.15258  -6.69939  -5.18925 
 C                    -4.60745  -5.75714  -5.25188 
 N                    -3.48601  -5.58723  -5.90853 
 C                    -3.1786   -4.25002  -5.70335 
 C                    -6.27775  -4.4542   -3.80948 
 N                    -5.06045  -4.62088  -4.62704 
 
 ITRead=  0  0  0  0  0  0  0  0  0  0  0  0  0  0  0  0  0  0  0  0
 ITRead=  0  0  0  0  0  0  0  0  0  0  0  0  0  0  0  0  0  0  0  0
 ITRead=  0  0  0  0  0  0  0  0  0  0  0  0  0  0  0  0  0  0  0  0
 ITRead=  0  0  0  0  0  0  0  0  0  0
 MicOpt= -1 -1 -1 -1 -1 -1 -1 -1 -1 -1 -1 -1 -1 -1 -1 -1 -1 -1 -1 -1
 MicOpt= -1 -1 -1 -1 -1 -1 -1 -1 -1 -1 -1 -1 -1 -1 -1 -1 -1 -1 -1 -1
 MicOpt= -1 -1 -1 -1 -1 -1 -1 -1 -1 -1 -1 -1 -1 -1 -1 -1 -1 -1 -1 -1
 MicOpt= -1 -1 -1 -1 -1 -1 -1 -1 -1 -1
 NAtoms=     70 NQM=       70 NQMF=       0 NMMI=      0 NMMIF=      0
                NMic=       0 NMicF=      0.
                    Isotopes and Nuclear Properties:
 (Nuclear quadrupole moments (NQMom) in fm**2, nuclear magnetic moments (NMagM)
  in nuclear magnetons)

  Atom         1           2           3           4           5           6           7           8           9          10
 IAtWgt=          14          12          12          14          12           1          14          12           1          14
 AtmWgt=  14.0030740  12.0000000  12.0000000  14.0030740  12.0000000   1.0078250  14.0030740  12.0000000   1.0078250  14.0030740
 NucSpn=           2           0           0           2           0           1           2           0           1           2
 AtZEff=  -0.0000000  -0.0000000  -0.0000000  -0.0000000  -0.0000000  -0.0000000  -0.0000000  -0.0000000  -0.0000000  -0.0000000
 NQMom=    2.0440000   0.0000000   0.0000000   2.0440000   0.0000000   0.0000000   2.0440000   0.0000000   0.0000000   2.0440000
 NMagM=    0.4037610   0.0000000   0.0000000   0.4037610   0.0000000   2.7928460   0.4037610   0.0000000   2.7928460   0.4037610
 AtZNuc=   7.0000000   6.0000000   6.0000000   7.0000000   6.0000000   1.0000000   7.0000000   6.0000000   1.0000000   7.0000000

  Atom        11          12          13          14          15          16          17          18          19          20
 IAtWgt=          12          12          14           1           1           1           1           1          14          12
 AtmWgt=  12.0000000  12.0000000  14.0030740   1.0078250   1.0078250   1.0078250   1.0078250   1.0078250  14.0030740  12.0000000
 NucSpn=           0           0           2           1           1           1           1           1           2           0
 AtZEff=  -0.0000000  -0.0000000  -0.0000000  -0.0000000  -0.0000000  -0.0000000  -0.0000000  -0.0000000  -0.0000000  -0.0000000
 NQMom=    0.0000000   0.0000000   2.0440000   0.0000000   0.0000000   0.0000000   0.0000000   0.0000000   2.0440000   0.0000000
 NMagM=    0.0000000   0.0000000   0.4037610   2.7928460   2.7928460   2.7928460   2.7928460   2.7928460   0.4037610   0.0000000
 AtZNuc=   6.0000000   6.0000000   7.0000000   1.0000000   1.0000000   1.0000000   1.0000000   1.0000000   7.0000000   6.0000000

  Atom        21          22          23          24          25          26          27          28          29          30
 IAtWgt=          12          14           1           1          14          12          14           1          12          16
 AtmWgt=  12.0000000  14.0030740   1.0078250   1.0078250  14.0030740  12.0000000  14.0030740   1.0078250  12.0000000  15.9949146
 NucSpn=           0           2           1           1           2           0           2           1           0           0
 AtZEff=  -0.0000000  -0.0000000  -0.0000000  -0.0000000  -0.0000000  -0.0000000  -0.0000000  -0.0000000  -0.0000000  -0.0000000
 NQMom=    0.0000000   2.0440000   0.0000000   0.0000000   2.0440000   0.0000000   2.0440000   0.0000000   0.0000000   0.0000000
 NMagM=    0.0000000   0.4037610   2.7928460   2.7928460   0.4037610   0.0000000   0.4037610   2.7928460   0.0000000   0.0000000
 AtZNuc=   6.0000000   7.0000000   1.0000000   1.0000000   7.0000000   6.0000000   7.0000000   1.0000000   6.0000000   8.0000000

  Atom        31          32          33          34          35          36          37          38          39          40
 IAtWgt=          12          14          12           1           1           1           1           1           1           1
 AtmWgt=  12.0000000  14.0030740  12.0000000   1.0078250   1.0078250   1.0078250   1.0078250   1.0078250   1.0078250   1.0078250
 NucSpn=           0           2           0           1           1           1           1           1           1           1
 AtZEff=  -0.0000000  -0.0000000  -0.0000000  -0.0000000  -0.0000000  -0.0000000  -0.0000000  -0.0000000  -0.0000000  -0.0000000
 NQMom=    0.0000000   2.0440000   0.0000000   0.0000000   0.0000000   0.0000000   0.0000000   0.0000000   0.0000000   0.0000000
 NMagM=    0.0000000   0.4037610   0.0000000   2.7928460   2.7928460   2.7928460   2.7928460   2.7928460   2.7928460   2.7928460
 AtZNuc=   6.0000000   7.0000000   6.0000000   1.0000000   1.0000000   1.0000000   1.0000000   1.0000000   1.0000000   1.0000000

  Atom        41          42          43          44          45          46          47          48          49          50
 IAtWgt=           1          12          16          12           1          14          16          12           1          12
 AtmWgt=   1.0078250  12.0000000  15.9949146  12.0000000   1.0078250  14.0030740  15.9949146  12.0000000   1.0078250  12.0000000
 NucSpn=           1           0           0           0           1           2           0           0           1           0
 AtZEff=  -0.0000000  -0.0000000  -0.0000000  -0.0000000  -0.0000000  -0.0000000  -0.0000000  -0.0000000  -0.0000000  -0.0000000
 NQMom=    0.0000000   0.0000000   0.0000000   0.0000000   0.0000000   2.0440000   0.0000000   0.0000000   0.0000000   0.0000000
 NMagM=    2.7928460   0.0000000   0.0000000   0.0000000   2.7928460   0.4037610   0.0000000   0.0000000   2.7928460   0.0000000
 AtZNuc=   1.0000000   6.0000000   8.0000000   6.0000000   1.0000000   7.0000000   8.0000000   6.0000000   1.0000000   6.0000000

  Atom        51          52          53          54          55          56          57          58          59          60
 IAtWgt=          12          14           1           1           1           1           1          14          12          12
 AtmWgt=  12.0000000  14.0030740   1.0078250   1.0078250   1.0078250   1.0078250   1.0078250  14.0030740  12.0000000  12.0000000
 NucSpn=           0           2           1           1           1           1           1           2           0           0
 AtZEff=  -0.0000000  -0.0000000  -0.0000000  -0.0000000  -0.0000000  -0.0000000  -0.0000000  -0.0000000  -0.0000000  -0.0000000
 NQMom=    0.0000000   2.0440000   0.0000000   0.0000000   0.0000000   0.0000000   0.0000000   2.0440000   0.0000000   0.0000000
 NMagM=    0.0000000   0.4037610   2.7928460   2.7928460   2.7928460   2.7928460   2.7928460   0.4037610   0.0000000   0.0000000
 AtZNuc=   6.0000000   7.0000000   1.0000000   1.0000000   1.0000000   1.0000000   1.0000000   7.0000000   6.0000000   6.0000000

  Atom        61          62          63          64          65          66          67          68          69          70
 IAtWgt=          14           1          12          14           1          12          14          12          12          14
 AtmWgt=  14.0030740   1.0078250  12.0000000  14.0030740   1.0078250  12.0000000  14.0030740  12.0000000  12.0000000  14.0030740
 NucSpn=           2           1           0           2           1           0           2           0           0           2
 AtZEff=  -0.0000000  -0.0000000  -0.0000000  -0.0000000  -0.0000000  -0.0000000  -0.0000000  -0.0000000  -0.0000000  -0.0000000
 NQMom=    2.0440000   0.0000000   0.0000000   2.0440000   0.0000000   0.0000000   2.0440000   0.0000000   0.0000000   2.0440000
 NMagM=    0.4037610   2.7928460   0.0000000   0.4037610   2.7928460   0.0000000   0.4037610   0.0000000   0.0000000   0.4037610
 AtZNuc=   7.0000000   1.0000000   6.0000000   7.0000000   1.0000000   6.0000000   7.0000000   6.0000000   6.0000000   7.0000000
 Leave Link  101 at Thu Jan 18 22:17:09 2018, MaxMem=  4294967296 cpu:               6.4 elap:               0.2
 (Enter /share/apps/g16/l202.exe)
 Stoichiometry    C23H27N17O3
 Framework group  C1[X(C23H27N17O3)]
 Deg. of freedom   204
 Full point group                 C1      NOp   1
 Largest Abelian subgroup         C1      NOp   1
 Largest concise Abelian subgroup C1      NOp   1
                         Standard orientation:                         
 ---------------------------------------------------------------------
 Center     Atomic      Atomic             Coordinates (Angstroms)
 Number     Number       Type             X           Y           Z
 ---------------------------------------------------------------------
      1          7           0        5.442846   -1.044317   -1.215574
      2          6           0        6.741112   -0.360786   -1.374676
      3          6           0        3.289318   -1.484589   -1.139377
      4          7           0        3.938693   -2.664652   -0.806991
      5          6           0        5.210122   -2.352173   -0.866199
      6          1           0        6.028564   -3.043348   -0.662769
      7          7           0        1.617914    0.113022   -1.605202
      8          6           0        2.613224    0.979552   -1.819887
      9          1           0        2.302035    1.985458   -2.098387
     10          7           0        3.929024    0.790933   -1.742567
     11          6           0        4.203354   -0.476970   -1.393883
     12          6           0        1.926724   -1.154912   -1.255826
     13          7           0        0.934581   -2.021352   -1.041088
     14          1           0        1.116719   -2.970142   -0.780630
     15          1           0       -0.024055   -1.751772   -1.133197
     16          1           0        7.275275   -0.818264   -2.085703
     17          1           0        6.587350    0.591784   -1.635592
     18          1           0        7.244134   -0.391003   -0.510942
     19          7           0        4.740534    1.099647    1.120523
     20          6           0        3.388863    1.317674    1.004345
     21          6           0        5.796957    2.008377    0.631742
     22          7           0        0.742268    3.299611   -0.058292
     23          1           0       -0.256684    3.267737   -0.040494
     24          1           0        1.163137    4.098988   -0.487911
     25          7           0        2.803402    2.390065    0.428789
     26          6           0        1.484961    2.315091    0.469959
     27          7           0        0.791011    1.270684    1.031359
     28          1           0       -0.216982    1.297548    1.017616
     29          6           0        1.372677    0.157018    1.629077
     30          8           0        0.655286   -0.730824    2.106403
     31          6           0        2.788712    0.223296    1.592522
     32          7           0        3.744372   -0.663935    2.068370
     33          6           0        4.884339   -0.103824    1.766771
     34          1           0        5.863442   -0.527188    1.993483
     35          1           0        6.364388    1.532216   -0.039154
     36          1           0        5.375220    2.806453    0.203402
     37          1           0        6.365374    2.304398    1.398611
     38          1           0       -5.191937    1.721460    0.056981
     39          1           0       -5.251874    2.302423    1.719375
     40          1           0       -3.820394    2.600884    0.732887
     41          1           0       -4.919107   -2.440415    2.455082
     42          6           0       -4.278943   -1.600601    2.184672
     43          8           0       -2.258682   -2.749767    2.659107
     44          6           0       -2.858501   -1.742135    2.285341
     45          1           0       -1.135105   -0.682318    1.977095
     46          7           0       -2.141870   -0.620672    1.919252
     47          8           0       -1.930611    1.516195    1.180082
     48          6           0       -2.647178    0.578112    1.482083
     49          1           0       -5.875002   -0.285012    1.667358
     50          6           0       -4.801555   -0.443696    1.761515
     51          6           0       -4.611052    1.898132    0.949973
     52          7           0       -4.025166    0.636751    1.411922
     53          1           0       -5.756490    2.791560   -2.666299
     54          1           0       -4.483185    3.075605   -1.686437
     55          1           0       -5.976229    2.894247   -1.052416
     56          1           0       -2.385315   -3.598684   -0.973508
     57          1           0       -4.070413   -3.477933   -1.210090
     58          7           0       -3.186368   -3.018052   -1.119528
     59          6           0       -3.081477   -1.689473   -1.190485
     60          6           0       -3.909112    0.526827   -1.445018
     61          7           0       -2.708983    1.117124   -1.319900
     62          1           0       -0.748514    0.599870   -1.020483
     63          6           0       -1.757375    0.204920   -1.132165
     64          7           0       -1.860426   -1.126192   -1.060791
     65          1           0       -7.108299    0.328044   -1.866730
     66          6           0       -6.048509    0.125208   -1.709796
     67          7           0       -5.532384   -1.070517   -1.563023
     68          6           0       -4.176469   -0.830186   -1.394303
     69          6           0       -5.353099    2.591058   -1.773509
     70          7           0       -5.123239    1.138576   -1.649137
 ---------------------------------------------------------------------
 Rotational constants (GHZ):           0.1825916           0.0529012           0.0518447
 Leave Link  202 at Thu Jan 18 22:17:09 2018, MaxMem=  4294967296 cpu:               0.3 elap:               0.0
 (Enter /share/apps/g16/l301.exe)
 Standard basis: CC-pVDZ (5D, 7F)
 Ernie: Thresh=  0.10000D-02 Tol=  0.10000D-05 Strict=F.
 Ernie:  86 primitive shells out of 1081 were deleted.
 There are   780 symmetry adapted cartesian basis functions of A   symmetry.
 There are   737 symmetry adapted basis functions of A   symmetry.
   737 basis functions,  1608 primitive gaussians,   780 cartesian basis functions
   154 alpha electrons      154 beta electrons
       nuclear repulsion energy      5671.1307074360 Hartrees.
 IExCor= 4639 DFT=T Ex+Corr=wB97XD ExCW=0 ScaHFX=  1.000000
 ScaDFX=  1.000000  1.000000  1.000000  1.000000 ScalE2=  1.000000  1.000000
 IRadAn=      5 IRanWt=     -1 IRanGd=            0 ICorTp=0 IEmpDi=121
 HFx  wShort=  0.000000 wLong=  0.200000 cFull=  0.222036 cShort=  0.000000 cLong=  0.777964
 DFx  wShort=  0.000000 wLong=  0.200000 cFull=  0.000000 cShort=  0.000000 cLong=  1.000000
 NAtoms=   70 NActive=   70 NUniq=   70 SFac= 1.00D+00 NAtFMM=   60 NAOKFM=T Big=T
 Integral buffers will be    131072 words long.
 Raffenetti 2 integral format.
 Two-electron integral symmetry is turned on.
 R6Disp:  Grimme-D2 Dispersion energy=       -0.0833718671 Hartrees.
 Nuclear repulsion after empirical dispersion term =     5671.0473355689 Hartrees.
 Leave Link  301 at Thu Jan 18 22:17:09 2018, MaxMem=  4294967296 cpu:               2.1 elap:               0.1
 (Enter /share/apps/g16/l302.exe)
 NPDir=0 NMtPBC=     1 NCelOv=     1 NCel=       1 NClECP=     1 NCelD=      1
         NCelK=      1 NCelE2=     1 NClLst=     1 CellRange=     0.0.
 One-electron integrals computed using PRISM.
 One-electron integral symmetry used in STVInt
 NBasis=   737 RedAO= T EigKep=  6.41D-04  NBF=   737
 NBsUse=   737 1.00D-06 EigRej= -1.00D+00 NBFU=   737
 Precomputing XC quadrature grid using
 IXCGrd= 4 IRadAn=           5 IRanWt=          -1 IRanGd=           0 AccXCQ= 0.00D+00.
 Generated NRdTot=       0 NPtTot=           0 NUsed=           0 NTot=          32
 NSgBfM=   770   769   769   769   770 MxSgAt=    70 MxSgA2=    70.
 Leave Link  302 at Thu Jan 18 22:17:25 2018, MaxMem=  4294967296 cpu:             480.2 elap:              15.5
 (Enter /share/apps/g16/l303.exe)
 DipDrv:  MaxL=1.
 Leave Link  303 at Thu Jan 18 22:17:26 2018, MaxMem=  4294967296 cpu:              23.8 elap:               0.8
 (Enter /share/apps/g16/l401.exe)
 ExpMin= 1.22D-01 ExpMax= 1.17D+04 ExpMxC= 4.01D+02 IAcc=3 IRadAn=         5 AccDes= 0.00D+00
 Harris functional with IExCor= 4639 and IRadAn=       5 diagonalized for initial guess.
 HarFok:  IExCor= 4639 AccDes= 0.00D+00 IRadAn=         5 IDoV= 1 UseB2=F ITyADJ=14
 ICtDFT=  3500011 ScaDFX=  1.000000  1.000000  1.000000  1.000000
 FoFCou: FMM=F IPFlag=           0 FMFlag=      100000 FMFlg1=        2001
         NFxFlg=           0 DoJE=T BraDBF=F KetDBF=T FulRan=T
         wScrn=  0.000000 ICntrl=       500 IOpCl=  0 I1Cent=   200000004 NGrid=           0
         NMat0=    1 NMatS0=      1 NMatT0=    0 NMatD0=    1 NMtDS0=    0 NMtDT0=    0
 Petite list used in FoFCou.
 Harris En= -1963.82852465532    
 JPrj=0 DoOrth=F DoCkMO=F.
 Leave Link  401 at Thu Jan 18 22:17:40 2018, MaxMem=  4294967296 cpu:             456.5 elap:              14.4
 (Enter /share/apps/g16/l502.exe)
 Integral symmetry usage will be decided dynamically.
 Closed shell SCF:
 Using DIIS extrapolation, IDIIS=  1040.
 NGot=  4294967296 LenX=  4293717438 LenY=  4293108258
 Requested convergence on RMS density matrix=1.00D-08 within  20 cycles.
 Requested convergence on MAX density matrix=1.00D-06.
 Requested convergence on             energy=1.00D-06.
 No special actions if energy rises.
 Fock matrices will be formed incrementally for  20 cycles.
 Integral accuracy reduced to 1.0D-05 until final iterations.

 Cycle   1  Pass 0  IDiag  1:
 FoFJK:  IHMeth= 1 ICntrl=       0 DoSepK=T KAlg= 0 I1Cent=           0 FoldK=F
 IRaf=         1 NMat=       1 IRICut=       1 DoRegI=T DoRafI=F ISym2E= 0 IDoP0=0 IntGTp=1.
 FoFCou: FMM=T IPFlag=           0 FMFlag=      100000 FMFlg1=        2001
         NFxFlg=           0 DoJE=T BraDBF=F KetDBF=F FulRan=T
         wScrn=  0.000000 ICntrl=       500 IOpCl=  0 I1Cent=           0 NGrid=           0
         NMat0=    1 NMatS0=      1 NMatT0=    0 NMatD0=    1 NMtDS0=    0 NMtDT0=    0
 Symmetry not used in FoFCou.
 FMM levels:  10  Number of levels for PrismC:   9
 E= -2048.27196847633    
 DIIS: error= 1.79D-02 at cycle   1 NSaved=   1.
 NSaved= 1 IEnMin= 1 EnMin= -2048.27196847633     IErMin= 1 ErrMin= 1.79D-02
 ErrMax= 1.79D-02  0.00D+00 EMaxC= 1.00D-01 BMatC= 8.37D-01 BMatP= 8.37D-01
 IDIUse=3 WtCom= 8.21D-01 WtEn= 1.79D-01
 Coeff-Com:  0.100D+01
 Coeff-En:   0.100D+01
 Coeff:      0.100D+01
 Gap=     0.253 Goal=   None    Shift=    0.000
 GapD=    0.253 DampG=1.000 DampE=0.500 DampFc=0.5000 IDamp=-1.
 Damping current iteration by 5.00D-01
 RMSDP=1.64D-03 MaxDP=1.28D-01              OVMax= 2.06D-01

 Cycle   2  Pass 0  IDiag  1:
 RMSU=  8.18D-04    CP:  9.97D-01
 E= -2048.46717533875     Delta-E=       -0.195206862411 Rises=F Damp=T
 DIIS: error= 8.69D-03 at cycle   2 NSaved=   2.
 NSaved= 2 IEnMin= 2 EnMin= -2048.46717533875     IErMin= 2 ErrMin= 8.69D-03
 ErrMax= 8.69D-03  0.00D+00 EMaxC= 1.00D-01 BMatC= 1.47D-01 BMatP= 8.37D-01
 IDIUse=3 WtCom= 9.13D-01 WtEn= 8.69D-02
 Coeff-Com: -0.179D+00 0.118D+01
 Coeff-En:   0.000D+00 0.100D+01
 Coeff:     -0.164D+00 0.116D+01
 Gap=     0.297 Goal=   None    Shift=    0.000
 RMSDP=6.24D-04 MaxDP=3.60D-02 DE=-1.95D-01 OVMax= 1.33D-01

 Cycle   3  Pass 0  IDiag  1:
 RMSU=  6.15D-04    CP:  9.93D-01  1.11D+00
 E= -2048.64225092851     Delta-E=       -0.175075589761 Rises=F Damp=F
 DIIS: error= 7.26D-03 at cycle   3 NSaved=   3.
 NSaved= 3 IEnMin= 3 EnMin= -2048.64225092851     IErMin= 3 ErrMin= 7.26D-03
 ErrMax= 7.26D-03  0.00D+00 EMaxC= 1.00D-01 BMatC= 7.40D-02 BMatP= 1.47D-01
 IDIUse=3 WtCom= 9.27D-01 WtEn= 7.26D-02
 Coeff-Com: -0.236D+00 0.569D+00 0.668D+00
 Coeff-En:   0.000D+00 0.000D+00 0.100D+01
 Coeff:     -0.219D+00 0.527D+00 0.692D+00
 Gap=     0.277 Goal=   None    Shift=    0.000
 RMSDP=3.99D-04 MaxDP=3.32D-02 DE=-1.75D-01 OVMax= 5.89D-02

 Cycle   4  Pass 0  IDiag  1:
 RMSU=  2.19D-04    CP:  9.93D-01  1.42D+00  6.43D-01
 E= -2048.69768011563     Delta-E=       -0.055429187126 Rises=F Damp=F
 DIIS: error= 2.76D-03 at cycle   4 NSaved=   4.
 NSaved= 4 IEnMin= 4 EnMin= -2048.69768011563     IErMin= 4 ErrMin= 2.76D-03
 ErrMax= 2.76D-03  0.00D+00 EMaxC= 1.00D-01 BMatC= 1.07D-02 BMatP= 7.40D-02
 IDIUse=3 WtCom= 9.72D-01 WtEn= 2.76D-02
 Coeff-Com: -0.989D-01 0.192D+00 0.375D+00 0.532D+00
 Coeff-En:   0.000D+00 0.000D+00 0.774D-01 0.923D+00
 Coeff:     -0.962D-01 0.186D+00 0.367D+00 0.543D+00
 Gap=     0.279 Goal=   None    Shift=    0.000
 RMSDP=1.39D-04 MaxDP=1.12D-02 DE=-5.54D-02 OVMax= 1.59D-02

 Cycle   5  Pass 0  IDiag  1:
 RMSU=  6.43D-05    CP:  9.93D-01  1.39D+00  7.83D-01  6.13D-01
 E= -2048.70662030138     Delta-E=       -0.008940185742 Rises=F Damp=F
 DIIS: error= 5.11D-04 at cycle   5 NSaved=   5.
 NSaved= 5 IEnMin= 5 EnMin= -2048.70662030138     IErMin= 5 ErrMin= 5.11D-04
 ErrMax= 5.11D-04  0.00D+00 EMaxC= 1.00D-01 BMatC= 3.20D-04 BMatP= 1.07D-02
 IDIUse=3 WtCom= 9.95D-01 WtEn= 5.11D-03
 Coeff-Com: -0.269D-01 0.465D-01 0.124D+00 0.241D+00 0.616D+00
 Coeff-En:   0.000D+00 0.000D+00 0.000D+00 0.000D+00 0.100D+01
 Coeff:     -0.267D-01 0.462D-01 0.123D+00 0.240D+00 0.617D+00
 Gap=     0.279 Goal=   None    Shift=    0.000
 RMSDP=2.89D-05 MaxDP=1.79D-03 DE=-8.94D-03 OVMax= 3.53D-03

 Failed to achieve initial convergence to 1.0D-08 in  6 cycles.
 Switch to full accuracy anyway.
 Cycle   6  Pass 1  IDiag  1:
 E= -2048.70682480851     Delta-E=       -0.000204507131 Rises=F Damp=F
 DIIS: error= 2.52D-04 at cycle   1 NSaved=   1.
 NSaved= 1 IEnMin= 1 EnMin= -2048.70682480851     IErMin= 1 ErrMin= 2.52D-04
 ErrMax= 2.52D-04  0.00D+00 EMaxC= 1.00D-01 BMatC= 8.30D-05 BMatP= 8.30D-05
 IDIUse=3 WtCom= 9.97D-01 WtEn= 2.52D-03
 Coeff-Com:  0.100D+01
 Coeff-En:   0.100D+01
 Coeff:      0.100D+01
 Gap=     0.279 Goal=   None    Shift=    0.000
 RMSDP=2.89D-05 MaxDP=1.79D-03 DE=-2.05D-04 OVMax= 2.79D-03

 Cycle   7  Pass 1  IDiag  1:
 RMSU=  1.24D-04    CP:  1.00D+00
 E= -2048.70687710331     Delta-E=       -0.000052294807 Rises=F Damp=F
 DIIS: error= 1.88D-04 at cycle   2 NSaved=   2.
 NSaved= 2 IEnMin= 2 EnMin= -2048.70687710331     IErMin= 2 ErrMin= 1.88D-04
 ErrMax= 1.88D-04  0.00D+00 EMaxC= 1.00D-01 BMatC= 5.32D-05 BMatP= 8.30D-05
 IDIUse=3 WtCom= 9.98D-01 WtEn= 1.88D-03
 Coeff-Com:  0.426D+00 0.574D+00
 Coeff-En:   0.107D+00 0.893D+00
 Coeff:      0.426D+00 0.574D+00
 Gap=     0.279 Goal=   None    Shift=    0.000
 RMSDP=1.33D-05 MaxDP=1.03D-03 DE=-5.23D-05 OVMax= 1.95D-03

 Cycle   8  Pass 1  IDiag  1:
 RMSU=  1.30D-05    CP:  1.00D+00  1.02D+00
 E= -2048.70691757000     Delta-E=       -0.000040466692 Rises=F Damp=F
 DIIS: error= 7.65D-05 at cycle   3 NSaved=   3.
 NSaved= 3 IEnMin= 3 EnMin= -2048.70691757000     IErMin= 3 ErrMin= 7.65D-05
 ErrMax= 7.65D-05  0.00D+00 EMaxC= 1.00D-01 BMatC= 1.10D-05 BMatP= 5.32D-05
 IDIUse=1 WtCom= 1.00D+00 WtEn= 0.00D+00
 Coeff-Com: -0.160D-01 0.299D+00 0.717D+00
 Coeff:     -0.160D-01 0.299D+00 0.717D+00
 Gap=     0.279 Goal=   None    Shift=    0.000
 RMSDP=6.26D-06 MaxDP=3.42D-04 DE=-4.05D-05 OVMax= 6.92D-04

 Cycle   9  Pass 1  IDiag  1:
 RMSU=  4.03D-06    CP:  1.00D+00  1.05D+00  7.57D-01
 E= -2048.70692846619     Delta-E=       -0.000010896186 Rises=F Damp=F
 DIIS: error= 2.55D-05 at cycle   4 NSaved=   4.
 NSaved= 4 IEnMin= 4 EnMin= -2048.70692846619     IErMin= 4 ErrMin= 2.55D-05
 ErrMax= 2.55D-05  0.00D+00 EMaxC= 1.00D-01 BMatC= 6.45D-07 BMatP= 1.10D-05
 IDIUse=1 WtCom= 1.00D+00 WtEn= 0.00D+00
 Coeff-Com: -0.306D-01 0.912D-01 0.292D+00 0.647D+00
 Coeff:     -0.306D-01 0.912D-01 0.292D+00 0.647D+00
 Gap=     0.279 Goal=   None    Shift=    0.000
 RMSDP=1.54D-06 MaxDP=1.07D-04 DE=-1.09D-05 OVMax= 4.44D-04

 Cycle  10  Pass 1  IDiag  1:
 RMSU=  1.40D-06    CP:  1.00D+00  1.05D+00  7.93D-01  1.07D+00
 E= -2048.70692942166     Delta-E=       -0.000000955466 Rises=F Damp=F
 DIIS: error= 1.18D-05 at cycle   5 NSaved=   5.
 NSaved= 5 IEnMin= 5 EnMin= -2048.70692942166     IErMin= 5 ErrMin= 1.18D-05
 ErrMax= 1.18D-05  0.00D+00 EMaxC= 1.00D-01 BMatC= 1.27D-07 BMatP= 6.45D-07
 IDIUse=1 WtCom= 1.00D+00 WtEn= 0.00D+00
 Coeff-Com: -0.499D-02-0.452D-01-0.943D-01 0.202D+00 0.942D+00
 Coeff:     -0.499D-02-0.452D-01-0.943D-01 0.202D+00 0.942D+00
 Gap=     0.279 Goal=   None    Shift=    0.000
 RMSDP=1.18D-06 MaxDP=6.98D-05 DE=-9.55D-07 OVMax= 2.81D-04

 Cycle  11  Pass 1  IDiag  1:
 RMSU=  5.13D-07    CP:  1.00D+00  1.05D+00  8.02D-01  1.32D+00  1.18D+00
 E= -2048.70692969359     Delta-E=       -0.000000271933 Rises=F Damp=F
 DIIS: error= 5.07D-06 at cycle   6 NSaved=   6.
 NSaved= 6 IEnMin= 6 EnMin= -2048.70692969359     IErMin= 6 ErrMin= 5.07D-06
 ErrMax= 5.07D-06  0.00D+00 EMaxC= 1.00D-01 BMatC= 3.52D-08 BMatP= 1.27D-07
 IDIUse=1 WtCom= 1.00D+00 WtEn= 0.00D+00
 Coeff-Com:  0.469D-02-0.452D-01-0.119D+00-0.195D-01 0.520D+00 0.659D+00
 Coeff:      0.469D-02-0.452D-01-0.119D+00-0.195D-01 0.520D+00 0.659D+00
 Gap=     0.279 Goal=   None    Shift=    0.000
 RMSDP=4.58D-07 MaxDP=3.39D-05 DE=-2.72D-07 OVMax= 1.38D-04

 Cycle  12  Pass 1  IDiag  1:
 RMSU=  2.10D-07    CP:  1.00D+00  1.05D+00  8.04D-01  1.41D+00  1.33D+00
                    CP:  9.42D-01
 E= -2048.70692974639     Delta-E=       -0.000000052806 Rises=F Damp=F
 DIIS: error= 1.13D-06 at cycle   7 NSaved=   7.
 NSaved= 7 IEnMin= 7 EnMin= -2048.70692974639     IErMin= 7 ErrMin= 1.13D-06
 ErrMax= 1.13D-06  0.00D+00 EMaxC= 1.00D-01 BMatC= 8.50D-10 BMatP= 3.52D-08
 IDIUse=1 WtCom= 1.00D+00 WtEn= 0.00D+00
 Coeff-Com:  0.134D-02-0.963D-02-0.266D-01-0.127D-01 0.859D-01 0.158D+00
 Coeff-Com:  0.804D+00
 Coeff:      0.134D-02-0.963D-02-0.266D-01-0.127D-01 0.859D-01 0.158D+00
 Coeff:      0.804D+00
 Gap=     0.279 Goal=   None    Shift=    0.000
 RMSDP=8.54D-08 MaxDP=5.28D-06 DE=-5.28D-08 OVMax= 2.63D-05

 Cycle  13  Pass 1  IDiag  1:
 RMSU=  5.57D-08    CP:  1.00D+00  1.05D+00  8.04D-01  1.42D+00  1.35D+00
                    CP:  1.02D+00  1.12D+00
 E= -2048.70692974819     Delta-E=       -0.000000001794 Rises=F Damp=F
 DIIS: error= 5.66D-07 at cycle   8 NSaved=   8.
 NSaved= 8 IEnMin= 8 EnMin= -2048.70692974819     IErMin= 8 ErrMin= 5.66D-07
 ErrMax= 5.66D-07  0.00D+00 EMaxC= 1.00D-01 BMatC= 3.77D-10 BMatP= 8.50D-10
 IDIUse=1 WtCom= 1.00D+00 WtEn= 0.00D+00
 Coeff-Com: -0.698D-03 0.836D-02 0.215D-01 0.581D-03-0.107D+00-0.115D+00
 Coeff-Com:  0.399D+00 0.793D+00
 Coeff:     -0.698D-03 0.836D-02 0.215D-01 0.581D-03-0.107D+00-0.115D+00
 Coeff:      0.399D+00 0.793D+00
 Gap=     0.279 Goal=   None    Shift=    0.000
 RMSDP=5.57D-08 MaxDP=3.19D-06 DE=-1.79D-09 OVMax= 1.28D-05

 Cycle  14  Pass 1  IDiag  1:
 RMSU=  3.15D-08    CP:  1.00D+00  1.05D+00  8.04D-01  1.42D+00  1.36D+00
                    CP:  1.06D+00  1.28D+00  1.04D+00
 E= -2048.70692974879     Delta-E=       -0.000000000600 Rises=F Damp=F
 DIIS: error= 1.73D-07 at cycle   9 NSaved=   9.
 NSaved= 9 IEnMin= 9 EnMin= -2048.70692974879     IErMin= 9 ErrMin= 1.73D-07
 ErrMax= 1.73D-07  0.00D+00 EMaxC= 1.00D-01 BMatC= 3.59D-11 BMatP= 3.77D-10
 IDIUse=1 WtCom= 1.00D+00 WtEn= 0.00D+00
 Coeff-Com: -0.436D-03 0.455D-02 0.119D-01 0.179D-02-0.526D-01-0.650D-01
 Coeff-Com:  0.913D-01 0.321D+00 0.687D+00
 Coeff:     -0.436D-03 0.455D-02 0.119D-01 0.179D-02-0.526D-01-0.650D-01
 Coeff:      0.913D-01 0.321D+00 0.687D+00
 Gap=     0.279 Goal=   None    Shift=    0.000
 RMSDP=1.44D-08 MaxDP=6.44D-07 DE=-6.00D-10 OVMax= 3.38D-06

 Cycle  15  Pass 1  IDiag  1:
 RMSU=  1.02D-08    CP:  1.00D+00  1.05D+00  8.04D-01  1.42D+00  1.36D+00
                    CP:  1.07D+00  1.31D+00  1.18D+00  1.08D+00
 E= -2048.70692974868     Delta-E=        0.000000000107 Rises=F Damp=F
 DIIS: error= 7.82D-08 at cycle  10 NSaved=  10.
 NSaved=10 IEnMin= 9 EnMin= -2048.70692974879     IErMin=10 ErrMin= 7.82D-08
 ErrMax= 7.82D-08  0.00D+00 EMaxC= 1.00D-01 BMatC= 6.05D-12 BMatP= 3.59D-11
 IDIUse=1 WtCom= 1.00D+00 WtEn= 0.00D+00
 Coeff-Com: -0.118D-04-0.104D-03-0.200D-03 0.215D-03 0.291D-02-0.343D-03
 Coeff-Com: -0.507D-01-0.592D-01 0.249D+00 0.859D+00
 Coeff:     -0.118D-04-0.104D-03-0.200D-03 0.215D-03 0.291D-02-0.343D-03
 Coeff:     -0.507D-01-0.592D-01 0.249D+00 0.859D+00
 Gap=     0.279 Goal=   None    Shift=    0.000
 RMSDP=7.95D-09 MaxDP=4.21D-07 DE= 1.07D-10 OVMax= 1.92D-06

 SCF Done:  E(RwB97XD) =  -2048.70692975     A.U. after   15 cycles
            NFock= 15  Conv=0.79D-08     -V/T= 2.0052
 KE= 2.038097631970D+03 PE=-1.612256575429D+04 EE= 6.364713857007D+03
 Leave Link  502 at Thu Jan 18 22:30:27 2018, MaxMem=  4294967296 cpu:           23659.5 elap:             766.6
 (Enter /share/apps/g16/l601.exe)
 Copying SCF densities to generalized density rwf, IOpCl= 0 IROHF=0.

 **********************************************************************

            Population analysis using the SCF density.

 **********************************************************************

 Orbital symmetries:
       Occupied  (A) (A) (A) (A) (A) (A) (A) (A) (A) (A) (A) (A)
                 (A) (A) (A) (A) (A) (A) (A) (A) (A) (A) (A) (A)
                 (A) (A) (A) (A) (A) (A) (A) (A) (A) (A) (A) (A)
                 (A) (A) (A) (A) (A) (A) (A) (A) (A) (A) (A) (A)
                 (A) (A) (A) (A) (A) (A) (A) (A) (A) (A) (A) (A)
                 (A) (A) (A) (A) (A) (A) (A) (A) (A) (A) (A) (A)
                 (A) (A) (A) (A) (A) (A) (A) (A) (A) (A) (A) (A)
                 (A) (A) (A) (A) (A) (A) (A) (A) (A) (A) (A) (A)
                 (A) (A) (A) (A) (A) (A) (A) (A) (A) (A) (A) (A)
                 (A) (A) (A) (A) (A) (A) (A) (A) (A) (A) (A) (A)
                 (A) (A) (A) (A) (A) (A) (A) (A) (A) (A) (A) (A)
                 (A) (A) (A) (A) (A) (A) (A) (A) (A) (A) (A) (A)
                 (A) (A) (A) (A) (A) (A) (A) (A) (A) (A)
       Virtual   (A) (A) (A) (A) (A) (A) (A) (A) (A) (A) (A) (A)
                 (A) (A) (A) (A) (A) (A) (A) (A) (A) (A) (A) (A)
                 (A) (A) (A) (A) (A) (A) (A) (A) (A) (A) (A) (A)
                 (A) (A) (A) (A) (A) (A) (A) (A) (A) (A) (A) (A)
                 (A) (A) (A) (A) (A) (A) (A) (A) (A) (A) (A) (A)
                 (A) (A) (A) (A) (A) (A) (A) (A) (A) (A) (A) (A)
                 (A) (A) (A) (A) (A) (A) (A) (A) (A) (A) (A) (A)
                 (A) (A) (A) (A) (A) (A) (A) (A) (A) (A) (A) (A)
                 (A) (A) (A) (A) (A) (A) (A) (A) (A) (A) (A) (A)
                 (A) (A) (A) (A) (A) (A) (A) (A) (A) (A) (A) (A)
                 (A) (A) (A) (A) (A) (A) (A) (A) (A) (A) (A) (A)
                 (A) (A) (A) (A) (A) (A) (A) (A) (A) (A) (A) (A)
                 (A) (A) (A) (A) (A) (A) (A) (A) (A) (A) (A) (A)
                 (A) (A) (A) (A) (A) (A) (A) (A) (A) (A) (A) (A)
                 (A) (A) (A) (A) (A) (A) (A) (A) (A) (A) (A) (A)
                 (A) (A) (A) (A) (A) (A) (A) (A) (A) (A) (A) (A)
                 (A) (A) (A) (A) (A) (A) (A) (A) (A) (A) (A) (A)
                 (A) (A) (A) (A) (A) (A) (A) (A) (A) (A) (A) (A)
                 (A) (A) (A) (A) (A) (A) (A) (A) (A) (A) (A) (A)
                 (A) (A) (A) (A) (A) (A) (A) (A) (A) (A) (A) (A)
                 (A) (A) (A) (A) (A) (A) (A) (A) (A) (A) (A) (A)
                 (A) (A) (A) (A) (A) (A) (A) (A) (A) (A) (A) (A)
                 (A) (A) (A) (A) (A) (A) (A) (A) (A) (A) (A) (A)
                 (A) (A) (A) (A) (A) (A) (A) (A) (A) (A) (A) (A)
                 (A) (A) (A) (A) (A) (A) (A) (A) (A) (A) (A) (A)
                 (A) (A) (A) (A) (A) (A) (A) (A) (A) (A) (A) (A)
                 (A) (A) (A) (A) (A) (A) (A) (A) (A) (A) (A) (A)
                 (A) (A) (A) (A) (A) (A) (A) (A) (A) (A) (A) (A)
                 (A) (A) (A) (A) (A) (A) (A) (A) (A) (A) (A) (A)
                 (A) (A) (A) (A) (A) (A) (A) (A) (A) (A) (A) (A)
                 (A) (A) (A) (A) (A) (A) (A) (A) (A) (A) (A) (A)
                 (A) (A) (A) (A) (A) (A) (A) (A) (A) (A) (A) (A)
                 (A) (A) (A) (A) (A) (A) (A) (A) (A) (A) (A) (A)
                 (A) (A) (A) (A) (A) (A) (A) (A) (A) (A) (A) (A)
                 (A) (A) (A) (A) (A) (A) (A) (A) (A) (A) (A) (A)
                 (A) (A) (A) (A) (A) (A) (A) (A) (A) (A) (A) (A)
                 (A) (A) (A) (A) (A) (A) (A) (A) (A) (A) (A) (A)
                 (A) (A) (A) (A) (A) (A) (A) (A) (A) (A) (A) (A)
                 (A) (A) (A) (A) (A) (A) (A) (A) (A) (A) (A) (A)
                 (A) (A) (A) (A) (A) (A) (A) (A) (A) (A) (A) (A)
                 (A) (A) (A) (A) (A) (A) (A) (A) (A) (A) (A) (A)
                 (A) (A) (A) (A) (A) (A) (A) (A) (A) (A) (A) (A)
                 (A) (A) (A) (A) (A) (A) (A) (A) (A) (A) (A) (A)
                 (A) (A) (A) (A) (A) (A) (A) (A) (A) (A) (A) (A)
                 (A) (A) (A) (A) (A) (A) (A) (A) (A) (A) (A) (A)
                 (A) (A) (A) (A) (A) (A) (A) (A) (A) (A) (A) (A)
                 (A) (A) (A) (A) (A) (A) (A) (A) (A) (A) (A) (A)
                 (A) (A) (A) (A) (A) (A) (A) (A) (A) (A) (A) (A)
                 (A) (A) (A) (A) (A) (A) (A)
 The electronic state is 1-A.
 Alpha  occ. eigenvalues --  -19.24987 -19.21414 -19.20555 -14.52723 -14.51789
 Alpha  occ. eigenvalues --  -14.49305 -14.48767 -14.48060 -14.47239 -14.46663
 Alpha  occ. eigenvalues --  -14.46581 -14.45674 -14.44521 -14.44339 -14.43085
 Alpha  occ. eigenvalues --  -14.41744 -14.41741 -14.41196 -14.40981 -14.40858
 Alpha  occ. eigenvalues --  -10.44670 -10.40984 -10.39988 -10.39524 -10.38239
 Alpha  occ. eigenvalues --  -10.38166 -10.37362 -10.37105 -10.36130 -10.36049
 Alpha  occ. eigenvalues --  -10.34585 -10.34424 -10.34238 -10.33842 -10.33707
 Alpha  occ. eigenvalues --  -10.33626 -10.33523 -10.32754 -10.32028 -10.30692
 Alpha  occ. eigenvalues --  -10.30488 -10.28917 -10.28146  -1.18886  -1.15780
 Alpha  occ. eigenvalues --   -1.13165  -1.12436  -1.11862  -1.10561  -1.09457
 Alpha  occ. eigenvalues --   -1.08707  -1.08497  -1.05710  -1.04925  -1.01947
 Alpha  occ. eigenvalues --   -1.01493  -1.01121  -0.99658  -0.98433  -0.97628
 Alpha  occ. eigenvalues --   -0.97029  -0.96547  -0.93389  -0.90395  -0.88042
 Alpha  occ. eigenvalues --   -0.86559  -0.84813  -0.84002  -0.83301  -0.83061
 Alpha  occ. eigenvalues --   -0.82289  -0.78280  -0.77282  -0.75115  -0.74588
 Alpha  occ. eigenvalues --   -0.73645  -0.73444  -0.72819  -0.71668  -0.70683
 Alpha  occ. eigenvalues --   -0.67398  -0.67028  -0.66937  -0.66188  -0.64606
 Alpha  occ. eigenvalues --   -0.64332  -0.63996  -0.63382  -0.62652  -0.62516
 Alpha  occ. eigenvalues --   -0.61725  -0.61162  -0.60737  -0.59820  -0.59131
 Alpha  occ. eigenvalues --   -0.58846  -0.58401  -0.58226  -0.57260  -0.56438
 Alpha  occ. eigenvalues --   -0.55846  -0.55695  -0.55409  -0.54457  -0.54106
 Alpha  occ. eigenvalues --   -0.53974  -0.53838  -0.53385  -0.53193  -0.52850
 Alpha  occ. eigenvalues --   -0.52405  -0.52259  -0.51516  -0.51215  -0.50749
 Alpha  occ. eigenvalues --   -0.50251  -0.49852  -0.49498  -0.49071  -0.48824
 Alpha  occ. eigenvalues --   -0.48552  -0.48237  -0.48111  -0.47862  -0.47161
 Alpha  occ. eigenvalues --   -0.47052  -0.46023  -0.45291  -0.44733  -0.42808
 Alpha  occ. eigenvalues --   -0.41499  -0.41010  -0.38863  -0.37738  -0.37680
 Alpha  occ. eigenvalues --   -0.37629  -0.37080  -0.36594  -0.36083  -0.34900
 Alpha  occ. eigenvalues --   -0.34731  -0.34483  -0.34002  -0.33542  -0.32842
 Alpha  occ. eigenvalues --   -0.32445  -0.31954  -0.31766  -0.31480  -0.31232
 Alpha  occ. eigenvalues --   -0.30869  -0.29685  -0.26836  -0.24839
 Alpha virt. eigenvalues --    0.03109   0.04234   0.06852   0.07368   0.08611
 Alpha virt. eigenvalues --    0.09041   0.09775   0.10051   0.10805   0.12805
 Alpha virt. eigenvalues --    0.13043   0.13439   0.14072   0.14539   0.14633
 Alpha virt. eigenvalues --    0.15091   0.16137   0.17565   0.17941   0.18168
 Alpha virt. eigenvalues --    0.18397   0.19186   0.19900   0.20311   0.20519
 Alpha virt. eigenvalues --    0.20580   0.20873   0.21169   0.21765   0.22053
 Alpha virt. eigenvalues --    0.22331   0.23111   0.23134   0.23921   0.24145
 Alpha virt. eigenvalues --    0.24355   0.24896   0.25287   0.25335   0.25782
 Alpha virt. eigenvalues --    0.27484   0.27716   0.27853   0.28344   0.28744
 Alpha virt. eigenvalues --    0.28981   0.29228   0.29482   0.30648   0.30759
 Alpha virt. eigenvalues --    0.31471   0.31902   0.32600   0.33189   0.33460
 Alpha virt. eigenvalues --    0.34076   0.34896   0.35062   0.35899   0.36493
 Alpha virt. eigenvalues --    0.36865   0.37117   0.37969   0.38292   0.38863
 Alpha virt. eigenvalues --    0.39430   0.39954   0.40783   0.41497   0.42057
 Alpha virt. eigenvalues --    0.42724   0.42993   0.43278   0.43915   0.44248
 Alpha virt. eigenvalues --    0.45408   0.46020   0.46644   0.46811   0.47207
 Alpha virt. eigenvalues --    0.47738   0.48105   0.48609   0.49117   0.49271
 Alpha virt. eigenvalues --    0.49970   0.50640   0.51200   0.51431   0.51661
 Alpha virt. eigenvalues --    0.52100   0.52685   0.53061   0.53578   0.54022
 Alpha virt. eigenvalues --    0.54077   0.54697   0.55166   0.55896   0.56165
 Alpha virt. eigenvalues --    0.56681   0.56880   0.57269   0.57341   0.57721
 Alpha virt. eigenvalues --    0.58408   0.58454   0.59134   0.59266   0.59778
 Alpha virt. eigenvalues --    0.60421   0.60946   0.61704   0.61849   0.62151
 Alpha virt. eigenvalues --    0.62217   0.62864   0.63760   0.64145   0.64747
 Alpha virt. eigenvalues --    0.65043   0.65540   0.65788   0.65951   0.66314
 Alpha virt. eigenvalues --    0.66603   0.66881   0.67529   0.68182   0.68384
 Alpha virt. eigenvalues --    0.68672   0.69310   0.70138   0.70289   0.70764
 Alpha virt. eigenvalues --    0.71306   0.71847   0.71863   0.72464   0.72659
 Alpha virt. eigenvalues --    0.73002   0.73327   0.73846   0.73923   0.74145
 Alpha virt. eigenvalues --    0.74903   0.75163   0.75466   0.75762   0.76061
 Alpha virt. eigenvalues --    0.76243   0.76875   0.77092   0.77977   0.78378
 Alpha virt. eigenvalues --    0.78851   0.79023   0.79288   0.79522   0.79798
 Alpha virt. eigenvalues --    0.79872   0.80270   0.80590   0.81404   0.81686
 Alpha virt. eigenvalues --    0.82283   0.82478   0.83138   0.83163   0.83630
 Alpha virt. eigenvalues --    0.84223   0.84951   0.85098   0.85575   0.86051
 Alpha virt. eigenvalues --    0.86364   0.86683   0.87615   0.87976   0.88487
 Alpha virt. eigenvalues --    0.88650   0.89288   0.89559   0.89736   0.90329
 Alpha virt. eigenvalues --    0.90425   0.91334   0.91681   0.92284   0.92400
 Alpha virt. eigenvalues --    0.94045   0.94782   0.94988   0.95157   0.95300
 Alpha virt. eigenvalues --    0.95564   0.95684   0.96797   0.97320   0.97627
 Alpha virt. eigenvalues --    0.98397   0.98466   0.99413   0.99802   1.00104
 Alpha virt. eigenvalues --    1.00840   1.01282   1.02098   1.02541   1.02677
 Alpha virt. eigenvalues --    1.03047   1.03316   1.03742   1.03940   1.04619
 Alpha virt. eigenvalues --    1.05136   1.05330   1.05754   1.06569   1.06927
 Alpha virt. eigenvalues --    1.07489   1.08241   1.09243   1.09559   1.09845
 Alpha virt. eigenvalues --    1.10509   1.11134   1.11554   1.11891   1.12236
 Alpha virt. eigenvalues --    1.12541   1.13289   1.13868   1.14069   1.14646
 Alpha virt. eigenvalues --    1.15836   1.16023   1.16425   1.16534   1.16804
 Alpha virt. eigenvalues --    1.17723   1.17900   1.18165   1.18797   1.19040
 Alpha virt. eigenvalues --    1.19817   1.20008   1.20717   1.21155   1.21425
 Alpha virt. eigenvalues --    1.22380   1.22522   1.23034   1.23354   1.23587
 Alpha virt. eigenvalues --    1.23879   1.24629   1.24802   1.25226   1.25470
 Alpha virt. eigenvalues --    1.26024   1.26646   1.27268   1.27467   1.27939
 Alpha virt. eigenvalues --    1.28257   1.28797   1.29501   1.30100   1.30639
 Alpha virt. eigenvalues --    1.31009   1.31962   1.32265   1.32509   1.33159
 Alpha virt. eigenvalues --    1.34036   1.34417   1.34752   1.35037   1.36113
 Alpha virt. eigenvalues --    1.36194   1.37724   1.37862   1.38742   1.39061
 Alpha virt. eigenvalues --    1.40088   1.40436   1.41215   1.41618   1.42467
 Alpha virt. eigenvalues --    1.44260   1.44631   1.45499   1.45785   1.47310
 Alpha virt. eigenvalues --    1.47624   1.47984   1.48863   1.49291   1.49652
 Alpha virt. eigenvalues --    1.50237   1.51126   1.52050   1.52492   1.54278
 Alpha virt. eigenvalues --    1.54799   1.54889   1.55708   1.56135   1.57209
 Alpha virt. eigenvalues --    1.57861   1.58560   1.59235   1.59590   1.60068
 Alpha virt. eigenvalues --    1.60920   1.60964   1.62079   1.62549   1.62721
 Alpha virt. eigenvalues --    1.62895   1.64236   1.64601   1.65521   1.65623
 Alpha virt. eigenvalues --    1.66216   1.66553   1.67230   1.67801   1.68401
 Alpha virt. eigenvalues --    1.68913   1.69180   1.69736   1.70113   1.70518
 Alpha virt. eigenvalues --    1.71071   1.71342   1.71760   1.72002   1.72122
 Alpha virt. eigenvalues --    1.72772   1.72906   1.73751   1.74444   1.75009
 Alpha virt. eigenvalues --    1.75268   1.75825   1.75952   1.76301   1.77082
 Alpha virt. eigenvalues --    1.77304   1.77402   1.77987   1.78629   1.78749
 Alpha virt. eigenvalues --    1.79140   1.79345   1.79529   1.80210   1.80887
 Alpha virt. eigenvalues --    1.81089   1.81644   1.82808   1.82931   1.83164
 Alpha virt. eigenvalues --    1.83544   1.84385   1.84410   1.84632   1.85168
 Alpha virt. eigenvalues --    1.85606   1.86054   1.86340   1.86706   1.87481
 Alpha virt. eigenvalues --    1.87582   1.87766   1.88935   1.89088   1.89569
 Alpha virt. eigenvalues --    1.89679   1.89976   1.90937   1.91373   1.92035
 Alpha virt. eigenvalues --    1.92517   1.92935   1.93200   1.93602   1.93979
 Alpha virt. eigenvalues --    1.94232   1.94832   1.95122   1.96544   1.96979
 Alpha virt. eigenvalues --    1.97361   1.98017   1.98893   1.99728   2.00563
 Alpha virt. eigenvalues --    2.01236   2.02171   2.03275   2.03464   2.04018
 Alpha virt. eigenvalues --    2.04508   2.05205   2.06151   2.06421   2.07031
 Alpha virt. eigenvalues --    2.07104   2.07930   2.08878   2.08944   2.09234
 Alpha virt. eigenvalues --    2.10541   2.11414   2.11911   2.12349   2.13409
 Alpha virt. eigenvalues --    2.13616   2.14282   2.15043   2.15477   2.16077
 Alpha virt. eigenvalues --    2.16637   2.17672   2.18338   2.19301   2.19889
 Alpha virt. eigenvalues --    2.20519   2.21436   2.21567   2.22531   2.23412
 Alpha virt. eigenvalues --    2.23668   2.23864   2.24961   2.25196   2.25771
 Alpha virt. eigenvalues --    2.26299   2.27373   2.27475   2.28166   2.28805
 Alpha virt. eigenvalues --    2.29032   2.29909   2.29985   2.30797   2.31149
 Alpha virt. eigenvalues --    2.32299   2.32443   2.32728   2.33513   2.34575
 Alpha virt. eigenvalues --    2.34727   2.35245   2.35821   2.35996   2.36294
 Alpha virt. eigenvalues --    2.36997   2.37341   2.37742   2.37959   2.39262
 Alpha virt. eigenvalues --    2.39805   2.40190   2.40444   2.41571   2.41938
 Alpha virt. eigenvalues --    2.43563   2.44203   2.44478   2.44639   2.45001
 Alpha virt. eigenvalues --    2.45574   2.46093   2.46878   2.48044   2.49005
 Alpha virt. eigenvalues --    2.49459   2.50676   2.51833   2.52419   2.52972
 Alpha virt. eigenvalues --    2.53631   2.54853   2.56183   2.57107   2.58045
 Alpha virt. eigenvalues --    2.58845   2.59270   2.60157   2.61581   2.62180
 Alpha virt. eigenvalues --    2.62697   2.64208   2.64974   2.65063   2.65798
 Alpha virt. eigenvalues --    2.66245   2.66930   2.67332   2.67817   2.68265
 Alpha virt. eigenvalues --    2.69097   2.69559   2.70666   2.71181   2.71759
 Alpha virt. eigenvalues --    2.72221   2.72344   2.73774   2.74062   2.74362
 Alpha virt. eigenvalues --    2.75999   2.76128   2.76530   2.77928   2.78156
 Alpha virt. eigenvalues --    2.78905   2.79433   2.80394   2.80885   2.81027
 Alpha virt. eigenvalues --    2.81393   2.81785   2.82420   2.82789   2.83004
 Alpha virt. eigenvalues --    2.83673   2.83932   2.84901   2.85145   2.85225
 Alpha virt. eigenvalues --    2.86682   2.87065   2.87263   2.87547   2.88799
 Alpha virt. eigenvalues --    2.89897   2.90198   2.91710   2.94469   2.95119
 Alpha virt. eigenvalues --    2.96130   2.98604   3.00056   3.00375   3.01447
 Alpha virt. eigenvalues --    3.02500   3.03064   3.03562   3.05165   3.07535
 Alpha virt. eigenvalues --    3.08648   3.10533   3.11057   3.13547   3.15323
 Alpha virt. eigenvalues --    3.16248   3.16561   3.17368   3.19117   3.21035
 Alpha virt. eigenvalues --    3.22095   3.23463   3.24348   3.24677   3.28197
 Alpha virt. eigenvalues --    3.44819   3.47695   3.48447   3.49484   3.51411
 Alpha virt. eigenvalues --    3.53179   3.55187   3.56767   3.58916   3.60804
 Alpha virt. eigenvalues --    3.64432   3.71429   3.75940
          Condensed to atoms (all electrons):
 Mulliken charges:
               1
     1  N   -0.300143
     2  C    0.183447
     3  C    0.080852
     4  N   -0.248767
     5  C    0.128550
     6  H    0.025066
     7  N   -0.280509
     8  C    0.138819
     9  H    0.004235
    10  N   -0.274980
    11  C    0.209157
    12  C    0.072294
    13  N   -0.045806
    14  H    0.110748
    15  H    0.085250
    16  H    0.026320
    17  H    0.048355
    18  H    0.017756
    19  N   -0.281577
    20  C    0.221647
    21  C    0.206347
    22  N   -0.108019
    23  H    0.119079
    24  H    0.117953
    25  N   -0.278445
    26  C    0.199221
    27  N   -0.116201
    28  H    0.113930
    29  C    0.168651
    30  O   -0.321393
    31  C    0.007821
    32  N   -0.213437
    33  C    0.109563
    34  H    0.017712
    35  H   -0.031722
    36  H    0.034554
    37  H    0.023125
    38  H    0.052762
    39  H    0.049475
    40  H    0.075912
    41  H    0.025111
    42  C   -0.101256
    43  O   -0.268687
    44  C    0.167747
    45  H    0.129165
    46  N   -0.109258
    47  O   -0.336042
    48  C    0.325136
    49  H    0.043421
    50  C    0.168044
    51  C    0.038247
    52  N   -0.270748
    53  H    0.033193
    54  H    0.043742
    55  H    0.024045
    56  H    0.123625
    57  H    0.120055
    58  N   -0.059344
    59  C    0.101586
    60  C    0.178139
    61  N   -0.250282
    62  H    0.011952
    63  C    0.165952
    64  N   -0.295111
    65  H    0.036195
    66  C    0.119601
    67  N   -0.247765
    68  C    0.058158
    69  C    0.182160
    70  N   -0.304380
 Sum of Mulliken charges =  -0.00000
 Mulliken charges with hydrogens summed into heavy atoms:
               1
     1  N   -0.300143
     2  C    0.275877
     3  C    0.080852
     4  N   -0.248767
     5  C    0.153616
     7  N   -0.280509
     8  C    0.143053
    10  N   -0.274980
    11  C    0.209157
    12  C    0.072294
    13  N    0.150192
    19  N   -0.281577
    20  C    0.221647
    21  C    0.232304
    22  N    0.129013
    25  N   -0.278445
    26  C    0.199221
    27  N   -0.002272
    29  C    0.168651
    30  O   -0.321393
    31  C    0.007821
    32  N   -0.213437
    33  C    0.127275
    42  C   -0.076144
    43  O   -0.268687
    44  C    0.167747
    46  N    0.019907
    47  O   -0.336042
    48  C    0.325136
    50  C    0.211465
    51  C    0.216396
    52  N   -0.270748
    58  N    0.184336
    59  C    0.101586
    60  C    0.178139
    61  N   -0.250282
    63  C    0.177904
    64  N   -0.295111
    66  C    0.155796
    67  N   -0.247765
    68  C    0.058158
    69  C    0.283140
    70  N   -0.304380
 Electronic spatial extent (au):  <R**2>=          21643.5388
 Charge=             -0.0000 electrons
 Dipole moment (field-independent basis, Debye):
    X=             -5.1756    Y=              6.5300    Z=             -4.5996  Tot=              9.5176
 Quadrupole moment (field-independent basis, Debye-Ang):
   XX=           -147.9399   YY=           -227.0495   ZZ=           -262.8820
   XY=            -10.4196   XZ=              0.8745   YZ=             10.3989
 Traceless Quadrupole moment (field-independent basis, Debye-Ang):
   XX=             64.6839   YY=            -14.4257   ZZ=            -50.2582
   XY=            -10.4196   XZ=              0.8745   YZ=             10.3989
 Octapole moment (field-independent basis, Debye-Ang**2):
  XXX=             90.2948  YYY=             47.4923  ZZZ=            -22.8418  XYY=            -72.0794
  XXY=            103.8660  XXZ=            -25.6839  XZZ=            -32.4883  YZZ=             46.8847
  YYZ=            -63.8153  XYZ=             27.9185
 Hexadecapole moment (field-independent basis, Debye-Ang**3):
 XXXX=         -16278.7459 YYYY=          -3477.8979 ZZZZ=          -3559.0968 XXXY=           -715.0985
 XXXZ=            -33.5643 YYYX=             94.0224 YYYZ=             41.4568 ZZZX=             10.6912
 ZZZY=             51.9937 XXYY=          -3842.9049 XXZZ=          -4017.0323 YYZZ=          -1299.8143
 XXYZ=            -72.8970 YYXZ=            126.4330 ZZXY=            -83.2066
 N-N= 5.671047335569D+03 E-N=-1.612256573679D+04  KE= 2.038097631970D+03
 No NMR shielding tensors so no spin-rotation constants.
 Leave Link  601 at Thu Jan 18 22:30:29 2018, MaxMem=  4294967296 cpu:              49.3 elap:               1.7
 (Enter /share/apps/g16/l9999.exe)
 1\1\GINC-COMPUTE-0-3\SP\RwB97XD\CC-pVDZ\C23H27N17O3\SATYA\18-Jan-2018\
 0\\#p wb97xd/cc-pvdz sp scf=(maxcycles=20)\\Base pair stacking\\0,1\N,
 0,-0.19521,4.88372,-6.23551\C,0,-0.43223,6.32253,-6.0082\C,0,-0.43046,
 2.69893,-6.32867\N,0,0.83002,2.97561,-6.83794\C,0,0.9213,4.28079,-6.76
 143\H,0,1.78859,4.86123,-7.07742\N,0,-2.37026,1.56774,-5.60719\C,0,-2.
 86231,2.77049,-5.29273\H,0,-3.8654,2.76609,-4.86842\N,0,-2.30392,3.972
 19,-5.42312\C,0,-1.07429,3.86513,-5.95318\C,0,-1.13045,1.4936,-6.13866
 \N,0,-0.63754,0.2939,-6.4532\H,0,0.27579,0.19168,-6.84892\H,0,-1.16411
 ,-0.54314,-6.30411\H,0,-0.37529,6.81262,-6.87811\H,0,-1.34063,6.45295,
 -5.61208\H,0,0.25816,6.68101,-5.37984\N,0,-0.56016,4.445,-3.0384\C,0,-
 1.17414,3.22164,-2.91812\C,0,-1.23315,5.7537,-2.91546\N,0,-4.03758,1.3
 3432,-2.36997\H,0,-4.28515,0.36714,-2.31988\H,0,-4.77292,1.99858,-2.23
 307\N,0,-2.48484,3.01126,-2.66941\C,0,-2.77643,1.724,-2.60991\N,0,-1.8
 5631,0.71814,-2.78063\H,0,-2.16918,-0.23851,-2.71822\C,0,-0.50259,0.91
 14,-3.03743\O,0,0.24366,-0.06576,-3.17535\C,0,-0.17419,2.28929,-3.1041
 9\N,0,1.04306,2.91473,-3.33662\C,0,0.76606,4.18955,-3.28849\H,0,1.4943
 7,4.98899,-3.42898\H,0,-1.12853,6.26552,-3.76746\H,0,-2.20464,5.61051,
 -2.73116\H,0,-0.82511,6.27091,-2.16392\H,0,-4.47297,-4.76637,-2.92733\
 H,0,-3.90822,-4.89811,-1.26349\H,0,-4.32603,-3.31917,-1.92964\H,0,0.14
 942,-5.88659,-3.652\C,0,-0.45703,-5.02331,-3.3778\O,0,1.25409,-3.44489
 ,-3.83363\C,0,0.11022,-3.71252,-3.46656\H,0,-0.37652,-1.75072,-3.14602
 \N,0,-0.74168,-2.69143,-3.09656\O,0,-2.71613,-1.84563,-2.35942\C,0,-2.
 03917,-2.81135,-2.66566\H,0,-2.19786,-6.14733,-2.87592\C,0,-1.71983,-5
 .17235,-2.96098\C,0,-3.89614,-4.28451,-2.15199\N,0,-2.51441,-4.10669,-
 2.6069\H,0,-7.08393,-4.66998,-4.3604\H,0,-6.3383,-3.50926,-3.48926\H,0
 ,-6.23931,-5.07016,-3.02252\H,0,-0.36448,-3.29653,-7.19381\H,0,-1.0738
 1,-4.84789,-7.20939\N,0,-1.10996,-3.89617,-6.90255\C,0,-2.10838,-3.447
 63,-6.13892\C,0,-4.1399,-3.64135,-4.91534\N,0,-4.16244,-2.35831,-4.518
 21\H,0,-3.04319,-0.65269,-4.71514\C,0,-3.10327,-1.70457,-4.99118\N,0,-
 2.1022,-2.15205,-5.75616\H,0,-5.15258,-6.69939,-5.18925\C,0,-4.60745,-
 5.75714,-5.25188\N,0,-3.48601,-5.58723,-5.90853\C,0,-3.1786,-4.25002,-
 5.70335\C,0,-6.27775,-4.4542,-3.80948\N,0,-5.06045,-4.62088,-4.62704\\
 Version=EM64L-G16RevA.03\State=1-A\HF=-2048.7069297\RMSD=7.946e-09\Dip
 ole=-3.5812501,-1.0532266,0.294521\Quadrupole=-19.4295086,38.2659225,-
 18.836414,25.3362625,-16.7297885,-3.475457\PG=C01 [X(C23H27N17O3)]\\@


 The best way to pay for a lovely moment is to enjoy it.
 -- Richard Bach
 Job cpu time:       0 days  6 hours 51 minutes 23.1 seconds.
 Elapsed time:       0 days  0 hours 13 minutes 19.6 seconds.
 File lengths (MBytes):  RWF=    298 Int=      0 D2E=      0 Chk=     33 Scr=      1
 Normal termination of Gaussian 16 at Thu Jan 18 22:30:29 2018.
