 Entering Gaussian System, Link 0=g16
 Input=str15.0.-2.0.com
 Output=str15.0.-2.0.log
 Initial command:
 /share/apps/g16/l1.exe "/state/partition1/scr/Gau-9076.inp" -scrdir="/state/partition1/scr/"
 Entering Link 1 = /share/apps/g16/l1.exe PID=      9077.
  
 Copyright (c) 1988,1990,1992,1993,1995,1998,2003,2009,2016,
            Gaussian, Inc.  All Rights Reserved.
  
 This is part of the Gaussian(R) 16 program.  It is based on
 the Gaussian(R) 09 system (copyright 2009, Gaussian, Inc.),
 the Gaussian(R) 03 system (copyright 2003, Gaussian, Inc.),
 the Gaussian(R) 98 system (copyright 1998, Gaussian, Inc.),
 the Gaussian(R) 94 system (copyright 1995, Gaussian, Inc.),
 the Gaussian 92(TM) system (copyright 1992, Gaussian, Inc.),
 the Gaussian 90(TM) system (copyright 1990, Gaussian, Inc.),
 the Gaussian 88(TM) system (copyright 1988, Gaussian, Inc.),
 the Gaussian 86(TM) system (copyright 1986, Carnegie Mellon
 University), and the Gaussian 82(TM) system (copyright 1983,
 Carnegie Mellon University). Gaussian is a federally registered
 trademark of Gaussian, Inc.
  
 This software contains proprietary and confidential information,
 including trade secrets, belonging to Gaussian, Inc.
  
 This software is provided under written license and may be
 used, copied, transmitted, or stored only in accord with that
 written license.
  
 The following legend is applicable only to US Government
 contracts under FAR:
  
                    RESTRICTED RIGHTS LEGEND
  
 Use, reproduction and disclosure by the US Government is
 subject to restrictions as set forth in subparagraphs (a)
 and (c) of the Commercial Computer Software - Restricted
 Rights clause in FAR 52.227-19.
  
 Gaussian, Inc.
 340 Quinnipiac St., Bldg. 40, Wallingford CT 06492
  
  
 ---------------------------------------------------------------
 Warning -- This program may not be used in any manner that
 competes with the business of Gaussian, Inc. or will provide
 assistance to any competitor of Gaussian, Inc.  The licensee
 of this program is prohibited from giving any competitor of
 Gaussian, Inc. access to this program.  By using this program,
 the user acknowledges that Gaussian, Inc. is engaged in the
 business of creating and licensing software in the field of
 computational chemistry and represents and warrants to the
 licensee that it is not a competitor of Gaussian, Inc. and that
 it will not use this program in any manner prohibited above.
 ---------------------------------------------------------------
  

 Cite this work as:
 Gaussian 16, Revision A.03,
 M. J. Frisch, G. W. Trucks, H. B. Schlegel, G. E. Scuseria, 
 M. A. Robb, J. R. Cheeseman, G. Scalmani, V. Barone, 
 G. A. Petersson, H. Nakatsuji, X. Li, M. Caricato, A. V. Marenich, 
 J. Bloino, B. G. Janesko, R. Gomperts, B. Mennucci, H. P. Hratchian, 
 J. V. Ortiz, A. F. Izmaylov, J. L. Sonnenberg, D. Williams-Young, 
 F. Ding, F. Lipparini, F. Egidi, J. Goings, B. Peng, A. Petrone, 
 T. Henderson, D. Ranasinghe, V. G. Zakrzewski, J. Gao, N. Rega, 
 G. Zheng, W. Liang, M. Hada, M. Ehara, K. Toyota, R. Fukuda, 
 J. Hasegawa, M. Ishida, T. Nakajima, Y. Honda, O. Kitao, H. Nakai, 
 T. Vreven, K. Throssell, J. A. Montgomery, Jr., J. E. Peralta, 
 F. Ogliaro, M. J. Bearpark, J. J. Heyd, E. N. Brothers, K. N. Kudin, 
 V. N. Staroverov, T. A. Keith, R. Kobayashi, J. Normand, 
 K. Raghavachari, A. P. Rendell, J. C. Burant, S. S. Iyengar, 
 J. Tomasi, M. Cossi, J. M. Millam, M. Klene, C. Adamo, R. Cammi, 
 J. W. Ochterski, R. L. Martin, K. Morokuma, O. Farkas, 
 J. B. Foresman, and D. J. Fox, Gaussian, Inc., Wallingford CT, 2016.
 
 ******************************************
 Gaussian 16:  EM64L-G16RevA.03 25-Dec-2016
                18-Jan-2018 
 ******************************************
 %nprocshared=32
 Will use up to   32 processors via shared memory.
 %mem=32GB
 %chk=allatoms_t.chk
 ---------------------------------------
 #p wb97xd/cc-pvdz sp scf=(maxcycles=20)
 ---------------------------------------
 1/38=1,172=1/1;
 2/12=2,17=6,18=5,40=1/2;
 3/5=16,11=2,25=1,30=1,74=-58/1,2,3;
 4//1;
 5/5=2,7=20,38=5/2;
 6/7=2,8=2,9=2,10=2,28=1/1;
 99/5=1,9=1/99;
 Leave Link    1 at Thu Jan 18 16:20:01 2018, MaxMem=  4294967296 cpu:               2.7 elap:               0.1
 (Enter /share/apps/g16/l101.exe)
 ------------------
 Base pair stacking
 ------------------
 Symbolic Z-matrix:
 Charge =  0 Multiplicity = 1
 N                     2.69676   9.449    -6.47105 
 C                     2.40896   10.89283  -6.57363 
 C                     2.49059   7.26125  -6.37851 
 N                     3.84672   7.52864  -6.25948 
 C                     3.91664   8.83598  -6.32 
 H                     4.84115   9.41088  -6.25909 
 N                     0.41914   6.14279  -6.52372 
 C                    -0.13908   7.35205  -6.6407 
 H                    -1.22303   7.35551  -6.74702 
 N                     0.43793   8.55202  -6.64603 
 C                     1.76915   8.43507  -6.50964 
 C                     1.76063   6.05875  -6.38803 
 N                     2.31971   4.85255  -6.27112 
 H                     3.309     4.74293  -6.1686 
 H                     1.76906   4.0178   -6.28203 
 H                     2.88328   11.27305  -7.36775 
 H                     1.42438   11.03068  -6.67715 
 H                     2.72361   11.35719  -5.74576 
 N                     0.16988   6.91902  -3.26456 
 C                    -0.45728   5.69644  -3.26328 
 C                    -0.50924   8.22675  -3.36129 
 N                    -3.37021   3.81011  -3.39872 
 H                    -3.6246    2.84356  -3.38065 
 H                    -4.11466   4.47384  -3.47605 
 N                    -1.78858   5.48606  -3.34948 
 C                    -2.08866   4.19965  -3.32272 
 N                    -1.1577    3.19458  -3.21948 
 H                    -1.47833   2.23855  -3.20649 
 C                     0.21723   3.38784  -3.12957 
 O                     0.97176   2.41143  -3.03986 
 C                     0.55495   4.76482  -3.15705 
 N                     1.79268   5.38996  -3.09292 
 C                     1.51547   6.66388  -3.16 
 H                     2.25737   7.46284  -3.13738 
 H                    -0.18994   8.71061  -4.17537 
 H                    -1.49596   8.08356  -3.42565 
 H                    -0.30486   8.77127  -2.54856 
 H                    -3.66326  -2.3084   -3.84208 
 H                    -3.54113  -2.38111  -2.08582 
 H                    -3.77191  -0.82791  -2.88935 
 H                     0.98871  -3.42251  -3.32784 
 C                     0.3344   -2.55448  -3.2464 
 O                     2.10879  -0.98119  -3.30466 
 C                     0.90855  -1.24377  -3.23206 
 H                     0.36071   0.72445  -3.11248 
 N                    -0.00715  -0.21641  -3.12585 
 O                    -2.10228   0.64078  -2.94466 
 C                    -1.37187  -0.33024  -3.03565 
 H                    -1.47941  -3.67231  -3.16654 
 C                    -0.99325  -2.69766  -3.16 
 C                    -3.30179  -1.79735  -2.96218 
 N                    -1.84937  -1.62592  -3.05609 
 H                    -4.44308  -0.09634  -6.86174 
 H                    -4.17947   1.19587  -5.90113 
 H                    -4.34611  -0.2889   -5.24405 
 H                     2.84064   1.21376  -6.31721 
 H                     2.1935   -0.3577   -6.46493 
 N                     2.0346    0.6222   -6.33931 
 C                     0.80217   1.11702  -6.20724 
 C                    -1.57033   0.98612  -6.08142 
 N                    -1.75364   2.30627  -5.91402 
 H                    -0.64185   4.02257  -5.77681 
 C                    -0.58421   2.94291  -5.90822 
 N                     0.65121   2.4491   -6.04035 
 H                    -2.39124  -2.12451  -6.40123 
 C                    -1.86335  -1.17389  -6.32 
 N                    -0.56137  -1.03688  -6.38132 
 C                    -0.36213   0.32788  -6.23142 
 C                    -3.99262   0.22212  -6.02768 
 N                    -2.53646   0.00979  -6.1396 
 
 ITRead=  0  0  0  0  0  0  0  0  0  0  0  0  0  0  0  0  0  0  0  0
 ITRead=  0  0  0  0  0  0  0  0  0  0  0  0  0  0  0  0  0  0  0  0
 ITRead=  0  0  0  0  0  0  0  0  0  0  0  0  0  0  0  0  0  0  0  0
 ITRead=  0  0  0  0  0  0  0  0  0  0
 MicOpt= -1 -1 -1 -1 -1 -1 -1 -1 -1 -1 -1 -1 -1 -1 -1 -1 -1 -1 -1 -1
 MicOpt= -1 -1 -1 -1 -1 -1 -1 -1 -1 -1 -1 -1 -1 -1 -1 -1 -1 -1 -1 -1
 MicOpt= -1 -1 -1 -1 -1 -1 -1 -1 -1 -1 -1 -1 -1 -1 -1 -1 -1 -1 -1 -1
 MicOpt= -1 -1 -1 -1 -1 -1 -1 -1 -1 -1
 NAtoms=     70 NQM=       70 NQMF=       0 NMMI=      0 NMMIF=      0
                NMic=       0 NMicF=      0.
                    Isotopes and Nuclear Properties:
 (Nuclear quadrupole moments (NQMom) in fm**2, nuclear magnetic moments (NMagM)
  in nuclear magnetons)

  Atom         1           2           3           4           5           6           7           8           9          10
 IAtWgt=          14          12          12          14          12           1          14          12           1          14
 AtmWgt=  14.0030740  12.0000000  12.0000000  14.0030740  12.0000000   1.0078250  14.0030740  12.0000000   1.0078250  14.0030740
 NucSpn=           2           0           0           2           0           1           2           0           1           2
 AtZEff=  -0.0000000  -0.0000000  -0.0000000  -0.0000000  -0.0000000  -0.0000000  -0.0000000  -0.0000000  -0.0000000  -0.0000000
 NQMom=    2.0440000   0.0000000   0.0000000   2.0440000   0.0000000   0.0000000   2.0440000   0.0000000   0.0000000   2.0440000
 NMagM=    0.4037610   0.0000000   0.0000000   0.4037610   0.0000000   2.7928460   0.4037610   0.0000000   2.7928460   0.4037610
 AtZNuc=   7.0000000   6.0000000   6.0000000   7.0000000   6.0000000   1.0000000   7.0000000   6.0000000   1.0000000   7.0000000

  Atom        11          12          13          14          15          16          17          18          19          20
 IAtWgt=          12          12          14           1           1           1           1           1          14          12
 AtmWgt=  12.0000000  12.0000000  14.0030740   1.0078250   1.0078250   1.0078250   1.0078250   1.0078250  14.0030740  12.0000000
 NucSpn=           0           0           2           1           1           1           1           1           2           0
 AtZEff=  -0.0000000  -0.0000000  -0.0000000  -0.0000000  -0.0000000  -0.0000000  -0.0000000  -0.0000000  -0.0000000  -0.0000000
 NQMom=    0.0000000   0.0000000   2.0440000   0.0000000   0.0000000   0.0000000   0.0000000   0.0000000   2.0440000   0.0000000
 NMagM=    0.0000000   0.0000000   0.4037610   2.7928460   2.7928460   2.7928460   2.7928460   2.7928460   0.4037610   0.0000000
 AtZNuc=   6.0000000   6.0000000   7.0000000   1.0000000   1.0000000   1.0000000   1.0000000   1.0000000   7.0000000   6.0000000

  Atom        21          22          23          24          25          26          27          28          29          30
 IAtWgt=          12          14           1           1          14          12          14           1          12          16
 AtmWgt=  12.0000000  14.0030740   1.0078250   1.0078250  14.0030740  12.0000000  14.0030740   1.0078250  12.0000000  15.9949146
 NucSpn=           0           2           1           1           2           0           2           1           0           0
 AtZEff=  -0.0000000  -0.0000000  -0.0000000  -0.0000000  -0.0000000  -0.0000000  -0.0000000  -0.0000000  -0.0000000  -0.0000000
 NQMom=    0.0000000   2.0440000   0.0000000   0.0000000   2.0440000   0.0000000   2.0440000   0.0000000   0.0000000   0.0000000
 NMagM=    0.0000000   0.4037610   2.7928460   2.7928460   0.4037610   0.0000000   0.4037610   2.7928460   0.0000000   0.0000000
 AtZNuc=   6.0000000   7.0000000   1.0000000   1.0000000   7.0000000   6.0000000   7.0000000   1.0000000   6.0000000   8.0000000

  Atom        31          32          33          34          35          36          37          38          39          40
 IAtWgt=          12          14          12           1           1           1           1           1           1           1
 AtmWgt=  12.0000000  14.0030740  12.0000000   1.0078250   1.0078250   1.0078250   1.0078250   1.0078250   1.0078250   1.0078250
 NucSpn=           0           2           0           1           1           1           1           1           1           1
 AtZEff=  -0.0000000  -0.0000000  -0.0000000  -0.0000000  -0.0000000  -0.0000000  -0.0000000  -0.0000000  -0.0000000  -0.0000000
 NQMom=    0.0000000   2.0440000   0.0000000   0.0000000   0.0000000   0.0000000   0.0000000   0.0000000   0.0000000   0.0000000
 NMagM=    0.0000000   0.4037610   0.0000000   2.7928460   2.7928460   2.7928460   2.7928460   2.7928460   2.7928460   2.7928460
 AtZNuc=   6.0000000   7.0000000   6.0000000   1.0000000   1.0000000   1.0000000   1.0000000   1.0000000   1.0000000   1.0000000

  Atom        41          42          43          44          45          46          47          48          49          50
 IAtWgt=           1          12          16          12           1          14          16          12           1          12
 AtmWgt=   1.0078250  12.0000000  15.9949146  12.0000000   1.0078250  14.0030740  15.9949146  12.0000000   1.0078250  12.0000000
 NucSpn=           1           0           0           0           1           2           0           0           1           0
 AtZEff=  -0.0000000  -0.0000000  -0.0000000  -0.0000000  -0.0000000  -0.0000000  -0.0000000  -0.0000000  -0.0000000  -0.0000000
 NQMom=    0.0000000   0.0000000   0.0000000   0.0000000   0.0000000   2.0440000   0.0000000   0.0000000   0.0000000   0.0000000
 NMagM=    2.7928460   0.0000000   0.0000000   0.0000000   2.7928460   0.4037610   0.0000000   0.0000000   2.7928460   0.0000000
 AtZNuc=   1.0000000   6.0000000   8.0000000   6.0000000   1.0000000   7.0000000   8.0000000   6.0000000   1.0000000   6.0000000

  Atom        51          52          53          54          55          56          57          58          59          60
 IAtWgt=          12          14           1           1           1           1           1          14          12          12
 AtmWgt=  12.0000000  14.0030740   1.0078250   1.0078250   1.0078250   1.0078250   1.0078250  14.0030740  12.0000000  12.0000000
 NucSpn=           0           2           1           1           1           1           1           2           0           0
 AtZEff=  -0.0000000  -0.0000000  -0.0000000  -0.0000000  -0.0000000  -0.0000000  -0.0000000  -0.0000000  -0.0000000  -0.0000000
 NQMom=    0.0000000   2.0440000   0.0000000   0.0000000   0.0000000   0.0000000   0.0000000   2.0440000   0.0000000   0.0000000
 NMagM=    0.0000000   0.4037610   2.7928460   2.7928460   2.7928460   2.7928460   2.7928460   0.4037610   0.0000000   0.0000000
 AtZNuc=   6.0000000   7.0000000   1.0000000   1.0000000   1.0000000   1.0000000   1.0000000   7.0000000   6.0000000   6.0000000

  Atom        61          62          63          64          65          66          67          68          69          70
 IAtWgt=          14           1          12          14           1          12          14          12          12          14
 AtmWgt=  14.0030740   1.0078250  12.0000000  14.0030740   1.0078250  12.0000000  14.0030740  12.0000000  12.0000000  14.0030740
 NucSpn=           2           1           0           2           1           0           2           0           0           2
 AtZEff=  -0.0000000  -0.0000000  -0.0000000  -0.0000000  -0.0000000  -0.0000000  -0.0000000  -0.0000000  -0.0000000  -0.0000000
 NQMom=    2.0440000   0.0000000   0.0000000   2.0440000   0.0000000   0.0000000   2.0440000   0.0000000   0.0000000   2.0440000
 NMagM=    0.4037610   2.7928460   0.0000000   0.4037610   2.7928460   0.0000000   0.4037610   0.0000000   0.0000000   0.4037610
 AtZNuc=   7.0000000   1.0000000   6.0000000   7.0000000   1.0000000   6.0000000   7.0000000   6.0000000   6.0000000   7.0000000
 Leave Link  101 at Thu Jan 18 16:20:01 2018, MaxMem=  4294967296 cpu:               7.0 elap:               0.2
 (Enter /share/apps/g16/l202.exe)
 Stoichiometry    C23H27N17O3
 Framework group  C1[X(C23H27N17O3)]
 Deg. of freedom   204
 Full point group                 C1      NOp   1
 Largest Abelian subgroup         C1      NOp   1
 Largest concise Abelian subgroup C1      NOp   1
                         Standard orientation:                         
 ---------------------------------------------------------------------
 Center     Atomic      Atomic             Coordinates (Angstroms)
 Number     Number       Type             X           Y           Z
 ---------------------------------------------------------------------
      1          7           0       -6.853862   -0.844560    0.327250
      2          6           0       -8.132529   -0.144833    0.558309
      3          6           0       -4.724899   -1.396681    0.325829
      4          7           0       -5.381890   -2.382192   -0.396588
      5          6           0       -6.638215   -2.010106   -0.366809
      6          1           0       -7.457137   -2.553601   -0.838952
      7          7           0       -3.050361   -0.123461    1.392495
      8          6           0       -4.026732    0.713525    1.758221
      9          1           0       -3.706847    1.572249    2.346889
     10          7           0       -5.332767    0.649314    1.507130
     11          6           0       -5.619118   -0.442143    0.778327
     12          6           0       -3.370875   -1.212288    0.659831
     13          7           0       -2.397651   -2.048952    0.293793
     14          1           0       -2.588992   -2.867491   -0.248983
     15          1           0       -1.444621   -1.886197    0.549498
     16          1           0       -8.759782   -0.747951    1.051234
     17          1           0       -7.969272    0.679206    1.099997
     18          1           0       -8.538644    0.110196   -0.319207
     19          7           0       -3.197401    1.753148   -1.390221
     20          6           0       -1.855094    1.849515   -1.112803
     21          6           0       -4.225059    2.733921   -0.986832
     22          7           0        0.804083    3.560017    0.324106
     23          1           0        1.792294    3.442364    0.418211
     24          1           0        0.403364    4.378767    0.736170
     25          7           0       -1.254245    2.848319   -0.430585
     26          6           0        0.049355    2.660821   -0.325294
     27          7           0        0.715515    1.578651   -0.847453
     28          1           0        1.713833    1.517681   -0.718574
     29          6           0        0.117615    0.539112   -1.552960
     30          8           0        0.810094   -0.391861   -1.982497
     31          6           0       -1.282758    0.726552   -1.674226
     32          7           0       -2.246369   -0.058994   -2.291687
     33          6           0       -3.363661    0.587833   -2.098063
     34          1           0       -4.341251    0.258264   -2.451567
     35          1           0       -4.903954    2.287573   -0.404874
     36          1           0       -3.791736    3.478448   -0.480697
     37          1           0       -4.674086    3.102308   -1.800140
     38          1           0        6.561153    1.478456    0.815895
     39          1           0        6.861702    2.104663   -0.803422
     40          1           0        5.354658    2.494386    0.026208
     41          1           0        6.227344   -2.565733   -1.768600
     42          6           0        5.631413   -1.682675   -1.537721
     43          8           0        3.592344   -2.636920   -2.285189
     44          6           0        4.225532   -1.697415   -1.804359
     45          1           0        2.571151   -0.502706   -1.649407
     46          7           0        3.565984   -0.530337   -1.475450
     47          8           0        3.446876    1.592182   -0.676764
     48          6           0        4.114010    0.605676   -0.934438
     49          1           0        7.259351   -0.527352   -0.788804
     50          6           0        6.194747   -0.589422   -1.010396
     51          6           0        6.104639    1.733089   -0.128993
     52          7           0        5.474594    0.542519   -0.706330
     53          1           0        4.267127    1.604988    3.872218
     54          1           0        3.121683    2.248425    2.904738
     55          1           0        4.666511    2.150888    2.386994
     56          1           0        0.841963   -3.772797    0.075755
     57          1           0        2.494497   -3.845467    0.492826
     58          7           0        1.645371   -3.317176    0.459262
     59          6           0        1.588053   -2.060986    0.906336
     60          6           0        2.473221   -0.075993    1.874840
     61          7           0        1.319334    0.609315    1.817237
     62          1           0       -0.616086    0.340894    1.198617
     63          6           0        0.357349   -0.140332    1.282891
     64          7           0        0.412775   -1.398686    0.834514
     65          1           0        5.596006   -0.614915    2.515127
     66          6           0        4.552361   -0.688102    2.207892
     67          7           0        4.006715   -1.751364    1.669906
     68          6           0        2.688505   -1.376724    1.453797
     69          6           0        3.956149    1.698595    2.926428
     70          7           0        3.681777    0.363239    2.361134
 ---------------------------------------------------------------------
 Rotational constants (GHZ):           0.1820296           0.0490677           0.0469703
 Leave Link  202 at Thu Jan 18 16:20:01 2018, MaxMem=  4294967296 cpu:               0.3 elap:               0.0
 (Enter /share/apps/g16/l301.exe)
 Standard basis: CC-pVDZ (5D, 7F)
 Ernie: Thresh=  0.10000D-02 Tol=  0.10000D-05 Strict=F.
 Ernie:  86 primitive shells out of 1081 were deleted.
 There are   780 symmetry adapted cartesian basis functions of A   symmetry.
 There are   737 symmetry adapted basis functions of A   symmetry.
   737 basis functions,  1608 primitive gaussians,   780 cartesian basis functions
   154 alpha electrons      154 beta electrons
       nuclear repulsion energy      5538.4332518683 Hartrees.
 IExCor= 4639 DFT=T Ex+Corr=wB97XD ExCW=0 ScaHFX=  1.000000
 ScaDFX=  1.000000  1.000000  1.000000  1.000000 ScalE2=  1.000000  1.000000
 IRadAn=      5 IRanWt=     -1 IRanGd=            0 ICorTp=0 IEmpDi=121
 HFx  wShort=  0.000000 wLong=  0.200000 cFull=  0.222036 cShort=  0.000000 cLong=  0.777964
 DFx  wShort=  0.000000 wLong=  0.200000 cFull=  0.000000 cShort=  0.000000 cLong=  1.000000
 NAtoms=   70 NActive=   70 NUniq=   70 SFac= 1.00D+00 NAtFMM=   60 NAOKFM=T Big=T
 Integral buffers will be    131072 words long.
 Raffenetti 2 integral format.
 Two-electron integral symmetry is turned on.
 R6Disp:  Grimme-D2 Dispersion energy=       -0.0758427158 Hartrees.
 Nuclear repulsion after empirical dispersion term =     5538.3574091525 Hartrees.
 Leave Link  301 at Thu Jan 18 16:20:01 2018, MaxMem=  4294967296 cpu:               3.0 elap:               0.1
 (Enter /share/apps/g16/l302.exe)
 NPDir=0 NMtPBC=     1 NCelOv=     1 NCel=       1 NClECP=     1 NCelD=      1
         NCelK=      1 NCelE2=     1 NClLst=     1 CellRange=     0.0.
 One-electron integrals computed using PRISM.
 One-electron integral symmetry used in STVInt
 NBasis=   737 RedAO= T EigKep=  6.95D-04  NBF=   737
 NBsUse=   737 1.00D-06 EigRej= -1.00D+00 NBFU=   737
 Precomputing XC quadrature grid using
 IXCGrd= 4 IRadAn=           5 IRanWt=          -1 IRanGd=           0 AccXCQ= 0.00D+00.
 Generated NRdTot=       0 NPtTot=           0 NUsed=           0 NTot=          32
 NSgBfM=   758   757   757   757   758 MxSgAt=    70 MxSgA2=    70.
 Leave Link  302 at Thu Jan 18 16:20:05 2018, MaxMem=  4294967296 cpu:             134.5 elap:               4.2
 (Enter /share/apps/g16/l303.exe)
 DipDrv:  MaxL=1.
 Leave Link  303 at Thu Jan 18 16:20:06 2018, MaxMem=  4294967296 cpu:              16.3 elap:               0.6
 (Enter /share/apps/g16/l401.exe)
 ExpMin= 1.22D-01 ExpMax= 1.17D+04 ExpMxC= 4.01D+02 IAcc=3 IRadAn=         5 AccDes= 0.00D+00
 Harris functional with IExCor= 4639 and IRadAn=       5 diagonalized for initial guess.
 HarFok:  IExCor= 4639 AccDes= 0.00D+00 IRadAn=         5 IDoV= 1 UseB2=F ITyADJ=14
 ICtDFT=  3500011 ScaDFX=  1.000000  1.000000  1.000000  1.000000
 FoFCou: FMM=F IPFlag=           0 FMFlag=      100000 FMFlg1=        2001
         NFxFlg=           0 DoJE=T BraDBF=F KetDBF=T FulRan=T
         wScrn=  0.000000 ICntrl=       500 IOpCl=  0 I1Cent=   200000004 NGrid=           0
         NMat0=    1 NMatS0=      1 NMatT0=    0 NMatD0=    1 NMtDS0=    0 NMtDT0=    0
 Petite list used in FoFCou.
 Harris En= -1963.88683904376    
 JPrj=0 DoOrth=F DoCkMO=F.
 Leave Link  401 at Thu Jan 18 16:20:19 2018, MaxMem=  4294967296 cpu:             405.9 elap:              12.7
 (Enter /share/apps/g16/l502.exe)
 Integral symmetry usage will be decided dynamically.
 Closed shell SCF:
 Using DIIS extrapolation, IDIIS=  1040.
 NGot=  4294967296 LenX=  4293717438 LenY=  4293108258
 Requested convergence on RMS density matrix=1.00D-08 within  20 cycles.
 Requested convergence on MAX density matrix=1.00D-06.
 Requested convergence on             energy=1.00D-06.
 No special actions if energy rises.
 Fock matrices will be formed incrementally for  20 cycles.
 Integral accuracy reduced to 1.0D-05 until final iterations.

 Cycle   1  Pass 0  IDiag  1:
 FoFJK:  IHMeth= 1 ICntrl=       0 DoSepK=T KAlg= 0 I1Cent=           0 FoldK=F
 IRaf=         1 NMat=       1 IRICut=       1 DoRegI=T DoRafI=F ISym2E= 0 IDoP0=0 IntGTp=1.
 FoFCou: FMM=T IPFlag=           0 FMFlag=      100000 FMFlg1=        2001
         NFxFlg=           0 DoJE=T BraDBF=F KetDBF=F FulRan=T
         wScrn=  0.000000 ICntrl=       500 IOpCl=  0 I1Cent=           0 NGrid=           0
         NMat0=    1 NMatS0=      1 NMatT0=    0 NMatD0=    1 NMtDS0=    0 NMtDT0=    0
 Symmetry not used in FoFCou.
 FMM levels:  10  Number of levels for PrismC:   9
 E= -2048.31394952004    
 DIIS: error= 2.43D-02 at cycle   1 NSaved=   1.
 NSaved= 1 IEnMin= 1 EnMin= -2048.31394952004     IErMin= 1 ErrMin= 2.43D-02
 ErrMax= 2.43D-02  0.00D+00 EMaxC= 1.00D-01 BMatC= 8.37D-01 BMatP= 8.37D-01
 IDIUse=3 WtCom= 7.57D-01 WtEn= 2.43D-01
 Coeff-Com:  0.100D+01
 Coeff-En:   0.100D+01
 Coeff:      0.100D+01
 Gap=     0.249 Goal=   None    Shift=    0.000
 GapD=    0.249 DampG=1.000 DampE=0.500 DampFc=0.5000 IDamp=-1.
 Damping current iteration by 5.00D-01
 RMSDP=1.61D-03 MaxDP=1.27D-01              OVMax= 2.02D-01

 Cycle   2  Pass 0  IDiag  1:
 RMSU=  8.03D-04    CP:  9.97D-01
 E= -2048.51066645994     Delta-E=       -0.196716939899 Rises=F Damp=T
 DIIS: error= 1.33D-02 at cycle   2 NSaved=   2.
 NSaved= 2 IEnMin= 2 EnMin= -2048.51066645994     IErMin= 2 ErrMin= 1.33D-02
 ErrMax= 1.33D-02  0.00D+00 EMaxC= 1.00D-01 BMatC= 1.46D-01 BMatP= 8.37D-01
 IDIUse=3 WtCom= 8.67D-01 WtEn= 1.33D-01
 Coeff-Com: -0.184D+00 0.118D+01
 Coeff-En:   0.000D+00 0.100D+01
 Coeff:     -0.159D+00 0.116D+01
 Gap=     0.366 Goal=   None    Shift=    0.000
 RMSDP=6.00D-04 MaxDP=3.42D-02 DE=-1.97D-01 OVMax= 1.66D-01

 Cycle   3  Pass 0  IDiag  1:
 RMSU=  5.93D-04    CP:  9.94D-01  1.11D+00
 E= -2048.69093366106     Delta-E=       -0.180267201122 Rises=F Damp=F
 DIIS: error= 7.02D-03 at cycle   3 NSaved=   3.
 NSaved= 3 IEnMin= 3 EnMin= -2048.69093366106     IErMin= 3 ErrMin= 7.02D-03
 ErrMax= 7.02D-03  0.00D+00 EMaxC= 1.00D-01 BMatC= 6.69D-02 BMatP= 1.46D-01
 IDIUse=3 WtCom= 9.30D-01 WtEn= 7.02D-02
 Coeff-Com: -0.230D+00 0.552D+00 0.679D+00
 Coeff-En:   0.000D+00 0.000D+00 0.100D+01
 Coeff:     -0.214D+00 0.513D+00 0.701D+00
 Gap=     0.277 Goal=   None    Shift=    0.000
 RMSDP=3.75D-04 MaxDP=3.13D-02 DE=-1.80D-01 OVMax= 7.33D-02

 Cycle   4  Pass 0  IDiag  1:
 RMSU=  2.09D-04    CP:  9.94D-01  1.40D+00  6.59D-01
 E= -2048.74215382268     Delta-E=       -0.051220161624 Rises=F Damp=F
 DIIS: error= 2.99D-03 at cycle   4 NSaved=   4.
 NSaved= 4 IEnMin= 4 EnMin= -2048.74215382268     IErMin= 4 ErrMin= 2.99D-03
 ErrMax= 2.99D-03  0.00D+00 EMaxC= 1.00D-01 BMatC= 9.50D-03 BMatP= 6.69D-02
 IDIUse=3 WtCom= 9.70D-01 WtEn= 2.99D-02
 Coeff-Com: -0.953D-01 0.184D+00 0.375D+00 0.536D+00
 Coeff-En:   0.000D+00 0.000D+00 0.662D-01 0.934D+00
 Coeff:     -0.925D-01 0.179D+00 0.366D+00 0.548D+00
 Gap=     0.283 Goal=   None    Shift=    0.000
 RMSDP=1.31D-04 MaxDP=1.16D-02 DE=-5.12D-02 OVMax= 1.58D-02

 Cycle   5  Pass 0  IDiag  1:
 RMSU=  6.15D-05    CP:  9.93D-01  1.37D+00  7.97D-01  6.22D-01
 E= -2048.75012444734     Delta-E=       -0.007970624653 Rises=F Damp=F
 DIIS: error= 6.09D-04 at cycle   5 NSaved=   5.
 NSaved= 5 IEnMin= 5 EnMin= -2048.75012444734     IErMin= 5 ErrMin= 6.09D-04
 ErrMax= 6.09D-04  0.00D+00 EMaxC= 1.00D-01 BMatC= 2.93D-04 BMatP= 9.50D-03
 IDIUse=3 WtCom= 9.94D-01 WtEn= 6.09D-03
 Coeff-Com: -0.240D-01 0.409D-01 0.117D+00 0.237D+00 0.629D+00
 Coeff-En:   0.000D+00 0.000D+00 0.000D+00 0.000D+00 0.100D+01
 Coeff:     -0.239D-01 0.407D-01 0.117D+00 0.236D+00 0.631D+00
 Gap=     0.283 Goal=   None    Shift=    0.000
 RMSDP=2.66D-05 MaxDP=2.00D-03 DE=-7.97D-03 OVMax= 2.98D-03

 Failed to achieve initial convergence to 1.0D-08 in  6 cycles.
 Switch to full accuracy anyway.
 Cycle   6  Pass 1  IDiag  1:
 E= -2048.75038683965     Delta-E=       -0.000262392309 Rises=F Damp=F
 DIIS: error= 2.00D-04 at cycle   1 NSaved=   1.
 NSaved= 1 IEnMin= 1 EnMin= -2048.75038683965     IErMin= 1 ErrMin= 2.00D-04
 ErrMax= 2.00D-04  0.00D+00 EMaxC= 1.00D-01 BMatC= 7.38D-05 BMatP= 7.38D-05
 IDIUse=3 WtCom= 9.98D-01 WtEn= 2.00D-03
 Coeff-Com:  0.100D+01
 Coeff-En:   0.100D+01
 Coeff:      0.100D+01
 Gap=     0.283 Goal=   None    Shift=    0.000
 RMSDP=2.66D-05 MaxDP=2.00D-03 DE=-2.62D-04 OVMax= 1.87D-03

 Cycle   7  Pass 1  IDiag  1:
 RMSU=  1.09D-04    CP:  1.00D+00
 E= -2048.75043930248     Delta-E=       -0.000052462833 Rises=F Damp=F
 DIIS: error= 2.60D-04 at cycle   2 NSaved=   2.
 NSaved= 2 IEnMin= 2 EnMin= -2048.75043930248     IErMin= 1 ErrMin= 2.00D-04
 ErrMax= 2.60D-04  0.00D+00 EMaxC= 1.00D-01 BMatC= 4.53D-05 BMatP= 7.38D-05
 IDIUse=3 WtCom= 9.97D-01 WtEn= 2.60D-03
 Coeff-Com:  0.419D+00 0.581D+00
 Coeff-En:   0.000D+00 0.100D+01
 Coeff:      0.418D+00 0.582D+00
 Gap=     0.284 Goal=   None    Shift=    0.000
 RMSDP=1.16D-05 MaxDP=1.18D-03 DE=-5.25D-05 OVMax= 1.39D-03

 Cycle   8  Pass 1  IDiag  1:
 RMSU=  1.13D-05    CP:  1.00D+00  1.02D+00
 E= -2048.75047247157     Delta-E=       -0.000033169094 Rises=F Damp=F
 DIIS: error= 1.26D-04 at cycle   3 NSaved=   3.
 NSaved= 3 IEnMin= 3 EnMin= -2048.75047247157     IErMin= 3 ErrMin= 1.26D-04
 ErrMax= 1.26D-04  0.00D+00 EMaxC= 1.00D-01 BMatC= 9.73D-06 BMatP= 4.53D-05
 IDIUse=3 WtCom= 9.99D-01 WtEn= 1.26D-03
 Coeff-Com: -0.192D-01 0.302D+00 0.717D+00
 Coeff-En:   0.000D+00 0.116D+00 0.884D+00
 Coeff:     -0.191D-01 0.302D+00 0.717D+00
 Gap=     0.284 Goal=   None    Shift=    0.000
 RMSDP=5.69D-06 MaxDP=4.62D-04 DE=-3.32D-05 OVMax= 5.57D-04

 Cycle   9  Pass 1  IDiag  1:
 RMSU=  3.89D-06    CP:  1.00D+00  1.05D+00  7.69D-01
 E= -2048.75048164818     Delta-E=       -0.000009176604 Rises=F Damp=F
 DIIS: error= 2.51D-05 at cycle   4 NSaved=   4.
 NSaved= 4 IEnMin= 4 EnMin= -2048.75048164818     IErMin= 4 ErrMin= 2.51D-05
 ErrMax= 2.51D-05  0.00D+00 EMaxC= 1.00D-01 BMatC= 5.01D-07 BMatP= 9.73D-06
 IDIUse=1 WtCom= 1.00D+00 WtEn= 0.00D+00
 Coeff-Com: -0.318D-01 0.806D-01 0.262D+00 0.689D+00
 Coeff:     -0.318D-01 0.806D-01 0.262D+00 0.689D+00
 Gap=     0.284 Goal=   None    Shift=    0.000
 RMSDP=1.46D-06 MaxDP=1.26D-04 DE=-9.18D-06 OVMax= 3.31D-04

 Cycle  10  Pass 1  IDiag  1:
 RMSU=  1.30D-06    CP:  1.00D+00  1.06D+00  8.03D-01  1.11D+00
 E= -2048.75048249769     Delta-E=       -0.000000849514 Rises=F Damp=F
 DIIS: error= 1.51D-05 at cycle   5 NSaved=   5.
 NSaved= 5 IEnMin= 5 EnMin= -2048.75048249769     IErMin= 5 ErrMin= 1.51D-05
 ErrMax= 1.51D-05  0.00D+00 EMaxC= 1.00D-01 BMatC= 1.24D-07 BMatP= 5.01D-07
 IDIUse=1 WtCom= 1.00D+00 WtEn= 0.00D+00
 Coeff-Com: -0.380D-02-0.529D-01-0.119D+00 0.214D+00 0.962D+00
 Coeff:     -0.380D-02-0.529D-01-0.119D+00 0.214D+00 0.962D+00
 Gap=     0.284 Goal=   None    Shift=    0.000
 RMSDP=1.21D-06 MaxDP=6.97D-05 DE=-8.50D-07 OVMax= 1.84D-04

 Cycle  11  Pass 1  IDiag  1:
 RMSU=  4.95D-07    CP:  1.00D+00  1.06D+00  8.11D-01  1.38D+00  1.16D+00
 E= -2048.75048275760     Delta-E=       -0.000000259909 Rises=F Damp=F
 DIIS: error= 6.74D-06 at cycle   6 NSaved=   6.
 NSaved= 6 IEnMin= 6 EnMin= -2048.75048275760     IErMin= 6 ErrMin= 6.74D-06
 ErrMax= 6.74D-06  0.00D+00 EMaxC= 1.00D-01 BMatC= 2.92D-08 BMatP= 1.24D-07
 IDIUse=1 WtCom= 1.00D+00 WtEn= 0.00D+00
 Coeff-Com:  0.461D-02-0.431D-01-0.115D+00-0.266D-03 0.516D+00 0.638D+00
 Coeff:      0.461D-02-0.431D-01-0.115D+00-0.266D-03 0.516D+00 0.638D+00
 Gap=     0.284 Goal=   None    Shift=    0.000
 RMSDP=3.76D-07 MaxDP=3.28D-05 DE=-2.60D-07 OVMax= 8.04D-05

 Cycle  12  Pass 1  IDiag  1:
 RMSU=  1.85D-07    CP:  1.00D+00  1.06D+00  8.13D-01  1.45D+00  1.29D+00
                    CP:  9.30D-01
 E= -2048.75048280004     Delta-E=       -0.000000042439 Rises=F Damp=F
 DIIS: error= 1.51D-06 at cycle   7 NSaved=   7.
 NSaved= 7 IEnMin= 7 EnMin= -2048.75048280004     IErMin= 7 ErrMin= 1.51D-06
 ErrMax= 1.51D-06  0.00D+00 EMaxC= 1.00D-01 BMatC= 8.09D-10 BMatP= 2.92D-08
 IDIUse=1 WtCom= 1.00D+00 WtEn= 0.00D+00
 Coeff-Com:  0.119D-02-0.770D-02-0.223D-01-0.814D-02 0.661D-01 0.148D+00
 Coeff-Com:  0.823D+00
 Coeff:      0.119D-02-0.770D-02-0.223D-01-0.814D-02 0.661D-01 0.148D+00
 Coeff:      0.823D+00
 Gap=     0.284 Goal=   None    Shift=    0.000
 RMSDP=8.32D-08 MaxDP=4.49D-06 DE=-4.24D-08 OVMax= 1.39D-05

 Cycle  13  Pass 1  IDiag  1:
 RMSU=  5.04D-08    CP:  1.00D+00  1.06D+00  8.12D-01  1.46D+00  1.31D+00
                    CP:  1.01D+00  1.13D+00
 E= -2048.75048280186     Delta-E=       -0.000000001823 Rises=F Damp=F
 DIIS: error= 5.79D-07 at cycle   8 NSaved=   8.
 NSaved= 8 IEnMin= 8 EnMin= -2048.75048280186     IErMin= 8 ErrMin= 5.79D-07
 ErrMax= 5.79D-07  0.00D+00 EMaxC= 1.00D-01 BMatC= 3.14D-10 BMatP= 8.09D-10
 IDIUse=1 WtCom= 1.00D+00 WtEn= 0.00D+00
 Coeff-Com: -0.697D-03 0.831D-02 0.211D-01-0.206D-02-0.110D+00-0.101D+00
 Coeff-Com:  0.406D+00 0.779D+00
 Coeff:     -0.697D-03 0.831D-02 0.211D-01-0.206D-02-0.110D+00-0.101D+00
 Coeff:      0.406D+00 0.779D+00
 Gap=     0.284 Goal=   None    Shift=    0.000
 RMSDP=4.66D-08 MaxDP=2.62D-06 DE=-1.82D-09 OVMax= 7.32D-06

 Cycle  14  Pass 1  IDiag  1:
 RMSU=  2.68D-08    CP:  1.00D+00  1.06D+00  8.12D-01  1.47D+00  1.32D+00
                    CP:  1.06D+00  1.28D+00  1.08D+00
 E= -2048.75048280209     Delta-E=       -0.000000000233 Rises=F Damp=F
 DIIS: error= 2.21D-07 at cycle   9 NSaved=   9.
 NSaved= 9 IEnMin= 9 EnMin= -2048.75048280209     IErMin= 9 ErrMin= 2.21D-07
 ErrMax= 2.21D-07  0.00D+00 EMaxC= 1.00D-01 BMatC= 2.53D-11 BMatP= 3.14D-10
 IDIUse=1 WtCom= 1.00D+00 WtEn= 0.00D+00
 Coeff-Com: -0.397D-03 0.407D-02 0.106D-01 0.137D-03-0.497D-01-0.551D-01
 Coeff-Com:  0.736D-01 0.286D+00 0.731D+00
 Coeff:     -0.397D-03 0.407D-02 0.106D-01 0.137D-03-0.497D-01-0.551D-01
 Coeff:      0.736D-01 0.286D+00 0.731D+00
 Gap=     0.284 Goal=   None    Shift=    0.000
 RMSDP=1.29D-08 MaxDP=7.87D-07 DE=-2.33D-10 OVMax= 2.17D-06

 Cycle  15  Pass 1  IDiag  1:
 RMSU=  8.75D-09    CP:  1.00D+00  1.06D+00  8.12D-01  1.47D+00  1.32D+00
                    CP:  1.06D+00  1.31D+00  1.20D+00  1.13D+00
 E= -2048.75048280221     Delta-E=       -0.000000000114 Rises=F Damp=F
 DIIS: error= 7.41D-08 at cycle  10 NSaved=  10.
 NSaved=10 IEnMin=10 EnMin= -2048.75048280221     IErMin=10 ErrMin= 7.41D-08
 ErrMax= 7.41D-08  0.00D+00 EMaxC= 1.00D-01 BMatC= 4.15D-12 BMatP= 2.53D-11
 IDIUse=1 WtCom= 1.00D+00 WtEn= 0.00D+00
 Coeff-Com:  0.159D-04-0.401D-03-0.918D-03 0.181D-03 0.653D-02 0.285D-02
 Coeff-Com: -0.516D-01-0.692D-01 0.246D+00 0.866D+00
 Coeff:      0.159D-04-0.401D-03-0.918D-03 0.181D-03 0.653D-02 0.285D-02
 Coeff:     -0.516D-01-0.692D-01 0.246D+00 0.866D+00
 Gap=     0.284 Goal=   None    Shift=    0.000
 RMSDP=6.17D-09 MaxDP=3.63D-07 DE=-1.14D-10 OVMax= 1.07D-06

 SCF Done:  E(RwB97XD) =  -2048.75048280     A.U. after   15 cycles
            NFock= 15  Conv=0.62D-08     -V/T= 2.0054
 KE= 2.037749920385D+03 PE=-1.585752420059D+04 EE= 6.232666388253D+03
 Leave Link  502 at Thu Jan 18 16:32:08 2018, MaxMem=  4294967296 cpu:           21881.9 elap:             709.3
 (Enter /share/apps/g16/l601.exe)
 Copying SCF densities to generalized density rwf, IOpCl= 0 IROHF=0.

 **********************************************************************

            Population analysis using the SCF density.

 **********************************************************************

 Orbital symmetries:
       Occupied  (A) (A) (A) (A) (A) (A) (A) (A) (A) (A) (A) (A)
                 (A) (A) (A) (A) (A) (A) (A) (A) (A) (A) (A) (A)
                 (A) (A) (A) (A) (A) (A) (A) (A) (A) (A) (A) (A)
                 (A) (A) (A) (A) (A) (A) (A) (A) (A) (A) (A) (A)
                 (A) (A) (A) (A) (A) (A) (A) (A) (A) (A) (A) (A)
                 (A) (A) (A) (A) (A) (A) (A) (A) (A) (A) (A) (A)
                 (A) (A) (A) (A) (A) (A) (A) (A) (A) (A) (A) (A)
                 (A) (A) (A) (A) (A) (A) (A) (A) (A) (A) (A) (A)
                 (A) (A) (A) (A) (A) (A) (A) (A) (A) (A) (A) (A)
                 (A) (A) (A) (A) (A) (A) (A) (A) (A) (A) (A) (A)
                 (A) (A) (A) (A) (A) (A) (A) (A) (A) (A) (A) (A)
                 (A) (A) (A) (A) (A) (A) (A) (A) (A) (A) (A) (A)
                 (A) (A) (A) (A) (A) (A) (A) (A) (A) (A)
       Virtual   (A) (A) (A) (A) (A) (A) (A) (A) (A) (A) (A) (A)
                 (A) (A) (A) (A) (A) (A) (A) (A) (A) (A) (A) (A)
                 (A) (A) (A) (A) (A) (A) (A) (A) (A) (A) (A) (A)
                 (A) (A) (A) (A) (A) (A) (A) (A) (A) (A) (A) (A)
                 (A) (A) (A) (A) (A) (A) (A) (A) (A) (A) (A) (A)
                 (A) (A) (A) (A) (A) (A) (A) (A) (A) (A) (A) (A)
                 (A) (A) (A) (A) (A) (A) (A) (A) (A) (A) (A) (A)
                 (A) (A) (A) (A) (A) (A) (A) (A) (A) (A) (A) (A)
                 (A) (A) (A) (A) (A) (A) (A) (A) (A) (A) (A) (A)
                 (A) (A) (A) (A) (A) (A) (A) (A) (A) (A) (A) (A)
                 (A) (A) (A) (A) (A) (A) (A) (A) (A) (A) (A) (A)
                 (A) (A) (A) (A) (A) (A) (A) (A) (A) (A) (A) (A)
                 (A) (A) (A) (A) (A) (A) (A) (A) (A) (A) (A) (A)
                 (A) (A) (A) (A) (A) (A) (A) (A) (A) (A) (A) (A)
                 (A) (A) (A) (A) (A) (A) (A) (A) (A) (A) (A) (A)
                 (A) (A) (A) (A) (A) (A) (A) (A) (A) (A) (A) (A)
                 (A) (A) (A) (A) (A) (A) (A) (A) (A) (A) (A) (A)
                 (A) (A) (A) (A) (A) (A) (A) (A) (A) (A) (A) (A)
                 (A) (A) (A) (A) (A) (A) (A) (A) (A) (A) (A) (A)
                 (A) (A) (A) (A) (A) (A) (A) (A) (A) (A) (A) (A)
                 (A) (A) (A) (A) (A) (A) (A) (A) (A) (A) (A) (A)
                 (A) (A) (A) (A) (A) (A) (A) (A) (A) (A) (A) (A)
                 (A) (A) (A) (A) (A) (A) (A) (A) (A) (A) (A) (A)
                 (A) (A) (A) (A) (A) (A) (A) (A) (A) (A) (A) (A)
                 (A) (A) (A) (A) (A) (A) (A) (A) (A) (A) (A) (A)
                 (A) (A) (A) (A) (A) (A) (A) (A) (A) (A) (A) (A)
                 (A) (A) (A) (A) (A) (A) (A) (A) (A) (A) (A) (A)
                 (A) (A) (A) (A) (A) (A) (A) (A) (A) (A) (A) (A)
                 (A) (A) (A) (A) (A) (A) (A) (A) (A) (A) (A) (A)
                 (A) (A) (A) (A) (A) (A) (A) (A) (A) (A) (A) (A)
                 (A) (A) (A) (A) (A) (A) (A) (A) (A) (A) (A) (A)
                 (A) (A) (A) (A) (A) (A) (A) (A) (A) (A) (A) (A)
                 (A) (A) (A) (A) (A) (A) (A) (A) (A) (A) (A) (A)
                 (A) (A) (A) (A) (A) (A) (A) (A) (A) (A) (A) (A)
                 (A) (A) (A) (A) (A) (A) (A) (A) (A) (A) (A) (A)
                 (A) (A) (A) (A) (A) (A) (A) (A) (A) (A) (A) (A)
                 (A) (A) (A) (A) (A) (A) (A) (A) (A) (A) (A) (A)
                 (A) (A) (A) (A) (A) (A) (A) (A) (A) (A) (A) (A)
                 (A) (A) (A) (A) (A) (A) (A) (A) (A) (A) (A) (A)
                 (A) (A) (A) (A) (A) (A) (A) (A) (A) (A) (A) (A)
                 (A) (A) (A) (A) (A) (A) (A) (A) (A) (A) (A) (A)
                 (A) (A) (A) (A) (A) (A) (A) (A) (A) (A) (A) (A)
                 (A) (A) (A) (A) (A) (A) (A) (A) (A) (A) (A) (A)
                 (A) (A) (A) (A) (A) (A) (A) (A) (A) (A) (A) (A)
                 (A) (A) (A) (A) (A) (A) (A) (A) (A) (A) (A) (A)
                 (A) (A) (A) (A) (A) (A) (A) (A) (A) (A) (A) (A)
                 (A) (A) (A) (A) (A) (A) (A) (A) (A) (A) (A) (A)
                 (A) (A) (A) (A) (A) (A) (A) (A) (A) (A) (A) (A)
                 (A) (A) (A) (A) (A) (A) (A)
 The electronic state is 1-A.
 Alpha  occ. eigenvalues --  -19.26042 -19.21999 -19.20548 -14.52607 -14.51335
 Alpha  occ. eigenvalues --  -14.49930 -14.48359 -14.47863 -14.46630 -14.46464
 Alpha  occ. eigenvalues --  -14.46350 -14.44203 -14.42975 -14.42844 -14.42832
 Alpha  occ. eigenvalues --  -14.42578 -14.42099 -14.41882 -14.41160 -14.40619
 Alpha  occ. eigenvalues --  -10.45611 -10.40991 -10.40069 -10.38373 -10.38101
 Alpha  occ. eigenvalues --  -10.37621 -10.36882 -10.36420 -10.36014 -10.35875
 Alpha  occ. eigenvalues --  -10.35219 -10.34562 -10.34537 -10.34145 -10.34114
 Alpha  occ. eigenvalues --  -10.33370 -10.33048 -10.31954 -10.31214 -10.30977
 Alpha  occ. eigenvalues --  -10.29939 -10.29708 -10.27933  -1.19612  -1.13995
 Alpha  occ. eigenvalues --   -1.13089  -1.13004  -1.12529  -1.10354  -1.09465
 Alpha  occ. eigenvalues --   -1.08407  -1.07734  -1.06046  -1.03271  -1.02548
 Alpha  occ. eigenvalues --   -1.01462  -0.99753  -0.99548  -0.98356  -0.98044
 Alpha  occ. eigenvalues --   -0.96232  -0.95372  -0.93663  -0.91017  -0.86478
 Alpha  occ. eigenvalues --   -0.85068  -0.84957  -0.84092  -0.83787  -0.83372
 Alpha  occ. eigenvalues --   -0.81959  -0.78904  -0.75754  -0.74385  -0.73924
 Alpha  occ. eigenvalues --   -0.73515  -0.73482  -0.73366  -0.72137  -0.69111
 Alpha  occ. eigenvalues --   -0.67332  -0.67190  -0.66585  -0.65431  -0.64469
 Alpha  occ. eigenvalues --   -0.63751  -0.63535  -0.62946  -0.62526  -0.61527
 Alpha  occ. eigenvalues --   -0.61130  -0.60771  -0.59540  -0.59335  -0.58470
 Alpha  occ. eigenvalues --   -0.58184  -0.58073  -0.57590  -0.57426  -0.56399
 Alpha  occ. eigenvalues --   -0.56211  -0.56004  -0.54819  -0.54403  -0.54304
 Alpha  occ. eigenvalues --   -0.53744  -0.53412  -0.52946  -0.52851  -0.52623
 Alpha  occ. eigenvalues --   -0.52371  -0.52091  -0.51664  -0.51598  -0.51167
 Alpha  occ. eigenvalues --   -0.50049  -0.49930  -0.49468  -0.48738  -0.48606
 Alpha  occ. eigenvalues --   -0.48497  -0.48126  -0.47965  -0.47900  -0.47649
 Alpha  occ. eigenvalues --   -0.47307  -0.45889  -0.45256  -0.44103  -0.43237
 Alpha  occ. eigenvalues --   -0.42069  -0.39654  -0.39516  -0.38286  -0.37128
 Alpha  occ. eigenvalues --   -0.37105  -0.36791  -0.36238  -0.35482  -0.34664
 Alpha  occ. eigenvalues --   -0.34544  -0.34221  -0.33278  -0.33187  -0.32979
 Alpha  occ. eigenvalues --   -0.32588  -0.32334  -0.31820  -0.31786  -0.31729
 Alpha  occ. eigenvalues --   -0.31379  -0.28299  -0.26794  -0.25259
 Alpha virt. eigenvalues --    0.03096   0.05215   0.06791   0.08209   0.08691
 Alpha virt. eigenvalues --    0.09121   0.09763   0.10120   0.10877   0.11930
 Alpha virt. eigenvalues --    0.12962   0.13017   0.14659   0.14787   0.15301
 Alpha virt. eigenvalues --    0.15350   0.16167   0.17474   0.17875   0.18700
 Alpha virt. eigenvalues --    0.18816   0.19080   0.19381   0.19584   0.20502
 Alpha virt. eigenvalues --    0.20605   0.20874   0.21507   0.21749   0.22406
 Alpha virt. eigenvalues --    0.22873   0.22960   0.23069   0.23479   0.23787
 Alpha virt. eigenvalues --    0.23812   0.24219   0.24943   0.25539   0.26145
 Alpha virt. eigenvalues --    0.26318   0.26566   0.27150   0.27638   0.27989
 Alpha virt. eigenvalues --    0.28312   0.28939   0.29512   0.30135   0.30706
 Alpha virt. eigenvalues --    0.31436   0.32384   0.32792   0.33277   0.33656
 Alpha virt. eigenvalues --    0.33911   0.35270   0.35302   0.35835   0.36553
 Alpha virt. eigenvalues --    0.36894   0.37674   0.38142   0.38831   0.39741
 Alpha virt. eigenvalues --    0.40485   0.40651   0.41020   0.41445   0.41625
 Alpha virt. eigenvalues --    0.42283   0.42360   0.43126   0.43542   0.44471
 Alpha virt. eigenvalues --    0.45238   0.45604   0.45798   0.46051   0.46813
 Alpha virt. eigenvalues --    0.47077   0.48310   0.48686   0.49043   0.49486
 Alpha virt. eigenvalues --    0.50134   0.50428   0.50590   0.50999   0.51225
 Alpha virt. eigenvalues --    0.51301   0.52074   0.52630   0.53224   0.53432
 Alpha virt. eigenvalues --    0.53939   0.54557   0.54893   0.55582   0.55668
 Alpha virt. eigenvalues --    0.56363   0.56517   0.57066   0.57142   0.57491
 Alpha virt. eigenvalues --    0.57559   0.58341   0.58909   0.59576   0.59820
 Alpha virt. eigenvalues --    0.60113   0.60543   0.60957   0.61237   0.61450
 Alpha virt. eigenvalues --    0.61848   0.62247   0.62715   0.63236   0.63842
 Alpha virt. eigenvalues --    0.63956   0.64556   0.64911   0.65021   0.65449
 Alpha virt. eigenvalues --    0.65797   0.66518   0.66646   0.66988   0.67336
 Alpha virt. eigenvalues --    0.68437   0.68514   0.68780   0.69088   0.70311
 Alpha virt. eigenvalues --    0.70741   0.70971   0.71307   0.72077   0.72553
 Alpha virt. eigenvalues --    0.72833   0.73088   0.73168   0.73768   0.74081
 Alpha virt. eigenvalues --    0.74328   0.74401   0.75204   0.75731   0.75972
 Alpha virt. eigenvalues --    0.76077   0.76508   0.76875   0.76905   0.77440
 Alpha virt. eigenvalues --    0.78040   0.78573   0.78793   0.79172   0.79366
 Alpha virt. eigenvalues --    0.80079   0.80143   0.80650   0.81044   0.81309
 Alpha virt. eigenvalues --    0.81633   0.82142   0.82416   0.82866   0.83183
 Alpha virt. eigenvalues --    0.83701   0.84036   0.84533   0.84676   0.85153
 Alpha virt. eigenvalues --    0.85834   0.86467   0.87097   0.87346   0.87796
 Alpha virt. eigenvalues --    0.88213   0.88670   0.89311   0.89594   0.90221
 Alpha virt. eigenvalues --    0.90355   0.90877   0.91253   0.92177   0.92541
 Alpha virt. eigenvalues --    0.92787   0.93244   0.93773   0.94466   0.94831
 Alpha virt. eigenvalues --    0.95141   0.95922   0.96066   0.96498   0.97032
 Alpha virt. eigenvalues --    0.97705   0.97808   0.98390   0.99062   0.99566
 Alpha virt. eigenvalues --    1.00088   1.00141   1.00542   1.01112   1.01752
 Alpha virt. eigenvalues --    1.01842   1.02608   1.02770   1.03380   1.03609
 Alpha virt. eigenvalues --    1.03869   1.04378   1.04675   1.04941   1.06025
 Alpha virt. eigenvalues --    1.06545   1.07098   1.07668   1.08693   1.09446
 Alpha virt. eigenvalues --    1.09510   1.09900   1.10095   1.10929   1.11651
 Alpha virt. eigenvalues --    1.11979   1.12586   1.12916   1.13503   1.13877
 Alpha virt. eigenvalues --    1.14405   1.14646   1.15203   1.15813   1.16457
 Alpha virt. eigenvalues --    1.16539   1.17112   1.17347   1.18062   1.18484
 Alpha virt. eigenvalues --    1.18543   1.18555   1.19467   1.19565   1.20545
 Alpha virt. eigenvalues --    1.20822   1.21109   1.21258   1.21408   1.21904
 Alpha virt. eigenvalues --    1.22408   1.22652   1.23394   1.23627   1.23858
 Alpha virt. eigenvalues --    1.24154   1.24345   1.24975   1.25560   1.25743
 Alpha virt. eigenvalues --    1.26403   1.26678   1.27555   1.28070   1.28707
 Alpha virt. eigenvalues --    1.29685   1.29817   1.30939   1.31070   1.31928
 Alpha virt. eigenvalues --    1.32449   1.32903   1.33250   1.34137   1.35247
 Alpha virt. eigenvalues --    1.35364   1.35983   1.36563   1.36917   1.37740
 Alpha virt. eigenvalues --    1.38219   1.38311   1.39767   1.40391   1.40500
 Alpha virt. eigenvalues --    1.40946   1.42539   1.43638   1.44450   1.44580
 Alpha virt. eigenvalues --    1.45129   1.46351   1.46501   1.47323   1.47849
 Alpha virt. eigenvalues --    1.48460   1.49158   1.50019   1.50100   1.51747
 Alpha virt. eigenvalues --    1.52856   1.53286   1.53484   1.54577   1.54966
 Alpha virt. eigenvalues --    1.55136   1.55783   1.56520   1.57835   1.57976
 Alpha virt. eigenvalues --    1.59099   1.59180   1.60276   1.61220   1.61534
 Alpha virt. eigenvalues --    1.61846   1.62141   1.63908   1.64047   1.64859
 Alpha virt. eigenvalues --    1.65280   1.65953   1.66630   1.67042   1.67517
 Alpha virt. eigenvalues --    1.67866   1.67992   1.68429   1.68798   1.70055
 Alpha virt. eigenvalues --    1.70208   1.70479   1.70639   1.71075   1.71732
 Alpha virt. eigenvalues --    1.72184   1.72603   1.73101   1.73653   1.73771
 Alpha virt. eigenvalues --    1.74356   1.74795   1.75071   1.75165   1.75739
 Alpha virt. eigenvalues --    1.76009   1.76418   1.76576   1.77144   1.77440
 Alpha virt. eigenvalues --    1.77820   1.78426   1.78870   1.78932   1.79160
 Alpha virt. eigenvalues --    1.79570   1.79703   1.79998   1.80361   1.80653
 Alpha virt. eigenvalues --    1.80915   1.81865   1.82081   1.82552   1.83039
 Alpha virt. eigenvalues --    1.83308   1.84185   1.84501   1.84742   1.85492
 Alpha virt. eigenvalues --    1.85802   1.85980   1.86511   1.87116   1.88019
 Alpha virt. eigenvalues --    1.88286   1.88479   1.88812   1.89784   1.90211
 Alpha virt. eigenvalues --    1.90663   1.90901   1.91208   1.91729   1.92105
 Alpha virt. eigenvalues --    1.92493   1.93172   1.93335   1.94120   1.94591
 Alpha virt. eigenvalues --    1.95274   1.96165   1.96925   1.97590   1.98202
 Alpha virt. eigenvalues --    1.98650   1.99364   2.00057   2.00886   2.01430
 Alpha virt. eigenvalues --    2.01903   2.02302   2.03282   2.03456   2.04010
 Alpha virt. eigenvalues --    2.04764   2.05991   2.06834   2.07112   2.07576
 Alpha virt. eigenvalues --    2.08171   2.09336   2.09673   2.10636   2.10739
 Alpha virt. eigenvalues --    2.10829   2.11876   2.12727   2.13149   2.13511
 Alpha virt. eigenvalues --    2.13779   2.14300   2.15572   2.17722   2.18287
 Alpha virt. eigenvalues --    2.20042   2.20055   2.20663   2.20874   2.21626
 Alpha virt. eigenvalues --    2.21984   2.22609   2.23063   2.23725   2.23883
 Alpha virt. eigenvalues --    2.24012   2.25185   2.26605   2.26797   2.27252
 Alpha virt. eigenvalues --    2.27695   2.28276   2.28805   2.29160   2.29666
 Alpha virt. eigenvalues --    2.29756   2.30845   2.31883   2.32635   2.33351
 Alpha virt. eigenvalues --    2.33507   2.34045   2.34131   2.34416   2.34952
 Alpha virt. eigenvalues --    2.35663   2.36106   2.36338   2.37382   2.37608
 Alpha virt. eigenvalues --    2.38158   2.39509   2.39954   2.40501   2.40981
 Alpha virt. eigenvalues --    2.41665   2.41866   2.42897   2.43917   2.44030
 Alpha virt. eigenvalues --    2.44913   2.45821   2.46257   2.46864   2.47035
 Alpha virt. eigenvalues --    2.47568   2.48481   2.49520   2.49652   2.52166
 Alpha virt. eigenvalues --    2.52774   2.54561   2.55154   2.55557   2.56356
 Alpha virt. eigenvalues --    2.57087   2.57668   2.57792   2.58484   2.60199
 Alpha virt. eigenvalues --    2.60532   2.61223   2.61956   2.62550   2.63743
 Alpha virt. eigenvalues --    2.64347   2.65515   2.65846   2.66271   2.67076
 Alpha virt. eigenvalues --    2.67482   2.67783   2.68390   2.68576   2.69805
 Alpha virt. eigenvalues --    2.70382   2.71168   2.71776   2.72031   2.73045
 Alpha virt. eigenvalues --    2.73915   2.74477   2.74785   2.74990   2.76458
 Alpha virt. eigenvalues --    2.77949   2.79024   2.79274   2.79342   2.79828
 Alpha virt. eigenvalues --    2.80304   2.81191   2.81384   2.81725   2.82091
 Alpha virt. eigenvalues --    2.82542   2.82634   2.83214   2.83810   2.84745
 Alpha virt. eigenvalues --    2.85479   2.86014   2.86787   2.87166   2.87484
 Alpha virt. eigenvalues --    2.87852   2.88576   2.89707   2.92659   2.94302
 Alpha virt. eigenvalues --    2.94573   2.96592   2.97335   2.98336   2.98998
 Alpha virt. eigenvalues --    2.99838   3.01630   3.02746   3.05172   3.06393
 Alpha virt. eigenvalues --    3.06873   3.09788   3.10638   3.14067   3.14508
 Alpha virt. eigenvalues --    3.15426   3.15811   3.16194   3.17831   3.20074
 Alpha virt. eigenvalues --    3.22844   3.22998   3.23459   3.24312   3.27212
 Alpha virt. eigenvalues --    3.45781   3.46902   3.47951   3.50223   3.50366
 Alpha virt. eigenvalues --    3.52708   3.54478   3.56414   3.58275   3.60057
 Alpha virt. eigenvalues --    3.62988   3.71206   3.74741
          Condensed to atoms (all electrons):
 Mulliken charges:
               1
     1  N   -0.310490
     2  C    0.180145
     3  C    0.041896
     4  N   -0.254117
     5  C    0.130049
     6  H    0.029928
     7  N   -0.272752
     8  C    0.127875
     9  H    0.019376
    10  N   -0.292168
    11  C    0.235473
    12  C    0.094442
    13  N   -0.038083
    14  H    0.108457
    15  H    0.088911
    16  H    0.028991
    17  H    0.035589
    18  H    0.025744
    19  N   -0.298149
    20  C    0.250590
    21  C    0.183188
    22  N   -0.111007
    23  H    0.111541
    24  H    0.115806
    25  N   -0.299208
    26  C    0.227807
    27  N   -0.124308
    28  H    0.119221
    29  C    0.148701
    30  O   -0.324164
    31  C    0.001673
    32  N   -0.225845
    33  C    0.117666
    34  H    0.026203
    35  H    0.019980
    36  H    0.025840
    37  H    0.020169
    38  H    0.048985
    39  H    0.065858
    40  H    0.080393
    41  H    0.029840
    42  C   -0.085182
    43  O   -0.270564
    44  C    0.179942
    45  H    0.134455
    46  N   -0.126290
    47  O   -0.347043
    48  C    0.341111
    49  H    0.043945
    50  C    0.163459
    51  C    0.033824
    52  N   -0.282808
    53  H    0.032269
    54  H    0.036077
    55  H    0.003395
    56  H    0.118664
    57  H    0.120533
    58  N   -0.054793
    59  C    0.127440
    60  C    0.224749
    61  N   -0.276657
    62  H    0.036923
    63  C    0.164166
    64  N   -0.303979
    65  H    0.025714
    66  C    0.114890
    67  N   -0.248127
    68  C    0.014650
    69  C    0.186171
    70  N   -0.296979
 Sum of Mulliken charges =  -0.00000
 Mulliken charges with hydrogens summed into heavy atoms:
               1
     1  N   -0.310490
     2  C    0.270469
     3  C    0.041896
     4  N   -0.254117
     5  C    0.159977
     7  N   -0.272752
     8  C    0.147250
    10  N   -0.292168
    11  C    0.235473
    12  C    0.094442
    13  N    0.159286
    19  N   -0.298149
    20  C    0.250590
    21  C    0.249177
    22  N    0.116339
    25  N   -0.299208
    26  C    0.227807
    27  N   -0.005087
    29  C    0.148701
    30  O   -0.324164
    31  C    0.001673
    32  N   -0.225845
    33  C    0.143869
    42  C   -0.055342
    43  O   -0.270564
    44  C    0.179942
    46  N    0.008165
    47  O   -0.347043
    48  C    0.341111
    50  C    0.207404
    51  C    0.229060
    52  N   -0.282808
    58  N    0.184405
    59  C    0.127440
    60  C    0.224749
    61  N   -0.276657
    63  C    0.201089
    64  N   -0.303979
    66  C    0.140604
    67  N   -0.248127
    68  C    0.014650
    69  C    0.257912
    70  N   -0.296979
 Electronic spatial extent (au):  <R**2>=          23321.0901
 Charge=             -0.0000 electrons
 Dipole moment (field-independent basis, Debye):
    X=              4.8196    Y=              5.5629    Z=              4.4049  Tot=              8.5778
 Quadrupole moment (field-independent basis, Debye-Ang):
   XX=           -140.1846   YY=           -226.3186   ZZ=           -257.8339
   XY=             15.1400   XZ=             19.4341   YZ=             -2.1942
 Traceless Quadrupole moment (field-independent basis, Debye-Ang):
   XX=             67.9277   YY=            -18.2062   ZZ=            -49.7216
   XY=             15.1400   XZ=             19.4341   YZ=             -2.1942
 Octapole moment (field-independent basis, Debye-Ang**2):
  XXX=            -28.1429  YYY=             29.3874  ZZZ=             44.7352  XYY=             29.2214
  XXY=             90.6163  XXZ=            -10.8050  XZZ=             34.3364  YZZ=             52.1669
  YYZ=             32.7872  XYZ=             27.7555
 Hexadecapole moment (field-independent basis, Debye-Ang**3):
 XXXX=         -16421.6773 YYYY=          -3747.7244 ZZZZ=          -3168.0353 XXXY=            515.8339
 XXXZ=            304.6506 YYYX=             28.2284 YYYZ=             86.3039 ZZZX=            166.2884
 ZZZY=             12.9162 XXYY=          -4520.5230 XXZZ=          -4347.7389 YYZZ=          -1281.8653
 XXYZ=             17.1275 YYXZ=             98.4934 ZZXY=            118.0728
 N-N= 5.538357409152D+03 E-N=-1.585752419434D+04  KE= 2.037749920385D+03
 No NMR shielding tensors so no spin-rotation constants.
 Leave Link  601 at Thu Jan 18 16:32:10 2018, MaxMem=  4294967296 cpu:              48.0 elap:               1.7
 (Enter /share/apps/g16/l9999.exe)
 1\1\GINC-COMPUTE-0-3\SP\RwB97XD\CC-pVDZ\C23H27N17O3\SATYA\18-Jan-2018\
 0\\#p wb97xd/cc-pvdz sp scf=(maxcycles=20)\\Base pair stacking\\0,1\N,
 0,2.69676,9.449,-6.47105\C,0,2.40896,10.89283,-6.57363\C,0,2.49059,7.2
 6125,-6.37851\N,0,3.84672,7.52864,-6.25948\C,0,3.91664,8.83598,-6.32\H
 ,0,4.84115,9.41088,-6.25909\N,0,0.41914,6.14279,-6.52372\C,0,-0.13908,
 7.35205,-6.6407\H,0,-1.22303,7.35551,-6.74702\N,0,0.43793,8.55202,-6.6
 4603\C,0,1.76915,8.43507,-6.50964\C,0,1.76063,6.05875,-6.38803\N,0,2.3
 1971,4.85255,-6.27112\H,0,3.309,4.74293,-6.1686\H,0,1.76906,4.0178,-6.
 28203\H,0,2.88328,11.27305,-7.36775\H,0,1.42438,11.03068,-6.67715\H,0,
 2.72361,11.35719,-5.74576\N,0,0.16988,6.91902,-3.26456\C,0,-0.45728,5.
 69644,-3.26328\C,0,-0.50924,8.22675,-3.36129\N,0,-3.37021,3.81011,-3.3
 9872\H,0,-3.6246,2.84356,-3.38065\H,0,-4.11466,4.47384,-3.47605\N,0,-1
 .78858,5.48606,-3.34948\C,0,-2.08866,4.19965,-3.32272\N,0,-1.1577,3.19
 458,-3.21948\H,0,-1.47833,2.23855,-3.20649\C,0,0.21723,3.38784,-3.1295
 7\O,0,0.97176,2.41143,-3.03986\C,0,0.55495,4.76482,-3.15705\N,0,1.7926
 8,5.38996,-3.09292\C,0,1.51547,6.66388,-3.16\H,0,2.25737,7.46284,-3.13
 738\H,0,-0.18994,8.71061,-4.17537\H,0,-1.49596,8.08356,-3.42565\H,0,-0
 .30486,8.77127,-2.54856\H,0,-3.66326,-2.3084,-3.84208\H,0,-3.54113,-2.
 38111,-2.08582\H,0,-3.77191,-0.82791,-2.88935\H,0,0.98871,-3.42251,-3.
 32784\C,0,0.3344,-2.55448,-3.2464\O,0,2.10879,-0.98119,-3.30466\C,0,0.
 90855,-1.24377,-3.23206\H,0,0.36071,0.72445,-3.11248\N,0,-0.00715,-0.2
 1641,-3.12585\O,0,-2.10228,0.64078,-2.94466\C,0,-1.37187,-0.33024,-3.0
 3565\H,0,-1.47941,-3.67231,-3.16654\C,0,-0.99325,-2.69766,-3.16\C,0,-3
 .30179,-1.79735,-2.96218\N,0,-1.84937,-1.62592,-3.05609\H,0,-4.44308,-
 0.09634,-6.86174\H,0,-4.17947,1.19587,-5.90113\H,0,-4.34611,-0.2889,-5
 .24405\H,0,2.84064,1.21376,-6.31721\H,0,2.1935,-0.3577,-6.46493\N,0,2.
 0346,0.6222,-6.33931\C,0,0.80217,1.11702,-6.20724\C,0,-1.57033,0.98612
 ,-6.08142\N,0,-1.75364,2.30627,-5.91402\H,0,-0.64185,4.02257,-5.77681\
 C,0,-0.58421,2.94291,-5.90822\N,0,0.65121,2.4491,-6.04035\H,0,-2.39124
 ,-2.12451,-6.40123\C,0,-1.86335,-1.17389,-6.32\N,0,-0.56137,-1.03688,-
 6.38132\C,0,-0.36213,0.32788,-6.23142\C,0,-3.99262,0.22212,-6.02768\N,
 0,-2.53646,0.00979,-6.1396\\Version=EM64L-G16RevA.03\State=1-A\HF=-204
 8.7504828\RMSD=6.168e-09\Dipole=-3.2072659,-1.0026986,-0.311499\Quadru
 pole=-3.3589286,35.1671014,-31.8081727,32.8291647,-13.4314598,-0.47595
 99\PG=C01 [X(C23H27N17O3)]\\@


 THE MEEK SHALL INHERIT THE EARTH.
 (THE REST OF US WILL ESCAPE TO THE STARS)
 Job cpu time:       0 days  6 hours 15 minutes  1.9 seconds.
 Elapsed time:       0 days  0 hours 12 minutes  9.2 seconds.
 File lengths (MBytes):  RWF=    298 Int=      0 D2E=      0 Chk=     33 Scr=      1
 Normal termination of Gaussian 16 at Thu Jan 18 16:32:10 2018.
