 Entering Gaussian System, Link 0=g16
 Input=str15.-20.-2.0.com
 Output=str15.-20.-2.0.log
 Initial command:
 /share/apps/g16/l1.exe "/state/partition1/scr/Gau-12035.inp" -scrdir="/state/partition1/scr/"
 Entering Link 1 = /share/apps/g16/l1.exe PID=     12036.
  
 Copyright (c) 1988,1990,1992,1993,1995,1998,2003,2009,2016,
            Gaussian, Inc.  All Rights Reserved.
  
 This is part of the Gaussian(R) 16 program.  It is based on
 the Gaussian(R) 09 system (copyright 2009, Gaussian, Inc.),
 the Gaussian(R) 03 system (copyright 2003, Gaussian, Inc.),
 the Gaussian(R) 98 system (copyright 1998, Gaussian, Inc.),
 the Gaussian(R) 94 system (copyright 1995, Gaussian, Inc.),
 the Gaussian 92(TM) system (copyright 1992, Gaussian, Inc.),
 the Gaussian 90(TM) system (copyright 1990, Gaussian, Inc.),
 the Gaussian 88(TM) system (copyright 1988, Gaussian, Inc.),
 the Gaussian 86(TM) system (copyright 1986, Carnegie Mellon
 University), and the Gaussian 82(TM) system (copyright 1983,
 Carnegie Mellon University). Gaussian is a federally registered
 trademark of Gaussian, Inc.
  
 This software contains proprietary and confidential information,
 including trade secrets, belonging to Gaussian, Inc.
  
 This software is provided under written license and may be
 used, copied, transmitted, or stored only in accord with that
 written license.
  
 The following legend is applicable only to US Government
 contracts under FAR:
  
                    RESTRICTED RIGHTS LEGEND
  
 Use, reproduction and disclosure by the US Government is
 subject to restrictions as set forth in subparagraphs (a)
 and (c) of the Commercial Computer Software - Restricted
 Rights clause in FAR 52.227-19.
  
 Gaussian, Inc.
 340 Quinnipiac St., Bldg. 40, Wallingford CT 06492
  
  
 ---------------------------------------------------------------
 Warning -- This program may not be used in any manner that
 competes with the business of Gaussian, Inc. or will provide
 assistance to any competitor of Gaussian, Inc.  The licensee
 of this program is prohibited from giving any competitor of
 Gaussian, Inc. access to this program.  By using this program,
 the user acknowledges that Gaussian, Inc. is engaged in the
 business of creating and licensing software in the field of
 computational chemistry and represents and warrants to the
 licensee that it is not a competitor of Gaussian, Inc. and that
 it will not use this program in any manner prohibited above.
 ---------------------------------------------------------------
  

 Cite this work as:
 Gaussian 16, Revision A.03,
 M. J. Frisch, G. W. Trucks, H. B. Schlegel, G. E. Scuseria, 
 M. A. Robb, J. R. Cheeseman, G. Scalmani, V. Barone, 
 G. A. Petersson, H. Nakatsuji, X. Li, M. Caricato, A. V. Marenich, 
 J. Bloino, B. G. Janesko, R. Gomperts, B. Mennucci, H. P. Hratchian, 
 J. V. Ortiz, A. F. Izmaylov, J. L. Sonnenberg, D. Williams-Young, 
 F. Ding, F. Lipparini, F. Egidi, J. Goings, B. Peng, A. Petrone, 
 T. Henderson, D. Ranasinghe, V. G. Zakrzewski, J. Gao, N. Rega, 
 G. Zheng, W. Liang, M. Hada, M. Ehara, K. Toyota, R. Fukuda, 
 J. Hasegawa, M. Ishida, T. Nakajima, Y. Honda, O. Kitao, H. Nakai, 
 T. Vreven, K. Throssell, J. A. Montgomery, Jr., J. E. Peralta, 
 F. Ogliaro, M. J. Bearpark, J. J. Heyd, E. N. Brothers, K. N. Kudin, 
 V. N. Staroverov, T. A. Keith, R. Kobayashi, J. Normand, 
 K. Raghavachari, A. P. Rendell, J. C. Burant, S. S. Iyengar, 
 J. Tomasi, M. Cossi, J. M. Millam, M. Klene, C. Adamo, R. Cammi, 
 J. W. Ochterski, R. L. Martin, K. Morokuma, O. Farkas, 
 J. B. Foresman, and D. J. Fox, Gaussian, Inc., Wallingford CT, 2016.
 
 ******************************************
 Gaussian 16:  EM64L-G16RevA.03 25-Dec-2016
                19-Jan-2018 
 ******************************************
 %nprocshared=32
 Will use up to   32 processors via shared memory.
 %mem=32GB
 %chk=allatoms_t.chk
 ---------------------------------------
 #p wb97xd/cc-pvdz sp scf=(maxcycles=20)
 ---------------------------------------
 1/38=1,172=1/1;
 2/12=2,17=6,18=5,40=1/2;
 3/5=16,11=2,25=1,30=1,74=-58/1,2,3;
 4//1;
 5/5=2,7=20,38=5/2;
 6/7=2,8=2,9=2,10=2,28=1/1;
 99/5=1,9=1/99;
 Leave Link    1 at Fri Jan 19 04:53:36 2018, MaxMem=  4294967296 cpu:               2.7 elap:               0.1
 (Enter /share/apps/g16/l101.exe)
 ------------------
 Base pair stacking
 ------------------
 Symbolic Z-matrix:
 Charge =  0 Multiplicity = 1
 N                     0.54269   9.67109  -6.37896 
 C                     0.36668   11.1004  -6.05632 
 C                     0.26433   7.49411  -6.52255 
 N                     1.42786   7.78346  -7.22054 
 C                     1.549     9.08342  -7.1061 
 H                     2.36077   9.67072  -7.53627 
 N                    -1.54652   6.34679  -5.53896 
 C                    -1.96311   7.53833  -5.09822 
 H                    -2.88286   7.52283  -4.51505 
 N                    -1.4167    8.74051  -5.26888 
 C                    -0.29246   8.6476   -5.99818 
 C                    -0.412     6.28676  -6.26996 
 N                     0.00547   5.09826  -6.71081 
 H                     0.83987   5.00666  -7.25543 
 H                    -0.50131   4.25936  -6.51185 
 H                     0.28694   11.6272  -6.90266 
 H                    -0.46239   11.22012  -5.51095 
 H                     1.15591   11.42642  -5.53592 
 N                    -0.35791   6.88828  -3.00939 
 C                    -0.96252   5.66465  -2.85055 
 C                    -1.01458   8.19661  -2.8151 
 N                    -3.77357   3.77599  -2.08067 
 H                    -4.01846   2.80872  -2.02024 
 H                    -4.49284   4.43988  -1.87422 
 N                    -2.24775   5.45364  -2.49317 
 C                    -2.53651   4.16627  -2.42311 
 N                    -1.63691   3.16088  -2.68278 
 H                    -1.94577   2.20411  -2.60438 
 C                    -0.30955   3.35479  -3.05207 
 O                     0.41969   2.37801  -3.2639 
 C                     0.01549   4.7328   -3.13152 
 N                     1.21007   5.35881  -3.46014 
 C                     0.94147   6.63346  -3.37456 
 H                     1.65718   7.43323  -3.56794 
 H                    -0.98174   8.71772  -3.66725 
 H                    -1.96716   8.05295  -2.55011 
 H                    -0.54256   8.70475  -2.09551 
 H                    -4.27063  -2.31739  -2.66568 
 H                    -3.56628  -2.46858  -1.05767 
 H                    -4.03535  -0.88164  -1.66837 
 H                     0.27015  -3.43698  -3.79455 
 C                    -0.30847  -2.57582  -3.46014 
 O                     1.36156  -0.99521  -4.04305 
 C                     0.25251  -1.26505  -3.58262 
 H                    -0.20006   0.69385  -3.20021 
 N                    -0.56207  -0.24676  -3.13008 
 O                    -2.46422   0.59397  -2.21784 
 C                    -1.81836  -0.36937  -2.59132 
 H                    -2.00299  -3.70254  -2.82382 
 C                    -1.53146  -2.72745  -2.93869 
 C                    -3.6285   -1.84514  -1.93717 
 N                    -2.29018  -1.66451  -2.50641 
 H                    -6.07955   0.0951   -3.79247 
 H                    -5.18458   1.21171  -3.00869 
 H                    -5.03246  -0.36858  -2.6297 
 H                     0.10217   1.5413   -7.63439 
 H                    -0.62205  -0.00279  -7.59721 
 N                    -0.5938    0.93502  -7.24944 
 C                    -1.44679   1.35732  -6.3139 
 C                    -3.25232   1.12554  -4.78156 
 N                    -3.19111   2.39035  -4.33333 
 H                    -2.09529   4.09479  -4.64105 
 C                    -2.21482   3.05627  -4.94677 
 N                    -1.35942   2.63508  -5.88404 
 H                    -4.33957  -1.91045  -5.01142 
 C                    -3.79879  -0.97032  -5.12388 
 N                    -2.79812  -0.78027  -5.94863 
 C                    -2.44223   0.54458  -5.74165 
 C                    -5.19086   0.28106  -3.37337 
 N                    -4.12684   0.14112  -4.38643 
 
 ITRead=  0  0  0  0  0  0  0  0  0  0  0  0  0  0  0  0  0  0  0  0
 ITRead=  0  0  0  0  0  0  0  0  0  0  0  0  0  0  0  0  0  0  0  0
 ITRead=  0  0  0  0  0  0  0  0  0  0  0  0  0  0  0  0  0  0  0  0
 ITRead=  0  0  0  0  0  0  0  0  0  0
 MicOpt= -1 -1 -1 -1 -1 -1 -1 -1 -1 -1 -1 -1 -1 -1 -1 -1 -1 -1 -1 -1
 MicOpt= -1 -1 -1 -1 -1 -1 -1 -1 -1 -1 -1 -1 -1 -1 -1 -1 -1 -1 -1 -1
 MicOpt= -1 -1 -1 -1 -1 -1 -1 -1 -1 -1 -1 -1 -1 -1 -1 -1 -1 -1 -1 -1
 MicOpt= -1 -1 -1 -1 -1 -1 -1 -1 -1 -1
 NAtoms=     70 NQM=       70 NQMF=       0 NMMI=      0 NMMIF=      0
                NMic=       0 NMicF=      0.
                    Isotopes and Nuclear Properties:
 (Nuclear quadrupole moments (NQMom) in fm**2, nuclear magnetic moments (NMagM)
  in nuclear magnetons)

  Atom         1           2           3           4           5           6           7           8           9          10
 IAtWgt=          14          12          12          14          12           1          14          12           1          14
 AtmWgt=  14.0030740  12.0000000  12.0000000  14.0030740  12.0000000   1.0078250  14.0030740  12.0000000   1.0078250  14.0030740
 NucSpn=           2           0           0           2           0           1           2           0           1           2
 AtZEff=  -0.0000000  -0.0000000  -0.0000000  -0.0000000  -0.0000000  -0.0000000  -0.0000000  -0.0000000  -0.0000000  -0.0000000
 NQMom=    2.0440000   0.0000000   0.0000000   2.0440000   0.0000000   0.0000000   2.0440000   0.0000000   0.0000000   2.0440000
 NMagM=    0.4037610   0.0000000   0.0000000   0.4037610   0.0000000   2.7928460   0.4037610   0.0000000   2.7928460   0.4037610
 AtZNuc=   7.0000000   6.0000000   6.0000000   7.0000000   6.0000000   1.0000000   7.0000000   6.0000000   1.0000000   7.0000000

  Atom        11          12          13          14          15          16          17          18          19          20
 IAtWgt=          12          12          14           1           1           1           1           1          14          12
 AtmWgt=  12.0000000  12.0000000  14.0030740   1.0078250   1.0078250   1.0078250   1.0078250   1.0078250  14.0030740  12.0000000
 NucSpn=           0           0           2           1           1           1           1           1           2           0
 AtZEff=  -0.0000000  -0.0000000  -0.0000000  -0.0000000  -0.0000000  -0.0000000  -0.0000000  -0.0000000  -0.0000000  -0.0000000
 NQMom=    0.0000000   0.0000000   2.0440000   0.0000000   0.0000000   0.0000000   0.0000000   0.0000000   2.0440000   0.0000000
 NMagM=    0.0000000   0.0000000   0.4037610   2.7928460   2.7928460   2.7928460   2.7928460   2.7928460   0.4037610   0.0000000
 AtZNuc=   6.0000000   6.0000000   7.0000000   1.0000000   1.0000000   1.0000000   1.0000000   1.0000000   7.0000000   6.0000000

  Atom        21          22          23          24          25          26          27          28          29          30
 IAtWgt=          12          14           1           1          14          12          14           1          12          16
 AtmWgt=  12.0000000  14.0030740   1.0078250   1.0078250  14.0030740  12.0000000  14.0030740   1.0078250  12.0000000  15.9949146
 NucSpn=           0           2           1           1           2           0           2           1           0           0
 AtZEff=  -0.0000000  -0.0000000  -0.0000000  -0.0000000  -0.0000000  -0.0000000  -0.0000000  -0.0000000  -0.0000000  -0.0000000
 NQMom=    0.0000000   2.0440000   0.0000000   0.0000000   2.0440000   0.0000000   2.0440000   0.0000000   0.0000000   0.0000000
 NMagM=    0.0000000   0.4037610   2.7928460   2.7928460   0.4037610   0.0000000   0.4037610   2.7928460   0.0000000   0.0000000
 AtZNuc=   6.0000000   7.0000000   1.0000000   1.0000000   7.0000000   6.0000000   7.0000000   1.0000000   6.0000000   8.0000000

  Atom        31          32          33          34          35          36          37          38          39          40
 IAtWgt=          12          14          12           1           1           1           1           1           1           1
 AtmWgt=  12.0000000  14.0030740  12.0000000   1.0078250   1.0078250   1.0078250   1.0078250   1.0078250   1.0078250   1.0078250
 NucSpn=           0           2           0           1           1           1           1           1           1           1
 AtZEff=  -0.0000000  -0.0000000  -0.0000000  -0.0000000  -0.0000000  -0.0000000  -0.0000000  -0.0000000  -0.0000000  -0.0000000
 NQMom=    0.0000000   2.0440000   0.0000000   0.0000000   0.0000000   0.0000000   0.0000000   0.0000000   0.0000000   0.0000000
 NMagM=    0.0000000   0.4037610   0.0000000   2.7928460   2.7928460   2.7928460   2.7928460   2.7928460   2.7928460   2.7928460
 AtZNuc=   6.0000000   7.0000000   6.0000000   1.0000000   1.0000000   1.0000000   1.0000000   1.0000000   1.0000000   1.0000000

  Atom        41          42          43          44          45          46          47          48          49          50
 IAtWgt=           1          12          16          12           1          14          16          12           1          12
 AtmWgt=   1.0078250  12.0000000  15.9949146  12.0000000   1.0078250  14.0030740  15.9949146  12.0000000   1.0078250  12.0000000
 NucSpn=           1           0           0           0           1           2           0           0           1           0
 AtZEff=  -0.0000000  -0.0000000  -0.0000000  -0.0000000  -0.0000000  -0.0000000  -0.0000000  -0.0000000  -0.0000000  -0.0000000
 NQMom=    0.0000000   0.0000000   0.0000000   0.0000000   0.0000000   2.0440000   0.0000000   0.0000000   0.0000000   0.0000000
 NMagM=    2.7928460   0.0000000   0.0000000   0.0000000   2.7928460   0.4037610   0.0000000   0.0000000   2.7928460   0.0000000
 AtZNuc=   1.0000000   6.0000000   8.0000000   6.0000000   1.0000000   7.0000000   8.0000000   6.0000000   1.0000000   6.0000000

  Atom        51          52          53          54          55          56          57          58          59          60
 IAtWgt=          12          14           1           1           1           1           1          14          12          12
 AtmWgt=  12.0000000  14.0030740   1.0078250   1.0078250   1.0078250   1.0078250   1.0078250  14.0030740  12.0000000  12.0000000
 NucSpn=           0           2           1           1           1           1           1           2           0           0
 AtZEff=  -0.0000000  -0.0000000  -0.0000000  -0.0000000  -0.0000000  -0.0000000  -0.0000000  -0.0000000  -0.0000000  -0.0000000
 NQMom=    0.0000000   2.0440000   0.0000000   0.0000000   0.0000000   0.0000000   0.0000000   2.0440000   0.0000000   0.0000000
 NMagM=    0.0000000   0.4037610   2.7928460   2.7928460   2.7928460   2.7928460   2.7928460   0.4037610   0.0000000   0.0000000
 AtZNuc=   6.0000000   7.0000000   1.0000000   1.0000000   1.0000000   1.0000000   1.0000000   7.0000000   6.0000000   6.0000000

  Atom        61          62          63          64          65          66          67          68          69          70
 IAtWgt=          14           1          12          14           1          12          14          12          12          14
 AtmWgt=  14.0030740   1.0078250  12.0000000  14.0030740   1.0078250  12.0000000  14.0030740  12.0000000  12.0000000  14.0030740
 NucSpn=           2           1           0           2           1           0           2           0           0           2
 AtZEff=  -0.0000000  -0.0000000  -0.0000000  -0.0000000  -0.0000000  -0.0000000  -0.0000000  -0.0000000  -0.0000000  -0.0000000
 NQMom=    2.0440000   0.0000000   0.0000000   2.0440000   0.0000000   0.0000000   2.0440000   0.0000000   0.0000000   2.0440000
 NMagM=    0.4037610   2.7928460   0.0000000   0.4037610   2.7928460   0.0000000   0.4037610   0.0000000   0.0000000   0.4037610
 AtZNuc=   7.0000000   1.0000000   6.0000000   7.0000000   1.0000000   6.0000000   7.0000000   6.0000000   6.0000000   7.0000000
 Leave Link  101 at Fri Jan 19 04:53:37 2018, MaxMem=  4294967296 cpu:               8.9 elap:               0.3
 (Enter /share/apps/g16/l202.exe)
 Stoichiometry    C23H27N17O3
 Framework group  C1[X(C23H27N17O3)]
 Deg. of freedom   204
 Full point group                 C1      NOp   1
 Largest Abelian subgroup         C1      NOp   1
 Largest concise Abelian subgroup C1      NOp   1
                         Standard orientation:                         
 ---------------------------------------------------------------------
 Center     Atomic      Atomic             Coordinates (Angstroms)
 Number     Number       Type             X           Y           Z
 ---------------------------------------------------------------------
      1          7           0       -6.790687    0.738966   -0.345500
      2          6           0       -8.050406   -0.029358   -0.317406
      3          6           0       -4.677557    1.313182   -0.551173
      4          7           0       -5.359303    2.465604   -0.188048
      5          6           0       -6.605094    2.073546   -0.078668
      6          1           0       -7.437317    2.722142    0.196408
      7          7           0       -2.971694   -0.199315   -1.155618
      8          6           0       -3.925825   -1.134168   -1.212637
      9          1           0       -3.584185   -2.131120   -1.487662
     10          7           0       -5.232486   -1.022948   -0.982003
     11          6           0       -5.546595    0.240755   -0.652130
     12          6           0       -3.319881    1.062343   -0.820829
     13          7           0       -2.368876    1.996929   -0.763374
     14          1           0       -2.581056    2.943970   -0.519825
     15          1           0       -1.412413    1.782449   -0.961723
     16          1           0       -8.695121    0.360784   -0.974902
     17          1           0       -7.866138   -0.981924   -0.557782
     18          1           0       -8.447168    0.010469    0.599645
     19          7           0       -3.284734   -1.389472    1.411532
     20          6           0       -1.946226   -1.523191    1.131233
     21          6           0       -4.340832   -2.338655    1.006069
     22          7           0        0.660222   -3.303407   -0.317564
     23          1           0        1.651225   -3.213782   -0.413037
     24          1           0        0.235434   -4.108599   -0.732223
     25          7           0       -1.375503   -2.536021    0.443838
     26          6           0       -0.067242   -2.385596    0.336898
     27          7           0        0.630638   -1.325159    0.862212
     28          1           0        1.630061   -1.292355    0.731727
     29          6           0        0.064064   -0.271809    1.573063
     30          8           0        0.783749    0.637126    2.005095
     31          6           0       -1.340899   -0.419458    1.696162
     32          7           0       -2.280473    0.390889    2.318609
     33          6           0       -3.416211   -0.222787    2.124436
     34          1           0       -4.383321    0.133250    2.481094
     35          1           0       -5.007638   -1.870602    0.427200
     36          1           0       -3.929946   -3.093225    0.496104
     37          1           0       -4.798837   -2.697345    1.818714
     38          1           0        6.473832   -1.385995   -0.811584
     39          1           0        6.759098   -2.027246    0.804611
     40          1           0        5.240037   -2.370118   -0.023793
     41          1           0        6.260822    2.655408    1.789992
     42          6           0        5.639373    1.790789    1.556620
     43          8           0        3.629854    2.800098    2.311761
     44          6           0        4.234961    1.844789    1.825932
     45          1           0        2.546677    0.698720    1.669192
     46          7           0        3.541588    0.698504    1.493499
     47          8           0        3.360180   -1.416409    0.686394
     48          6           0        4.055813   -0.450537    0.946836
     49          1           0        7.232146    0.592301    0.799982
     50          6           0        6.170152    0.683997    1.023803
     51          6           0        6.011835   -1.631320    0.133113
     52          7           0        5.417253   -0.425531    0.716471
     53          1           0        4.383792   -2.468692   -3.007365
     54          1           0        3.258783   -2.783851   -1.868450
     55          1           0        4.801707   -2.482035   -1.429836
     56          1           0        0.823120    3.775737   -1.165024
     57          1           0        2.471983    3.747298   -1.601524
     58          7           0        1.637655    3.238968   -1.385358
     59          6           0        1.613440    1.904597   -1.390959
     60          6           0        2.549876   -0.266435   -1.658237
     61          7           0        1.415246   -0.922496   -1.363955
     62          1           0       -0.525184   -0.512629   -0.846879
     63          6           0        0.434568   -0.062394   -1.096755
     64          7           0        0.456830    1.274413   -1.090618
     65          1           0        5.655162    0.107612   -2.476446
     66          6           0        4.610708    0.252407   -2.198806
     67          7           0        4.037670    1.419891   -2.036697
     68          6           0        2.730718    1.105268   -1.693749
     69          6           0        4.077910   -2.251629   -2.080373
     70          7           0        3.768694   -0.811693   -1.985608
 ---------------------------------------------------------------------
 Rotational constants (GHZ):           0.1957030           0.0497107           0.0477192
 Leave Link  202 at Fri Jan 19 04:53:37 2018, MaxMem=  4294967296 cpu:               0.3 elap:               0.0
 (Enter /share/apps/g16/l301.exe)
 Standard basis: CC-pVDZ (5D, 7F)
 Ernie: Thresh=  0.10000D-02 Tol=  0.10000D-05 Strict=F.
 Ernie:  86 primitive shells out of 1081 were deleted.
 There are   780 symmetry adapted cartesian basis functions of A   symmetry.
 There are   737 symmetry adapted basis functions of A   symmetry.
   737 basis functions,  1608 primitive gaussians,   780 cartesian basis functions
   154 alpha electrons      154 beta electrons
       nuclear repulsion energy      5630.0331258907 Hartrees.
 IExCor= 4639 DFT=T Ex+Corr=wB97XD ExCW=0 ScaHFX=  1.000000
 ScaDFX=  1.000000  1.000000  1.000000  1.000000 ScalE2=  1.000000  1.000000
 IRadAn=      5 IRanWt=     -1 IRanGd=            0 ICorTp=0 IEmpDi=121
 HFx  wShort=  0.000000 wLong=  0.200000 cFull=  0.222036 cShort=  0.000000 cLong=  0.777964
 DFx  wShort=  0.000000 wLong=  0.200000 cFull=  0.000000 cShort=  0.000000 cLong=  1.000000
 NAtoms=   70 NActive=   70 NUniq=   70 SFac= 1.00D+00 NAtFMM=   60 NAOKFM=T Big=T
 Integral buffers will be    131072 words long.
 Raffenetti 2 integral format.
 Two-electron integral symmetry is turned on.
 R6Disp:  Grimme-D2 Dispersion energy=       -0.0802444709 Hartrees.
 Nuclear repulsion after empirical dispersion term =     5629.9528814198 Hartrees.
 Leave Link  301 at Fri Jan 19 04:53:37 2018, MaxMem=  4294967296 cpu:               3.0 elap:               0.1
 (Enter /share/apps/g16/l302.exe)
 NPDir=0 NMtPBC=     1 NCelOv=     1 NCel=       1 NClECP=     1 NCelD=      1
         NCelK=      1 NCelE2=     1 NClLst=     1 CellRange=     0.0.
 One-electron integrals computed using PRISM.
 One-electron integral symmetry used in STVInt
 NBasis=   737 RedAO= T EigKep=  6.66D-04  NBF=   737
 NBsUse=   737 1.00D-06 EigRej= -1.00D+00 NBFU=   737
 Precomputing XC quadrature grid using
 IXCGrd= 4 IRadAn=           5 IRanWt=          -1 IRanGd=           0 AccXCQ= 0.00D+00.
 Generated NRdTot=       0 NPtTot=           0 NUsed=           0 NTot=          32
 NSgBfM=   760   759   760   760   760 MxSgAt=    70 MxSgA2=    70.
 Leave Link  302 at Fri Jan 19 04:53:41 2018, MaxMem=  4294967296 cpu:             136.3 elap:               4.3
 (Enter /share/apps/g16/l303.exe)
 DipDrv:  MaxL=1.
 Leave Link  303 at Fri Jan 19 04:53:42 2018, MaxMem=  4294967296 cpu:              12.9 elap:               0.5
 (Enter /share/apps/g16/l401.exe)
 ExpMin= 1.22D-01 ExpMax= 1.17D+04 ExpMxC= 4.01D+02 IAcc=3 IRadAn=         5 AccDes= 0.00D+00
 Harris functional with IExCor= 4639 and IRadAn=       5 diagonalized for initial guess.
 HarFok:  IExCor= 4639 AccDes= 0.00D+00 IRadAn=         5 IDoV= 1 UseB2=F ITyADJ=14
 ICtDFT=  3500011 ScaDFX=  1.000000  1.000000  1.000000  1.000000
 FoFCou: FMM=F IPFlag=           0 FMFlag=      100000 FMFlg1=        2001
         NFxFlg=           0 DoJE=T BraDBF=F KetDBF=T FulRan=T
         wScrn=  0.000000 ICntrl=       500 IOpCl=  0 I1Cent=   200000004 NGrid=           0
         NMat0=    1 NMatS0=      1 NMatT0=    0 NMatD0=    1 NMtDS0=    0 NMtDT0=    0
 Petite list used in FoFCou.
 Harris En= -1963.76194085657    
 JPrj=0 DoOrth=F DoCkMO=F.
 Leave Link  401 at Fri Jan 19 04:53:55 2018, MaxMem=  4294967296 cpu:             415.5 elap:              13.0
 (Enter /share/apps/g16/l502.exe)
 Integral symmetry usage will be decided dynamically.
 Closed shell SCF:
 Using DIIS extrapolation, IDIIS=  1040.
 NGot=  4294967296 LenX=  4293717438 LenY=  4293108258
 Requested convergence on RMS density matrix=1.00D-08 within  20 cycles.
 Requested convergence on MAX density matrix=1.00D-06.
 Requested convergence on             energy=1.00D-06.
 No special actions if energy rises.
 Fock matrices will be formed incrementally for  20 cycles.
 Integral accuracy reduced to 1.0D-05 until final iterations.

 Cycle   1  Pass 0  IDiag  1:
 FoFJK:  IHMeth= 1 ICntrl=       0 DoSepK=T KAlg= 0 I1Cent=           0 FoldK=F
 IRaf=         1 NMat=       1 IRICut=       1 DoRegI=T DoRafI=F ISym2E= 0 IDoP0=0 IntGTp=1.
 FoFCou: FMM=T IPFlag=           0 FMFlag=      100000 FMFlg1=        2001
         NFxFlg=           0 DoJE=T BraDBF=F KetDBF=F FulRan=T
         wScrn=  0.000000 ICntrl=       500 IOpCl=  0 I1Cent=           0 NGrid=           0
         NMat0=    1 NMatS0=      1 NMatT0=    0 NMatD0=    1 NMtDS0=    0 NMtDT0=    0
 Symmetry not used in FoFCou.
 FMM levels:  10  Number of levels for PrismC:   9
 E= -2048.21500105013    
 DIIS: error= 1.98D-02 at cycle   1 NSaved=   1.
 NSaved= 1 IEnMin= 1 EnMin= -2048.21500105013     IErMin= 1 ErrMin= 1.98D-02
 ErrMax= 1.98D-02  0.00D+00 EMaxC= 1.00D-01 BMatC= 8.39D-01 BMatP= 8.39D-01
 IDIUse=3 WtCom= 8.02D-01 WtEn= 1.98D-01
 Coeff-Com:  0.100D+01
 Coeff-En:   0.100D+01
 Coeff:      0.100D+01
 Gap=     0.252 Goal=   None    Shift=    0.000
 GapD=    0.252 DampG=1.000 DampE=0.500 DampFc=0.5000 IDamp=-1.
 Damping current iteration by 5.00D-01
 RMSDP=1.65D-03 MaxDP=1.28D-01              OVMax= 2.17D-01

 Cycle   2  Pass 0  IDiag  1:
 RMSU=  8.23D-04    CP:  9.97D-01
 E= -2048.41364042275     Delta-E=       -0.198639372624 Rises=F Damp=T
 DIIS: error= 1.10D-02 at cycle   2 NSaved=   2.
 NSaved= 2 IEnMin= 2 EnMin= -2048.41364042275     IErMin= 2 ErrMin= 1.10D-02
 ErrMax= 1.10D-02  0.00D+00 EMaxC= 1.00D-01 BMatC= 1.47D-01 BMatP= 8.39D-01
 IDIUse=3 WtCom= 8.90D-01 WtEn= 1.10D-01
 Coeff-Com: -0.182D+00 0.118D+01
 Coeff-En:   0.000D+00 0.100D+01
 Coeff:     -0.162D+00 0.116D+01
 Gap=     0.362 Goal=   None    Shift=    0.000
 RMSDP=6.17D-04 MaxDP=3.52D-02 DE=-1.99D-01 OVMax= 1.65D-01

 Cycle   3  Pass 0  IDiag  1:
 RMSU=  6.08D-04    CP:  9.93D-01  1.11D+00
 E= -2048.59433744387     Delta-E=       -0.180697021119 Rises=F Damp=F
 DIIS: error= 8.37D-03 at cycle   3 NSaved=   3.
 NSaved= 3 IEnMin= 3 EnMin= -2048.59433744387     IErMin= 3 ErrMin= 8.37D-03
 ErrMax= 8.37D-03  0.00D+00 EMaxC= 1.00D-01 BMatC= 6.90D-02 BMatP= 1.47D-01
 IDIUse=3 WtCom= 9.16D-01 WtEn= 8.37D-02
 Coeff-Com: -0.232D+00 0.556D+00 0.676D+00
 Coeff-En:   0.000D+00 0.000D+00 0.100D+01
 Coeff:     -0.212D+00 0.509D+00 0.703D+00
 Gap=     0.273 Goal=   None    Shift=    0.000
 RMSDP=3.90D-04 MaxDP=3.36D-02 DE=-1.81D-01 OVMax= 7.66D-02

 Cycle   4  Pass 0  IDiag  1:
 RMSU=  2.16D-04    CP:  9.93D-01  1.41D+00  6.53D-01
 E= -2048.64626370558     Delta-E=       -0.051926261707 Rises=F Damp=F
 DIIS: error= 2.57D-03 at cycle   4 NSaved=   4.
 NSaved= 4 IEnMin= 4 EnMin= -2048.64626370558     IErMin= 4 ErrMin= 2.57D-03
 ErrMax= 2.57D-03  0.00D+00 EMaxC= 1.00D-01 BMatC= 1.05D-02 BMatP= 6.90D-02
 IDIUse=3 WtCom= 9.74D-01 WtEn= 2.57D-02
 Coeff-Com: -0.944D-01 0.182D+00 0.379D+00 0.533D+00
 Coeff-En:   0.000D+00 0.000D+00 0.837D-01 0.916D+00
 Coeff:     -0.920D-01 0.178D+00 0.372D+00 0.543D+00
 Gap=     0.279 Goal=   None    Shift=    0.000
 RMSDP=1.38D-04 MaxDP=1.27D-02 DE=-5.19D-02 OVMax= 1.61D-02

 Cycle   5  Pass 0  IDiag  1:
 RMSU=  6.36D-05    CP:  9.93D-01  1.38D+00  7.95D-01  6.17D-01
 E= -2048.65505936913     Delta-E=       -0.008795663554 Rises=F Damp=F
 DIIS: error= 4.83D-04 at cycle   5 NSaved=   5.
 NSaved= 5 IEnMin= 5 EnMin= -2048.65505936913     IErMin= 5 ErrMin= 4.83D-04
 ErrMax= 4.83D-04  0.00D+00 EMaxC= 1.00D-01 BMatC= 2.88D-04 BMatP= 1.05D-02
 IDIUse=3 WtCom= 9.95D-01 WtEn= 4.83D-03
 Coeff-Com: -0.236D-01 0.400D-01 0.120D+00 0.232D+00 0.632D+00
 Coeff-En:   0.000D+00 0.000D+00 0.000D+00 0.000D+00 0.100D+01
 Coeff:     -0.235D-01 0.398D-01 0.119D+00 0.231D+00 0.633D+00
 Gap=     0.280 Goal=   None    Shift=    0.000
 RMSDP=2.69D-05 MaxDP=2.04D-03 DE=-8.80D-03 OVMax= 3.50D-03

 Failed to achieve initial convergence to 1.0D-08 in  6 cycles.
 Switch to full accuracy anyway.
 Cycle   6  Pass 1  IDiag  1:
 E= -2048.65523456634     Delta-E=       -0.000175197203 Rises=F Damp=F
 DIIS: error= 1.96D-04 at cycle   1 NSaved=   1.
 NSaved= 1 IEnMin= 1 EnMin= -2048.65523456634     IErMin= 1 ErrMin= 1.96D-04
 ErrMax= 1.96D-04  0.00D+00 EMaxC= 1.00D-01 BMatC= 8.29D-05 BMatP= 8.29D-05
 IDIUse=3 WtCom= 9.98D-01 WtEn= 1.96D-03
 Coeff-Com:  0.100D+01
 Coeff-En:   0.100D+01
 Coeff:      0.100D+01
 Gap=     0.279 Goal=   None    Shift=    0.000
 RMSDP=2.69D-05 MaxDP=2.04D-03 DE=-1.75D-04 OVMax= 2.34D-03

 Cycle   7  Pass 1  IDiag  1:
 RMSU=  1.22D-04    CP:  1.00D+00
 E= -2048.65529189634     Delta-E=       -0.000057329999 Rises=F Damp=F
 DIIS: error= 2.21D-04 at cycle   2 NSaved=   2.
 NSaved= 2 IEnMin= 2 EnMin= -2048.65529189634     IErMin= 1 ErrMin= 1.96D-04
 ErrMax= 2.21D-04  0.00D+00 EMaxC= 1.00D-01 BMatC= 4.80D-05 BMatP= 8.29D-05
 IDIUse=3 WtCom= 9.98D-01 WtEn= 2.21D-03
 Coeff-Com:  0.408D+00 0.592D+00
 Coeff-En:   0.000D+00 0.100D+01
 Coeff:      0.407D+00 0.593D+00
 Gap=     0.280 Goal=   None    Shift=    0.000
 RMSDP=1.24D-05 MaxDP=1.25D-03 DE=-5.73D-05 OVMax= 1.47D-03

 Cycle   8  Pass 1  IDiag  1:
 RMSU=  1.21D-05    CP:  1.00D+00  1.02D+00
 E= -2048.65532631434     Delta-E=       -0.000034418005 Rises=F Damp=F
 DIIS: error= 1.15D-04 at cycle   3 NSaved=   3.
 NSaved= 3 IEnMin= 3 EnMin= -2048.65532631434     IErMin= 3 ErrMin= 1.15D-04
 ErrMax= 1.15D-04  0.00D+00 EMaxC= 1.00D-01 BMatC= 1.13D-05 BMatP= 4.80D-05
 IDIUse=3 WtCom= 9.99D-01 WtEn= 1.15D-03
 Coeff-Com: -0.188D-01 0.314D+00 0.705D+00
 Coeff-En:   0.000D+00 0.140D+00 0.860D+00
 Coeff:     -0.188D-01 0.314D+00 0.705D+00
 Gap=     0.280 Goal=   None    Shift=    0.000
 RMSDP=6.03D-06 MaxDP=4.99D-04 DE=-3.44D-05 OVMax= 5.85D-04

 Cycle   9  Pass 1  IDiag  1:
 RMSU=  3.99D-06    CP:  1.00D+00  1.05D+00  7.52D-01
 E= -2048.65533683955     Delta-E=       -0.000010525204 Rises=F Damp=F
 DIIS: error= 2.09D-05 at cycle   4 NSaved=   4.
 NSaved= 4 IEnMin= 4 EnMin= -2048.65533683955     IErMin= 4 ErrMin= 2.09D-05
 ErrMax= 2.09D-05  0.00D+00 EMaxC= 1.00D-01 BMatC= 5.37D-07 BMatP= 1.13D-05
 IDIUse=1 WtCom= 1.00D+00 WtEn= 0.00D+00
 Coeff-Com: -0.291D-01 0.877D-01 0.262D+00 0.680D+00
 Coeff:     -0.291D-01 0.877D-01 0.262D+00 0.680D+00
 Gap=     0.280 Goal=   None    Shift=    0.000
 RMSDP=1.49D-06 MaxDP=1.23D-04 DE=-1.05D-05 OVMax= 4.70D-04

 Cycle  10  Pass 1  IDiag  1:
 RMSU=  1.34D-06    CP:  1.00D+00  1.05D+00  7.85D-01  1.09D+00
 E= -2048.65533771701     Delta-E=       -0.000000877465 Rises=F Damp=F
 DIIS: error= 1.32D-05 at cycle   5 NSaved=   5.
 NSaved= 5 IEnMin= 5 EnMin= -2048.65533771701     IErMin= 5 ErrMin= 1.32D-05
 ErrMax= 1.32D-05  0.00D+00 EMaxC= 1.00D-01 BMatC= 1.30D-07 BMatP= 5.37D-07
 IDIUse=1 WtCom= 1.00D+00 WtEn= 0.00D+00
 Coeff-Com: -0.320D-02-0.556D-01-0.116D+00 0.213D+00 0.962D+00
 Coeff:     -0.320D-02-0.556D-01-0.116D+00 0.213D+00 0.962D+00
 Gap=     0.280 Goal=   None    Shift=    0.000
 RMSDP=1.24D-06 MaxDP=6.81D-05 DE=-8.77D-07 OVMax= 2.43D-04

 Cycle  11  Pass 1  IDiag  1:
 RMSU=  5.27D-07    CP:  1.00D+00  1.05D+00  7.92D-01  1.37D+00  1.17D+00
 E= -2048.65533799031     Delta-E=       -0.000000273299 Rises=F Damp=F
 DIIS: error= 4.83D-06 at cycle   6 NSaved=   6.
 NSaved= 6 IEnMin= 6 EnMin= -2048.65533799031     IErMin= 6 ErrMin= 4.83D-06
 ErrMax= 4.83D-06  0.00D+00 EMaxC= 1.00D-01 BMatC= 3.16D-08 BMatP= 1.30D-07
 IDIUse=1 WtCom= 1.00D+00 WtEn= 0.00D+00
 Coeff-Com:  0.445D-02-0.467D-01-0.115D+00-0.417D-03 0.521D+00 0.637D+00
 Coeff:      0.445D-02-0.467D-01-0.115D+00-0.417D-03 0.521D+00 0.637D+00
 Gap=     0.280 Goal=   None    Shift=    0.000
 RMSDP=3.96D-07 MaxDP=3.28D-05 DE=-2.73D-07 OVMax= 1.22D-04

 Cycle  12  Pass 1  IDiag  1:
 RMSU=  1.92D-07    CP:  1.00D+00  1.05D+00  7.95D-01  1.44D+00  1.30D+00
                    CP:  9.21D-01
 E= -2048.65533803538     Delta-E=       -0.000000045067 Rises=F Damp=F
 DIIS: error= 9.66D-07 at cycle   7 NSaved=   7.
 NSaved= 7 IEnMin= 7 EnMin= -2048.65533803538     IErMin= 7 ErrMin= 9.66D-07
 ErrMax= 9.66D-07  0.00D+00 EMaxC= 1.00D-01 BMatC= 7.81D-10 BMatP= 3.16D-08
 IDIUse=1 WtCom= 1.00D+00 WtEn= 0.00D+00
 Coeff-Com:  0.107D-02-0.798D-02-0.209D-01-0.775D-02 0.629D-01 0.139D+00
 Coeff-Com:  0.834D+00
 Coeff:      0.107D-02-0.798D-02-0.209D-01-0.775D-02 0.629D-01 0.139D+00
 Coeff:      0.834D+00
 Gap=     0.280 Goal=   None    Shift=    0.000
 RMSDP=8.54D-08 MaxDP=4.59D-06 DE=-4.51D-08 OVMax= 2.16D-05

 Cycle  13  Pass 1  IDiag  1:
 RMSU=  5.26D-08    CP:  1.00D+00  1.05D+00  7.94D-01  1.45D+00  1.32D+00
                    CP:  1.00D+00  1.12D+00
 E= -2048.65533803733     Delta-E=       -0.000000001953 Rises=F Damp=F
 DIIS: error= 3.84D-07 at cycle   8 NSaved=   8.
 NSaved= 8 IEnMin= 8 EnMin= -2048.65533803733     IErMin= 8 ErrMin= 3.84D-07
 ErrMax= 3.84D-07  0.00D+00 EMaxC= 1.00D-01 BMatC= 3.41D-10 BMatP= 7.81D-10
 IDIUse=1 WtCom= 1.00D+00 WtEn= 0.00D+00
 Coeff-Com: -0.667D-03 0.875D-02 0.208D-01-0.225D-02-0.110D+00-0.100D+00
 Coeff-Com:  0.428D+00 0.755D+00
 Coeff:     -0.667D-03 0.875D-02 0.208D-01-0.225D-02-0.110D+00-0.100D+00
 Coeff:      0.428D+00 0.755D+00
 Gap=     0.280 Goal=   None    Shift=    0.000
 RMSDP=4.71D-08 MaxDP=2.51D-06 DE=-1.95D-09 OVMax= 1.02D-05

 Cycle  14  Pass 1  IDiag  1:
 RMSU=  2.85D-08    CP:  1.00D+00  1.05D+00  7.94D-01  1.45D+00  1.32D+00
                    CP:  1.04D+00  1.27D+00  1.04D+00
 E= -2048.65533803818     Delta-E=       -0.000000000855 Rises=F Damp=F
 DIIS: error= 9.61D-08 at cycle   9 NSaved=   9.
 NSaved= 9 IEnMin= 9 EnMin= -2048.65533803818     IErMin= 9 ErrMin= 9.61D-08
 ErrMax= 9.61D-08  0.00D+00 EMaxC= 1.00D-01 BMatC= 2.39D-11 BMatP= 3.41D-10
 IDIUse=1 WtCom= 1.00D+00 WtEn= 0.00D+00
 Coeff-Com: -0.360D-03 0.410D-02 0.993D-02 0.191D-03-0.467D-01-0.516D-01
 Coeff-Com:  0.747D-01 0.261D+00 0.749D+00
 Coeff:     -0.360D-03 0.410D-02 0.993D-02 0.191D-03-0.467D-01-0.516D-01
 Coeff:      0.747D-01 0.261D+00 0.749D+00
 Gap=     0.280 Goal=   None    Shift=    0.000
 RMSDP=1.31D-08 MaxDP=6.88D-07 DE=-8.55D-10 OVMax= 3.04D-06

 Cycle  15  Pass 1  IDiag  1:
 RMSU=  8.70D-09    CP:  1.00D+00  1.05D+00  7.94D-01  1.45D+00  1.32D+00
                    CP:  1.05D+00  1.29D+00  1.17D+00  1.13D+00
 E= -2048.65533803776     Delta-E=        0.000000000428 Rises=F Damp=F
 DIIS: error= 4.79D-08 at cycle  10 NSaved=  10.
 NSaved=10 IEnMin= 9 EnMin= -2048.65533803818     IErMin=10 ErrMin= 4.79D-08
 ErrMax= 4.79D-08  0.00D+00 EMaxC= 1.00D-01 BMatC= 4.30D-12 BMatP= 2.39D-11
 IDIUse=1 WtCom= 1.00D+00 WtEn= 0.00D+00
 Coeff-Com:  0.182D-04-0.449D-03-0.989D-03 0.211D-03 0.680D-02 0.312D-02
 Coeff-Com: -0.580D-01-0.729D-01 0.257D+00 0.866D+00
 Coeff:      0.182D-04-0.449D-03-0.989D-03 0.211D-03 0.680D-02 0.312D-02
 Coeff:     -0.580D-01-0.729D-01 0.257D+00 0.866D+00
 Gap=     0.280 Goal=   None    Shift=    0.000
 RMSDP=6.68D-09 MaxDP=3.82D-07 DE= 4.28D-10 OVMax= 1.45D-06

 SCF Done:  E(RwB97XD) =  -2048.65533804     A.U. after   15 cycles
            NFock= 15  Conv=0.67D-08     -V/T= 2.0050
 KE= 2.038396530907D+03 PE=-1.604066966563D+04 EE= 6.323664915263D+03
 Leave Link  502 at Fri Jan 19 05:06:29 2018, MaxMem=  4294967296 cpu:           23263.5 elap:             754.5
 (Enter /share/apps/g16/l601.exe)
 Copying SCF densities to generalized density rwf, IOpCl= 0 IROHF=0.

 **********************************************************************

            Population analysis using the SCF density.

 **********************************************************************

 Orbital symmetries:
       Occupied  (A) (A) (A) (A) (A) (A) (A) (A) (A) (A) (A) (A)
                 (A) (A) (A) (A) (A) (A) (A) (A) (A) (A) (A) (A)
                 (A) (A) (A) (A) (A) (A) (A) (A) (A) (A) (A) (A)
                 (A) (A) (A) (A) (A) (A) (A) (A) (A) (A) (A) (A)
                 (A) (A) (A) (A) (A) (A) (A) (A) (A) (A) (A) (A)
                 (A) (A) (A) (A) (A) (A) (A) (A) (A) (A) (A) (A)
                 (A) (A) (A) (A) (A) (A) (A) (A) (A) (A) (A) (A)
                 (A) (A) (A) (A) (A) (A) (A) (A) (A) (A) (A) (A)
                 (A) (A) (A) (A) (A) (A) (A) (A) (A) (A) (A) (A)
                 (A) (A) (A) (A) (A) (A) (A) (A) (A) (A) (A) (A)
                 (A) (A) (A) (A) (A) (A) (A) (A) (A) (A) (A) (A)
                 (A) (A) (A) (A) (A) (A) (A) (A) (A) (A) (A) (A)
                 (A) (A) (A) (A) (A) (A) (A) (A) (A) (A)
       Virtual   (A) (A) (A) (A) (A) (A) (A) (A) (A) (A) (A) (A)
                 (A) (A) (A) (A) (A) (A) (A) (A) (A) (A) (A) (A)
                 (A) (A) (A) (A) (A) (A) (A) (A) (A) (A) (A) (A)
                 (A) (A) (A) (A) (A) (A) (A) (A) (A) (A) (A) (A)
                 (A) (A) (A) (A) (A) (A) (A) (A) (A) (A) (A) (A)
                 (A) (A) (A) (A) (A) (A) (A) (A) (A) (A) (A) (A)
                 (A) (A) (A) (A) (A) (A) (A) (A) (A) (A) (A) (A)
                 (A) (A) (A) (A) (A) (A) (A) (A) (A) (A) (A) (A)
                 (A) (A) (A) (A) (A) (A) (A) (A) (A) (A) (A) (A)
                 (A) (A) (A) (A) (A) (A) (A) (A) (A) (A) (A) (A)
                 (A) (A) (A) (A) (A) (A) (A) (A) (A) (A) (A) (A)
                 (A) (A) (A) (A) (A) (A) (A) (A) (A) (A) (A) (A)
                 (A) (A) (A) (A) (A) (A) (A) (A) (A) (A) (A) (A)
                 (A) (A) (A) (A) (A) (A) (A) (A) (A) (A) (A) (A)
                 (A) (A) (A) (A) (A) (A) (A) (A) (A) (A) (A) (A)
                 (A) (A) (A) (A) (A) (A) (A) (A) (A) (A) (A) (A)
                 (A) (A) (A) (A) (A) (A) (A) (A) (A) (A) (A) (A)
                 (A) (A) (A) (A) (A) (A) (A) (A) (A) (A) (A) (A)
                 (A) (A) (A) (A) (A) (A) (A) (A) (A) (A) (A) (A)
                 (A) (A) (A) (A) (A) (A) (A) (A) (A) (A) (A) (A)
                 (A) (A) (A) (A) (A) (A) (A) (A) (A) (A) (A) (A)
                 (A) (A) (A) (A) (A) (A) (A) (A) (A) (A) (A) (A)
                 (A) (A) (A) (A) (A) (A) (A) (A) (A) (A) (A) (A)
                 (A) (A) (A) (A) (A) (A) (A) (A) (A) (A) (A) (A)
                 (A) (A) (A) (A) (A) (A) (A) (A) (A) (A) (A) (A)
                 (A) (A) (A) (A) (A) (A) (A) (A) (A) (A) (A) (A)
                 (A) (A) (A) (A) (A) (A) (A) (A) (A) (A) (A) (A)
                 (A) (A) (A) (A) (A) (A) (A) (A) (A) (A) (A) (A)
                 (A) (A) (A) (A) (A) (A) (A) (A) (A) (A) (A) (A)
                 (A) (A) (A) (A) (A) (A) (A) (A) (A) (A) (A) (A)
                 (A) (A) (A) (A) (A) (A) (A) (A) (A) (A) (A) (A)
                 (A) (A) (A) (A) (A) (A) (A) (A) (A) (A) (A) (A)
                 (A) (A) (A) (A) (A) (A) (A) (A) (A) (A) (A) (A)
                 (A) (A) (A) (A) (A) (A) (A) (A) (A) (A) (A) (A)
                 (A) (A) (A) (A) (A) (A) (A) (A) (A) (A) (A) (A)
                 (A) (A) (A) (A) (A) (A) (A) (A) (A) (A) (A) (A)
                 (A) (A) (A) (A) (A) (A) (A) (A) (A) (A) (A) (A)
                 (A) (A) (A) (A) (A) (A) (A) (A) (A) (A) (A) (A)
                 (A) (A) (A) (A) (A) (A) (A) (A) (A) (A) (A) (A)
                 (A) (A) (A) (A) (A) (A) (A) (A) (A) (A) (A) (A)
                 (A) (A) (A) (A) (A) (A) (A) (A) (A) (A) (A) (A)
                 (A) (A) (A) (A) (A) (A) (A) (A) (A) (A) (A) (A)
                 (A) (A) (A) (A) (A) (A) (A) (A) (A) (A) (A) (A)
                 (A) (A) (A) (A) (A) (A) (A) (A) (A) (A) (A) (A)
                 (A) (A) (A) (A) (A) (A) (A) (A) (A) (A) (A) (A)
                 (A) (A) (A) (A) (A) (A) (A) (A) (A) (A) (A) (A)
                 (A) (A) (A) (A) (A) (A) (A) (A) (A) (A) (A) (A)
                 (A) (A) (A) (A) (A) (A) (A) (A) (A) (A) (A) (A)
                 (A) (A) (A) (A) (A) (A) (A)
 The electronic state is 1-A.
 Alpha  occ. eigenvalues --  -19.26077 -19.21979 -19.20426 -14.52829 -14.51411
 Alpha  occ. eigenvalues --  -14.50323 -14.48000 -14.47817 -14.47061 -14.45976
 Alpha  occ. eigenvalues --  -14.45821 -14.44367 -14.43420 -14.43333 -14.42909
 Alpha  occ. eigenvalues --  -14.42644 -14.42321 -14.41761 -14.41528 -14.40393
 Alpha  occ. eigenvalues --  -10.45722 -10.40525 -10.40084 -10.38858 -10.37824
 Alpha  occ. eigenvalues --  -10.37808 -10.37109 -10.36766 -10.36237 -10.36126
 Alpha  occ. eigenvalues --  -10.35558 -10.35073 -10.34961 -10.34457 -10.33814
 Alpha  occ. eigenvalues --  -10.33290 -10.32860 -10.32320 -10.31406 -10.31150
 Alpha  occ. eigenvalues --  -10.30108 -10.27721 -10.27493  -1.19891  -1.14251
 Alpha  occ. eigenvalues --   -1.13105  -1.13026  -1.12939  -1.10188  -1.09686
 Alpha  occ. eigenvalues --   -1.08468  -1.08030  -1.06640  -1.03850  -1.02693
 Alpha  occ. eigenvalues --   -1.02244  -1.00041  -0.99208  -0.98454  -0.98245
 Alpha  occ. eigenvalues --   -0.96035  -0.95667  -0.94339  -0.91291  -0.87021
 Alpha  occ. eigenvalues --   -0.85720  -0.85628  -0.84185  -0.83810  -0.83457
 Alpha  occ. eigenvalues --   -0.81155  -0.79106  -0.76244  -0.74544  -0.74235
 Alpha  occ. eigenvalues --   -0.73972  -0.73614  -0.73236  -0.72689  -0.69676
 Alpha  occ. eigenvalues --   -0.67884  -0.67044  -0.66684  -0.66101  -0.65013
 Alpha  occ. eigenvalues --   -0.64388  -0.63497  -0.63274  -0.62672  -0.61748
 Alpha  occ. eigenvalues --   -0.61600  -0.61206  -0.60219  -0.59725  -0.59038
 Alpha  occ. eigenvalues --   -0.58561  -0.58060  -0.57924  -0.57846  -0.56946
 Alpha  occ. eigenvalues --   -0.56776  -0.56119  -0.55808  -0.55085  -0.54494
 Alpha  occ. eigenvalues --   -0.54347  -0.53520  -0.53421  -0.53005  -0.52361
 Alpha  occ. eigenvalues --   -0.52219  -0.51781  -0.51716  -0.51315  -0.50772
 Alpha  occ. eigenvalues --   -0.50449  -0.49827  -0.49612  -0.48759  -0.48633
 Alpha  occ. eigenvalues --   -0.48595  -0.48162  -0.47932  -0.47848  -0.47200
 Alpha  occ. eigenvalues --   -0.47083  -0.45720  -0.45589  -0.44351  -0.42911
 Alpha  occ. eigenvalues --   -0.40977  -0.40402  -0.39736  -0.38606  -0.37285
 Alpha  occ. eigenvalues --   -0.37124  -0.36939  -0.36378  -0.35355  -0.35192
 Alpha  occ. eigenvalues --   -0.34789  -0.34193  -0.33617  -0.33277  -0.33119
 Alpha  occ. eigenvalues --   -0.32564  -0.32377  -0.31949  -0.31809  -0.31564
 Alpha  occ. eigenvalues --   -0.31080  -0.27947  -0.26565  -0.24994
 Alpha virt. eigenvalues --    0.02980   0.04771   0.05999   0.08035   0.08175
 Alpha virt. eigenvalues --    0.08993   0.09563   0.10411   0.11270   0.11896
 Alpha virt. eigenvalues --    0.12334   0.13139   0.14426   0.14620   0.15061
 Alpha virt. eigenvalues --    0.15335   0.16204   0.17209   0.18149   0.18220
 Alpha virt. eigenvalues --    0.18516   0.19117   0.19450   0.19559   0.19947
 Alpha virt. eigenvalues --    0.20959   0.21321   0.21525   0.21848   0.21990
 Alpha virt. eigenvalues --    0.22745   0.23257   0.23324   0.23435   0.24342
 Alpha virt. eigenvalues --    0.24971   0.25689   0.25955   0.26077   0.26540
 Alpha virt. eigenvalues --    0.27423   0.27651   0.27903   0.28444   0.28784
 Alpha virt. eigenvalues --    0.29277   0.29637   0.30786   0.31003   0.31542
 Alpha virt. eigenvalues --    0.32414   0.32678   0.32877   0.33268   0.34067
 Alpha virt. eigenvalues --    0.34617   0.35669   0.35970   0.36175   0.36429
 Alpha virt. eigenvalues --    0.37338   0.38244   0.38276   0.39135   0.39487
 Alpha virt. eigenvalues --    0.40364   0.40945   0.41084   0.41536   0.41782
 Alpha virt. eigenvalues --    0.42228   0.43061   0.43549   0.43902   0.44946
 Alpha virt. eigenvalues --    0.45673   0.45762   0.46268   0.46615   0.47709
 Alpha virt. eigenvalues --    0.47982   0.48344   0.49007   0.49521   0.49771
 Alpha virt. eigenvalues --    0.50153   0.50755   0.51145   0.51326   0.51819
 Alpha virt. eigenvalues --    0.52410   0.52583   0.53136   0.53787   0.54084
 Alpha virt. eigenvalues --    0.54413   0.54736   0.55343   0.55580   0.56190
 Alpha virt. eigenvalues --    0.56548   0.56819   0.57323   0.57712   0.57817
 Alpha virt. eigenvalues --    0.58702   0.58852   0.59330   0.59980   0.60289
 Alpha virt. eigenvalues --    0.60488   0.60902   0.61456   0.61814   0.62046
 Alpha virt. eigenvalues --    0.62848   0.63016   0.63462   0.63952   0.64038
 Alpha virt. eigenvalues --    0.64466   0.64933   0.64985   0.65269   0.65497
 Alpha virt. eigenvalues --    0.66437   0.66789   0.66909   0.67606   0.68330
 Alpha virt. eigenvalues --    0.68576   0.68769   0.69446   0.69923   0.70339
 Alpha virt. eigenvalues --    0.70797   0.71165   0.71674   0.72218   0.72620
 Alpha virt. eigenvalues --    0.73156   0.73471   0.73700   0.74438   0.74801
 Alpha virt. eigenvalues --    0.74968   0.75395   0.75640   0.75911   0.76206
 Alpha virt. eigenvalues --    0.76758   0.76804   0.77337   0.77661   0.78353
 Alpha virt. eigenvalues --    0.78527   0.78750   0.78831   0.79205   0.79617
 Alpha virt. eigenvalues --    0.79715   0.80674   0.81364   0.81497   0.81826
 Alpha virt. eigenvalues --    0.81981   0.82465   0.82743   0.82991   0.83103
 Alpha virt. eigenvalues --    0.83952   0.84348   0.84797   0.85374   0.86008
 Alpha virt. eigenvalues --    0.86429   0.86926   0.87231   0.87761   0.88080
 Alpha virt. eigenvalues --    0.88821   0.89089   0.89362   0.89753   0.90470
 Alpha virt. eigenvalues --    0.91106   0.91486   0.91725   0.92141   0.93156
 Alpha virt. eigenvalues --    0.93527   0.93852   0.94392   0.94832   0.95373
 Alpha virt. eigenvalues --    0.95759   0.96101   0.96611   0.97366   0.97514
 Alpha virt. eigenvalues --    0.98153   0.98806   0.99113   0.99550   0.99936
 Alpha virt. eigenvalues --    1.00665   1.00983   1.01291   1.01405   1.02639
 Alpha virt. eigenvalues --    1.03052   1.03779   1.04137   1.04454   1.04738
 Alpha virt. eigenvalues --    1.05439   1.05946   1.06282   1.06599   1.07470
 Alpha virt. eigenvalues --    1.07900   1.08184   1.09164   1.09670   1.09793
 Alpha virt. eigenvalues --    1.10206   1.10631   1.11444   1.12275   1.12471
 Alpha virt. eigenvalues --    1.13101   1.13629   1.14060   1.14257   1.14665
 Alpha virt. eigenvalues --    1.15036   1.15379   1.16391   1.16782   1.16939
 Alpha virt. eigenvalues --    1.18073   1.18418   1.18830   1.19323   1.19538
 Alpha virt. eigenvalues --    1.19900   1.20116   1.20452   1.21329   1.21606
 Alpha virt. eigenvalues --    1.21947   1.22155   1.22597   1.22885   1.23393
 Alpha virt. eigenvalues --    1.23704   1.23949   1.24293   1.25257   1.25542
 Alpha virt. eigenvalues --    1.26174   1.26381   1.26741   1.27280   1.27894
 Alpha virt. eigenvalues --    1.28279   1.29031   1.30010   1.30773   1.30812
 Alpha virt. eigenvalues --    1.31377   1.32190   1.32477   1.33526   1.33693
 Alpha virt. eigenvalues --    1.34830   1.35232   1.36079   1.36392   1.36951
 Alpha virt. eigenvalues --    1.37132   1.37993   1.38285   1.40294   1.40607
 Alpha virt. eigenvalues --    1.41170   1.41523   1.41934   1.42521   1.42863
 Alpha virt. eigenvalues --    1.44265   1.44548   1.45597   1.46583   1.46972
 Alpha virt. eigenvalues --    1.47315   1.48284   1.48766   1.49681   1.49821
 Alpha virt. eigenvalues --    1.50917   1.51755   1.52099   1.52453   1.53226
 Alpha virt. eigenvalues --    1.53918   1.54464   1.55057   1.55937   1.56869
 Alpha virt. eigenvalues --    1.57672   1.58330   1.59241   1.59618   1.60260
 Alpha virt. eigenvalues --    1.61008   1.61139   1.61936   1.62090   1.63019
 Alpha virt. eigenvalues --    1.63753   1.64612   1.64745   1.65221   1.65798
 Alpha virt. eigenvalues --    1.66206   1.66962   1.67274   1.67967   1.68374
 Alpha virt. eigenvalues --    1.69027   1.69118   1.69511   1.70106   1.70623
 Alpha virt. eigenvalues --    1.70913   1.71465   1.71755   1.72066   1.72836
 Alpha virt. eigenvalues --    1.73523   1.73702   1.74351   1.74571   1.75470
 Alpha virt. eigenvalues --    1.75561   1.75748   1.75868   1.76178   1.76692
 Alpha virt. eigenvalues --    1.77135   1.77285   1.77903   1.77988   1.78529
 Alpha virt. eigenvalues --    1.78908   1.79054   1.79387   1.79693   1.79780
 Alpha virt. eigenvalues --    1.80369   1.80586   1.81460   1.81625   1.82562
 Alpha virt. eigenvalues --    1.83330   1.83799   1.84138   1.84848   1.85053
 Alpha virt. eigenvalues --    1.85631   1.86025   1.86890   1.87035   1.87139
 Alpha virt. eigenvalues --    1.87768   1.88282   1.88737   1.88887   1.89358
 Alpha virt. eigenvalues --    1.89692   1.90629   1.91054   1.91282   1.91883
 Alpha virt. eigenvalues --    1.92043   1.92258   1.92530   1.93679   1.93885
 Alpha virt. eigenvalues --    1.94530   1.94666   1.95118   1.95468   1.96262
 Alpha virt. eigenvalues --    1.97010   1.98000   1.98961   1.99282   1.99541
 Alpha virt. eigenvalues --    2.00101   2.00673   2.01648   2.02367   2.03790
 Alpha virt. eigenvalues --    2.03927   2.04233   2.04928   2.05813   2.06591
 Alpha virt. eigenvalues --    2.07008   2.07331   2.08017   2.08625   2.08652
 Alpha virt. eigenvalues --    2.09476   2.09983   2.11255   2.12037   2.12476
 Alpha virt. eigenvalues --    2.13326   2.13476   2.14314   2.14814   2.15415
 Alpha virt. eigenvalues --    2.16019   2.17234   2.17545   2.18738   2.19781
 Alpha virt. eigenvalues --    2.19972   2.20191   2.20998   2.22034   2.22278
 Alpha virt. eigenvalues --    2.22957   2.24036   2.24420   2.24634   2.25127
 Alpha virt. eigenvalues --    2.26255   2.26580   2.27398   2.27970   2.28515
 Alpha virt. eigenvalues --    2.29202   2.29751   2.30188   2.31459   2.32004
 Alpha virt. eigenvalues --    2.32381   2.32879   2.33433   2.33876   2.34350
 Alpha virt. eigenvalues --    2.34975   2.35522   2.35915   2.36407   2.37057
 Alpha virt. eigenvalues --    2.37329   2.38200   2.38867   2.39763   2.40136
 Alpha virt. eigenvalues --    2.40577   2.40842   2.41290   2.41760   2.42424
 Alpha virt. eigenvalues --    2.43089   2.43851   2.44482   2.45137   2.45521
 Alpha virt. eigenvalues --    2.46903   2.47130   2.47310   2.47944   2.48744
 Alpha virt. eigenvalues --    2.49738   2.51084   2.51954   2.52095   2.53533
 Alpha virt. eigenvalues --    2.54753   2.55453   2.55760   2.56124   2.57204
 Alpha virt. eigenvalues --    2.58191   2.58536   2.59499   2.60542   2.60880
 Alpha virt. eigenvalues --    2.61299   2.61974   2.62750   2.64138   2.65049
 Alpha virt. eigenvalues --    2.65367   2.65889   2.66589   2.67476   2.67964
 Alpha virt. eigenvalues --    2.68583   2.68962   2.69190   2.69744   2.70686
 Alpha virt. eigenvalues --    2.71337   2.72347   2.72776   2.73949   2.74597
 Alpha virt. eigenvalues --    2.75033   2.75346   2.76132   2.77013   2.77922
 Alpha virt. eigenvalues --    2.78839   2.79174   2.79654   2.80311   2.81705
 Alpha virt. eigenvalues --    2.81799   2.82347   2.82687   2.83240   2.83709
 Alpha virt. eigenvalues --    2.84228   2.85116   2.85914   2.86415   2.86747
 Alpha virt. eigenvalues --    2.87513   2.87972   2.88150   2.89690   2.90309
 Alpha virt. eigenvalues --    2.92391   2.94063   2.95212   2.95921   2.97661
 Alpha virt. eigenvalues --    2.98027   2.98928   2.99795   3.00419   3.01909
 Alpha virt. eigenvalues --    3.03268   3.05343   3.05964   3.07923   3.08214
 Alpha virt. eigenvalues --    3.10012   3.11960   3.13063   3.14549   3.15220
 Alpha virt. eigenvalues --    3.16163   3.17134   3.17293   3.20746   3.21886
 Alpha virt. eigenvalues --    3.22530   3.23006   3.24351   3.24960   3.28340
 Alpha virt. eigenvalues --    3.45795   3.47416   3.49197   3.49918   3.50647
 Alpha virt. eigenvalues --    3.53016   3.54456   3.56860   3.58846   3.60661
 Alpha virt. eigenvalues --    3.63860   3.71346   3.75225
          Condensed to atoms (all electrons):
 Mulliken charges:
               1
     1  N   -0.314852
     2  C    0.179356
     3  C    0.055888
     4  N   -0.254583
     5  C    0.132752
     6  H    0.031280
     7  N   -0.252523
     8  C    0.109105
     9  H    0.025517
    10  N   -0.293626
    11  C    0.243349
    12  C    0.088706
    13  N   -0.042430
    14  H    0.107449
    15  H    0.087797
    16  H    0.030271
    17  H    0.036938
    18  H    0.027707
    19  N   -0.289998
    20  C    0.231011
    21  C    0.196878
    22  N   -0.074381
    23  H    0.108488
    24  H    0.109367
    25  N   -0.280341
    26  C    0.184163
    27  N   -0.122111
    28  H    0.132007
    29  C    0.135037
    30  O   -0.324105
    31  C    0.024998
    32  N   -0.223686
    33  C    0.113225
    34  H    0.021856
    35  H    0.022175
    36  H    0.014585
    37  H    0.002008
    38  H    0.041092
    39  H    0.064542
    40  H    0.088902
    41  H    0.032079
    42  C   -0.095683
    43  O   -0.263673
    44  C    0.184783
    45  H    0.132177
    46  N   -0.122646
    47  O   -0.344804
    48  C    0.340943
    49  H    0.044956
    50  C    0.166114
    51  C    0.040865
    52  N   -0.278932
    53  H    0.031059
    54  H    0.018251
    55  H   -0.019815
    56  H    0.117852
    57  H    0.120942
    58  N   -0.067858
    59  C    0.132736
    60  C    0.214429
    61  N   -0.304606
    62  H    0.032363
    63  C    0.193737
    64  N   -0.310362
    65  H    0.029405
    66  C    0.108667
    67  N   -0.249058
    68  C    0.023861
    69  C    0.204136
    70  N   -0.285734
 Sum of Mulliken charges =  -0.00000
 Mulliken charges with hydrogens summed into heavy atoms:
               1
     1  N   -0.314852
     2  C    0.274273
     3  C    0.055888
     4  N   -0.254583
     5  C    0.164032
     7  N   -0.252523
     8  C    0.134622
    10  N   -0.293626
    11  C    0.243349
    12  C    0.088706
    13  N    0.152816
    19  N   -0.289998
    20  C    0.231011
    21  C    0.235646
    22  N    0.143474
    25  N   -0.280341
    26  C    0.184163
    27  N    0.009896
    29  C    0.135037
    30  O   -0.324105
    31  C    0.024998
    32  N   -0.223686
    33  C    0.135081
    42  C   -0.063604
    43  O   -0.263673
    44  C    0.184783
    46  N    0.009531
    47  O   -0.344804
    48  C    0.340943
    50  C    0.211070
    51  C    0.235402
    52  N   -0.278932
    58  N    0.170937
    59  C    0.132736
    60  C    0.214429
    61  N   -0.304606
    63  C    0.226100
    64  N   -0.310362
    66  C    0.138073
    67  N   -0.249058
    68  C    0.023861
    69  C    0.233632
    70  N   -0.285734
 Electronic spatial extent (au):  <R**2>=          22846.5080
 Charge=             -0.0000 electrons
 Dipole moment (field-independent basis, Debye):
    X=              4.3281    Y=             -5.4155    Z=             -5.1709  Tot=              8.6486
 Quadrupole moment (field-independent basis, Debye-Ang):
   XX=           -139.0327   YY=           -229.0039   ZZ=           -261.4420
   XY=            -18.6317   XZ=            -14.5526   YZ=             -7.5744
 Traceless Quadrupole moment (field-independent basis, Debye-Ang):
   XX=             70.7935   YY=            -19.1777   ZZ=            -51.6158
   XY=            -18.6317   XZ=            -14.5526   YZ=             -7.5744
 Octapole moment (field-independent basis, Debye-Ang**2):
  XXX=            -47.3653  YYY=            -18.1908  ZZZ=            -27.8723  XYY=             41.6951
  XXY=            -85.1485  XXZ=             23.2973  XZZ=             11.3778  YZZ=            -44.9374
  YYZ=            -66.8887  XYZ=             14.5216
 Hexadecapole moment (field-independent basis, Debye-Ang**3):
 XXXX=         -16262.0689 YYYY=          -3528.1466 ZZZZ=          -3028.5232 XXXY=           -567.3698
 XXXZ=           -192.2784 YYYX=            -63.9528 YYYZ=            -47.6407 ZZZX=            -65.8461
 ZZZY=            -18.0939 XXYY=          -4474.8676 XXZZ=          -4371.7984 YYZZ=          -1192.9838
 XXYZ=             62.3223 YYXZ=           -133.5438 ZZXY=           -109.5296
 N-N= 5.629952881420D+03 E-N=-1.604066966668D+04  KE= 2.038396530907D+03
 No NMR shielding tensors so no spin-rotation constants.
 Leave Link  601 at Fri Jan 19 05:06:32 2018, MaxMem=  4294967296 cpu:              51.0 elap:               1.8
 (Enter /share/apps/g16/l9999.exe)
 1\1\GINC-COMPUTE-0-3\SP\RwB97XD\CC-pVDZ\C23H27N17O3\SATYA\19-Jan-2018\
 0\\#p wb97xd/cc-pvdz sp scf=(maxcycles=20)\\Base pair stacking\\0,1\N,
 0,0.54269,9.67109,-6.37896\C,0,0.36668,11.1004,-6.05632\C,0,0.26433,7.
 49411,-6.52255\N,0,1.42786,7.78346,-7.22054\C,0,1.549,9.08342,-7.1061\
 H,0,2.36077,9.67072,-7.53627\N,0,-1.54652,6.34679,-5.53896\C,0,-1.9631
 1,7.53833,-5.09822\H,0,-2.88286,7.52283,-4.51505\N,0,-1.4167,8.74051,-
 5.26888\C,0,-0.29246,8.6476,-5.99818\C,0,-0.412,6.28676,-6.26996\N,0,0
 .00547,5.09826,-6.71081\H,0,0.83987,5.00666,-7.25543\H,0,-0.50131,4.25
 936,-6.51185\H,0,0.28694,11.6272,-6.90266\H,0,-0.46239,11.22012,-5.510
 95\H,0,1.15591,11.42642,-5.53592\N,0,-0.35791,6.88828,-3.00939\C,0,-0.
 96252,5.66465,-2.85055\C,0,-1.01458,8.19661,-2.8151\N,0,-3.77357,3.775
 99,-2.08067\H,0,-4.01846,2.80872,-2.02024\H,0,-4.49284,4.43988,-1.8742
 2\N,0,-2.24775,5.45364,-2.49317\C,0,-2.53651,4.16627,-2.42311\N,0,-1.6
 3691,3.16088,-2.68278\H,0,-1.94577,2.20411,-2.60438\C,0,-0.30955,3.354
 79,-3.05207\O,0,0.41969,2.37801,-3.2639\C,0,0.01549,4.7328,-3.13152\N,
 0,1.21007,5.35881,-3.46014\C,0,0.94147,6.63346,-3.37456\H,0,1.65718,7.
 43323,-3.56794\H,0,-0.98174,8.71772,-3.66725\H,0,-1.96716,8.05295,-2.5
 5011\H,0,-0.54256,8.70475,-2.09551\H,0,-4.27063,-2.31739,-2.66568\H,0,
 -3.56628,-2.46858,-1.05767\H,0,-4.03535,-0.88164,-1.66837\H,0,0.27015,
 -3.43698,-3.79455\C,0,-0.30847,-2.57582,-3.46014\O,0,1.36156,-0.99521,
 -4.04305\C,0,0.25251,-1.26505,-3.58262\H,0,-0.20006,0.69385,-3.20021\N
 ,0,-0.56207,-0.24676,-3.13008\O,0,-2.46422,0.59397,-2.21784\C,0,-1.818
 36,-0.36937,-2.59132\H,0,-2.00299,-3.70254,-2.82382\C,0,-1.53146,-2.72
 745,-2.93869\C,0,-3.6285,-1.84514,-1.93717\N,0,-2.29018,-1.66451,-2.50
 641\H,0,-6.07955,0.0951,-3.79247\H,0,-5.18458,1.21171,-3.00869\H,0,-5.
 03246,-0.36858,-2.6297\H,0,0.10217,1.5413,-7.63439\H,0,-0.62205,-0.002
 79,-7.59721\N,0,-0.5938,0.93502,-7.24944\C,0,-1.44679,1.35732,-6.3139\
 C,0,-3.25232,1.12554,-4.78156\N,0,-3.19111,2.39035,-4.33333\H,0,-2.095
 29,4.09479,-4.64105\C,0,-2.21482,3.05627,-4.94677\N,0,-1.35942,2.63508
 ,-5.88404\H,0,-4.33957,-1.91045,-5.01142\C,0,-3.79879,-0.97032,-5.1238
 8\N,0,-2.79812,-0.78027,-5.94863\C,0,-2.44223,0.54458,-5.74165\C,0,-5.
 19086,0.28106,-3.37337\N,0,-4.12684,0.14112,-4.38643\\Version=EM64L-G1
 6RevA.03\State=1-A\HF=-2048.655338\RMSD=6.681e-09\Dipole=-3.2517279,-0
 .8967811,0.4470233\Quadrupole=-20.8761891,37.5274317,-16.6512426,32.03
 8178,-18.3042297,-11.8985415\PG=C01 [X(C23H27N17O3)]\\@


 THERE ONCE WAS A GIRL NAMED IRENE,
 WHO LIVED ON DISTILLED KEROSENE,
      BUT SHE STARTED ABSORBIN'
      A NEW HYDROCARBON,
 AND SINCE THEN HAS NEVER BENZENE.
 Job cpu time:       0 days  6 hours 38 minutes 16.6 seconds.
 Elapsed time:       0 days  0 hours 12 minutes 54.7 seconds.
 File lengths (MBytes):  RWF=    298 Int=      0 D2E=      0 Chk=     33 Scr=      1
 Normal termination of Gaussian 16 at Fri Jan 19 05:06:32 2018.
