 Entering Gaussian System, Link 0=g16
 Input=str15.-10.2.5.com
 Output=str15.-10.2.5.log
 Initial command:
 /share/apps/g16/l1.exe "/state/partition1/scr/Gau-1944.inp" -scrdir="/state/partition1/scr/"
 Entering Link 1 = /share/apps/g16/l1.exe PID=      1945.
  
 Copyright (c) 1988,1990,1992,1993,1995,1998,2003,2009,2016,
            Gaussian, Inc.  All Rights Reserved.
  
 This is part of the Gaussian(R) 16 program.  It is based on
 the Gaussian(R) 09 system (copyright 2009, Gaussian, Inc.),
 the Gaussian(R) 03 system (copyright 2003, Gaussian, Inc.),
 the Gaussian(R) 98 system (copyright 1998, Gaussian, Inc.),
 the Gaussian(R) 94 system (copyright 1995, Gaussian, Inc.),
 the Gaussian 92(TM) system (copyright 1992, Gaussian, Inc.),
 the Gaussian 90(TM) system (copyright 1990, Gaussian, Inc.),
 the Gaussian 88(TM) system (copyright 1988, Gaussian, Inc.),
 the Gaussian 86(TM) system (copyright 1986, Carnegie Mellon
 University), and the Gaussian 82(TM) system (copyright 1983,
 Carnegie Mellon University). Gaussian is a federally registered
 trademark of Gaussian, Inc.
  
 This software contains proprietary and confidential information,
 including trade secrets, belonging to Gaussian, Inc.
  
 This software is provided under written license and may be
 used, copied, transmitted, or stored only in accord with that
 written license.
  
 The following legend is applicable only to US Government
 contracts under FAR:
  
                    RESTRICTED RIGHTS LEGEND
  
 Use, reproduction and disclosure by the US Government is
 subject to restrictions as set forth in subparagraphs (a)
 and (c) of the Commercial Computer Software - Restricted
 Rights clause in FAR 52.227-19.
  
 Gaussian, Inc.
 340 Quinnipiac St., Bldg. 40, Wallingford CT 06492
  
  
 ---------------------------------------------------------------
 Warning -- This program may not be used in any manner that
 competes with the business of Gaussian, Inc. or will provide
 assistance to any competitor of Gaussian, Inc.  The licensee
 of this program is prohibited from giving any competitor of
 Gaussian, Inc. access to this program.  By using this program,
 the user acknowledges that Gaussian, Inc. is engaged in the
 business of creating and licensing software in the field of
 computational chemistry and represents and warrants to the
 licensee that it is not a competitor of Gaussian, Inc. and that
 it will not use this program in any manner prohibited above.
 ---------------------------------------------------------------
  

 Cite this work as:
 Gaussian 16, Revision A.03,
 M. J. Frisch, G. W. Trucks, H. B. Schlegel, G. E. Scuseria, 
 M. A. Robb, J. R. Cheeseman, G. Scalmani, V. Barone, 
 G. A. Petersson, H. Nakatsuji, X. Li, M. Caricato, A. V. Marenich, 
 J. Bloino, B. G. Janesko, R. Gomperts, B. Mennucci, H. P. Hratchian, 
 J. V. Ortiz, A. F. Izmaylov, J. L. Sonnenberg, D. Williams-Young, 
 F. Ding, F. Lipparini, F. Egidi, J. Goings, B. Peng, A. Petrone, 
 T. Henderson, D. Ranasinghe, V. G. Zakrzewski, J. Gao, N. Rega, 
 G. Zheng, W. Liang, M. Hada, M. Ehara, K. Toyota, R. Fukuda, 
 J. Hasegawa, M. Ishida, T. Nakajima, Y. Honda, O. Kitao, H. Nakai, 
 T. Vreven, K. Throssell, J. A. Montgomery, Jr., J. E. Peralta, 
 F. Ogliaro, M. J. Bearpark, J. J. Heyd, E. N. Brothers, K. N. Kudin, 
 V. N. Staroverov, T. A. Keith, R. Kobayashi, J. Normand, 
 K. Raghavachari, A. P. Rendell, J. C. Burant, S. S. Iyengar, 
 J. Tomasi, M. Cossi, J. M. Millam, M. Klene, C. Adamo, R. Cammi, 
 J. W. Ochterski, R. L. Martin, K. Morokuma, O. Farkas, 
 J. B. Foresman, and D. J. Fox, Gaussian, Inc., Wallingford CT, 2016.
 
 ******************************************
 Gaussian 16:  EM64L-G16RevA.03 25-Dec-2016
                18-Jan-2018 
 ******************************************
 %nprocshared=32
 Will use up to   32 processors via shared memory.
 %mem=32GB
 %chk=allatoms_t.chk
 ---------------------------------------
 #p wb97xd/cc-pvdz sp scf=(maxcycles=20)
 ---------------------------------------
 1/38=1,172=1/1;
 2/12=2,17=6,18=5,40=1/2;
 3/5=16,11=2,25=1,30=1,74=-58/1,2,3;
 4//1;
 5/5=2,7=20,38=5/2;
 6/7=2,8=2,9=2,10=2,28=1/1;
 99/5=1,9=1/99;
 Leave Link    1 at Thu Jan 18 21:03:18 2018, MaxMem=  4294967296 cpu:               2.7 elap:               0.1
 (Enter /share/apps/g16/l101.exe)
 ------------------
 Base pair stacking
 ------------------
 Symbolic Z-matrix:
 Charge =  0 Multiplicity = 1
 N                    -0.69451   0.99445  -6.23698 
 C                    -0.97064   2.43911  -6.11564 
 C                    -0.90383  -1.19469  -6.2712 
 N                     0.42259  -0.92683  -6.57712 
 C                     0.49561   0.38133  -6.54426 
 H                     1.40127   0.95679  -6.73805 
 N                    -2.93245  -2.31429  -5.8306 
 C                    -3.47373  -1.10442  -5.65507 
 H                    -4.53316  -1.10119  -5.40238 
 N                    -2.90548   0.09642  -5.7444 
 C                    -1.60477  -0.02031  -6.05897 
 C                    -1.62158  -2.39808  -6.14633 
 N                    -1.07945  -3.60491  -6.32194 
 H                    -0.11292  -3.71437  -6.55657 
 H                    -1.62063  -4.44029  -6.22502 
 H                    -0.77226   2.89195  -6.98498 
 H                    -1.93248   2.57682  -5.88105 
 H                    -0.39487   2.83155  -5.39837 
 N                    -0.69279   2.46761  -3.09692 
 C                    -1.31407   1.2447   -3.01596 
 C                    -1.37464   3.77653  -3.04696 
 N                    -4.21283  -0.64089  -2.69425 
 H                    -4.46321  -1.60784  -2.65467 
 H                    -4.95762   0.0237   -2.62846 
 N                    -2.64115   1.03505  -2.87827 
 C                    -2.93599  -0.25193  -2.82948 
 N                    -2.004    -1.25818  -2.90925 
 H                    -2.32048  -2.21456  -2.86311 
 C                    -0.63335  -1.06567  -3.05111 
 O                     0.12257  -2.04314  -3.11344 
 C                    -0.30128   0.3119   -3.105 
 N                     0.93104   0.93662  -3.23917 
 C                     0.65015   2.21146  -3.22938 
 H                     1.38734   3.01042  -3.31589 
 H                    -1.19761   4.27894  -3.89257 
 H                    -2.35828   3.63388  -2.9451 
 H                    -1.03293   4.30276  -2.26907 
 H                    -4.59506  -6.74812  -3.21798 
 H                    -4.1751   -6.86032  -1.51044 
 H                    -4.53516  -5.2896   -2.22777 
 H                     0.07316  -7.86908  -3.53066 
 C                    -0.55512  -7.00374  -3.31927 
 O                     1.18784  -5.42782  -3.64439 
 C                     0.01686  -5.69313  -3.37383 
 H                    -0.4968   -3.72863  -3.11841 
 N                    -0.86428  -4.66931  -3.08985 
 O                    -2.89522  -3.81843  -2.53444 
 C                    -2.19389  -4.78645  -2.77053 
 H                    -2.33191  -8.12482  -2.95595 
 C                    -1.84894  -7.1501   -3.01069 
 C                    -4.08719  -6.2567   -2.4015 
 N                    -2.67163  -6.0818   -2.73815 
 H                    -7.76659  -8.5422   -5.10496 
 H                    -7.17916  -7.33729  -4.17478 
 H                    -7.15352  -8.87557  -3.62968 
 H                    -0.6757   -7.22075  -6.84813 
 H                    -1.36751  -8.77877  -6.91212 
 N                    -1.45708  -7.81518  -6.65776 
 C                    -2.56953  -7.34483  -6.08996 
 C                    -4.77477  -7.50728  -5.21117 
 N                    -4.86695  -6.20866  -4.88021 
 H                    -3.73624  -4.50134  -4.96477 
 C                    -3.74633  -5.56469  -5.20024 
 N                    -2.63105  -6.034    -5.76898 
 H                    -5.71802  -10.58481  -5.51326 
 C                    -5.17317  -9.6404   -5.52657 
 N                    -3.95915  -9.48701  -5.99594 
 C                    -3.69437  -8.13904  -5.80204 
 C                    -7.06334  -8.29443  -4.43858 
 N                    -5.72705  -8.4832   -5.03583 
 
 ITRead=  0  0  0  0  0  0  0  0  0  0  0  0  0  0  0  0  0  0  0  0
 ITRead=  0  0  0  0  0  0  0  0  0  0  0  0  0  0  0  0  0  0  0  0
 ITRead=  0  0  0  0  0  0  0  0  0  0  0  0  0  0  0  0  0  0  0  0
 ITRead=  0  0  0  0  0  0  0  0  0  0
 MicOpt= -1 -1 -1 -1 -1 -1 -1 -1 -1 -1 -1 -1 -1 -1 -1 -1 -1 -1 -1 -1
 MicOpt= -1 -1 -1 -1 -1 -1 -1 -1 -1 -1 -1 -1 -1 -1 -1 -1 -1 -1 -1 -1
 MicOpt= -1 -1 -1 -1 -1 -1 -1 -1 -1 -1 -1 -1 -1 -1 -1 -1 -1 -1 -1 -1
 MicOpt= -1 -1 -1 -1 -1 -1 -1 -1 -1 -1
 NAtoms=     70 NQM=       70 NQMF=       0 NMMI=      0 NMMIF=      0
                NMic=       0 NMicF=      0.
                    Isotopes and Nuclear Properties:
 (Nuclear quadrupole moments (NQMom) in fm**2, nuclear magnetic moments (NMagM)
  in nuclear magnetons)

  Atom         1           2           3           4           5           6           7           8           9          10
 IAtWgt=          14          12          12          14          12           1          14          12           1          14
 AtmWgt=  14.0030740  12.0000000  12.0000000  14.0030740  12.0000000   1.0078250  14.0030740  12.0000000   1.0078250  14.0030740
 NucSpn=           2           0           0           2           0           1           2           0           1           2
 AtZEff=  -0.0000000  -0.0000000  -0.0000000  -0.0000000  -0.0000000  -0.0000000  -0.0000000  -0.0000000  -0.0000000  -0.0000000
 NQMom=    2.0440000   0.0000000   0.0000000   2.0440000   0.0000000   0.0000000   2.0440000   0.0000000   0.0000000   2.0440000
 NMagM=    0.4037610   0.0000000   0.0000000   0.4037610   0.0000000   2.7928460   0.4037610   0.0000000   2.7928460   0.4037610
 AtZNuc=   7.0000000   6.0000000   6.0000000   7.0000000   6.0000000   1.0000000   7.0000000   6.0000000   1.0000000   7.0000000

  Atom        11          12          13          14          15          16          17          18          19          20
 IAtWgt=          12          12          14           1           1           1           1           1          14          12
 AtmWgt=  12.0000000  12.0000000  14.0030740   1.0078250   1.0078250   1.0078250   1.0078250   1.0078250  14.0030740  12.0000000
 NucSpn=           0           0           2           1           1           1           1           1           2           0
 AtZEff=  -0.0000000  -0.0000000  -0.0000000  -0.0000000  -0.0000000  -0.0000000  -0.0000000  -0.0000000  -0.0000000  -0.0000000
 NQMom=    0.0000000   0.0000000   2.0440000   0.0000000   0.0000000   0.0000000   0.0000000   0.0000000   2.0440000   0.0000000
 NMagM=    0.0000000   0.0000000   0.4037610   2.7928460   2.7928460   2.7928460   2.7928460   2.7928460   0.4037610   0.0000000
 AtZNuc=   6.0000000   6.0000000   7.0000000   1.0000000   1.0000000   1.0000000   1.0000000   1.0000000   7.0000000   6.0000000

  Atom        21          22          23          24          25          26          27          28          29          30
 IAtWgt=          12          14           1           1          14          12          14           1          12          16
 AtmWgt=  12.0000000  14.0030740   1.0078250   1.0078250  14.0030740  12.0000000  14.0030740   1.0078250  12.0000000  15.9949146
 NucSpn=           0           2           1           1           2           0           2           1           0           0
 AtZEff=  -0.0000000  -0.0000000  -0.0000000  -0.0000000  -0.0000000  -0.0000000  -0.0000000  -0.0000000  -0.0000000  -0.0000000
 NQMom=    0.0000000   2.0440000   0.0000000   0.0000000   2.0440000   0.0000000   2.0440000   0.0000000   0.0000000   0.0000000
 NMagM=    0.0000000   0.4037610   2.7928460   2.7928460   0.4037610   0.0000000   0.4037610   2.7928460   0.0000000   0.0000000
 AtZNuc=   6.0000000   7.0000000   1.0000000   1.0000000   7.0000000   6.0000000   7.0000000   1.0000000   6.0000000   8.0000000

  Atom        31          32          33          34          35          36          37          38          39          40
 IAtWgt=          12          14          12           1           1           1           1           1           1           1
 AtmWgt=  12.0000000  14.0030740  12.0000000   1.0078250   1.0078250   1.0078250   1.0078250   1.0078250   1.0078250   1.0078250
 NucSpn=           0           2           0           1           1           1           1           1           1           1
 AtZEff=  -0.0000000  -0.0000000  -0.0000000  -0.0000000  -0.0000000  -0.0000000  -0.0000000  -0.0000000  -0.0000000  -0.0000000
 NQMom=    0.0000000   2.0440000   0.0000000   0.0000000   0.0000000   0.0000000   0.0000000   0.0000000   0.0000000   0.0000000
 NMagM=    0.0000000   0.4037610   0.0000000   2.7928460   2.7928460   2.7928460   2.7928460   2.7928460   2.7928460   2.7928460
 AtZNuc=   6.0000000   7.0000000   6.0000000   1.0000000   1.0000000   1.0000000   1.0000000   1.0000000   1.0000000   1.0000000

  Atom        41          42          43          44          45          46          47          48          49          50
 IAtWgt=           1          12          16          12           1          14          16          12           1          12
 AtmWgt=   1.0078250  12.0000000  15.9949146  12.0000000   1.0078250  14.0030740  15.9949146  12.0000000   1.0078250  12.0000000
 NucSpn=           1           0           0           0           1           2           0           0           1           0
 AtZEff=  -0.0000000  -0.0000000  -0.0000000  -0.0000000  -0.0000000  -0.0000000  -0.0000000  -0.0000000  -0.0000000  -0.0000000
 NQMom=    0.0000000   0.0000000   0.0000000   0.0000000   0.0000000   2.0440000   0.0000000   0.0000000   0.0000000   0.0000000
 NMagM=    2.7928460   0.0000000   0.0000000   0.0000000   2.7928460   0.4037610   0.0000000   0.0000000   2.7928460   0.0000000
 AtZNuc=   1.0000000   6.0000000   8.0000000   6.0000000   1.0000000   7.0000000   8.0000000   6.0000000   1.0000000   6.0000000

  Atom        51          52          53          54          55          56          57          58          59          60
 IAtWgt=          12          14           1           1           1           1           1          14          12          12
 AtmWgt=  12.0000000  14.0030740   1.0078250   1.0078250   1.0078250   1.0078250   1.0078250  14.0030740  12.0000000  12.0000000
 NucSpn=           0           2           1           1           1           1           1           2           0           0
 AtZEff=  -0.0000000  -0.0000000  -0.0000000  -0.0000000  -0.0000000  -0.0000000  -0.0000000  -0.0000000  -0.0000000  -0.0000000
 NQMom=    0.0000000   2.0440000   0.0000000   0.0000000   0.0000000   0.0000000   0.0000000   2.0440000   0.0000000   0.0000000
 NMagM=    0.0000000   0.4037610   2.7928460   2.7928460   2.7928460   2.7928460   2.7928460   0.4037610   0.0000000   0.0000000
 AtZNuc=   6.0000000   7.0000000   1.0000000   1.0000000   1.0000000   1.0000000   1.0000000   7.0000000   6.0000000   6.0000000

  Atom        61          62          63          64          65          66          67          68          69          70
 IAtWgt=          14           1          12          14           1          12          14          12          12          14
 AtmWgt=  14.0030740   1.0078250  12.0000000  14.0030740   1.0078250  12.0000000  14.0030740  12.0000000  12.0000000  14.0030740
 NucSpn=           2           1           0           2           1           0           2           0           0           2
 AtZEff=  -0.0000000  -0.0000000  -0.0000000  -0.0000000  -0.0000000  -0.0000000  -0.0000000  -0.0000000  -0.0000000  -0.0000000
 NQMom=    2.0440000   0.0000000   0.0000000   2.0440000   0.0000000   0.0000000   2.0440000   0.0000000   0.0000000   2.0440000
 NMagM=    0.4037610   2.7928460   0.0000000   0.4037610   2.7928460   0.0000000   0.4037610   0.0000000   0.0000000   0.4037610
 AtZNuc=   7.0000000   1.0000000   6.0000000   7.0000000   1.0000000   6.0000000   7.0000000   6.0000000   6.0000000   7.0000000
 Leave Link  101 at Thu Jan 18 21:03:19 2018, MaxMem=  4294967296 cpu:               7.8 elap:               0.3
 (Enter /share/apps/g16/l202.exe)
 Stoichiometry    C23H27N17O3
 Framework group  C1[X(C23H27N17O3)]
 Deg. of freedom   204
 Full point group                 C1      NOp   1
 Largest Abelian subgroup         C1      NOp   1
 Largest concise Abelian subgroup C1      NOp   1
                         Standard orientation:                         
 ---------------------------------------------------------------------
 Center     Atomic      Atomic             Coordinates (Angstroms)
 Number     Number       Type             X           Y           Z
 ---------------------------------------------------------------------
      1          7           0        4.268460    0.594321    2.007382
      2          6           0        5.560172   -0.103264    2.158608
      3          6           0        2.125479    1.033323    1.778844
      4          7           0        2.772305    2.260365    1.805530
      5          6           0        4.037489    1.946771    1.942148
      6          1           0        4.852325    2.668893    2.001386
      7          7           0        0.461332   -0.634105    1.663842
      8          6           0        1.451444   -1.523566    1.790793
      9          1           0        1.141270   -2.567618    1.792169
     10          7           0        2.761030   -1.317937    1.915717
     11          6           0        3.034646   -0.002879    1.902242
     12          6           0        0.769266    0.681251    1.653803
     13          7           0       -0.217705    1.570651    1.527163
     14          1           0       -0.035986    2.554541    1.514783
     15          1           0       -1.171865    1.283982    1.440400
     16          1           0        5.994877    0.179023    3.013895
     17          1           0        5.406695   -1.090859    2.173943
     18          1           0        6.157922    0.127577    1.390882
     19          7           0        5.869411   -0.647806   -0.807623
     20          6           0        4.521857   -0.893849   -0.915388
     21          6           0        6.901558   -1.662090   -0.513367
     22          7           0        1.852995   -3.114330   -0.823745
     23          1           0        0.860846   -3.080386   -0.940948
     24          1           0        2.255664   -4.007430   -0.621384
     25          7           0        3.919108   -2.093894   -0.771725
     26          6           0        2.610286   -2.012282   -0.932827
     27          7           0        1.941009   -0.845681   -1.213216
     28          1           0        0.938741   -0.877411   -1.320004
     29          6           0        2.540793    0.400507   -1.365332
     30          8           0        1.845153    1.392004   -1.617857
     31          6           0        3.946760    0.328779   -1.195085
     32          7           0        4.913804    1.322407   -1.261569
     33          6           0        6.035785    0.698051   -1.025880
     34          1           0        7.017074    1.173072   -0.999471
     35          1           0        7.378160   -1.419824    0.331009
     36          1           0        6.466867   -2.555146   -0.404891
     37          1           0        7.557269   -1.701042   -1.266576
     38          1           0       -4.090470   -1.591171   -1.095512
     39          1           0       -3.955452   -1.620378   -2.852090
     40          1           0       -2.624719   -2.211017   -1.856268
     41          1           0       -3.721148    3.114002   -2.029079
     42          6           0       -3.082445    2.232962   -1.965344
     43          8           0       -1.067026    3.476830   -1.831113
     44          6           0       -1.665365    2.401661   -1.859224
     45          1           0        0.054025    1.301929   -1.708783
     46          7           0       -0.950364    1.223325   -1.784668
     47          8           0       -0.739476   -1.037167   -1.730874
     48          6           0       -1.454409   -0.053069   -1.802195
     49          1           0       -4.674655    0.818431   -2.064201
     50          6           0       -3.603755    1.000702   -1.984914
     51          6           0       -3.413564   -1.477150   -1.929096
     52          7           0       -2.829137   -0.133399   -1.906525
     53          1           0       -6.900671   -3.509264    1.198329
     54          1           0       -5.515142   -3.554796    0.337891
     55          1           0       -6.930336   -3.236500   -0.410447
     56          1           0       -3.554571    3.110098    1.429095
     57          1           0       -5.251204    2.932454    1.429722
     58          7           0       -4.348948    2.508857    1.341820
     59          6           0       -4.212283    1.200247    1.118140
     60          6           0       -4.995443   -1.017473    0.757410
     61          7           0       -3.771373   -1.558935    0.643766
     62          1           0       -1.806258   -0.980115    0.706113
     63          6           0       -2.832884   -0.624972    0.784685
     64          7           0       -2.967743    0.686198    1.008765
     65          1           0       -8.226474   -0.931988    0.830232
     66          6           0       -7.162373   -0.694916    0.851081
     67          7           0       -6.669653    0.503986    1.044837
     68          6           0       -5.296617    0.313581    0.987850
     69          6           0       -6.403727   -3.106354    0.429744
     70          7           0       -6.205678   -1.663767    0.670021
 ---------------------------------------------------------------------
 Rotational constants (GHZ):           0.1847748           0.0487306           0.0477781
 Leave Link  202 at Thu Jan 18 21:03:19 2018, MaxMem=  4294967296 cpu:               0.4 elap:               0.0
 (Enter /share/apps/g16/l301.exe)
 Standard basis: CC-pVDZ (5D, 7F)
 Ernie: Thresh=  0.10000D-02 Tol=  0.10000D-05 Strict=F.
 Ernie:  86 primitive shells out of 1081 were deleted.
 There are   780 symmetry adapted cartesian basis functions of A   symmetry.
 There are   737 symmetry adapted basis functions of A   symmetry.
   737 basis functions,  1608 primitive gaussians,   780 cartesian basis functions
   154 alpha electrons      154 beta electrons
       nuclear repulsion energy      5566.0982374972 Hartrees.
 IExCor= 4639 DFT=T Ex+Corr=wB97XD ExCW=0 ScaHFX=  1.000000
 ScaDFX=  1.000000  1.000000  1.000000  1.000000 ScalE2=  1.000000  1.000000
 IRadAn=      5 IRanWt=     -1 IRanGd=            0 ICorTp=0 IEmpDi=121
 HFx  wShort=  0.000000 wLong=  0.200000 cFull=  0.222036 cShort=  0.000000 cLong=  0.777964
 DFx  wShort=  0.000000 wLong=  0.200000 cFull=  0.000000 cShort=  0.000000 cLong=  1.000000
 NAtoms=   70 NActive=   70 NUniq=   70 SFac= 1.00D+00 NAtFMM=   60 NAOKFM=T Big=T
 Integral buffers will be    131072 words long.
 Raffenetti 2 integral format.
 Two-electron integral symmetry is turned on.
 R6Disp:  Grimme-D2 Dispersion energy=       -0.0786848004 Hartrees.
 Nuclear repulsion after empirical dispersion term =     5566.0195526968 Hartrees.
 Leave Link  301 at Thu Jan 18 21:03:19 2018, MaxMem=  4294967296 cpu:               3.0 elap:               0.1
 (Enter /share/apps/g16/l302.exe)
 NPDir=0 NMtPBC=     1 NCelOv=     1 NCel=       1 NClECP=     1 NCelD=      1
         NCelK=      1 NCelE2=     1 NClLst=     1 CellRange=     0.0.
 One-electron integrals computed using PRISM.
 One-electron integral symmetry used in STVInt
 NBasis=   737 RedAO= T EigKep=  6.54D-04  NBF=   737
 NBsUse=   737 1.00D-06 EigRej= -1.00D+00 NBFU=   737
 Precomputing XC quadrature grid using
 IXCGrd= 4 IRadAn=           5 IRanWt=          -1 IRanGd=           0 AccXCQ= 0.00D+00.
 Generated NRdTot=       0 NPtTot=           0 NUsed=           0 NTot=          32
 NSgBfM=   757   757   757   757   757 MxSgAt=    70 MxSgA2=    70.
 Leave Link  302 at Thu Jan 18 21:03:23 2018, MaxMem=  4294967296 cpu:             137.8 elap:               4.3
 (Enter /share/apps/g16/l303.exe)
 DipDrv:  MaxL=1.
 Leave Link  303 at Thu Jan 18 21:03:24 2018, MaxMem=  4294967296 cpu:              13.2 elap:               0.5
 (Enter /share/apps/g16/l401.exe)
 ExpMin= 1.22D-01 ExpMax= 1.17D+04 ExpMxC= 4.01D+02 IAcc=3 IRadAn=         5 AccDes= 0.00D+00
 Harris functional with IExCor= 4639 and IRadAn=       5 diagonalized for initial guess.
 HarFok:  IExCor= 4639 AccDes= 0.00D+00 IRadAn=         5 IDoV= 1 UseB2=F ITyADJ=14
 ICtDFT=  3500011 ScaDFX=  1.000000  1.000000  1.000000  1.000000
 FoFCou: FMM=F IPFlag=           0 FMFlag=      100000 FMFlg1=        2001
         NFxFlg=           0 DoJE=T BraDBF=F KetDBF=T FulRan=T
         wScrn=  0.000000 ICntrl=       500 IOpCl=  0 I1Cent=   200000004 NGrid=           0
         NMat0=    1 NMatS0=      1 NMatT0=    0 NMatD0=    1 NMtDS0=    0 NMtDT0=    0
 Petite list used in FoFCou.
 Harris En= -1963.85493521333    
 JPrj=0 DoOrth=F DoCkMO=F.
 Leave Link  401 at Thu Jan 18 21:03:36 2018, MaxMem=  4294967296 cpu:             406.9 elap:              12.8
 (Enter /share/apps/g16/l502.exe)
 Integral symmetry usage will be decided dynamically.
 Closed shell SCF:
 Using DIIS extrapolation, IDIIS=  1040.
 NGot=  4294967296 LenX=  4293717438 LenY=  4293108258
 Requested convergence on RMS density matrix=1.00D-08 within  20 cycles.
 Requested convergence on MAX density matrix=1.00D-06.
 Requested convergence on             energy=1.00D-06.
 No special actions if energy rises.
 Fock matrices will be formed incrementally for  20 cycles.
 Integral accuracy reduced to 1.0D-05 until final iterations.

 Cycle   1  Pass 0  IDiag  1:
 FoFJK:  IHMeth= 1 ICntrl=       0 DoSepK=T KAlg= 0 I1Cent=           0 FoldK=F
 IRaf=         1 NMat=       1 IRICut=       1 DoRegI=T DoRafI=F ISym2E= 0 IDoP0=0 IntGTp=1.
 FoFCou: FMM=T IPFlag=           0 FMFlag=      100000 FMFlg1=        2001
         NFxFlg=           0 DoJE=T BraDBF=F KetDBF=F FulRan=T
         wScrn=  0.000000 ICntrl=       500 IOpCl=  0 I1Cent=           0 NGrid=           0
         NMat0=    1 NMatS0=      1 NMatT0=    0 NMatD0=    1 NMtDS0=    0 NMtDT0=    0
 Symmetry not used in FoFCou.
 FMM levels:  10  Number of levels for PrismC:   9
 E= -2048.29316564846    
 DIIS: error= 2.44D-02 at cycle   1 NSaved=   1.
 NSaved= 1 IEnMin= 1 EnMin= -2048.29316564846     IErMin= 1 ErrMin= 2.44D-02
 ErrMax= 2.44D-02  0.00D+00 EMaxC= 1.00D-01 BMatC= 8.34D-01 BMatP= 8.34D-01
 IDIUse=3 WtCom= 7.56D-01 WtEn= 2.44D-01
 Coeff-Com:  0.100D+01
 Coeff-En:   0.100D+01
 Coeff:      0.100D+01
 Gap=     0.272 Goal=   None    Shift=    0.000
 GapD=    0.272 DampG=1.000 DampE=0.500 DampFc=0.5000 IDamp=-1.
 Damping current iteration by 5.00D-01
 RMSDP=1.58D-03 MaxDP=1.29D-01              OVMax= 2.04D-01

 Cycle   2  Pass 0  IDiag  1:
 RMSU=  7.91D-04    CP:  9.98D-01
 E= -2048.49088396775     Delta-E=       -0.197718319289 Rises=F Damp=T
 DIIS: error= 1.36D-02 at cycle   2 NSaved=   2.
 NSaved= 2 IEnMin= 2 EnMin= -2048.49088396775     IErMin= 2 ErrMin= 1.36D-02
 ErrMax= 1.36D-02  0.00D+00 EMaxC= 1.00D-01 BMatC= 1.45D-01 BMatP= 8.34D-01
 IDIUse=3 WtCom= 8.64D-01 WtEn= 1.36D-01
 Coeff-Com: -0.199D+00 0.120D+01
 Coeff-En:   0.000D+00 0.100D+01
 Coeff:     -0.172D+00 0.117D+01
 Gap=     0.289 Goal=   None    Shift=    0.000
 RMSDP=5.95D-04 MaxDP=3.50D-02 DE=-1.98D-01 OVMax= 1.50D-01

 Cycle   3  Pass 0  IDiag  1:
 RMSU=  5.81D-04    CP:  9.94D-01  1.15D+00
 E= -2048.66987777162     Delta-E=       -0.178993803867 Rises=F Damp=F
 DIIS: error= 8.04D-03 at cycle   3 NSaved=   3.
 NSaved= 3 IEnMin= 3 EnMin= -2048.66987777162     IErMin= 3 ErrMin= 8.04D-03
 ErrMax= 8.04D-03  0.00D+00 EMaxC= 1.00D-01 BMatC= 6.37D-02 BMatP= 1.45D-01
 IDIUse=3 WtCom= 9.20D-01 WtEn= 8.04D-02
 Coeff-Com: -0.231D+00 0.552D+00 0.679D+00
 Coeff-En:   0.000D+00 0.000D+00 0.100D+01
 Coeff:     -0.213D+00 0.508D+00 0.705D+00
 Gap=     0.280 Goal=   None    Shift=    0.000
 RMSDP=3.71D-04 MaxDP=3.40D-02 DE=-1.79D-01 OVMax= 4.87D-02

 Cycle   4  Pass 0  IDiag  1:
 RMSU=  2.11D-04    CP:  9.94D-01  1.44D+00  6.53D-01
 E= -2048.71693262334     Delta-E=       -0.047054851718 Rises=F Damp=F
 DIIS: error= 3.23D-03 at cycle   4 NSaved=   4.
 NSaved= 4 IEnMin= 4 EnMin= -2048.71693262334     IErMin= 4 ErrMin= 3.23D-03
 ErrMax= 3.23D-03  0.00D+00 EMaxC= 1.00D-01 BMatC= 1.01D-02 BMatP= 6.37D-02
 IDIUse=3 WtCom= 9.68D-01 WtEn= 3.23D-02
 Coeff-Com: -0.950D-01 0.184D+00 0.382D+00 0.529D+00
 Coeff-En:   0.000D+00 0.000D+00 0.861D-01 0.914D+00
 Coeff:     -0.919D-01 0.178D+00 0.373D+00 0.541D+00
 Gap=     0.281 Goal=   None    Shift=    0.000
 RMSDP=1.33D-04 MaxDP=1.13D-02 DE=-4.71D-02 OVMax= 1.40D-02

 Cycle   5  Pass 0  IDiag  1:
 RMSU=  6.22D-05    CP:  9.94D-01  1.41D+00  7.94D-01  6.17D-01
 E= -2048.72519976994     Delta-E=       -0.008267146602 Rises=F Damp=F
 DIIS: error= 4.27D-04 at cycle   5 NSaved=   5.
 NSaved= 5 IEnMin= 5 EnMin= -2048.72519976994     IErMin= 5 ErrMin= 4.27D-04
 ErrMax= 4.27D-04  0.00D+00 EMaxC= 1.00D-01 BMatC= 2.99D-04 BMatP= 1.01D-02
 IDIUse=3 WtCom= 9.96D-01 WtEn= 4.27D-03
 Coeff-Com: -0.247D-01 0.422D-01 0.124D+00 0.239D+00 0.620D+00
 Coeff-En:   0.000D+00 0.000D+00 0.000D+00 0.000D+00 0.100D+01
 Coeff:     -0.246D-01 0.421D-01 0.123D+00 0.238D+00 0.621D+00
 Gap=     0.281 Goal=   None    Shift=    0.000
 RMSDP=2.63D-05 MaxDP=1.83D-03 DE=-8.27D-03 OVMax= 3.18D-03

 Failed to achieve initial convergence to 1.0D-08 in  6 cycles.
 Switch to full accuracy anyway.
 Cycle   6  Pass 1  IDiag  1:
 E= -2048.72524084380     Delta-E=       -0.000041073861 Rises=F Damp=F
 DIIS: error= 2.22D-04 at cycle   1 NSaved=   1.
 NSaved= 1 IEnMin= 1 EnMin= -2048.72524084380     IErMin= 1 ErrMin= 2.22D-04
 ErrMax= 2.22D-04  0.00D+00 EMaxC= 1.00D-01 BMatC= 7.62D-05 BMatP= 7.62D-05
 IDIUse=3 WtCom= 9.98D-01 WtEn= 2.22D-03
 Coeff-Com:  0.100D+01
 Coeff-En:   0.100D+01
 Coeff:      0.100D+01
 Gap=     0.281 Goal=   None    Shift=    0.000
 RMSDP=2.63D-05 MaxDP=1.83D-03 DE=-4.11D-05 OVMax= 2.10D-03

 Cycle   7  Pass 1  IDiag  1:
 RMSU=  1.09D-04    CP:  1.00D+00
 E= -2048.72529361414     Delta-E=       -0.000052770344 Rises=F Damp=F
 DIIS: error= 1.92D-04 at cycle   2 NSaved=   2.
 NSaved= 2 IEnMin= 2 EnMin= -2048.72529361414     IErMin= 2 ErrMin= 1.92D-04
 ErrMax= 1.92D-04  0.00D+00 EMaxC= 1.00D-01 BMatC= 4.62D-05 BMatP= 7.62D-05
 IDIUse=3 WtCom= 9.98D-01 WtEn= 1.92D-03
 Coeff-Com:  0.416D+00 0.584D+00
 Coeff-En:   0.000D+00 0.100D+01
 Coeff:      0.415D+00 0.585D+00
 Gap=     0.281 Goal=   None    Shift=    0.000
 RMSDP=1.17D-05 MaxDP=1.11D-03 DE=-5.28D-05 OVMax= 1.50D-03

 Cycle   8  Pass 1  IDiag  1:
 RMSU=  1.14D-05    CP:  1.00D+00  1.02D+00
 E= -2048.72532657459     Delta-E=       -0.000032960448 Rises=F Damp=F
 DIIS: error= 8.97D-05 at cycle   3 NSaved=   3.
 NSaved= 3 IEnMin= 3 EnMin= -2048.72532657459     IErMin= 3 ErrMin= 8.97D-05
 ErrMax= 8.97D-05  0.00D+00 EMaxC= 1.00D-01 BMatC= 1.04D-05 BMatP= 4.62D-05
 IDIUse=1 WtCom= 1.00D+00 WtEn= 0.00D+00
 Coeff-Com: -0.179D-01 0.309D+00 0.709D+00
 Coeff:     -0.179D-01 0.309D+00 0.709D+00
 Gap=     0.281 Goal=   None    Shift=    0.000
 RMSDP=5.65D-06 MaxDP=4.24D-04 DE=-3.30D-05 OVMax= 5.59D-04

 Cycle   9  Pass 1  IDiag  1:
 RMSU=  3.82D-06    CP:  1.00D+00  1.05D+00  7.59D-01
 E= -2048.72533617774     Delta-E=       -0.000009603149 Rises=F Damp=F
 DIIS: error= 2.84D-05 at cycle   4 NSaved=   4.
 NSaved= 4 IEnMin= 4 EnMin= -2048.72533617774     IErMin= 4 ErrMin= 2.84D-05
 ErrMax= 2.84D-05  0.00D+00 EMaxC= 1.00D-01 BMatC= 5.04D-07 BMatP= 1.04D-05
 IDIUse=1 WtCom= 1.00D+00 WtEn= 0.00D+00
 Coeff-Com: -0.303D-01 0.863D-01 0.264D+00 0.680D+00
 Coeff:     -0.303D-01 0.863D-01 0.264D+00 0.680D+00
 Gap=     0.281 Goal=   None    Shift=    0.000
 RMSDP=1.43D-06 MaxDP=1.18D-04 DE=-9.60D-06 OVMax= 3.87D-04

 Cycle  10  Pass 1  IDiag  1:
 RMSU=  1.27D-06    CP:  1.00D+00  1.05D+00  7.93D-01  1.11D+00
 E= -2048.72533700048     Delta-E=       -0.000000822744 Rises=F Damp=F
 DIIS: error= 1.09D-05 at cycle   5 NSaved=   5.
 NSaved= 5 IEnMin= 5 EnMin= -2048.72533700048     IErMin= 5 ErrMin= 1.09D-05
 ErrMax= 1.09D-05  0.00D+00 EMaxC= 1.00D-01 BMatC= 1.09D-07 BMatP= 5.04D-07
 IDIUse=1 WtCom= 1.00D+00 WtEn= 0.00D+00
 Coeff-Com: -0.312D-02-0.531D-01-0.116D+00 0.188D+00 0.984D+00
 Coeff:     -0.312D-02-0.531D-01-0.116D+00 0.188D+00 0.984D+00
 Gap=     0.281 Goal=   None    Shift=    0.000
 RMSDP=1.18D-06 MaxDP=7.86D-05 DE=-8.23D-07 OVMax= 2.29D-04

 Cycle  11  Pass 1  IDiag  1:
 RMSU=  4.85D-07    CP:  1.00D+00  1.05D+00  8.01D-01  1.38D+00  1.18D+00
 E= -2048.72533724495     Delta-E=       -0.000000244468 Rises=F Damp=F
 DIIS: error= 6.84D-06 at cycle   6 NSaved=   6.
 NSaved= 6 IEnMin= 6 EnMin= -2048.72533724495     IErMin= 6 ErrMin= 6.84D-06
 ErrMax= 6.84D-06  0.00D+00 EMaxC= 1.00D-01 BMatC= 3.02D-08 BMatP= 1.09D-07
 IDIUse=1 WtCom= 1.00D+00 WtEn= 0.00D+00
 Coeff-Com:  0.456D-02-0.447D-01-0.115D+00-0.119D-01 0.540D+00 0.626D+00
 Coeff:      0.456D-02-0.447D-01-0.115D+00-0.119D-01 0.540D+00 0.626D+00
 Gap=     0.281 Goal=   None    Shift=    0.000
 RMSDP=3.74D-07 MaxDP=3.46D-05 DE=-2.44D-07 OVMax= 1.06D-04

 Cycle  12  Pass 1  IDiag  1:
 RMSU=  1.84D-07    CP:  1.00D+00  1.05D+00  8.04D-01  1.45D+00  1.32D+00
                    CP:  9.15D-01
 E= -2048.72533728672     Delta-E=       -0.000000041766 Rises=F Damp=F
 DIIS: error= 1.04D-06 at cycle   7 NSaved=   7.
 NSaved= 7 IEnMin= 7 EnMin= -2048.72533728672     IErMin= 7 ErrMin= 1.04D-06
 ErrMax= 1.04D-06  0.00D+00 EMaxC= 1.00D-01 BMatC= 7.47D-10 BMatP= 3.02D-08
 IDIUse=1 WtCom= 1.00D+00 WtEn= 0.00D+00
 Coeff-Com:  0.108D-02-0.722D-02-0.201D-01-0.102D-01 0.607D-01 0.133D+00
 Coeff-Com:  0.843D+00
 Coeff:      0.108D-02-0.722D-02-0.201D-01-0.102D-01 0.607D-01 0.133D+00
 Coeff:      0.843D+00
 Gap=     0.281 Goal=   None    Shift=    0.000
 RMSDP=8.51D-08 MaxDP=5.53D-06 DE=-4.18D-08 OVMax= 2.10D-05

 Cycle  13  Pass 1  IDiag  1:
 RMSU=  5.32D-08    CP:  1.00D+00  1.05D+00  8.03D-01  1.46D+00  1.34D+00
                    CP:  1.00D+00  1.13D+00
 E= -2048.72533728841     Delta-E=       -0.000000001691 Rises=F Damp=F
 DIIS: error= 4.58D-07 at cycle   8 NSaved=   8.
 NSaved= 8 IEnMin= 8 EnMin= -2048.72533728841     IErMin= 8 ErrMin= 4.58D-07
 ErrMax= 4.58D-07  0.00D+00 EMaxC= 1.00D-01 BMatC= 2.99D-10 BMatP= 7.47D-10
 IDIUse=1 WtCom= 1.00D+00 WtEn= 0.00D+00
 Coeff-Com: -0.698D-03 0.859D-02 0.209D-01 0.550D-04-0.114D+00-0.101D+00
 Coeff-Com:  0.409D+00 0.778D+00
 Coeff:     -0.698D-03 0.859D-02 0.209D-01 0.550D-04-0.114D+00-0.101D+00
 Coeff:      0.409D+00 0.778D+00
 Gap=     0.281 Goal=   None    Shift=    0.000
 RMSDP=4.75D-08 MaxDP=2.87D-06 DE=-1.69D-09 OVMax= 1.04D-05

 Cycle  14  Pass 1  IDiag  1:
 RMSU=  2.80D-08    CP:  1.00D+00  1.05D+00  8.03D-01  1.46D+00  1.34D+00
                    CP:  1.04D+00  1.28D+00  1.05D+00
 E= -2048.72533728916     Delta-E=       -0.000000000751 Rises=F Damp=F
 DIIS: error= 1.68D-07 at cycle   9 NSaved=   9.
 NSaved= 9 IEnMin= 9 EnMin= -2048.72533728916     IErMin= 9 ErrMin= 1.68D-07
 ErrMax= 1.68D-07  0.00D+00 EMaxC= 1.00D-01 BMatC= 2.41D-11 BMatP= 2.99D-10
 IDIUse=1 WtCom= 1.00D+00 WtEn= 0.00D+00
 Coeff-Com: -0.376D-03 0.399D-02 0.995D-02 0.122D-02-0.487D-01-0.520D-01
 Coeff-Com:  0.706D-01 0.278D+00 0.737D+00
 Coeff:     -0.376D-03 0.399D-02 0.995D-02 0.122D-02-0.487D-01-0.520D-01
 Coeff:      0.706D-01 0.278D+00 0.737D+00
 Gap=     0.281 Goal=   None    Shift=    0.000
 RMSDP=1.32D-08 MaxDP=6.90D-07 DE=-7.51D-10 OVMax= 2.95D-06

 Cycle  15  Pass 1  IDiag  1:
 RMSU=  8.89D-09    CP:  1.00D+00  1.05D+00  8.03D-01  1.46D+00  1.35D+00
                    CP:  1.05D+00  1.31D+00  1.19D+00  1.11D+00
 E= -2048.72533728915     Delta-E=        0.000000000007 Rises=F Damp=F
 DIIS: error= 5.22D-08 at cycle  10 NSaved=  10.
 NSaved=10 IEnMin= 9 EnMin= -2048.72533728916     IErMin=10 ErrMin= 5.22D-08
 ErrMax= 5.22D-08  0.00D+00 EMaxC= 1.00D-01 BMatC= 4.47D-12 BMatP= 2.41D-11
 IDIUse=1 WtCom= 1.00D+00 WtEn= 0.00D+00
 Coeff-Com:  0.125D-04-0.379D-03-0.814D-03 0.188D-03 0.636D-02 0.216D-02
 Coeff-Com: -0.576D-01-0.710D-01 0.260D+00 0.861D+00
 Coeff:      0.125D-04-0.379D-03-0.814D-03 0.188D-03 0.636D-02 0.216D-02
 Coeff:     -0.576D-01-0.710D-01 0.260D+00 0.861D+00
 Gap=     0.281 Goal=   None    Shift=    0.000
 RMSDP=6.72D-09 MaxDP=3.91D-07 DE= 7.28D-12 OVMax= 1.30D-06

 SCF Done:  E(RwB97XD) =  -2048.72533729     A.U. after   15 cycles
            NFock= 15  Conv=0.67D-08     -V/T= 2.0053
 KE= 2.037964235591D+03 PE=-1.591221391375D+04 EE= 6.259504788176D+03
 Leave Link  502 at Thu Jan 18 21:15:37 2018, MaxMem=  4294967296 cpu:           22270.7 elap:             720.6
 (Enter /share/apps/g16/l601.exe)
 Copying SCF densities to generalized density rwf, IOpCl= 0 IROHF=0.

 **********************************************************************

            Population analysis using the SCF density.

 **********************************************************************

 Orbital symmetries:
       Occupied  (A) (A) (A) (A) (A) (A) (A) (A) (A) (A) (A) (A)
                 (A) (A) (A) (A) (A) (A) (A) (A) (A) (A) (A) (A)
                 (A) (A) (A) (A) (A) (A) (A) (A) (A) (A) (A) (A)
                 (A) (A) (A) (A) (A) (A) (A) (A) (A) (A) (A) (A)
                 (A) (A) (A) (A) (A) (A) (A) (A) (A) (A) (A) (A)
                 (A) (A) (A) (A) (A) (A) (A) (A) (A) (A) (A) (A)
                 (A) (A) (A) (A) (A) (A) (A) (A) (A) (A) (A) (A)
                 (A) (A) (A) (A) (A) (A) (A) (A) (A) (A) (A) (A)
                 (A) (A) (A) (A) (A) (A) (A) (A) (A) (A) (A) (A)
                 (A) (A) (A) (A) (A) (A) (A) (A) (A) (A) (A) (A)
                 (A) (A) (A) (A) (A) (A) (A) (A) (A) (A) (A) (A)
                 (A) (A) (A) (A) (A) (A) (A) (A) (A) (A) (A) (A)
                 (A) (A) (A) (A) (A) (A) (A) (A) (A) (A)
       Virtual   (A) (A) (A) (A) (A) (A) (A) (A) (A) (A) (A) (A)
                 (A) (A) (A) (A) (A) (A) (A) (A) (A) (A) (A) (A)
                 (A) (A) (A) (A) (A) (A) (A) (A) (A) (A) (A) (A)
                 (A) (A) (A) (A) (A) (A) (A) (A) (A) (A) (A) (A)
                 (A) (A) (A) (A) (A) (A) (A) (A) (A) (A) (A) (A)
                 (A) (A) (A) (A) (A) (A) (A) (A) (A) (A) (A) (A)
                 (A) (A) (A) (A) (A) (A) (A) (A) (A) (A) (A) (A)
                 (A) (A) (A) (A) (A) (A) (A) (A) (A) (A) (A) (A)
                 (A) (A) (A) (A) (A) (A) (A) (A) (A) (A) (A) (A)
                 (A) (A) (A) (A) (A) (A) (A) (A) (A) (A) (A) (A)
                 (A) (A) (A) (A) (A) (A) (A) (A) (A) (A) (A) (A)
                 (A) (A) (A) (A) (A) (A) (A) (A) (A) (A) (A) (A)
                 (A) (A) (A) (A) (A) (A) (A) (A) (A) (A) (A) (A)
                 (A) (A) (A) (A) (A) (A) (A) (A) (A) (A) (A) (A)
                 (A) (A) (A) (A) (A) (A) (A) (A) (A) (A) (A) (A)
                 (A) (A) (A) (A) (A) (A) (A) (A) (A) (A) (A) (A)
                 (A) (A) (A) (A) (A) (A) (A) (A) (A) (A) (A) (A)
                 (A) (A) (A) (A) (A) (A) (A) (A) (A) (A) (A) (A)
                 (A) (A) (A) (A) (A) (A) (A) (A) (A) (A) (A) (A)
                 (A) (A) (A) (A) (A) (A) (A) (A) (A) (A) (A) (A)
                 (A) (A) (A) (A) (A) (A) (A) (A) (A) (A) (A) (A)
                 (A) (A) (A) (A) (A) (A) (A) (A) (A) (A) (A) (A)
                 (A) (A) (A) (A) (A) (A) (A) (A) (A) (A) (A) (A)
                 (A) (A) (A) (A) (A) (A) (A) (A) (A) (A) (A) (A)
                 (A) (A) (A) (A) (A) (A) (A) (A) (A) (A) (A) (A)
                 (A) (A) (A) (A) (A) (A) (A) (A) (A) (A) (A) (A)
                 (A) (A) (A) (A) (A) (A) (A) (A) (A) (A) (A) (A)
                 (A) (A) (A) (A) (A) (A) (A) (A) (A) (A) (A) (A)
                 (A) (A) (A) (A) (A) (A) (A) (A) (A) (A) (A) (A)
                 (A) (A) (A) (A) (A) (A) (A) (A) (A) (A) (A) (A)
                 (A) (A) (A) (A) (A) (A) (A) (A) (A) (A) (A) (A)
                 (A) (A) (A) (A) (A) (A) (A) (A) (A) (A) (A) (A)
                 (A) (A) (A) (A) (A) (A) (A) (A) (A) (A) (A) (A)
                 (A) (A) (A) (A) (A) (A) (A) (A) (A) (A) (A) (A)
                 (A) (A) (A) (A) (A) (A) (A) (A) (A) (A) (A) (A)
                 (A) (A) (A) (A) (A) (A) (A) (A) (A) (A) (A) (A)
                 (A) (A) (A) (A) (A) (A) (A) (A) (A) (A) (A) (A)
                 (A) (A) (A) (A) (A) (A) (A) (A) (A) (A) (A) (A)
                 (A) (A) (A) (A) (A) (A) (A) (A) (A) (A) (A) (A)
                 (A) (A) (A) (A) (A) (A) (A) (A) (A) (A) (A) (A)
                 (A) (A) (A) (A) (A) (A) (A) (A) (A) (A) (A) (A)
                 (A) (A) (A) (A) (A) (A) (A) (A) (A) (A) (A) (A)
                 (A) (A) (A) (A) (A) (A) (A) (A) (A) (A) (A) (A)
                 (A) (A) (A) (A) (A) (A) (A) (A) (A) (A) (A) (A)
                 (A) (A) (A) (A) (A) (A) (A) (A) (A) (A) (A) (A)
                 (A) (A) (A) (A) (A) (A) (A) (A) (A) (A) (A) (A)
                 (A) (A) (A) (A) (A) (A) (A) (A) (A) (A) (A) (A)
                 (A) (A) (A) (A) (A) (A) (A) (A) (A) (A) (A) (A)
                 (A) (A) (A) (A) (A) (A) (A)
 The electronic state is 1-A.
 Alpha  occ. eigenvalues --  -19.24961 -19.21219 -19.20692 -14.52988 -14.51339
 Alpha  occ. eigenvalues --  -14.49602 -14.48838 -14.48591 -14.47003 -14.46826
 Alpha  occ. eigenvalues --  -14.46690 -14.45717 -14.44880 -14.44858 -14.43233
 Alpha  occ. eigenvalues --  -14.41999 -14.41868 -14.41503 -14.41361 -14.41139
 Alpha  occ. eigenvalues --  -10.44522 -10.41277 -10.40472 -10.39295 -10.38431
 Alpha  occ. eigenvalues --  -10.38290 -10.37721 -10.36735 -10.36411 -10.36201
 Alpha  occ. eigenvalues --  -10.34878 -10.34335 -10.34176 -10.34174 -10.33788
 Alpha  occ. eigenvalues --  -10.33704 -10.33242 -10.32406 -10.31901 -10.30928
 Alpha  occ. eigenvalues --  -10.30181 -10.29019 -10.28641  -1.18528  -1.15733
 Alpha  occ. eigenvalues --   -1.13493  -1.12213  -1.11522  -1.11234  -1.09991
 Alpha  occ. eigenvalues --   -1.08693  -1.08216  -1.05777  -1.05601  -1.01562
 Alpha  occ. eigenvalues --   -1.01374  -1.01178  -0.99825  -0.98874  -0.97707
 Alpha  occ. eigenvalues --   -0.97268  -0.97122  -0.93475  -0.90000  -0.88178
 Alpha  occ. eigenvalues --   -0.86351  -0.84858  -0.84220  -0.83269  -0.82627
 Alpha  occ. eigenvalues --   -0.82136  -0.77940  -0.77500  -0.75566  -0.75102
 Alpha  occ. eigenvalues --   -0.73787  -0.73401  -0.72399  -0.71637  -0.70917
 Alpha  occ. eigenvalues --   -0.67623  -0.67361  -0.66826  -0.65646  -0.64762
 Alpha  occ. eigenvalues --   -0.64701  -0.63302  -0.63169  -0.62772  -0.61991
 Alpha  occ. eigenvalues --   -0.61164  -0.61094  -0.60852  -0.60067  -0.59128
 Alpha  occ. eigenvalues --   -0.59022  -0.58718  -0.58374  -0.57099  -0.56204
 Alpha  occ. eigenvalues --   -0.55843  -0.55577  -0.55361  -0.54801  -0.54384
 Alpha  occ. eigenvalues --   -0.54312  -0.54043  -0.53389  -0.53259  -0.52892
 Alpha  occ. eigenvalues --   -0.52400  -0.52015  -0.51100  -0.50820  -0.50687
 Alpha  occ. eigenvalues --   -0.50529  -0.50303  -0.49666  -0.49446  -0.49310
 Alpha  occ. eigenvalues --   -0.48648  -0.48505  -0.48003  -0.47384  -0.47340
 Alpha  occ. eigenvalues --   -0.47023  -0.45835  -0.45536  -0.44505  -0.42772
 Alpha  occ. eigenvalues --   -0.41360  -0.40929  -0.38804  -0.38316  -0.38107
 Alpha  occ. eigenvalues --   -0.38022  -0.37378  -0.37165  -0.35385  -0.35156
 Alpha  occ. eigenvalues --   -0.34661  -0.34150  -0.33991  -0.33909  -0.33187
 Alpha  occ. eigenvalues --   -0.32824  -0.32424  -0.32011  -0.31363  -0.31027
 Alpha  occ. eigenvalues --   -0.30754  -0.30426  -0.26906  -0.25339
 Alpha virt. eigenvalues --    0.02757   0.04834   0.06252   0.07455   0.08439
 Alpha virt. eigenvalues --    0.08988   0.09376   0.09952   0.10369   0.12661
 Alpha virt. eigenvalues --    0.13181   0.13530   0.14067   0.14330   0.14672
 Alpha virt. eigenvalues --    0.15081   0.16379   0.17407   0.17842   0.18192
 Alpha virt. eigenvalues --    0.18886   0.19107   0.19593   0.20310   0.20551
 Alpha virt. eigenvalues --    0.20734   0.21024   0.21563   0.21734   0.21895
 Alpha virt. eigenvalues --    0.22450   0.22726   0.22943   0.23193   0.23668
 Alpha virt. eigenvalues --    0.24184   0.24366   0.24953   0.25438   0.25729
 Alpha virt. eigenvalues --    0.26364   0.27064   0.27478   0.27897   0.28282
 Alpha virt. eigenvalues --    0.28474   0.29040   0.30210   0.30865   0.31485
 Alpha virt. eigenvalues --    0.31891   0.32026   0.32435   0.32920   0.33391
 Alpha virt. eigenvalues --    0.34057   0.34702   0.35146   0.35698   0.36642
 Alpha virt. eigenvalues --    0.36655   0.36871   0.37816   0.38013   0.38626
 Alpha virt. eigenvalues --    0.39173   0.40360   0.41000   0.41260   0.41384
 Alpha virt. eigenvalues --    0.42187   0.42756   0.42958   0.43504   0.43684
 Alpha virt. eigenvalues --    0.44827   0.45313   0.45692   0.46354   0.46662
 Alpha virt. eigenvalues --    0.47091   0.47837   0.48170   0.48425   0.48971
 Alpha virt. eigenvalues --    0.49733   0.49789   0.50422   0.50848   0.51796
 Alpha virt. eigenvalues --    0.52292   0.52361   0.52480   0.53497   0.54129
 Alpha virt. eigenvalues --    0.54478   0.54771   0.54903   0.55054   0.55336
 Alpha virt. eigenvalues --    0.55676   0.56439   0.56601   0.56794   0.57366
 Alpha virt. eigenvalues --    0.57932   0.58080   0.58694   0.59049   0.59562
 Alpha virt. eigenvalues --    0.60241   0.60469   0.60592   0.61096   0.61957
 Alpha virt. eigenvalues --    0.62211   0.62589   0.62734   0.63157   0.63420
 Alpha virt. eigenvalues --    0.63917   0.64569   0.65127   0.65315   0.65538
 Alpha virt. eigenvalues --    0.66172   0.66437   0.67408   0.67956   0.68385
 Alpha virt. eigenvalues --    0.69019   0.69061   0.69431   0.69743   0.70100
 Alpha virt. eigenvalues --    0.70728   0.71311   0.71670   0.72053   0.72606
 Alpha virt. eigenvalues --    0.73316   0.73372   0.73897   0.74025   0.74226
 Alpha virt. eigenvalues --    0.74467   0.74958   0.75152   0.75331   0.75643
 Alpha virt. eigenvalues --    0.76080   0.76646   0.77000   0.77789   0.78002
 Alpha virt. eigenvalues --    0.78524   0.78689   0.79166   0.79414   0.79714
 Alpha virt. eigenvalues --    0.80084   0.80492   0.80575   0.81017   0.81345
 Alpha virt. eigenvalues --    0.81664   0.82019   0.82180   0.82683   0.83464
 Alpha virt. eigenvalues --    0.84000   0.84040   0.84514   0.84844   0.85764
 Alpha virt. eigenvalues --    0.86295   0.86493   0.86925   0.87166   0.87741
 Alpha virt. eigenvalues --    0.87992   0.88325   0.88838   0.89452   0.90059
 Alpha virt. eigenvalues --    0.91230   0.91831   0.91896   0.92380   0.93093
 Alpha virt. eigenvalues --    0.93614   0.93980   0.94075   0.94855   0.95018
 Alpha virt. eigenvalues --    0.95599   0.96040   0.96556   0.96785   0.97476
 Alpha virt. eigenvalues --    0.98292   0.98822   0.98905   0.99096   0.99443
 Alpha virt. eigenvalues --    0.99578   1.00007   1.00757   1.01043   1.01489
 Alpha virt. eigenvalues --    1.02426   1.02717   1.03323   1.03875   1.04275
 Alpha virt. eigenvalues --    1.04786   1.05063   1.05356   1.05891   1.06487
 Alpha virt. eigenvalues --    1.06992   1.07785   1.08080   1.08677   1.09334
 Alpha virt. eigenvalues --    1.09632   1.10343   1.10582   1.11501   1.12168
 Alpha virt. eigenvalues --    1.12596   1.13015   1.13370   1.13855   1.14195
 Alpha virt. eigenvalues --    1.14255   1.15190   1.15814   1.15957   1.16325
 Alpha virt. eigenvalues --    1.17316   1.17386   1.17619   1.17892   1.18183
 Alpha virt. eigenvalues --    1.18819   1.19353   1.19536   1.19775   1.20031
 Alpha virt. eigenvalues --    1.20239   1.20667   1.21155   1.21531   1.21949
 Alpha virt. eigenvalues --    1.22616   1.23034   1.23308   1.23428   1.23865
 Alpha virt. eigenvalues --    1.24561   1.25612   1.25949   1.26157   1.26686
 Alpha virt. eigenvalues --    1.26888   1.27633   1.27822   1.28439   1.29498
 Alpha virt. eigenvalues --    1.29876   1.30521   1.30878   1.31282   1.31713
 Alpha virt. eigenvalues --    1.32245   1.33467   1.33677   1.33908   1.34701
 Alpha virt. eigenvalues --    1.35037   1.35561   1.36000   1.36830   1.37246
 Alpha virt. eigenvalues --    1.39012   1.39677   1.40209   1.40496   1.41423
 Alpha virt. eigenvalues --    1.41681   1.42352   1.42911   1.43946   1.45586
 Alpha virt. eigenvalues --    1.45884   1.46370   1.47172   1.47792   1.48187
 Alpha virt. eigenvalues --    1.49431   1.49689   1.51045   1.51337   1.52675
 Alpha virt. eigenvalues --    1.53219   1.53840   1.54299   1.54764   1.55576
 Alpha virt. eigenvalues --    1.56263   1.57488   1.58097   1.58274   1.58970
 Alpha virt. eigenvalues --    1.60107   1.60788   1.61219   1.61364   1.61534
 Alpha virt. eigenvalues --    1.62175   1.63423   1.64372   1.64602   1.64801
 Alpha virt. eigenvalues --    1.65405   1.65950   1.66675   1.67064   1.68048
 Alpha virt. eigenvalues --    1.68749   1.69278   1.69524   1.69700   1.70011
 Alpha virt. eigenvalues --    1.70355   1.70937   1.71513   1.71910   1.72507
 Alpha virt. eigenvalues --    1.72982   1.73325   1.73995   1.74461   1.74807
 Alpha virt. eigenvalues --    1.75313   1.75496   1.75697   1.76524   1.76910
 Alpha virt. eigenvalues --    1.77051   1.77444   1.77612   1.78013   1.78296
 Alpha virt. eigenvalues --    1.78732   1.78825   1.79357   1.79731   1.80132
 Alpha virt. eigenvalues --    1.80429   1.80788   1.81022   1.81577   1.81770
 Alpha virt. eigenvalues --    1.81886   1.82261   1.82685   1.83214   1.83640
 Alpha virt. eigenvalues --    1.83890   1.84697   1.84923   1.85680   1.85752
 Alpha virt. eigenvalues --    1.86162   1.86928   1.87381   1.88061   1.88406
 Alpha virt. eigenvalues --    1.88770   1.89182   1.89721   1.89932   1.90615
 Alpha virt. eigenvalues --    1.91018   1.91788   1.91986   1.92704   1.93012
 Alpha virt. eigenvalues --    1.93710   1.93853   1.94422   1.95030   1.95934
 Alpha virt. eigenvalues --    1.96141   1.96336   1.97671   1.98057   1.98832
 Alpha virt. eigenvalues --    1.99567   2.01021   2.01594   2.02002   2.02646
 Alpha virt. eigenvalues --    2.03145   2.03562   2.04416   2.05027   2.05246
 Alpha virt. eigenvalues --    2.05673   2.06000   2.06478   2.07568   2.08068
 Alpha virt. eigenvalues --    2.08476   2.09624   2.09736   2.10090   2.10756
 Alpha virt. eigenvalues --    2.12416   2.12576   2.14083   2.14207   2.15614
 Alpha virt. eigenvalues --    2.15866   2.16853   2.17207   2.17541   2.18667
 Alpha virt. eigenvalues --    2.19710   2.20121   2.20527   2.21054   2.22225
 Alpha virt. eigenvalues --    2.22918   2.23301   2.23404   2.24410   2.24767
 Alpha virt. eigenvalues --    2.25814   2.26878   2.27232   2.27421   2.28264
 Alpha virt. eigenvalues --    2.28830   2.28978   2.29962   2.30280   2.30779
 Alpha virt. eigenvalues --    2.31182   2.31263   2.32266   2.32638   2.33104
 Alpha virt. eigenvalues --    2.34004   2.34049   2.34324   2.35079   2.35735
 Alpha virt. eigenvalues --    2.36220   2.36714   2.37185   2.37471   2.38803
 Alpha virt. eigenvalues --    2.39685   2.40056   2.40608   2.41024   2.41564
 Alpha virt. eigenvalues --    2.42464   2.43217   2.43501   2.44373   2.45061
 Alpha virt. eigenvalues --    2.45149   2.45620   2.46025   2.46385   2.46995
 Alpha virt. eigenvalues --    2.48335   2.49640   2.50275   2.51441   2.51762
 Alpha virt. eigenvalues --    2.53453   2.54356   2.55015   2.56038   2.56866
 Alpha virt. eigenvalues --    2.57942   2.58442   2.59396   2.59714   2.61347
 Alpha virt. eigenvalues --    2.61805   2.62434   2.62935   2.64125   2.64994
 Alpha virt. eigenvalues --    2.65183   2.65320   2.65877   2.66758   2.67800
 Alpha virt. eigenvalues --    2.68365   2.68799   2.69373   2.70123   2.70953
 Alpha virt. eigenvalues --    2.71167   2.71348   2.72186   2.73194   2.73587
 Alpha virt. eigenvalues --    2.75290   2.75940   2.76474   2.77192   2.77599
 Alpha virt. eigenvalues --    2.77906   2.78143   2.79114   2.79377   2.79724
 Alpha virt. eigenvalues --    2.80017   2.80642   2.81073   2.81202   2.81904
 Alpha virt. eigenvalues --    2.82965   2.84188   2.84428   2.85189   2.85622
 Alpha virt. eigenvalues --    2.86307   2.86926   2.87281   2.87847   2.88186
 Alpha virt. eigenvalues --    2.88525   2.88750   2.90812   2.93651   2.94561
 Alpha virt. eigenvalues --    2.95880   2.97250   2.97778   2.98279   2.99648
 Alpha virt. eigenvalues --    3.00772   3.02023   3.03765   3.04185   3.05446
 Alpha virt. eigenvalues --    3.06886   3.08749   3.11030   3.12450   3.14764
 Alpha virt. eigenvalues --    3.15593   3.16184   3.17194   3.18915   3.20586
 Alpha virt. eigenvalues --    3.20831   3.22858   3.23892   3.25739   3.26637
 Alpha virt. eigenvalues --    3.43969   3.46973   3.47852   3.48976   3.51241
 Alpha virt. eigenvalues --    3.52640   3.54827   3.56703   3.58225   3.60645
 Alpha virt. eigenvalues --    3.64081   3.71607   3.75993
          Condensed to atoms (all electrons):
 Mulliken charges:
               1
     1  N   -0.294430
     2  C    0.196967
     3  C    0.053684
     4  N   -0.248810
     5  C    0.149084
     6  H    0.028279
     7  N   -0.280674
     8  C    0.118616
     9  H   -0.000645
    10  N   -0.268837
    11  C    0.220603
    12  C    0.077553
    13  N   -0.059269
    14  H    0.115151
    15  H    0.085774
    16  H    0.025606
    17  H    0.032976
    18  H    0.000495
    19  N   -0.298041
    20  C    0.216820
    21  C    0.179014
    22  N   -0.104185
    23  H    0.120326
    24  H    0.118862
    25  N   -0.281701
    26  C    0.209601
    27  N   -0.117656
    28  H    0.119282
    29  C    0.177807
    30  O   -0.317380
    31  C    0.006341
    32  N   -0.212112
    33  C    0.092810
    34  H    0.024908
    35  H    0.013382
    36  H    0.036329
    37  H    0.030184
    38  H    0.066193
    39  H    0.038320
    40  H    0.068425
    41  H    0.020393
    42  C   -0.099202
    43  O   -0.271381
    44  C    0.174088
    45  H    0.131722
    46  N   -0.123618
    47  O   -0.343124
    48  C    0.328197
    49  H    0.045683
    50  C    0.155160
    51  C    0.054744
    52  N   -0.270750
    53  H    0.037034
    54  H    0.042535
    55  H    0.031250
    56  H    0.122769
    57  H    0.120494
    58  N   -0.062011
    59  C    0.101493
    60  C    0.228833
    61  N   -0.283206
    62  H    0.040506
    63  C    0.153877
    64  N   -0.303973
    65  H    0.040598
    66  C    0.141903
    67  N   -0.257405
    68  C    0.038651
    69  C    0.179065
    70  N   -0.313978
 Sum of Mulliken charges =  -0.00000
 Mulliken charges with hydrogens summed into heavy atoms:
               1
     1  N   -0.294430
     2  C    0.256043
     3  C    0.053684
     4  N   -0.248810
     5  C    0.177362
     7  N   -0.280674
     8  C    0.117972
    10  N   -0.268837
    11  C    0.220603
    12  C    0.077553
    13  N    0.141656
    19  N   -0.298041
    20  C    0.216820
    21  C    0.258909
    22  N    0.135004
    25  N   -0.281701
    26  C    0.209601
    27  N    0.001626
    29  C    0.177807
    30  O   -0.317380
    31  C    0.006341
    32  N   -0.212112
    33  C    0.117717
    42  C   -0.078809
    43  O   -0.271381
    44  C    0.174088
    46  N    0.008104
    47  O   -0.343124
    48  C    0.328197
    50  C    0.200844
    51  C    0.227682
    52  N   -0.270750
    58  N    0.181252
    59  C    0.101493
    60  C    0.228833
    61  N   -0.283206
    63  C    0.194383
    64  N   -0.303973
    66  C    0.182501
    67  N   -0.257405
    68  C    0.038651
    69  C    0.289884
    70  N   -0.313978
 Electronic spatial extent (au):  <R**2>=          23130.5530
 Charge=              0.0000 electrons
 Dipole moment (field-independent basis, Debye):
    X=             -5.7468    Y=             -7.8650    Z=              1.5094  Tot=              9.8571
 Quadrupole moment (field-independent basis, Debye-Ang):
   XX=           -147.3594   YY=           -236.5539   ZZ=           -251.8688
   XY=             -0.4446   XZ=             13.7163   YZ=             18.2838
 Traceless Quadrupole moment (field-independent basis, Debye-Ang):
   XX=             64.5680   YY=            -24.6265   ZZ=            -39.9414
   XY=             -0.4446   XZ=             13.7163   YZ=             18.2838
 Octapole moment (field-independent basis, Debye-Ang**2):
  XXX=             60.5934  YYY=           -112.5470  ZZZ=            -12.1722  XYY=           -114.3450
  XXY=           -161.6907  XXZ=             32.0774  XZZ=            -13.7181  YZZ=             -9.5760
  YYZ=             43.8782  XYZ=             15.4665
 Hexadecapole moment (field-independent basis, Debye-Ang**3):
 XXXX=         -17878.1147 YYYY=          -3635.7210 ZZZZ=          -3443.6818 XXXY=            786.2343
 XXXZ=            312.1004 YYYX=            -98.2657 YYYZ=            216.1121 ZZZX=             81.2634
 ZZZY=             40.9459 XXYY=          -3890.5519 XXZZ=          -4358.2176 YYZZ=          -1269.1497
 XXYZ=             96.2966 YYXZ=            -87.8899 ZZXY=            -12.7772
 N-N= 5.566019552697D+03 E-N=-1.591221390580D+04  KE= 2.037964235591D+03
 No NMR shielding tensors so no spin-rotation constants.
 Leave Link  601 at Thu Jan 18 21:15:39 2018, MaxMem=  4294967296 cpu:              47.7 elap:               1.7
 (Enter /share/apps/g16/l9999.exe)
 1\1\GINC-COMPUTE-0-3\SP\RwB97XD\CC-pVDZ\C23H27N17O3\SATYA\18-Jan-2018\
 0\\#p wb97xd/cc-pvdz sp scf=(maxcycles=20)\\Base pair stacking\\0,1\N,
 0,-0.69451,0.99445,-6.23698\C,0,-0.97064,2.43911,-6.11564\C,0,-0.90383
 ,-1.19469,-6.2712\N,0,0.42259,-0.92683,-6.57712\C,0,0.49561,0.38133,-6
 .54426\H,0,1.40127,0.95679,-6.73805\N,0,-2.93245,-2.31429,-5.8306\C,0,
 -3.47373,-1.10442,-5.65507\H,0,-4.53316,-1.10119,-5.40238\N,0,-2.90548
 ,0.09642,-5.7444\C,0,-1.60477,-0.02031,-6.05897\C,0,-1.62158,-2.39808,
 -6.14633\N,0,-1.07945,-3.60491,-6.32194\H,0,-0.11292,-3.71437,-6.55657
 \H,0,-1.62063,-4.44029,-6.22502\H,0,-0.77226,2.89195,-6.98498\H,0,-1.9
 3248,2.57682,-5.88105\H,0,-0.39487,2.83155,-5.39837\N,0,-0.69279,2.467
 61,-3.09692\C,0,-1.31407,1.2447,-3.01596\C,0,-1.37464,3.77653,-3.04696
 \N,0,-4.21283,-0.64089,-2.69425\H,0,-4.46321,-1.60784,-2.65467\H,0,-4.
 95762,0.0237,-2.62846\N,0,-2.64115,1.03505,-2.87827\C,0,-2.93599,-0.25
 193,-2.82948\N,0,-2.004,-1.25818,-2.90925\H,0,-2.32048,-2.21456,-2.863
 11\C,0,-0.63335,-1.06567,-3.05111\O,0,0.12257,-2.04314,-3.11344\C,0,-0
 .30128,0.3119,-3.105\N,0,0.93104,0.93662,-3.23917\C,0,0.65015,2.21146,
 -3.22938\H,0,1.38734,3.01042,-3.31589\H,0,-1.19761,4.27894,-3.89257\H,
 0,-2.35828,3.63388,-2.9451\H,0,-1.03293,4.30276,-2.26907\H,0,-4.59506,
 -6.74812,-3.21798\H,0,-4.1751,-6.86032,-1.51044\H,0,-4.53516,-5.2896,-
 2.22777\H,0,0.07316,-7.86908,-3.53066\C,0,-0.55512,-7.00374,-3.31927\O
 ,0,1.18784,-5.42782,-3.64439\C,0,0.01686,-5.69313,-3.37383\H,0,-0.4968
 ,-3.72863,-3.11841\N,0,-0.86428,-4.66931,-3.08985\O,0,-2.89522,-3.8184
 3,-2.53444\C,0,-2.19389,-4.78645,-2.77053\H,0,-2.33191,-8.12482,-2.955
 95\C,0,-1.84894,-7.1501,-3.01069\C,0,-4.08719,-6.2567,-2.4015\N,0,-2.6
 7163,-6.0818,-2.73815\H,0,-7.76659,-8.5422,-5.10496\H,0,-7.17916,-7.33
 729,-4.17478\H,0,-7.15352,-8.87557,-3.62968\H,0,-0.6757,-7.22075,-6.84
 813\H,0,-1.36751,-8.77877,-6.91212\N,0,-1.45708,-7.81518,-6.65776\C,0,
 -2.56953,-7.34483,-6.08996\C,0,-4.77477,-7.50728,-5.21117\N,0,-4.86695
 ,-6.20866,-4.88021\H,0,-3.73624,-4.50134,-4.96477\C,0,-3.74633,-5.5646
 9,-5.20024\N,0,-2.63105,-6.034,-5.76898\H,0,-5.71802,-10.58481,-5.5132
 6\C,0,-5.17317,-9.6404,-5.52657\N,0,-3.95915,-9.48701,-5.99594\C,0,-3.
 69437,-8.13904,-5.80204\C,0,-7.06334,-8.29443,-4.43858\N,0,-5.72705,-8
 .4832,-5.03583\\Version=EM64L-G16RevA.03\State=1-A\HF=-2048.7253373\RM
 SD=6.718e-09\Dipole=-3.6932736,-1.1791231,0.0941221\Quadrupole=-19.924
 6382,42.8981548,-22.9735167,20.5595099,-15.6318331,-0.2787267\PG=C01 [
 X(C23H27N17O3)]\\@


 My opinions may have changed, but not the fact that I am right.
                       -- Ashleigh Brilliant
 Job cpu time:       0 days  6 hours 21 minutes 32.6 seconds.
 Elapsed time:       0 days  0 hours 12 minutes 20.5 seconds.
 File lengths (MBytes):  RWF=    298 Int=      0 D2E=      0 Chk=     33 Scr=      1
 Normal termination of Gaussian 16 at Thu Jan 18 21:15:39 2018.
