 Entering Gaussian System, Link 0=g16
 Input=str15.-5.1.0.com
 Output=str15.-5.1.0.log
 Initial command:
 /share/apps/g16/l1.exe "/state/partition1/scr/Gau-28411.inp" -scrdir="/state/partition1/scr/"
 Entering Link 1 = /share/apps/g16/l1.exe PID=     28412.
  
 Copyright (c) 1988,1990,1992,1993,1995,1998,2003,2009,2016,
            Gaussian, Inc.  All Rights Reserved.
  
 This is part of the Gaussian(R) 16 program.  It is based on
 the Gaussian(R) 09 system (copyright 2009, Gaussian, Inc.),
 the Gaussian(R) 03 system (copyright 2003, Gaussian, Inc.),
 the Gaussian(R) 98 system (copyright 1998, Gaussian, Inc.),
 the Gaussian(R) 94 system (copyright 1995, Gaussian, Inc.),
 the Gaussian 92(TM) system (copyright 1992, Gaussian, Inc.),
 the Gaussian 90(TM) system (copyright 1990, Gaussian, Inc.),
 the Gaussian 88(TM) system (copyright 1988, Gaussian, Inc.),
 the Gaussian 86(TM) system (copyright 1986, Carnegie Mellon
 University), and the Gaussian 82(TM) system (copyright 1983,
 Carnegie Mellon University). Gaussian is a federally registered
 trademark of Gaussian, Inc.
  
 This software contains proprietary and confidential information,
 including trade secrets, belonging to Gaussian, Inc.
  
 This software is provided under written license and may be
 used, copied, transmitted, or stored only in accord with that
 written license.
  
 The following legend is applicable only to US Government
 contracts under FAR:
  
                    RESTRICTED RIGHTS LEGEND
  
 Use, reproduction and disclosure by the US Government is
 subject to restrictions as set forth in subparagraphs (a)
 and (c) of the Commercial Computer Software - Restricted
 Rights clause in FAR 52.227-19.
  
 Gaussian, Inc.
 340 Quinnipiac St., Bldg. 40, Wallingford CT 06492
  
  
 ---------------------------------------------------------------
 Warning -- This program may not be used in any manner that
 competes with the business of Gaussian, Inc. or will provide
 assistance to any competitor of Gaussian, Inc.  The licensee
 of this program is prohibited from giving any competitor of
 Gaussian, Inc. access to this program.  By using this program,
 the user acknowledges that Gaussian, Inc. is engaged in the
 business of creating and licensing software in the field of
 computational chemistry and represents and warrants to the
 licensee that it is not a competitor of Gaussian, Inc. and that
 it will not use this program in any manner prohibited above.
 ---------------------------------------------------------------
  

 Cite this work as:
 Gaussian 16, Revision A.03,
 M. J. Frisch, G. W. Trucks, H. B. Schlegel, G. E. Scuseria, 
 M. A. Robb, J. R. Cheeseman, G. Scalmani, V. Barone, 
 G. A. Petersson, H. Nakatsuji, X. Li, M. Caricato, A. V. Marenich, 
 J. Bloino, B. G. Janesko, R. Gomperts, B. Mennucci, H. P. Hratchian, 
 J. V. Ortiz, A. F. Izmaylov, J. L. Sonnenberg, D. Williams-Young, 
 F. Ding, F. Lipparini, F. Egidi, J. Goings, B. Peng, A. Petrone, 
 T. Henderson, D. Ranasinghe, V. G. Zakrzewski, J. Gao, N. Rega, 
 G. Zheng, W. Liang, M. Hada, M. Ehara, K. Toyota, R. Fukuda, 
 J. Hasegawa, M. Ishida, T. Nakajima, Y. Honda, O. Kitao, H. Nakai, 
 T. Vreven, K. Throssell, J. A. Montgomery, Jr., J. E. Peralta, 
 F. Ogliaro, M. J. Bearpark, J. J. Heyd, E. N. Brothers, K. N. Kudin, 
 V. N. Staroverov, T. A. Keith, R. Kobayashi, J. Normand, 
 K. Raghavachari, A. P. Rendell, J. C. Burant, S. S. Iyengar, 
 J. Tomasi, M. Cossi, J. M. Millam, M. Klene, C. Adamo, R. Cammi, 
 J. W. Ochterski, R. L. Martin, K. Morokuma, O. Farkas, 
 J. B. Foresman, and D. J. Fox, Gaussian, Inc., Wallingford CT, 2016.
 
 ******************************************
 Gaussian 16:  EM64L-G16RevA.03 25-Dec-2016
                19-Jan-2018 
 ******************************************
 %nprocshared=32
 Will use up to   32 processors via shared memory.
 %mem=32GB
 %chk=allatoms_t.chk
 ---------------------------------------
 #p wb97xd/cc-pvdz sp scf=(maxcycles=20)
 ---------------------------------------
 1/38=1,172=1/1;
 2/12=2,17=6,18=5,40=1/2;
 3/5=16,11=2,25=1,30=1,74=-58/1,2,3;
 4//1;
 5/5=2,7=20,38=5/2;
 6/7=2,8=2,9=2,10=2,28=1/1;
 99/5=1,9=1/99;
 Leave Link    1 at Fri Jan 19 07:59:15 2018, MaxMem=  4294967296 cpu:               2.7 elap:               0.1
 (Enter /share/apps/g16/l101.exe)
 ------------------
 Base pair stacking
 ------------------
 Symbolic Z-matrix:
 Charge =  0 Multiplicity = 1
 N                     0.60104   3.77991  -6.43385 
 C                     0.30789   5.22628  -6.42416 
 C                     0.4014    1.58979  -6.40486 
 N                     1.76002   1.85443  -6.4989 
 C                     1.82592   3.1633   -6.5126 
 H                     2.75087   3.73685  -6.57939 
 N                    -1.67159   0.47462  -6.25636 
 C                    -2.23508   1.68672  -6.22668 
 H                    -3.32173   1.69267  -6.153 
 N                    -1.6605    2.88693  -6.27412 
 C                    -0.3256    2.76678  -6.36384 
 C                    -0.32651   0.3874   -6.347 
 N                     0.23783  -0.82165  -6.37677 
 H                     1.22993  -0.93367  -6.44328 
 H                    -0.3115   -1.65622  -6.33361 
 H                     0.64718   5.64219  -7.268 
 H                    -0.67958   5.36655  -6.35815 
 H                     0.75681   5.65423  -5.63973 
 N                    -0.36367   3.94617  -3.19237 
 C                    -0.98942   2.72355  -3.15124 
 C                    -1.04752   5.2548   -3.21601 
 N                    -3.90479   0.83841  -3.05847 
 H                    -4.15748  -0.12832  -3.02959 
 H                    -4.65259   1.50285  -3.06445 
 N                    -2.32339   2.51395  -3.12573 
 C                    -2.62111   1.22728  -3.08787 
 N                    -1.68555   0.22125  -3.07586 
 H                    -2.00467  -0.73491  -3.04626 
 C                    -0.30781   0.4137   -3.10159 
 O                     0.45084  -0.56354  -3.08766 
 C                     0.02743   1.79096  -3.14235 
 N                     1.26663   2.41553  -3.1772 
 C                     0.98572   3.69007  -3.20603 
 H                     1.72749   4.48885  -3.23791 
 H                    -0.79855   5.74785  -4.04891 
 H                    -2.03624   5.11219  -3.19744 
 H                    -0.774     5.79016  -2.41765 
 H                    -4.23958  -5.27476  -3.54388 
 H                    -3.9679   -5.36723  -1.80541 
 H                    -4.26524  -3.80511  -2.56878 
 H                     0.43842  -6.39387  -3.44155 
 C                    -0.20584  -5.52692  -3.29475 
 O                     1.55835  -3.95278  -3.48674 
 C                     0.36849  -4.21635  -3.31481 
 H                    -0.16554  -2.24969  -3.12674 
 N                    -0.53396  -3.1904   -3.1192 
 O                    -2.60526  -2.33563  -2.75004 
 C                    -1.88607  -3.30545  -2.91402 
 H                    -2.0071   -6.64585  -3.07277 
 C                    -1.52137  -5.67126  -3.09685 
 C                    -3.80384  -4.7736   -2.6924 
 N                    -2.36462  -4.60089  -2.90813 
 H                    -6.55596  -5.7534   -6.06377 
 H                    -6.1312   -4.50437  -5.10377 
 H                    -6.19534  -6.01707  -4.4941 
 H                     0.72496  -4.45377  -6.66773 
 H                     0.05408  -6.01848  -6.77589 
 N                    -0.07685  -5.04542  -6.58292 
 C                    -1.26817  -4.55944  -6.22831 
 C                    -3.58835  -4.70062  -5.71983 
 N                    -3.7347   -3.38953  -5.46671 
 H                    -2.60647  -1.67871  -5.43898 
 C                    -2.5769   -2.75139  -5.62539 
 N                    -1.38263  -3.23635  -5.9805 
 H                    -4.46701  -7.79574  -6.0366 
 C                    -3.92796  -6.84856  -6.00162 
 N                    -2.65309  -6.70632  -6.27019 
 C                    -2.42474  -5.34912  -6.09529 
 C                    -5.97282  -5.47119  -5.30199 
 N                    -4.55602  -5.67539  -5.66112 
 
 ITRead=  0  0  0  0  0  0  0  0  0  0  0  0  0  0  0  0  0  0  0  0
 ITRead=  0  0  0  0  0  0  0  0  0  0  0  0  0  0  0  0  0  0  0  0
 ITRead=  0  0  0  0  0  0  0  0  0  0  0  0  0  0  0  0  0  0  0  0
 ITRead=  0  0  0  0  0  0  0  0  0  0
 MicOpt= -1 -1 -1 -1 -1 -1 -1 -1 -1 -1 -1 -1 -1 -1 -1 -1 -1 -1 -1 -1
 MicOpt= -1 -1 -1 -1 -1 -1 -1 -1 -1 -1 -1 -1 -1 -1 -1 -1 -1 -1 -1 -1
 MicOpt= -1 -1 -1 -1 -1 -1 -1 -1 -1 -1 -1 -1 -1 -1 -1 -1 -1 -1 -1 -1
 MicOpt= -1 -1 -1 -1 -1 -1 -1 -1 -1 -1
 NAtoms=     70 NQM=       70 NQMF=       0 NMMI=      0 NMMIF=      0
                NMic=       0 NMicF=      0.
                    Isotopes and Nuclear Properties:
 (Nuclear quadrupole moments (NQMom) in fm**2, nuclear magnetic moments (NMagM)
  in nuclear magnetons)

  Atom         1           2           3           4           5           6           7           8           9          10
 IAtWgt=          14          12          12          14          12           1          14          12           1          14
 AtmWgt=  14.0030740  12.0000000  12.0000000  14.0030740  12.0000000   1.0078250  14.0030740  12.0000000   1.0078250  14.0030740
 NucSpn=           2           0           0           2           0           1           2           0           1           2
 AtZEff=  -0.0000000  -0.0000000  -0.0000000  -0.0000000  -0.0000000  -0.0000000  -0.0000000  -0.0000000  -0.0000000  -0.0000000
 NQMom=    2.0440000   0.0000000   0.0000000   2.0440000   0.0000000   0.0000000   2.0440000   0.0000000   0.0000000   2.0440000
 NMagM=    0.4037610   0.0000000   0.0000000   0.4037610   0.0000000   2.7928460   0.4037610   0.0000000   2.7928460   0.4037610
 AtZNuc=   7.0000000   6.0000000   6.0000000   7.0000000   6.0000000   1.0000000   7.0000000   6.0000000   1.0000000   7.0000000

  Atom        11          12          13          14          15          16          17          18          19          20
 IAtWgt=          12          12          14           1           1           1           1           1          14          12
 AtmWgt=  12.0000000  12.0000000  14.0030740   1.0078250   1.0078250   1.0078250   1.0078250   1.0078250  14.0030740  12.0000000
 NucSpn=           0           0           2           1           1           1           1           1           2           0
 AtZEff=  -0.0000000  -0.0000000  -0.0000000  -0.0000000  -0.0000000  -0.0000000  -0.0000000  -0.0000000  -0.0000000  -0.0000000
 NQMom=    0.0000000   0.0000000   2.0440000   0.0000000   0.0000000   0.0000000   0.0000000   0.0000000   2.0440000   0.0000000
 NMagM=    0.0000000   0.0000000   0.4037610   2.7928460   2.7928460   2.7928460   2.7928460   2.7928460   0.4037610   0.0000000
 AtZNuc=   6.0000000   6.0000000   7.0000000   1.0000000   1.0000000   1.0000000   1.0000000   1.0000000   7.0000000   6.0000000

  Atom        21          22          23          24          25          26          27          28          29          30
 IAtWgt=          12          14           1           1          14          12          14           1          12          16
 AtmWgt=  12.0000000  14.0030740   1.0078250   1.0078250  14.0030740  12.0000000  14.0030740   1.0078250  12.0000000  15.9949146
 NucSpn=           0           2           1           1           2           0           2           1           0           0
 AtZEff=  -0.0000000  -0.0000000  -0.0000000  -0.0000000  -0.0000000  -0.0000000  -0.0000000  -0.0000000  -0.0000000  -0.0000000
 NQMom=    0.0000000   2.0440000   0.0000000   0.0000000   2.0440000   0.0000000   2.0440000   0.0000000   0.0000000   0.0000000
 NMagM=    0.0000000   0.4037610   2.7928460   2.7928460   0.4037610   0.0000000   0.4037610   2.7928460   0.0000000   0.0000000
 AtZNuc=   6.0000000   7.0000000   1.0000000   1.0000000   7.0000000   6.0000000   7.0000000   1.0000000   6.0000000   8.0000000

  Atom        31          32          33          34          35          36          37          38          39          40
 IAtWgt=          12          14          12           1           1           1           1           1           1           1
 AtmWgt=  12.0000000  14.0030740  12.0000000   1.0078250   1.0078250   1.0078250   1.0078250   1.0078250   1.0078250   1.0078250
 NucSpn=           0           2           0           1           1           1           1           1           1           1
 AtZEff=  -0.0000000  -0.0000000  -0.0000000  -0.0000000  -0.0000000  -0.0000000  -0.0000000  -0.0000000  -0.0000000  -0.0000000
 NQMom=    0.0000000   2.0440000   0.0000000   0.0000000   0.0000000   0.0000000   0.0000000   0.0000000   0.0000000   0.0000000
 NMagM=    0.0000000   0.4037610   0.0000000   2.7928460   2.7928460   2.7928460   2.7928460   2.7928460   2.7928460   2.7928460
 AtZNuc=   6.0000000   7.0000000   6.0000000   1.0000000   1.0000000   1.0000000   1.0000000   1.0000000   1.0000000   1.0000000

  Atom        41          42          43          44          45          46          47          48          49          50
 IAtWgt=           1          12          16          12           1          14          16          12           1          12
 AtmWgt=   1.0078250  12.0000000  15.9949146  12.0000000   1.0078250  14.0030740  15.9949146  12.0000000   1.0078250  12.0000000
 NucSpn=           1           0           0           0           1           2           0           0           1           0
 AtZEff=  -0.0000000  -0.0000000  -0.0000000  -0.0000000  -0.0000000  -0.0000000  -0.0000000  -0.0000000  -0.0000000  -0.0000000
 NQMom=    0.0000000   0.0000000   0.0000000   0.0000000   0.0000000   2.0440000   0.0000000   0.0000000   0.0000000   0.0000000
 NMagM=    2.7928460   0.0000000   0.0000000   0.0000000   2.7928460   0.4037610   0.0000000   0.0000000   2.7928460   0.0000000
 AtZNuc=   1.0000000   6.0000000   8.0000000   6.0000000   1.0000000   7.0000000   8.0000000   6.0000000   1.0000000   6.0000000

  Atom        51          52          53          54          55          56          57          58          59          60
 IAtWgt=          12          14           1           1           1           1           1          14          12          12
 AtmWgt=  12.0000000  14.0030740   1.0078250   1.0078250   1.0078250   1.0078250   1.0078250  14.0030740  12.0000000  12.0000000
 NucSpn=           0           2           1           1           1           1           1           2           0           0
 AtZEff=  -0.0000000  -0.0000000  -0.0000000  -0.0000000  -0.0000000  -0.0000000  -0.0000000  -0.0000000  -0.0000000  -0.0000000
 NQMom=    0.0000000   2.0440000   0.0000000   0.0000000   0.0000000   0.0000000   0.0000000   2.0440000   0.0000000   0.0000000
 NMagM=    0.0000000   0.4037610   2.7928460   2.7928460   2.7928460   2.7928460   2.7928460   0.4037610   0.0000000   0.0000000
 AtZNuc=   6.0000000   7.0000000   1.0000000   1.0000000   1.0000000   1.0000000   1.0000000   7.0000000   6.0000000   6.0000000

  Atom        61          62          63          64          65          66          67          68          69          70
 IAtWgt=          14           1          12          14           1          12          14          12          12          14
 AtmWgt=  14.0030740   1.0078250  12.0000000  14.0030740   1.0078250  12.0000000  14.0030740  12.0000000  12.0000000  14.0030740
 NucSpn=           2           1           0           2           1           0           2           0           0           2
 AtZEff=  -0.0000000  -0.0000000  -0.0000000  -0.0000000  -0.0000000  -0.0000000  -0.0000000  -0.0000000  -0.0000000  -0.0000000
 NQMom=    2.0440000   0.0000000   0.0000000   2.0440000   0.0000000   0.0000000   2.0440000   0.0000000   0.0000000   2.0440000
 NMagM=    0.4037610   2.7928460   0.0000000   0.4037610   2.7928460   0.0000000   0.4037610   0.0000000   0.0000000   0.4037610
 AtZNuc=   7.0000000   1.0000000   6.0000000   7.0000000   1.0000000   6.0000000   7.0000000   6.0000000   6.0000000   7.0000000
 Leave Link  101 at Fri Jan 19 07:59:16 2018, MaxMem=  4294967296 cpu:               7.7 elap:               0.3
 (Enter /share/apps/g16/l202.exe)
 Stoichiometry    C23H27N17O3
 Framework group  C1[X(C23H27N17O3)]
 Deg. of freedom   204
 Full point group                 C1      NOp   1
 Largest Abelian subgroup         C1      NOp   1
 Largest concise Abelian subgroup C1      NOp   1
                         Standard orientation:                         
 ---------------------------------------------------------------------
 Center     Atomic      Atomic             Coordinates (Angstroms)
 Number     Number       Type             X           Y           Z
 ---------------------------------------------------------------------
      1          7           0        5.144627   -1.295794   -1.343054
      2          6           0        6.443089   -0.689781   -1.696269
      3          6           0        2.991345   -1.660956   -1.083524
      4          7           0        3.639578   -2.762496   -0.543960
      5          6           0        4.910902   -2.498413   -0.721910
      6          1           0        5.728559   -3.151965   -0.416526
      7          7           0        1.321707   -0.154502   -1.794756
      8          6           0        2.317440    0.626203   -2.226732
      9          1           0        2.007157    1.560548   -2.692560
     10          7           0        3.632726    0.426967   -2.169942
     11          6           0        3.905944   -0.748480   -1.579924
     12          6           0        1.629388   -1.330619   -1.205567
     13          7           0        0.636820   -2.111312   -0.773716
     14          1           0        0.818136   -2.990469   -0.331627
     15          1           0       -0.321325   -1.844170   -0.877282
     16          1           0        6.936441   -1.295659   -2.320512
     17          1           0        6.290145    0.192329   -2.140815
     18          1           0        6.986231   -0.553836   -0.867706
     19          7           0        5.035585    1.191061    0.952412
     20          6           0        3.683942    1.423675    0.868705
     21          6           0        6.088429    2.067780    0.401409
     22          7           0        1.032285    3.404431   -0.183465
     23          1           0        0.033982    3.387033   -0.135079
     24          1           0        1.450289    4.182702   -0.652813
     25          7           0        3.095272    2.483689    0.273813
     26          6           0        1.777811    2.428435    0.356481
     27          7           0        1.087677    1.413617    0.974035
     28          1           0        0.080155    1.453948    0.989142
     29          6           0        1.672678    0.313164    1.592617
     30          8           0        0.958607   -0.547755    2.121449
     31          6           0        3.087715    0.358545    1.511977
     32          7           0        4.045769   -0.524987    1.989914
     33          6           0        5.183253    0.008612    1.635520
     34          1           0        6.163211   -0.420244    1.847779
     35          1           0        6.629337    1.561067   -0.269015
     36          1           0        5.664305    2.856443   -0.041737
     37          1           0        6.683336    2.382039    1.140414
     38          1           0       -4.915530    1.913490    0.161713
     39          1           0       -4.918130    2.551930    1.803976
     40          1           0       -3.513170    2.796505    0.765883
     41          1           0       -4.624276   -2.167031    2.693725
     42          6           0       -3.981799   -1.345932    2.375539
     43          8           0       -1.963109   -2.506006    2.829700
     44          6           0       -2.560897   -1.503586    2.439060
     45          1           0       -0.834082   -0.478930    2.043459
     46          7           0       -1.841258   -0.405372    2.013270
     47          8           0       -1.624897    1.701743    1.194459
     48          6           0       -2.344049    0.784585    1.549869
     49          1           0       -5.575660   -0.026886    1.860232
     50          6           0       -4.501994   -0.197103    1.928093
     51          6           0       -4.305921    2.112637    1.030486
     52          7           0       -3.722655    0.859867    1.518430
     53          1           0       -6.057466    2.419895   -3.060723
     54          1           0       -4.735140    2.869256   -2.217143
     55          1           0       -6.198627    2.856539   -1.494566
     56          1           0       -2.697395   -3.563718   -0.237269
     57          1           0       -4.390034   -3.454979   -0.419598
     58          7           0       -3.496458   -3.006950   -0.464533
     59          6           0       -3.376862   -1.723979   -0.812167
     60          6           0       -4.185218    0.411573   -1.481268
     61          7           0       -2.972501    0.986964   -1.533120
     62          1           0       -1.007283    0.496753   -1.219769
     63          6           0       -2.025640    0.110818   -1.203386
     64          7           0       -2.143404   -1.174585   -0.854902
     65          1           0       -7.403291    0.204855   -1.712407
     66          6           0       -6.340098    0.013967   -1.563643
     67          7           0       -5.834023   -1.137869   -1.196469
     68          6           0       -4.468444   -0.899583   -1.140440
     69          6           0       -5.614778    2.397488   -2.164325
     70          7           0       -5.399188    0.996475   -1.753620
 ---------------------------------------------------------------------
 Rotational constants (GHZ):           0.1754692           0.0520692           0.0512199
 Leave Link  202 at Fri Jan 19 07:59:16 2018, MaxMem=  4294967296 cpu:               0.4 elap:               0.0
 (Enter /share/apps/g16/l301.exe)
 Standard basis: CC-pVDZ (5D, 7F)
 Ernie: Thresh=  0.10000D-02 Tol=  0.10000D-05 Strict=F.
 Ernie:  86 primitive shells out of 1081 were deleted.
 There are   780 symmetry adapted cartesian basis functions of A   symmetry.
 There are   737 symmetry adapted basis functions of A   symmetry.
   737 basis functions,  1608 primitive gaussians,   780 cartesian basis functions
   154 alpha electrons      154 beta electrons
       nuclear repulsion energy      5611.9481816245 Hartrees.
 IExCor= 4639 DFT=T Ex+Corr=wB97XD ExCW=0 ScaHFX=  1.000000
 ScaDFX=  1.000000  1.000000  1.000000  1.000000 ScalE2=  1.000000  1.000000
 IRadAn=      5 IRanWt=     -1 IRanGd=            0 ICorTp=0 IEmpDi=121
 HFx  wShort=  0.000000 wLong=  0.200000 cFull=  0.222036 cShort=  0.000000 cLong=  0.777964
 DFx  wShort=  0.000000 wLong=  0.200000 cFull=  0.000000 cShort=  0.000000 cLong=  1.000000
 NAtoms=   70 NActive=   70 NUniq=   70 SFac= 1.00D+00 NAtFMM=   60 NAOKFM=T Big=T
 Integral buffers will be    131072 words long.
 Raffenetti 2 integral format.
 Two-electron integral symmetry is turned on.
 R6Disp:  Grimme-D2 Dispersion energy=       -0.0804588890 Hartrees.
 Nuclear repulsion after empirical dispersion term =     5611.8677227355 Hartrees.
 Leave Link  301 at Fri Jan 19 07:59:16 2018, MaxMem=  4294967296 cpu:               3.0 elap:               0.1
 (Enter /share/apps/g16/l302.exe)
 NPDir=0 NMtPBC=     1 NCelOv=     1 NCel=       1 NClECP=     1 NCelD=      1
         NCelK=      1 NCelE2=     1 NClLst=     1 CellRange=     0.0.
 One-electron integrals computed using PRISM.
 One-electron integral symmetry used in STVInt
 NBasis=   737 RedAO= T EigKep=  6.02D-04  NBF=   737
 NBsUse=   737 1.00D-06 EigRej= -1.00D+00 NBFU=   737
 Precomputing XC quadrature grid using
 IXCGrd= 4 IRadAn=           5 IRanWt=          -1 IRanGd=           0 AccXCQ= 0.00D+00.
 Generated NRdTot=       0 NPtTot=           0 NUsed=           0 NTot=          32
 NSgBfM=   769   768   769   769   769 MxSgAt=    70 MxSgA2=    70.
 Leave Link  302 at Fri Jan 19 07:59:20 2018, MaxMem=  4294967296 cpu:             136.3 elap:               4.3
 (Enter /share/apps/g16/l303.exe)
 DipDrv:  MaxL=1.
 Leave Link  303 at Fri Jan 19 07:59:21 2018, MaxMem=  4294967296 cpu:              13.2 elap:               0.5
 (Enter /share/apps/g16/l401.exe)
 ExpMin= 1.22D-01 ExpMax= 1.17D+04 ExpMxC= 4.01D+02 IAcc=3 IRadAn=         5 AccDes= 0.00D+00
 Harris functional with IExCor= 4639 and IRadAn=       5 diagonalized for initial guess.
 HarFok:  IExCor= 4639 AccDes= 0.00D+00 IRadAn=         5 IDoV= 1 UseB2=F ITyADJ=14
 ICtDFT=  3500011 ScaDFX=  1.000000  1.000000  1.000000  1.000000
 FoFCou: FMM=F IPFlag=           0 FMFlag=      100000 FMFlg1=        2001
         NFxFlg=           0 DoJE=T BraDBF=F KetDBF=T FulRan=T
         wScrn=  0.000000 ICntrl=       500 IOpCl=  0 I1Cent=   200000004 NGrid=           0
         NMat0=    1 NMatS0=      1 NMatT0=    0 NMatD0=    1 NMtDS0=    0 NMtDT0=    0
 Petite list used in FoFCou.
 Harris En= -1963.87804375831    
 JPrj=0 DoOrth=F DoCkMO=F.
 Leave Link  401 at Fri Jan 19 07:59:34 2018, MaxMem=  4294967296 cpu:             412.0 elap:              12.9
 (Enter /share/apps/g16/l502.exe)
 Integral symmetry usage will be decided dynamically.
 Closed shell SCF:
 Using DIIS extrapolation, IDIIS=  1040.
 NGot=  4294967296 LenX=  4293717438 LenY=  4293108258
 Requested convergence on RMS density matrix=1.00D-08 within  20 cycles.
 Requested convergence on MAX density matrix=1.00D-06.
 Requested convergence on             energy=1.00D-06.
 No special actions if energy rises.
 Fock matrices will be formed incrementally for  20 cycles.
 Integral accuracy reduced to 1.0D-05 until final iterations.

 Cycle   1  Pass 0  IDiag  1:
 FoFJK:  IHMeth= 1 ICntrl=       0 DoSepK=T KAlg= 0 I1Cent=           0 FoldK=F
 IRaf=         1 NMat=       1 IRICut=       1 DoRegI=T DoRafI=F ISym2E= 0 IDoP0=0 IntGTp=1.
 FoFCou: FMM=T IPFlag=           0 FMFlag=      100000 FMFlg1=        2001
         NFxFlg=           0 DoJE=T BraDBF=F KetDBF=F FulRan=T
         wScrn=  0.000000 ICntrl=       500 IOpCl=  0 I1Cent=           0 NGrid=           0
         NMat0=    1 NMatS0=      1 NMatT0=    0 NMatD0=    1 NMtDS0=    0 NMtDT0=    0
 Symmetry not used in FoFCou.
 FMM levels:  10  Number of levels for PrismC:   9
 E= -2048.31167559433    
 DIIS: error= 1.91D-02 at cycle   1 NSaved=   1.
 NSaved= 1 IEnMin= 1 EnMin= -2048.31167559433     IErMin= 1 ErrMin= 1.91D-02
 ErrMax= 1.91D-02  0.00D+00 EMaxC= 1.00D-01 BMatC= 8.35D-01 BMatP= 8.35D-01
 IDIUse=3 WtCom= 8.09D-01 WtEn= 1.91D-01
 Coeff-Com:  0.100D+01
 Coeff-En:   0.100D+01
 Coeff:      0.100D+01
 Gap=     0.255 Goal=   None    Shift=    0.000
 GapD=    0.255 DampG=1.000 DampE=0.500 DampFc=0.5000 IDamp=-1.
 Damping current iteration by 5.00D-01
 RMSDP=1.60D-03 MaxDP=1.24D-01              OVMax= 1.97D-01

 Cycle   2  Pass 0  IDiag  1:
 RMSU=  8.02D-04    CP:  9.98D-01
 E= -2048.50718500769     Delta-E=       -0.195509413356 Rises=F Damp=T
 DIIS: error= 1.06D-02 at cycle   2 NSaved=   2.
 NSaved= 2 IEnMin= 2 EnMin= -2048.50718500769     IErMin= 2 ErrMin= 1.06D-02
 ErrMax= 1.06D-02  0.00D+00 EMaxC= 1.00D-01 BMatC= 1.46D-01 BMatP= 8.35D-01
 IDIUse=3 WtCom= 8.94D-01 WtEn= 1.06D-01
 Coeff-Com: -0.187D+00 0.119D+01
 Coeff-En:   0.000D+00 0.100D+01
 Coeff:     -0.167D+00 0.117D+01
 Gap=     0.310 Goal=   None    Shift=    0.000
 RMSDP=6.06D-04 MaxDP=3.43D-02 DE=-1.96D-01 OVMax= 1.46D-01

 Cycle   3  Pass 0  IDiag  1:
 RMSU=  5.96D-04    CP:  9.94D-01  1.12D+00
 E= -2048.68307838735     Delta-E=       -0.175893379666 Rises=F Damp=F
 DIIS: error= 7.49D-03 at cycle   3 NSaved=   3.
 NSaved= 3 IEnMin= 3 EnMin= -2048.68307838735     IErMin= 3 ErrMin= 7.49D-03
 ErrMax= 7.49D-03  0.00D+00 EMaxC= 1.00D-01 BMatC= 7.00D-02 BMatP= 1.46D-01
 IDIUse=3 WtCom= 9.25D-01 WtEn= 7.49D-02
 Coeff-Com: -0.235D+00 0.563D+00 0.672D+00
 Coeff-En:   0.000D+00 0.000D+00 0.100D+01
 Coeff:     -0.217D+00 0.521D+00 0.697D+00
 Gap=     0.279 Goal=   None    Shift=    0.000
 RMSDP=3.87D-04 MaxDP=3.15D-02 DE=-1.76D-01 OVMax= 7.09D-02

 Cycle   4  Pass 0  IDiag  1:
 RMSU=  2.14D-04    CP:  9.94D-01  1.42D+00  6.46D-01
 E= -2048.73549868119     Delta-E=       -0.052420293839 Rises=F Damp=F
 DIIS: error= 2.30D-03 at cycle   4 NSaved=   4.
 NSaved= 4 IEnMin= 4 EnMin= -2048.73549868119     IErMin= 4 ErrMin= 2.30D-03
 ErrMax= 2.30D-03  0.00D+00 EMaxC= 1.00D-01 BMatC= 1.03D-02 BMatP= 7.00D-02
 IDIUse=3 WtCom= 9.77D-01 WtEn= 2.30D-02
 Coeff-Com: -0.976D-01 0.189D+00 0.377D+00 0.532D+00
 Coeff-En:   0.000D+00 0.000D+00 0.785D-01 0.921D+00
 Coeff:     -0.953D-01 0.185D+00 0.370D+00 0.541D+00
 Gap=     0.281 Goal=   None    Shift=    0.000
 RMSDP=1.35D-04 MaxDP=1.08D-02 DE=-5.24D-02 OVMax= 1.54D-02

 Cycle   5  Pass 0  IDiag  1:
 RMSU=  6.24D-05    CP:  9.94D-01  1.39D+00  7.85D-01  6.18D-01
 E= -2048.74412120910     Delta-E=       -0.008622527907 Rises=F Damp=F
 DIIS: error= 4.82D-04 at cycle   5 NSaved=   5.
 NSaved= 5 IEnMin= 5 EnMin= -2048.74412120910     IErMin= 5 ErrMin= 4.82D-04
 ErrMax= 4.82D-04  0.00D+00 EMaxC= 1.00D-01 BMatC= 2.91D-04 BMatP= 1.03D-02
 IDIUse=3 WtCom= 9.95D-01 WtEn= 4.82D-03
 Coeff-Com: -0.256D-01 0.441D-01 0.122D+00 0.235D+00 0.625D+00
 Coeff-En:   0.000D+00 0.000D+00 0.000D+00 0.000D+00 0.100D+01
 Coeff:     -0.255D-01 0.439D-01 0.121D+00 0.234D+00 0.626D+00
 Gap=     0.281 Goal=   None    Shift=    0.000
 RMSDP=2.72D-05 MaxDP=1.44D-03 DE=-8.62D-03 OVMax= 3.27D-03

 Failed to achieve initial convergence to 1.0D-08 in  6 cycles.
 Switch to full accuracy anyway.
 Cycle   6  Pass 1  IDiag  1:
 E= -2048.74423972801     Delta-E=       -0.000118518909 Rises=F Damp=F
 DIIS: error= 2.40D-04 at cycle   1 NSaved=   1.
 NSaved= 1 IEnMin= 1 EnMin= -2048.74423972801     IErMin= 1 ErrMin= 2.40D-04
 ErrMax= 2.40D-04  0.00D+00 EMaxC= 1.00D-01 BMatC= 7.83D-05 BMatP= 7.83D-05
 IDIUse=3 WtCom= 9.98D-01 WtEn= 2.40D-03
 Coeff-Com:  0.100D+01
 Coeff-En:   0.100D+01
 Coeff:      0.100D+01
 Gap=     0.281 Goal=   None    Shift=    0.000
 RMSDP=2.72D-05 MaxDP=1.44D-03 DE=-1.19D-04 OVMax= 2.74D-03

 Cycle   7  Pass 1  IDiag  1:
 RMSU=  1.15D-04    CP:  1.00D+00
 E= -2048.74429233040     Delta-E=       -0.000052602389 Rises=F Damp=F
 DIIS: error= 2.01D-04 at cycle   2 NSaved=   2.
 NSaved= 2 IEnMin= 2 EnMin= -2048.74429233040     IErMin= 2 ErrMin= 2.01D-04
 ErrMax= 2.01D-04  0.00D+00 EMaxC= 1.00D-01 BMatC= 4.70D-05 BMatP= 7.83D-05
 IDIUse=3 WtCom= 9.98D-01 WtEn= 2.01D-03
 Coeff-Com:  0.415D+00 0.585D+00
 Coeff-En:   0.418D-01 0.958D+00
 Coeff:      0.414D+00 0.586D+00
 Gap=     0.281 Goal=   None    Shift=    0.000
 RMSDP=1.24D-05 MaxDP=8.71D-04 DE=-5.26D-05 OVMax= 1.78D-03

 Cycle   8  Pass 1  IDiag  1:
 RMSU=  1.21D-05    CP:  1.00D+00  1.02D+00
 E= -2048.74432735833     Delta-E=       -0.000035027931 Rises=F Damp=F
 DIIS: error= 8.54D-05 at cycle   3 NSaved=   3.
 NSaved= 3 IEnMin= 3 EnMin= -2048.74432735833     IErMin= 3 ErrMin= 8.54D-05
 ErrMax= 8.54D-05  0.00D+00 EMaxC= 1.00D-01 BMatC= 1.04D-05 BMatP= 4.70D-05
 IDIUse=1 WtCom= 1.00D+00 WtEn= 0.00D+00
 Coeff-Com: -0.172D-01 0.307D+00 0.710D+00
 Coeff:     -0.172D-01 0.307D+00 0.710D+00
 Gap=     0.281 Goal=   None    Shift=    0.000
 RMSDP=5.84D-06 MaxDP=3.72D-04 DE=-3.50D-05 OVMax= 6.62D-04

 Cycle   9  Pass 1  IDiag  1:
 RMSU=  3.87D-06    CP:  1.00D+00  1.05D+00  7.55D-01
 E= -2048.74433752588     Delta-E=       -0.000010167549 Rises=F Damp=F
 DIIS: error= 2.48D-05 at cycle   4 NSaved=   4.
 NSaved= 4 IEnMin= 4 EnMin= -2048.74433752588     IErMin= 4 ErrMin= 2.48D-05
 ErrMax= 2.48D-05  0.00D+00 EMaxC= 1.00D-01 BMatC= 5.61D-07 BMatP= 1.04D-05
 IDIUse=1 WtCom= 1.00D+00 WtEn= 0.00D+00
 Coeff-Com: -0.300D-01 0.900D-01 0.279D+00 0.661D+00
 Coeff:     -0.300D-01 0.900D-01 0.279D+00 0.661D+00
 Gap=     0.281 Goal=   None    Shift=    0.000
 RMSDP=1.46D-06 MaxDP=1.03D-04 DE=-1.02D-05 OVMax= 4.59D-04

 Cycle  10  Pass 1  IDiag  1:
 RMSU=  1.31D-06    CP:  1.00D+00  1.05D+00  7.92D-01  1.08D+00
 E= -2048.74433839001     Delta-E=       -0.000000864135 Rises=F Damp=F
 DIIS: error= 1.41D-05 at cycle   5 NSaved=   5.
 NSaved= 5 IEnMin= 5 EnMin= -2048.74433839001     IErMin= 5 ErrMin= 1.41D-05
 ErrMax= 1.41D-05  0.00D+00 EMaxC= 1.00D-01 BMatC= 1.18D-07 BMatP= 5.61D-07
 IDIUse=1 WtCom= 1.00D+00 WtEn= 0.00D+00
 Coeff-Com: -0.408D-02-0.495D-01-0.103D+00 0.202D+00 0.955D+00
 Coeff:     -0.408D-02-0.495D-01-0.103D+00 0.202D+00 0.955D+00
 Gap=     0.281 Goal=   None    Shift=    0.000
 RMSDP=1.16D-06 MaxDP=6.54D-05 DE=-8.64D-07 OVMax= 2.65D-04

 Cycle  11  Pass 1  IDiag  1:
 RMSU=  4.97D-07    CP:  1.00D+00  1.05D+00  8.01D-01  1.34D+00  1.17D+00
 E= -2048.74433864222     Delta-E=       -0.000000252207 Rises=F Damp=F
 DIIS: error= 5.58D-06 at cycle   6 NSaved=   6.
 NSaved= 6 IEnMin= 6 EnMin= -2048.74433864222     IErMin= 6 ErrMin= 5.58D-06
 ErrMax= 5.58D-06  0.00D+00 EMaxC= 1.00D-01 BMatC= 3.16D-08 BMatP= 1.18D-07
 IDIUse=1 WtCom= 1.00D+00 WtEn= 0.00D+00
 Coeff-Com:  0.464D-02-0.457D-01-0.117D+00-0.138D-01 0.524D+00 0.648D+00
 Coeff:      0.464D-02-0.457D-01-0.117D+00-0.138D-01 0.524D+00 0.648D+00
 Gap=     0.281 Goal=   None    Shift=    0.000
 RMSDP=4.13D-07 MaxDP=3.09D-05 DE=-2.52D-07 OVMax= 1.34D-04

 Cycle  12  Pass 1  IDiag  1:
 RMSU=  1.97D-07    CP:  1.00D+00  1.05D+00  8.04D-01  1.42D+00  1.32D+00
                    CP:  9.45D-01
 E= -2048.74433868848     Delta-E=       -0.000000046261 Rises=F Damp=F
 DIIS: error= 1.03D-06 at cycle   7 NSaved=   7.
 NSaved= 7 IEnMin= 7 EnMin= -2048.74433868848     IErMin= 7 ErrMin= 1.03D-06
 ErrMax= 1.03D-06  0.00D+00 EMaxC= 1.00D-01 BMatC= 7.67D-10 BMatP= 3.16D-08
 IDIUse=1 WtCom= 1.00D+00 WtEn= 0.00D+00
 Coeff-Com:  0.120D-02-0.851D-02-0.231D-01-0.110D-01 0.724D-01 0.144D+00
 Coeff-Com:  0.825D+00
 Coeff:      0.120D-02-0.851D-02-0.231D-01-0.110D-01 0.724D-01 0.144D+00
 Coeff:      0.825D+00
 Gap=     0.281 Goal=   None    Shift=    0.000
 RMSDP=8.44D-08 MaxDP=4.86D-06 DE=-4.63D-08 OVMax= 2.57D-05

 Cycle  13  Pass 1  IDiag  1:
 RMSU=  5.44D-08    CP:  1.00D+00  1.05D+00  8.04D-01  1.43D+00  1.34D+00
                    CP:  1.03D+00  1.12D+00
 E= -2048.74433869073     Delta-E=       -0.000000002246 Rises=F Damp=F
 DIIS: error= 6.55D-07 at cycle   8 NSaved=   8.
 NSaved= 8 IEnMin= 8 EnMin= -2048.74433869073     IErMin= 8 ErrMin= 6.55D-07
 ErrMax= 6.55D-07  0.00D+00 EMaxC= 1.00D-01 BMatC= 3.42D-10 BMatP= 7.67D-10
 IDIUse=1 WtCom= 1.00D+00 WtEn= 0.00D+00
 Coeff-Com: -0.719D-03 0.881D-02 0.217D-01-0.717D-04-0.111D+00-0.113D+00
 Coeff-Com:  0.412D+00 0.784D+00
 Coeff:     -0.719D-03 0.881D-02 0.217D-01-0.717D-04-0.111D+00-0.113D+00
 Coeff:      0.412D+00 0.784D+00
 Gap=     0.281 Goal=   None    Shift=    0.000
 RMSDP=5.21D-08 MaxDP=2.71D-06 DE=-2.25D-09 OVMax= 1.23D-05

 Cycle  14  Pass 1  IDiag  1:
 RMSU=  3.01D-08    CP:  1.00D+00  1.05D+00  8.04D-01  1.43D+00  1.35D+00
                    CP:  1.07D+00  1.28D+00  1.06D+00
 E= -2048.74433869098     Delta-E=       -0.000000000250 Rises=F Damp=F
 DIIS: error= 1.73D-07 at cycle   9 NSaved=   9.
 NSaved= 9 IEnMin= 9 EnMin= -2048.74433869098     IErMin= 9 ErrMin= 1.73D-07
 ErrMax= 1.73D-07  0.00D+00 EMaxC= 1.00D-01 BMatC= 2.87D-11 BMatP= 3.42D-10
 IDIUse=1 WtCom= 1.00D+00 WtEn= 0.00D+00
 Coeff-Com: -0.409D-03 0.436D-02 0.110D-01 0.126D-02-0.505D-01-0.596D-01
 Coeff-Com:  0.838D-01 0.295D+00 0.715D+00
 Coeff:     -0.409D-03 0.436D-02 0.110D-01 0.126D-02-0.505D-01-0.596D-01
 Coeff:      0.838D-01 0.295D+00 0.715D+00
 Gap=     0.281 Goal=   None    Shift=    0.000
 RMSDP=1.37D-08 MaxDP=6.08D-07 DE=-2.50D-10 OVMax= 3.40D-06

 Cycle  15  Pass 1  IDiag  1:
 RMSU=  9.59D-09    CP:  1.00D+00  1.05D+00  8.04D-01  1.43D+00  1.35D+00
                    CP:  1.08D+00  1.31D+00  1.19D+00  1.09D+00
 E= -2048.74433869122     Delta-E=       -0.000000000243 Rises=F Damp=F
 DIIS: error= 8.12D-08 at cycle  10 NSaved=  10.
 NSaved=10 IEnMin=10 EnMin= -2048.74433869122     IErMin=10 ErrMin= 8.12D-08
 ErrMax= 8.12D-08  0.00D+00 EMaxC= 1.00D-01 BMatC= 5.33D-12 BMatP= 2.87D-11
 IDIUse=1 WtCom= 1.00D+00 WtEn= 0.00D+00
 Coeff-Com:  0.560D-05-0.299D-03-0.651D-03 0.200D-03 0.520D-02 0.185D-02
 Coeff-Com: -0.561D-01-0.695D-01 0.258D+00 0.862D+00
 Coeff:      0.560D-05-0.299D-03-0.651D-03 0.200D-03 0.520D-02 0.185D-02
 Coeff:     -0.561D-01-0.695D-01 0.258D+00 0.862D+00
 Gap=     0.281 Goal=   None    Shift=    0.000
 RMSDP=7.42D-09 MaxDP=3.76D-07 DE=-2.43D-10 OVMax= 1.73D-06

 SCF Done:  E(RwB97XD) =  -2048.74433869     A.U. after   15 cycles
            NFock= 15  Conv=0.74D-08     -V/T= 2.0054
 KE= 2.037832530875D+03 PE=-1.600414161121D+04 EE= 6.305697018910D+03
 Leave Link  502 at Fri Jan 19 08:11:45 2018, MaxMem=  4294967296 cpu:           22629.7 elap:             731.2
 (Enter /share/apps/g16/l601.exe)
 Copying SCF densities to generalized density rwf, IOpCl= 0 IROHF=0.

 **********************************************************************

            Population analysis using the SCF density.

 **********************************************************************

 Orbital symmetries:
       Occupied  (A) (A) (A) (A) (A) (A) (A) (A) (A) (A) (A) (A)
                 (A) (A) (A) (A) (A) (A) (A) (A) (A) (A) (A) (A)
                 (A) (A) (A) (A) (A) (A) (A) (A) (A) (A) (A) (A)
                 (A) (A) (A) (A) (A) (A) (A) (A) (A) (A) (A) (A)
                 (A) (A) (A) (A) (A) (A) (A) (A) (A) (A) (A) (A)
                 (A) (A) (A) (A) (A) (A) (A) (A) (A) (A) (A) (A)
                 (A) (A) (A) (A) (A) (A) (A) (A) (A) (A) (A) (A)
                 (A) (A) (A) (A) (A) (A) (A) (A) (A) (A) (A) (A)
                 (A) (A) (A) (A) (A) (A) (A) (A) (A) (A) (A) (A)
                 (A) (A) (A) (A) (A) (A) (A) (A) (A) (A) (A) (A)
                 (A) (A) (A) (A) (A) (A) (A) (A) (A) (A) (A) (A)
                 (A) (A) (A) (A) (A) (A) (A) (A) (A) (A) (A) (A)
                 (A) (A) (A) (A) (A) (A) (A) (A) (A) (A)
       Virtual   (A) (A) (A) (A) (A) (A) (A) (A) (A) (A) (A) (A)
                 (A) (A) (A) (A) (A) (A) (A) (A) (A) (A) (A) (A)
                 (A) (A) (A) (A) (A) (A) (A) (A) (A) (A) (A) (A)
                 (A) (A) (A) (A) (A) (A) (A) (A) (A) (A) (A) (A)
                 (A) (A) (A) (A) (A) (A) (A) (A) (A) (A) (A) (A)
                 (A) (A) (A) (A) (A) (A) (A) (A) (A) (A) (A) (A)
                 (A) (A) (A) (A) (A) (A) (A) (A) (A) (A) (A) (A)
                 (A) (A) (A) (A) (A) (A) (A) (A) (A) (A) (A) (A)
                 (A) (A) (A) (A) (A) (A) (A) (A) (A) (A) (A) (A)
                 (A) (A) (A) (A) (A) (A) (A) (A) (A) (A) (A) (A)
                 (A) (A) (A) (A) (A) (A) (A) (A) (A) (A) (A) (A)
                 (A) (A) (A) (A) (A) (A) (A) (A) (A) (A) (A) (A)
                 (A) (A) (A) (A) (A) (A) (A) (A) (A) (A) (A) (A)
                 (A) (A) (A) (A) (A) (A) (A) (A) (A) (A) (A) (A)
                 (A) (A) (A) (A) (A) (A) (A) (A) (A) (A) (A) (A)
                 (A) (A) (A) (A) (A) (A) (A) (A) (A) (A) (A) (A)
                 (A) (A) (A) (A) (A) (A) (A) (A) (A) (A) (A) (A)
                 (A) (A) (A) (A) (A) (A) (A) (A) (A) (A) (A) (A)
                 (A) (A) (A) (A) (A) (A) (A) (A) (A) (A) (A) (A)
                 (A) (A) (A) (A) (A) (A) (A) (A) (A) (A) (A) (A)
                 (A) (A) (A) (A) (A) (A) (A) (A) (A) (A) (A) (A)
                 (A) (A) (A) (A) (A) (A) (A) (A) (A) (A) (A) (A)
                 (A) (A) (A) (A) (A) (A) (A) (A) (A) (A) (A) (A)
                 (A) (A) (A) (A) (A) (A) (A) (A) (A) (A) (A) (A)
                 (A) (A) (A) (A) (A) (A) (A) (A) (A) (A) (A) (A)
                 (A) (A) (A) (A) (A) (A) (A) (A) (A) (A) (A) (A)
                 (A) (A) (A) (A) (A) (A) (A) (A) (A) (A) (A) (A)
                 (A) (A) (A) (A) (A) (A) (A) (A) (A) (A) (A) (A)
                 (A) (A) (A) (A) (A) (A) (A) (A) (A) (A) (A) (A)
                 (A) (A) (A) (A) (A) (A) (A) (A) (A) (A) (A) (A)
                 (A) (A) (A) (A) (A) (A) (A) (A) (A) (A) (A) (A)
                 (A) (A) (A) (A) (A) (A) (A) (A) (A) (A) (A) (A)
                 (A) (A) (A) (A) (A) (A) (A) (A) (A) (A) (A) (A)
                 (A) (A) (A) (A) (A) (A) (A) (A) (A) (A) (A) (A)
                 (A) (A) (A) (A) (A) (A) (A) (A) (A) (A) (A) (A)
                 (A) (A) (A) (A) (A) (A) (A) (A) (A) (A) (A) (A)
                 (A) (A) (A) (A) (A) (A) (A) (A) (A) (A) (A) (A)
                 (A) (A) (A) (A) (A) (A) (A) (A) (A) (A) (A) (A)
                 (A) (A) (A) (A) (A) (A) (A) (A) (A) (A) (A) (A)
                 (A) (A) (A) (A) (A) (A) (A) (A) (A) (A) (A) (A)
                 (A) (A) (A) (A) (A) (A) (A) (A) (A) (A) (A) (A)
                 (A) (A) (A) (A) (A) (A) (A) (A) (A) (A) (A) (A)
                 (A) (A) (A) (A) (A) (A) (A) (A) (A) (A) (A) (A)
                 (A) (A) (A) (A) (A) (A) (A) (A) (A) (A) (A) (A)
                 (A) (A) (A) (A) (A) (A) (A) (A) (A) (A) (A) (A)
                 (A) (A) (A) (A) (A) (A) (A) (A) (A) (A) (A) (A)
                 (A) (A) (A) (A) (A) (A) (A) (A) (A) (A) (A) (A)
                 (A) (A) (A) (A) (A) (A) (A) (A) (A) (A) (A) (A)
                 (A) (A) (A) (A) (A) (A) (A)
 The electronic state is 1-A.
 Alpha  occ. eigenvalues --  -19.25222 -19.21535 -19.20584 -14.52674 -14.51819
 Alpha  occ. eigenvalues --  -14.49107 -14.49026 -14.48070 -14.47216 -14.46647
 Alpha  occ. eigenvalues --  -14.46576 -14.45506 -14.44466 -14.44420 -14.42847
 Alpha  occ. eigenvalues --  -14.41817 -14.41476 -14.41353 -14.41148 -14.40906
 Alpha  occ. eigenvalues --  -10.44829 -10.41039 -10.39987 -10.39609 -10.38200
 Alpha  occ. eigenvalues --  -10.38079 -10.37280 -10.37115 -10.35991 -10.35966
 Alpha  occ. eigenvalues --  -10.34398 -10.34373 -10.34311 -10.34250 -10.33735
 Alpha  occ. eigenvalues --  -10.33658 -10.33588 -10.32712 -10.31764 -10.31205
 Alpha  occ. eigenvalues --  -10.30460 -10.28850 -10.28210  -1.18878  -1.15460
 Alpha  occ. eigenvalues --   -1.13169  -1.12529  -1.11655  -1.10721  -1.09408
 Alpha  occ. eigenvalues --   -1.08730  -1.08475  -1.05588  -1.04873  -1.01928
 Alpha  occ. eigenvalues --   -1.01165  -1.00932  -0.99631  -0.98489  -0.97370
 Alpha  occ. eigenvalues --   -0.96957  -0.96711  -0.93264  -0.90414  -0.87814
 Alpha  occ. eigenvalues --   -0.86188  -0.84572  -0.84112  -0.83131  -0.82994
 Alpha  occ. eigenvalues --   -0.82543  -0.78281  -0.77152  -0.74984  -0.74701
 Alpha  occ. eigenvalues --   -0.73569  -0.73335  -0.72792  -0.71504  -0.70505
 Alpha  occ. eigenvalues --   -0.67381  -0.66886  -0.66766  -0.66013  -0.64388
 Alpha  occ. eigenvalues --   -0.64311  -0.63560  -0.63199  -0.62565  -0.61791
 Alpha  occ. eigenvalues --   -0.61706  -0.60891  -0.60566  -0.59684  -0.58987
 Alpha  occ. eigenvalues --   -0.58574  -0.58457  -0.58235  -0.57058  -0.56049
 Alpha  occ. eigenvalues --   -0.55672  -0.55530  -0.55483  -0.54231  -0.54159
 Alpha  occ. eigenvalues --   -0.53972  -0.53793  -0.53407  -0.53102  -0.52967
 Alpha  occ. eigenvalues --   -0.52939  -0.52277  -0.51767  -0.50960  -0.50632
 Alpha  occ. eigenvalues --   -0.50243  -0.50103  -0.49350  -0.49144  -0.48849
 Alpha  occ. eigenvalues --   -0.48581  -0.48340  -0.48224  -0.48025  -0.47397
 Alpha  occ. eigenvalues --   -0.47147  -0.46101  -0.45003  -0.44958  -0.43005
 Alpha  occ. eigenvalues --   -0.41406  -0.40831  -0.38913  -0.37833  -0.37640
 Alpha  occ. eigenvalues --   -0.37556  -0.37170  -0.36940  -0.35989  -0.34687
 Alpha  occ. eigenvalues --   -0.34574  -0.34199  -0.33933  -0.33635  -0.32925
 Alpha  occ. eigenvalues --   -0.32577  -0.32389  -0.31848  -0.31363  -0.31149
 Alpha  occ. eigenvalues --   -0.30797  -0.30036  -0.26862  -0.24798
 Alpha virt. eigenvalues --    0.03289   0.04234   0.06785   0.07171   0.08442
 Alpha virt. eigenvalues --    0.09158   0.09928   0.10273   0.11080   0.12600
 Alpha virt. eigenvalues --    0.13039   0.13364   0.14157   0.14550   0.14695
 Alpha virt. eigenvalues --    0.15132   0.16190   0.17557   0.17964   0.18239
 Alpha virt. eigenvalues --    0.18333   0.19444   0.19495   0.20371   0.20554
 Alpha virt. eigenvalues --    0.20659   0.20970   0.21127   0.21563   0.21906
 Alpha virt. eigenvalues --    0.22245   0.22754   0.23181   0.23471   0.23811
 Alpha virt. eigenvalues --    0.24109   0.24357   0.24931   0.25103   0.25543
 Alpha virt. eigenvalues --    0.26919   0.27354   0.27801   0.27861   0.28179
 Alpha virt. eigenvalues --    0.28702   0.28968   0.29379   0.30564   0.30640
 Alpha virt. eigenvalues --    0.30906   0.31842   0.32437   0.33131   0.33266
 Alpha virt. eigenvalues --    0.34215   0.34716   0.35310   0.35715   0.36488
 Alpha virt. eigenvalues --    0.36542   0.37021   0.37751   0.38048   0.38793
 Alpha virt. eigenvalues --    0.39397   0.39951   0.40626   0.41670   0.42048
 Alpha virt. eigenvalues --    0.42242   0.42588   0.43133   0.43982   0.44360
 Alpha virt. eigenvalues --    0.45162   0.45662   0.46038   0.46439   0.46825
 Alpha virt. eigenvalues --    0.47082   0.47700   0.48096   0.48406   0.49142
 Alpha virt. eigenvalues --    0.49811   0.50025   0.50651   0.50976   0.51507
 Alpha virt. eigenvalues --    0.52049   0.52679   0.52777   0.53031   0.53251
 Alpha virt. eigenvalues --    0.54105   0.54337   0.54697   0.55135   0.55600
 Alpha virt. eigenvalues --    0.56107   0.56555   0.56857   0.57248   0.57390
 Alpha virt. eigenvalues --    0.58071   0.58544   0.58875   0.59000   0.59193
 Alpha virt. eigenvalues --    0.60173   0.60553   0.61349   0.61515   0.61862
 Alpha virt. eigenvalues --    0.62341   0.62889   0.62982   0.63235   0.63501
 Alpha virt. eigenvalues --    0.64278   0.64639   0.64946   0.65564   0.66260
 Alpha virt. eigenvalues --    0.66464   0.66577   0.67210   0.67711   0.68369
 Alpha virt. eigenvalues --    0.68444   0.68805   0.69125   0.69589   0.70637
 Alpha virt. eigenvalues --    0.70713   0.71411   0.71586   0.71721   0.72498
 Alpha virt. eigenvalues --    0.72759   0.73431   0.74150   0.74194   0.74553
 Alpha virt. eigenvalues --    0.74685   0.75058   0.75200   0.75654   0.75915
 Alpha virt. eigenvalues --    0.76454   0.76710   0.76834   0.76986   0.78045
 Alpha virt. eigenvalues --    0.78230   0.78619   0.78986   0.79753   0.79944
 Alpha virt. eigenvalues --    0.80158   0.80467   0.81355   0.81729   0.81836
 Alpha virt. eigenvalues --    0.82043   0.82635   0.83202   0.83645   0.83904
 Alpha virt. eigenvalues --    0.84260   0.85001   0.85086   0.85660   0.85874
 Alpha virt. eigenvalues --    0.86141   0.86618   0.87152   0.87637   0.88285
 Alpha virt. eigenvalues --    0.88390   0.89106   0.89393   0.90014   0.90489
 Alpha virt. eigenvalues --    0.90612   0.91435   0.92045   0.92368   0.93320
 Alpha virt. eigenvalues --    0.93484   0.93783   0.94149   0.95025   0.95059
 Alpha virt. eigenvalues --    0.95702   0.96092   0.96396   0.97231   0.97521
 Alpha virt. eigenvalues --    0.97792   0.98140   0.98282   0.99255   1.00027
 Alpha virt. eigenvalues --    1.00143   1.00494   1.01173   1.01453   1.02096
 Alpha virt. eigenvalues --    1.03036   1.03237   1.03599   1.03728   1.04105
 Alpha virt. eigenvalues --    1.04598   1.05010   1.05279   1.05693   1.06176
 Alpha virt. eigenvalues --    1.06987   1.07799   1.08337   1.08756   1.09518
 Alpha virt. eigenvalues --    1.09926   1.10455   1.10840   1.11302   1.11920
 Alpha virt. eigenvalues --    1.12319   1.12734   1.13066   1.13630   1.14358
 Alpha virt. eigenvalues --    1.14992   1.15185   1.15335   1.15965   1.16366
 Alpha virt. eigenvalues --    1.17098   1.17557   1.17701   1.18009   1.18419
 Alpha virt. eigenvalues --    1.19121   1.19303   1.19846   1.20237   1.20443
 Alpha virt. eigenvalues --    1.20770   1.21222   1.21978   1.22025   1.22389
 Alpha virt. eigenvalues --    1.22920   1.23334   1.23720   1.24164   1.24195
 Alpha virt. eigenvalues --    1.24763   1.25422   1.25577   1.26277   1.27289
 Alpha virt. eigenvalues --    1.27461   1.27527   1.27805   1.28469   1.28939
 Alpha virt. eigenvalues --    1.29801   1.30220   1.30706   1.30970   1.32199
 Alpha virt. eigenvalues --    1.32317   1.32853   1.33408   1.34008   1.34463
 Alpha virt. eigenvalues --    1.35383   1.35924   1.36360   1.36772   1.37614
 Alpha virt. eigenvalues --    1.38647   1.39372   1.39657   1.40076   1.40453
 Alpha virt. eigenvalues --    1.41725   1.42892   1.43737   1.44313   1.45109
 Alpha virt. eigenvalues --    1.45843   1.46490   1.47117   1.47806   1.48361
 Alpha virt. eigenvalues --    1.48872   1.50056   1.51307   1.51974   1.53388
 Alpha virt. eigenvalues --    1.53540   1.54274   1.54662   1.55512   1.56112
 Alpha virt. eigenvalues --    1.56585   1.57070   1.57731   1.58073   1.58351
 Alpha virt. eigenvalues --    1.60090   1.60348   1.60628   1.61743   1.62315
 Alpha virt. eigenvalues --    1.62631   1.63302   1.63674   1.64761   1.65069
 Alpha virt. eigenvalues --    1.65421   1.66170   1.66443   1.66823   1.67884
 Alpha virt. eigenvalues --    1.68050   1.68317   1.69208   1.69600   1.70300
 Alpha virt. eigenvalues --    1.71023   1.71509   1.71712   1.72193   1.72529
 Alpha virt. eigenvalues --    1.72743   1.72955   1.73360   1.73996   1.75013
 Alpha virt. eigenvalues --    1.75205   1.75783   1.75927   1.76040   1.76561
 Alpha virt. eigenvalues --    1.76920   1.77130   1.77415   1.77889   1.78232
 Alpha virt. eigenvalues --    1.78588   1.79157   1.79399   1.79593   1.80099
 Alpha virt. eigenvalues --    1.80707   1.80802   1.81435   1.81797   1.82431
 Alpha virt. eigenvalues --    1.82474   1.82906   1.83231   1.83439   1.84143
 Alpha virt. eigenvalues --    1.84183   1.85081   1.85391   1.85883   1.86565
 Alpha virt. eigenvalues --    1.86984   1.87389   1.87632   1.88175   1.88474
 Alpha virt. eigenvalues --    1.89057   1.89123   1.89599   1.89803   1.89954
 Alpha virt. eigenvalues --    1.91046   1.91799   1.92173   1.92725   1.93224
 Alpha virt. eigenvalues --    1.93906   1.94665   1.95240   1.95927   1.96369
 Alpha virt. eigenvalues --    1.96430   1.97800   1.97933   1.98224   1.99181
 Alpha virt. eigenvalues --    1.99628   2.00312   2.01225   2.01727   2.02416
 Alpha virt. eigenvalues --    2.03167   2.03883   2.04209   2.05442   2.05795
 Alpha virt. eigenvalues --    2.06711   2.06768   2.07737   2.08744   2.09065
 Alpha virt. eigenvalues --    2.09801   2.10252   2.10889   2.11218   2.11675
 Alpha virt. eigenvalues --    2.12164   2.12315   2.13943   2.15624   2.15986
 Alpha virt. eigenvalues --    2.16476   2.16875   2.17378   2.18055   2.19273
 Alpha virt. eigenvalues --    2.20182   2.20395   2.21263   2.22248   2.22409
 Alpha virt. eigenvalues --    2.22726   2.23023   2.24147   2.24897   2.25296
 Alpha virt. eigenvalues --    2.25848   2.26053   2.26544   2.27239   2.27374
 Alpha virt. eigenvalues --    2.28276   2.28737   2.29571   2.29864   2.29938
 Alpha virt. eigenvalues --    2.30735   2.31962   2.32357   2.32645   2.33083
 Alpha virt. eigenvalues --    2.33650   2.34591   2.34821   2.35329   2.36006
 Alpha virt. eigenvalues --    2.36348   2.36498   2.36919   2.37869   2.38490
 Alpha virt. eigenvalues --    2.39014   2.40217   2.40525   2.41373   2.41835
 Alpha virt. eigenvalues --    2.42420   2.43408   2.43451   2.43851   2.45091
 Alpha virt. eigenvalues --    2.45448   2.46058   2.46313   2.47112   2.48348
 Alpha virt. eigenvalues --    2.49080   2.50020   2.50485   2.51939   2.52245
 Alpha virt. eigenvalues --    2.52415   2.54648   2.56465   2.56625   2.57257
 Alpha virt. eigenvalues --    2.58059   2.58521   2.59594   2.61332   2.61639
 Alpha virt. eigenvalues --    2.62332   2.63683   2.63945   2.64993   2.65343
 Alpha virt. eigenvalues --    2.65780   2.66146   2.66352   2.66520   2.67202
 Alpha virt. eigenvalues --    2.68157   2.68746   2.68971   2.69961   2.70896
 Alpha virt. eigenvalues --    2.71537   2.71966   2.72575   2.72781   2.74311
 Alpha virt. eigenvalues --    2.75455   2.75583   2.75856   2.77466   2.77801
 Alpha virt. eigenvalues --    2.78307   2.78454   2.79217   2.79740   2.79951
 Alpha virt. eigenvalues --    2.80489   2.81276   2.81569   2.82017   2.82311
 Alpha virt. eigenvalues --    2.82805   2.83058   2.84012   2.84451   2.85235
 Alpha virt. eigenvalues --    2.85883   2.86440   2.86948   2.87030   2.87424
 Alpha virt. eigenvalues --    2.88307   2.89217   2.90385   2.94046   2.94701
 Alpha virt. eigenvalues --    2.95108   2.97954   2.99025   2.99298   3.00151
 Alpha virt. eigenvalues --    3.02072   3.02676   3.03127   3.04540   3.06447
 Alpha virt. eigenvalues --    3.07423   3.10010   3.10693   3.13434   3.15321
 Alpha virt. eigenvalues --    3.15514   3.16596   3.17822   3.19055   3.21169
 Alpha virt. eigenvalues --    3.21631   3.23553   3.24360   3.24964   3.28310
 Alpha virt. eigenvalues --    3.44917   3.47129   3.47907   3.49158   3.51124
 Alpha virt. eigenvalues --    3.53025   3.54913   3.56595   3.58494   3.60406
 Alpha virt. eigenvalues --    3.64134   3.71766   3.75863
          Condensed to atoms (all electrons):
 Mulliken charges:
               1
     1  N   -0.298195
     2  C    0.177700
     3  C    0.070085
     4  N   -0.245538
     5  C    0.135176
     6  H    0.024774
     7  N   -0.284739
     8  C    0.131076
     9  H    0.007914
    10  N   -0.273185
    11  C    0.220375
    12  C    0.070430
    13  N   -0.044217
    14  H    0.113268
    15  H    0.085030
    16  H    0.028018
    17  H    0.040105
    18  H    0.015787
    19  N   -0.295759
    20  C    0.243517
    21  C    0.192318
    22  N   -0.117832
    23  H    0.119277
    24  H    0.118152
    25  N   -0.290348
    26  C    0.217821
    27  N   -0.125424
    28  H    0.118391
    29  C    0.172940
    30  O   -0.321716
    31  C   -0.004137
    32  N   -0.212808
    33  C    0.107732
    34  H    0.020689
    35  H   -0.005367
    36  H    0.034858
    37  H    0.024901
    38  H    0.030637
    39  H    0.053885
    40  H    0.078412
    41  H    0.021857
    42  C   -0.102241
    43  O   -0.271428
    44  C    0.166376
    45  H    0.128239
    46  N   -0.106784
    47  O   -0.345663
    48  C    0.326922
    49  H    0.044983
    50  C    0.167989
    51  C    0.053962
    52  N   -0.273661
    53  H    0.036163
    54  H    0.042447
    55  H    0.030366
    56  H    0.125593
    57  H    0.118604
    58  N   -0.053507
    59  C    0.094227
    60  C    0.196426
    61  N   -0.260080
    62  H    0.019242
    63  C    0.166263
    64  N   -0.300228
    65  H    0.036422
    66  C    0.127016
    67  N   -0.251750
    68  C    0.053212
    69  C    0.177516
    70  N   -0.302489
 Sum of Mulliken charges =  -0.00000
 Mulliken charges with hydrogens summed into heavy atoms:
               1
     1  N   -0.298195
     2  C    0.261611
     3  C    0.070085
     4  N   -0.245538
     5  C    0.159951
     7  N   -0.284739
     8  C    0.138990
    10  N   -0.273185
    11  C    0.220375
    12  C    0.070430
    13  N    0.154081
    19  N   -0.295759
    20  C    0.243517
    21  C    0.246710
    22  N    0.119597
    25  N   -0.290348
    26  C    0.217821
    27  N   -0.007033
    29  C    0.172940
    30  O   -0.321716
    31  C   -0.004137
    32  N   -0.212808
    33  C    0.128421
    42  C   -0.080383
    43  O   -0.271428
    44  C    0.166376
    46  N    0.021455
    47  O   -0.345663
    48  C    0.326922
    50  C    0.212972
    51  C    0.216896
    52  N   -0.273661
    58  N    0.190690
    59  C    0.094227
    60  C    0.196426
    61  N   -0.260080
    63  C    0.185505
    64  N   -0.300228
    66  C    0.163438
    67  N   -0.251750
    68  C    0.053212
    69  C    0.286493
    70  N   -0.302489
 Electronic spatial extent (au):  <R**2>=          22001.7108
 Charge=             -0.0000 electrons
 Dipole moment (field-independent basis, Debye):
    X=             -5.3130    Y=              6.4598    Z=             -4.3237  Tot=              9.4155
 Quadrupole moment (field-independent basis, Debye-Ang):
   XX=           -147.6266   YY=           -225.0830   ZZ=           -262.4023
   XY=             -9.6181   XZ=             -2.0817   YZ=              6.5326
 Traceless Quadrupole moment (field-independent basis, Debye-Ang):
   XX=             64.0774   YY=            -13.3790   ZZ=            -50.6983
   XY=             -9.6181   XZ=             -2.0817   YZ=              6.5326
 Octapole moment (field-independent basis, Debye-Ang**2):
  XXX=             93.0242  YYY=             46.0006  ZZZ=            -30.8056  XYY=            -66.0858
  XXY=            106.4479  XXZ=            -52.0013  XZZ=            -47.1298  YZZ=             53.9980
  YYZ=            -46.6697  XYZ=             40.3802
 Hexadecapole moment (field-independent basis, Debye-Ang**3):
 XXXX=         -16529.8687 YYYY=          -3566.3263 ZZZZ=          -3750.2830 XXXY=           -745.2572
 XXXZ=             61.7935 YYYX=            136.6531 YYYZ=            -54.4856 ZZZX=             38.7803
 ZZZY=             44.9769 XXYY=          -3825.7679 XXZZ=          -3999.0818 YYZZ=          -1341.7459
 XXYZ=            -96.0477 YYXZ=             54.4037 ZZXY=           -113.5579
 N-N= 5.611867722736D+03 E-N=-1.600414159547D+04  KE= 2.037832530875D+03
 No NMR shielding tensors so no spin-rotation constants.
 Leave Link  601 at Fri Jan 19 08:11:47 2018, MaxMem=  4294967296 cpu:              49.4 elap:               1.7
 (Enter /share/apps/g16/l9999.exe)
 1\1\GINC-COMPUTE-0-3\SP\RwB97XD\CC-pVDZ\C23H27N17O3\SATYA\19-Jan-2018\
 0\\#p wb97xd/cc-pvdz sp scf=(maxcycles=20)\\Base pair stacking\\0,1\N,
 0,0.60104,3.77991,-6.43385\C,0,0.30789,5.22628,-6.42416\C,0,0.4014,1.5
 8979,-6.40486\N,0,1.76002,1.85443,-6.4989\C,0,1.82592,3.1633,-6.5126\H
 ,0,2.75087,3.73685,-6.57939\N,0,-1.67159,0.47462,-6.25636\C,0,-2.23508
 ,1.68672,-6.22668\H,0,-3.32173,1.69267,-6.153\N,0,-1.6605,2.88693,-6.2
 7412\C,0,-0.3256,2.76678,-6.36384\C,0,-0.32651,0.3874,-6.347\N,0,0.237
 83,-0.82165,-6.37677\H,0,1.22993,-0.93367,-6.44328\H,0,-0.3115,-1.6562
 2,-6.33361\H,0,0.64718,5.64219,-7.268\H,0,-0.67958,5.36655,-6.35815\H,
 0,0.75681,5.65423,-5.63973\N,0,-0.36367,3.94617,-3.19237\C,0,-0.98942,
 2.72355,-3.15124\C,0,-1.04752,5.2548,-3.21601\N,0,-3.90479,0.83841,-3.
 05847\H,0,-4.15748,-0.12832,-3.02959\H,0,-4.65259,1.50285,-3.06445\N,0
 ,-2.32339,2.51395,-3.12573\C,0,-2.62111,1.22728,-3.08787\N,0,-1.68555,
 0.22125,-3.07586\H,0,-2.00467,-0.73491,-3.04626\C,0,-0.30781,0.4137,-3
 .10159\O,0,0.45084,-0.56354,-3.08766\C,0,0.02743,1.79096,-3.14235\N,0,
 1.26663,2.41553,-3.1772\C,0,0.98572,3.69007,-3.20603\H,0,1.72749,4.488
 85,-3.23791\H,0,-0.79855,5.74785,-4.04891\H,0,-2.03624,5.11219,-3.1974
 4\H,0,-0.774,5.79016,-2.41765\H,0,-4.23958,-5.27476,-3.54388\H,0,-3.96
 79,-5.36723,-1.80541\H,0,-4.26524,-3.80511,-2.56878\H,0,0.43842,-6.393
 87,-3.44155\C,0,-0.20584,-5.52692,-3.29475\O,0,1.55835,-3.95278,-3.486
 74\C,0,0.36849,-4.21635,-3.31481\H,0,-0.16554,-2.24969,-3.12674\N,0,-0
 .53396,-3.1904,-3.1192\O,0,-2.60526,-2.33563,-2.75004\C,0,-1.88607,-3.
 30545,-2.91402\H,0,-2.0071,-6.64585,-3.07277\C,0,-1.52137,-5.67126,-3.
 09685\C,0,-3.80384,-4.7736,-2.6924\N,0,-2.36462,-4.60089,-2.90813\H,0,
 -6.55596,-5.7534,-6.06377\H,0,-6.1312,-4.50437,-5.10377\H,0,-6.19534,-
 6.01707,-4.4941\H,0,0.72496,-4.45377,-6.66773\H,0,0.05408,-6.01848,-6.
 77589\N,0,-0.07685,-5.04542,-6.58292\C,0,-1.26817,-4.55944,-6.22831\C,
 0,-3.58835,-4.70062,-5.71983\N,0,-3.7347,-3.38953,-5.46671\H,0,-2.6064
 7,-1.67871,-5.43898\C,0,-2.5769,-2.75139,-5.62539\N,0,-1.38263,-3.2363
 5,-5.9805\H,0,-4.46701,-7.79574,-6.0366\C,0,-3.92796,-6.84856,-6.00162
 \N,0,-2.65309,-6.70632,-6.27019\C,0,-2.42474,-5.34912,-6.09529\C,0,-5.
 97282,-5.47119,-5.30199\N,0,-4.55602,-5.67539,-5.66112\\Version=EM64L-
 G16RevA.03\State=1-A\HF=-2048.7443387\RMSD=7.424e-09\Dipole=-3.5294933
 ,-1.1104439,-0.1779769\Quadrupole=-12.5278593,38.8064498,-26.2785905,2
 3.7382511,-15.2134769,-0.2682426\PG=C01 [X(C23H27N17O3)]\\@


 TOM, TOM, THE BURGLAR'S SON
 STOLE A MACHINE AND AWAY HE RUN
 THE JOB WAS NEAT, BUT TOM GOT BEAT
 BY THE TIME HE GOT HOME IT WAS OBSOLETE.
 Job cpu time:       0 days  6 hours 27 minutes 36.9 seconds.
 Elapsed time:       0 days  0 hours 12 minutes 31.3 seconds.
 File lengths (MBytes):  RWF=    298 Int=      0 D2E=      0 Chk=     33 Scr=      1
 Normal termination of Gaussian 16 at Fri Jan 19 08:11:47 2018.
