 Entering Gaussian System, Link 0=g16
 Input=str15.-15.1.0.com
 Output=str15.-15.1.0.log
 Initial command:
 /share/apps/g16/l1.exe "/state/partition1/scr/Gau-12944.inp" -scrdir="/state/partition1/scr/"
 Entering Link 1 = /share/apps/g16/l1.exe PID=     12945.
  
 Copyright (c) 1988,1990,1992,1993,1995,1998,2003,2009,2016,
            Gaussian, Inc.  All Rights Reserved.
  
 This is part of the Gaussian(R) 16 program.  It is based on
 the Gaussian(R) 09 system (copyright 2009, Gaussian, Inc.),
 the Gaussian(R) 03 system (copyright 2003, Gaussian, Inc.),
 the Gaussian(R) 98 system (copyright 1998, Gaussian, Inc.),
 the Gaussian(R) 94 system (copyright 1995, Gaussian, Inc.),
 the Gaussian 92(TM) system (copyright 1992, Gaussian, Inc.),
 the Gaussian 90(TM) system (copyright 1990, Gaussian, Inc.),
 the Gaussian 88(TM) system (copyright 1988, Gaussian, Inc.),
 the Gaussian 86(TM) system (copyright 1986, Carnegie Mellon
 University), and the Gaussian 82(TM) system (copyright 1983,
 Carnegie Mellon University). Gaussian is a federally registered
 trademark of Gaussian, Inc.
  
 This software contains proprietary and confidential information,
 including trade secrets, belonging to Gaussian, Inc.
  
 This software is provided under written license and may be
 used, copied, transmitted, or stored only in accord with that
 written license.
  
 The following legend is applicable only to US Government
 contracts under FAR:
  
                    RESTRICTED RIGHTS LEGEND
  
 Use, reproduction and disclosure by the US Government is
 subject to restrictions as set forth in subparagraphs (a)
 and (c) of the Commercial Computer Software - Restricted
 Rights clause in FAR 52.227-19.
  
 Gaussian, Inc.
 340 Quinnipiac St., Bldg. 40, Wallingford CT 06492
  
  
 ---------------------------------------------------------------
 Warning -- This program may not be used in any manner that
 competes with the business of Gaussian, Inc. or will provide
 assistance to any competitor of Gaussian, Inc.  The licensee
 of this program is prohibited from giving any competitor of
 Gaussian, Inc. access to this program.  By using this program,
 the user acknowledges that Gaussian, Inc. is engaged in the
 business of creating and licensing software in the field of
 computational chemistry and represents and warrants to the
 licensee that it is not a competitor of Gaussian, Inc. and that
 it will not use this program in any manner prohibited above.
 ---------------------------------------------------------------
  

 Cite this work as:
 Gaussian 16, Revision A.03,
 M. J. Frisch, G. W. Trucks, H. B. Schlegel, G. E. Scuseria, 
 M. A. Robb, J. R. Cheeseman, G. Scalmani, V. Barone, 
 G. A. Petersson, H. Nakatsuji, X. Li, M. Caricato, A. V. Marenich, 
 J. Bloino, B. G. Janesko, R. Gomperts, B. Mennucci, H. P. Hratchian, 
 J. V. Ortiz, A. F. Izmaylov, J. L. Sonnenberg, D. Williams-Young, 
 F. Ding, F. Lipparini, F. Egidi, J. Goings, B. Peng, A. Petrone, 
 T. Henderson, D. Ranasinghe, V. G. Zakrzewski, J. Gao, N. Rega, 
 G. Zheng, W. Liang, M. Hada, M. Ehara, K. Toyota, R. Fukuda, 
 J. Hasegawa, M. Ishida, T. Nakajima, Y. Honda, O. Kitao, H. Nakai, 
 T. Vreven, K. Throssell, J. A. Montgomery, Jr., J. E. Peralta, 
 F. Ogliaro, M. J. Bearpark, J. J. Heyd, E. N. Brothers, K. N. Kudin, 
 V. N. Staroverov, T. A. Keith, R. Kobayashi, J. Normand, 
 K. Raghavachari, A. P. Rendell, J. C. Burant, S. S. Iyengar, 
 J. Tomasi, M. Cossi, J. M. Millam, M. Klene, C. Adamo, R. Cammi, 
 J. W. Ochterski, R. L. Martin, K. Morokuma, O. Farkas, 
 J. B. Foresman, and D. J. Fox, Gaussian, Inc., Wallingford CT, 2016.
 
 ******************************************
 Gaussian 16:  EM64L-G16RevA.03 25-Dec-2016
                18-Jan-2018 
 ******************************************
 %nprocshared=32
 Will use up to   32 processors via shared memory.
 %mem=32GB
 %chk=allatoms_t.chk
 ---------------------------------------
 #p wb97xd/cc-pvdz sp scf=(maxcycles=20)
 ---------------------------------------
 1/38=1,172=1/1;
 2/12=2,17=6,18=5,40=1/2;
 3/5=16,11=2,25=1,30=1,74=-58/1,2,3;
 4//1;
 5/5=2,7=20,38=5/2;
 6/7=2,8=2,9=2,10=2,28=1/1;
 99/5=1,9=1/99;
 Leave Link    1 at Thu Jan 18 23:07:09 2018, MaxMem=  4294967296 cpu:               2.7 elap:               0.1
 (Enter /share/apps/g16/l101.exe)
 ------------------
 Base pair stacking
 ------------------
 Symbolic Z-matrix:
 Charge =  0 Multiplicity = 1
 N                    -0.44309   3.9336   -6.1861 
 C                    -0.6801    5.37241  -5.9588 
 C                    -0.67834   1.74882  -6.27927 
 N                     0.58215   2.02549  -6.78854 
 C                     0.67343   3.33067  -6.71202 
 H                     1.54071   3.91111  -7.02801 
 N                    -2.61813   0.61763  -5.55778 
 C                    -3.11018   1.82037  -5.24332 
 H                    -4.11328   1.81597  -4.81901 
 N                    -2.55179   3.02208  -5.37371 
 C                    -1.32216   2.91502  -5.90378 
 C                    -1.37833   0.54348  -6.08925 
 N                    -0.88542  -0.65622  -6.40379 
 H                     0.02791  -0.75844  -6.79951 
 H                    -1.41199  -1.49326  -6.2547 
 H                    -0.62317   5.86251  -6.82871 
 H                    -1.58851   5.50284  -5.56267 
 H                     0.01029   5.73089  -5.33043 
 N                    -0.6243    3.9535   -3.03003 
 C                    -1.23827   2.73013  -2.90974 
 C                    -1.29728   5.26219  -2.90708 
 N                    -4.10171   0.84281  -2.3616 
 H                    -4.34929  -0.12437  -2.3115 
 H                    -4.83706   1.50707  -2.22469 
 N                    -2.54897   2.51975  -2.66103 
 C                    -2.84057   1.23249  -2.60154 
 N                    -1.92045   0.22663  -2.77226 
 H                    -2.23332  -0.73002  -2.70984 
 C                    -0.56672   0.41989  -3.02905 
 O                     0.17952  -0.55727  -3.16697 
 C                    -0.23833   1.79778  -3.09582 
 N                     0.97892   2.42322  -3.32824 
 C                     0.70192   3.69804  -3.28011 
 H                     1.43023   4.49748  -3.4206 
 H                    -1.19267   5.77401  -3.75908 
 H                    -2.26877   5.119    -2.72278 
 H                    -0.88925   5.7794   -2.15554 
 H                    -4.53711  -5.25788  -2.91895 
 H                    -3.97236  -5.38961  -1.25511 
 H                    -4.39016  -3.81068  -1.92127 
 H                     0.08529  -6.3781   -3.64362 
 C                    -0.52117  -5.51482  -3.36943 
 O                     1.18995  -3.9364   -3.82526 
 C                     0.04609  -4.20402  -3.45819 
 H                    -0.44066  -2.24222  -3.13765 
 N                    -0.80581  -3.18294  -3.08819 
 O                    -2.78026  -2.33714  -2.35104 
 C                    -2.10331  -3.30286  -2.65728 
 H                    -2.262    -6.63884  -2.86754 
 C                    -1.78397  -5.66386  -2.9526 
 C                    -3.96028  -4.77602  -2.14361 
 N                    -2.57855  -4.5982   -2.59853 
 H                    -7.3318   -5.62009  -4.31099 
 H                    -6.58618  -4.45937  -3.43986 
 H                    -6.48719  -6.02028  -2.97312 
 H                    -0.61235  -4.24665  -7.1444 
 H                    -1.32168  -5.798    -7.15998 
 N                    -1.35783  -4.84629  -6.85314 
 C                    -2.35626  -4.39775  -6.08951 
 C                    -4.38778  -4.59146  -4.86594 
 N                    -4.41031  -3.30842  -4.4688 
 H                    -3.29107  -1.60281  -4.66573 
 C                    -3.35114  -2.65469  -4.94177 
 N                    -2.35007  -3.10216  -5.70675 
 H                    -5.40046  -7.64951  -5.13984 
 C                    -4.85532  -6.70725  -5.20248 
 N                    -3.73388  -6.53735  -5.85912 
 C                    -3.42648  -5.20014  -5.65394 
 C                    -6.52562  -5.40432  -3.76007 
 N                    -5.30832  -5.57099  -4.57763 
 
 ITRead=  0  0  0  0  0  0  0  0  0  0  0  0  0  0  0  0  0  0  0  0
 ITRead=  0  0  0  0  0  0  0  0  0  0  0  0  0  0  0  0  0  0  0  0
 ITRead=  0  0  0  0  0  0  0  0  0  0  0  0  0  0  0  0  0  0  0  0
 ITRead=  0  0  0  0  0  0  0  0  0  0
 MicOpt= -1 -1 -1 -1 -1 -1 -1 -1 -1 -1 -1 -1 -1 -1 -1 -1 -1 -1 -1 -1
 MicOpt= -1 -1 -1 -1 -1 -1 -1 -1 -1 -1 -1 -1 -1 -1 -1 -1 -1 -1 -1 -1
 MicOpt= -1 -1 -1 -1 -1 -1 -1 -1 -1 -1 -1 -1 -1 -1 -1 -1 -1 -1 -1 -1
 MicOpt= -1 -1 -1 -1 -1 -1 -1 -1 -1 -1
 NAtoms=     70 NQM=       70 NQMF=       0 NMMI=      0 NMMIF=      0
                NMic=       0 NMicF=      0.
                    Isotopes and Nuclear Properties:
 (Nuclear quadrupole moments (NQMom) in fm**2, nuclear magnetic moments (NMagM)
  in nuclear magnetons)

  Atom         1           2           3           4           5           6           7           8           9          10
 IAtWgt=          14          12          12          14          12           1          14          12           1          14
 AtmWgt=  14.0030740  12.0000000  12.0000000  14.0030740  12.0000000   1.0078250  14.0030740  12.0000000   1.0078250  14.0030740
 NucSpn=           2           0           0           2           0           1           2           0           1           2
 AtZEff=  -0.0000000  -0.0000000  -0.0000000  -0.0000000  -0.0000000  -0.0000000  -0.0000000  -0.0000000  -0.0000000  -0.0000000
 NQMom=    2.0440000   0.0000000   0.0000000   2.0440000   0.0000000   0.0000000   2.0440000   0.0000000   0.0000000   2.0440000
 NMagM=    0.4037610   0.0000000   0.0000000   0.4037610   0.0000000   2.7928460   0.4037610   0.0000000   2.7928460   0.4037610
 AtZNuc=   7.0000000   6.0000000   6.0000000   7.0000000   6.0000000   1.0000000   7.0000000   6.0000000   1.0000000   7.0000000

  Atom        11          12          13          14          15          16          17          18          19          20
 IAtWgt=          12          12          14           1           1           1           1           1          14          12
 AtmWgt=  12.0000000  12.0000000  14.0030740   1.0078250   1.0078250   1.0078250   1.0078250   1.0078250  14.0030740  12.0000000
 NucSpn=           0           0           2           1           1           1           1           1           2           0
 AtZEff=  -0.0000000  -0.0000000  -0.0000000  -0.0000000  -0.0000000  -0.0000000  -0.0000000  -0.0000000  -0.0000000  -0.0000000
 NQMom=    0.0000000   0.0000000   2.0440000   0.0000000   0.0000000   0.0000000   0.0000000   0.0000000   2.0440000   0.0000000
 NMagM=    0.0000000   0.0000000   0.4037610   2.7928460   2.7928460   2.7928460   2.7928460   2.7928460   0.4037610   0.0000000
 AtZNuc=   6.0000000   6.0000000   7.0000000   1.0000000   1.0000000   1.0000000   1.0000000   1.0000000   7.0000000   6.0000000

  Atom        21          22          23          24          25          26          27          28          29          30
 IAtWgt=          12          14           1           1          14          12          14           1          12          16
 AtmWgt=  12.0000000  14.0030740   1.0078250   1.0078250  14.0030740  12.0000000  14.0030740   1.0078250  12.0000000  15.9949146
 NucSpn=           0           2           1           1           2           0           2           1           0           0
 AtZEff=  -0.0000000  -0.0000000  -0.0000000  -0.0000000  -0.0000000  -0.0000000  -0.0000000  -0.0000000  -0.0000000  -0.0000000
 NQMom=    0.0000000   2.0440000   0.0000000   0.0000000   2.0440000   0.0000000   2.0440000   0.0000000   0.0000000   0.0000000
 NMagM=    0.0000000   0.4037610   2.7928460   2.7928460   0.4037610   0.0000000   0.4037610   2.7928460   0.0000000   0.0000000
 AtZNuc=   6.0000000   7.0000000   1.0000000   1.0000000   7.0000000   6.0000000   7.0000000   1.0000000   6.0000000   8.0000000

  Atom        31          32          33          34          35          36          37          38          39          40
 IAtWgt=          12          14          12           1           1           1           1           1           1           1
 AtmWgt=  12.0000000  14.0030740  12.0000000   1.0078250   1.0078250   1.0078250   1.0078250   1.0078250   1.0078250   1.0078250
 NucSpn=           0           2           0           1           1           1           1           1           1           1
 AtZEff=  -0.0000000  -0.0000000  -0.0000000  -0.0000000  -0.0000000  -0.0000000  -0.0000000  -0.0000000  -0.0000000  -0.0000000
 NQMom=    0.0000000   2.0440000   0.0000000   0.0000000   0.0000000   0.0000000   0.0000000   0.0000000   0.0000000   0.0000000
 NMagM=    0.0000000   0.4037610   0.0000000   2.7928460   2.7928460   2.7928460   2.7928460   2.7928460   2.7928460   2.7928460
 AtZNuc=   6.0000000   7.0000000   6.0000000   1.0000000   1.0000000   1.0000000   1.0000000   1.0000000   1.0000000   1.0000000

  Atom        41          42          43          44          45          46          47          48          49          50
 IAtWgt=           1          12          16          12           1          14          16          12           1          12
 AtmWgt=   1.0078250  12.0000000  15.9949146  12.0000000   1.0078250  14.0030740  15.9949146  12.0000000   1.0078250  12.0000000
 NucSpn=           1           0           0           0           1           2           0           0           1           0
 AtZEff=  -0.0000000  -0.0000000  -0.0000000  -0.0000000  -0.0000000  -0.0000000  -0.0000000  -0.0000000  -0.0000000  -0.0000000
 NQMom=    0.0000000   0.0000000   0.0000000   0.0000000   0.0000000   2.0440000   0.0000000   0.0000000   0.0000000   0.0000000
 NMagM=    2.7928460   0.0000000   0.0000000   0.0000000   2.7928460   0.4037610   0.0000000   0.0000000   2.7928460   0.0000000
 AtZNuc=   1.0000000   6.0000000   8.0000000   6.0000000   1.0000000   7.0000000   8.0000000   6.0000000   1.0000000   6.0000000

  Atom        51          52          53          54          55          56          57          58          59          60
 IAtWgt=          12          14           1           1           1           1           1          14          12          12
 AtmWgt=  12.0000000  14.0030740   1.0078250   1.0078250   1.0078250   1.0078250   1.0078250  14.0030740  12.0000000  12.0000000
 NucSpn=           0           2           1           1           1           1           1           2           0           0
 AtZEff=  -0.0000000  -0.0000000  -0.0000000  -0.0000000  -0.0000000  -0.0000000  -0.0000000  -0.0000000  -0.0000000  -0.0000000
 NQMom=    0.0000000   2.0440000   0.0000000   0.0000000   0.0000000   0.0000000   0.0000000   2.0440000   0.0000000   0.0000000
 NMagM=    0.0000000   0.4037610   2.7928460   2.7928460   2.7928460   2.7928460   2.7928460   0.4037610   0.0000000   0.0000000
 AtZNuc=   6.0000000   7.0000000   1.0000000   1.0000000   1.0000000   1.0000000   1.0000000   7.0000000   6.0000000   6.0000000

  Atom        61          62          63          64          65          66          67          68          69          70
 IAtWgt=          14           1          12          14           1          12          14          12          12          14
 AtmWgt=  14.0030740   1.0078250  12.0000000  14.0030740   1.0078250  12.0000000  14.0030740  12.0000000  12.0000000  14.0030740
 NucSpn=           2           1           0           2           1           0           2           0           0           2
 AtZEff=  -0.0000000  -0.0000000  -0.0000000  -0.0000000  -0.0000000  -0.0000000  -0.0000000  -0.0000000  -0.0000000  -0.0000000
 NQMom=    2.0440000   0.0000000   0.0000000   2.0440000   0.0000000   0.0000000   2.0440000   0.0000000   0.0000000   2.0440000
 NMagM=    0.4037610   2.7928460   0.0000000   0.4037610   2.7928460   0.0000000   0.4037610   0.0000000   0.0000000   0.4037610
 AtZNuc=   7.0000000   1.0000000   6.0000000   7.0000000   1.0000000   6.0000000   7.0000000   6.0000000   6.0000000   7.0000000
 Leave Link  101 at Thu Jan 18 23:07:09 2018, MaxMem=  4294967296 cpu:               7.6 elap:               0.3
 (Enter /share/apps/g16/l202.exe)
 Stoichiometry    C23H27N17O3
 Framework group  C1[X(C23H27N17O3)]
 Deg. of freedom   204
 Full point group                 C1      NOp   1
 Largest Abelian subgroup         C1      NOp   1
 Largest concise Abelian subgroup C1      NOp   1
                         Standard orientation:                         
 ---------------------------------------------------------------------
 Center     Atomic      Atomic             Coordinates (Angstroms)
 Number     Number       Type             X           Y           Z
 ---------------------------------------------------------------------
      1          7           0        5.153042   -0.977221   -1.438495
      2          6           0        6.453349   -0.295017   -1.586185
      3          6           0        2.998054   -1.403941   -1.332534
      4          7           0        3.644248   -2.609640   -1.101319
      5          6           0        4.916689   -2.304296   -1.174406
      6          1           0        5.733321   -3.014699   -1.042591
      7          7           0        1.330856    0.236008   -1.639037
      8          6           0        2.328664    1.107146   -1.820915
      9          1           0        2.020207    2.132566   -2.020005
     10          7           0        3.644109    0.902740   -1.793927
     11          6           0        3.914979   -0.388617   -1.542029
     12          6           0        1.636197   -1.055703   -1.387416
     13          7           0        0.641549   -1.926784   -1.205567
     14          1           0        0.821094   -2.892898   -1.016876
     15          1           0       -0.316458   -1.643533   -1.251724
     16          1           0        6.963082   -0.706189   -2.342023
     17          1           0        6.302200    0.674681   -1.775866
     18          1           0        6.979586   -0.389533   -0.741119
     19          7           0        5.030321    0.954313    1.061130
     20          6           0        3.678253    1.191059    0.998459
     21          6           0        6.082113    1.886153    0.607153
     22          7           0        1.023796    3.264046    0.150930
     23          1           0        0.025435    3.239272    0.194564
     24          1           0        1.440824    4.087944   -0.233784
     25          7           0        3.088158    2.305769    0.515489
     26          6           0        1.770648    2.238998    0.588405
     27          7           0        1.081779    1.163755    1.095191
     28          1           0        0.074114    1.199840    1.111713
     29          6           0        1.668271    0.006355    1.597515
     30          8           0        0.955253   -0.906647    2.031994
     31          6           0        3.083365    0.063328    1.525823
     32          7           0        4.042647   -0.862778    1.911826
     33          6           0        5.179546   -0.292433    1.617921
     34          1           0        6.160143   -0.738644    1.787045
     35          1           0        6.626004    1.453268   -0.110900
     36          1           0        5.656921    2.715609    0.247322
     37          1           0        6.674379    2.123286    1.376436
     38          1           0       -4.920783    1.730766    0.323163
     39          1           0       -4.929071    2.194880    2.022924
     40          1           0       -3.522283    2.549552    1.019679
     41          1           0       -4.624588   -2.590309    2.417728
     42          6           0       -3.983572   -1.738997    2.188400
     43          8           0       -1.962856   -2.935088    2.524843
     44          6           0       -2.562404   -1.898935    2.239004
     45          1           0       -0.837418   -0.834463    1.956769
     46          7           0       -1.844719   -0.760634    1.931696
     47          8           0       -1.632081    1.420761    1.337117
     48          6           0       -2.349606    0.469860    1.593251
     49          1           0       -5.579750   -0.377399    1.808835
     50          6           0       -4.505795   -0.551120    1.861510
     51          6           0       -4.313803    1.839941    1.209577
     52          7           0       -3.728332    0.544619    1.566112
     53          1           0       -6.042234    3.042813   -2.303650
     54          1           0       -4.739651    3.247324   -1.342639
     55          1           0       -6.216486    3.034531   -0.681003
     56          1           0       -2.691141   -3.477531   -1.154367
     57          1           0       -4.380777   -3.326665   -1.334499
     58          7           0       -3.489943   -2.881536   -1.237108
     59          6           0       -3.373506   -1.552146   -1.218526
     60          6           0       -4.185175    0.683262   -1.295108
     61          7           0       -2.976103    1.253466   -1.163078
     62          1           0       -1.013532    0.700429   -0.955584
     63          6           0       -2.029053    0.322564   -1.066006
     64          7           0       -2.143660   -1.009387   -1.084407
     65          1           0       -7.396614    0.540793   -1.639449
     66          6           0       -6.335022    0.318754   -1.526861
     67          7           0       -5.827285   -0.888513   -1.478074
     68          6           0       -4.464868   -0.671727   -1.331277
     69          6           0       -5.616531    2.777221   -1.438644
     70          7           0       -5.398151    1.317757   -1.421992
 ---------------------------------------------------------------------
 Rotational constants (GHZ):           0.1829661           0.0523995           0.0514794
 Leave Link  202 at Thu Jan 18 23:07:09 2018, MaxMem=  4294967296 cpu:               0.3 elap:               0.0
 (Enter /share/apps/g16/l301.exe)
 Standard basis: CC-pVDZ (5D, 7F)
 Ernie: Thresh=  0.10000D-02 Tol=  0.10000D-05 Strict=F.
 Ernie:  86 primitive shells out of 1081 were deleted.
 There are   780 symmetry adapted cartesian basis functions of A   symmetry.
 There are   737 symmetry adapted basis functions of A   symmetry.
   737 basis functions,  1608 primitive gaussians,   780 cartesian basis functions
   154 alpha electrons      154 beta electrons
       nuclear repulsion energy      5663.0527357495 Hartrees.
 IExCor= 4639 DFT=T Ex+Corr=wB97XD ExCW=0 ScaHFX=  1.000000
 ScaDFX=  1.000000  1.000000  1.000000  1.000000 ScalE2=  1.000000  1.000000
 IRadAn=      5 IRanWt=     -1 IRanGd=            0 ICorTp=0 IEmpDi=121
 HFx  wShort=  0.000000 wLong=  0.200000 cFull=  0.222036 cShort=  0.000000 cLong=  0.777964
 DFx  wShort=  0.000000 wLong=  0.200000 cFull=  0.000000 cShort=  0.000000 cLong=  1.000000
 NAtoms=   70 NActive=   70 NUniq=   70 SFac= 1.00D+00 NAtFMM=   60 NAOKFM=T Big=T
 Integral buffers will be    131072 words long.
 Raffenetti 2 integral format.
 Two-electron integral symmetry is turned on.
 R6Disp:  Grimme-D2 Dispersion energy=       -0.0827571590 Hartrees.
 Nuclear repulsion after empirical dispersion term =     5662.9699785904 Hartrees.
 Leave Link  301 at Thu Jan 18 23:07:09 2018, MaxMem=  4294967296 cpu:               2.1 elap:               0.1
 (Enter /share/apps/g16/l302.exe)
 NPDir=0 NMtPBC=     1 NCelOv=     1 NCel=       1 NClECP=     1 NCelD=      1
         NCelK=      1 NCelE2=     1 NClLst=     1 CellRange=     0.0.
 One-electron integrals computed using PRISM.
 One-electron integral symmetry used in STVInt
 NBasis=   737 RedAO= T EigKep=  5.70D-04  NBF=   737
 NBsUse=   737 1.00D-06 EigRej= -1.00D+00 NBFU=   737
 Precomputing XC quadrature grid using
 IXCGrd= 4 IRadAn=           5 IRanWt=          -1 IRanGd=           0 AccXCQ= 0.00D+00.
 Generated NRdTot=       0 NPtTot=           0 NUsed=           0 NTot=          32
 NSgBfM=   769   769   769   769   769 MxSgAt=    70 MxSgA2=    70.
 Leave Link  302 at Thu Jan 18 23:07:13 2018, MaxMem=  4294967296 cpu:             136.4 elap:               4.3
 (Enter /share/apps/g16/l303.exe)
 DipDrv:  MaxL=1.
 Leave Link  303 at Thu Jan 18 23:07:14 2018, MaxMem=  4294967296 cpu:              12.6 elap:               0.4
 (Enter /share/apps/g16/l401.exe)
 ExpMin= 1.22D-01 ExpMax= 1.17D+04 ExpMxC= 4.01D+02 IAcc=3 IRadAn=         5 AccDes= 0.00D+00
 Harris functional with IExCor= 4639 and IRadAn=       5 diagonalized for initial guess.
 HarFok:  IExCor= 4639 AccDes= 0.00D+00 IRadAn=         5 IDoV= 1 UseB2=F ITyADJ=14
 ICtDFT=  3500011 ScaDFX=  1.000000  1.000000  1.000000  1.000000
 FoFCou: FMM=F IPFlag=           0 FMFlag=      100000 FMFlg1=        2001
         NFxFlg=           0 DoJE=T BraDBF=F KetDBF=T FulRan=T
         wScrn=  0.000000 ICntrl=       500 IOpCl=  0 I1Cent=   200000004 NGrid=           0
         NMat0=    1 NMatS0=      1 NMatT0=    0 NMatD0=    1 NMtDS0=    0 NMtDT0=    0
 Petite list used in FoFCou.
 Harris En= -1963.82338475647    
 JPrj=0 DoOrth=F DoCkMO=F.
 Leave Link  401 at Thu Jan 18 23:07:27 2018, MaxMem=  4294967296 cpu:             416.5 elap:              13.1
 (Enter /share/apps/g16/l502.exe)
 Integral symmetry usage will be decided dynamically.
 Closed shell SCF:
 Using DIIS extrapolation, IDIIS=  1040.
 NGot=  4294967296 LenX=  4293717438 LenY=  4293108258
 Requested convergence on RMS density matrix=1.00D-08 within  20 cycles.
 Requested convergence on MAX density matrix=1.00D-06.
 Requested convergence on             energy=1.00D-06.
 No special actions if energy rises.
 Fock matrices will be formed incrementally for  20 cycles.
 Integral accuracy reduced to 1.0D-05 until final iterations.

 Cycle   1  Pass 0  IDiag  1:
 FoFJK:  IHMeth= 1 ICntrl=       0 DoSepK=T KAlg= 0 I1Cent=           0 FoldK=F
 IRaf=         1 NMat=       1 IRICut=       1 DoRegI=T DoRafI=F ISym2E= 0 IDoP0=0 IntGTp=1.
 FoFCou: FMM=T IPFlag=           0 FMFlag=      100000 FMFlg1=        2001
         NFxFlg=           0 DoJE=T BraDBF=F KetDBF=F FulRan=T
         wScrn=  0.000000 ICntrl=       500 IOpCl=  0 I1Cent=           0 NGrid=           0
         NMat0=    1 NMatS0=      1 NMatT0=    0 NMatD0=    1 NMtDS0=    0 NMtDT0=    0
 Symmetry not used in FoFCou.
 FMM levels:  10  Number of levels for PrismC:   9
 E= -2048.26959120778    
 DIIS: error= 1.48D-02 at cycle   1 NSaved=   1.
 NSaved= 1 IEnMin= 1 EnMin= -2048.26959120778     IErMin= 1 ErrMin= 1.48D-02
 ErrMax= 1.48D-02  0.00D+00 EMaxC= 1.00D-01 BMatC= 8.36D-01 BMatP= 8.36D-01
 IDIUse=3 WtCom= 8.52D-01 WtEn= 1.48D-01
 Coeff-Com:  0.100D+01
 Coeff-En:   0.100D+01
 Coeff:      0.100D+01
 Gap=     0.252 Goal=   None    Shift=    0.000
 GapD=    0.252 DampG=1.000 DampE=0.500 DampFc=0.5000 IDamp=-1.
 Damping current iteration by 5.00D-01
 RMSDP=1.63D-03 MaxDP=1.28D-01              OVMax= 2.03D-01

 Cycle   2  Pass 0  IDiag  1:
 RMSU=  8.14D-04    CP:  9.97D-01
 E= -2048.46516819087     Delta-E=       -0.195576983091 Rises=F Damp=T
 DIIS: error= 7.16D-03 at cycle   2 NSaved=   2.
 NSaved= 2 IEnMin= 2 EnMin= -2048.46516819087     IErMin= 2 ErrMin= 7.16D-03
 ErrMax= 7.16D-03  0.00D+00 EMaxC= 1.00D-01 BMatC= 1.46D-01 BMatP= 8.36D-01
 IDIUse=3 WtCom= 9.28D-01 WtEn= 7.16D-02
 Coeff-Com: -0.184D+00 0.118D+01
 Coeff-En:   0.000D+00 0.100D+01
 Coeff:     -0.171D+00 0.117D+01
 Gap=     0.298 Goal=   None    Shift=    0.000
 RMSDP=6.21D-04 MaxDP=3.59D-02 DE=-1.96D-01 OVMax= 1.60D-01

 Cycle   3  Pass 0  IDiag  1:
 RMSU=  6.11D-04    CP:  9.93D-01  1.12D+00
 E= -2048.63930871403     Delta-E=       -0.174140523157 Rises=F Damp=F
 DIIS: error= 7.02D-03 at cycle   3 NSaved=   3.
 NSaved= 3 IEnMin= 3 EnMin= -2048.63930871403     IErMin= 3 ErrMin= 7.02D-03
 ErrMax= 7.02D-03  0.00D+00 EMaxC= 1.00D-01 BMatC= 7.33D-02 BMatP= 1.46D-01
 IDIUse=3 WtCom= 9.30D-01 WtEn= 7.02D-02
 Coeff-Com: -0.238D+00 0.570D+00 0.668D+00
 Coeff-En:   0.000D+00 0.000D+00 0.100D+01
 Coeff:     -0.222D+00 0.530D+00 0.691D+00
 Gap=     0.274 Goal=   None    Shift=    0.000
 RMSDP=3.96D-04 MaxDP=3.36D-02 DE=-1.74D-01 OVMax= 6.48D-02

 Cycle   4  Pass 0  IDiag  1:
 RMSU=  2.18D-04    CP:  9.94D-01  1.43D+00  6.43D-01
 E= -2048.69421870606     Delta-E=       -0.054909992037 Rises=F Damp=F
 DIIS: error= 2.64D-03 at cycle   4 NSaved=   4.
 NSaved= 4 IEnMin= 4 EnMin= -2048.69421870606     IErMin= 4 ErrMin= 2.64D-03
 ErrMax= 2.64D-03  0.00D+00 EMaxC= 1.00D-01 BMatC= 1.05D-02 BMatP= 7.33D-02
 IDIUse=3 WtCom= 9.74D-01 WtEn= 2.64D-02
 Coeff-Com: -0.100D+00 0.195D+00 0.375D+00 0.531D+00
 Coeff-En:   0.000D+00 0.000D+00 0.730D-01 0.927D+00
 Coeff:     -0.977D-01 0.190D+00 0.367D+00 0.541D+00
 Gap=     0.275 Goal=   None    Shift=    0.000
 RMSDP=1.38D-04 MaxDP=1.11D-02 DE=-5.49D-02 OVMax= 1.57D-02

 Cycle   5  Pass 0  IDiag  1:
 RMSU=  6.42D-05    CP:  9.93D-01  1.40D+00  7.82D-01  6.12D-01
 E= -2048.70294094010     Delta-E=       -0.008722234033 Rises=F Damp=F
 DIIS: error= 5.02D-04 at cycle   5 NSaved=   5.
 NSaved= 5 IEnMin= 5 EnMin= -2048.70294094010     IErMin= 5 ErrMin= 5.02D-04
 ErrMax= 5.02D-04  0.00D+00 EMaxC= 1.00D-01 BMatC= 3.18D-04 BMatP= 1.05D-02
 IDIUse=3 WtCom= 9.95D-01 WtEn= 5.02D-03
 Coeff-Com: -0.275D-01 0.478D-01 0.125D+00 0.241D+00 0.614D+00
 Coeff-En:   0.000D+00 0.000D+00 0.000D+00 0.000D+00 0.100D+01
 Coeff:     -0.274D-01 0.476D-01 0.124D+00 0.240D+00 0.616D+00
 Gap=     0.276 Goal=   None    Shift=    0.000
 RMSDP=2.88D-05 MaxDP=1.80D-03 DE=-8.72D-03 OVMax= 3.65D-03

 Failed to achieve initial convergence to 1.0D-08 in  6 cycles.
 Switch to full accuracy anyway.
 Cycle   6  Pass 1  IDiag  1:
 E= -2048.70298926412     Delta-E=       -0.000048324024 Rises=F Damp=F
 DIIS: error= 2.04D-04 at cycle   1 NSaved=   1.
 NSaved= 1 IEnMin= 1 EnMin= -2048.70298926412     IErMin= 1 ErrMin= 2.04D-04
 ErrMax= 2.04D-04  0.00D+00 EMaxC= 1.00D-01 BMatC= 8.31D-05 BMatP= 8.31D-05
 IDIUse=3 WtCom= 9.98D-01 WtEn= 2.04D-03
 Coeff-Com:  0.100D+01
 Coeff-En:   0.100D+01
 Coeff:      0.100D+01
 Gap=     0.275 Goal=   None    Shift=    0.000
 RMSDP=2.88D-05 MaxDP=1.80D-03 DE=-4.83D-05 OVMax= 2.33D-03

 Cycle   7  Pass 1  IDiag  1:
 RMSU=  1.20D-04    CP:  1.00D+00
 E= -2048.70303996987     Delta-E=       -0.000050705746 Rises=F Damp=F
 DIIS: error= 1.90D-04 at cycle   2 NSaved=   2.
 NSaved= 2 IEnMin= 2 EnMin= -2048.70303996987     IErMin= 2 ErrMin= 1.90D-04
 ErrMax= 1.90D-04  0.00D+00 EMaxC= 1.00D-01 BMatC= 5.46D-05 BMatP= 8.31D-05
 IDIUse=3 WtCom= 9.98D-01 WtEn= 1.90D-03
 Coeff-Com:  0.430D+00 0.570D+00
 Coeff-En:   0.129D+00 0.871D+00
 Coeff:      0.430D+00 0.570D+00
 Gap=     0.276 Goal=   None    Shift=    0.000
 RMSDP=1.35D-05 MaxDP=1.10D-03 DE=-5.07D-05 OVMax= 2.01D-03

 Cycle   8  Pass 1  IDiag  1:
 RMSU=  1.33D-05    CP:  1.00D+00  1.02D+00
 E= -2048.70308134621     Delta-E=       -0.000041376345 Rises=F Damp=F
 DIIS: error= 8.43D-05 at cycle   3 NSaved=   3.
 NSaved= 3 IEnMin= 3 EnMin= -2048.70308134621     IErMin= 3 ErrMin= 8.43D-05
 ErrMax= 8.43D-05  0.00D+00 EMaxC= 1.00D-01 BMatC= 1.10D-05 BMatP= 5.46D-05
 IDIUse=1 WtCom= 1.00D+00 WtEn= 0.00D+00
 Coeff-Com: -0.159D-01 0.297D+00 0.719D+00
 Coeff:     -0.159D-01 0.297D+00 0.719D+00
 Gap=     0.276 Goal=   None    Shift=    0.000
 RMSDP=6.20D-06 MaxDP=3.67D-04 DE=-4.14D-05 OVMax= 7.37D-04

 Cycle   9  Pass 1  IDiag  1:
 RMSU=  3.99D-06    CP:  1.00D+00  1.05D+00  7.57D-01
 E= -2048.70309225127     Delta-E=       -0.000010905057 Rises=F Damp=F
 DIIS: error= 2.06D-05 at cycle   4 NSaved=   4.
 NSaved= 4 IEnMin= 4 EnMin= -2048.70309225127     IErMin= 4 ErrMin= 2.06D-05
 ErrMax= 2.06D-05  0.00D+00 EMaxC= 1.00D-01 BMatC= 6.37D-07 BMatP= 1.10D-05
 IDIUse=1 WtCom= 1.00D+00 WtEn= 0.00D+00
 Coeff-Com: -0.305D-01 0.903D-01 0.292D+00 0.648D+00
 Coeff:     -0.305D-01 0.903D-01 0.292D+00 0.648D+00
 Gap=     0.276 Goal=   None    Shift=    0.000
 RMSDP=1.53D-06 MaxDP=1.09D-04 DE=-1.09D-05 OVMax= 4.00D-04

 Cycle  10  Pass 1  IDiag  1:
 RMSU=  1.38D-06    CP:  1.00D+00  1.05D+00  7.93D-01  1.07D+00
 E= -2048.70309318800     Delta-E=       -0.000000936734 Rises=F Damp=F
 DIIS: error= 1.26D-05 at cycle   5 NSaved=   5.
 NSaved= 5 IEnMin= 5 EnMin= -2048.70309318800     IErMin= 5 ErrMin= 1.26D-05
 ErrMax= 1.26D-05  0.00D+00 EMaxC= 1.00D-01 BMatC= 1.21D-07 BMatP= 6.37D-07
 IDIUse=1 WtCom= 1.00D+00 WtEn= 0.00D+00
 Coeff-Com: -0.483D-02-0.443D-01-0.931D-01 0.197D+00 0.945D+00
 Coeff:     -0.483D-02-0.443D-01-0.931D-01 0.197D+00 0.945D+00
 Gap=     0.276 Goal=   None    Shift=    0.000
 RMSDP=1.16D-06 MaxDP=7.22D-05 DE=-9.37D-07 OVMax= 2.54D-04

 Cycle  11  Pass 1  IDiag  1:
 RMSU=  5.16D-07    CP:  1.00D+00  1.05D+00  8.01D-01  1.32D+00  1.18D+00
 E= -2048.70309344992     Delta-E=       -0.000000261921 Rises=F Damp=F
 DIIS: error= 5.08D-06 at cycle   6 NSaved=   6.
 NSaved= 6 IEnMin= 6 EnMin= -2048.70309344992     IErMin= 6 ErrMin= 5.08D-06
 ErrMax= 5.08D-06  0.00D+00 EMaxC= 1.00D-01 BMatC= 3.54D-08 BMatP= 1.21D-07
 IDIUse=1 WtCom= 1.00D+00 WtEn= 0.00D+00
 Coeff-Com:  0.472D-02-0.447D-01-0.119D+00-0.226D-01 0.526D+00 0.656D+00
 Coeff:      0.472D-02-0.447D-01-0.119D+00-0.226D-01 0.526D+00 0.656D+00
 Gap=     0.276 Goal=   None    Shift=    0.000
 RMSDP=4.54D-07 MaxDP=3.48D-05 DE=-2.62D-07 OVMax= 1.24D-04

 Cycle  12  Pass 1  IDiag  1:
 RMSU=  2.13D-07    CP:  1.00D+00  1.05D+00  8.04D-01  1.40D+00  1.33D+00
                    CP:  9.49D-01
 E= -2048.70309350200     Delta-E=       -0.000000052074 Rises=F Damp=F
 DIIS: error= 9.31D-07 at cycle   7 NSaved=   7.
 NSaved= 7 IEnMin= 7 EnMin= -2048.70309350200     IErMin= 7 ErrMin= 9.31D-07
 ErrMax= 9.31D-07  0.00D+00 EMaxC= 1.00D-01 BMatC= 8.44D-10 BMatP= 3.54D-08
 IDIUse=1 WtCom= 1.00D+00 WtEn= 0.00D+00
 Coeff-Com:  0.133D-02-0.943D-02-0.265D-01-0.132D-01 0.865D-01 0.157D+00
 Coeff-Com:  0.804D+00
 Coeff:      0.133D-02-0.943D-02-0.265D-01-0.132D-01 0.865D-01 0.157D+00
 Coeff:      0.804D+00
 Gap=     0.276 Goal=   None    Shift=    0.000
 RMSDP=8.58D-08 MaxDP=5.61D-06 DE=-5.21D-08 OVMax= 2.49D-05

 Cycle  13  Pass 1  IDiag  1:
 RMSU=  5.72D-08    CP:  1.00D+00  1.05D+00  8.04D-01  1.41D+00  1.35D+00
                    CP:  1.03D+00  1.11D+00
 E= -2048.70309350396     Delta-E=       -0.000000001968 Rises=F Damp=F
 DIIS: error= 5.56D-07 at cycle   8 NSaved=   8.
 NSaved= 8 IEnMin= 8 EnMin= -2048.70309350396     IErMin= 8 ErrMin= 5.56D-07
 ErrMax= 5.56D-07  0.00D+00 EMaxC= 1.00D-01 BMatC= 3.85D-10 BMatP= 8.44D-10
 IDIUse=1 WtCom= 1.00D+00 WtEn= 0.00D+00
 Coeff-Com: -0.691D-03 0.820D-02 0.211D-01 0.104D-02-0.107D+00-0.114D+00
 Coeff-Com:  0.402D+00 0.789D+00
 Coeff:     -0.691D-03 0.820D-02 0.211D-01 0.104D-02-0.107D+00-0.114D+00
 Coeff:      0.402D+00 0.789D+00
 Gap=     0.276 Goal=   None    Shift=    0.000
 RMSDP=5.70D-08 MaxDP=3.39D-06 DE=-1.97D-09 OVMax= 1.18D-05

 Cycle  14  Pass 1  IDiag  1:
 RMSU=  3.21D-08    CP:  1.00D+00  1.05D+00  8.04D-01  1.41D+00  1.36D+00
                    CP:  1.07D+00  1.28D+00  1.04D+00
 E= -2048.70309350452     Delta-E=       -0.000000000552 Rises=F Damp=F
 DIIS: error= 1.70D-07 at cycle   9 NSaved=   9.
 NSaved= 9 IEnMin= 9 EnMin= -2048.70309350452     IErMin= 9 ErrMin= 1.70D-07
 ErrMax= 1.70D-07  0.00D+00 EMaxC= 1.00D-01 BMatC= 3.72D-11 BMatP= 3.85D-10
 IDIUse=1 WtCom= 1.00D+00 WtEn= 0.00D+00
 Coeff-Com: -0.440D-03 0.452D-02 0.119D-01 0.216D-02-0.533D-01-0.652D-01
 Coeff-Com:  0.938D-01 0.323D+00 0.684D+00
 Coeff:     -0.440D-03 0.452D-02 0.119D-01 0.216D-02-0.533D-01-0.652D-01
 Coeff:      0.938D-01 0.323D+00 0.684D+00
 Gap=     0.276 Goal=   None    Shift=    0.000
 RMSDP=1.45D-08 MaxDP=6.81D-07 DE=-5.52D-10 OVMax= 3.15D-06

 Cycle  15  Pass 1  IDiag  1:
 RMSU=  1.03D-08    CP:  1.00D+00  1.05D+00  8.04D-01  1.41D+00  1.36D+00
                    CP:  1.08D+00  1.30D+00  1.18D+00  1.08D+00
 E= -2048.70309350447     Delta-E=        0.000000000050 Rises=F Damp=F
 DIIS: error= 9.29D-08 at cycle  10 NSaved=  10.
 NSaved=10 IEnMin= 9 EnMin= -2048.70309350452     IErMin=10 ErrMin= 9.29D-08
 ErrMax= 9.29D-08  0.00D+00 EMaxC= 1.00D-01 BMatC= 6.51D-12 BMatP= 3.72D-11
 IDIUse=1 WtCom= 1.00D+00 WtEn= 0.00D+00
 Coeff-Com: -0.178D-04-0.479D-04-0.394D-04 0.263D-03 0.228D-02-0.128D-02
 Coeff-Com: -0.501D-01-0.569D-01 0.253D+00 0.853D+00
 Coeff:     -0.178D-04-0.479D-04-0.394D-04 0.263D-03 0.228D-02-0.128D-02
 Coeff:     -0.501D-01-0.569D-01 0.253D+00 0.853D+00
 Gap=     0.276 Goal=   None    Shift=    0.000
 RMSDP=8.26D-09 MaxDP=4.24D-07 DE= 5.00D-11 OVMax= 1.83D-06

 SCF Done:  E(RwB97XD) =  -2048.70309350     A.U. after   15 cycles
            NFock= 15  Conv=0.83D-08     -V/T= 2.0052
 KE= 2.038130528022D+03 PE=-1.610638171763D+04 EE= 6.356578117513D+03
 Leave Link  502 at Thu Jan 18 23:20:01 2018, MaxMem=  4294967296 cpu:           23323.4 elap:             754.3
 (Enter /share/apps/g16/l601.exe)
 Copying SCF densities to generalized density rwf, IOpCl= 0 IROHF=0.

 **********************************************************************

            Population analysis using the SCF density.

 **********************************************************************

 Orbital symmetries:
       Occupied  (A) (A) (A) (A) (A) (A) (A) (A) (A) (A) (A) (A)
                 (A) (A) (A) (A) (A) (A) (A) (A) (A) (A) (A) (A)
                 (A) (A) (A) (A) (A) (A) (A) (A) (A) (A) (A) (A)
                 (A) (A) (A) (A) (A) (A) (A) (A) (A) (A) (A) (A)
                 (A) (A) (A) (A) (A) (A) (A) (A) (A) (A) (A) (A)
                 (A) (A) (A) (A) (A) (A) (A) (A) (A) (A) (A) (A)
                 (A) (A) (A) (A) (A) (A) (A) (A) (A) (A) (A) (A)
                 (A) (A) (A) (A) (A) (A) (A) (A) (A) (A) (A) (A)
                 (A) (A) (A) (A) (A) (A) (A) (A) (A) (A) (A) (A)
                 (A) (A) (A) (A) (A) (A) (A) (A) (A) (A) (A) (A)
                 (A) (A) (A) (A) (A) (A) (A) (A) (A) (A) (A) (A)
                 (A) (A) (A) (A) (A) (A) (A) (A) (A) (A) (A) (A)
                 (A) (A) (A) (A) (A) (A) (A) (A) (A) (A)
       Virtual   (A) (A) (A) (A) (A) (A) (A) (A) (A) (A) (A) (A)
                 (A) (A) (A) (A) (A) (A) (A) (A) (A) (A) (A) (A)
                 (A) (A) (A) (A) (A) (A) (A) (A) (A) (A) (A) (A)
                 (A) (A) (A) (A) (A) (A) (A) (A) (A) (A) (A) (A)
                 (A) (A) (A) (A) (A) (A) (A) (A) (A) (A) (A) (A)
                 (A) (A) (A) (A) (A) (A) (A) (A) (A) (A) (A) (A)
                 (A) (A) (A) (A) (A) (A) (A) (A) (A) (A) (A) (A)
                 (A) (A) (A) (A) (A) (A) (A) (A) (A) (A) (A) (A)
                 (A) (A) (A) (A) (A) (A) (A) (A) (A) (A) (A) (A)
                 (A) (A) (A) (A) (A) (A) (A) (A) (A) (A) (A) (A)
                 (A) (A) (A) (A) (A) (A) (A) (A) (A) (A) (A) (A)
                 (A) (A) (A) (A) (A) (A) (A) (A) (A) (A) (A) (A)
                 (A) (A) (A) (A) (A) (A) (A) (A) (A) (A) (A) (A)
                 (A) (A) (A) (A) (A) (A) (A) (A) (A) (A) (A) (A)
                 (A) (A) (A) (A) (A) (A) (A) (A) (A) (A) (A) (A)
                 (A) (A) (A) (A) (A) (A) (A) (A) (A) (A) (A) (A)
                 (A) (A) (A) (A) (A) (A) (A) (A) (A) (A) (A) (A)
                 (A) (A) (A) (A) (A) (A) (A) (A) (A) (A) (A) (A)
                 (A) (A) (A) (A) (A) (A) (A) (A) (A) (A) (A) (A)
                 (A) (A) (A) (A) (A) (A) (A) (A) (A) (A) (A) (A)
                 (A) (A) (A) (A) (A) (A) (A) (A) (A) (A) (A) (A)
                 (A) (A) (A) (A) (A) (A) (A) (A) (A) (A) (A) (A)
                 (A) (A) (A) (A) (A) (A) (A) (A) (A) (A) (A) (A)
                 (A) (A) (A) (A) (A) (A) (A) (A) (A) (A) (A) (A)
                 (A) (A) (A) (A) (A) (A) (A) (A) (A) (A) (A) (A)
                 (A) (A) (A) (A) (A) (A) (A) (A) (A) (A) (A) (A)
                 (A) (A) (A) (A) (A) (A) (A) (A) (A) (A) (A) (A)
                 (A) (A) (A) (A) (A) (A) (A) (A) (A) (A) (A) (A)
                 (A) (A) (A) (A) (A) (A) (A) (A) (A) (A) (A) (A)
                 (A) (A) (A) (A) (A) (A) (A) (A) (A) (A) (A) (A)
                 (A) (A) (A) (A) (A) (A) (A) (A) (A) (A) (A) (A)
                 (A) (A) (A) (A) (A) (A) (A) (A) (A) (A) (A) (A)
                 (A) (A) (A) (A) (A) (A) (A) (A) (A) (A) (A) (A)
                 (A) (A) (A) (A) (A) (A) (A) (A) (A) (A) (A) (A)
                 (A) (A) (A) (A) (A) (A) (A) (A) (A) (A) (A) (A)
                 (A) (A) (A) (A) (A) (A) (A) (A) (A) (A) (A) (A)
                 (A) (A) (A) (A) (A) (A) (A) (A) (A) (A) (A) (A)
                 (A) (A) (A) (A) (A) (A) (A) (A) (A) (A) (A) (A)
                 (A) (A) (A) (A) (A) (A) (A) (A) (A) (A) (A) (A)
                 (A) (A) (A) (A) (A) (A) (A) (A) (A) (A) (A) (A)
                 (A) (A) (A) (A) (A) (A) (A) (A) (A) (A) (A) (A)
                 (A) (A) (A) (A) (A) (A) (A) (A) (A) (A) (A) (A)
                 (A) (A) (A) (A) (A) (A) (A) (A) (A) (A) (A) (A)
                 (A) (A) (A) (A) (A) (A) (A) (A) (A) (A) (A) (A)
                 (A) (A) (A) (A) (A) (A) (A) (A) (A) (A) (A) (A)
                 (A) (A) (A) (A) (A) (A) (A) (A) (A) (A) (A) (A)
                 (A) (A) (A) (A) (A) (A) (A) (A) (A) (A) (A) (A)
                 (A) (A) (A) (A) (A) (A) (A) (A) (A) (A) (A) (A)
                 (A) (A) (A) (A) (A) (A) (A)
 The electronic state is 1-A.
 Alpha  occ. eigenvalues --  -19.24990 -19.21332 -19.20589 -14.52862 -14.51614
 Alpha  occ. eigenvalues --  -14.49177 -14.49039 -14.48335 -14.47117 -14.46563
 Alpha  occ. eigenvalues --  -14.46434 -14.45716 -14.44693 -14.44457 -14.43084
 Alpha  occ. eigenvalues --  -14.41604 -14.41589 -14.41219 -14.41189 -14.41007
 Alpha  occ. eigenvalues --  -10.44643 -10.40827 -10.40244 -10.39432 -10.38294
 Alpha  occ. eigenvalues --  -10.38168 -10.37466 -10.37035 -10.36210 -10.36091
 Alpha  occ. eigenvalues --  -10.34614 -10.34321 -10.34321 -10.33763 -10.33731
 Alpha  occ. eigenvalues --  -10.33601 -10.33432 -10.32916 -10.31900 -10.30973
 Alpha  occ. eigenvalues --  -10.30358 -10.28841 -10.28243  -1.18811  -1.15867
 Alpha  occ. eigenvalues --   -1.13203  -1.12352  -1.11754  -1.10715  -1.09650
 Alpha  occ. eigenvalues --   -1.08611  -1.08472  -1.05732  -1.05145  -1.01815
 Alpha  occ. eigenvalues --   -1.01530  -1.01116  -0.99611  -0.98453  -0.97568
 Alpha  occ. eigenvalues --   -0.97211  -0.96677  -0.93423  -0.90263  -0.88113
 Alpha  occ. eigenvalues --   -0.86549  -0.84952  -0.83976  -0.83396  -0.82851
 Alpha  occ. eigenvalues --   -0.82381  -0.78162  -0.77435  -0.75281  -0.74703
 Alpha  occ. eigenvalues --   -0.73728  -0.73330  -0.72678  -0.71648  -0.70822
 Alpha  occ. eigenvalues --   -0.67458  -0.67207  -0.66860  -0.65984  -0.64650
 Alpha  occ. eigenvalues --   -0.64376  -0.63760  -0.63361  -0.62550  -0.62370
 Alpha  occ. eigenvalues --   -0.61739  -0.61217  -0.60851  -0.59988  -0.59121
 Alpha  occ. eigenvalues --   -0.59025  -0.58543  -0.58260  -0.57254  -0.56441
 Alpha  occ. eigenvalues --   -0.55847  -0.55574  -0.55291  -0.54762  -0.54151
 Alpha  occ. eigenvalues --   -0.54043  -0.53813  -0.53315  -0.53243  -0.52912
 Alpha  occ. eigenvalues --   -0.52672  -0.52169  -0.51472  -0.51187  -0.50510
 Alpha  occ. eigenvalues --   -0.50376  -0.49907  -0.49502  -0.49129  -0.48862
 Alpha  occ. eigenvalues --   -0.48484  -0.48127  -0.48102  -0.48020  -0.47555
 Alpha  occ. eigenvalues --   -0.47005  -0.46078  -0.44944  -0.44835  -0.42748
 Alpha  occ. eigenvalues --   -0.41378  -0.41038  -0.38809  -0.37898  -0.37834
 Alpha  occ. eigenvalues --   -0.37627  -0.37076  -0.36541  -0.35978  -0.34962
 Alpha  occ. eigenvalues --   -0.34802  -0.34427  -0.34136  -0.33649  -0.32873
 Alpha  occ. eigenvalues --   -0.32442  -0.32335  -0.31853  -0.31221  -0.31168
 Alpha  occ. eigenvalues --   -0.30569  -0.30115  -0.27093  -0.24480
 Alpha virt. eigenvalues --    0.03096   0.04251   0.06510   0.06695   0.08033
 Alpha virt. eigenvalues --    0.09253   0.09983   0.10097   0.11502   0.12803
 Alpha virt. eigenvalues --    0.12829   0.13314   0.14086   0.14501   0.14993
 Alpha virt. eigenvalues --    0.15319   0.16202   0.17606   0.18058   0.18154
 Alpha virt. eigenvalues --    0.18201   0.19293   0.19794   0.20216   0.20592
 Alpha virt. eigenvalues --    0.20630   0.20985   0.21058   0.21824   0.21977
 Alpha virt. eigenvalues --    0.22364   0.22971   0.22984   0.23777   0.23923
 Alpha virt. eigenvalues --    0.24293   0.24518   0.25198   0.25415   0.25609
 Alpha virt. eigenvalues --    0.27303   0.27636   0.28191   0.28626   0.28748
 Alpha virt. eigenvalues --    0.28758   0.29210   0.29581   0.30814   0.31316
 Alpha virt. eigenvalues --    0.31668   0.32058   0.32589   0.33293   0.33434
 Alpha virt. eigenvalues --    0.34280   0.34970   0.35505   0.35845   0.36470
 Alpha virt. eigenvalues --    0.36923   0.37384   0.37922   0.38018   0.38969
 Alpha virt. eigenvalues --    0.39265   0.39952   0.40705   0.41610   0.42023
 Alpha virt. eigenvalues --    0.42362   0.42886   0.43308   0.44075   0.44364
 Alpha virt. eigenvalues --    0.45417   0.45827   0.46138   0.46313   0.47135
 Alpha virt. eigenvalues --    0.47596   0.47933   0.48458   0.48911   0.49322
 Alpha virt. eigenvalues --    0.49729   0.50690   0.50883   0.51166   0.51680
 Alpha virt. eigenvalues --    0.52052   0.52863   0.53261   0.53391   0.53836
 Alpha virt. eigenvalues --    0.54300   0.55080   0.55460   0.55800   0.56130
 Alpha virt. eigenvalues --    0.56447   0.57164   0.57232   0.57705   0.57974
 Alpha virt. eigenvalues --    0.58272   0.58471   0.58799   0.58902   0.59511
 Alpha virt. eigenvalues --    0.60373   0.61124   0.61426   0.61677   0.62034
 Alpha virt. eigenvalues --    0.62321   0.63070   0.63697   0.63874   0.64465
 Alpha virt. eigenvalues --    0.64895   0.65407   0.65771   0.66399   0.66462
 Alpha virt. eigenvalues --    0.66712   0.67271   0.67570   0.68142   0.68308
 Alpha virt. eigenvalues --    0.68804   0.69321   0.70008   0.70669   0.70791
 Alpha virt. eigenvalues --    0.71228   0.71325   0.71729   0.71825   0.72885
 Alpha virt. eigenvalues --    0.73205   0.73792   0.74165   0.74421   0.74482
 Alpha virt. eigenvalues --    0.74780   0.75455   0.75666   0.75939   0.76024
 Alpha virt. eigenvalues --    0.76591   0.76734   0.77006   0.77639   0.78235
 Alpha virt. eigenvalues --    0.78567   0.78765   0.78900   0.79678   0.79706
 Alpha virt. eigenvalues --    0.79912   0.80283   0.81283   0.81440   0.81941
 Alpha virt. eigenvalues --    0.82182   0.82686   0.82774   0.83601   0.83889
 Alpha virt. eigenvalues --    0.84385   0.84947   0.85495   0.85846   0.86066
 Alpha virt. eigenvalues --    0.86515   0.87015   0.87507   0.87753   0.88186
 Alpha virt. eigenvalues --    0.88695   0.89147   0.89654   0.90091   0.90596
 Alpha virt. eigenvalues --    0.90796   0.91010   0.91566   0.92438   0.92962
 Alpha virt. eigenvalues --    0.93322   0.93772   0.94497   0.95034   0.95588
 Alpha virt. eigenvalues --    0.95972   0.96357   0.96485   0.97331   0.97372
 Alpha virt. eigenvalues --    0.97968   0.98472   0.99520   0.99996   1.00221
 Alpha virt. eigenvalues --    1.00566   1.00891   1.02163   1.02273   1.02656
 Alpha virt. eigenvalues --    1.03425   1.03770   1.04220   1.04835   1.04908
 Alpha virt. eigenvalues --    1.05499   1.05549   1.06017   1.06439   1.06672
 Alpha virt. eigenvalues --    1.07388   1.08120   1.08692   1.09595   1.09888
 Alpha virt. eigenvalues --    1.10530   1.11789   1.11898   1.12440   1.12560
 Alpha virt. eigenvalues --    1.12955   1.13455   1.13838   1.14212   1.14578
 Alpha virt. eigenvalues --    1.15573   1.15877   1.16222   1.16561   1.16986
 Alpha virt. eigenvalues --    1.17658   1.17765   1.18093   1.18528   1.19067
 Alpha virt. eigenvalues --    1.19711   1.20220   1.20719   1.20847   1.21383
 Alpha virt. eigenvalues --    1.21887   1.22274   1.22648   1.23067   1.23271
 Alpha virt. eigenvalues --    1.23775   1.23979   1.24332   1.25143   1.25393
 Alpha virt. eigenvalues --    1.25748   1.26683   1.27049   1.27283   1.28133
 Alpha virt. eigenvalues --    1.28410   1.28975   1.29216   1.29657   1.30578
 Alpha virt. eigenvalues --    1.30951   1.31738   1.31783   1.33096   1.33411
 Alpha virt. eigenvalues --    1.33976   1.34461   1.35333   1.36033   1.36180
 Alpha virt. eigenvalues --    1.36405   1.37536   1.37776   1.38925   1.39291
 Alpha virt. eigenvalues --    1.39995   1.40575   1.41183   1.42257   1.42435
 Alpha virt. eigenvalues --    1.44000   1.44766   1.45908   1.46451   1.46845
 Alpha virt. eigenvalues --    1.46887   1.48034   1.48326   1.49621   1.49631
 Alpha virt. eigenvalues --    1.49870   1.51145   1.51614   1.52803   1.53350
 Alpha virt. eigenvalues --    1.54317   1.54744   1.56038   1.56729   1.56916
 Alpha virt. eigenvalues --    1.57603   1.58347   1.59013   1.60005   1.60534
 Alpha virt. eigenvalues --    1.61067   1.61470   1.62116   1.62498   1.63348
 Alpha virt. eigenvalues --    1.63617   1.64734   1.64900   1.65086   1.65281
 Alpha virt. eigenvalues --    1.66194   1.66576   1.67657   1.68217   1.69085
 Alpha virt. eigenvalues --    1.69201   1.70019   1.70189   1.70423   1.70752
 Alpha virt. eigenvalues --    1.71017   1.71375   1.71511   1.71775   1.72605
 Alpha virt. eigenvalues --    1.72906   1.73852   1.74535   1.74859   1.75207
 Alpha virt. eigenvalues --    1.75581   1.75789   1.76200   1.76444   1.76708
 Alpha virt. eigenvalues --    1.77226   1.77619   1.78170   1.78457   1.78754
 Alpha virt. eigenvalues --    1.78879   1.79200   1.79707   1.80048   1.80935
 Alpha virt. eigenvalues --    1.81309   1.81725   1.82028   1.82495   1.83255
 Alpha virt. eigenvalues --    1.83601   1.84141   1.84338   1.85100   1.85201
 Alpha virt. eigenvalues --    1.85788   1.86319   1.86518   1.86893   1.87102
 Alpha virt. eigenvalues --    1.87669   1.88319   1.88681   1.89175   1.89341
 Alpha virt. eigenvalues --    1.89615   1.90295   1.90589   1.91415   1.92024
 Alpha virt. eigenvalues --    1.92581   1.93051   1.93254   1.93423   1.94317
 Alpha virt. eigenvalues --    1.94709   1.95490   1.95756   1.96173   1.97446
 Alpha virt. eigenvalues --    1.97585   1.98561   1.99232   1.99536   2.00318
 Alpha virt. eigenvalues --    2.01159   2.01515   2.02302   2.03269   2.03490
 Alpha virt. eigenvalues --    2.03763   2.04242   2.05361   2.05760   2.06918
 Alpha virt. eigenvalues --    2.07747   2.08706   2.09589   2.09720   2.10566
 Alpha virt. eigenvalues --    2.11204   2.11742   2.11815   2.12251   2.12613
 Alpha virt. eigenvalues --    2.13526   2.14000   2.15518   2.15794   2.16202
 Alpha virt. eigenvalues --    2.17654   2.18518   2.18582   2.19249   2.20048
 Alpha virt. eigenvalues --    2.20415   2.21138   2.21452   2.22571   2.22792
 Alpha virt. eigenvalues --    2.23977   2.24313   2.25226   2.25402   2.26260
 Alpha virt. eigenvalues --    2.26430   2.27296   2.27909   2.28055   2.28935
 Alpha virt. eigenvalues --    2.29380   2.29724   2.30073   2.30695   2.30901
 Alpha virt. eigenvalues --    2.31500   2.32691   2.33482   2.33627   2.34161
 Alpha virt. eigenvalues --    2.34375   2.34973   2.35284   2.36250   2.36637
 Alpha virt. eigenvalues --    2.36991   2.37349   2.38439   2.38947   2.39469
 Alpha virt. eigenvalues --    2.40271   2.41134   2.41670   2.42300   2.43089
 Alpha virt. eigenvalues --    2.43490   2.43950   2.44263   2.44763   2.45182
 Alpha virt. eigenvalues --    2.46232   2.46390   2.47046   2.48335   2.49728
 Alpha virt. eigenvalues --    2.49881   2.50680   2.52045   2.52451   2.53120
 Alpha virt. eigenvalues --    2.53973   2.55155   2.56923   2.57456   2.57984
 Alpha virt. eigenvalues --    2.59137   2.60843   2.61400   2.61526   2.62149
 Alpha virt. eigenvalues --    2.63607   2.64239   2.64300   2.65111   2.65810
 Alpha virt. eigenvalues --    2.66379   2.66678   2.67254   2.67428   2.68401
 Alpha virt. eigenvalues --    2.68867   2.69622   2.70754   2.71638   2.71745
 Alpha virt. eigenvalues --    2.72122   2.72457   2.73602   2.74741   2.75713
 Alpha virt. eigenvalues --    2.76237   2.76792   2.77224   2.77662   2.78371
 Alpha virt. eigenvalues --    2.79284   2.79806   2.80387   2.80792   2.81023
 Alpha virt. eigenvalues --    2.81438   2.81760   2.82050   2.82680   2.82822
 Alpha virt. eigenvalues --    2.83598   2.84125   2.84398   2.85883   2.86291
 Alpha virt. eigenvalues --    2.86664   2.87068   2.87777   2.88270   2.88987
 Alpha virt. eigenvalues --    2.89592   2.89921   2.91675   2.94993   2.95333
 Alpha virt. eigenvalues --    2.95683   2.99201   2.99519   3.00505   3.01645
 Alpha virt. eigenvalues --    3.02940   3.03737   3.04001   3.05594   3.08442
 Alpha virt. eigenvalues --    3.09096   3.10800   3.11464   3.13752   3.15641
 Alpha virt. eigenvalues --    3.15883   3.17195   3.18430   3.20207   3.21462
 Alpha virt. eigenvalues --    3.21783   3.23940   3.24605   3.26109   3.28827
 Alpha virt. eigenvalues --    3.44648   3.47223   3.48356   3.49247   3.51502
 Alpha virt. eigenvalues --    3.53329   3.55062   3.56897   3.59014   3.60693
 Alpha virt. eigenvalues --    3.64629   3.72138   3.76189
          Condensed to atoms (all electrons):
 Mulliken charges:
               1
     1  N   -0.296858
     2  C    0.185304
     3  C    0.081441
     4  N   -0.249365
     5  C    0.134131
     6  H    0.024589
     7  N   -0.278864
     8  C    0.136721
     9  H    0.001105
    10  N   -0.263876
    11  C    0.210266
    12  C    0.062643
    13  N   -0.045640
    14  H    0.111520
    15  H    0.084657
    16  H    0.027040
    17  H    0.041086
    18  H    0.012206
    19  N   -0.287524
    20  C    0.223012
    21  C    0.195201
    22  N   -0.101580
    23  H    0.119691
    24  H    0.118799
    25  N   -0.261312
    26  C    0.164759
    27  N   -0.104912
    28  H    0.117512
    29  C    0.163076
    30  O   -0.320175
    31  C    0.012071
    32  N   -0.211943
    33  C    0.104532
    34  H    0.022218
    35  H   -0.016374
    36  H    0.035520
    37  H    0.022718
    38  H    0.033758
    39  H    0.046541
    40  H    0.080526
    41  H    0.023798
    42  C   -0.102283
    43  O   -0.269761
    44  C    0.169869
    45  H    0.128280
    46  N   -0.107592
    47  O   -0.342552
    48  C    0.319833
    49  H    0.044629
    50  C    0.165858
    51  C    0.053670
    52  N   -0.272776
    53  H    0.035131
    54  H    0.043923
    55  H    0.030528
    56  H    0.124172
    57  H    0.120289
    58  N   -0.059024
    59  C    0.105320
    60  C    0.185923
    61  N   -0.260906
    62  H    0.007703
    63  C    0.179638
    64  N   -0.300851
    65  H    0.036743
    66  C    0.126345
    67  N   -0.250726
    68  C    0.057783
    69  C    0.181472
    70  N   -0.308655
 Sum of Mulliken charges =  -0.00000
 Mulliken charges with hydrogens summed into heavy atoms:
               1
     1  N   -0.296858
     2  C    0.265636
     3  C    0.081441
     4  N   -0.249365
     5  C    0.158721
     7  N   -0.278864
     8  C    0.137826
    10  N   -0.263876
    11  C    0.210266
    12  C    0.062643
    13  N    0.150536
    19  N   -0.287524
    20  C    0.223012
    21  C    0.237066
    22  N    0.136910
    25  N   -0.261312
    26  C    0.164759
    27  N    0.012601
    29  C    0.163076
    30  O   -0.320175
    31  C    0.012071
    32  N   -0.211943
    33  C    0.126750
    42  C   -0.078485
    43  O   -0.269761
    44  C    0.169869
    46  N    0.020688
    47  O   -0.342552
    48  C    0.319833
    50  C    0.210487
    51  C    0.214495
    52  N   -0.272776
    58  N    0.185436
    59  C    0.105320
    60  C    0.185923
    61  N   -0.260906
    63  C    0.187341
    64  N   -0.300851
    66  C    0.163087
    67  N   -0.250726
    68  C    0.057783
    69  C    0.291055
    70  N   -0.308655
 Electronic spatial extent (au):  <R**2>=          21782.9332
 Charge=             -0.0000 electrons
 Dipole moment (field-independent basis, Debye):
    X=             -5.3004    Y=              6.8983    Z=             -4.0610  Tot=              9.6007
 Quadrupole moment (field-independent basis, Debye-Ang):
   XX=           -147.9408   YY=           -229.0528   ZZ=           -261.1681
   XY=             -8.6078   XZ=             -3.3947   YZ=             13.0793
 Traceless Quadrupole moment (field-independent basis, Debye-Ang):
   XX=             64.7798   YY=            -16.3323   ZZ=            -48.4475
   XY=             -8.6078   XZ=             -3.3947   YZ=             13.0793
 Octapole moment (field-independent basis, Debye-Ang**2):
  XXX=             88.3335  YYY=             64.2438  ZZZ=            -11.8152  XYY=            -83.8190
  XXY=            113.4441  XXZ=            -31.4181  XZZ=            -29.7048  YZZ=             38.5032
  YYZ=            -65.5140  XYZ=             25.8508
 Hexadecapole moment (field-independent basis, Debye-Ang**3):
 XXXX=         -16540.0554 YYYY=          -3480.1732 ZZZZ=          -3563.9663 XXXY=           -748.2005
 XXXZ=           -102.2946 YYYX=             86.4003 YYYZ=             89.8745 ZZZX=            -23.3304
 ZZZY=             57.3703 XXYY=          -3788.4779 XXZZ=          -4057.8227 YYZZ=          -1303.7950
 XXYZ=            -49.8342 YYXZ=            129.5391 ZZXY=            -55.6512
 N-N= 5.662969978590D+03 E-N=-1.610638169898D+04  KE= 2.038130528022D+03
 No NMR shielding tensors so no spin-rotation constants.
 Leave Link  601 at Thu Jan 18 23:20:03 2018, MaxMem=  4294967296 cpu:              49.9 elap:               1.7
 (Enter /share/apps/g16/l9999.exe)
 1\1\GINC-COMPUTE-0-3\SP\RwB97XD\CC-pVDZ\C23H27N17O3\SATYA\18-Jan-2018\
 0\\#p wb97xd/cc-pvdz sp scf=(maxcycles=20)\\Base pair stacking\\0,1\N,
 0,-0.44309,3.9336,-6.1861\C,0,-0.6801,5.37241,-5.9588\C,0,-0.67834,1.7
 4882,-6.27927\N,0,0.58215,2.02549,-6.78854\C,0,0.67343,3.33067,-6.7120
 2\H,0,1.54071,3.91111,-7.02801\N,0,-2.61813,0.61763,-5.55778\C,0,-3.11
 018,1.82037,-5.24332\H,0,-4.11328,1.81597,-4.81901\N,0,-2.55179,3.0220
 8,-5.37371\C,0,-1.32216,2.91502,-5.90378\C,0,-1.37833,0.54348,-6.08925
 \N,0,-0.88542,-0.65622,-6.40379\H,0,0.02791,-0.75844,-6.79951\H,0,-1.4
 1199,-1.49326,-6.2547\H,0,-0.62317,5.86251,-6.82871\H,0,-1.58851,5.502
 84,-5.56267\H,0,0.01029,5.73089,-5.33043\N,0,-0.6243,3.9535,-3.03003\C
 ,0,-1.23827,2.73013,-2.90974\C,0,-1.29728,5.26219,-2.90708\N,0,-4.1017
 1,0.84281,-2.3616\H,0,-4.34929,-0.12437,-2.3115\H,0,-4.83706,1.50707,-
 2.22469\N,0,-2.54897,2.51975,-2.66103\C,0,-2.84057,1.23249,-2.60154\N,
 0,-1.92045,0.22663,-2.77226\H,0,-2.23332,-0.73002,-2.70984\C,0,-0.5667
 2,0.41989,-3.02905\O,0,0.17952,-0.55727,-3.16697\C,0,-0.23833,1.79778,
 -3.09582\N,0,0.97892,2.42322,-3.32824\C,0,0.70192,3.69804,-3.28011\H,0
 ,1.43023,4.49748,-3.4206\H,0,-1.19267,5.77401,-3.75908\H,0,-2.26877,5.
 119,-2.72278\H,0,-0.88925,5.7794,-2.15554\H,0,-4.53711,-5.25788,-2.918
 95\H,0,-3.97236,-5.38961,-1.25511\H,0,-4.39016,-3.81068,-1.92127\H,0,0
 .08529,-6.3781,-3.64362\C,0,-0.52117,-5.51482,-3.36943\O,0,1.18995,-3.
 9364,-3.82526\C,0,0.04609,-4.20402,-3.45819\H,0,-0.44066,-2.24222,-3.1
 3765\N,0,-0.80581,-3.18294,-3.08819\O,0,-2.78026,-2.33714,-2.35104\C,0
 ,-2.10331,-3.30286,-2.65728\H,0,-2.262,-6.63884,-2.86754\C,0,-1.78397,
 -5.66386,-2.9526\C,0,-3.96028,-4.77602,-2.14361\N,0,-2.57855,-4.5982,-
 2.59853\H,0,-7.3318,-5.62009,-4.31099\H,0,-6.58618,-4.45937,-3.43986\H
 ,0,-6.48719,-6.02028,-2.97312\H,0,-0.61235,-4.24665,-7.1444\H,0,-1.321
 68,-5.798,-7.15998\N,0,-1.35783,-4.84629,-6.85314\C,0,-2.35626,-4.3977
 5,-6.08951\C,0,-4.38778,-4.59146,-4.86594\N,0,-4.41031,-3.30842,-4.468
 8\H,0,-3.29107,-1.60281,-4.66573\C,0,-3.35114,-2.65469,-4.94177\N,0,-2
 .35007,-3.10216,-5.70675\H,0,-5.40046,-7.64951,-5.13984\C,0,-4.85532,-
 6.70725,-5.20248\N,0,-3.73388,-6.53735,-5.85912\C,0,-3.42648,-5.20014,
 -5.65394\C,0,-6.52562,-5.40432,-3.76007\N,0,-5.30832,-5.57099,-4.57763
 \\Version=EM64L-G16RevA.03\State=1-A\HF=-2048.7030935\RMSD=8.260e-09\D
 ipole=-3.6112642,-1.0722436,0.2760912\Quadrupole=-20.423396,39.3586768
 ,-18.9352808,24.2226052,-16.3155268,-2.9654914\PG=C01 [X(C23H27N17O3)]
 \\@


 TRUST EVERYONE, BUT CUT THE CARDS.
 Job cpu time:       0 days  6 hours 39 minutes 13.9 seconds.
 Elapsed time:       0 days  0 hours 12 minutes 54.4 seconds.
 File lengths (MBytes):  RWF=    298 Int=      0 D2E=      0 Chk=     33 Scr=      1
 Normal termination of Gaussian 16 at Thu Jan 18 23:20:03 2018.
