 Entering Gaussian System, Link 0=g16
 Input=str15.-10.0.0.com
 Output=str15.-10.0.0.log
 Initial command:
 /share/apps/g16/l1.exe "/state/partition1/scr/Gau-13346.inp" -scrdir="/state/partition1/scr/"
 Entering Link 1 = /share/apps/g16/l1.exe PID=     13347.
  
 Copyright (c) 1988,1990,1992,1993,1995,1998,2003,2009,2016,
            Gaussian, Inc.  All Rights Reserved.
  
 This is part of the Gaussian(R) 16 program.  It is based on
 the Gaussian(R) 09 system (copyright 2009, Gaussian, Inc.),
 the Gaussian(R) 03 system (copyright 2003, Gaussian, Inc.),
 the Gaussian(R) 98 system (copyright 1998, Gaussian, Inc.),
 the Gaussian(R) 94 system (copyright 1995, Gaussian, Inc.),
 the Gaussian 92(TM) system (copyright 1992, Gaussian, Inc.),
 the Gaussian 90(TM) system (copyright 1990, Gaussian, Inc.),
 the Gaussian 88(TM) system (copyright 1988, Gaussian, Inc.),
 the Gaussian 86(TM) system (copyright 1986, Carnegie Mellon
 University), and the Gaussian 82(TM) system (copyright 1983,
 Carnegie Mellon University). Gaussian is a federally registered
 trademark of Gaussian, Inc.
  
 This software contains proprietary and confidential information,
 including trade secrets, belonging to Gaussian, Inc.
  
 This software is provided under written license and may be
 used, copied, transmitted, or stored only in accord with that
 written license.
  
 The following legend is applicable only to US Government
 contracts under FAR:
  
                    RESTRICTED RIGHTS LEGEND
  
 Use, reproduction and disclosure by the US Government is
 subject to restrictions as set forth in subparagraphs (a)
 and (c) of the Commercial Computer Software - Restricted
 Rights clause in FAR 52.227-19.
  
 Gaussian, Inc.
 340 Quinnipiac St., Bldg. 40, Wallingford CT 06492
  
  
 ---------------------------------------------------------------
 Warning -- This program may not be used in any manner that
 competes with the business of Gaussian, Inc. or will provide
 assistance to any competitor of Gaussian, Inc.  The licensee
 of this program is prohibited from giving any competitor of
 Gaussian, Inc. access to this program.  By using this program,
 the user acknowledges that Gaussian, Inc. is engaged in the
 business of creating and licensing software in the field of
 computational chemistry and represents and warrants to the
 licensee that it is not a competitor of Gaussian, Inc. and that
 it will not use this program in any manner prohibited above.
 ---------------------------------------------------------------
  

 Cite this work as:
 Gaussian 16, Revision A.03,
 M. J. Frisch, G. W. Trucks, H. B. Schlegel, G. E. Scuseria, 
 M. A. Robb, J. R. Cheeseman, G. Scalmani, V. Barone, 
 G. A. Petersson, H. Nakatsuji, X. Li, M. Caricato, A. V. Marenich, 
 J. Bloino, B. G. Janesko, R. Gomperts, B. Mennucci, H. P. Hratchian, 
 J. V. Ortiz, A. F. Izmaylov, J. L. Sonnenberg, D. Williams-Young, 
 F. Ding, F. Lipparini, F. Egidi, J. Goings, B. Peng, A. Petrone, 
 T. Henderson, D. Ranasinghe, V. G. Zakrzewski, J. Gao, N. Rega, 
 G. Zheng, W. Liang, M. Hada, M. Ehara, K. Toyota, R. Fukuda, 
 J. Hasegawa, M. Ishida, T. Nakajima, Y. Honda, O. Kitao, H. Nakai, 
 T. Vreven, K. Throssell, J. A. Montgomery, Jr., J. E. Peralta, 
 F. Ogliaro, M. J. Bearpark, J. J. Heyd, E. N. Brothers, K. N. Kudin, 
 V. N. Staroverov, T. A. Keith, R. Kobayashi, J. Normand, 
 K. Raghavachari, A. P. Rendell, J. C. Burant, S. S. Iyengar, 
 J. Tomasi, M. Cossi, J. M. Millam, M. Klene, C. Adamo, R. Cammi, 
 J. W. Ochterski, R. L. Martin, K. Morokuma, O. Farkas, 
 J. B. Foresman, and D. J. Fox, Gaussian, Inc., Wallingford CT, 2016.
 
 ******************************************
 Gaussian 16:  EM64L-G16RevA.03 25-Dec-2016
                18-Jan-2018 
 ******************************************
 %nprocshared=32
 Will use up to   32 processors via shared memory.
 %mem=32GB
 %chk=allatoms_t.chk
 ---------------------------------------
 #p wb97xd/cc-pvdz sp scf=(maxcycles=20)
 ---------------------------------------
 1/38=1,172=1/1;
 2/12=2,17=6,18=5,40=1/2;
 3/5=16,11=2,25=1,30=1,74=-58/1,2,3;
 4//1;
 5/5=2,7=20,38=5/2;
 6/7=2,8=2,9=2,10=2,28=1/1;
 99/5=1,9=1/99;
 Leave Link    1 at Thu Jan 18 17:08:18 2018, MaxMem=  4294967296 cpu:               2.7 elap:               0.1
 (Enter /share/apps/g16/l101.exe)
 ------------------
 Base pair stacking
 ------------------
 Symbolic Z-matrix:
 Charge =  0 Multiplicity = 1
 N                     0.56941   5.76614  -6.40367 
 C                     0.29327   7.2108   -6.28233 
 C                     0.36009   3.577    -6.43789 
 N                     1.68651   3.84486  -6.74381 
 C                     1.75953   5.15302  -6.71095 
 H                     2.66519   5.72848  -6.90475 
 N                    -1.66853   2.4574   -5.99729 
 C                    -2.20982   3.66727  -5.82176 
 H                    -3.26925   3.6705   -5.56907 
 N                    -1.64156   4.8681   -5.91109 
 C                    -0.34085   4.75138  -6.22566 
 C                    -0.35767   2.37361  -6.31302 
 N                     0.18447   1.16678  -6.48864 
 H                     1.151     1.05732  -6.72326 
 H                    -0.35672   0.3314   -6.39172 
 H                     0.49165   7.66364  -7.15168 
 H                    -0.66856   7.34851  -6.04774 
 H                     0.86904   7.60323  -5.56506 
 N                    -0.36886   4.93697  -3.12497 
 C                    -0.99015   3.71407  -3.044 
 C                    -1.05072   6.24589  -3.07501 
 N                    -3.88891   1.82848  -2.7223 
 H                    -4.13928   0.86153  -2.68272 
 H                    -4.6337    2.49307  -2.6565 
 N                    -2.31723   3.50442  -2.90632 
 C                    -2.61207   2.21744  -2.85752 
 N                    -1.68008   1.21119  -2.93729 
 H                    -1.99656   0.2548   -2.89116 
 C                    -0.30943   1.40369  -3.07915 
 O                     0.4465    0.42623  -3.14148 
 C                     0.02264   2.78127  -3.13305 
 N                     1.25497   3.40599  -3.26722 
 C                     0.97408   4.68083  -3.25743 
 H                     1.71127   5.47979  -3.34393 
 H                    -0.87369   6.74831  -3.92061 
 H                    -2.03436   6.10325  -2.97314 
 H                    -0.70901   6.77213  -2.29712 
 H                    -4.27114  -4.27875  -3.24603 
 H                    -3.85118  -4.39095  -1.53848 
 H                    -4.21124  -2.82023  -2.25582 
 H                     0.39708  -5.39971  -3.5587 
 C                    -0.2312   -4.53437  -3.34732 
 O                     1.51176  -2.95846  -3.67244 
 C                     0.34078  -3.22376  -3.40188 
 H                    -0.17288  -1.25927  -3.14646 
 N                    -0.54035  -2.19994  -3.11789 
 O                    -2.5713   -1.34906  -2.56249 
 C                    -1.86996  -2.31708  -2.79858 
 H                    -2.00799  -5.65545  -2.984 
 C                    -1.52501  -4.68073  -3.03873 
 C                    -3.76327  -3.78733  -2.42954 
 N                    -2.34771  -3.61243  -2.7662 
 H                    -6.50267  -3.77051  -5.27165 
 H                    -5.91525  -2.5656   -4.34147 
 H                    -5.88961  -4.10388  -3.79637 
 H                     0.58822  -2.44907  -7.01483 
 H                    -0.10359  -4.00708  -7.07881 
 N                    -0.19316  -3.04349  -6.82445 
 C                    -1.30562  -2.57314  -6.25665 
 C                    -3.51085  -2.73559  -5.37786 
 N                    -3.60303  -1.43697  -5.04691 
 H                    -2.47232   0.27035  -5.13146 
 C                    -2.48241  -0.793    -5.36694 
 N                    -1.36713  -1.26231  -5.93568 
 H                    -4.4541   -5.81312  -5.67995 
 C                    -3.90925  -4.86871  -5.69326 
 N                    -2.69523  -4.71532  -6.16264 
 C                    -2.43045  -3.36735  -5.96873 
 C                    -5.79942  -3.52274  -4.60528 
 N                    -4.46313  -3.71151  -5.20252 
 
 ITRead=  0  0  0  0  0  0  0  0  0  0  0  0  0  0  0  0  0  0  0  0
 ITRead=  0  0  0  0  0  0  0  0  0  0  0  0  0  0  0  0  0  0  0  0
 ITRead=  0  0  0  0  0  0  0  0  0  0  0  0  0  0  0  0  0  0  0  0
 ITRead=  0  0  0  0  0  0  0  0  0  0
 MicOpt= -1 -1 -1 -1 -1 -1 -1 -1 -1 -1 -1 -1 -1 -1 -1 -1 -1 -1 -1 -1
 MicOpt= -1 -1 -1 -1 -1 -1 -1 -1 -1 -1 -1 -1 -1 -1 -1 -1 -1 -1 -1 -1
 MicOpt= -1 -1 -1 -1 -1 -1 -1 -1 -1 -1 -1 -1 -1 -1 -1 -1 -1 -1 -1 -1
 MicOpt= -1 -1 -1 -1 -1 -1 -1 -1 -1 -1
 NAtoms=     70 NQM=       70 NQMF=       0 NMMI=      0 NMMIF=      0
                NMic=       0 NMicF=      0.
                    Isotopes and Nuclear Properties:
 (Nuclear quadrupole moments (NQMom) in fm**2, nuclear magnetic moments (NMagM)
  in nuclear magnetons)

  Atom         1           2           3           4           5           6           7           8           9          10
 IAtWgt=          14          12          12          14          12           1          14          12           1          14
 AtmWgt=  14.0030740  12.0000000  12.0000000  14.0030740  12.0000000   1.0078250  14.0030740  12.0000000   1.0078250  14.0030740
 NucSpn=           2           0           0           2           0           1           2           0           1           2
 AtZEff=  -0.0000000  -0.0000000  -0.0000000  -0.0000000  -0.0000000  -0.0000000  -0.0000000  -0.0000000  -0.0000000  -0.0000000
 NQMom=    2.0440000   0.0000000   0.0000000   2.0440000   0.0000000   0.0000000   2.0440000   0.0000000   0.0000000   2.0440000
 NMagM=    0.4037610   0.0000000   0.0000000   0.4037610   0.0000000   2.7928460   0.4037610   0.0000000   2.7928460   0.4037610
 AtZNuc=   7.0000000   6.0000000   6.0000000   7.0000000   6.0000000   1.0000000   7.0000000   6.0000000   1.0000000   7.0000000

  Atom        11          12          13          14          15          16          17          18          19          20
 IAtWgt=          12          12          14           1           1           1           1           1          14          12
 AtmWgt=  12.0000000  12.0000000  14.0030740   1.0078250   1.0078250   1.0078250   1.0078250   1.0078250  14.0030740  12.0000000
 NucSpn=           0           0           2           1           1           1           1           1           2           0
 AtZEff=  -0.0000000  -0.0000000  -0.0000000  -0.0000000  -0.0000000  -0.0000000  -0.0000000  -0.0000000  -0.0000000  -0.0000000
 NQMom=    0.0000000   0.0000000   2.0440000   0.0000000   0.0000000   0.0000000   0.0000000   0.0000000   2.0440000   0.0000000
 NMagM=    0.0000000   0.0000000   0.4037610   2.7928460   2.7928460   2.7928460   2.7928460   2.7928460   0.4037610   0.0000000
 AtZNuc=   6.0000000   6.0000000   7.0000000   1.0000000   1.0000000   1.0000000   1.0000000   1.0000000   7.0000000   6.0000000

  Atom        21          22          23          24          25          26          27          28          29          30
 IAtWgt=          12          14           1           1          14          12          14           1          12          16
 AtmWgt=  12.0000000  14.0030740   1.0078250   1.0078250  14.0030740  12.0000000  14.0030740   1.0078250  12.0000000  15.9949146
 NucSpn=           0           2           1           1           2           0           2           1           0           0
 AtZEff=  -0.0000000  -0.0000000  -0.0000000  -0.0000000  -0.0000000  -0.0000000  -0.0000000  -0.0000000  -0.0000000  -0.0000000
 NQMom=    0.0000000   2.0440000   0.0000000   0.0000000   2.0440000   0.0000000   2.0440000   0.0000000   0.0000000   0.0000000
 NMagM=    0.0000000   0.4037610   2.7928460   2.7928460   0.4037610   0.0000000   0.4037610   2.7928460   0.0000000   0.0000000
 AtZNuc=   6.0000000   7.0000000   1.0000000   1.0000000   7.0000000   6.0000000   7.0000000   1.0000000   6.0000000   8.0000000

  Atom        31          32          33          34          35          36          37          38          39          40
 IAtWgt=          12          14          12           1           1           1           1           1           1           1
 AtmWgt=  12.0000000  14.0030740  12.0000000   1.0078250   1.0078250   1.0078250   1.0078250   1.0078250   1.0078250   1.0078250
 NucSpn=           0           2           0           1           1           1           1           1           1           1
 AtZEff=  -0.0000000  -0.0000000  -0.0000000  -0.0000000  -0.0000000  -0.0000000  -0.0000000  -0.0000000  -0.0000000  -0.0000000
 NQMom=    0.0000000   2.0440000   0.0000000   0.0000000   0.0000000   0.0000000   0.0000000   0.0000000   0.0000000   0.0000000
 NMagM=    0.0000000   0.4037610   0.0000000   2.7928460   2.7928460   2.7928460   2.7928460   2.7928460   2.7928460   2.7928460
 AtZNuc=   6.0000000   7.0000000   6.0000000   1.0000000   1.0000000   1.0000000   1.0000000   1.0000000   1.0000000   1.0000000

  Atom        41          42          43          44          45          46          47          48          49          50
 IAtWgt=           1          12          16          12           1          14          16          12           1          12
 AtmWgt=   1.0078250  12.0000000  15.9949146  12.0000000   1.0078250  14.0030740  15.9949146  12.0000000   1.0078250  12.0000000
 NucSpn=           1           0           0           0           1           2           0           0           1           0
 AtZEff=  -0.0000000  -0.0000000  -0.0000000  -0.0000000  -0.0000000  -0.0000000  -0.0000000  -0.0000000  -0.0000000  -0.0000000
 NQMom=    0.0000000   0.0000000   0.0000000   0.0000000   0.0000000   2.0440000   0.0000000   0.0000000   0.0000000   0.0000000
 NMagM=    2.7928460   0.0000000   0.0000000   0.0000000   2.7928460   0.4037610   0.0000000   0.0000000   2.7928460   0.0000000
 AtZNuc=   1.0000000   6.0000000   8.0000000   6.0000000   1.0000000   7.0000000   8.0000000   6.0000000   1.0000000   6.0000000

  Atom        51          52          53          54          55          56          57          58          59          60
 IAtWgt=          12          14           1           1           1           1           1          14          12          12
 AtmWgt=  12.0000000  14.0030740   1.0078250   1.0078250   1.0078250   1.0078250   1.0078250  14.0030740  12.0000000  12.0000000
 NucSpn=           0           2           1           1           1           1           1           2           0           0
 AtZEff=  -0.0000000  -0.0000000  -0.0000000  -0.0000000  -0.0000000  -0.0000000  -0.0000000  -0.0000000  -0.0000000  -0.0000000
 NQMom=    0.0000000   2.0440000   0.0000000   0.0000000   0.0000000   0.0000000   0.0000000   2.0440000   0.0000000   0.0000000
 NMagM=    0.0000000   0.4037610   2.7928460   2.7928460   2.7928460   2.7928460   2.7928460   0.4037610   0.0000000   0.0000000
 AtZNuc=   6.0000000   7.0000000   1.0000000   1.0000000   1.0000000   1.0000000   1.0000000   7.0000000   6.0000000   6.0000000

  Atom        61          62          63          64          65          66          67          68          69          70
 IAtWgt=          14           1          12          14           1          12          14          12          12          14
 AtmWgt=  14.0030740   1.0078250  12.0000000  14.0030740   1.0078250  12.0000000  14.0030740  12.0000000  12.0000000  14.0030740
 NucSpn=           2           1           0           2           1           0           2           0           0           2
 AtZEff=  -0.0000000  -0.0000000  -0.0000000  -0.0000000  -0.0000000  -0.0000000  -0.0000000  -0.0000000  -0.0000000  -0.0000000
 NQMom=    2.0440000   0.0000000   0.0000000   2.0440000   0.0000000   0.0000000   2.0440000   0.0000000   0.0000000   2.0440000
 NMagM=    0.4037610   2.7928460   0.0000000   0.4037610   2.7928460   0.0000000   0.4037610   0.0000000   0.0000000   0.4037610
 AtZNuc=   7.0000000   1.0000000   6.0000000   7.0000000   1.0000000   6.0000000   7.0000000   6.0000000   6.0000000   7.0000000
 Leave Link  101 at Thu Jan 18 17:08:18 2018, MaxMem=  4294967296 cpu:               7.7 elap:               0.3
 (Enter /share/apps/g16/l202.exe)
 Stoichiometry    C23H27N17O3
 Framework group  C1[X(C23H27N17O3)]
 Deg. of freedom   204
 Full point group                 C1      NOp   1
 Largest Abelian subgroup         C1      NOp   1
 Largest concise Abelian subgroup C1      NOp   1
                         Standard orientation:                         
 ---------------------------------------------------------------------
 Center     Atomic      Atomic             Coordinates (Angstroms)
 Number     Number       Type             X           Y           Z
 ---------------------------------------------------------------------
      1          7           0        5.733574   -1.138610   -0.979887
      2          6           0        7.029539   -0.474086   -1.218426
      3          6           0        3.582365   -1.584703   -0.876836
      4          7           0        4.233883   -2.692348   -0.353986
      5          6           0        5.503836   -2.379261   -0.436997
      6          1           0        6.323246   -3.022015   -0.113940
      7          7           0        1.908563   -0.095989   -1.615111
      8          6           0        2.901358    0.737536   -1.942500
      9          1           0        2.588193    1.685037   -2.378877
     10          7           0        4.216737    0.577100   -1.812378
     11          6           0        4.493641   -0.618797   -1.266872
     12          6           0        2.219917   -1.291435   -1.068278
     13          7           0        1.230276   -2.124843   -0.740805
     14          1           0        1.414352   -3.020060   -0.333483
     15          1           0        0.271665   -1.882903   -0.891370
     16          1           0        7.581364   -1.030135   -1.840106
     17          1           0        6.873820    0.425105   -1.626250
     18          1           0        7.515302   -0.365260   -0.351143
     19          7           0        4.439743    1.334437    1.147973
     20          6           0        3.088931    1.523631    0.981984
     21          6           0        5.496832    2.223287    0.625279
     22          7           0        0.445943    3.387959   -0.283183
     23          1           0       -0.552620    3.342362   -0.289177
     24          1           0        0.867625    4.162236   -0.755837
     25          7           0        2.505061    2.545082    0.318821
     26          6           0        1.187085    2.453291    0.330819
     27          7           0        0.492137    1.439537    0.944707
     28          1           0       -0.515391    1.450221    0.902978
     29          6           0        1.072155    0.378368    1.632720
     30          8           0        0.353971   -0.485325    2.151361
     31          6           0        2.487667    0.463275    1.628448
     32          7           0        3.441811   -0.374749    2.189018
     33          6           0        4.581984    0.180442    1.879208
     34          1           0        5.560130   -0.211599    2.159925
     35          1           0        6.088381    1.710827    0.003782
     36          1           0        5.076280    2.983675    0.132107
     37          1           0        6.040421    2.579742    1.384395
     38          1           0       -5.467835    1.732357   -0.213456
     39          1           0       -5.580200    2.425027    1.402794
     40          1           0       -4.126734    2.676602    0.435569
     41          1           0       -5.204697   -2.250636    2.472269
     42          6           0       -4.568640   -1.421812    2.161282
     43          8           0       -2.546882   -2.505206    2.766144
     44          6           0       -3.149674   -1.534731    2.308322
     45          1           0       -1.432769   -0.472747    1.972561
     46          7           0       -2.438333   -0.430370    1.884494
     47          8           0       -2.235513    1.653695    1.005427
     48          6           0       -2.947491    0.727866    1.352714
     49          1           0       -6.167442   -0.168966    1.513198
     50          6           0       -5.094914   -0.304657    1.645924
     51          6           0       -4.913605    1.978590    0.680009
     52          7           0       -4.323747    0.760824    1.242905
     53          1           0       -5.463181    2.308152   -3.215057
     54          1           0       -4.212031    2.753563   -2.267249
     55          1           0       -5.716112    2.656398   -1.640833
     56          1           0       -2.078211   -3.708015   -0.492318
     57          1           0       -3.759076   -3.643140   -0.776173
     58          7           0       -2.880555   -3.165426   -0.741265
     59          6           0       -2.784375   -1.862675   -1.014728
     60          6           0       -3.623562    0.278840   -1.624140
     61          7           0       -2.430708    0.894093   -1.569343
     62          1           0       -0.472788    0.450116   -1.156999
     63          6           0       -1.476166    0.031958   -1.225135
     64          7           0       -1.570490   -1.273199   -0.950845
     65          1           0       -6.812021   -0.016625   -2.069786
     66          6           0       -5.754079   -0.181544   -1.863608
     67          7           0       -5.231929   -1.334732   -1.524186
     68          6           0       -3.881551   -1.056832   -1.369316
     69          6           0       -5.076311    2.252164   -2.294624
     70          7           0       -4.837957    0.838818   -1.942998
 ---------------------------------------------------------------------
 Rotational constants (GHZ):           0.1793109           0.0528800           0.0515948
 Leave Link  202 at Thu Jan 18 17:08:18 2018, MaxMem=  4294967296 cpu:               0.3 elap:               0.0
 (Enter /share/apps/g16/l301.exe)
 Standard basis: CC-pVDZ (5D, 7F)
 Ernie: Thresh=  0.10000D-02 Tol=  0.10000D-05 Strict=F.
 Ernie:  86 primitive shells out of 1081 were deleted.
 There are   780 symmetry adapted cartesian basis functions of A   symmetry.
 There are   737 symmetry adapted basis functions of A   symmetry.
   737 basis functions,  1608 primitive gaussians,   780 cartesian basis functions
   154 alpha electrons      154 beta electrons
       nuclear repulsion energy      5645.6737036539 Hartrees.
 IExCor= 4639 DFT=T Ex+Corr=wB97XD ExCW=0 ScaHFX=  1.000000
 ScaDFX=  1.000000  1.000000  1.000000  1.000000 ScalE2=  1.000000  1.000000
 IRadAn=      5 IRanWt=     -1 IRanGd=            0 ICorTp=0 IEmpDi=121
 HFx  wShort=  0.000000 wLong=  0.200000 cFull=  0.222036 cShort=  0.000000 cLong=  0.777964
 DFx  wShort=  0.000000 wLong=  0.200000 cFull=  0.000000 cShort=  0.000000 cLong=  1.000000
 NAtoms=   70 NActive=   70 NUniq=   70 SFac= 1.00D+00 NAtFMM=   60 NAOKFM=T Big=T
 Integral buffers will be    131072 words long.
 Raffenetti 2 integral format.
 Two-electron integral symmetry is turned on.
 R6Disp:  Grimme-D2 Dispersion energy=       -0.0824051900 Hartrees.
 Nuclear repulsion after empirical dispersion term =     5645.5912984640 Hartrees.
 Leave Link  301 at Thu Jan 18 17:08:18 2018, MaxMem=  4294967296 cpu:               2.1 elap:               0.1
 (Enter /share/apps/g16/l302.exe)
 NPDir=0 NMtPBC=     1 NCelOv=     1 NCel=       1 NClECP=     1 NCelD=      1
         NCelK=      1 NCelE2=     1 NClLst=     1 CellRange=     0.0.
 One-electron integrals computed using PRISM.
 One-electron integral symmetry used in STVInt
 NBasis=   737 RedAO= T EigKep=  6.35D-04  NBF=   737
 NBsUse=   737 1.00D-06 EigRej= -1.00D+00 NBFU=   737
 Precomputing XC quadrature grid using
 IXCGrd= 4 IRadAn=           5 IRanWt=          -1 IRanGd=           0 AccXCQ= 0.00D+00.
 Generated NRdTot=       0 NPtTot=           0 NUsed=           0 NTot=          32
 NSgBfM=   770   770   770   770   770 MxSgAt=    70 MxSgA2=    70.
 Leave Link  302 at Thu Jan 18 17:08:26 2018, MaxMem=  4294967296 cpu:             227.5 elap:               7.3
 (Enter /share/apps/g16/l303.exe)
 DipDrv:  MaxL=1.
 Leave Link  303 at Thu Jan 18 17:08:26 2018, MaxMem=  4294967296 cpu:              12.6 elap:               0.4
 (Enter /share/apps/g16/l401.exe)
 ExpMin= 1.22D-01 ExpMax= 1.17D+04 ExpMxC= 4.01D+02 IAcc=3 IRadAn=         5 AccDes= 0.00D+00
 Harris functional with IExCor= 4639 and IRadAn=       5 diagonalized for initial guess.
 HarFok:  IExCor= 4639 AccDes= 0.00D+00 IRadAn=         5 IDoV= 1 UseB2=F ITyADJ=14
 ICtDFT=  3500011 ScaDFX=  1.000000  1.000000  1.000000  1.000000
 FoFCou: FMM=F IPFlag=           0 FMFlag=      100000 FMFlg1=        2001
         NFxFlg=           0 DoJE=T BraDBF=F KetDBF=T FulRan=T
         wScrn=  0.000000 ICntrl=       500 IOpCl=  0 I1Cent=   200000004 NGrid=           0
         NMat0=    1 NMatS0=      1 NMatT0=    0 NMatD0=    1 NMtDS0=    0 NMtDT0=    0
 Petite list used in FoFCou.
 Harris En= -1963.86595374033    
 JPrj=0 DoOrth=F DoCkMO=F.
 Leave Link  401 at Thu Jan 18 17:08:39 2018, MaxMem=  4294967296 cpu:             417.3 elap:              13.1
 (Enter /share/apps/g16/l502.exe)
 Integral symmetry usage will be decided dynamically.
 Closed shell SCF:
 Using DIIS extrapolation, IDIIS=  1040.
 NGot=  4294967296 LenX=  4293717438 LenY=  4293108258
 Requested convergence on RMS density matrix=1.00D-08 within  20 cycles.
 Requested convergence on MAX density matrix=1.00D-06.
 Requested convergence on             energy=1.00D-06.
 No special actions if energy rises.
 Fock matrices will be formed incrementally for  20 cycles.
 Integral accuracy reduced to 1.0D-05 until final iterations.

 Cycle   1  Pass 0  IDiag  1:
 FoFJK:  IHMeth= 1 ICntrl=       0 DoSepK=T KAlg= 0 I1Cent=           0 FoldK=F
 IRaf=         1 NMat=       1 IRICut=       1 DoRegI=T DoRafI=F ISym2E= 0 IDoP0=0 IntGTp=1.
 FoFCou: FMM=T IPFlag=           0 FMFlag=      100000 FMFlg1=        2001
         NFxFlg=           0 DoJE=T BraDBF=F KetDBF=F FulRan=T
         wScrn=  0.000000 ICntrl=       500 IOpCl=  0 I1Cent=           0 NGrid=           0
         NMat0=    1 NMatS0=      1 NMatT0=    0 NMatD0=    1 NMtDS0=    0 NMtDT0=    0
 Symmetry not used in FoFCou.
 FMM levels:  10  Number of levels for PrismC:   9
 E= -2048.29730302442    
 DIIS: error= 1.84D-02 at cycle   1 NSaved=   1.
 NSaved= 1 IEnMin= 1 EnMin= -2048.29730302442     IErMin= 1 ErrMin= 1.84D-02
 ErrMax= 1.84D-02  0.00D+00 EMaxC= 1.00D-01 BMatC= 8.39D-01 BMatP= 8.39D-01
 IDIUse=3 WtCom= 8.16D-01 WtEn= 1.84D-01
 Coeff-Com:  0.100D+01
 Coeff-En:   0.100D+01
 Coeff:      0.100D+01
 Gap=     0.258 Goal=   None    Shift=    0.000
 GapD=    0.258 DampG=1.000 DampE=0.500 DampFc=0.5000 IDamp=-1.
 Damping current iteration by 5.00D-01
 RMSDP=1.63D-03 MaxDP=1.27D-01              OVMax= 2.10D-01

 Cycle   2  Pass 0  IDiag  1:
 RMSU=  8.14D-04    CP:  9.97D-01
 E= -2048.49331411442     Delta-E=       -0.196011090005 Rises=F Damp=T
 DIIS: error= 8.90D-03 at cycle   2 NSaved=   2.
 NSaved= 2 IEnMin= 2 EnMin= -2048.49331411442     IErMin= 2 ErrMin= 8.90D-03
 ErrMax= 8.90D-03  0.00D+00 EMaxC= 1.00D-01 BMatC= 1.47D-01 BMatP= 8.39D-01
 IDIUse=3 WtCom= 9.11D-01 WtEn= 8.90D-02
 Coeff-Com: -0.176D+00 0.118D+01
 Coeff-En:   0.000D+00 0.100D+01
 Coeff:     -0.160D+00 0.116D+01
 Gap=     0.328 Goal=   None    Shift=    0.000
 RMSDP=6.18D-04 MaxDP=3.58D-02 DE=-1.96D-01 OVMax= 1.42D-01

 Cycle   3  Pass 0  IDiag  1:
 RMSU=  6.11D-04    CP:  9.94D-01  1.10D+00
 E= -2048.67017250723     Delta-E=       -0.176858392807 Rises=F Damp=F
 DIIS: error= 7.11D-03 at cycle   3 NSaved=   3.
 NSaved= 3 IEnMin= 3 EnMin= -2048.67017250723     IErMin= 3 ErrMin= 7.11D-03
 ErrMax= 7.11D-03  0.00D+00 EMaxC= 1.00D-01 BMatC= 7.39D-02 BMatP= 1.47D-01
 IDIUse=3 WtCom= 9.29D-01 WtEn= 7.11D-02
 Coeff-Com: -0.235D+00 0.566D+00 0.669D+00
 Coeff-En:   0.000D+00 0.000D+00 0.100D+01
 Coeff:     -0.218D+00 0.525D+00 0.693D+00
 Gap=     0.287 Goal=   None    Shift=    0.000
 RMSDP=3.96D-04 MaxDP=3.24D-02 DE=-1.77D-01 OVMax= 7.72D-02

 Cycle   4  Pass 0  IDiag  1:
 RMSU=  2.17D-04    CP:  9.94D-01  1.41D+00  6.45D-01
 E= -2048.72604467062     Delta-E=       -0.055872163392 Rises=F Damp=F
 DIIS: error= 2.27D-03 at cycle   4 NSaved=   4.
 NSaved= 4 IEnMin= 4 EnMin= -2048.72604467062     IErMin= 4 ErrMin= 2.27D-03
 ErrMax= 2.27D-03  0.00D+00 EMaxC= 1.00D-01 BMatC= 1.04D-02 BMatP= 7.39D-02
 IDIUse=3 WtCom= 9.77D-01 WtEn= 2.27D-02
 Coeff-Com: -0.979D-01 0.190D+00 0.373D+00 0.535D+00
 Coeff-En:   0.000D+00 0.000D+00 0.718D-01 0.928D+00
 Coeff:     -0.957D-01 0.185D+00 0.366D+00 0.544D+00
 Gap=     0.288 Goal=   None    Shift=    0.000
 RMSDP=1.37D-04 MaxDP=1.11D-02 DE=-5.59D-02 OVMax= 1.56D-02

 Cycle   5  Pass 0  IDiag  1:
 RMSU=  6.34D-05    CP:  9.93D-01  1.38D+00  7.84D-01  6.21D-01
 E= -2048.73479185561     Delta-E=       -0.008747184990 Rises=F Damp=F
 DIIS: error= 4.72D-04 at cycle   5 NSaved=   5.
 NSaved= 5 IEnMin= 5 EnMin= -2048.73479185561     IErMin= 5 ErrMin= 4.72D-04
 ErrMax= 4.72D-04  0.00D+00 EMaxC= 1.00D-01 BMatC= 3.01D-04 BMatP= 1.04D-02
 IDIUse=3 WtCom= 9.95D-01 WtEn= 4.72D-03
 Coeff-Com: -0.258D-01 0.443D-01 0.121D+00 0.236D+00 0.625D+00
 Coeff-En:   0.000D+00 0.000D+00 0.000D+00 0.000D+00 0.100D+01
 Coeff:     -0.257D-01 0.441D-01 0.120D+00 0.235D+00 0.626D+00
 Gap=     0.289 Goal=   None    Shift=    0.000
 RMSDP=2.77D-05 MaxDP=1.53D-03 DE=-8.75D-03 OVMax= 3.33D-03

 Failed to achieve initial convergence to 1.0D-08 in  6 cycles.
 Switch to full accuracy anyway.
 Cycle   6  Pass 1  IDiag  1:
 E= -2048.73481537565     Delta-E=       -0.000023520043 Rises=F Damp=F
 DIIS: error= 4.12D-04 at cycle   1 NSaved=   1.
 NSaved= 1 IEnMin= 1 EnMin= -2048.73481537565     IErMin= 1 ErrMin= 4.12D-04
 ErrMax= 4.12D-04  0.00D+00 EMaxC= 1.00D-01 BMatC= 8.38D-05 BMatP= 8.38D-05
 IDIUse=3 WtCom= 9.96D-01 WtEn= 4.12D-03
 Coeff-Com:  0.100D+01
 Coeff-En:   0.100D+01
 Coeff:      0.100D+01
 Gap=     0.289 Goal=   None    Shift=    0.000
 RMSDP=2.77D-05 MaxDP=1.53D-03 DE=-2.35D-05 OVMax= 2.59D-03

 Cycle   7  Pass 1  IDiag  1:
 RMSU=  1.27D-04    CP:  1.00D+00
 E= -2048.73487328195     Delta-E=       -0.000057906295 Rises=F Damp=F
 DIIS: error= 1.89D-04 at cycle   2 NSaved=   2.
 NSaved= 2 IEnMin= 2 EnMin= -2048.73487328195     IErMin= 2 ErrMin= 1.89D-04
 ErrMax= 1.89D-04  0.00D+00 EMaxC= 1.00D-01 BMatC= 4.82D-05 BMatP= 8.38D-05
 IDIUse=3 WtCom= 9.98D-01 WtEn= 1.89D-03
 Coeff-Com:  0.407D+00 0.593D+00
 Coeff-En:   0.385D-02 0.996D+00
 Coeff:      0.406D+00 0.594D+00
 Gap=     0.289 Goal=   None    Shift=    0.000
 RMSDP=1.27D-05 MaxDP=8.71D-04 DE=-5.79D-05 OVMax= 1.82D-03

 Cycle   8  Pass 1  IDiag  1:
 RMSU=  1.24D-05    CP:  1.00D+00  1.02D+00
 E= -2048.73490879794     Delta-E=       -0.000035515991 Rises=F Damp=F
 DIIS: error= 7.52D-05 at cycle   3 NSaved=   3.
 NSaved= 3 IEnMin= 3 EnMin= -2048.73490879794     IErMin= 3 ErrMin= 7.52D-05
 ErrMax= 7.52D-05  0.00D+00 EMaxC= 1.00D-01 BMatC= 1.14D-05 BMatP= 4.82D-05
 IDIUse=1 WtCom= 1.00D+00 WtEn= 0.00D+00
 Coeff-Com: -0.181D-01 0.315D+00 0.703D+00
 Coeff:     -0.181D-01 0.315D+00 0.703D+00
 Gap=     0.289 Goal=   None    Shift=    0.000
 RMSDP=6.14D-06 MaxDP=3.97D-04 DE=-3.55D-05 OVMax= 6.83D-04

 Cycle   9  Pass 1  IDiag  1:
 RMSU=  4.01D-06    CP:  1.00D+00  1.05D+00  7.50D-01
 E= -2048.73491991785     Delta-E=       -0.000011119909 Rises=F Damp=F
 DIIS: error= 2.77D-05 at cycle   4 NSaved=   4.
 NSaved= 4 IEnMin= 4 EnMin= -2048.73491991785     IErMin= 4 ErrMin= 2.77D-05
 ErrMax= 2.77D-05  0.00D+00 EMaxC= 1.00D-01 BMatC= 5.99D-07 BMatP= 1.14D-05
 IDIUse=1 WtCom= 1.00D+00 WtEn= 0.00D+00
 Coeff-Com: -0.293D-01 0.940D-01 0.277D+00 0.658D+00
 Coeff:     -0.293D-01 0.940D-01 0.277D+00 0.658D+00
 Gap=     0.289 Goal=   None    Shift=    0.000
 RMSDP=1.53D-06 MaxDP=1.07D-04 DE=-1.11D-05 OVMax= 4.53D-04

 Cycle  10  Pass 1  IDiag  1:
 RMSU=  1.37D-06    CP:  1.00D+00  1.05D+00  7.88D-01  1.08D+00
 E= -2048.73492084304     Delta-E=       -0.000000925188 Rises=F Damp=F
 DIIS: error= 1.24D-05 at cycle   5 NSaved=   5.
 NSaved= 5 IEnMin= 5 EnMin= -2048.73492084304     IErMin= 5 ErrMin= 1.24D-05
 ErrMax= 1.24D-05  0.00D+00 EMaxC= 1.00D-01 BMatC= 1.31D-07 BMatP= 5.99D-07
 IDIUse=1 WtCom= 1.00D+00 WtEn= 0.00D+00
 Coeff-Com: -0.392D-02-0.518D-01-0.104D+00 0.210D+00 0.950D+00
 Coeff:     -0.392D-02-0.518D-01-0.104D+00 0.210D+00 0.950D+00
 Gap=     0.289 Goal=   None    Shift=    0.000
 RMSDP=1.22D-06 MaxDP=6.66D-05 DE=-9.25D-07 OVMax= 2.54D-04

 Cycle  11  Pass 1  IDiag  1:
 RMSU=  5.21D-07    CP:  1.00D+00  1.05D+00  7.98D-01  1.35D+00  1.16D+00
 E= -2048.73492112481     Delta-E=       -0.000000281776 Rises=F Damp=F
 DIIS: error= 5.63D-06 at cycle   6 NSaved=   6.
 NSaved= 6 IEnMin= 6 EnMin= -2048.73492112481     IErMin= 6 ErrMin= 5.63D-06
 ErrMax= 5.63D-06  0.00D+00 EMaxC= 1.00D-01 BMatC= 3.37D-08 BMatP= 1.31D-07
 IDIUse=1 WtCom= 1.00D+00 WtEn= 0.00D+00
 Coeff-Com:  0.463D-02-0.479D-01-0.117D+00-0.957D-02 0.518D+00 0.652D+00
 Coeff:      0.463D-02-0.479D-01-0.117D+00-0.957D-02 0.518D+00 0.652D+00
 Gap=     0.289 Goal=   None    Shift=    0.000
 RMSDP=4.35D-07 MaxDP=3.15D-05 DE=-2.82D-07 OVMax= 1.29D-04

 Cycle  12  Pass 1  IDiag  1:
 RMSU=  2.08D-07    CP:  1.00D+00  1.05D+00  8.01D-01  1.43D+00  1.31D+00
                    CP:  9.67D-01
 E= -2048.73492117546     Delta-E=       -0.000000050652 Rises=F Damp=F
 DIIS: error= 1.22D-06 at cycle   7 NSaved=   7.
 NSaved= 7 IEnMin= 7 EnMin= -2048.73492117546     IErMin= 7 ErrMin= 1.22D-06
 ErrMax= 1.22D-06  0.00D+00 EMaxC= 1.00D-01 BMatC= 8.46D-10 BMatP= 3.37D-08
 IDIUse=1 WtCom= 1.00D+00 WtEn= 0.00D+00
 Coeff-Com:  0.119D-02-0.890D-02-0.230D-01-0.107D-01 0.701D-01 0.144D+00
 Coeff-Com:  0.827D+00
 Coeff:      0.119D-02-0.890D-02-0.230D-01-0.107D-01 0.701D-01 0.144D+00
 Coeff:      0.827D+00
 Gap=     0.289 Goal=   None    Shift=    0.000
 RMSDP=8.85D-08 MaxDP=4.94D-06 DE=-5.07D-08 OVMax= 2.45D-05

 Cycle  13  Pass 1  IDiag  1:
 RMSU=  5.45D-08    CP:  1.00D+00  1.05D+00  8.01D-01  1.44D+00  1.32D+00
                    CP:  1.05D+00  1.13D+00
 E= -2048.73492117725     Delta-E=       -0.000000001784 Rises=F Damp=F
 DIIS: error= 5.66D-07 at cycle   8 NSaved=   8.
 NSaved= 8 IEnMin= 8 EnMin= -2048.73492117725     IErMin= 8 ErrMin= 5.66D-07
 ErrMax= 5.66D-07  0.00D+00 EMaxC= 1.00D-01 BMatC= 3.76D-10 BMatP= 8.46D-10
 IDIUse=1 WtCom= 1.00D+00 WtEn= 0.00D+00
 Coeff-Com: -0.735D-03 0.936D-02 0.222D-01-0.107D-02-0.112D+00-0.115D+00
 Coeff-Com:  0.415D+00 0.783D+00
 Coeff:     -0.735D-03 0.936D-02 0.222D-01-0.107D-02-0.112D+00-0.115D+00
 Coeff:      0.415D+00 0.783D+00
 Gap=     0.289 Goal=   None    Shift=    0.000
 RMSDP=5.40D-08 MaxDP=2.76D-06 DE=-1.78D-09 OVMax= 1.16D-05

 Cycle  14  Pass 1  IDiag  1:
 RMSU=  3.11D-08    CP:  1.00D+00  1.05D+00  8.01D-01  1.44D+00  1.33D+00
                    CP:  1.10D+00  1.29D+00  1.08D+00
 E= -2048.73492117817     Delta-E=       -0.000000000919 Rises=F Damp=F
 DIIS: error= 1.47D-07 at cycle   9 NSaved=   9.
 NSaved= 9 IEnMin= 9 EnMin= -2048.73492117817     IErMin= 9 ErrMin= 1.47D-07
 ErrMax= 1.47D-07  0.00D+00 EMaxC= 1.00D-01 BMatC= 3.08D-11 BMatP= 3.76D-10
 IDIUse=1 WtCom= 1.00D+00 WtEn= 0.00D+00
 Coeff-Com: -0.409D-03 0.456D-02 0.110D-01 0.779D-03-0.497D-01-0.598D-01
 Coeff-Com:  0.803D-01 0.291D+00 0.722D+00
 Coeff:     -0.409D-03 0.456D-02 0.110D-01 0.779D-03-0.497D-01-0.598D-01
 Coeff:      0.803D-01 0.291D+00 0.722D+00
 Gap=     0.289 Goal=   None    Shift=    0.000
 RMSDP=1.44D-08 MaxDP=7.18D-07 DE=-9.19D-10 OVMax= 3.27D-06

 Cycle  15  Pass 1  IDiag  1:
 RMSU=  9.94D-09    CP:  1.00D+00  1.05D+00  8.01D-01  1.44D+00  1.33D+00
                    CP:  1.10D+00  1.31D+00  1.22D+00  1.11D+00
 E= -2048.73492117823     Delta-E=       -0.000000000059 Rises=F Damp=F
 DIIS: error= 7.81D-08 at cycle  10 NSaved=  10.
 NSaved=10 IEnMin=10 EnMin= -2048.73492117823     IErMin=10 ErrMin= 7.81D-08
 ErrMax= 7.81D-08  0.00D+00 EMaxC= 1.00D-01 BMatC= 5.31D-12 BMatP= 3.08D-11
 IDIUse=1 WtCom= 1.00D+00 WtEn= 0.00D+00
 Coeff-Com:  0.175D-04-0.446D-03-0.985D-03 0.186D-03 0.676D-02 0.347D-02
 Coeff-Com: -0.591D-01-0.738D-01 0.247D+00 0.877D+00
 Coeff:      0.175D-04-0.446D-03-0.985D-03 0.186D-03 0.676D-02 0.347D-02
 Coeff:     -0.591D-01-0.738D-01 0.247D+00 0.877D+00
 Gap=     0.289 Goal=   None    Shift=    0.000
 RMSDP=7.65D-09 MaxDP=3.99D-07 DE=-5.91D-11 OVMax= 1.64D-06

 SCF Done:  E(RwB97XD) =  -2048.73492118     A.U. after   15 cycles
            NFock= 15  Conv=0.76D-08     -V/T= 2.0053
 KE= 2.037901521145D+03 PE=-1.607169755895D+04 EE= 6.339469818160D+03
 Leave Link  502 at Thu Jan 18 17:21:12 2018, MaxMem=  4294967296 cpu:           23262.6 elap:             753.2
 (Enter /share/apps/g16/l601.exe)
 Copying SCF densities to generalized density rwf, IOpCl= 0 IROHF=0.

 **********************************************************************

            Population analysis using the SCF density.

 **********************************************************************

 Orbital symmetries:
       Occupied  (A) (A) (A) (A) (A) (A) (A) (A) (A) (A) (A) (A)
                 (A) (A) (A) (A) (A) (A) (A) (A) (A) (A) (A) (A)
                 (A) (A) (A) (A) (A) (A) (A) (A) (A) (A) (A) (A)
                 (A) (A) (A) (A) (A) (A) (A) (A) (A) (A) (A) (A)
                 (A) (A) (A) (A) (A) (A) (A) (A) (A) (A) (A) (A)
                 (A) (A) (A) (A) (A) (A) (A) (A) (A) (A) (A) (A)
                 (A) (A) (A) (A) (A) (A) (A) (A) (A) (A) (A) (A)
                 (A) (A) (A) (A) (A) (A) (A) (A) (A) (A) (A) (A)
                 (A) (A) (A) (A) (A) (A) (A) (A) (A) (A) (A) (A)
                 (A) (A) (A) (A) (A) (A) (A) (A) (A) (A) (A) (A)
                 (A) (A) (A) (A) (A) (A) (A) (A) (A) (A) (A) (A)
                 (A) (A) (A) (A) (A) (A) (A) (A) (A) (A) (A) (A)
                 (A) (A) (A) (A) (A) (A) (A) (A) (A) (A)
       Virtual   (A) (A) (A) (A) (A) (A) (A) (A) (A) (A) (A) (A)
                 (A) (A) (A) (A) (A) (A) (A) (A) (A) (A) (A) (A)
                 (A) (A) (A) (A) (A) (A) (A) (A) (A) (A) (A) (A)
                 (A) (A) (A) (A) (A) (A) (A) (A) (A) (A) (A) (A)
                 (A) (A) (A) (A) (A) (A) (A) (A) (A) (A) (A) (A)
                 (A) (A) (A) (A) (A) (A) (A) (A) (A) (A) (A) (A)
                 (A) (A) (A) (A) (A) (A) (A) (A) (A) (A) (A) (A)
                 (A) (A) (A) (A) (A) (A) (A) (A) (A) (A) (A) (A)
                 (A) (A) (A) (A) (A) (A) (A) (A) (A) (A) (A) (A)
                 (A) (A) (A) (A) (A) (A) (A) (A) (A) (A) (A) (A)
                 (A) (A) (A) (A) (A) (A) (A) (A) (A) (A) (A) (A)
                 (A) (A) (A) (A) (A) (A) (A) (A) (A) (A) (A) (A)
                 (A) (A) (A) (A) (A) (A) (A) (A) (A) (A) (A) (A)
                 (A) (A) (A) (A) (A) (A) (A) (A) (A) (A) (A) (A)
                 (A) (A) (A) (A) (A) (A) (A) (A) (A) (A) (A) (A)
                 (A) (A) (A) (A) (A) (A) (A) (A) (A) (A) (A) (A)
                 (A) (A) (A) (A) (A) (A) (A) (A) (A) (A) (A) (A)
                 (A) (A) (A) (A) (A) (A) (A) (A) (A) (A) (A) (A)
                 (A) (A) (A) (A) (A) (A) (A) (A) (A) (A) (A) (A)
                 (A) (A) (A) (A) (A) (A) (A) (A) (A) (A) (A) (A)
                 (A) (A) (A) (A) (A) (A) (A) (A) (A) (A) (A) (A)
                 (A) (A) (A) (A) (A) (A) (A) (A) (A) (A) (A) (A)
                 (A) (A) (A) (A) (A) (A) (A) (A) (A) (A) (A) (A)
                 (A) (A) (A) (A) (A) (A) (A) (A) (A) (A) (A) (A)
                 (A) (A) (A) (A) (A) (A) (A) (A) (A) (A) (A) (A)
                 (A) (A) (A) (A) (A) (A) (A) (A) (A) (A) (A) (A)
                 (A) (A) (A) (A) (A) (A) (A) (A) (A) (A) (A) (A)
                 (A) (A) (A) (A) (A) (A) (A) (A) (A) (A) (A) (A)
                 (A) (A) (A) (A) (A) (A) (A) (A) (A) (A) (A) (A)
                 (A) (A) (A) (A) (A) (A) (A) (A) (A) (A) (A) (A)
                 (A) (A) (A) (A) (A) (A) (A) (A) (A) (A) (A) (A)
                 (A) (A) (A) (A) (A) (A) (A) (A) (A) (A) (A) (A)
                 (A) (A) (A) (A) (A) (A) (A) (A) (A) (A) (A) (A)
                 (A) (A) (A) (A) (A) (A) (A) (A) (A) (A) (A) (A)
                 (A) (A) (A) (A) (A) (A) (A) (A) (A) (A) (A) (A)
                 (A) (A) (A) (A) (A) (A) (A) (A) (A) (A) (A) (A)
                 (A) (A) (A) (A) (A) (A) (A) (A) (A) (A) (A) (A)
                 (A) (A) (A) (A) (A) (A) (A) (A) (A) (A) (A) (A)
                 (A) (A) (A) (A) (A) (A) (A) (A) (A) (A) (A) (A)
                 (A) (A) (A) (A) (A) (A) (A) (A) (A) (A) (A) (A)
                 (A) (A) (A) (A) (A) (A) (A) (A) (A) (A) (A) (A)
                 (A) (A) (A) (A) (A) (A) (A) (A) (A) (A) (A) (A)
                 (A) (A) (A) (A) (A) (A) (A) (A) (A) (A) (A) (A)
                 (A) (A) (A) (A) (A) (A) (A) (A) (A) (A) (A) (A)
                 (A) (A) (A) (A) (A) (A) (A) (A) (A) (A) (A) (A)
                 (A) (A) (A) (A) (A) (A) (A) (A) (A) (A) (A) (A)
                 (A) (A) (A) (A) (A) (A) (A) (A) (A) (A) (A) (A)
                 (A) (A) (A) (A) (A) (A) (A) (A) (A) (A) (A) (A)
                 (A) (A) (A) (A) (A) (A) (A)
 The electronic state is 1-A.
 Alpha  occ. eigenvalues --  -19.25196 -19.21524 -19.20567 -14.52500 -14.52046
 Alpha  occ. eigenvalues --  -14.49484 -14.48591 -14.47664 -14.47370 -14.46753
 Alpha  occ. eigenvalues --  -14.46587 -14.45474 -14.44118 -14.44112 -14.42953
 Alpha  occ. eigenvalues --  -14.41918 -14.41835 -14.41413 -14.40763 -14.40748
 Alpha  occ. eigenvalues --  -10.44870 -10.41101 -10.39645 -10.39639 -10.38173
 Alpha  occ. eigenvalues --  -10.38042 -10.37242 -10.37151 -10.36087 -10.35629
 Alpha  occ. eigenvalues --  -10.34707 -10.34606 -10.34299 -10.34165 -10.33973
 Alpha  occ. eigenvalues --  -10.33593 -10.33259 -10.32541 -10.32022 -10.30550
 Alpha  occ. eigenvalues --  -10.30526 -10.29065 -10.28009  -1.18998  -1.15371
 Alpha  occ. eigenvalues --   -1.13115  -1.12549  -1.11995  -1.10454  -1.09124
 Alpha  occ. eigenvalues --   -1.08840  -1.08462  -1.05650  -1.04559  -1.02075
 Alpha  occ. eigenvalues --   -1.01119  -1.01084  -0.99626  -0.98410  -0.97656
 Alpha  occ. eigenvalues --   -0.96663  -0.96420  -0.93307  -0.90544  -0.87772
 Alpha  occ. eigenvalues --   -0.86235  -0.84684  -0.83954  -0.83415  -0.83128
 Alpha  occ. eigenvalues --   -0.82245  -0.78415  -0.76979  -0.74814  -0.74467
 Alpha  occ. eigenvalues --   -0.73550  -0.73503  -0.72960  -0.71656  -0.70346
 Alpha  occ. eigenvalues --   -0.67279  -0.66974  -0.66693  -0.66190  -0.64370
 Alpha  occ. eigenvalues --   -0.64175  -0.63773  -0.63371  -0.62565  -0.62412
 Alpha  occ. eigenvalues --   -0.61647  -0.60998  -0.60454  -0.59496  -0.59163
 Alpha  occ. eigenvalues --   -0.58369  -0.58148  -0.58025  -0.57234  -0.56238
 Alpha  occ. eigenvalues --   -0.55907  -0.55666  -0.55385  -0.54514  -0.54040
 Alpha  occ. eigenvalues --   -0.53914  -0.53607  -0.53398  -0.52885  -0.52776
 Alpha  occ. eigenvalues --   -0.52463  -0.52288  -0.51818  -0.51303  -0.50866
 Alpha  occ. eigenvalues --   -0.50036  -0.49889  -0.49437  -0.49125  -0.48757
 Alpha  occ. eigenvalues --   -0.48674  -0.48498  -0.48126  -0.47694  -0.47176
 Alpha  occ. eigenvalues --   -0.46989  -0.45986  -0.45520  -0.44477  -0.42821
 Alpha  occ. eigenvalues --   -0.41672  -0.40675  -0.39015  -0.37745  -0.37638
 Alpha  occ. eigenvalues --   -0.37466  -0.37086  -0.36884  -0.36093  -0.34659
 Alpha  occ. eigenvalues --   -0.34415  -0.34290  -0.33852  -0.33608  -0.32859
 Alpha  occ. eigenvalues --   -0.32471  -0.32145  -0.31725  -0.31489  -0.31353
 Alpha  occ. eigenvalues --   -0.31005  -0.29364  -0.26499  -0.25277
 Alpha virt. eigenvalues --    0.03608   0.03993   0.07113   0.07388   0.08659
 Alpha virt. eigenvalues --    0.09137   0.09661   0.10255   0.10610   0.12646
 Alpha virt. eigenvalues --    0.13354   0.13424   0.14154   0.14257   0.14674
 Alpha virt. eigenvalues --    0.15041   0.16148   0.17525   0.17819   0.18313
 Alpha virt. eigenvalues --    0.18502   0.19244   0.19709   0.19773   0.20354
 Alpha virt. eigenvalues --    0.20688   0.21273   0.21568   0.21696   0.21863
 Alpha virt. eigenvalues --    0.22560   0.22896   0.23111   0.23521   0.24169
 Alpha virt. eigenvalues --    0.24497   0.24712   0.24907   0.25659   0.25813
 Alpha virt. eigenvalues --    0.27155   0.27520   0.27572   0.28025   0.28641
 Alpha virt. eigenvalues --    0.28889   0.28995   0.29483   0.30177   0.30559
 Alpha virt. eigenvalues --    0.31158   0.31768   0.32508   0.33269   0.33590
 Alpha virt. eigenvalues --    0.33939   0.34342   0.35018   0.35777   0.36635
 Alpha virt. eigenvalues --    0.36820   0.36840   0.38089   0.38399   0.38876
 Alpha virt. eigenvalues --    0.39628   0.39987   0.40731   0.41519   0.41961
 Alpha virt. eigenvalues --    0.42684   0.42928   0.43297   0.43746   0.44169
 Alpha virt. eigenvalues --    0.45330   0.45790   0.46157   0.46910   0.47291
 Alpha virt. eigenvalues --    0.47365   0.48043   0.48574   0.49018   0.49717
 Alpha virt. eigenvalues --    0.50138   0.50546   0.51047   0.51224   0.51556
 Alpha virt. eigenvalues --    0.52043   0.52130   0.52632   0.53107   0.53572
 Alpha virt. eigenvalues --    0.53982   0.54330   0.55010   0.55640   0.56083
 Alpha virt. eigenvalues --    0.56483   0.56630   0.56895   0.57176   0.57488
 Alpha virt. eigenvalues --    0.57723   0.58574   0.59038   0.59668   0.59811
 Alpha virt. eigenvalues --    0.60610   0.60922   0.61087   0.61643   0.62184
 Alpha virt. eigenvalues --    0.62735   0.62933   0.63582   0.63828   0.64339
 Alpha virt. eigenvalues --    0.64657   0.64923   0.65335   0.65590   0.65906
 Alpha virt. eigenvalues --    0.66514   0.66661   0.67002   0.67569   0.67965
 Alpha virt. eigenvalues --    0.68400   0.69207   0.69913   0.70215   0.70537
 Alpha virt. eigenvalues --    0.71053   0.71334   0.72045   0.72302   0.72535
 Alpha virt. eigenvalues --    0.72746   0.73043   0.73457   0.74211   0.74372
 Alpha virt. eigenvalues --    0.74698   0.74829   0.75478   0.75932   0.76030
 Alpha virt. eigenvalues --    0.76096   0.76606   0.77178   0.77832   0.78258
 Alpha virt. eigenvalues --    0.78360   0.78770   0.79086   0.79422   0.79658
 Alpha virt. eigenvalues --    0.80028   0.80431   0.80703   0.81062   0.81873
 Alpha virt. eigenvalues --    0.82223   0.82551   0.83162   0.83216   0.83526
 Alpha virt. eigenvalues --    0.83817   0.84789   0.85055   0.85408   0.85690
 Alpha virt. eigenvalues --    0.86001   0.87138   0.87311   0.87926   0.88477
 Alpha virt. eigenvalues --    0.89071   0.89245   0.89349   0.89793   0.90145
 Alpha virt. eigenvalues --    0.90510   0.91313   0.92015   0.92205   0.92726
 Alpha virt. eigenvalues --    0.93633   0.94287   0.94667   0.94946   0.95193
 Alpha virt. eigenvalues --    0.95396   0.96154   0.97120   0.97223   0.97482
 Alpha virt. eigenvalues --    0.98540   0.98762   0.99024   0.99384   1.00015
 Alpha virt. eigenvalues --    1.00075   1.00946   1.01789   1.01885   1.02374
 Alpha virt. eigenvalues --    1.02751   1.03436   1.03643   1.04196   1.04566
 Alpha virt. eigenvalues --    1.04793   1.05401   1.05801   1.06285   1.06560
 Alpha virt. eigenvalues --    1.07228   1.08235   1.08477   1.09207   1.09922
 Alpha virt. eigenvalues --    1.10475   1.10796   1.10965   1.11384   1.11863
 Alpha virt. eigenvalues --    1.12271   1.13516   1.13878   1.14392   1.14570
 Alpha virt. eigenvalues --    1.15007   1.15156   1.15809   1.16140   1.16293
 Alpha virt. eigenvalues --    1.17075   1.17320   1.17874   1.18221   1.18687
 Alpha virt. eigenvalues --    1.19010   1.19811   1.20088   1.20657   1.20741
 Alpha virt. eigenvalues --    1.21376   1.21859   1.21969   1.22145   1.22431
 Alpha virt. eigenvalues --    1.22963   1.23985   1.24100   1.24319   1.24956
 Alpha virt. eigenvalues --    1.25302   1.25743   1.26124   1.26498   1.26924
 Alpha virt. eigenvalues --    1.27455   1.28436   1.28501   1.29403   1.29923
 Alpha virt. eigenvalues --    1.30910   1.31307   1.31499   1.31879   1.32800
 Alpha virt. eigenvalues --    1.33090   1.33318   1.34139   1.34496   1.35158
 Alpha virt. eigenvalues --    1.35575   1.36738   1.36908   1.38210   1.38694
 Alpha virt. eigenvalues --    1.39524   1.40126   1.40634   1.41576   1.42005
 Alpha virt. eigenvalues --    1.42563   1.43330   1.43700   1.45378   1.45540
 Alpha virt. eigenvalues --    1.46088   1.47563   1.47909   1.48767   1.49076
 Alpha virt. eigenvalues --    1.50323   1.50777   1.51340   1.52605   1.53199
 Alpha virt. eigenvalues --    1.53610   1.54391   1.54511   1.55130   1.56218
 Alpha virt. eigenvalues --    1.56937   1.57569   1.58187   1.58307   1.59850
 Alpha virt. eigenvalues --    1.60611   1.60890   1.61133   1.62231   1.62536
 Alpha virt. eigenvalues --    1.63266   1.63615   1.64104   1.64462   1.64943
 Alpha virt. eigenvalues --    1.65285   1.65717   1.66353   1.66956   1.68099
 Alpha virt. eigenvalues --    1.68499   1.68706   1.69754   1.70101   1.70677
 Alpha virt. eigenvalues --    1.71039   1.71354   1.71501   1.72068   1.72409
 Alpha virt. eigenvalues --    1.72612   1.72841   1.73399   1.73982   1.74368
 Alpha virt. eigenvalues --    1.74615   1.75698   1.76068   1.76537   1.76705
 Alpha virt. eigenvalues --    1.76752   1.77484   1.77661   1.77922   1.78343
 Alpha virt. eigenvalues --    1.78534   1.79052   1.79339   1.79703   1.80282
 Alpha virt. eigenvalues --    1.80396   1.81410   1.81522   1.81865   1.82643
 Alpha virt. eigenvalues --    1.82776   1.83306   1.83916   1.84269   1.84497
 Alpha virt. eigenvalues --    1.85074   1.85337   1.86167   1.86228   1.86500
 Alpha virt. eigenvalues --    1.86810   1.87461   1.87893   1.88439   1.89063
 Alpha virt. eigenvalues --    1.89109   1.89828   1.90085   1.90398   1.91222
 Alpha virt. eigenvalues --    1.91570   1.91740   1.92129   1.93128   1.93154
 Alpha virt. eigenvalues --    1.93337   1.93935   1.94535   1.95224   1.95953
 Alpha virt. eigenvalues --    1.96748   1.97145   1.97842   1.98640   1.99582
 Alpha virt. eigenvalues --    2.00210   2.01629   2.01985   2.03036   2.03691
 Alpha virt. eigenvalues --    2.04177   2.04758   2.05187   2.05470   2.05978
 Alpha virt. eigenvalues --    2.06365   2.07169   2.08023   2.08077   2.08781
 Alpha virt. eigenvalues --    2.08992   2.10644   2.11567   2.12006   2.12526
 Alpha virt. eigenvalues --    2.12807   2.13210   2.14134   2.15015   2.15456
 Alpha virt. eigenvalues --    2.15737   2.17384   2.18027   2.18997   2.19427
 Alpha virt. eigenvalues --    2.19709   2.20082   2.21029   2.21636   2.21854
 Alpha virt. eigenvalues --    2.23959   2.24264   2.24420   2.25079   2.25203
 Alpha virt. eigenvalues --    2.26444   2.26623   2.26970   2.27353   2.27507
 Alpha virt. eigenvalues --    2.28512   2.28877   2.29255   2.30067   2.30570
 Alpha virt. eigenvalues --    2.30934   2.32363   2.32930   2.33478   2.33687
 Alpha virt. eigenvalues --    2.34298   2.34505   2.35002   2.35071   2.35798
 Alpha virt. eigenvalues --    2.36302   2.36530   2.37252   2.37465   2.37850
 Alpha virt. eigenvalues --    2.39118   2.39771   2.39929   2.41030   2.41590
 Alpha virt. eigenvalues --    2.42645   2.43586   2.44023   2.44612   2.44912
 Alpha virt. eigenvalues --    2.45345   2.45699   2.46175   2.47613   2.47866
 Alpha virt. eigenvalues --    2.48552   2.49979   2.51158   2.52013   2.52579
 Alpha virt. eigenvalues --    2.53975   2.54188   2.55530   2.56649   2.57308
 Alpha virt. eigenvalues --    2.57824   2.58441   2.58978   2.60075   2.61512
 Alpha virt. eigenvalues --    2.62158   2.63378   2.63655   2.64429   2.65094
 Alpha virt. eigenvalues --    2.65670   2.66289   2.66656   2.67819   2.68160
 Alpha virt. eigenvalues --    2.68669   2.68779   2.69800   2.70417   2.71384
 Alpha virt. eigenvalues --    2.71959   2.72238   2.72371   2.73192   2.73478
 Alpha virt. eigenvalues --    2.74191   2.75394   2.76179   2.77031   2.78130
 Alpha virt. eigenvalues --    2.78245   2.78350   2.79211   2.79600   2.80434
 Alpha virt. eigenvalues --    2.80664   2.81589   2.81945   2.82464   2.82880
 Alpha virt. eigenvalues --    2.82956   2.83554   2.83742   2.84766   2.85585
 Alpha virt. eigenvalues --    2.86276   2.86657   2.86934   2.87334   2.88559
 Alpha virt. eigenvalues --    2.88687   2.89843   2.90335   2.94312   2.94979
 Alpha virt. eigenvalues --    2.95417   2.98072   2.99223   2.99542   3.00176
 Alpha virt. eigenvalues --    3.00846   3.02410   3.02771   3.04916   3.06121
 Alpha virt. eigenvalues --    3.07863   3.10559   3.10736   3.13394   3.15234
 Alpha virt. eigenvalues --    3.15754   3.16741   3.17408   3.18388   3.20860
 Alpha virt. eigenvalues --    3.22417   3.22985   3.24291   3.24571   3.27568
 Alpha virt. eigenvalues --    3.45194   3.47793   3.48320   3.49572   3.51144
 Alpha virt. eigenvalues --    3.53030   3.55258   3.56533   3.58425   3.60588
 Alpha virt. eigenvalues --    3.64145   3.70936   3.75700
          Condensed to atoms (all electrons):
 Mulliken charges:
               1
     1  N   -0.304125
     2  C    0.176577
     3  C    0.071743
     4  N   -0.246821
     5  C    0.124966
     6  H    0.026637
     7  N   -0.284232
     8  C    0.139265
     9  H    0.009802
    10  N   -0.283136
    11  C    0.216528
    12  C    0.081893
    13  N   -0.045269
    14  H    0.110728
    15  H    0.086860
    16  H    0.028866
    17  H    0.047373
    18  H    0.020656
    19  N   -0.283357
    20  C    0.228334
    21  C    0.202318
    22  N   -0.113425
    23  H    0.117722
    24  H    0.117047
    25  N   -0.296589
    26  C    0.225621
    27  N   -0.135895
    28  H    0.116672
    29  C    0.177001
    30  O   -0.322837
    31  C   -0.004360
    32  N   -0.214505
    33  C    0.116891
    34  H    0.016142
    35  H   -0.014496
    36  H    0.032416
    37  H    0.021883
    38  H    0.046002
    39  H    0.056582
    40  H    0.074387
    41  H    0.025390
    42  C   -0.098419
    43  O   -0.268876
    44  C    0.163199
    45  H    0.131389
    46  N   -0.113073
    47  O   -0.334447
    48  C    0.328592
    49  H    0.041594
    50  C    0.170255
    51  C    0.040943
    52  N   -0.272258
    53  H    0.034851
    54  H    0.043567
    55  H    0.018931
    56  H    0.123700
    57  H    0.119612
    58  N   -0.055251
    59  C    0.101230
    60  C    0.198753
    61  N   -0.249591
    62  H    0.029097
    63  C    0.151434
    64  N   -0.295870
    65  H    0.035669
    66  C    0.115000
    67  N   -0.245278
    68  C    0.045049
    69  C    0.176374
    70  N   -0.303430
 Sum of Mulliken charges =  -0.00000
 Mulliken charges with hydrogens summed into heavy atoms:
               1
     1  N   -0.304125
     2  C    0.273472
     3  C    0.071743
     4  N   -0.246821
     5  C    0.151603
     7  N   -0.284232
     8  C    0.149067
    10  N   -0.283136
    11  C    0.216528
    12  C    0.081893
    13  N    0.152319
    19  N   -0.283357
    20  C    0.228334
    21  C    0.242121
    22  N    0.121344
    25  N   -0.296589
    26  C    0.225621
    27  N   -0.019223
    29  C    0.177001
    30  O   -0.322837
    31  C   -0.004360
    32  N   -0.214505
    33  C    0.133032
    42  C   -0.073030
    43  O   -0.268876
    44  C    0.163199
    46  N    0.018316
    47  O   -0.334447
    48  C    0.328592
    50  C    0.211849
    51  C    0.217914
    52  N   -0.272258
    58  N    0.188062
    59  C    0.101230
    60  C    0.198753
    61  N   -0.249591
    63  C    0.180531
    64  N   -0.295870
    66  C    0.150669
    67  N   -0.245278
    68  C    0.045049
    69  C    0.273723
    70  N   -0.303430
 Electronic spatial extent (au):  <R**2>=          21745.4433
 Charge=             -0.0000 electrons
 Dipole moment (field-independent basis, Debye):
    X=             -5.0993    Y=              6.0486    Z=             -4.9193  Tot=              9.3160
 Quadrupole moment (field-independent basis, Debye-Ang):
   XX=           -146.8243   YY=           -225.0026   ZZ=           -263.2430
   XY=            -11.8541   XZ=              5.5986   YZ=              5.9873
 Traceless Quadrupole moment (field-independent basis, Debye-Ang):
   XX=             64.8656   YY=            -13.3127   ZZ=            -51.5530
   XY=            -11.8541   XZ=              5.5986   YZ=              5.9873
 Octapole moment (field-independent basis, Debye-Ang**2):
  XXX=             88.5633  YYY=             31.2731  ZZZ=            -38.7596  XYY=            -56.3890
  XXY=             96.0942  XXZ=            -24.0928  XZZ=            -40.0402  YZZ=             55.8322
  YYZ=            -51.2104  XYZ=             31.6272
 Hexadecapole moment (field-independent basis, Debye-Ang**3):
 XXXX=         -16085.7032 YYYY=          -3557.4174 ZZZZ=          -3574.1184 XXXY=           -678.6769
 XXXZ=             67.8959 YYYX=            103.8711 YYYZ=            -41.1395 ZZZX=             75.3221
 ZZZY=             32.7487 XXYY=          -3938.3963 XXZZ=          -3988.5249 YYZZ=          -1309.9198
 XXYZ=            -78.0183 YYXZ=             92.5252 ZZXY=           -118.2748
 N-N= 5.645591298464D+03 E-N=-1.607169754495D+04  KE= 2.037901521145D+03
 No NMR shielding tensors so no spin-rotation constants.
 Leave Link  601 at Thu Jan 18 17:21:14 2018, MaxMem=  4294967296 cpu:              48.6 elap:               1.7
 (Enter /share/apps/g16/l9999.exe)
 1\1\GINC-COMPUTE-0-3\SP\RwB97XD\CC-pVDZ\C23H27N17O3\SATYA\18-Jan-2018\
 0\\#p wb97xd/cc-pvdz sp scf=(maxcycles=20)\\Base pair stacking\\0,1\N,
 0,0.56941,5.76614,-6.40367\C,0,0.29327,7.2108,-6.28233\C,0,0.36009,3.5
 77,-6.43789\N,0,1.68651,3.84486,-6.74381\C,0,1.75953,5.15302,-6.71095\
 H,0,2.66519,5.72848,-6.90475\N,0,-1.66853,2.4574,-5.99729\C,0,-2.20982
 ,3.66727,-5.82176\H,0,-3.26925,3.6705,-5.56907\N,0,-1.64156,4.8681,-5.
 91109\C,0,-0.34085,4.75138,-6.22566\C,0,-0.35767,2.37361,-6.31302\N,0,
 0.18447,1.16678,-6.48864\H,0,1.151,1.05732,-6.72326\H,0,-0.35672,0.331
 4,-6.39172\H,0,0.49165,7.66364,-7.15168\H,0,-0.66856,7.34851,-6.04774\
 H,0,0.86904,7.60323,-5.56506\N,0,-0.36886,4.93697,-3.12497\C,0,-0.9901
 5,3.71407,-3.044\C,0,-1.05072,6.24589,-3.07501\N,0,-3.88891,1.82848,-2
 .7223\H,0,-4.13928,0.86153,-2.68272\H,0,-4.6337,2.49307,-2.6565\N,0,-2
 .31723,3.50442,-2.90632\C,0,-2.61207,2.21744,-2.85752\N,0,-1.68008,1.2
 1119,-2.93729\H,0,-1.99656,0.2548,-2.89116\C,0,-0.30943,1.40369,-3.079
 15\O,0,0.4465,0.42623,-3.14148\C,0,0.02264,2.78127,-3.13305\N,0,1.2549
 7,3.40599,-3.26722\C,0,0.97408,4.68083,-3.25743\H,0,1.71127,5.47979,-3
 .34393\H,0,-0.87369,6.74831,-3.92061\H,0,-2.03436,6.10325,-2.97314\H,0
 ,-0.70901,6.77213,-2.29712\H,0,-4.27114,-4.27875,-3.24603\H,0,-3.85118
 ,-4.39095,-1.53848\H,0,-4.21124,-2.82023,-2.25582\H,0,0.39708,-5.39971
 ,-3.5587\C,0,-0.2312,-4.53437,-3.34732\O,0,1.51176,-2.95846,-3.67244\C
 ,0,0.34078,-3.22376,-3.40188\H,0,-0.17288,-1.25927,-3.14646\N,0,-0.540
 35,-2.19994,-3.11789\O,0,-2.5713,-1.34906,-2.56249\C,0,-1.86996,-2.317
 08,-2.79858\H,0,-2.00799,-5.65545,-2.984\C,0,-1.52501,-4.68073,-3.0387
 3\C,0,-3.76327,-3.78733,-2.42954\N,0,-2.34771,-3.61243,-2.7662\H,0,-6.
 50267,-3.77051,-5.27165\H,0,-5.91525,-2.5656,-4.34147\H,0,-5.88961,-4.
 10388,-3.79637\H,0,0.58822,-2.44907,-7.01483\H,0,-0.10359,-4.00708,-7.
 07881\N,0,-0.19316,-3.04349,-6.82445\C,0,-1.30562,-2.57314,-6.25665\C,
 0,-3.51085,-2.73559,-5.37786\N,0,-3.60303,-1.43697,-5.04691\H,0,-2.472
 32,0.27035,-5.13146\C,0,-2.48241,-0.793,-5.36694\N,0,-1.36713,-1.26231
 ,-5.93568\H,0,-4.4541,-5.81312,-5.67995\C,0,-3.90925,-4.86871,-5.69326
 \N,0,-2.69523,-4.71532,-6.16264\C,0,-2.43045,-3.36735,-5.96873\C,0,-5.
 79942,-3.52274,-4.60528\N,0,-4.46313,-3.71151,-5.20252\\Version=EM64L-
 G16RevA.03\State=1-A\HF=-2048.7349212\RMSD=7.649e-09\Dipole=-3.5077928
 ,-1.060918,0.0584266\Quadrupole=-14.4245874,37.2441309,-22.8195435,26.
 6490318,-16.931583,-2.5278787\PG=C01 [X(C23H27N17O3)]\\@


 ... I FELL INTO A REVERIE ... THE ATOMS WERE GAMBOLING BEFORE MY EYES
 ... I SAW HOW TWO SMALL ONES UNITED TO FORM A PAIR;
 HOW THE LARGER ONES SEIZED TWO OF THE SMALLER ONES;
 HOW STILL LARGER ONES KEPT HOLD OF THREE OR FOUR
 SMALLER ONES ... I SAW HOW THE LARGER ONES FORMED A CHAIN ...
 THIS WAS THE ORIGIN OF THE STRUCTURE THEORY.

                                   -- C.F.KEKULE VON STRADONITZ
 Job cpu time:       0 days  6 hours 39 minutes 43.8 seconds.
 Elapsed time:       0 days  0 hours 12 minutes 56.3 seconds.
 File lengths (MBytes):  RWF=    298 Int=      0 D2E=      0 Chk=     33 Scr=      1
 Normal termination of Gaussian 16 at Thu Jan 18 17:21:15 2018.
