 Entering Gaussian System, Link 0=g16
 Input=str15.15.0.5.com
 Output=str15.15.0.5.log
 Initial command:
 /share/apps/g16/l1.exe "/state/partition1/scr/Gau-10765.inp" -scrdir="/state/partition1/scr/"
 Entering Link 1 = /share/apps/g16/l1.exe PID=     10766.
  
 Copyright (c) 1988,1990,1992,1993,1995,1998,2003,2009,2016,
            Gaussian, Inc.  All Rights Reserved.
  
 This is part of the Gaussian(R) 16 program.  It is based on
 the Gaussian(R) 09 system (copyright 2009, Gaussian, Inc.),
 the Gaussian(R) 03 system (copyright 2003, Gaussian, Inc.),
 the Gaussian(R) 98 system (copyright 1998, Gaussian, Inc.),
 the Gaussian(R) 94 system (copyright 1995, Gaussian, Inc.),
 the Gaussian 92(TM) system (copyright 1992, Gaussian, Inc.),
 the Gaussian 90(TM) system (copyright 1990, Gaussian, Inc.),
 the Gaussian 88(TM) system (copyright 1988, Gaussian, Inc.),
 the Gaussian 86(TM) system (copyright 1986, Carnegie Mellon
 University), and the Gaussian 82(TM) system (copyright 1983,
 Carnegie Mellon University). Gaussian is a federally registered
 trademark of Gaussian, Inc.
  
 This software contains proprietary and confidential information,
 including trade secrets, belonging to Gaussian, Inc.
  
 This software is provided under written license and may be
 used, copied, transmitted, or stored only in accord with that
 written license.
  
 The following legend is applicable only to US Government
 contracts under FAR:
  
                    RESTRICTED RIGHTS LEGEND
  
 Use, reproduction and disclosure by the US Government is
 subject to restrictions as set forth in subparagraphs (a)
 and (c) of the Commercial Computer Software - Restricted
 Rights clause in FAR 52.227-19.
  
 Gaussian, Inc.
 340 Quinnipiac St., Bldg. 40, Wallingford CT 06492
  
  
 ---------------------------------------------------------------
 Warning -- This program may not be used in any manner that
 competes with the business of Gaussian, Inc. or will provide
 assistance to any competitor of Gaussian, Inc.  The licensee
 of this program is prohibited from giving any competitor of
 Gaussian, Inc. access to this program.  By using this program,
 the user acknowledges that Gaussian, Inc. is engaged in the
 business of creating and licensing software in the field of
 computational chemistry and represents and warrants to the
 licensee that it is not a competitor of Gaussian, Inc. and that
 it will not use this program in any manner prohibited above.
 ---------------------------------------------------------------
  

 Cite this work as:
 Gaussian 16, Revision A.03,
 M. J. Frisch, G. W. Trucks, H. B. Schlegel, G. E. Scuseria, 
 M. A. Robb, J. R. Cheeseman, G. Scalmani, V. Barone, 
 G. A. Petersson, H. Nakatsuji, X. Li, M. Caricato, A. V. Marenich, 
 J. Bloino, B. G. Janesko, R. Gomperts, B. Mennucci, H. P. Hratchian, 
 J. V. Ortiz, A. F. Izmaylov, J. L. Sonnenberg, D. Williams-Young, 
 F. Ding, F. Lipparini, F. Egidi, J. Goings, B. Peng, A. Petrone, 
 T. Henderson, D. Ranasinghe, V. G. Zakrzewski, J. Gao, N. Rega, 
 G. Zheng, W. Liang, M. Hada, M. Ehara, K. Toyota, R. Fukuda, 
 J. Hasegawa, M. Ishida, T. Nakajima, Y. Honda, O. Kitao, H. Nakai, 
 T. Vreven, K. Throssell, J. A. Montgomery, Jr., J. E. Peralta, 
 F. Ogliaro, M. J. Bearpark, J. J. Heyd, E. N. Brothers, K. N. Kudin, 
 V. N. Staroverov, T. A. Keith, R. Kobayashi, J. Normand, 
 K. Raghavachari, A. P. Rendell, J. C. Burant, S. S. Iyengar, 
 J. Tomasi, M. Cossi, J. M. Millam, M. Klene, C. Adamo, R. Cammi, 
 J. W. Ochterski, R. L. Martin, K. Morokuma, O. Farkas, 
 J. B. Foresman, and D. J. Fox, Gaussian, Inc., Wallingford CT, 2016.
 
 ******************************************
 Gaussian 16:  EM64L-G16RevA.03 25-Dec-2016
                18-Jan-2018 
 ******************************************
 %nprocshared=32
 Will use up to   32 processors via shared memory.
 %mem=32GB
 %chk=allatoms_t.chk
 ---------------------------------------
 #p wb97xd/cc-pvdz sp scf=(maxcycles=20)
 ---------------------------------------
 1/38=1,172=1/1;
 2/12=2,17=6,18=5,40=1/2;
 3/5=16,11=2,25=1,30=1,74=-58/1,2,3;
 4//1;
 5/5=2,7=20,38=5/2;
 6/7=2,8=2,9=2,10=2,28=1/1;
 99/5=1,9=1/99;
 Leave Link    1 at Thu Jan 18 22:42:25 2018, MaxMem=  4294967296 cpu:               2.7 elap:               0.1
 (Enter /share/apps/g16/l101.exe)
 ------------------
 Base pair stacking
 ------------------
 Symbolic Z-matrix:
 Charge =  0 Multiplicity = 1
 N                     3.1386    4.42037  -6.13959 
 C                     2.99898   5.83238  -6.54546 
 C                     2.81548   2.25975  -5.88532 
 N                     3.96295   2.56752  -5.16886 
 C                     4.11169   3.85689  -5.35073 
 H                     4.92115   4.45324  -4.92871 
 N                     1.01356   1.09063  -6.85959 
 C                     0.63258   2.26282  -7.37767 
 H                    -0.26956   2.23065  -7.98707 
 N                     1.19603   3.46314  -7.25656 
 C                     2.29616   3.3917   -6.48908 
 C                     2.12453   1.05193  -6.0919 
 N                     2.50643  -0.11723  -5.57385 
 H                     3.32242  -0.19267  -4.99966 
 H                     1.99022  -0.95712  -5.74193 
 H                     3.80993   6.11506  -7.05794 
 H                     2.18887   5.93577  -7.12179 
 H                     2.90332   6.40709  -5.73272 
 N                     0.31857   4.43772  -3.42994 
 C                    -0.29606   3.21445  -3.54775 
 C                    -0.30516   5.73987  -3.73985 
 N                    -3.09054   1.31797  -4.35767 
 H                    -3.34731   0.35201  -4.37285 
 H                    -3.78651   1.977    -4.64406 
 N                    -1.56287   2.99824  -3.96307 
 C                    -1.86809   1.71278  -3.97083 
 N                    -1.00054   0.71391  -3.60056 
 H                    -1.32002  -0.24187  -3.63785 
 C                     0.30741   0.91324  -3.16997 
 O                     1.00798  -0.05786  -2.85866 
 C                     0.6498    2.28927  -3.15633 
 N                     1.8344    2.91904  -2.79996 
 C                     1.59155   4.18933  -2.97774 
 H                     2.30834   4.9903   -2.79354 
 H                     0.21395   6.19668  -4.46142 
 H                    -1.24389   5.59234  -4.04856 
 H                    -0.31094   6.31201  -2.92044 
 H                    -3.30019  -4.81269  -4.65729 
 H                    -3.62966  -4.82573  -2.92642 
 H                    -3.63834  -3.3011   -3.81342 
 H                     1.06037  -5.89815  -2.93862 
 C                     0.41245  -5.02936  -3.0554 
 O                     2.15323  -3.45488  -2.71219 
 C                     0.9724   -3.7176   -2.93894 
 H                     0.42477  -1.74772  -3.02833 
 N                     0.06643  -2.68934  -3.10364 
 O                    -2.00028  -1.8313   -3.49055 
 C                    -1.27699  -2.80317  -3.36021 
 H                    -1.36904  -6.14799  -3.40293 
 C                    -0.89434  -5.17257  -3.30523 
 C                    -3.17137  -4.27136  -3.73185 
 N                    -1.74183  -4.09989  -3.45846 
 H                    -3.37917  -5.23538  -8.69475 
 H                    -3.54564  -3.82375  -7.89369 
 H                    -4.07055  -5.21304  -7.21661 
 H                     2.82325  -3.7197   -4.91346 
 H                     2.25418  -5.30964  -5.15501 
 N                     2.09876  -4.32511  -5.24319 
 C                     0.97493  -3.84207  -5.77691 
 C                    -1.17605  -4.00293  -6.78146 
 N                    -1.35753  -2.67617  -6.8872 
 H                    -0.36857  -0.93471  -6.45142 
 C                    -0.30387  -2.02092  -6.40414 
 N                     0.82266  -2.5029   -5.86916 
 H                    -1.88508  -7.14451  -7.06426 
 C                    -1.41707  -6.18103  -6.86022 
 N                    -0.23741  -6.02715  -6.31032 
 C                    -0.07233  -4.65078  -6.25457 
 C                    -3.36493  -4.80175  -7.79378 
 N                    -2.04137  -4.99766  -7.17103 
 
 ITRead=  0  0  0  0  0  0  0  0  0  0  0  0  0  0  0  0  0  0  0  0
 ITRead=  0  0  0  0  0  0  0  0  0  0  0  0  0  0  0  0  0  0  0  0
 ITRead=  0  0  0  0  0  0  0  0  0  0  0  0  0  0  0  0  0  0  0  0
 ITRead=  0  0  0  0  0  0  0  0  0  0
 MicOpt= -1 -1 -1 -1 -1 -1 -1 -1 -1 -1 -1 -1 -1 -1 -1 -1 -1 -1 -1 -1
 MicOpt= -1 -1 -1 -1 -1 -1 -1 -1 -1 -1 -1 -1 -1 -1 -1 -1 -1 -1 -1 -1
 MicOpt= -1 -1 -1 -1 -1 -1 -1 -1 -1 -1 -1 -1 -1 -1 -1 -1 -1 -1 -1 -1
 MicOpt= -1 -1 -1 -1 -1 -1 -1 -1 -1 -1
 NAtoms=     70 NQM=       70 NQMF=       0 NMMI=      0 NMMIF=      0
                NMic=       0 NMicF=      0.
                    Isotopes and Nuclear Properties:
 (Nuclear quadrupole moments (NQMom) in fm**2, nuclear magnetic moments (NMagM)
  in nuclear magnetons)

  Atom         1           2           3           4           5           6           7           8           9          10
 IAtWgt=          14          12          12          14          12           1          14          12           1          14
 AtmWgt=  14.0030740  12.0000000  12.0000000  14.0030740  12.0000000   1.0078250  14.0030740  12.0000000   1.0078250  14.0030740
 NucSpn=           2           0           0           2           0           1           2           0           1           2
 AtZEff=  -0.0000000  -0.0000000  -0.0000000  -0.0000000  -0.0000000  -0.0000000  -0.0000000  -0.0000000  -0.0000000  -0.0000000
 NQMom=    2.0440000   0.0000000   0.0000000   2.0440000   0.0000000   0.0000000   2.0440000   0.0000000   0.0000000   2.0440000
 NMagM=    0.4037610   0.0000000   0.0000000   0.4037610   0.0000000   2.7928460   0.4037610   0.0000000   2.7928460   0.4037610
 AtZNuc=   7.0000000   6.0000000   6.0000000   7.0000000   6.0000000   1.0000000   7.0000000   6.0000000   1.0000000   7.0000000

  Atom        11          12          13          14          15          16          17          18          19          20
 IAtWgt=          12          12          14           1           1           1           1           1          14          12
 AtmWgt=  12.0000000  12.0000000  14.0030740   1.0078250   1.0078250   1.0078250   1.0078250   1.0078250  14.0030740  12.0000000
 NucSpn=           0           0           2           1           1           1           1           1           2           0
 AtZEff=  -0.0000000  -0.0000000  -0.0000000  -0.0000000  -0.0000000  -0.0000000  -0.0000000  -0.0000000  -0.0000000  -0.0000000
 NQMom=    0.0000000   0.0000000   2.0440000   0.0000000   0.0000000   0.0000000   0.0000000   0.0000000   2.0440000   0.0000000
 NMagM=    0.0000000   0.0000000   0.4037610   2.7928460   2.7928460   2.7928460   2.7928460   2.7928460   0.4037610   0.0000000
 AtZNuc=   6.0000000   6.0000000   7.0000000   1.0000000   1.0000000   1.0000000   1.0000000   1.0000000   7.0000000   6.0000000

  Atom        21          22          23          24          25          26          27          28          29          30
 IAtWgt=          12          14           1           1          14          12          14           1          12          16
 AtmWgt=  12.0000000  14.0030740   1.0078250   1.0078250  14.0030740  12.0000000  14.0030740   1.0078250  12.0000000  15.9949146
 NucSpn=           0           2           1           1           2           0           2           1           0           0
 AtZEff=  -0.0000000  -0.0000000  -0.0000000  -0.0000000  -0.0000000  -0.0000000  -0.0000000  -0.0000000  -0.0000000  -0.0000000
 NQMom=    0.0000000   2.0440000   0.0000000   0.0000000   2.0440000   0.0000000   2.0440000   0.0000000   0.0000000   0.0000000
 NMagM=    0.0000000   0.4037610   2.7928460   2.7928460   0.4037610   0.0000000   0.4037610   2.7928460   0.0000000   0.0000000
 AtZNuc=   6.0000000   7.0000000   1.0000000   1.0000000   7.0000000   6.0000000   7.0000000   1.0000000   6.0000000   8.0000000

  Atom        31          32          33          34          35          36          37          38          39          40
 IAtWgt=          12          14          12           1           1           1           1           1           1           1
 AtmWgt=  12.0000000  14.0030740  12.0000000   1.0078250   1.0078250   1.0078250   1.0078250   1.0078250   1.0078250   1.0078250
 NucSpn=           0           2           0           1           1           1           1           1           1           1
 AtZEff=  -0.0000000  -0.0000000  -0.0000000  -0.0000000  -0.0000000  -0.0000000  -0.0000000  -0.0000000  -0.0000000  -0.0000000
 NQMom=    0.0000000   2.0440000   0.0000000   0.0000000   0.0000000   0.0000000   0.0000000   0.0000000   0.0000000   0.0000000
 NMagM=    0.0000000   0.4037610   0.0000000   2.7928460   2.7928460   2.7928460   2.7928460   2.7928460   2.7928460   2.7928460
 AtZNuc=   6.0000000   7.0000000   6.0000000   1.0000000   1.0000000   1.0000000   1.0000000   1.0000000   1.0000000   1.0000000

  Atom        41          42          43          44          45          46          47          48          49          50
 IAtWgt=           1          12          16          12           1          14          16          12           1          12
 AtmWgt=   1.0078250  12.0000000  15.9949146  12.0000000   1.0078250  14.0030740  15.9949146  12.0000000   1.0078250  12.0000000
 NucSpn=           1           0           0           0           1           2           0           0           1           0
 AtZEff=  -0.0000000  -0.0000000  -0.0000000  -0.0000000  -0.0000000  -0.0000000  -0.0000000  -0.0000000  -0.0000000  -0.0000000
 NQMom=    0.0000000   0.0000000   0.0000000   0.0000000   0.0000000   2.0440000   0.0000000   0.0000000   0.0000000   0.0000000
 NMagM=    2.7928460   0.0000000   0.0000000   0.0000000   2.7928460   0.4037610   0.0000000   0.0000000   2.7928460   0.0000000
 AtZNuc=   1.0000000   6.0000000   8.0000000   6.0000000   1.0000000   7.0000000   8.0000000   6.0000000   1.0000000   6.0000000

  Atom        51          52          53          54          55          56          57          58          59          60
 IAtWgt=          12          14           1           1           1           1           1          14          12          12
 AtmWgt=  12.0000000  14.0030740   1.0078250   1.0078250   1.0078250   1.0078250   1.0078250  14.0030740  12.0000000  12.0000000
 NucSpn=           0           2           1           1           1           1           1           2           0           0
 AtZEff=  -0.0000000  -0.0000000  -0.0000000  -0.0000000  -0.0000000  -0.0000000  -0.0000000  -0.0000000  -0.0000000  -0.0000000
 NQMom=    0.0000000   2.0440000   0.0000000   0.0000000   0.0000000   0.0000000   0.0000000   2.0440000   0.0000000   0.0000000
 NMagM=    0.0000000   0.4037610   2.7928460   2.7928460   2.7928460   2.7928460   2.7928460   0.4037610   0.0000000   0.0000000
 AtZNuc=   6.0000000   7.0000000   1.0000000   1.0000000   1.0000000   1.0000000   1.0000000   7.0000000   6.0000000   6.0000000

  Atom        61          62          63          64          65          66          67          68          69          70
 IAtWgt=          14           1          12          14           1          12          14          12          12          14
 AtmWgt=  14.0030740   1.0078250  12.0000000  14.0030740   1.0078250  12.0000000  14.0030740  12.0000000  12.0000000  14.0030740
 NucSpn=           2           1           0           2           1           0           2           0           0           2
 AtZEff=  -0.0000000  -0.0000000  -0.0000000  -0.0000000  -0.0000000  -0.0000000  -0.0000000  -0.0000000  -0.0000000  -0.0000000
 NQMom=    2.0440000   0.0000000   0.0000000   2.0440000   0.0000000   0.0000000   2.0440000   0.0000000   0.0000000   2.0440000
 NMagM=    0.4037610   2.7928460   0.0000000   0.4037610   2.7928460   0.0000000   0.4037610   0.0000000   0.0000000   0.4037610
 AtZNuc=   7.0000000   1.0000000   6.0000000   7.0000000   1.0000000   6.0000000   7.0000000   6.0000000   6.0000000   7.0000000
 Leave Link  101 at Thu Jan 18 22:42:26 2018, MaxMem=  4294967296 cpu:               7.2 elap:               0.3
 (Enter /share/apps/g16/l202.exe)
 Stoichiometry    C23H27N17O3
 Framework group  C1[X(C23H27N17O3)]
 Deg. of freedom   204
 Full point group                 C1      NOp   1
 Largest Abelian subgroup         C1      NOp   1
 Largest concise Abelian subgroup C1      NOp   1
                         Standard orientation:                         
 ---------------------------------------------------------------------
 Center     Atomic      Atomic             Coordinates (Angstroms)
 Number     Number       Type             X           Y           Z
 ---------------------------------------------------------------------
      1          7           0       -5.448779   -1.886998    0.468474
      2          6           0       -6.741953   -1.673371    1.146751
      3          6           0       -3.299034   -1.983151    0.013840
      4          7           0       -3.956075   -2.442900   -1.118261
      5          6           0       -5.224913   -2.366574   -0.799045
      6          1           0       -6.047675   -2.649642   -1.456231
      7          7           0       -1.617561   -1.335783    1.535853
      8          6           0       -2.606671   -1.044502    2.386969
      9          1           0       -2.288856   -0.660219    3.355256
     10          7           0       -3.923238   -1.156121    2.222336
     11          6           0       -4.205961   -1.636779    1.000268
     12          6           0       -1.934753   -1.817539    0.314214
     13          7           0       -0.948807   -2.108881   -0.536779
     14          1           0       -1.137240   -2.467840   -1.451583
     15          1           0        0.011267   -1.978360   -0.289065
     16          1           0       -7.233938   -2.541747    1.210455
     17          1           0       -6.581871   -1.313907    2.065600
     18          1           0       -7.290029   -1.019194    0.625546
     19          7           0       -4.724556    1.870471   -0.338990
     20          6           0       -3.371075    2.019804   -0.155072
     21          6           0       -5.773132    2.500909    0.487880
     22          7           0       -0.707587    3.388862    1.603689
     23          1           0        0.291052    3.365590    1.566023
     24          1           0       -1.121578    3.942833    2.326489
     25          7           0       -2.776437    2.761592    0.804199
     26          6           0       -1.458684    2.708099    0.724872
     27          7           0       -0.773731    1.984160   -0.220768
     28          1           0        0.234458    2.001547   -0.205702
     29          6           0       -1.364919    1.213779   -1.217203
     30          8           0       -0.655167    0.598208   -2.022234
     31          6           0       -2.780324    1.261364   -1.144820
     32          7           0       -3.743549    0.648222   -1.934213
     33          6           0       -4.878668    1.037402   -1.420149
     34          1           0       -5.861361    0.745448   -1.792101
     35          1           0       -6.338095    1.792612    0.909717
     36          1           0       -5.344575    3.052977    1.201911
     37          1           0       -6.345523    3.085855   -0.085721
     38          1           0        5.218041    1.987537    0.802478
     39          1           0        5.269025    3.198229   -0.476685
     40          1           0        3.845987    3.068654    0.557489
     41          1           0        4.908376   -0.826923   -3.087183
     42          6           0        4.274158   -0.170543   -2.491224
     43          8           0        2.245127   -1.021657   -3.377640
     44          6           0        2.852379   -0.256342   -2.629086
     45          1           0        1.136296    0.586856   -1.899434
     46          7           0        2.143731    0.617909   -1.829881
     47          8           0        1.947929    2.265015   -0.278775
     48          6           0        2.657850    1.531805   -0.944421
     49          1           0        5.880112    0.815475   -1.493980
     50          6           0        4.805283    0.710845   -1.635838
     51          6           0        4.631720    2.515262    0.065046
     52          7           0        4.036563    1.554529   -0.867964
     53          1           0        5.782019   -0.258726    4.137477
     54          1           0        4.456162    0.637911    3.820852
     55          1           0        5.914677    1.112674    3.262796
     56          1           0        2.374846   -2.827813   -1.933472
     57          1           0        4.069170   -2.867024   -1.738987
     58          7           0        3.178033   -2.564587   -1.398933
     59          6           0        3.066824   -1.842366   -0.282148
     60          6           0        3.889721   -0.699626    1.635845
     61          7           0        2.680115   -0.307379    2.068747
     62          1           0        0.710529   -0.464721    1.524136
     63          6           0        1.726929   -0.739916    1.245797
     64          7           0        1.836285   -1.463376    0.126768
     65          1           0        7.108281   -1.004653    1.643443
     66          6           0        6.043217   -1.048355    1.413904
     67          7           0        5.529259   -1.660573    0.375297
     68          6           0        4.164461   -1.447206    0.503960
     69          6           0        5.333197    0.323058    3.459192
     70          7           0        5.108250   -0.445188    2.219350
 ---------------------------------------------------------------------
 Rotational constants (GHZ):           0.1608355           0.0524415           0.0505402
 Leave Link  202 at Thu Jan 18 22:42:26 2018, MaxMem=  4294967296 cpu:               0.3 elap:               0.0
 (Enter /share/apps/g16/l301.exe)
 Standard basis: CC-pVDZ (5D, 7F)
 Ernie: Thresh=  0.10000D-02 Tol=  0.10000D-05 Strict=F.
 Ernie:  86 primitive shells out of 1081 were deleted.
 There are   780 symmetry adapted cartesian basis functions of A   symmetry.
 There are   737 symmetry adapted basis functions of A   symmetry.
   737 basis functions,  1608 primitive gaussians,   780 cartesian basis functions
   154 alpha electrons      154 beta electrons
       nuclear repulsion energy      5545.5448934015 Hartrees.
 IExCor= 4639 DFT=T Ex+Corr=wB97XD ExCW=0 ScaHFX=  1.000000
 ScaDFX=  1.000000  1.000000  1.000000  1.000000 ScalE2=  1.000000  1.000000
 IRadAn=      5 IRanWt=     -1 IRanGd=            0 ICorTp=0 IEmpDi=121
 HFx  wShort=  0.000000 wLong=  0.200000 cFull=  0.222036 cShort=  0.000000 cLong=  0.777964
 DFx  wShort=  0.000000 wLong=  0.200000 cFull=  0.000000 cShort=  0.000000 cLong=  1.000000
 NAtoms=   70 NActive=   70 NUniq=   70 SFac= 1.00D+00 NAtFMM=   60 NAOKFM=T Big=T
 Integral buffers will be    131072 words long.
 Raffenetti 2 integral format.
 Two-electron integral symmetry is turned on.
 R6Disp:  Grimme-D2 Dispersion energy=       -0.0735359918 Hartrees.
 Nuclear repulsion after empirical dispersion term =     5545.4713574098 Hartrees.
 Leave Link  301 at Thu Jan 18 22:42:26 2018, MaxMem=  4294967296 cpu:               5.5 elap:               0.2
 (Enter /share/apps/g16/l302.exe)
 NPDir=0 NMtPBC=     1 NCelOv=     1 NCel=       1 NClECP=     1 NCelD=      1
         NCelK=      1 NCelE2=     1 NClLst=     1 CellRange=     0.0.
 One-electron integrals computed using PRISM.
 One-electron integral symmetry used in STVInt
 NBasis=   737 RedAO= T EigKep=  6.80D-04  NBF=   737
 NBsUse=   737 1.00D-06 EigRej= -1.00D+00 NBFU=   737
 Precomputing XC quadrature grid using
 IXCGrd= 4 IRadAn=           5 IRanWt=          -1 IRanGd=           0 AccXCQ= 0.00D+00.
 Generated NRdTot=       0 NPtTot=           0 NUsed=           0 NTot=          32
 NSgBfM=   762   761   761   762   762 MxSgAt=    70 MxSgA2=    70.
 Leave Link  302 at Thu Jan 18 22:42:30 2018, MaxMem=  4294967296 cpu:             134.3 elap:               4.2
 (Enter /share/apps/g16/l303.exe)
 DipDrv:  MaxL=1.
 Leave Link  303 at Thu Jan 18 22:42:31 2018, MaxMem=  4294967296 cpu:              12.6 elap:               0.4
 (Enter /share/apps/g16/l401.exe)
 ExpMin= 1.22D-01 ExpMax= 1.17D+04 ExpMxC= 4.01D+02 IAcc=3 IRadAn=         5 AccDes= 0.00D+00
 Harris functional with IExCor= 4639 and IRadAn=       5 diagonalized for initial guess.
 HarFok:  IExCor= 4639 AccDes= 0.00D+00 IRadAn=         5 IDoV= 1 UseB2=F ITyADJ=14
 ICtDFT=  3500011 ScaDFX=  1.000000  1.000000  1.000000  1.000000
 FoFCou: FMM=F IPFlag=           0 FMFlag=      100000 FMFlg1=        2001
         NFxFlg=           0 DoJE=T BraDBF=F KetDBF=T FulRan=T
         wScrn=  0.000000 ICntrl=       500 IOpCl=  0 I1Cent=   200000004 NGrid=           0
         NMat0=    1 NMatS0=      1 NMatT0=    0 NMatD0=    1 NMtDS0=    0 NMtDT0=    0
 Petite list used in FoFCou.
 Harris En= -1963.87352976302    
 JPrj=0 DoOrth=F DoCkMO=F.
 Leave Link  401 at Thu Jan 18 22:42:43 2018, MaxMem=  4294967296 cpu:             406.4 elap:              12.8
 (Enter /share/apps/g16/l502.exe)
 Integral symmetry usage will be decided dynamically.
 Closed shell SCF:
 Using DIIS extrapolation, IDIIS=  1040.
 NGot=  4294967296 LenX=  4293717438 LenY=  4293108258
 Requested convergence on RMS density matrix=1.00D-08 within  20 cycles.
 Requested convergence on MAX density matrix=1.00D-06.
 Requested convergence on             energy=1.00D-06.
 No special actions if energy rises.
 Fock matrices will be formed incrementally for  20 cycles.
 Integral accuracy reduced to 1.0D-05 until final iterations.

 Cycle   1  Pass 0  IDiag  1:
 FoFJK:  IHMeth= 1 ICntrl=       0 DoSepK=T KAlg= 0 I1Cent=           0 FoldK=F
 IRaf=         1 NMat=       1 IRICut=       1 DoRegI=T DoRafI=F ISym2E= 0 IDoP0=0 IntGTp=1.
 FoFCou: FMM=T IPFlag=           0 FMFlag=      100000 FMFlg1=        2001
         NFxFlg=           0 DoJE=T BraDBF=F KetDBF=F FulRan=T
         wScrn=  0.000000 ICntrl=       500 IOpCl=  0 I1Cent=           0 NGrid=           0
         NMat0=    1 NMatS0=      1 NMatT0=    0 NMatD0=    1 NMtDS0=    0 NMtDT0=    0
 Symmetry not used in FoFCou.
 FMM levels:  10  Number of levels for PrismC:   9
 E= -2048.30616533509    
 DIIS: error= 2.04D-02 at cycle   1 NSaved=   1.
 NSaved= 1 IEnMin= 1 EnMin= -2048.30616533509     IErMin= 1 ErrMin= 2.04D-02
 ErrMax= 2.04D-02  0.00D+00 EMaxC= 1.00D-01 BMatC= 8.36D-01 BMatP= 8.36D-01
 IDIUse=3 WtCom= 7.96D-01 WtEn= 2.04D-01
 Coeff-Com:  0.100D+01
 Coeff-En:   0.100D+01
 Coeff:      0.100D+01
 Gap=     0.259 Goal=   None    Shift=    0.000
 GapD=    0.259 DampG=1.000 DampE=0.500 DampFc=0.5000 IDamp=-1.
 Damping current iteration by 5.00D-01
 RMSDP=1.59D-03 MaxDP=1.16D-01              OVMax= 1.65D-01

 Cycle   2  Pass 0  IDiag  1:
 RMSU=  7.95D-04    CP:  9.98D-01
 E= -2048.50184767146     Delta-E=       -0.195682336369 Rises=F Damp=T
 DIIS: error= 1.11D-02 at cycle   2 NSaved=   2.
 NSaved= 2 IEnMin= 2 EnMin= -2048.50184767146     IErMin= 2 ErrMin= 1.11D-02
 ErrMax= 1.11D-02  0.00D+00 EMaxC= 1.00D-01 BMatC= 1.46D-01 BMatP= 8.36D-01
 IDIUse=3 WtCom= 8.89D-01 WtEn= 1.11D-01
 Coeff-Com: -0.184D+00 0.118D+01
 Coeff-En:   0.000D+00 0.100D+01
 Coeff:     -0.164D+00 0.116D+01
 Gap=     0.358 Goal=   None    Shift=    0.000
 RMSDP=6.00D-04 MaxDP=3.10D-02 DE=-1.96D-01 OVMax= 1.49D-01

 Cycle   3  Pass 0  IDiag  1:
 RMSU=  5.93D-04    CP:  9.94D-01  1.11D+00
 E= -2048.67889928940     Delta-E=       -0.177051617939 Rises=F Damp=F
 DIIS: error= 6.68D-03 at cycle   3 NSaved=   3.
 NSaved= 3 IEnMin= 3 EnMin= -2048.67889928940     IErMin= 3 ErrMin= 6.68D-03
 ErrMax= 6.68D-03  0.00D+00 EMaxC= 1.00D-01 BMatC= 6.96D-02 BMatP= 1.46D-01
 IDIUse=3 WtCom= 9.33D-01 WtEn= 6.68D-02
 Coeff-Com: -0.233D+00 0.560D+00 0.674D+00
 Coeff-En:   0.000D+00 0.000D+00 0.100D+01
 Coeff:     -0.218D+00 0.522D+00 0.695D+00
 Gap=     0.281 Goal=   None    Shift=    0.000
 RMSDP=3.80D-04 MaxDP=2.60D-02 DE=-1.77D-01 OVMax= 6.95D-02

 Cycle   4  Pass 0  IDiag  1:
 RMSU=  2.12D-04    CP:  9.94D-01  1.41D+00  6.51D-01
 E= -2048.73178750022     Delta-E=       -0.052888210822 Rises=F Damp=F
 DIIS: error= 2.51D-03 at cycle   4 NSaved=   4.
 NSaved= 4 IEnMin= 4 EnMin= -2048.73178750022     IErMin= 4 ErrMin= 2.51D-03
 ErrMax= 2.51D-03  0.00D+00 EMaxC= 1.00D-01 BMatC= 9.69D-03 BMatP= 6.96D-02
 IDIUse=3 WtCom= 9.75D-01 WtEn= 2.51D-02
 Coeff-Com: -0.973D-01 0.188D+00 0.372D+00 0.537D+00
 Coeff-En:   0.000D+00 0.000D+00 0.661D-01 0.934D+00
 Coeff:     -0.949D-01 0.184D+00 0.365D+00 0.547D+00
 Gap=     0.284 Goal=   None    Shift=    0.000
 RMSDP=1.31D-04 MaxDP=9.68D-03 DE=-5.29D-02 OVMax= 1.51D-02

 Cycle   5  Pass 0  IDiag  1:
 RMSU=  6.12D-05    CP:  9.94D-01  1.38D+00  7.87D-01  6.25D-01
 E= -2048.73996206058     Delta-E=       -0.008174560360 Rises=F Damp=F
 DIIS: error= 4.22D-04 at cycle   5 NSaved=   5.
 NSaved= 5 IEnMin= 5 EnMin= -2048.73996206058     IErMin= 5 ErrMin= 4.22D-04
 ErrMax= 4.22D-04  0.00D+00 EMaxC= 1.00D-01 BMatC= 2.76D-04 BMatP= 9.69D-03
 IDIUse=3 WtCom= 9.96D-01 WtEn= 4.22D-03
 Coeff-Com: -0.246D-01 0.420D-01 0.116D+00 0.232D+00 0.635D+00
 Coeff-En:   0.000D+00 0.000D+00 0.000D+00 0.000D+00 0.100D+01
 Coeff:     -0.245D-01 0.418D-01 0.115D+00 0.231D+00 0.636D+00
 Gap=     0.284 Goal=   None    Shift=    0.000
 RMSDP=2.68D-05 MaxDP=1.37D-03 DE=-8.17D-03 OVMax= 3.05D-03

 Failed to achieve initial convergence to 1.0D-08 in  6 cycles.
 Switch to full accuracy anyway.
 Cycle   6  Pass 1  IDiag  1:
 E= -2048.74020183837     Delta-E=       -0.000239777791 Rises=F Damp=F
 DIIS: error= 2.74D-04 at cycle   1 NSaved=   1.
 NSaved= 1 IEnMin= 1 EnMin= -2048.74020183837     IErMin= 1 ErrMin= 2.74D-04
 ErrMax= 2.74D-04  0.00D+00 EMaxC= 1.00D-01 BMatC= 7.33D-05 BMatP= 7.33D-05
 IDIUse=3 WtCom= 9.97D-01 WtEn= 2.74D-03
 Coeff-Com:  0.100D+01
 Coeff-En:   0.100D+01
 Coeff:      0.100D+01
 Gap=     0.284 Goal=   None    Shift=    0.000
 RMSDP=2.68D-05 MaxDP=1.37D-03 DE=-2.40D-04 OVMax= 2.95D-03

 Cycle   7  Pass 1  IDiag  1:
 RMSU=  1.15D-04    CP:  1.00D+00
 E= -2048.74025404274     Delta-E=       -0.000052204373 Rises=F Damp=F
 DIIS: error= 1.56D-04 at cycle   2 NSaved=   2.
 NSaved= 2 IEnMin= 2 EnMin= -2048.74025404274     IErMin= 2 ErrMin= 1.56D-04
 ErrMax= 1.56D-04  0.00D+00 EMaxC= 1.00D-01 BMatC= 4.39D-05 BMatP= 7.33D-05
 IDIUse=3 WtCom= 9.98D-01 WtEn= 1.56D-03
 Coeff-Com:  0.415D+00 0.585D+00
 Coeff-En:   0.682D-02 0.993D+00
 Coeff:      0.414D+00 0.586D+00
 Gap=     0.284 Goal=   None    Shift=    0.000
 RMSDP=1.18D-05 MaxDP=7.61D-04 DE=-5.22D-05 OVMax= 1.63D-03

 Cycle   8  Pass 1  IDiag  1:
 RMSU=  1.15D-05    CP:  1.00D+00  1.02D+00
 E= -2048.74028733305     Delta-E=       -0.000033290306 Rises=F Damp=F
 DIIS: error= 7.84D-05 at cycle   3 NSaved=   3.
 NSaved= 3 IEnMin= 3 EnMin= -2048.74028733305     IErMin= 3 ErrMin= 7.84D-05
 ErrMax= 7.84D-05  0.00D+00 EMaxC= 1.00D-01 BMatC= 9.43D-06 BMatP= 4.39D-05
 IDIUse=1 WtCom= 1.00D+00 WtEn= 0.00D+00
 Coeff-Com: -0.183D-01 0.302D+00 0.716D+00
 Coeff:     -0.183D-01 0.302D+00 0.716D+00
 Gap=     0.284 Goal=   None    Shift=    0.000
 RMSDP=5.72D-06 MaxDP=3.33D-04 DE=-3.33D-05 OVMax= 6.51D-04

 Cycle   9  Pass 1  IDiag  1:
 RMSU=  3.82D-06    CP:  1.00D+00  1.05D+00  7.65D-01
 E= -2048.74029670195     Delta-E=       -0.000009368903 Rises=F Damp=F
 DIIS: error= 3.00D-05 at cycle   4 NSaved=   4.
 NSaved= 4 IEnMin= 4 EnMin= -2048.74029670195     IErMin= 4 ErrMin= 3.00D-05
 ErrMax= 3.00D-05  0.00D+00 EMaxC= 1.00D-01 BMatC= 5.31D-07 BMatP= 9.43D-06
 IDIUse=1 WtCom= 1.00D+00 WtEn= 0.00D+00
 Coeff-Com: -0.313D-01 0.835D-01 0.274D+00 0.674D+00
 Coeff:     -0.313D-01 0.835D-01 0.274D+00 0.674D+00
 Gap=     0.284 Goal=   None    Shift=    0.000
 RMSDP=1.48D-06 MaxDP=7.79D-05 DE=-9.37D-06 OVMax= 4.85D-04

 Cycle  10  Pass 1  IDiag  1:
 RMSU=  1.32D-06    CP:  1.00D+00  1.05D+00  8.03D-01  1.10D+00
 E= -2048.74029756911     Delta-E=       -0.000000867152 Rises=F Damp=F
 DIIS: error= 1.19D-05 at cycle   5 NSaved=   5.
 NSaved= 5 IEnMin= 5 EnMin= -2048.74029756911     IErMin= 5 ErrMin= 1.19D-05
 ErrMax= 1.19D-05  0.00D+00 EMaxC= 1.00D-01 BMatC= 1.21D-07 BMatP= 5.31D-07
 IDIUse=1 WtCom= 1.00D+00 WtEn= 0.00D+00
 Coeff-Com: -0.398D-02-0.525D-01-0.113D+00 0.208D+00 0.961D+00
 Coeff:     -0.398D-02-0.525D-01-0.113D+00 0.208D+00 0.961D+00
 Gap=     0.284 Goal=   None    Shift=    0.000
 RMSDP=1.19D-06 MaxDP=5.89D-05 DE=-8.67D-07 OVMax= 2.75D-04

 Cycle  11  Pass 1  IDiag  1:
 RMSU=  4.93D-07    CP:  1.00D+00  1.05D+00  8.13D-01  1.37D+00  1.18D+00
 E= -2048.74029783302     Delta-E=       -0.000000263919 Rises=F Damp=F
 DIIS: error= 6.73D-06 at cycle   6 NSaved=   6.
 NSaved= 6 IEnMin= 6 EnMin= -2048.74029783302     IErMin= 6 ErrMin= 6.73D-06
 ErrMax= 6.73D-06  0.00D+00 EMaxC= 1.00D-01 BMatC= 3.03D-08 BMatP= 1.21D-07
 IDIUse=1 WtCom= 1.00D+00 WtEn= 0.00D+00
 Coeff-Com:  0.480D-02-0.451D-01-0.119D+00-0.799D-02 0.522D+00 0.645D+00
 Coeff:      0.480D-02-0.451D-01-0.119D+00-0.799D-02 0.522D+00 0.645D+00
 Gap=     0.284 Goal=   None    Shift=    0.000
 RMSDP=4.03D-07 MaxDP=2.10D-05 DE=-2.64D-07 OVMax= 1.38D-04

 Cycle  12  Pass 1  IDiag  1:
 RMSU=  1.95D-07    CP:  1.00D+00  1.05D+00  8.15D-01  1.45D+00  1.31D+00
                    CP:  9.44D-01
 E= -2048.74029787777     Delta-E=       -0.000000044750 Rises=F Damp=F
 DIIS: error= 1.04D-06 at cycle   7 NSaved=   7.
 NSaved= 7 IEnMin= 7 EnMin= -2048.74029787777     IErMin= 7 ErrMin= 1.04D-06
 ErrMax= 1.04D-06  0.00D+00 EMaxC= 1.00D-01 BMatC= 7.60D-10 BMatP= 3.03D-08
 IDIUse=1 WtCom= 1.00D+00 WtEn= 0.00D+00
 Coeff-Com:  0.116D-02-0.740D-02-0.208D-01-0.980D-02 0.610D-01 0.133D+00
 Coeff-Com:  0.843D+00
 Coeff:      0.116D-02-0.740D-02-0.208D-01-0.980D-02 0.610D-01 0.133D+00
 Coeff:      0.843D+00
 Gap=     0.284 Goal=   None    Shift=    0.000
 RMSDP=8.70D-08 MaxDP=3.13D-06 DE=-4.47D-08 OVMax= 2.54D-05

 Cycle  13  Pass 1  IDiag  1:
 RMSU=  5.47D-08    CP:  1.00D+00  1.05D+00  8.15D-01  1.46D+00  1.33D+00
                    CP:  1.03D+00  1.13D+00
 E= -2048.74029787929     Delta-E=       -0.000000001516 Rises=F Damp=F
 DIIS: error= 7.00D-07 at cycle   8 NSaved=   8.
 NSaved= 8 IEnMin= 8 EnMin= -2048.74029787929     IErMin= 8 ErrMin= 7.00D-07
 ErrMax= 7.00D-07  0.00D+00 EMaxC= 1.00D-01 BMatC= 3.52D-10 BMatP= 7.60D-10
 IDIUse=1 WtCom= 1.00D+00 WtEn= 0.00D+00
 Coeff-Com: -0.773D-03 0.907D-02 0.231D-01-0.127D-02-0.116D+00-0.115D+00
 Coeff-Com:  0.428D+00 0.773D+00
 Coeff:     -0.773D-03 0.907D-02 0.231D-01-0.127D-02-0.116D+00-0.115D+00
 Coeff:      0.428D+00 0.773D+00
 Gap=     0.284 Goal=   None    Shift=    0.000
 RMSDP=5.15D-08 MaxDP=2.68D-06 DE=-1.52D-09 OVMax= 1.28D-05

 Cycle  14  Pass 1  IDiag  1:
 RMSU=  2.92D-08    CP:  1.00D+00  1.05D+00  8.15D-01  1.47D+00  1.34D+00
                    CP:  1.08D+00  1.29D+00  1.06D+00
 E= -2048.74029788008     Delta-E=       -0.000000000790 Rises=F Damp=F
 DIIS: error= 1.46D-07 at cycle   9 NSaved=   9.
 NSaved= 9 IEnMin= 9 EnMin= -2048.74029788008     IErMin= 9 ErrMin= 1.46D-07
 ErrMax= 1.46D-07  0.00D+00 EMaxC= 1.00D-01 BMatC= 2.70D-11 BMatP= 3.52D-10
 IDIUse=1 WtCom= 1.00D+00 WtEn= 0.00D+00
 Coeff-Com: -0.417D-03 0.424D-02 0.110D-01 0.507D-03-0.502D-01-0.582D-01
 Coeff-Com:  0.832D-01 0.283D+00 0.727D+00
 Coeff:     -0.417D-03 0.424D-02 0.110D-01 0.507D-03-0.502D-01-0.582D-01
 Coeff:      0.832D-01 0.283D+00 0.727D+00
 Gap=     0.284 Goal=   None    Shift=    0.000
 RMSDP=1.37D-08 MaxDP=6.50D-07 DE=-7.90D-10 OVMax= 3.49D-06

 Cycle  15  Pass 1  IDiag  1:
 RMSU=  9.16D-09    CP:  1.00D+00  1.05D+00  8.15D-01  1.47D+00  1.34D+00
                    CP:  1.08D+00  1.32D+00  1.19D+00  1.11D+00
 E= -2048.74029788029     Delta-E=       -0.000000000210 Rises=F Damp=F
 DIIS: error= 6.08D-08 at cycle  10 NSaved=  10.
 NSaved=10 IEnMin=10 EnMin= -2048.74029788029     IErMin=10 ErrMin= 6.08D-08
 ErrMax= 6.08D-08  0.00D+00 EMaxC= 1.00D-01 BMatC= 4.72D-12 BMatP= 2.70D-11
 IDIUse=1 WtCom= 1.00D+00 WtEn= 0.00D+00
 Coeff-Com:  0.250D-04-0.503D-03-0.118D-02 0.199D-03 0.765D-02 0.464D-02
 Coeff-Com: -0.592D-01-0.769D-01 0.242D+00 0.884D+00
 Coeff:      0.250D-04-0.503D-03-0.118D-02 0.199D-03 0.765D-02 0.464D-02
 Coeff:     -0.592D-01-0.769D-01 0.242D+00 0.884D+00
 Gap=     0.284 Goal=   None    Shift=    0.000
 RMSDP=7.08D-09 MaxDP=2.50D-07 DE=-2.10D-10 OVMax= 1.55D-06

 SCF Done:  E(RwB97XD) =  -2048.74029788     A.U. after   15 cycles
            NFock= 15  Conv=0.71D-08     -V/T= 2.0054
 KE= 2.037810837790D+03 PE=-1.587170368984D+04 EE= 6.239681196757D+03
 Leave Link  502 at Thu Jan 18 22:54:13 2018, MaxMem=  4294967296 cpu:           21248.8 elap:             689.6
 (Enter /share/apps/g16/l601.exe)
 Copying SCF densities to generalized density rwf, IOpCl= 0 IROHF=0.

 **********************************************************************

            Population analysis using the SCF density.

 **********************************************************************

 Orbital symmetries:
       Occupied  (A) (A) (A) (A) (A) (A) (A) (A) (A) (A) (A) (A)
                 (A) (A) (A) (A) (A) (A) (A) (A) (A) (A) (A) (A)
                 (A) (A) (A) (A) (A) (A) (A) (A) (A) (A) (A) (A)
                 (A) (A) (A) (A) (A) (A) (A) (A) (A) (A) (A) (A)
                 (A) (A) (A) (A) (A) (A) (A) (A) (A) (A) (A) (A)
                 (A) (A) (A) (A) (A) (A) (A) (A) (A) (A) (A) (A)
                 (A) (A) (A) (A) (A) (A) (A) (A) (A) (A) (A) (A)
                 (A) (A) (A) (A) (A) (A) (A) (A) (A) (A) (A) (A)
                 (A) (A) (A) (A) (A) (A) (A) (A) (A) (A) (A) (A)
                 (A) (A) (A) (A) (A) (A) (A) (A) (A) (A) (A) (A)
                 (A) (A) (A) (A) (A) (A) (A) (A) (A) (A) (A) (A)
                 (A) (A) (A) (A) (A) (A) (A) (A) (A) (A) (A) (A)
                 (A) (A) (A) (A) (A) (A) (A) (A) (A) (A)
       Virtual   (A) (A) (A) (A) (A) (A) (A) (A) (A) (A) (A) (A)
                 (A) (A) (A) (A) (A) (A) (A) (A) (A) (A) (A) (A)
                 (A) (A) (A) (A) (A) (A) (A) (A) (A) (A) (A) (A)
                 (A) (A) (A) (A) (A) (A) (A) (A) (A) (A) (A) (A)
                 (A) (A) (A) (A) (A) (A) (A) (A) (A) (A) (A) (A)
                 (A) (A) (A) (A) (A) (A) (A) (A) (A) (A) (A) (A)
                 (A) (A) (A) (A) (A) (A) (A) (A) (A) (A) (A) (A)
                 (A) (A) (A) (A) (A) (A) (A) (A) (A) (A) (A) (A)
                 (A) (A) (A) (A) (A) (A) (A) (A) (A) (A) (A) (A)
                 (A) (A) (A) (A) (A) (A) (A) (A) (A) (A) (A) (A)
                 (A) (A) (A) (A) (A) (A) (A) (A) (A) (A) (A) (A)
                 (A) (A) (A) (A) (A) (A) (A) (A) (A) (A) (A) (A)
                 (A) (A) (A) (A) (A) (A) (A) (A) (A) (A) (A) (A)
                 (A) (A) (A) (A) (A) (A) (A) (A) (A) (A) (A) (A)
                 (A) (A) (A) (A) (A) (A) (A) (A) (A) (A) (A) (A)
                 (A) (A) (A) (A) (A) (A) (A) (A) (A) (A) (A) (A)
                 (A) (A) (A) (A) (A) (A) (A) (A) (A) (A) (A) (A)
                 (A) (A) (A) (A) (A) (A) (A) (A) (A) (A) (A) (A)
                 (A) (A) (A) (A) (A) (A) (A) (A) (A) (A) (A) (A)
                 (A) (A) (A) (A) (A) (A) (A) (A) (A) (A) (A) (A)
                 (A) (A) (A) (A) (A) (A) (A) (A) (A) (A) (A) (A)
                 (A) (A) (A) (A) (A) (A) (A) (A) (A) (A) (A) (A)
                 (A) (A) (A) (A) (A) (A) (A) (A) (A) (A) (A) (A)
                 (A) (A) (A) (A) (A) (A) (A) (A) (A) (A) (A) (A)
                 (A) (A) (A) (A) (A) (A) (A) (A) (A) (A) (A) (A)
                 (A) (A) (A) (A) (A) (A) (A) (A) (A) (A) (A) (A)
                 (A) (A) (A) (A) (A) (A) (A) (A) (A) (A) (A) (A)
                 (A) (A) (A) (A) (A) (A) (A) (A) (A) (A) (A) (A)
                 (A) (A) (A) (A) (A) (A) (A) (A) (A) (A) (A) (A)
                 (A) (A) (A) (A) (A) (A) (A) (A) (A) (A) (A) (A)
                 (A) (A) (A) (A) (A) (A) (A) (A) (A) (A) (A) (A)
                 (A) (A) (A) (A) (A) (A) (A) (A) (A) (A) (A) (A)
                 (A) (A) (A) (A) (A) (A) (A) (A) (A) (A) (A) (A)
                 (A) (A) (A) (A) (A) (A) (A) (A) (A) (A) (A) (A)
                 (A) (A) (A) (A) (A) (A) (A) (A) (A) (A) (A) (A)
                 (A) (A) (A) (A) (A) (A) (A) (A) (A) (A) (A) (A)
                 (A) (A) (A) (A) (A) (A) (A) (A) (A) (A) (A) (A)
                 (A) (A) (A) (A) (A) (A) (A) (A) (A) (A) (A) (A)
                 (A) (A) (A) (A) (A) (A) (A) (A) (A) (A) (A) (A)
                 (A) (A) (A) (A) (A) (A) (A) (A) (A) (A) (A) (A)
                 (A) (A) (A) (A) (A) (A) (A) (A) (A) (A) (A) (A)
                 (A) (A) (A) (A) (A) (A) (A) (A) (A) (A) (A) (A)
                 (A) (A) (A) (A) (A) (A) (A) (A) (A) (A) (A) (A)
                 (A) (A) (A) (A) (A) (A) (A) (A) (A) (A) (A) (A)
                 (A) (A) (A) (A) (A) (A) (A) (A) (A) (A) (A) (A)
                 (A) (A) (A) (A) (A) (A) (A) (A) (A) (A) (A) (A)
                 (A) (A) (A) (A) (A) (A) (A) (A) (A) (A) (A) (A)
                 (A) (A) (A) (A) (A) (A) (A) (A) (A) (A) (A) (A)
                 (A) (A) (A) (A) (A) (A) (A)
 The electronic state is 1-A.
 Alpha  occ. eigenvalues --  -19.25688 -19.21778 -19.20774 -14.52276 -14.52142
 Alpha  occ. eigenvalues --  -14.49015 -14.48881 -14.47711 -14.47030 -14.46850
 Alpha  occ. eigenvalues --  -14.46795 -14.45028 -14.43847 -14.43727 -14.42241
 Alpha  occ. eigenvalues --  -14.42135 -14.41234 -14.41066 -14.41054 -14.40430
 Alpha  occ. eigenvalues --  -10.45272 -10.41365 -10.40108 -10.39136 -10.38405
 Alpha  occ. eigenvalues --  -10.37634 -10.37337 -10.36754 -10.35526 -10.35320
 Alpha  occ. eigenvalues --  -10.35259 -10.34539 -10.33994 -10.33767 -10.33566
 Alpha  occ. eigenvalues --  -10.33466 -10.33247 -10.32135 -10.31412 -10.31193
 Alpha  occ. eigenvalues --  -10.30703 -10.28564 -10.28289  -1.19277  -1.14845
 Alpha  occ. eigenvalues --   -1.13353  -1.13135  -1.11398  -1.10785  -1.09155
 Alpha  occ. eigenvalues --   -1.08709  -1.08653  -1.05160  -1.04155  -1.02429
 Alpha  occ. eigenvalues --   -1.00543  -1.00495  -0.99875  -0.98684  -0.97024
 Alpha  occ. eigenvalues --   -0.96769  -0.96254  -0.92810  -0.90776  -0.87215
 Alpha  occ. eigenvalues --   -0.85577  -0.84327  -0.84073  -0.83596  -0.82759
 Alpha  occ. eigenvalues --   -0.82484  -0.78673  -0.76510  -0.74814  -0.74351
 Alpha  occ. eigenvalues --   -0.73768  -0.73220  -0.72996  -0.71150  -0.69828
 Alpha  occ. eigenvalues --   -0.67543  -0.66435  -0.66372  -0.66202  -0.64512
 Alpha  occ. eigenvalues --   -0.63859  -0.63612  -0.62795  -0.62753  -0.61917
 Alpha  occ. eigenvalues --   -0.60831  -0.60406  -0.59935  -0.59262  -0.59024
 Alpha  occ. eigenvalues --   -0.58673  -0.58512  -0.57343  -0.56672  -0.56270
 Alpha  occ. eigenvalues --   -0.55935  -0.55511  -0.55017  -0.54820  -0.54299
 Alpha  occ. eigenvalues --   -0.53813  -0.53726  -0.53236  -0.53110  -0.52787
 Alpha  occ. eigenvalues --   -0.52391  -0.52315  -0.51961  -0.50971  -0.50399
 Alpha  occ. eigenvalues --   -0.50355  -0.49788  -0.49626  -0.49370  -0.48994
 Alpha  occ. eigenvalues --   -0.48908  -0.48534  -0.47815  -0.47579  -0.47479
 Alpha  occ. eigenvalues --   -0.47073  -0.46151  -0.44897  -0.44156  -0.43072
 Alpha  occ. eigenvalues --   -0.41167  -0.40276  -0.39321  -0.37802  -0.37397
 Alpha  occ. eigenvalues --   -0.37329  -0.37114  -0.36994  -0.35924  -0.34535
 Alpha  occ. eigenvalues --   -0.34056  -0.33789  -0.33506  -0.33425  -0.33247
 Alpha  occ. eigenvalues --   -0.32801  -0.32326  -0.31911  -0.31747  -0.30980
 Alpha  occ. eigenvalues --   -0.30517  -0.29120  -0.26347  -0.25113
 Alpha virt. eigenvalues --    0.03323   0.04524   0.07356   0.07616   0.08436
 Alpha virt. eigenvalues --    0.09243   0.09562   0.10669   0.10932   0.11835
 Alpha virt. eigenvalues --    0.12973   0.13431   0.14236   0.14295   0.14914
 Alpha virt. eigenvalues --    0.15808   0.16064   0.17205   0.18082   0.18316
 Alpha virt. eigenvalues --    0.18729   0.19205   0.19650   0.20099   0.20335
 Alpha virt. eigenvalues --    0.20725   0.21172   0.21657   0.21920   0.22032
 Alpha virt. eigenvalues --    0.22755   0.22993   0.23276   0.23641   0.23761
 Alpha virt. eigenvalues --    0.24089   0.24116   0.24416   0.25095   0.25987
 Alpha virt. eigenvalues --    0.26598   0.26932   0.27531   0.27625   0.27707
 Alpha virt. eigenvalues --    0.28724   0.29224   0.29572   0.29743   0.30567
 Alpha virt. eigenvalues --    0.30872   0.31688   0.32297   0.32979   0.33470
 Alpha virt. eigenvalues --    0.34056   0.34174   0.35292   0.35733   0.36378
 Alpha virt. eigenvalues --    0.36661   0.36867   0.37733   0.38190   0.38762
 Alpha virt. eigenvalues --    0.39997   0.40172   0.40996   0.41689   0.42203
 Alpha virt. eigenvalues --    0.42329   0.42844   0.43337   0.43821   0.44204
 Alpha virt. eigenvalues --    0.44926   0.45621   0.45979   0.46449   0.46590
 Alpha virt. eigenvalues --    0.47079   0.47491   0.48064   0.48454   0.49248
 Alpha virt. eigenvalues --    0.49847   0.50464   0.50541   0.51125   0.51423
 Alpha virt. eigenvalues --    0.51840   0.52108   0.52518   0.52933   0.53521
 Alpha virt. eigenvalues --    0.53790   0.54087   0.54594   0.54924   0.55130
 Alpha virt. eigenvalues --    0.55766   0.56195   0.56551   0.56808   0.57434
 Alpha virt. eigenvalues --    0.57682   0.58677   0.58998   0.59413   0.59936
 Alpha virt. eigenvalues --    0.60121   0.60350   0.60733   0.61137   0.61507
 Alpha virt. eigenvalues --    0.61674   0.62364   0.62615   0.62890   0.63621
 Alpha virt. eigenvalues --    0.63903   0.64259   0.64859   0.65194   0.65614
 Alpha virt. eigenvalues --    0.65927   0.66095   0.67107   0.67152   0.67660
 Alpha virt. eigenvalues --    0.67973   0.68594   0.68818   0.69073   0.69761
 Alpha virt. eigenvalues --    0.70395   0.70792   0.71491   0.71889   0.72082
 Alpha virt. eigenvalues --    0.72682   0.73023   0.73409   0.73582   0.74342
 Alpha virt. eigenvalues --    0.74476   0.74920   0.75037   0.75333   0.75801
 Alpha virt. eigenvalues --    0.75940   0.76453   0.76582   0.76933   0.77540
 Alpha virt. eigenvalues --    0.77930   0.78570   0.78709   0.79118   0.79367
 Alpha virt. eigenvalues --    0.79722   0.79947   0.80642   0.80837   0.81335
 Alpha virt. eigenvalues --    0.81610   0.82130   0.82592   0.82940   0.83309
 Alpha virt. eigenvalues --    0.83805   0.83955   0.84334   0.84912   0.85421
 Alpha virt. eigenvalues --    0.85721   0.86035   0.86585   0.86671   0.87704
 Alpha virt. eigenvalues --    0.88310   0.88597   0.88692   0.89111   0.89445
 Alpha virt. eigenvalues --    0.90710   0.90898   0.91174   0.91819   0.92263
 Alpha virt. eigenvalues --    0.92845   0.93168   0.93573   0.93781   0.94392
 Alpha virt. eigenvalues --    0.94727   0.95375   0.95861   0.96058   0.96188
 Alpha virt. eigenvalues --    0.97129   0.97414   0.97771   0.98143   0.98396
 Alpha virt. eigenvalues --    0.99193   0.99230   1.00105   1.00235   1.00670
 Alpha virt. eigenvalues --    1.01296   1.01919   1.02377   1.02768   1.02909
 Alpha virt. eigenvalues --    1.03453   1.04494   1.04686   1.05175   1.06141
 Alpha virt. eigenvalues --    1.06321   1.06845   1.07243   1.07400   1.07915
 Alpha virt. eigenvalues --    1.08237   1.09659   1.10012   1.10560   1.11390
 Alpha virt. eigenvalues --    1.12146   1.12393   1.12686   1.13521   1.13815
 Alpha virt. eigenvalues --    1.14381   1.14782   1.15161   1.15566   1.15717
 Alpha virt. eigenvalues --    1.15951   1.17015   1.17389   1.17469   1.18149
 Alpha virt. eigenvalues --    1.18493   1.18693   1.19490   1.19579   1.19900
 Alpha virt. eigenvalues --    1.20471   1.20595   1.21250   1.21619   1.21992
 Alpha virt. eigenvalues --    1.22462   1.22770   1.22880   1.23451   1.23931
 Alpha virt. eigenvalues --    1.24323   1.24528   1.24739   1.25163   1.25561
 Alpha virt. eigenvalues --    1.26307   1.27470   1.27732   1.28104   1.28330
 Alpha virt. eigenvalues --    1.29356   1.30012   1.30624   1.30823   1.31018
 Alpha virt. eigenvalues --    1.31664   1.32187   1.33537   1.33930   1.35148
 Alpha virt. eigenvalues --    1.35500   1.36074   1.36626   1.37111   1.37453
 Alpha virt. eigenvalues --    1.39087   1.39249   1.39920   1.40416   1.40762
 Alpha virt. eigenvalues --    1.41665   1.42335   1.42565   1.44255   1.45522
 Alpha virt. eigenvalues --    1.45698   1.46314   1.46373   1.46667   1.48387
 Alpha virt. eigenvalues --    1.48983   1.49576   1.49845   1.50859   1.51108
 Alpha virt. eigenvalues --    1.51197   1.53145   1.53414   1.53687   1.53935
 Alpha virt. eigenvalues --    1.54850   1.55810   1.55910   1.57228   1.57983
 Alpha virt. eigenvalues --    1.58564   1.58947   1.59637   1.60024   1.61080
 Alpha virt. eigenvalues --    1.61352   1.62307   1.63462   1.63713   1.63911
 Alpha virt. eigenvalues --    1.64775   1.65190   1.65665   1.65953   1.66155
 Alpha virt. eigenvalues --    1.67187   1.68083   1.68416   1.68985   1.69413
 Alpha virt. eigenvalues --    1.70076   1.70229   1.70673   1.71194   1.71726
 Alpha virt. eigenvalues --    1.71957   1.72435   1.72974   1.73508   1.73720
 Alpha virt. eigenvalues --    1.74264   1.75181   1.75443   1.75786   1.75960
 Alpha virt. eigenvalues --    1.76254   1.76966   1.77362   1.77443   1.78008
 Alpha virt. eigenvalues --    1.78287   1.78777   1.78859   1.79077   1.79285
 Alpha virt. eigenvalues --    1.79698   1.80143   1.80389   1.80754   1.80876
 Alpha virt. eigenvalues --    1.81541   1.81963   1.82164   1.82960   1.83350
 Alpha virt. eigenvalues --    1.83444   1.84131   1.84595   1.84897   1.85183
 Alpha virt. eigenvalues --    1.85583   1.86166   1.86529   1.86841   1.87710
 Alpha virt. eigenvalues --    1.88126   1.88667   1.89022   1.89606   1.89852
 Alpha virt. eigenvalues --    1.90260   1.90713   1.91493   1.92452   1.92573
 Alpha virt. eigenvalues --    1.93094   1.93306   1.93676   1.93837   1.94218
 Alpha virt. eigenvalues --    1.94712   1.95918   1.96518   1.97167   1.97903
 Alpha virt. eigenvalues --    1.99096   1.99629   2.00454   2.01031   2.01806
 Alpha virt. eigenvalues --    2.02405   2.02723   2.03085   2.03891   2.04851
 Alpha virt. eigenvalues --    2.05606   2.06081   2.06945   2.07211   2.07710
 Alpha virt. eigenvalues --    2.07992   2.08780   2.09373   2.10173   2.10520
 Alpha virt. eigenvalues --    2.11258   2.11786   2.12526   2.12900   2.14427
 Alpha virt. eigenvalues --    2.15571   2.16853   2.17023   2.17501   2.18793
 Alpha virt. eigenvalues --    2.19244   2.19527   2.20422   2.21477   2.22056
 Alpha virt. eigenvalues --    2.22199   2.22741   2.23137   2.23296   2.24607
 Alpha virt. eigenvalues --    2.24854   2.25622   2.26181   2.26408   2.26943
 Alpha virt. eigenvalues --    2.27457   2.28463   2.28863   2.29309   2.29768
 Alpha virt. eigenvalues --    2.30155   2.31192   2.31453   2.31632   2.32277
 Alpha virt. eigenvalues --    2.32798   2.33179   2.33639   2.34066   2.34463
 Alpha virt. eigenvalues --    2.34777   2.35347   2.35990   2.36807   2.37367
 Alpha virt. eigenvalues --    2.38540   2.39859   2.40591   2.41325   2.41841
 Alpha virt. eigenvalues --    2.41863   2.43295   2.43519   2.43740   2.44742
 Alpha virt. eigenvalues --    2.45211   2.45560   2.46345   2.46739   2.47452
 Alpha virt. eigenvalues --    2.48085   2.49490   2.50036   2.50486   2.51709
 Alpha virt. eigenvalues --    2.52424   2.53881   2.54663   2.55132   2.56277
 Alpha virt. eigenvalues --    2.56564   2.57907   2.58470   2.59430   2.60223
 Alpha virt. eigenvalues --    2.61251   2.62227   2.62819   2.63174   2.64044
 Alpha virt. eigenvalues --    2.64630   2.65145   2.65573   2.65951   2.66265
 Alpha virt. eigenvalues --    2.67391   2.67692   2.68228   2.69058   2.69230
 Alpha virt. eigenvalues --    2.69614   2.70697   2.70807   2.72114   2.72834
 Alpha virt. eigenvalues --    2.73726   2.75186   2.75355   2.76109   2.76481
 Alpha virt. eigenvalues --    2.77367   2.78041   2.79290   2.79404   2.79476
 Alpha virt. eigenvalues --    2.79647   2.80823   2.81186   2.81419   2.82063
 Alpha virt. eigenvalues --    2.82161   2.82453   2.83144   2.83846   2.84302
 Alpha virt. eigenvalues --    2.85168   2.85333   2.86105   2.86347   2.86598
 Alpha virt. eigenvalues --    2.87228   2.88643   2.89165   2.91893   2.93463
 Alpha virt. eigenvalues --    2.93711   2.95917   2.96805   2.98625   2.99724
 Alpha virt. eigenvalues --    3.00355   3.01303   3.01993   3.04838   3.05778
 Alpha virt. eigenvalues --    3.07069   3.09918   3.11104   3.13212   3.15090
 Alpha virt. eigenvalues --    3.15455   3.15952   3.16475   3.17324   3.21101
 Alpha virt. eigenvalues --    3.21977   3.23554   3.24182   3.24393   3.26956
 Alpha virt. eigenvalues --    3.45624   3.47200   3.47792   3.49872   3.50810
 Alpha virt. eigenvalues --    3.53116   3.55505   3.56025   3.57695   3.60102
 Alpha virt. eigenvalues --    3.62723   3.70839   3.75163
          Condensed to atoms (all electrons):
 Mulliken charges:
               1
     1  N   -0.306605
     2  C    0.179259
     3  C    0.051497
     4  N   -0.237709
     5  C    0.125051
     6  H    0.023657
     7  N   -0.294358
     8  C    0.135500
     9  H    0.011155
    10  N   -0.289255
    11  C    0.235092
    12  C    0.089135
    13  N   -0.042282
    14  H    0.115155
    15  H    0.086547
    16  H    0.027783
    17  H    0.034558
    18  H    0.017895
    19  N   -0.305990
    20  C    0.260659
    21  C    0.182387
    22  N   -0.124589
    23  H    0.117802
    24  H    0.119090
    25  N   -0.311121
    26  C    0.249249
    27  N   -0.147234
    28  H    0.119059
    29  C    0.192575
    30  O   -0.326355
    31  C   -0.022304
    32  N   -0.212605
    33  C    0.121174
    34  H    0.018270
    35  H    0.021887
    36  H    0.032016
    37  H    0.024297
    38  H    0.046381
    39  H    0.060428
    40  H    0.076751
    41  H    0.020931
    42  C   -0.100060
    43  O   -0.285170
    44  C    0.154584
    45  H    0.129629
    46  N   -0.100987
    47  O   -0.348945
    48  C    0.338921
    49  H    0.044383
    50  C    0.179828
    51  C    0.044985
    52  N   -0.278320
    53  H    0.034615
    54  H    0.042323
    55  H    0.022396
    56  H    0.128758
    57  H    0.114314
    58  N   -0.030318
    59  C    0.062312
    60  C    0.231481
    61  N   -0.268283
    62  H    0.029653
    63  C    0.159330
    64  N   -0.295565
    65  H    0.034452
    66  C    0.120950
    67  N   -0.253349
    68  C    0.040793
    69  C    0.179283
    70  N   -0.306826
 Sum of Mulliken charges =  -0.00000
 Mulliken charges with hydrogens summed into heavy atoms:
               1
     1  N   -0.306605
     2  C    0.259495
     3  C    0.051497
     4  N   -0.237709
     5  C    0.148708
     7  N   -0.294358
     8  C    0.146655
    10  N   -0.289255
    11  C    0.235092
    12  C    0.089135
    13  N    0.159420
    19  N   -0.305990
    20  C    0.260659
    21  C    0.260587
    22  N    0.112303
    25  N   -0.311121
    26  C    0.249249
    27  N   -0.028175
    29  C    0.192575
    30  O   -0.326355
    31  C   -0.022304
    32  N   -0.212605
    33  C    0.139445
    42  C   -0.079130
    43  O   -0.285170
    44  C    0.154584
    46  N    0.028642
    47  O   -0.348945
    48  C    0.338921
    50  C    0.224211
    51  C    0.228546
    52  N   -0.278320
    58  N    0.212754
    59  C    0.062312
    60  C    0.231481
    61  N   -0.268283
    63  C    0.188983
    64  N   -0.295565
    66  C    0.155402
    67  N   -0.253349
    68  C    0.040793
    69  C    0.278618
    70  N   -0.306826
 Electronic spatial extent (au):  <R**2>=          22324.2444
 Charge=             -0.0000 electrons
 Dipole moment (field-independent basis, Debye):
    X=              5.3335    Y=              4.8717    Z=              5.8749  Tot=              9.3109
 Quadrupole moment (field-independent basis, Debye-Ang):
   XX=           -146.2353   YY=           -229.2704   ZZ=           -254.2288
   XY=              7.9091   XZ=              7.4044   YZ=             11.6975
 Traceless Quadrupole moment (field-independent basis, Debye-Ang):
   XX=             63.6761   YY=            -19.3589   ZZ=            -44.3173
   XY=              7.9091   XZ=              7.4044   YZ=             11.6975
 Octapole moment (field-independent basis, Debye-Ang**2):
  XXX=            -93.4203  YYY=             49.9193  ZZZ=             95.2416  XYY=              9.7957
  XXY=             70.8649  XXZ=             85.0823  XZZ=             98.4023  YZZ=             31.4798
  YYZ=              7.6841  XYZ=             13.5245
 Hexadecapole moment (field-independent basis, Debye-Ang**3):
 XXXX=         -16181.3250 YYYY=          -4418.0224 ZZZZ=          -3796.6256 XXXY=            506.5923
 XXXZ=            449.2298 YYYX=            -10.9834 YYYZ=            236.8165 ZZZX=            240.3983
 ZZZY=             99.3185 XXYY=          -3998.9751 XXZZ=          -3817.3057 YYZZ=          -1274.0591
 XXYZ=             62.6173 YYXZ=            -84.6655 ZZXY=            -31.7897
 N-N= 5.545471357410D+03 E-N=-1.587170368314D+04  KE= 2.037810837790D+03
 No NMR shielding tensors so no spin-rotation constants.
 Leave Link  601 at Thu Jan 18 22:54:15 2018, MaxMem=  4294967296 cpu:              47.6 elap:               1.7
 (Enter /share/apps/g16/l9999.exe)
 1\1\GINC-COMPUTE-0-3\SP\RwB97XD\CC-pVDZ\C23H27N17O3\SATYA\18-Jan-2018\
 0\\#p wb97xd/cc-pvdz sp scf=(maxcycles=20)\\Base pair stacking\\0,1\N,
 0,3.1386,4.42037,-6.13959\C,0,2.99898,5.83238,-6.54546\C,0,2.81548,2.2
 5975,-5.88532\N,0,3.96295,2.56752,-5.16886\C,0,4.11169,3.85689,-5.3507
 3\H,0,4.92115,4.45324,-4.92871\N,0,1.01356,1.09063,-6.85959\C,0,0.6325
 8,2.26282,-7.37767\H,0,-0.26956,2.23065,-7.98707\N,0,1.19603,3.46314,-
 7.25656\C,0,2.29616,3.3917,-6.48908\C,0,2.12453,1.05193,-6.0919\N,0,2.
 50643,-0.11723,-5.57385\H,0,3.32242,-0.19267,-4.99966\H,0,1.99022,-0.9
 5712,-5.74193\H,0,3.80993,6.11506,-7.05794\H,0,2.18887,5.93577,-7.1217
 9\H,0,2.90332,6.40709,-5.73272\N,0,0.31857,4.43772,-3.42994\C,0,-0.296
 06,3.21445,-3.54775\C,0,-0.30516,5.73987,-3.73985\N,0,-3.09054,1.31797
 ,-4.35767\H,0,-3.34731,0.35201,-4.37285\H,0,-3.78651,1.977,-4.64406\N,
 0,-1.56287,2.99824,-3.96307\C,0,-1.86809,1.71278,-3.97083\N,0,-1.00054
 ,0.71391,-3.60056\H,0,-1.32002,-0.24187,-3.63785\C,0,0.30741,0.91324,-
 3.16997\O,0,1.00798,-0.05786,-2.85866\C,0,0.6498,2.28927,-3.15633\N,0,
 1.8344,2.91904,-2.79996\C,0,1.59155,4.18933,-2.97774\H,0,2.30834,4.990
 3,-2.79354\H,0,0.21395,6.19668,-4.46142\H,0,-1.24389,5.59234,-4.04856\
 H,0,-0.31094,6.31201,-2.92044\H,0,-3.30019,-4.81269,-4.65729\H,0,-3.62
 966,-4.82573,-2.92642\H,0,-3.63834,-3.3011,-3.81342\H,0,1.06037,-5.898
 15,-2.93862\C,0,0.41245,-5.02936,-3.0554\O,0,2.15323,-3.45488,-2.71219
 \C,0,0.9724,-3.7176,-2.93894\H,0,0.42477,-1.74772,-3.02833\N,0,0.06643
 ,-2.68934,-3.10364\O,0,-2.00028,-1.8313,-3.49055\C,0,-1.27699,-2.80317
 ,-3.36021\H,0,-1.36904,-6.14799,-3.40293\C,0,-0.89434,-5.17257,-3.3052
 3\C,0,-3.17137,-4.27136,-3.73185\N,0,-1.74183,-4.09989,-3.45846\H,0,-3
 .37917,-5.23538,-8.69475\H,0,-3.54564,-3.82375,-7.89369\H,0,-4.07055,-
 5.21304,-7.21661\H,0,2.82325,-3.7197,-4.91346\H,0,2.25418,-5.30964,-5.
 15501\N,0,2.09876,-4.32511,-5.24319\C,0,0.97493,-3.84207,-5.77691\C,0,
 -1.17605,-4.00293,-6.78146\N,0,-1.35753,-2.67617,-6.8872\H,0,-0.36857,
 -0.93471,-6.45142\C,0,-0.30387,-2.02092,-6.40414\N,0,0.82266,-2.5029,-
 5.86916\H,0,-1.88508,-7.14451,-7.06426\C,0,-1.41707,-6.18103,-6.86022\
 N,0,-0.23741,-6.02715,-6.31032\C,0,-0.07233,-4.65078,-6.25457\C,0,-3.3
 6493,-4.80175,-7.79378\N,0,-2.04137,-4.99766,-7.17103\\Version=EM64L-G
 16RevA.03\State=1-A\HF=-2048.7402979\RMSD=7.078e-09\Dipole=-3.352947,-
 1.1267959,-0.952417\Quadrupole=-2.2582337,37.4139745,-35.1557408,23.38
 50183,-3.3228439,5.4041825\PG=C01 [X(C23H27N17O3)]\\@


 PICNIC:  A SNACK IN THE GRASS.
 Job cpu time:       0 days  6 hours  4 minutes 27.8 seconds.
 Elapsed time:       0 days  0 hours 11 minutes 49.4 seconds.
 File lengths (MBytes):  RWF=    298 Int=      0 D2E=      0 Chk=     33 Scr=      1
 Normal termination of Gaussian 16 at Thu Jan 18 22:54:15 2018.
