 Entering Gaussian System, Link 0=g16
 Input=str15.-15.-2.0.com
 Output=str15.-15.-2.0.log
 Initial command:
 /share/apps/g16/l1.exe "/state/partition1/scr/Gau-20539.inp" -scrdir="/state/partition1/scr/"
 Entering Link 1 = /share/apps/g16/l1.exe PID=     20540.
  
 Copyright (c) 1988,1990,1992,1993,1995,1998,2003,2009,2016,
            Gaussian, Inc.  All Rights Reserved.
  
 This is part of the Gaussian(R) 16 program.  It is based on
 the Gaussian(R) 09 system (copyright 2009, Gaussian, Inc.),
 the Gaussian(R) 03 system (copyright 2003, Gaussian, Inc.),
 the Gaussian(R) 98 system (copyright 1998, Gaussian, Inc.),
 the Gaussian(R) 94 system (copyright 1995, Gaussian, Inc.),
 the Gaussian 92(TM) system (copyright 1992, Gaussian, Inc.),
 the Gaussian 90(TM) system (copyright 1990, Gaussian, Inc.),
 the Gaussian 88(TM) system (copyright 1988, Gaussian, Inc.),
 the Gaussian 86(TM) system (copyright 1986, Carnegie Mellon
 University), and the Gaussian 82(TM) system (copyright 1983,
 Carnegie Mellon University). Gaussian is a federally registered
 trademark of Gaussian, Inc.
  
 This software contains proprietary and confidential information,
 including trade secrets, belonging to Gaussian, Inc.
  
 This software is provided under written license and may be
 used, copied, transmitted, or stored only in accord with that
 written license.
  
 The following legend is applicable only to US Government
 contracts under FAR:
  
                    RESTRICTED RIGHTS LEGEND
  
 Use, reproduction and disclosure by the US Government is
 subject to restrictions as set forth in subparagraphs (a)
 and (c) of the Commercial Computer Software - Restricted
 Rights clause in FAR 52.227-19.
  
 Gaussian, Inc.
 340 Quinnipiac St., Bldg. 40, Wallingford CT 06492
  
  
 ---------------------------------------------------------------
 Warning -- This program may not be used in any manner that
 competes with the business of Gaussian, Inc. or will provide
 assistance to any competitor of Gaussian, Inc.  The licensee
 of this program is prohibited from giving any competitor of
 Gaussian, Inc. access to this program.  By using this program,
 the user acknowledges that Gaussian, Inc. is engaged in the
 business of creating and licensing software in the field of
 computational chemistry and represents and warrants to the
 licensee that it is not a competitor of Gaussian, Inc. and that
 it will not use this program in any manner prohibited above.
 ---------------------------------------------------------------
  

 Cite this work as:
 Gaussian 16, Revision A.03,
 M. J. Frisch, G. W. Trucks, H. B. Schlegel, G. E. Scuseria, 
 M. A. Robb, J. R. Cheeseman, G. Scalmani, V. Barone, 
 G. A. Petersson, H. Nakatsuji, X. Li, M. Caricato, A. V. Marenich, 
 J. Bloino, B. G. Janesko, R. Gomperts, B. Mennucci, H. P. Hratchian, 
 J. V. Ortiz, A. F. Izmaylov, J. L. Sonnenberg, D. Williams-Young, 
 F. Ding, F. Lipparini, F. Egidi, J. Goings, B. Peng, A. Petrone, 
 T. Henderson, D. Ranasinghe, V. G. Zakrzewski, J. Gao, N. Rega, 
 G. Zheng, W. Liang, M. Hada, M. Ehara, K. Toyota, R. Fukuda, 
 J. Hasegawa, M. Ishida, T. Nakajima, Y. Honda, O. Kitao, H. Nakai, 
 T. Vreven, K. Throssell, J. A. Montgomery, Jr., J. E. Peralta, 
 F. Ogliaro, M. J. Bearpark, J. J. Heyd, E. N. Brothers, K. N. Kudin, 
 V. N. Staroverov, T. A. Keith, R. Kobayashi, J. Normand, 
 K. Raghavachari, A. P. Rendell, J. C. Burant, S. S. Iyengar, 
 J. Tomasi, M. Cossi, J. M. Millam, M. Klene, C. Adamo, R. Cammi, 
 J. W. Ochterski, R. L. Martin, K. Morokuma, O. Farkas, 
 J. B. Foresman, and D. J. Fox, Gaussian, Inc., Wallingford CT, 2016.
 
 ******************************************
 Gaussian 16:  EM64L-G16RevA.03 25-Dec-2016
                19-Jan-2018 
 ******************************************
 %nprocshared=32
 Will use up to   32 processors via shared memory.
 %mem=32GB
 %chk=allatoms_t.chk
 ---------------------------------------
 #p wb97xd/cc-pvdz sp scf=(maxcycles=20)
 ---------------------------------------
 1/38=1,172=1/1;
 2/12=2,17=6,18=5,40=1/2;
 3/5=16,11=2,25=1,30=1,74=-58/1,2,3;
 4//1;
 5/5=2,7=20,38=5/2;
 6/7=2,8=2,9=2,10=2,28=1/1;
 99/5=1,9=1/99;
 Leave Link    1 at Fri Jan 19 00:32:55 2018, MaxMem=  4294967296 cpu:               2.7 elap:               0.1
 (Enter /share/apps/g16/l101.exe)
 ------------------
 Base pair stacking
 ------------------
 Symbolic Z-matrix:
 Charge =  0 Multiplicity = 1
 N                     1.04416   9.6343   -6.48255 
 C                     0.80715   11.07311  -6.25525 
 C                     0.80891   7.44951  -6.57572 
 N                     2.0694    7.72619  -7.08499 
 C                     2.16068   9.03137  -7.00847 
 H                     3.02796   9.61181  -7.32446 
 N                    -1.13088   6.31832  -5.85423 
 C                    -1.62293   7.52106  -5.53977 
 H                    -2.62603   7.51667  -5.11546 
 N                    -1.06454   8.72277  -5.67016 
 C                     0.16509   8.61571  -6.20023 
 C                     0.10892   6.24418  -6.3857 
 N                     0.60183   5.04448  -6.70024 
 H                     1.51516   4.94226  -7.09596 
 H                     0.07526   4.20744  -6.55115 
 H                     0.86408   11.5632  -7.12515 
 H                    -0.10126   11.20354  -5.85912 
 H                     1.49754   11.43159  -5.62688 
 N                    -0.23947   6.90255  -3.08028 
 C                    -0.85345   5.67918  -2.96 
 C                    -0.91246   8.21124  -2.95734 
 N                    -3.71689   3.79186  -2.41185 
 H                    -3.96447   2.82468  -2.36176 
 H                    -4.45224   4.45612  -2.27495 
 N                    -2.16415   5.4688   -2.71129 
 C                    -2.45575   4.18154  -2.65179 
 N                    -1.53563   3.17568  -2.82251 
 H                    -1.8485    2.21903  -2.7601 
 C                    -0.1819    3.36894  -3.07931 
 O                     0.56434   2.39178  -3.21723 
 C                     0.14649   4.74683  -3.14607 
 N                     1.36374   5.37227  -3.3785 
 C                     1.08674   6.64709  -3.33037 
 H                     1.81505   7.44653  -3.47086 
 H                    -0.80784   8.72306  -3.80934 
 H                    -1.88395   8.06805  -2.77304 
 H                    -0.50443   8.72845  -2.2058 
 H                    -4.15229  -2.30883  -2.96921 
 H                    -3.58754  -2.44056  -1.30537 
 H                    -4.00534  -0.86163  -1.97152 
 H                     0.47011  -3.42905  -3.69388 
 C                    -0.13635  -2.56577  -3.41968 
 O                     1.57477  -0.98735  -3.87551 
 C                     0.43091  -1.25497  -3.50845 
 H                    -0.05584   0.70683  -3.18791 
 N                    -0.42099  -0.23389  -3.13844 
 O                    -2.39544   0.61191  -2.4013 
 C                    -1.71848  -0.35381  -2.70754 
 H                    -1.87718  -3.68979  -2.9178 
 C                    -1.39914  -2.71481  -3.00286 
 C                    -3.57546  -1.82697  -2.19387 
 N                    -2.19373  -1.64915  -2.64878 
 H                    -5.84455   0.0806   -4.60744 
 H                    -5.09893   1.24132  -3.7363 
 H                    -4.99994  -0.31958  -3.26956 
 H                     0.8749    1.45405  -7.44085 
 H                     0.16557  -0.09731  -7.45643 
 N                     0.12941   0.85441  -7.14959 
 C                    -0.86901   1.30295  -6.38596 
 C                    -2.90053   1.10923  -5.16238 
 N                    -2.92306   2.39227  -4.76525 
 H                    -1.80382   4.09789  -4.96218 
 C                    -1.86389   3.04601  -5.23822 
 N                    -0.86282   2.59853  -6.0032 
 H                    -3.91321  -1.94881  -5.43629 
 C                    -3.36807  -1.00656  -5.49893 
 N                    -2.24663  -0.83665  -6.15557 
 C                    -1.93923   0.50056  -5.95039 
 C                    -5.03837   0.29638  -4.05652 
 N                    -3.82107   0.1297   -4.87408 
 
 ITRead=  0  0  0  0  0  0  0  0  0  0  0  0  0  0  0  0  0  0  0  0
 ITRead=  0  0  0  0  0  0  0  0  0  0  0  0  0  0  0  0  0  0  0  0
 ITRead=  0  0  0  0  0  0  0  0  0  0  0  0  0  0  0  0  0  0  0  0
 ITRead=  0  0  0  0  0  0  0  0  0  0
 MicOpt= -1 -1 -1 -1 -1 -1 -1 -1 -1 -1 -1 -1 -1 -1 -1 -1 -1 -1 -1 -1
 MicOpt= -1 -1 -1 -1 -1 -1 -1 -1 -1 -1 -1 -1 -1 -1 -1 -1 -1 -1 -1 -1
 MicOpt= -1 -1 -1 -1 -1 -1 -1 -1 -1 -1 -1 -1 -1 -1 -1 -1 -1 -1 -1 -1
 MicOpt= -1 -1 -1 -1 -1 -1 -1 -1 -1 -1
 NAtoms=     70 NQM=       70 NQMF=       0 NMMI=      0 NMMIF=      0
                NMic=       0 NMicF=      0.
                    Isotopes and Nuclear Properties:
 (Nuclear quadrupole moments (NQMom) in fm**2, nuclear magnetic moments (NMagM)
  in nuclear magnetons)

  Atom         1           2           3           4           5           6           7           8           9          10
 IAtWgt=          14          12          12          14          12           1          14          12           1          14
 AtmWgt=  14.0030740  12.0000000  12.0000000  14.0030740  12.0000000   1.0078250  14.0030740  12.0000000   1.0078250  14.0030740
 NucSpn=           2           0           0           2           0           1           2           0           1           2
 AtZEff=  -0.0000000  -0.0000000  -0.0000000  -0.0000000  -0.0000000  -0.0000000  -0.0000000  -0.0000000  -0.0000000  -0.0000000
 NQMom=    2.0440000   0.0000000   0.0000000   2.0440000   0.0000000   0.0000000   2.0440000   0.0000000   0.0000000   2.0440000
 NMagM=    0.4037610   0.0000000   0.0000000   0.4037610   0.0000000   2.7928460   0.4037610   0.0000000   2.7928460   0.4037610
 AtZNuc=   7.0000000   6.0000000   6.0000000   7.0000000   6.0000000   1.0000000   7.0000000   6.0000000   1.0000000   7.0000000

  Atom        11          12          13          14          15          16          17          18          19          20
 IAtWgt=          12          12          14           1           1           1           1           1          14          12
 AtmWgt=  12.0000000  12.0000000  14.0030740   1.0078250   1.0078250   1.0078250   1.0078250   1.0078250  14.0030740  12.0000000
 NucSpn=           0           0           2           1           1           1           1           1           2           0
 AtZEff=  -0.0000000  -0.0000000  -0.0000000  -0.0000000  -0.0000000  -0.0000000  -0.0000000  -0.0000000  -0.0000000  -0.0000000
 NQMom=    0.0000000   0.0000000   2.0440000   0.0000000   0.0000000   0.0000000   0.0000000   0.0000000   2.0440000   0.0000000
 NMagM=    0.0000000   0.0000000   0.4037610   2.7928460   2.7928460   2.7928460   2.7928460   2.7928460   0.4037610   0.0000000
 AtZNuc=   6.0000000   6.0000000   7.0000000   1.0000000   1.0000000   1.0000000   1.0000000   1.0000000   7.0000000   6.0000000

  Atom        21          22          23          24          25          26          27          28          29          30
 IAtWgt=          12          14           1           1          14          12          14           1          12          16
 AtmWgt=  12.0000000  14.0030740   1.0078250   1.0078250  14.0030740  12.0000000  14.0030740   1.0078250  12.0000000  15.9949146
 NucSpn=           0           2           1           1           2           0           2           1           0           0
 AtZEff=  -0.0000000  -0.0000000  -0.0000000  -0.0000000  -0.0000000  -0.0000000  -0.0000000  -0.0000000  -0.0000000  -0.0000000
 NQMom=    0.0000000   2.0440000   0.0000000   0.0000000   2.0440000   0.0000000   2.0440000   0.0000000   0.0000000   0.0000000
 NMagM=    0.0000000   0.4037610   2.7928460   2.7928460   0.4037610   0.0000000   0.4037610   2.7928460   0.0000000   0.0000000
 AtZNuc=   6.0000000   7.0000000   1.0000000   1.0000000   7.0000000   6.0000000   7.0000000   1.0000000   6.0000000   8.0000000

  Atom        31          32          33          34          35          36          37          38          39          40
 IAtWgt=          12          14          12           1           1           1           1           1           1           1
 AtmWgt=  12.0000000  14.0030740  12.0000000   1.0078250   1.0078250   1.0078250   1.0078250   1.0078250   1.0078250   1.0078250
 NucSpn=           0           2           0           1           1           1           1           1           1           1
 AtZEff=  -0.0000000  -0.0000000  -0.0000000  -0.0000000  -0.0000000  -0.0000000  -0.0000000  -0.0000000  -0.0000000  -0.0000000
 NQMom=    0.0000000   2.0440000   0.0000000   0.0000000   0.0000000   0.0000000   0.0000000   0.0000000   0.0000000   0.0000000
 NMagM=    0.0000000   0.4037610   0.0000000   2.7928460   2.7928460   2.7928460   2.7928460   2.7928460   2.7928460   2.7928460
 AtZNuc=   6.0000000   7.0000000   6.0000000   1.0000000   1.0000000   1.0000000   1.0000000   1.0000000   1.0000000   1.0000000

  Atom        41          42          43          44          45          46          47          48          49          50
 IAtWgt=           1          12          16          12           1          14          16          12           1          12
 AtmWgt=   1.0078250  12.0000000  15.9949146  12.0000000   1.0078250  14.0030740  15.9949146  12.0000000   1.0078250  12.0000000
 NucSpn=           1           0           0           0           1           2           0           0           1           0
 AtZEff=  -0.0000000  -0.0000000  -0.0000000  -0.0000000  -0.0000000  -0.0000000  -0.0000000  -0.0000000  -0.0000000  -0.0000000
 NQMom=    0.0000000   0.0000000   0.0000000   0.0000000   0.0000000   2.0440000   0.0000000   0.0000000   0.0000000   0.0000000
 NMagM=    2.7928460   0.0000000   0.0000000   0.0000000   2.7928460   0.4037610   0.0000000   0.0000000   2.7928460   0.0000000
 AtZNuc=   1.0000000   6.0000000   8.0000000   6.0000000   1.0000000   7.0000000   8.0000000   6.0000000   1.0000000   6.0000000

  Atom        51          52          53          54          55          56          57          58          59          60
 IAtWgt=          12          14           1           1           1           1           1          14          12          12
 AtmWgt=  12.0000000  14.0030740   1.0078250   1.0078250   1.0078250   1.0078250   1.0078250  14.0030740  12.0000000  12.0000000
 NucSpn=           0           2           1           1           1           1           1           2           0           0
 AtZEff=  -0.0000000  -0.0000000  -0.0000000  -0.0000000  -0.0000000  -0.0000000  -0.0000000  -0.0000000  -0.0000000  -0.0000000
 NQMom=    0.0000000   2.0440000   0.0000000   0.0000000   0.0000000   0.0000000   0.0000000   2.0440000   0.0000000   0.0000000
 NMagM=    0.0000000   0.4037610   2.7928460   2.7928460   2.7928460   2.7928460   2.7928460   0.4037610   0.0000000   0.0000000
 AtZNuc=   6.0000000   7.0000000   1.0000000   1.0000000   1.0000000   1.0000000   1.0000000   7.0000000   6.0000000   6.0000000

  Atom        61          62          63          64          65          66          67          68          69          70
 IAtWgt=          14           1          12          14           1          12          14          12          12          14
 AtmWgt=  14.0030740   1.0078250  12.0000000  14.0030740   1.0078250  12.0000000  14.0030740  12.0000000  12.0000000  14.0030740
 NucSpn=           2           1           0           2           1           0           2           0           0           2
 AtZEff=  -0.0000000  -0.0000000  -0.0000000  -0.0000000  -0.0000000  -0.0000000  -0.0000000  -0.0000000  -0.0000000  -0.0000000
 NQMom=    2.0440000   0.0000000   0.0000000   2.0440000   0.0000000   0.0000000   2.0440000   0.0000000   0.0000000   2.0440000
 NMagM=    0.4037610   2.7928460   0.0000000   0.4037610   2.7928460   0.0000000   0.4037610   0.0000000   0.0000000   0.4037610
 AtZNuc=   7.0000000   1.0000000   6.0000000   7.0000000   1.0000000   6.0000000   7.0000000   6.0000000   6.0000000   7.0000000
 Leave Link  101 at Fri Jan 19 00:32:55 2018, MaxMem=  4294967296 cpu:               7.8 elap:               0.3
 (Enter /share/apps/g16/l202.exe)
 Stoichiometry    C23H27N17O3
 Framework group  C1[X(C23H27N17O3)]
 Deg. of freedom   204
 Full point group                 C1      NOp   1
 Largest Abelian subgroup         C1      NOp   1
 Largest concise Abelian subgroup C1      NOp   1
                         Standard orientation:                         
 ---------------------------------------------------------------------
 Center     Atomic      Atomic             Coordinates (Angstroms)
 Number     Number       Type             X           Y           Z
 ---------------------------------------------------------------------
      1          7           0        6.808873   -0.760507   -0.350152
      2          6           0        8.073469   -0.000386   -0.382171
      3          6           0        4.691667   -1.334839   -0.507987
      4          7           0        5.367073   -2.461266   -0.061072
      5          6           0        6.615577   -2.070165    0.016135
      6          1           0        7.444394   -2.701740    0.337242
      7          7           0        2.993827    0.139199   -1.220360
      8          6           0        3.953664    1.061004   -1.349083
      9          1           0        3.617604    2.036778   -1.697216
     10          7           0        5.260172    0.958904   -1.113453
     11          6           0        5.567171   -0.278595   -0.690637
     12          6           0        3.334920   -1.096101   -0.792866
     13          7           0        2.378203   -2.017616   -0.663727
     14          1           0        2.585043   -2.945138   -0.350463
     15          1           0        1.422621   -1.812399   -0.875598
     16          1           0        8.714049   -0.442750   -1.009966
     17          1           0        7.894588    0.932721   -0.692741
     18          1           0        8.472287    0.025914    0.534479
     19          7           0        3.261392    1.462981    1.426666
     20          6           0        1.922134    1.591036    1.147272
     21          6           0        4.311518    2.423046    1.031431
     22          7           0       -0.695211    3.369461   -0.283967
     23          1           0       -1.685596    3.274497   -0.380717
     24          1           0       -0.275462    4.181606   -0.690112
     25          7           0        1.345153    2.607257    0.470191
     26          6           0        0.037913    2.449591    0.361219
     27          7           0       -0.653325    1.379331    0.875276
     28          1           0       -1.652485    1.341489    0.744094
     29          6           0       -0.080234    0.322311    1.575387
     30          8           0       -0.794216   -0.595625    1.997717
     31          6           0        1.323718    0.477667    1.700524
     32          7           0        2.268273   -0.333060    2.314880
     33          6           0        3.400123    0.289843    2.127479
     34          1           0        4.369386   -0.063681    2.480788
     35          1           0        4.981480    1.965282    0.447982
     36          1           0        3.895971    3.180211    0.529151
     37          1           0        4.766974    2.776225    1.847905
     38          1           0       -6.496294    1.420139   -0.799932
     39          1           0       -6.786128    2.042780    0.822713
     40          1           0       -5.269052    2.403916   -0.001541
     41          1           0       -6.258204   -2.646559    1.759736
     42          6           0       -5.642237   -1.775604    1.535560
     43          8           0       -3.626521   -2.779808    2.280937
     44          6           0       -4.237572   -1.823419    1.804800
     45          1           0       -2.556613   -0.665015    1.660551
     46          7           0       -3.551464   -0.669331    1.484517
     47          8           0       -3.383336    1.454948    0.699417
     48          6           0       -4.072858    0.481991    0.949594
     49          1           0       -7.242410   -0.579552    0.790780
     50          6           0       -6.179917   -0.666774    1.014038
     51          6           0       -6.036152    1.658607    0.147421
     52          7           0       -5.434044    0.450677    0.718481
     53          1           0       -4.351902    2.311205   -3.221604
     54          1           0       -3.222070    2.703382   -2.111747
     55          1           0       -4.765740    2.445182   -1.648639
     56          1           0       -0.825903   -3.800835   -0.924674
     57          1           0       -2.475657   -3.794468   -1.358703
     58          7           0       -1.637609   -3.276791   -1.182874
     59          6           0       -1.605021   -1.946759   -1.288302
     60          6           0       -2.528468    0.204210   -1.715300
     61          7           0       -1.388993    0.873094   -1.473223
     62          1           0        0.550120    0.490523   -0.930915
     63          6           0       -0.413062    0.029067   -1.144447
     64          7           0       -0.443724   -1.303362   -1.038303
     65          1           0       -5.638094   -0.209919   -2.496888
     66          6           0       -4.593872   -0.340291   -2.211337
     67          7           0       -4.027777   -1.496060   -1.963526
     68          6           0       -2.718013   -1.165114   -1.647749
     69          6           0       -4.045040    2.162097   -2.281603
     70          7           0       -3.744658    0.731311   -2.080040
 ---------------------------------------------------------------------
 Rotational constants (GHZ):           0.1923268           0.0495523           0.0475001
 Leave Link  202 at Fri Jan 19 00:32:55 2018, MaxMem=  4294967296 cpu:               0.4 elap:               0.0
 (Enter /share/apps/g16/l301.exe)
 Standard basis: CC-pVDZ (5D, 7F)
 Ernie: Thresh=  0.10000D-02 Tol=  0.10000D-05 Strict=F.
 Ernie:  86 primitive shells out of 1081 were deleted.
 There are   780 symmetry adapted cartesian basis functions of A   symmetry.
 There are   737 symmetry adapted basis functions of A   symmetry.
   737 basis functions,  1608 primitive gaussians,   780 cartesian basis functions
   154 alpha electrons      154 beta electrons
       nuclear repulsion energy      5604.3825075973 Hartrees.
 IExCor= 4639 DFT=T Ex+Corr=wB97XD ExCW=0 ScaHFX=  1.000000
 ScaDFX=  1.000000  1.000000  1.000000  1.000000 ScalE2=  1.000000  1.000000
 IRadAn=      5 IRanWt=     -1 IRanGd=            0 ICorTp=0 IEmpDi=121
 HFx  wShort=  0.000000 wLong=  0.200000 cFull=  0.222036 cShort=  0.000000 cLong=  0.777964
 DFx  wShort=  0.000000 wLong=  0.200000 cFull=  0.000000 cShort=  0.000000 cLong=  1.000000
 NAtoms=   70 NActive=   70 NUniq=   70 SFac= 1.00D+00 NAtFMM=   60 NAOKFM=T Big=T
 Integral buffers will be    131072 words long.
 Raffenetti 2 integral format.
 Two-electron integral symmetry is turned on.
 R6Disp:  Grimme-D2 Dispersion energy=       -0.0795271050 Hartrees.
 Nuclear repulsion after empirical dispersion term =     5604.3029804923 Hartrees.
 Leave Link  301 at Fri Jan 19 00:32:55 2018, MaxMem=  4294967296 cpu:               3.0 elap:               0.1
 (Enter /share/apps/g16/l302.exe)
 NPDir=0 NMtPBC=     1 NCelOv=     1 NCel=       1 NClECP=     1 NCelD=      1
         NCelK=      1 NCelE2=     1 NClLst=     1 CellRange=     0.0.
 One-electron integrals computed using PRISM.
 One-electron integral symmetry used in STVInt
 NBasis=   737 RedAO= T EigKep=  6.76D-04  NBF=   737
 NBsUse=   737 1.00D-06 EigRej= -1.00D+00 NBFU=   737
 Precomputing XC quadrature grid using
 IXCGrd= 4 IRadAn=           5 IRanWt=          -1 IRanGd=           0 AccXCQ= 0.00D+00.
 Generated NRdTot=       0 NPtTot=           0 NUsed=           0 NTot=          32
 NSgBfM=   760   760   760   760   760 MxSgAt=    70 MxSgA2=    70.
 Leave Link  302 at Fri Jan 19 00:33:00 2018, MaxMem=  4294967296 cpu:             138.1 elap:               4.4
 (Enter /share/apps/g16/l303.exe)
 DipDrv:  MaxL=1.
 Leave Link  303 at Fri Jan 19 00:33:00 2018, MaxMem=  4294967296 cpu:              12.5 elap:               0.4
 (Enter /share/apps/g16/l401.exe)
 ExpMin= 1.22D-01 ExpMax= 1.17D+04 ExpMxC= 4.01D+02 IAcc=3 IRadAn=         5 AccDes= 0.00D+00
 Harris functional with IExCor= 4639 and IRadAn=       5 diagonalized for initial guess.
 HarFok:  IExCor= 4639 AccDes= 0.00D+00 IRadAn=         5 IDoV= 1 UseB2=F ITyADJ=14
 ICtDFT=  3500011 ScaDFX=  1.000000  1.000000  1.000000  1.000000
 FoFCou: FMM=F IPFlag=           0 FMFlag=      100000 FMFlg1=        2001
         NFxFlg=           0 DoJE=T BraDBF=F KetDBF=T FulRan=T
         wScrn=  0.000000 ICntrl=       500 IOpCl=  0 I1Cent=   200000004 NGrid=           0
         NMat0=    1 NMatS0=      1 NMatT0=    0 NMatD0=    1 NMtDS0=    0 NMtDT0=    0
 Petite list used in FoFCou.
 Harris En= -1963.82446100830    
 JPrj=0 DoOrth=F DoCkMO=F.
 Leave Link  401 at Fri Jan 19 00:33:13 2018, MaxMem=  4294967296 cpu:             411.2 elap:              12.9
 (Enter /share/apps/g16/l502.exe)
 Integral symmetry usage will be decided dynamically.
 Closed shell SCF:
 Using DIIS extrapolation, IDIIS=  1040.
 NGot=  4294967296 LenX=  4293717438 LenY=  4293108258
 Requested convergence on RMS density matrix=1.00D-08 within  20 cycles.
 Requested convergence on MAX density matrix=1.00D-06.
 Requested convergence on             energy=1.00D-06.
 No special actions if energy rises.
 Fock matrices will be formed incrementally for  20 cycles.
 Integral accuracy reduced to 1.0D-05 until final iterations.

 Cycle   1  Pass 0  IDiag  1:
 FoFJK:  IHMeth= 1 ICntrl=       0 DoSepK=T KAlg= 0 I1Cent=           0 FoldK=F
 IRaf=         1 NMat=       1 IRICut=       1 DoRegI=T DoRafI=F ISym2E= 0 IDoP0=0 IntGTp=1.
 FoFCou: FMM=T IPFlag=           0 FMFlag=      100000 FMFlg1=        2001
         NFxFlg=           0 DoJE=T BraDBF=F KetDBF=F FulRan=T
         wScrn=  0.000000 ICntrl=       500 IOpCl=  0 I1Cent=           0 NGrid=           0
         NMat0=    1 NMatS0=      1 NMatT0=    0 NMatD0=    1 NMtDS0=    0 NMtDT0=    0
 Symmetry not used in FoFCou.
 FMM levels:  10  Number of levels for PrismC:   9
 E= -2048.26649174573    
 DIIS: error= 2.23D-02 at cycle   1 NSaved=   1.
 NSaved= 1 IEnMin= 1 EnMin= -2048.26649174573     IErMin= 1 ErrMin= 2.23D-02
 ErrMax= 2.23D-02  0.00D+00 EMaxC= 1.00D-01 BMatC= 8.37D-01 BMatP= 8.37D-01
 IDIUse=3 WtCom= 7.77D-01 WtEn= 2.23D-01
 Coeff-Com:  0.100D+01
 Coeff-En:   0.100D+01
 Coeff:      0.100D+01
 Gap=     0.248 Goal=   None    Shift=    0.000
 GapD=    0.248 DampG=1.000 DampE=0.500 DampFc=0.5000 IDamp=-1.
 Damping current iteration by 5.00D-01
 RMSDP=1.63D-03 MaxDP=1.28D-01              OVMax= 2.17D-01

 Cycle   2  Pass 0  IDiag  1:
 RMSU=  8.15D-04    CP:  9.97D-01
 E= -2048.46387068221     Delta-E=       -0.197378936487 Rises=F Damp=T
 DIIS: error= 1.08D-02 at cycle   2 NSaved=   2.
 NSaved= 2 IEnMin= 2 EnMin= -2048.46387068221     IErMin= 2 ErrMin= 1.08D-02
 ErrMax= 1.08D-02  0.00D+00 EMaxC= 1.00D-01 BMatC= 1.46D-01 BMatP= 8.37D-01
 IDIUse=3 WtCom= 8.92D-01 WtEn= 1.08D-01
 Coeff-Com: -0.183D+00 0.118D+01
 Coeff-En:   0.000D+00 0.100D+01
 Coeff:     -0.164D+00 0.116D+01
 Gap=     0.363 Goal=   None    Shift=    0.000
 RMSDP=6.12D-04 MaxDP=3.50D-02 DE=-1.97D-01 OVMax= 1.49D-01

 Cycle   3  Pass 0  IDiag  1:
 RMSU=  6.04D-04    CP:  9.93D-01  1.11D+00
 E= -2048.64312300687     Delta-E=       -0.179252324661 Rises=F Damp=F
 DIIS: error= 6.69D-03 at cycle   3 NSaved=   3.
 NSaved= 3 IEnMin= 3 EnMin= -2048.64312300687     IErMin= 3 ErrMin= 6.69D-03
 ErrMax= 6.69D-03  0.00D+00 EMaxC= 1.00D-01 BMatC= 6.90D-02 BMatP= 1.46D-01
 IDIUse=3 WtCom= 9.33D-01 WtEn= 6.69D-02
 Coeff-Com: -0.233D+00 0.557D+00 0.675D+00
 Coeff-En:   0.000D+00 0.000D+00 0.100D+01
 Coeff:     -0.217D+00 0.520D+00 0.697D+00
 Gap=     0.274 Goal=   None    Shift=    0.000
 RMSDP=3.82D-04 MaxDP=3.29D-02 DE=-1.79D-01 OVMax= 6.67D-02

 Cycle   4  Pass 0  IDiag  1:
 RMSU=  2.12D-04    CP:  9.94D-01  1.41D+00  6.58D-01
 E= -2048.69597140970     Delta-E=       -0.052848402823 Rises=F Damp=F
 DIIS: error= 3.26D-03 at cycle   4 NSaved=   4.
 NSaved= 4 IEnMin= 4 EnMin= -2048.69597140970     IErMin= 4 ErrMin= 3.26D-03
 ErrMax= 3.26D-03  0.00D+00 EMaxC= 1.00D-01 BMatC= 9.51D-03 BMatP= 6.90D-02
 IDIUse=3 WtCom= 9.67D-01 WtEn= 3.26D-02
 Coeff-Com: -0.968D-01 0.187D+00 0.372D+00 0.537D+00
 Coeff-En:   0.000D+00 0.000D+00 0.610D-01 0.939D+00
 Coeff:     -0.936D-01 0.181D+00 0.362D+00 0.550D+00
 Gap=     0.280 Goal=   None    Shift=    0.000
 RMSDP=1.33D-04 MaxDP=1.23D-02 DE=-5.28D-02 OVMax= 1.56D-02

 Cycle   5  Pass 0  IDiag  1:
 RMSU=  6.31D-05    CP:  9.93D-01  1.38D+00  7.95D-01  6.20D-01
 E= -2048.70394558757     Delta-E=       -0.007974177869 Rises=F Damp=F
 DIIS: error= 5.12D-04 at cycle   5 NSaved=   5.
 NSaved= 5 IEnMin= 5 EnMin= -2048.70394558757     IErMin= 5 ErrMin= 5.12D-04
 ErrMax= 5.12D-04  0.00D+00 EMaxC= 1.00D-01 BMatC= 2.99D-04 BMatP= 9.51D-03
 IDIUse=3 WtCom= 9.95D-01 WtEn= 5.12D-03
 Coeff-Com: -0.245D-01 0.419D-01 0.116D+00 0.239D+00 0.628D+00
 Coeff-En:   0.000D+00 0.000D+00 0.000D+00 0.000D+00 0.100D+01
 Coeff:     -0.244D-01 0.417D-01 0.115D+00 0.237D+00 0.630D+00
 Gap=     0.281 Goal=   None    Shift=    0.000
 RMSDP=2.69D-05 MaxDP=2.13D-03 DE=-7.97D-03 OVMax= 3.53D-03

 Failed to achieve initial convergence to 1.0D-08 in  6 cycles.
 Switch to full accuracy anyway.
 Cycle   6  Pass 1  IDiag  1:
 E= -2048.70423265130     Delta-E=       -0.000287063736 Rises=F Damp=F
 DIIS: error= 2.42D-04 at cycle   1 NSaved=   1.
 NSaved= 1 IEnMin= 1 EnMin= -2048.70423265130     IErMin= 1 ErrMin= 2.42D-04
 ErrMax= 2.42D-04  0.00D+00 EMaxC= 1.00D-01 BMatC= 8.00D-05 BMatP= 8.00D-05
 IDIUse=3 WtCom= 9.98D-01 WtEn= 2.42D-03
 Coeff-Com:  0.100D+01
 Coeff-En:   0.100D+01
 Coeff:      0.100D+01
 Gap=     0.281 Goal=   None    Shift=    0.000
 RMSDP=2.69D-05 MaxDP=2.13D-03 DE=-2.87D-04 OVMax= 2.29D-03

 Cycle   7  Pass 1  IDiag  1:
 RMSU=  1.19D-04    CP:  1.00D+00
 E= -2048.70428908120     Delta-E=       -0.000056429903 Rises=F Damp=F
 DIIS: error= 2.48D-04 at cycle   2 NSaved=   2.
 NSaved= 2 IEnMin= 2 EnMin= -2048.70428908120     IErMin= 1 ErrMin= 2.42D-04
 ErrMax= 2.48D-04  0.00D+00 EMaxC= 1.00D-01 BMatC= 4.63D-05 BMatP= 8.00D-05
 IDIUse=3 WtCom= 9.98D-01 WtEn= 2.48D-03
 Coeff-Com:  0.408D+00 0.592D+00
 Coeff-En:   0.000D+00 0.100D+01
 Coeff:      0.407D+00 0.593D+00
 Gap=     0.281 Goal=   None    Shift=    0.000
 RMSDP=1.21D-05 MaxDP=1.25D-03 DE=-5.64D-05 OVMax= 1.42D-03

 Cycle   8  Pass 1  IDiag  1:
 RMSU=  1.17D-05    CP:  1.00D+00  1.02D+00
 E= -2048.70432241383     Delta-E=       -0.000033332626 Rises=F Damp=F
 DIIS: error= 1.48D-04 at cycle   3 NSaved=   3.
 NSaved= 3 IEnMin= 3 EnMin= -2048.70432241383     IErMin= 3 ErrMin= 1.48D-04
 ErrMax= 1.48D-04  0.00D+00 EMaxC= 1.00D-01 BMatC= 1.10D-05 BMatP= 4.63D-05
 IDIUse=3 WtCom= 9.99D-01 WtEn= 1.48D-03
 Coeff-Com: -0.194D-01 0.314D+00 0.705D+00
 Coeff-En:   0.000D+00 0.137D+00 0.863D+00
 Coeff:     -0.194D-01 0.314D+00 0.705D+00
 Gap=     0.281 Goal=   None    Shift=    0.000
 RMSDP=5.94D-06 MaxDP=5.03D-04 DE=-3.33D-05 OVMax= 5.80D-04

 Cycle   9  Pass 1  IDiag  1:
 RMSU=  3.98D-06    CP:  1.00D+00  1.05D+00  7.54D-01
 E= -2048.70433262577     Delta-E=       -0.000010211940 Rises=F Damp=F
 DIIS: error= 2.61D-05 at cycle   4 NSaved=   4.
 NSaved= 4 IEnMin= 4 EnMin= -2048.70433262577     IErMin= 4 ErrMin= 2.61D-05
 ErrMax= 2.61D-05  0.00D+00 EMaxC= 1.00D-01 BMatC= 5.21D-07 BMatP= 1.10D-05
 IDIUse=1 WtCom= 1.00D+00 WtEn= 0.00D+00
 Coeff-Com: -0.298D-01 0.859D-01 0.258D+00 0.686D+00
 Coeff:     -0.298D-01 0.859D-01 0.258D+00 0.686D+00
 Gap=     0.281 Goal=   None    Shift=    0.000
 RMSDP=1.49D-06 MaxDP=1.26D-04 DE=-1.02D-05 OVMax= 4.06D-04

 Cycle  10  Pass 1  IDiag  1:
 RMSU=  1.33D-06    CP:  1.00D+00  1.05D+00  7.87D-01  1.10D+00
 E= -2048.70433349461     Delta-E=       -0.000000868835 Rises=F Damp=F
 DIIS: error= 1.23D-05 at cycle   5 NSaved=   5.
 NSaved= 5 IEnMin= 5 EnMin= -2048.70433349461     IErMin= 5 ErrMin= 1.23D-05
 ErrMax= 1.23D-05  0.00D+00 EMaxC= 1.00D-01 BMatC= 1.29D-07 BMatP= 5.21D-07
 IDIUse=1 WtCom= 1.00D+00 WtEn= 0.00D+00
 Coeff-Com: -0.325D-02-0.562D-01-0.119D+00 0.214D+00 0.964D+00
 Coeff:     -0.325D-02-0.562D-01-0.119D+00 0.214D+00 0.964D+00
 Gap=     0.281 Goal=   None    Shift=    0.000
 RMSDP=1.25D-06 MaxDP=7.07D-05 DE=-8.69D-07 OVMax= 2.02D-04

 Cycle  11  Pass 1  IDiag  1:
 RMSU=  5.19D-07    CP:  1.00D+00  1.06D+00  7.95D-01  1.38D+00  1.16D+00
 E= -2048.70433376655     Delta-E=       -0.000000271941 Rises=F Damp=F
 DIIS: error= 5.29D-06 at cycle   6 NSaved=   6.
 NSaved= 6 IEnMin= 6 EnMin= -2048.70433376655     IErMin= 6 ErrMin= 5.29D-06
 ErrMax= 5.29D-06  0.00D+00 EMaxC= 1.00D-01 BMatC= 3.09D-08 BMatP= 1.29D-07
 IDIUse=1 WtCom= 1.00D+00 WtEn= 0.00D+00
 Coeff-Com:  0.449D-02-0.460D-01-0.114D+00 0.120D-02 0.520D+00 0.635D+00
 Coeff:      0.449D-02-0.460D-01-0.114D+00 0.120D-02 0.520D+00 0.635D+00
 Gap=     0.281 Goal=   None    Shift=    0.000
 RMSDP=3.85D-07 MaxDP=3.32D-05 DE=-2.72D-07 OVMax= 1.04D-04

 Cycle  12  Pass 1  IDiag  1:
 RMSU=  1.88D-07    CP:  1.00D+00  1.06D+00  7.97D-01  1.45D+00  1.29D+00
                    CP:  9.22D-01
 E= -2048.70433381044     Delta-E=       -0.000000043893 Rises=F Damp=F
 DIIS: error= 9.18D-07 at cycle   7 NSaved=   7.
 NSaved= 7 IEnMin= 7 EnMin= -2048.70433381044     IErMin= 7 ErrMin= 9.18D-07
 ErrMax= 9.18D-07  0.00D+00 EMaxC= 1.00D-01 BMatC= 7.95D-10 BMatP= 3.09D-08
 IDIUse=1 WtCom= 1.00D+00 WtEn= 0.00D+00
 Coeff-Com:  0.109D-02-0.774D-02-0.206D-01-0.786D-02 0.615D-01 0.138D+00
 Coeff-Com:  0.835D+00
 Coeff:      0.109D-02-0.774D-02-0.206D-01-0.786D-02 0.615D-01 0.138D+00
 Coeff:      0.835D+00
 Gap=     0.281 Goal=   None    Shift=    0.000
 RMSDP=8.56D-08 MaxDP=4.61D-06 DE=-4.39D-08 OVMax= 1.84D-05

 Cycle  13  Pass 1  IDiag  1:
 RMSU=  5.20D-08    CP:  1.00D+00  1.06D+00  7.96D-01  1.46D+00  1.31D+00
                    CP:  1.00D+00  1.13D+00
 E= -2048.70433381229     Delta-E=       -0.000000001845 Rises=F Damp=F
 DIIS: error= 7.03D-07 at cycle   8 NSaved=   8.
 NSaved= 8 IEnMin= 8 EnMin= -2048.70433381229     IErMin= 8 ErrMin= 7.03D-07
 ErrMax= 7.03D-07  0.00D+00 EMaxC= 1.00D-01 BMatC= 3.33D-10 BMatP= 7.95D-10
 IDIUse=1 WtCom= 1.00D+00 WtEn= 0.00D+00
 Coeff-Com: -0.678D-03 0.876D-02 0.208D-01-0.255D-02-0.110D+00-0.101D+00
 Coeff-Com:  0.422D+00 0.762D+00
 Coeff:     -0.678D-03 0.876D-02 0.208D-01-0.255D-02-0.110D+00-0.101D+00
 Coeff:      0.422D+00 0.762D+00
 Gap=     0.281 Goal=   None    Shift=    0.000
 RMSDP=4.68D-08 MaxDP=2.55D-06 DE=-1.85D-09 OVMax= 8.75D-06

 Cycle  14  Pass 1  IDiag  1:
 RMSU=  2.79D-08    CP:  1.00D+00  1.06D+00  7.96D-01  1.46D+00  1.32D+00
                    CP:  1.04D+00  1.28D+00  1.06D+00
 E= -2048.70433381273     Delta-E=       -0.000000000440 Rises=F Damp=F
 DIIS: error= 1.28D-07 at cycle   9 NSaved=   9.
 NSaved= 9 IEnMin= 9 EnMin= -2048.70433381273     IErMin= 9 ErrMin= 1.28D-07
 ErrMax= 1.28D-07  0.00D+00 EMaxC= 1.00D-01 BMatC= 2.43D-11 BMatP= 3.33D-10
 IDIUse=1 WtCom= 1.00D+00 WtEn= 0.00D+00
 Coeff-Com: -0.364D-03 0.408D-02 0.991D-02 0.116D-04-0.469D-01-0.520D-01
 Coeff-Com:  0.704D-01 0.264D+00 0.750D+00
 Coeff:     -0.364D-03 0.408D-02 0.991D-02 0.116D-04-0.469D-01-0.520D-01
 Coeff:      0.704D-01 0.264D+00 0.750D+00
 Gap=     0.281 Goal=   None    Shift=    0.000
 RMSDP=1.33D-08 MaxDP=6.49D-07 DE=-4.40D-10 OVMax= 2.69D-06

 Cycle  15  Pass 1  IDiag  1:
 RMSU=  8.80D-09    CP:  1.00D+00  1.06D+00  7.96D-01  1.46D+00  1.32D+00
                    CP:  1.05D+00  1.30D+00  1.19D+00  1.14D+00
 E= -2048.70433381275     Delta-E=       -0.000000000026 Rises=F Damp=F
 DIIS: error= 6.21D-08 at cycle  10 NSaved=  10.
 NSaved=10 IEnMin=10 EnMin= -2048.70433381275     IErMin=10 ErrMin= 6.21D-08
 ErrMax= 6.21D-08  0.00D+00 EMaxC= 1.00D-01 BMatC= 4.11D-12 BMatP= 2.43D-11
 IDIUse=1 WtCom= 1.00D+00 WtEn= 0.00D+00
 Coeff-Com:  0.292D-04-0.577D-03-0.129D-02 0.231D-03 0.834D-02 0.467D-02
 Coeff-Com: -0.590D-01-0.797D-01 0.243D+00 0.884D+00
 Coeff:      0.292D-04-0.577D-03-0.129D-02 0.231D-03 0.834D-02 0.467D-02
 Coeff:     -0.590D-01-0.797D-01 0.243D+00 0.884D+00
 Gap=     0.281 Goal=   None    Shift=    0.000
 RMSDP=6.54D-09 MaxDP=3.90D-07 DE=-2.64D-11 OVMax= 1.16D-06

 SCF Done:  E(RwB97XD) =  -2048.70433381     A.U. after   15 cycles
            NFock= 15  Conv=0.65D-08     -V/T= 2.0052
 KE= 2.038100253867D+03 PE=-1.598930567256D+04 EE= 6.298198104386D+03
 Leave Link  502 at Fri Jan 19 00:45:34 2018, MaxMem=  4294967296 cpu:           22933.3 elap:             740.8
 (Enter /share/apps/g16/l601.exe)
 Copying SCF densities to generalized density rwf, IOpCl= 0 IROHF=0.

 **********************************************************************

            Population analysis using the SCF density.

 **********************************************************************

 Orbital symmetries:
       Occupied  (A) (A) (A) (A) (A) (A) (A) (A) (A) (A) (A) (A)
                 (A) (A) (A) (A) (A) (A) (A) (A) (A) (A) (A) (A)
                 (A) (A) (A) (A) (A) (A) (A) (A) (A) (A) (A) (A)
                 (A) (A) (A) (A) (A) (A) (A) (A) (A) (A) (A) (A)
                 (A) (A) (A) (A) (A) (A) (A) (A) (A) (A) (A) (A)
                 (A) (A) (A) (A) (A) (A) (A) (A) (A) (A) (A) (A)
                 (A) (A) (A) (A) (A) (A) (A) (A) (A) (A) (A) (A)
                 (A) (A) (A) (A) (A) (A) (A) (A) (A) (A) (A) (A)
                 (A) (A) (A) (A) (A) (A) (A) (A) (A) (A) (A) (A)
                 (A) (A) (A) (A) (A) (A) (A) (A) (A) (A) (A) (A)
                 (A) (A) (A) (A) (A) (A) (A) (A) (A) (A) (A) (A)
                 (A) (A) (A) (A) (A) (A) (A) (A) (A) (A) (A) (A)
                 (A) (A) (A) (A) (A) (A) (A) (A) (A) (A)
       Virtual   (A) (A) (A) (A) (A) (A) (A) (A) (A) (A) (A) (A)
                 (A) (A) (A) (A) (A) (A) (A) (A) (A) (A) (A) (A)
                 (A) (A) (A) (A) (A) (A) (A) (A) (A) (A) (A) (A)
                 (A) (A) (A) (A) (A) (A) (A) (A) (A) (A) (A) (A)
                 (A) (A) (A) (A) (A) (A) (A) (A) (A) (A) (A) (A)
                 (A) (A) (A) (A) (A) (A) (A) (A) (A) (A) (A) (A)
                 (A) (A) (A) (A) (A) (A) (A) (A) (A) (A) (A) (A)
                 (A) (A) (A) (A) (A) (A) (A) (A) (A) (A) (A) (A)
                 (A) (A) (A) (A) (A) (A) (A) (A) (A) (A) (A) (A)
                 (A) (A) (A) (A) (A) (A) (A) (A) (A) (A) (A) (A)
                 (A) (A) (A) (A) (A) (A) (A) (A) (A) (A) (A) (A)
                 (A) (A) (A) (A) (A) (A) (A) (A) (A) (A) (A) (A)
                 (A) (A) (A) (A) (A) (A) (A) (A) (A) (A) (A) (A)
                 (A) (A) (A) (A) (A) (A) (A) (A) (A) (A) (A) (A)
                 (A) (A) (A) (A) (A) (A) (A) (A) (A) (A) (A) (A)
                 (A) (A) (A) (A) (A) (A) (A) (A) (A) (A) (A) (A)
                 (A) (A) (A) (A) (A) (A) (A) (A) (A) (A) (A) (A)
                 (A) (A) (A) (A) (A) (A) (A) (A) (A) (A) (A) (A)
                 (A) (A) (A) (A) (A) (A) (A) (A) (A) (A) (A) (A)
                 (A) (A) (A) (A) (A) (A) (A) (A) (A) (A) (A) (A)
                 (A) (A) (A) (A) (A) (A) (A) (A) (A) (A) (A) (A)
                 (A) (A) (A) (A) (A) (A) (A) (A) (A) (A) (A) (A)
                 (A) (A) (A) (A) (A) (A) (A) (A) (A) (A) (A) (A)
                 (A) (A) (A) (A) (A) (A) (A) (A) (A) (A) (A) (A)
                 (A) (A) (A) (A) (A) (A) (A) (A) (A) (A) (A) (A)
                 (A) (A) (A) (A) (A) (A) (A) (A) (A) (A) (A) (A)
                 (A) (A) (A) (A) (A) (A) (A) (A) (A) (A) (A) (A)
                 (A) (A) (A) (A) (A) (A) (A) (A) (A) (A) (A) (A)
                 (A) (A) (A) (A) (A) (A) (A) (A) (A) (A) (A) (A)
                 (A) (A) (A) (A) (A) (A) (A) (A) (A) (A) (A) (A)
                 (A) (A) (A) (A) (A) (A) (A) (A) (A) (A) (A) (A)
                 (A) (A) (A) (A) (A) (A) (A) (A) (A) (A) (A) (A)
                 (A) (A) (A) (A) (A) (A) (A) (A) (A) (A) (A) (A)
                 (A) (A) (A) (A) (A) (A) (A) (A) (A) (A) (A) (A)
                 (A) (A) (A) (A) (A) (A) (A) (A) (A) (A) (A) (A)
                 (A) (A) (A) (A) (A) (A) (A) (A) (A) (A) (A) (A)
                 (A) (A) (A) (A) (A) (A) (A) (A) (A) (A) (A) (A)
                 (A) (A) (A) (A) (A) (A) (A) (A) (A) (A) (A) (A)
                 (A) (A) (A) (A) (A) (A) (A) (A) (A) (A) (A) (A)
                 (A) (A) (A) (A) (A) (A) (A) (A) (A) (A) (A) (A)
                 (A) (A) (A) (A) (A) (A) (A) (A) (A) (A) (A) (A)
                 (A) (A) (A) (A) (A) (A) (A) (A) (A) (A) (A) (A)
                 (A) (A) (A) (A) (A) (A) (A) (A) (A) (A) (A) (A)
                 (A) (A) (A) (A) (A) (A) (A) (A) (A) (A) (A) (A)
                 (A) (A) (A) (A) (A) (A) (A) (A) (A) (A) (A) (A)
                 (A) (A) (A) (A) (A) (A) (A) (A) (A) (A) (A) (A)
                 (A) (A) (A) (A) (A) (A) (A) (A) (A) (A) (A) (A)
                 (A) (A) (A) (A) (A) (A) (A) (A) (A) (A) (A) (A)
                 (A) (A) (A) (A) (A) (A) (A)
 The electronic state is 1-A.
 Alpha  occ. eigenvalues --  -19.26077 -19.21965 -19.20444 -14.52763 -14.51428
 Alpha  occ. eigenvalues --  -14.50224 -14.47972 -14.47953 -14.46917 -14.46162
 Alpha  occ. eigenvalues --  -14.46014 -14.44350 -14.43344 -14.43236 -14.42829
 Alpha  occ. eigenvalues --  -14.42766 -14.42304 -14.41771 -14.41442 -14.40444
 Alpha  occ. eigenvalues --  -10.45689 -10.40645 -10.40065 -10.38764 -10.37893
 Alpha  occ. eigenvalues --  -10.37760 -10.37070 -10.36722 -10.36243 -10.36089
 Alpha  occ. eigenvalues --  -10.35476 -10.34956 -10.34855 -10.34377 -10.33893
 Alpha  occ. eigenvalues --  -10.33433 -10.32901 -10.32212 -10.31393 -10.31102
 Alpha  occ. eigenvalues --  -10.30022 -10.28453 -10.27762  -1.19786  -1.14196
 Alpha  occ. eigenvalues --   -1.13032  -1.13004  -1.12832  -1.10189  -1.09615
 Alpha  occ. eigenvalues --   -1.08343  -1.08037  -1.06447  -1.03714  -1.02637
 Alpha  occ. eigenvalues --   -1.01960  -0.99983  -0.99276  -0.98349  -0.98227
 Alpha  occ. eigenvalues --   -0.96011  -0.95682  -0.94110  -0.91197  -0.86832
 Alpha  occ. eigenvalues --   -0.85474  -0.85379  -0.84222  -0.83691  -0.83524
 Alpha  occ. eigenvalues --   -0.81401  -0.79038  -0.76125  -0.74396  -0.74140
 Alpha  occ. eigenvalues --   -0.73885  -0.73548  -0.73251  -0.72532  -0.69529
 Alpha  occ. eigenvalues --   -0.67711  -0.67040  -0.66650  -0.65896  -0.64740
 Alpha  occ. eigenvalues --   -0.64170  -0.63370  -0.63270  -0.62582  -0.61505
 Alpha  occ. eigenvalues --   -0.61479  -0.61273  -0.59926  -0.59643  -0.58898
 Alpha  occ. eigenvalues --   -0.58189  -0.57971  -0.57823  -0.57780  -0.56782
 Alpha  occ. eigenvalues --   -0.56533  -0.56022  -0.55566  -0.54730  -0.54457
 Alpha  occ. eigenvalues --   -0.54344  -0.53374  -0.53269  -0.53023  -0.52397
 Alpha  occ. eigenvalues --   -0.52253  -0.51864  -0.51644  -0.51605  -0.51017
 Alpha  occ. eigenvalues --   -0.50350  -0.49795  -0.49524  -0.48792  -0.48551
 Alpha  occ. eigenvalues --   -0.48517  -0.48217  -0.48056  -0.47909  -0.47418
 Alpha  occ. eigenvalues --   -0.47158  -0.45826  -0.45526  -0.44311  -0.43055
 Alpha  occ. eigenvalues --   -0.41436  -0.40193  -0.39659  -0.38670  -0.37221
 Alpha  occ. eigenvalues --   -0.37041  -0.36961  -0.36334  -0.35408  -0.35048
 Alpha  occ. eigenvalues --   -0.34771  -0.34164  -0.33531  -0.33246  -0.33101
 Alpha  occ. eigenvalues --   -0.32580  -0.32450  -0.31843  -0.31790  -0.31605
 Alpha  occ. eigenvalues --   -0.31320  -0.28158  -0.26836  -0.25061
 Alpha virt. eigenvalues --    0.03017   0.04881   0.06250   0.08096   0.08341
 Alpha virt. eigenvalues --    0.09062   0.09641   0.10238   0.11209   0.11907
 Alpha virt. eigenvalues --    0.12495   0.13104   0.14529   0.14688   0.15066
 Alpha virt. eigenvalues --    0.15253   0.16119   0.17341   0.18198   0.18309
 Alpha virt. eigenvalues --    0.18634   0.19061   0.19440   0.19551   0.20047
 Alpha virt. eigenvalues --    0.20881   0.21178   0.21591   0.21777   0.22058
 Alpha virt. eigenvalues --    0.22824   0.23094   0.23286   0.23383   0.24164
 Alpha virt. eigenvalues --    0.24633   0.25457   0.25608   0.26036   0.26404
 Alpha virt. eigenvalues --    0.27082   0.27426   0.27732   0.28313   0.28685
 Alpha virt. eigenvalues --    0.29128   0.29254   0.30362   0.30567   0.30957
 Alpha virt. eigenvalues --    0.32128   0.32477   0.32866   0.33219   0.33936
 Alpha virt. eigenvalues --    0.34263   0.35511   0.35796   0.36013   0.36519
 Alpha virt. eigenvalues --    0.37122   0.38023   0.38200   0.39044   0.39487
 Alpha virt. eigenvalues --    0.40548   0.40878   0.41029   0.41375   0.41741
 Alpha virt. eigenvalues --    0.42204   0.42881   0.43341   0.43801   0.44764
 Alpha virt. eigenvalues --    0.45522   0.45739   0.46147   0.46325   0.47580
 Alpha virt. eigenvalues --    0.47784   0.48246   0.48960   0.49456   0.49644
 Alpha virt. eigenvalues --    0.50011   0.50655   0.51042   0.51309   0.51544
 Alpha virt. eigenvalues --    0.52294   0.52699   0.53215   0.53391   0.53957
 Alpha virt. eigenvalues --    0.54478   0.54815   0.55294   0.55417   0.56198
 Alpha virt. eigenvalues --    0.56475   0.56627   0.56963   0.57602   0.57773
 Alpha virt. eigenvalues --    0.58254   0.58760   0.58961   0.59898   0.60039
 Alpha virt. eigenvalues --    0.60434   0.60735   0.61509   0.61546   0.61913
 Alpha virt. eigenvalues --    0.62741   0.62911   0.63302   0.63694   0.64017
 Alpha virt. eigenvalues --    0.64358   0.64441   0.64923   0.65053   0.65472
 Alpha virt. eigenvalues --    0.66242   0.66367   0.67048   0.67470   0.67903
 Alpha virt. eigenvalues --    0.68441   0.68680   0.69184   0.69575   0.70376
 Alpha virt. eigenvalues --    0.70891   0.71149   0.71677   0.72412   0.72839
 Alpha virt. eigenvalues --    0.73056   0.73202   0.73494   0.74235   0.74394
 Alpha virt. eigenvalues --    0.74973   0.75063   0.75403   0.75854   0.76135
 Alpha virt. eigenvalues --    0.76473   0.76538   0.77159   0.77310   0.78144
 Alpha virt. eigenvalues --    0.78349   0.78639   0.78840   0.79031   0.79418
 Alpha virt. eigenvalues --    0.79889   0.80246   0.81090   0.81315   0.81532
 Alpha virt. eigenvalues --    0.81800   0.82298   0.82710   0.82834   0.83044
 Alpha virt. eigenvalues --    0.83757   0.83867   0.84585   0.85405   0.85805
 Alpha virt. eigenvalues --    0.86305   0.86624   0.87095   0.87455   0.88062
 Alpha virt. eigenvalues --    0.88640   0.89199   0.89540   0.89604   0.90321
 Alpha virt. eigenvalues --    0.91062   0.91417   0.91576   0.91895   0.93013
 Alpha virt. eigenvalues --    0.93640   0.93715   0.94295   0.94819   0.95396
 Alpha virt. eigenvalues --    0.95889   0.96414   0.96570   0.97034   0.97547
 Alpha virt. eigenvalues --    0.98008   0.98781   0.98985   0.99593   0.99802
 Alpha virt. eigenvalues --    1.00400   1.00760   1.00990   1.01232   1.02385
 Alpha virt. eigenvalues --    1.03069   1.03439   1.03655   1.03972   1.04286
 Alpha virt. eigenvalues --    1.04828   1.05326   1.06083   1.06301   1.07078
 Alpha virt. eigenvalues --    1.07296   1.08127   1.08948   1.09397   1.09729
 Alpha virt. eigenvalues --    1.10171   1.10720   1.11110   1.11741   1.12384
 Alpha virt. eigenvalues --    1.12749   1.13539   1.13694   1.14324   1.14544
 Alpha virt. eigenvalues --    1.14914   1.15099   1.15780   1.16078   1.16698
 Alpha virt. eigenvalues --    1.17690   1.18213   1.18459   1.19111   1.19187
 Alpha virt. eigenvalues --    1.19379   1.19878   1.20347   1.20748   1.21314
 Alpha virt. eigenvalues --    1.21463   1.21750   1.22023   1.22654   1.22737
 Alpha virt. eigenvalues --    1.23031   1.23664   1.24091   1.24850   1.25333
 Alpha virt. eigenvalues --    1.25524   1.26010   1.26419   1.27027   1.27366
 Alpha virt. eigenvalues --    1.28186   1.28949   1.29278   1.30193   1.30856
 Alpha virt. eigenvalues --    1.30916   1.31500   1.32255   1.32765   1.33330
 Alpha virt. eigenvalues --    1.34254   1.34440   1.35159   1.35573   1.36135
 Alpha virt. eigenvalues --    1.36173   1.37176   1.37935   1.38811   1.39736
 Alpha virt. eigenvalues --    1.39937   1.40509   1.40678   1.41716   1.41957
 Alpha virt. eigenvalues --    1.43201   1.43461   1.44773   1.45645   1.46102
 Alpha virt. eigenvalues --    1.46373   1.47371   1.47983   1.48483   1.48949
 Alpha virt. eigenvalues --    1.49735   1.50342   1.51411   1.51507   1.51943
 Alpha virt. eigenvalues --    1.52782   1.53913   1.54941   1.55740   1.56245
 Alpha virt. eigenvalues --    1.56985   1.57756   1.58118   1.58984   1.59146
 Alpha virt. eigenvalues --    1.60075   1.60869   1.61255   1.61810   1.62184
 Alpha virt. eigenvalues --    1.63276   1.63395   1.64363   1.64989   1.65781
 Alpha virt. eigenvalues --    1.66356   1.66680   1.67131   1.67622   1.68282
 Alpha virt. eigenvalues --    1.68573   1.69065   1.69191   1.69505   1.70311
 Alpha virt. eigenvalues --    1.70630   1.70894   1.71429   1.72007   1.72462
 Alpha virt. eigenvalues --    1.73201   1.73262   1.74117   1.74437   1.74801
 Alpha virt. eigenvalues --    1.75037   1.75098   1.75584   1.75647   1.76233
 Alpha virt. eigenvalues --    1.76594   1.76813   1.77037   1.77416   1.78369
 Alpha virt. eigenvalues --    1.78523   1.78773   1.79208   1.79398   1.79752
 Alpha virt. eigenvalues --    1.80186   1.80384   1.80803   1.80875   1.81547
 Alpha virt. eigenvalues --    1.82456   1.82595   1.83418   1.84274   1.84794
 Alpha virt. eigenvalues --    1.85266   1.85724   1.86185   1.86285   1.86944
 Alpha virt. eigenvalues --    1.87505   1.87575   1.88298   1.88647   1.89050
 Alpha virt. eigenvalues --    1.89606   1.89754   1.90511   1.90749   1.91207
 Alpha virt. eigenvalues --    1.91686   1.91785   1.92094   1.92636   1.92976
 Alpha virt. eigenvalues --    1.93549   1.94257   1.94407   1.95084   1.95433
 Alpha virt. eigenvalues --    1.96336   1.97909   1.98285   1.98672   1.99278
 Alpha virt. eigenvalues --    1.99698   2.00135   2.01345   2.01971   2.02735
 Alpha virt. eigenvalues --    2.03487   2.04083   2.04192   2.04835   2.05707
 Alpha virt. eigenvalues --    2.05946   2.07050   2.07826   2.07985   2.08354
 Alpha virt. eigenvalues --    2.08840   2.09195   2.11236   2.11644   2.11800
 Alpha virt. eigenvalues --    2.12881   2.13266   2.13427   2.14016   2.14808
 Alpha virt. eigenvalues --    2.15568   2.15849   2.16773   2.18277   2.19756
 Alpha virt. eigenvalues --    2.20146   2.20431   2.21025   2.21488   2.21601
 Alpha virt. eigenvalues --    2.22780   2.23544   2.23753   2.24133   2.24896
 Alpha virt. eigenvalues --    2.25763   2.26184   2.27143   2.27770   2.28090
 Alpha virt. eigenvalues --    2.28722   2.29200   2.29574   2.30656   2.30836
 Alpha virt. eigenvalues --    2.31764   2.32114   2.33107   2.33710   2.33948
 Alpha virt. eigenvalues --    2.34170   2.34607   2.35331   2.35620   2.36382
 Alpha virt. eigenvalues --    2.36738   2.37522   2.37702   2.38792   2.39331
 Alpha virt. eigenvalues --    2.39948   2.40272   2.40696   2.41334   2.41957
 Alpha virt. eigenvalues --    2.42579   2.43171   2.44007   2.44622   2.44855
 Alpha virt. eigenvalues --    2.45358   2.46489   2.46933   2.47167   2.47938
 Alpha virt. eigenvalues --    2.49171   2.50061   2.50196   2.51671   2.52978
 Alpha virt. eigenvalues --    2.53285   2.54866   2.55593   2.55951   2.57201
 Alpha virt. eigenvalues --    2.57730   2.58146   2.58266   2.60176   2.60449
 Alpha virt. eigenvalues --    2.60889   2.62250   2.62568   2.63711   2.64852
 Alpha virt. eigenvalues --    2.65167   2.65678   2.66260   2.67362   2.67625
 Alpha virt. eigenvalues --    2.68081   2.68305   2.68771   2.69273   2.70406
 Alpha virt. eigenvalues --    2.71124   2.72128   2.72200   2.73838   2.74270
 Alpha virt. eigenvalues --    2.74801   2.75044   2.75153   2.75816   2.77509
 Alpha virt. eigenvalues --    2.78122   2.78960   2.79394   2.80210   2.81264
 Alpha virt. eigenvalues --    2.81674   2.81987   2.82190   2.82626   2.83272
 Alpha virt. eigenvalues --    2.83636   2.84448   2.85152   2.85507   2.86104
 Alpha virt. eigenvalues --    2.86634   2.87169   2.87573   2.87683   2.89080
 Alpha virt. eigenvalues --    2.89962   2.91405   2.93838   2.94931   2.95678
 Alpha virt. eigenvalues --    2.96433   2.98053   2.98447   2.99171   3.00147
 Alpha virt. eigenvalues --    3.01472   3.02650   3.04672   3.05795   3.07588
 Alpha virt. eigenvalues --    3.08209   3.10677   3.11314   3.14415   3.15102
 Alpha virt. eigenvalues --    3.15432   3.16354   3.16608   3.18729   3.21223
 Alpha virt. eigenvalues --    3.22569   3.23011   3.23929   3.24686   3.27933
 Alpha virt. eigenvalues --    3.45664   3.47278   3.48741   3.49901   3.50527
 Alpha virt. eigenvalues --    3.52923   3.54440   3.56704   3.58682   3.60440
 Alpha virt. eigenvalues --    3.63649   3.71329   3.75073
          Condensed to atoms (all electrons):
 Mulliken charges:
               1
     1  N   -0.313085
     2  C    0.179632
     3  C    0.052316
     4  N   -0.254501
     5  C    0.132200
     6  H    0.030986
     7  N   -0.258639
     8  C    0.118490
     9  H    0.022977
    10  N   -0.297727
    11  C    0.240792
    12  C    0.090456
    13  N   -0.041124
    14  H    0.107805
    15  H    0.088147
    16  H    0.029926
    17  H    0.036354
    18  H    0.027139
    19  N   -0.291282
    20  C    0.238534
    21  C    0.190187
    22  N   -0.085785
    23  H    0.109681
    24  H    0.111340
    25  N   -0.285921
    26  C    0.196035
    27  N   -0.121126
    28  H    0.127963
    29  C    0.136529
    30  O   -0.323909
    31  C    0.017528
    32  N   -0.224003
    33  C    0.113548
    34  H    0.022866
    35  H    0.020254
    36  H    0.019006
    37  H    0.010687
    38  H    0.044050
    39  H    0.065527
    40  H    0.088776
    41  H    0.031552
    42  C   -0.093738
    43  O   -0.265078
    44  C    0.183773
    45  H    0.132773
    46  N   -0.123638
    47  O   -0.344483
    48  C    0.340195
    49  H    0.044699
    50  C    0.165524
    51  C    0.035209
    52  N   -0.279520
    53  H    0.031783
    54  H    0.025191
    55  H   -0.015947
    56  H    0.118211
    57  H    0.120961
    58  N   -0.065987
    59  C    0.133274
    60  C    0.215747
    61  N   -0.293121
    62  H    0.034153
    63  C    0.181910
    64  N   -0.307337
    65  H    0.028261
    66  C    0.110338
    67  N   -0.248698
    68  C    0.021762
    69  C    0.197329
    70  N   -0.287729
 Sum of Mulliken charges =  -0.00000
 Mulliken charges with hydrogens summed into heavy atoms:
               1
     1  N   -0.313085
     2  C    0.273052
     3  C    0.052316
     4  N   -0.254501
     5  C    0.163186
     7  N   -0.258639
     8  C    0.141468
    10  N   -0.297727
    11  C    0.240792
    12  C    0.090456
    13  N    0.154827
    19  N   -0.291282
    20  C    0.238534
    21  C    0.240133
    22  N    0.135235
    25  N   -0.285921
    26  C    0.196035
    27  N    0.006837
    29  C    0.136529
    30  O   -0.323909
    31  C    0.017528
    32  N   -0.224003
    33  C    0.136414
    42  C   -0.062186
    43  O   -0.265078
    44  C    0.183773
    46  N    0.009135
    47  O   -0.344483
    48  C    0.340195
    50  C    0.210222
    51  C    0.233562
    52  N   -0.279520
    58  N    0.173185
    59  C    0.133274
    60  C    0.215747
    61  N   -0.293121
    63  C    0.216063
    64  N   -0.307337
    66  C    0.138598
    67  N   -0.248698
    68  C    0.021762
    69  C    0.238356
    70  N   -0.287729
 Electronic spatial extent (au):  <R**2>=          22967.3923
 Charge=             -0.0000 electrons
 Dipole moment (field-independent basis, Debye):
    X=             -4.4403    Y=              5.4656    Z=             -4.9183  Tot=              8.5894
 Quadrupole moment (field-independent basis, Debye-Ang):
   XX=           -139.4698   YY=           -228.0931   ZZ=           -260.5751
   XY=            -18.0563   XZ=             15.8813   YZ=              6.5862
 Traceless Quadrupole moment (field-independent basis, Debye-Ang):
   XX=             69.9095   YY=            -18.7138   ZZ=            -51.1958
   XY=            -18.0563   XZ=             15.8813   YZ=              6.5862
 Octapole moment (field-independent basis, Debye-Ang**2):
  XXX=             41.8004  YYY=             19.9998  ZZZ=            -29.8635  XYY=            -39.2204
  XXY=             86.3432  XXZ=             21.4681  XZZ=            -15.7349  YZZ=             48.2885
  YYZ=            -59.1480  XYZ=             18.9833
 Hexadecapole moment (field-independent basis, Debye-Ang**3):
 XXXX=         -16315.6860 YYYY=          -3576.1922 ZZZZ=          -3051.3811 XXXY=           -561.2451
 XXXZ=            218.8769 YYYX=            -53.9495 YYYZ=             21.5779 ZZZX=             86.0079
 ZZZY=              7.2300 XXYY=          -4492.1603 XXZZ=          -4361.5808 YYZZ=          -1218.2790
 XXYZ=            -48.9945 YYXZ=            130.0765 ZZXY=           -114.4914
 N-N= 5.604302980492D+03 E-N=-1.598930566825D+04  KE= 2.038100253867D+03
 No NMR shielding tensors so no spin-rotation constants.
 Leave Link  601 at Fri Jan 19 00:45:36 2018, MaxMem=  4294967296 cpu:              48.7 elap:               1.7
 (Enter /share/apps/g16/l9999.exe)
 1\1\GINC-COMPUTE-0-3\SP\RwB97XD\CC-pVDZ\C23H27N17O3\SATYA\19-Jan-2018\
 0\\#p wb97xd/cc-pvdz sp scf=(maxcycles=20)\\Base pair stacking\\0,1\N,
 0,1.04416,9.6343,-6.48255\C,0,0.80715,11.07311,-6.25525\C,0,0.80891,7.
 44951,-6.57572\N,0,2.0694,7.72619,-7.08499\C,0,2.16068,9.03137,-7.0084
 7\H,0,3.02796,9.61181,-7.32446\N,0,-1.13088,6.31832,-5.85423\C,0,-1.62
 293,7.52106,-5.53977\H,0,-2.62603,7.51667,-5.11546\N,0,-1.06454,8.7227
 7,-5.67016\C,0,0.16509,8.61571,-6.20023\C,0,0.10892,6.24418,-6.3857\N,
 0,0.60183,5.04448,-6.70024\H,0,1.51516,4.94226,-7.09596\H,0,0.07526,4.
 20744,-6.55115\H,0,0.86408,11.5632,-7.12515\H,0,-0.10126,11.20354,-5.8
 5912\H,0,1.49754,11.43159,-5.62688\N,0,-0.23947,6.90255,-3.08028\C,0,-
 0.85345,5.67918,-2.96\C,0,-0.91246,8.21124,-2.95734\N,0,-3.71689,3.791
 86,-2.41185\H,0,-3.96447,2.82468,-2.36176\H,0,-4.45224,4.45612,-2.2749
 5\N,0,-2.16415,5.4688,-2.71129\C,0,-2.45575,4.18154,-2.65179\N,0,-1.53
 563,3.17568,-2.82251\H,0,-1.8485,2.21903,-2.7601\C,0,-0.1819,3.36894,-
 3.07931\O,0,0.56434,2.39178,-3.21723\C,0,0.14649,4.74683,-3.14607\N,0,
 1.36374,5.37227,-3.3785\C,0,1.08674,6.64709,-3.33037\H,0,1.81505,7.446
 53,-3.47086\H,0,-0.80784,8.72306,-3.80934\H,0,-1.88395,8.06805,-2.7730
 4\H,0,-0.50443,8.72845,-2.2058\H,0,-4.15229,-2.30883,-2.96921\H,0,-3.5
 8754,-2.44056,-1.30537\H,0,-4.00534,-0.86163,-1.97152\H,0,0.47011,-3.4
 2905,-3.69388\C,0,-0.13635,-2.56577,-3.41968\O,0,1.57477,-0.98735,-3.8
 7551\C,0,0.43091,-1.25497,-3.50845\H,0,-0.05584,0.70683,-3.18791\N,0,-
 0.42099,-0.23389,-3.13844\O,0,-2.39544,0.61191,-2.4013\C,0,-1.71848,-0
 .35381,-2.70754\H,0,-1.87718,-3.68979,-2.9178\C,0,-1.39914,-2.71481,-3
 .00286\C,0,-3.57546,-1.82697,-2.19387\N,0,-2.19373,-1.64915,-2.64878\H
 ,0,-5.84455,0.0806,-4.60744\H,0,-5.09893,1.24132,-3.7363\H,0,-4.99994,
 -0.31958,-3.26956\H,0,0.8749,1.45405,-7.44085\H,0,0.16557,-0.09731,-7.
 45643\N,0,0.12941,0.85441,-7.14959\C,0,-0.86901,1.30295,-6.38596\C,0,-
 2.90053,1.10923,-5.16238\N,0,-2.92306,2.39227,-4.76525\H,0,-1.80382,4.
 09789,-4.96218\C,0,-1.86389,3.04601,-5.23822\N,0,-0.86282,2.59853,-6.0
 032\H,0,-3.91321,-1.94881,-5.43629\C,0,-3.36807,-1.00656,-5.49893\N,0,
 -2.24663,-0.83665,-6.15557\C,0,-1.93923,0.50056,-5.95039\C,0,-5.03837,
 0.29638,-4.05652\N,0,-3.82107,0.1297,-4.87408\\Version=EM64L-G16RevA.0
 3\State=1-A\HF=-2048.7043338\RMSD=6.544e-09\Dipole=-3.2396175,-0.92917
 ,0.2479706\Quadrupole=-16.1730341,36.7605149,-20.5874808,32.6999319,-1
 8.6878806,-8.8680303\PG=C01 [X(C23H27N17O3)]\\@


          EVOLUTION
 IN THE BEGINNING GOD MADE MAN.
 HE WORKED THE DIRT WITH HIS HANDS.
 THEN GOD DECIDED TO GIVE MAN SCIENCE,
 MAN SHOULD BE USEFUL (LIKE AN APPLIANCE.)
 BUT SOON MAN'S KNOWLEDGE GREW TOO GREAT,
 TO THE HEADING SCIENCE HE COULDN'T RELATE
 SO GOD SAID "LETS HAVE DIFFERENT FIELDS,
 WE'LL DIVIDE THEM UP, SEE WHAT IT YIELDS."
 ENTER PHYSICS, CHEMISTRY, BIO
 THEY SPRANG UP AROUND THE NILE.
 BUT CHEMISTRY SURPASSED THE REST
 FAR AND AWAY IT WAS THE BEST.
 EXPERIMENT WAS GOD'S DECREE
 EXPERIMENT DID CHEMISTS WITH LOTS OF GLEE
 BUT SOON THEIR TESTS BEGAN TO BOG,
 THEY FOUND THEMSELVES DEEP IN A FOG.
 "GIVE US SOME HELP" THEY CRIED TO GOD.
 GOD LOOKED AROUND, THEN GAVE THE NOD.
 ENTER EINSTEIN, HEISENBERG, BOHR,
 REACTION PATHS WERE CLEAR ONCE MORE.
 WITH THEORISTS GOD SEND DIRECTION
 AND THEN HE STOPPED, HE'D MADE PERFECTION.
          -- THOMAS A. HOLME, 1981
 Job cpu time:       0 days  6 hours 32 minutes 40.2 seconds.
 Elapsed time:       0 days  0 hours 12 minutes 40.9 seconds.
 File lengths (MBytes):  RWF=    298 Int=      0 D2E=      0 Chk=     33 Scr=      1
 Normal termination of Gaussian 16 at Fri Jan 19 00:45:36 2018.
