 Entering Gaussian System, Link 0=g16
 Input=str15.0.-1.0.com
 Output=str15.0.-1.0.log
 Initial command:
 /share/apps/g16/l1.exe "/state/partition1/scr/Gau-4495.inp" -scrdir="/state/partition1/scr/"
 Entering Link 1 = /share/apps/g16/l1.exe PID=      4496.
  
 Copyright (c) 1988,1990,1992,1993,1995,1998,2003,2009,2016,
            Gaussian, Inc.  All Rights Reserved.
  
 This is part of the Gaussian(R) 16 program.  It is based on
 the Gaussian(R) 09 system (copyright 2009, Gaussian, Inc.),
 the Gaussian(R) 03 system (copyright 2003, Gaussian, Inc.),
 the Gaussian(R) 98 system (copyright 1998, Gaussian, Inc.),
 the Gaussian(R) 94 system (copyright 1995, Gaussian, Inc.),
 the Gaussian 92(TM) system (copyright 1992, Gaussian, Inc.),
 the Gaussian 90(TM) system (copyright 1990, Gaussian, Inc.),
 the Gaussian 88(TM) system (copyright 1988, Gaussian, Inc.),
 the Gaussian 86(TM) system (copyright 1986, Carnegie Mellon
 University), and the Gaussian 82(TM) system (copyright 1983,
 Carnegie Mellon University). Gaussian is a federally registered
 trademark of Gaussian, Inc.
  
 This software contains proprietary and confidential information,
 including trade secrets, belonging to Gaussian, Inc.
  
 This software is provided under written license and may be
 used, copied, transmitted, or stored only in accord with that
 written license.
  
 The following legend is applicable only to US Government
 contracts under FAR:
  
                    RESTRICTED RIGHTS LEGEND
  
 Use, reproduction and disclosure by the US Government is
 subject to restrictions as set forth in subparagraphs (a)
 and (c) of the Commercial Computer Software - Restricted
 Rights clause in FAR 52.227-19.
  
 Gaussian, Inc.
 340 Quinnipiac St., Bldg. 40, Wallingford CT 06492
  
  
 ---------------------------------------------------------------
 Warning -- This program may not be used in any manner that
 competes with the business of Gaussian, Inc. or will provide
 assistance to any competitor of Gaussian, Inc.  The licensee
 of this program is prohibited from giving any competitor of
 Gaussian, Inc. access to this program.  By using this program,
 the user acknowledges that Gaussian, Inc. is engaged in the
 business of creating and licensing software in the field of
 computational chemistry and represents and warrants to the
 licensee that it is not a competitor of Gaussian, Inc. and that
 it will not use this program in any manner prohibited above.
 ---------------------------------------------------------------
  

 Cite this work as:
 Gaussian 16, Revision A.03,
 M. J. Frisch, G. W. Trucks, H. B. Schlegel, G. E. Scuseria, 
 M. A. Robb, J. R. Cheeseman, G. Scalmani, V. Barone, 
 G. A. Petersson, H. Nakatsuji, X. Li, M. Caricato, A. V. Marenich, 
 J. Bloino, B. G. Janesko, R. Gomperts, B. Mennucci, H. P. Hratchian, 
 J. V. Ortiz, A. F. Izmaylov, J. L. Sonnenberg, D. Williams-Young, 
 F. Ding, F. Lipparini, F. Egidi, J. Goings, B. Peng, A. Petrone, 
 T. Henderson, D. Ranasinghe, V. G. Zakrzewski, J. Gao, N. Rega, 
 G. Zheng, W. Liang, M. Hada, M. Ehara, K. Toyota, R. Fukuda, 
 J. Hasegawa, M. Ishida, T. Nakajima, Y. Honda, O. Kitao, H. Nakai, 
 T. Vreven, K. Throssell, J. A. Montgomery, Jr., J. E. Peralta, 
 F. Ogliaro, M. J. Bearpark, J. J. Heyd, E. N. Brothers, K. N. Kudin, 
 V. N. Staroverov, T. A. Keith, R. Kobayashi, J. Normand, 
 K. Raghavachari, A. P. Rendell, J. C. Burant, S. S. Iyengar, 
 J. Tomasi, M. Cossi, J. M. Millam, M. Klene, C. Adamo, R. Cammi, 
 J. W. Ochterski, R. L. Martin, K. Morokuma, O. Farkas, 
 J. B. Foresman, and D. J. Fox, Gaussian, Inc., Wallingford CT, 2016.
 
 ******************************************
 Gaussian 16:  EM64L-G16RevA.03 25-Dec-2016
                18-Jan-2018 
 ******************************************
 %nprocshared=32
 Will use up to   32 processors via shared memory.
 %mem=32GB
 %chk=allatoms_t.chk
 ---------------------------------------
 #p wb97xd/cc-pvdz sp scf=(maxcycles=20)
 ---------------------------------------
 1/38=1,172=1/1;
 2/12=2,17=6,18=5,40=1/2;
 3/5=16,11=2,25=1,30=1,74=-58/1,2,3;
 4//1;
 5/5=2,7=20,38=5/2;
 6/7=2,8=2,9=2,10=2,28=1/1;
 99/5=1,9=1/99;
 Leave Link    1 at Thu Jan 18 15:30:39 2018, MaxMem=  4294967296 cpu:               7.2 elap:               0.2
 (Enter /share/apps/g16/l101.exe)
 ------------------
 Base pair stacking
 ------------------
 Symbolic Z-matrix:
 Charge =  0 Multiplicity = 1
 N                     2.18344   7.53348  -6.47105 
 C                     1.89564   8.97731  -6.57363 
 C                     1.97727   5.34573  -6.37851 
 N                     3.33339   5.61312  -6.25948 
 C                     3.40332   6.92046  -6.32 
 H                     4.32783   7.49536  -6.25909 
 N                    -0.09418   4.22727  -6.52372 
 C                    -0.6524    5.43652  -6.6407 
 H                    -1.73635   5.43999  -6.74702 
 N                    -0.07539   6.6365   -6.64603 
 C                     1.25583   6.51955  -6.50964 
 C                     1.24731   4.14323  -6.38803 
 N                     1.80639   2.93702  -6.27112 
 H                     2.79568   2.82741  -6.1686 
 H                     1.25574   2.10227  -6.28203 
 H                     2.36996   9.35753  -7.36775 
 H                     0.91105   9.11516  -6.67715 
 H                     2.21029   9.44167  -5.74576 
 N                     0.03932   5.92747  -3.26456 
 C                    -0.58784   4.70488  -3.26328 
 C                    -0.6398    7.23519  -3.36129 
 N                    -3.50077   2.81855  -3.39872 
 H                    -3.75515   1.85201  -3.38065 
 H                    -4.24522   3.48228  -3.47605 
 N                    -1.91914   4.49451  -3.34948 
 C                    -2.21921   3.2081   -3.32272 
 N                    -1.28826   2.20303  -3.21948 
 H                    -1.60889   1.247    -3.20649 
 C                     0.08667   2.39629  -3.12957 
 O                     0.8412    1.41988  -3.03986 
 C                     0.42439   3.77327  -3.15705 
 N                     1.66213   4.39841  -3.09292 
 C                     1.38491   5.67232  -3.16 
 H                     2.12681   6.47129  -3.13738 
 H                    -0.3205    7.71906  -4.17537 
 H                    -1.62652   7.092    -3.42565 
 H                    -0.43541   7.77971  -2.54856 
 H                    -3.79382  -3.29996  -3.84208 
 H                    -3.67168  -3.37267  -2.08582 
 H                    -3.90247  -1.81946  -2.88935 
 H                     0.85816  -4.41407  -3.32784 
 C                     0.20384  -3.54604  -3.2464 
 O                     1.97823  -1.97274  -3.30466 
 C                     0.778    -2.23532  -3.23206 
 H                     0.23015  -0.2671   -3.11248 
 N                    -0.13771  -1.20797  -3.12585 
 O                    -2.23284  -0.35077  -2.94466 
 C                    -1.50242  -1.32179  -3.03565 
 H                    -1.60996  -4.66387  -3.16654 
 C                    -1.1238   -3.68921  -3.16 
 C                    -3.43235  -2.7889   -2.96218 
 N                    -1.97992  -2.61747  -3.05609 
 H                    -4.95641  -2.01186  -6.86174 
 H                    -4.69279  -0.71965  -5.90113 
 H                    -4.85943  -2.20442  -5.24405 
 H                     2.32732  -0.70176  -6.31721 
 H                     1.68017  -2.27322  -6.46493 
 N                     1.52128  -1.29333  -6.33931 
 C                     0.28885  -0.7985   -6.20724 
 C                    -2.08365  -0.9294   -6.08142 
 N                    -2.26696   0.39075  -5.91402 
 H                    -1.15517   2.10705  -5.77681 
 C                    -1.09754   1.02739  -5.90822 
 N                     0.13789   0.53358  -6.04035 
 H                    -2.90456  -4.04003  -6.40123 
 C                    -2.37667  -3.08941  -6.32 
 N                    -1.0747   -2.9524   -6.38132 
 C                    -0.87545  -1.58764  -6.23142 
 C                    -4.50594  -1.6934   -6.02768 
 N                    -3.04978  -1.90573  -6.1396 
 
 ITRead=  0  0  0  0  0  0  0  0  0  0  0  0  0  0  0  0  0  0  0  0
 ITRead=  0  0  0  0  0  0  0  0  0  0  0  0  0  0  0  0  0  0  0  0
 ITRead=  0  0  0  0  0  0  0  0  0  0  0  0  0  0  0  0  0  0  0  0
 ITRead=  0  0  0  0  0  0  0  0  0  0
 MicOpt= -1 -1 -1 -1 -1 -1 -1 -1 -1 -1 -1 -1 -1 -1 -1 -1 -1 -1 -1 -1
 MicOpt= -1 -1 -1 -1 -1 -1 -1 -1 -1 -1 -1 -1 -1 -1 -1 -1 -1 -1 -1 -1
 MicOpt= -1 -1 -1 -1 -1 -1 -1 -1 -1 -1 -1 -1 -1 -1 -1 -1 -1 -1 -1 -1
 MicOpt= -1 -1 -1 -1 -1 -1 -1 -1 -1 -1
 NAtoms=     70 NQM=       70 NQMF=       0 NMMI=      0 NMMIF=      0
                NMic=       0 NMicF=      0.
                    Isotopes and Nuclear Properties:
 (Nuclear quadrupole moments (NQMom) in fm**2, nuclear magnetic moments (NMagM)
  in nuclear magnetons)

  Atom         1           2           3           4           5           6           7           8           9          10
 IAtWgt=          14          12          12          14          12           1          14          12           1          14
 AtmWgt=  14.0030740  12.0000000  12.0000000  14.0030740  12.0000000   1.0078250  14.0030740  12.0000000   1.0078250  14.0030740
 NucSpn=           2           0           0           2           0           1           2           0           1           2
 AtZEff=  -0.0000000  -0.0000000  -0.0000000  -0.0000000  -0.0000000  -0.0000000  -0.0000000  -0.0000000  -0.0000000  -0.0000000
 NQMom=    2.0440000   0.0000000   0.0000000   2.0440000   0.0000000   0.0000000   2.0440000   0.0000000   0.0000000   2.0440000
 NMagM=    0.4037610   0.0000000   0.0000000   0.4037610   0.0000000   2.7928460   0.4037610   0.0000000   2.7928460   0.4037610
 AtZNuc=   7.0000000   6.0000000   6.0000000   7.0000000   6.0000000   1.0000000   7.0000000   6.0000000   1.0000000   7.0000000

  Atom        11          12          13          14          15          16          17          18          19          20
 IAtWgt=          12          12          14           1           1           1           1           1          14          12
 AtmWgt=  12.0000000  12.0000000  14.0030740   1.0078250   1.0078250   1.0078250   1.0078250   1.0078250  14.0030740  12.0000000
 NucSpn=           0           0           2           1           1           1           1           1           2           0
 AtZEff=  -0.0000000  -0.0000000  -0.0000000  -0.0000000  -0.0000000  -0.0000000  -0.0000000  -0.0000000  -0.0000000  -0.0000000
 NQMom=    0.0000000   0.0000000   2.0440000   0.0000000   0.0000000   0.0000000   0.0000000   0.0000000   2.0440000   0.0000000
 NMagM=    0.0000000   0.0000000   0.4037610   2.7928460   2.7928460   2.7928460   2.7928460   2.7928460   0.4037610   0.0000000
 AtZNuc=   6.0000000   6.0000000   7.0000000   1.0000000   1.0000000   1.0000000   1.0000000   1.0000000   7.0000000   6.0000000

  Atom        21          22          23          24          25          26          27          28          29          30
 IAtWgt=          12          14           1           1          14          12          14           1          12          16
 AtmWgt=  12.0000000  14.0030740   1.0078250   1.0078250  14.0030740  12.0000000  14.0030740   1.0078250  12.0000000  15.9949146
 NucSpn=           0           2           1           1           2           0           2           1           0           0
 AtZEff=  -0.0000000  -0.0000000  -0.0000000  -0.0000000  -0.0000000  -0.0000000  -0.0000000  -0.0000000  -0.0000000  -0.0000000
 NQMom=    0.0000000   2.0440000   0.0000000   0.0000000   2.0440000   0.0000000   2.0440000   0.0000000   0.0000000   0.0000000
 NMagM=    0.0000000   0.4037610   2.7928460   2.7928460   0.4037610   0.0000000   0.4037610   2.7928460   0.0000000   0.0000000
 AtZNuc=   6.0000000   7.0000000   1.0000000   1.0000000   7.0000000   6.0000000   7.0000000   1.0000000   6.0000000   8.0000000

  Atom        31          32          33          34          35          36          37          38          39          40
 IAtWgt=          12          14          12           1           1           1           1           1           1           1
 AtmWgt=  12.0000000  14.0030740  12.0000000   1.0078250   1.0078250   1.0078250   1.0078250   1.0078250   1.0078250   1.0078250
 NucSpn=           0           2           0           1           1           1           1           1           1           1
 AtZEff=  -0.0000000  -0.0000000  -0.0000000  -0.0000000  -0.0000000  -0.0000000  -0.0000000  -0.0000000  -0.0000000  -0.0000000
 NQMom=    0.0000000   2.0440000   0.0000000   0.0000000   0.0000000   0.0000000   0.0000000   0.0000000   0.0000000   0.0000000
 NMagM=    0.0000000   0.4037610   0.0000000   2.7928460   2.7928460   2.7928460   2.7928460   2.7928460   2.7928460   2.7928460
 AtZNuc=   6.0000000   7.0000000   6.0000000   1.0000000   1.0000000   1.0000000   1.0000000   1.0000000   1.0000000   1.0000000

  Atom        41          42          43          44          45          46          47          48          49          50
 IAtWgt=           1          12          16          12           1          14          16          12           1          12
 AtmWgt=   1.0078250  12.0000000  15.9949146  12.0000000   1.0078250  14.0030740  15.9949146  12.0000000   1.0078250  12.0000000
 NucSpn=           1           0           0           0           1           2           0           0           1           0
 AtZEff=  -0.0000000  -0.0000000  -0.0000000  -0.0000000  -0.0000000  -0.0000000  -0.0000000  -0.0000000  -0.0000000  -0.0000000
 NQMom=    0.0000000   0.0000000   0.0000000   0.0000000   0.0000000   2.0440000   0.0000000   0.0000000   0.0000000   0.0000000
 NMagM=    2.7928460   0.0000000   0.0000000   0.0000000   2.7928460   0.4037610   0.0000000   0.0000000   2.7928460   0.0000000
 AtZNuc=   1.0000000   6.0000000   8.0000000   6.0000000   1.0000000   7.0000000   8.0000000   6.0000000   1.0000000   6.0000000

  Atom        51          52          53          54          55          56          57          58          59          60
 IAtWgt=          12          14           1           1           1           1           1          14          12          12
 AtmWgt=  12.0000000  14.0030740   1.0078250   1.0078250   1.0078250   1.0078250   1.0078250  14.0030740  12.0000000  12.0000000
 NucSpn=           0           2           1           1           1           1           1           2           0           0
 AtZEff=  -0.0000000  -0.0000000  -0.0000000  -0.0000000  -0.0000000  -0.0000000  -0.0000000  -0.0000000  -0.0000000  -0.0000000
 NQMom=    0.0000000   2.0440000   0.0000000   0.0000000   0.0000000   0.0000000   0.0000000   2.0440000   0.0000000   0.0000000
 NMagM=    0.0000000   0.4037610   2.7928460   2.7928460   2.7928460   2.7928460   2.7928460   0.4037610   0.0000000   0.0000000
 AtZNuc=   6.0000000   7.0000000   1.0000000   1.0000000   1.0000000   1.0000000   1.0000000   7.0000000   6.0000000   6.0000000

  Atom        61          62          63          64          65          66          67          68          69          70
 IAtWgt=          14           1          12          14           1          12          14          12          12          14
 AtmWgt=  14.0030740   1.0078250  12.0000000  14.0030740   1.0078250  12.0000000  14.0030740  12.0000000  12.0000000  14.0030740
 NucSpn=           2           1           0           2           1           0           2           0           0           2
 AtZEff=  -0.0000000  -0.0000000  -0.0000000  -0.0000000  -0.0000000  -0.0000000  -0.0000000  -0.0000000  -0.0000000  -0.0000000
 NQMom=    2.0440000   0.0000000   0.0000000   2.0440000   0.0000000   0.0000000   2.0440000   0.0000000   0.0000000   2.0440000
 NMagM=    0.4037610   2.7928460   0.0000000   0.4037610   2.7928460   0.0000000   0.4037610   0.0000000   0.0000000   0.4037610
 AtZNuc=   7.0000000   1.0000000   6.0000000   7.0000000   1.0000000   6.0000000   7.0000000   6.0000000   6.0000000   7.0000000
 Leave Link  101 at Thu Jan 18 15:30:39 2018, MaxMem=  4294967296 cpu:               5.4 elap:               0.2
 (Enter /share/apps/g16/l202.exe)
 Stoichiometry    C23H27N17O3
 Framework group  C1[X(C23H27N17O3)]
 Deg. of freedom   204
 Full point group                 C1      NOp   1
 Largest Abelian subgroup         C1      NOp   1
 Largest concise Abelian subgroup C1      NOp   1
                         Standard orientation:                         
 ---------------------------------------------------------------------
 Center     Atomic      Atomic             Coordinates (Angstroms)
 Number     Number       Type             X           Y           Z
 ---------------------------------------------------------------------
      1          7           0       -6.315882   -1.100686    0.571635
      2          6           0       -7.606743   -0.466697    0.902895
      3          6           0       -4.171737   -1.575247    0.450169
      4          7           0       -4.823754   -2.524535   -0.323429
      5          6           0       -6.089429   -2.200634   -0.219283
      6          1           0       -6.907876   -2.734630   -0.702947
      7          7           0       -2.499520   -0.329875    1.552748
      8          6           0       -3.487722    0.441160    2.018090
      9          1           0       -3.173431    1.262538    2.660602
     10          7           0       -4.799714    0.350338    1.809887
     11          6           0       -5.078369   -0.690890    1.008249
     12          6           0       -2.812531   -1.369394    0.748700
     13          7           0       -1.827476   -2.140202    0.283186
     14          1           0       -2.012938   -2.920532   -0.315069
     15          1           0       -0.871073   -1.964058    0.516442
     16          1           0       -8.194535   -1.128010    1.369091
     17          1           0       -7.449556    0.318213    1.501514
     18          1           0       -8.054543   -0.159061    0.063348
     19          7           0       -3.806051    1.731830   -1.199155
     20          6           0       -2.457862    1.853938   -0.963500
     21          6           0       -4.848694    2.641396   -0.683135
     22          7           0        0.197824    3.541239    0.506906
     23          1           0        1.192224    3.451744    0.555836
     24          1           0       -0.213085    4.310919    0.996262
     25          7           0       -1.863906    2.817603   -0.226879
     26          6           0       -0.551807    2.668824   -0.183650
     27          7           0        0.128519    1.654617   -0.812960
     28          1           0        1.132526    1.619270   -0.725287
     29          6           0       -0.462076    0.652274   -1.576094
     30          8           0        0.243195   -0.217530   -2.102186
     31          6           0       -1.871443    0.798794   -1.631764
     32          7           0       -2.832143    0.029739   -2.274044
     33          6           0       -3.961548    0.619642   -1.990044
     34          1           0       -4.940843    0.283992   -2.332973
     35          1           0       -5.489728    2.127566   -0.114045
     36          1           0       -4.420577    3.359399   -0.135914
     37          1           0       -5.340560    3.055480   -1.448256
     38          1           0        6.034242    1.633183    0.625908
     39          1           0        6.251465    2.393105   -0.948889
     40          1           0        4.765724    2.663800   -0.037471
     41          1           0        5.732497   -2.208105   -2.255073
     42          6           0        5.117535   -1.367235   -1.934134
     43          8           0        3.083205   -2.332413   -2.680498
     44          6           0        3.703611   -1.411107   -2.150344
     45          1           0        2.018481   -0.291349   -1.842438
     46          7           0        3.019675   -0.297094   -1.707108
     47          8           0        2.862551    1.751679   -0.740136
     48          6           0        3.550954    0.812333   -1.098471
     49          1           0        6.734762   -0.216395   -1.155715
     50          6           0        5.664963   -0.298810   -1.343048
     51          6           0        5.533507    1.943858   -0.278974
     52          7           0        4.920670    0.779964   -0.925150
     53          1           0        4.848248    1.459675    3.895844
     54          1           0        3.645953    2.135065    3.023830
     55          1           0        5.171974    2.132703    2.444761
     56          1           0        1.455627   -3.726105   -0.186240
     57          1           0        3.124535   -3.772224    0.164087
     58          7           0        2.258022   -3.273356    0.202764
     59          6           0        2.177194   -2.058361    0.749058
     60          6           0        3.034108   -0.124174    1.838251
     61          7           0        1.857182    0.522214    1.876305
     62          1           0       -0.090944    0.234066    1.308533
     63          6           0        0.900157   -0.217432    1.319605
     64          7           0        0.979103   -1.434555    0.771906
     65          1           0        6.195176   -0.600039    2.321360
     66          6           0        5.143370   -0.686162    2.047076
     67          7           0        4.612210   -1.723248    1.447093
     68          6           0        3.275145   -1.379963    1.308701
     69          6           0        4.498072    1.615123    2.972151
     70          7           0        4.245630    0.318649    2.313788
 ---------------------------------------------------------------------
 Rotational constants (GHZ):           0.1755621           0.0515991           0.0497841
 Leave Link  202 at Thu Jan 18 15:30:39 2018, MaxMem=  4294967296 cpu:               0.3 elap:               0.0
 (Enter /share/apps/g16/l301.exe)
 Standard basis: CC-pVDZ (5D, 7F)
 Ernie: Thresh=  0.10000D-02 Tol=  0.10000D-05 Strict=F.
 Ernie:  86 primitive shells out of 1081 were deleted.
 There are   780 symmetry adapted cartesian basis functions of A   symmetry.
 There are   737 symmetry adapted basis functions of A   symmetry.
   737 basis functions,  1608 primitive gaussians,   780 cartesian basis functions
   154 alpha electrons      154 beta electrons
       nuclear repulsion energy      5582.1285384063 Hartrees.
 IExCor= 4639 DFT=T Ex+Corr=wB97XD ExCW=0 ScaHFX=  1.000000
 ScaDFX=  1.000000  1.000000  1.000000  1.000000 ScalE2=  1.000000  1.000000
 IRadAn=      5 IRanWt=     -1 IRanGd=            0 ICorTp=0 IEmpDi=121
 HFx  wShort=  0.000000 wLong=  0.200000 cFull=  0.222036 cShort=  0.000000 cLong=  0.777964
 DFx  wShort=  0.000000 wLong=  0.200000 cFull=  0.000000 cShort=  0.000000 cLong=  1.000000
 NAtoms=   70 NActive=   70 NUniq=   70 SFac= 1.00D+00 NAtFMM=   60 NAOKFM=T Big=T
 Integral buffers will be    131072 words long.
 Raffenetti 2 integral format.
 Two-electron integral symmetry is turned on.
 R6Disp:  Grimme-D2 Dispersion energy=       -0.0782284778 Hartrees.
 Nuclear repulsion after empirical dispersion term =     5582.0503099284 Hartrees.
 Leave Link  301 at Thu Jan 18 15:30:39 2018, MaxMem=  4294967296 cpu:               2.1 elap:               0.1
 (Enter /share/apps/g16/l302.exe)
 NPDir=0 NMtPBC=     1 NCelOv=     1 NCel=       1 NClECP=     1 NCelD=      1
         NCelK=      1 NCelE2=     1 NClLst=     1 CellRange=     0.0.
 One-electron integrals computed using PRISM.
 One-electron integral symmetry used in STVInt
 NBasis=   737 RedAO= T EigKep=  7.10D-04  NBF=   737
 NBsUse=   737 1.00D-06 EigRej= -1.00D+00 NBFU=   737
 Precomputing XC quadrature grid using
 IXCGrd= 4 IRadAn=           5 IRanWt=          -1 IRanGd=           0 AccXCQ= 0.00D+00.
 Generated NRdTot=       0 NPtTot=           0 NUsed=           0 NTot=          32
 NSgBfM=   765   765   765   765   765 MxSgAt=    70 MxSgA2=    70.
 Leave Link  302 at Thu Jan 18 15:30:44 2018, MaxMem=  4294967296 cpu:             138.9 elap:               4.4
 (Enter /share/apps/g16/l303.exe)
 DipDrv:  MaxL=1.
 Leave Link  303 at Thu Jan 18 15:30:44 2018, MaxMem=  4294967296 cpu:              12.6 elap:               0.4
 (Enter /share/apps/g16/l401.exe)
 ExpMin= 1.22D-01 ExpMax= 1.17D+04 ExpMxC= 4.01D+02 IAcc=3 IRadAn=         5 AccDes= 0.00D+00
 Harris functional with IExCor= 4639 and IRadAn=       5 diagonalized for initial guess.
 HarFok:  IExCor= 4639 AccDes= 0.00D+00 IRadAn=         5 IDoV= 1 UseB2=F ITyADJ=14
 ICtDFT=  3500011 ScaDFX=  1.000000  1.000000  1.000000  1.000000
 FoFCou: FMM=F IPFlag=           0 FMFlag=      100000 FMFlg1=        2001
         NFxFlg=           0 DoJE=T BraDBF=F KetDBF=T FulRan=T
         wScrn=  0.000000 ICntrl=       500 IOpCl=  0 I1Cent=   200000004 NGrid=           0
         NMat0=    1 NMatS0=      1 NMatT0=    0 NMatD0=    1 NMtDS0=    0 NMtDT0=    0
 Petite list used in FoFCou.
 Harris En= -1963.89109104134    
 JPrj=0 DoOrth=F DoCkMO=F.
 Leave Link  401 at Thu Jan 18 15:30:57 2018, MaxMem=  4294967296 cpu:             411.8 elap:              12.9
 (Enter /share/apps/g16/l502.exe)
 Integral symmetry usage will be decided dynamically.
 Closed shell SCF:
 Using DIIS extrapolation, IDIIS=  1040.
 NGot=  4294967296 LenX=  4293717438 LenY=  4293108258
 Requested convergence on RMS density matrix=1.00D-08 within  20 cycles.
 Requested convergence on MAX density matrix=1.00D-06.
 Requested convergence on             energy=1.00D-06.
 No special actions if energy rises.
 Fock matrices will be formed incrementally for  20 cycles.
 Integral accuracy reduced to 1.0D-05 until final iterations.

 Cycle   1  Pass 0  IDiag  1:
 FoFJK:  IHMeth= 1 ICntrl=       0 DoSepK=T KAlg= 0 I1Cent=           0 FoldK=F
 IRaf=         1 NMat=       1 IRICut=       1 DoRegI=T DoRafI=F ISym2E= 0 IDoP0=0 IntGTp=1.
 FoFCou: FMM=T IPFlag=           0 FMFlag=      100000 FMFlg1=        2001
         NFxFlg=           0 DoJE=T BraDBF=F KetDBF=F FulRan=T
         wScrn=  0.000000 ICntrl=       500 IOpCl=  0 I1Cent=           0 NGrid=           0
         NMat0=    1 NMatS0=      1 NMatT0=    0 NMatD0=    1 NMtDS0=    0 NMtDT0=    0
 Symmetry not used in FoFCou.
 FMM levels:  10  Number of levels for PrismC:   9
 E= -2048.31467601836    
 DIIS: error= 2.40D-02 at cycle   1 NSaved=   1.
 NSaved= 1 IEnMin= 1 EnMin= -2048.31467601836     IErMin= 1 ErrMin= 2.40D-02
 ErrMax= 2.40D-02  0.00D+00 EMaxC= 1.00D-01 BMatC= 8.39D-01 BMatP= 8.39D-01
 IDIUse=3 WtCom= 7.60D-01 WtEn= 2.40D-01
 Coeff-Com:  0.100D+01
 Coeff-En:   0.100D+01
 Coeff:      0.100D+01
 Gap=     0.250 Goal=   None    Shift=    0.000
 GapD=    0.250 DampG=1.000 DampE=0.500 DampFc=0.5000 IDamp=-1.
 Damping current iteration by 5.00D-01
 RMSDP=1.61D-03 MaxDP=1.24D-01              OVMax= 1.93D-01

 Cycle   2  Pass 0  IDiag  1:
 RMSU=  8.05D-04    CP:  9.97D-01
 E= -2048.51161737349     Delta-E=       -0.196941355128 Rises=F Damp=T
 DIIS: error= 1.32D-02 at cycle   2 NSaved=   2.
 NSaved= 2 IEnMin= 2 EnMin= -2048.51161737349     IErMin= 2 ErrMin= 1.32D-02
 ErrMax= 1.32D-02  0.00D+00 EMaxC= 1.00D-01 BMatC= 1.47D-01 BMatP= 8.39D-01
 IDIUse=3 WtCom= 8.68D-01 WtEn= 1.32D-01
 Coeff-Com: -0.179D+00 0.118D+01
 Coeff-En:   0.000D+00 0.100D+01
 Coeff:     -0.155D+00 0.116D+01
 Gap=     0.357 Goal=   None    Shift=    0.000
 RMSDP=6.01D-04 MaxDP=3.40D-02 DE=-1.97D-01 OVMax= 1.46D-01

 Cycle   3  Pass 0  IDiag  1:
 RMSU=  5.95D-04    CP:  9.94D-01  1.09D+00
 E= -2048.69219353495     Delta-E=       -0.180576161459 Rises=F Damp=F
 DIIS: error= 8.17D-03 at cycle   3 NSaved=   3.
 NSaved= 3 IEnMin= 3 EnMin= -2048.69219353495     IErMin= 3 ErrMin= 8.17D-03
 ErrMax= 8.17D-03  0.00D+00 EMaxC= 1.00D-01 BMatC= 6.88D-02 BMatP= 1.47D-01
 IDIUse=3 WtCom= 9.18D-01 WtEn= 8.17D-02
 Coeff-Com: -0.230D+00 0.553D+00 0.677D+00
 Coeff-En:   0.000D+00 0.000D+00 0.100D+01
 Coeff:     -0.211D+00 0.508D+00 0.703D+00
 Gap=     0.277 Goal=   None    Shift=    0.000
 RMSDP=3.85D-04 MaxDP=3.08D-02 DE=-1.81D-01 OVMax= 7.77D-02

 Cycle   4  Pass 0  IDiag  1:
 RMSU=  2.14D-04    CP:  9.94D-01  1.40D+00  6.52D-01
 E= -2048.74407996302     Delta-E=       -0.051886428072 Rises=F Damp=F
 DIIS: error= 2.95D-03 at cycle   4 NSaved=   4.
 NSaved= 4 IEnMin= 4 EnMin= -2048.74407996302     IErMin= 4 ErrMin= 2.95D-03
 ErrMax= 2.95D-03  0.00D+00 EMaxC= 1.00D-01 BMatC= 1.04D-02 BMatP= 6.88D-02
 IDIUse=3 WtCom= 9.71D-01 WtEn= 2.95D-02
 Coeff-Com: -0.938D-01 0.182D+00 0.379D+00 0.534D+00
 Coeff-En:   0.000D+00 0.000D+00 0.843D-01 0.916D+00
 Coeff:     -0.911D-01 0.176D+00 0.370D+00 0.545D+00
 Gap=     0.282 Goal=   None    Shift=    0.000
 RMSDP=1.36D-04 MaxDP=1.16D-02 DE=-5.19D-02 OVMax= 1.50D-02

 Cycle   5  Pass 0  IDiag  1:
 RMSU=  6.18D-05    CP:  9.94D-01  1.36D+00  7.95D-01  6.19D-01
 E= -2048.75284906404     Delta-E=       -0.008769101024 Rises=F Damp=F
 DIIS: error= 6.15D-04 at cycle   5 NSaved=   5.
 NSaved= 5 IEnMin= 5 EnMin= -2048.75284906404     IErMin= 5 ErrMin= 6.15D-04
 ErrMax= 6.15D-04  0.00D+00 EMaxC= 1.00D-01 BMatC= 2.92D-04 BMatP= 1.04D-02
 IDIUse=3 WtCom= 9.94D-01 WtEn= 6.15D-03
 Coeff-Com: -0.234D-01 0.397D-01 0.119D+00 0.234D+00 0.630D+00
 Coeff-En:   0.000D+00 0.000D+00 0.000D+00 0.000D+00 0.100D+01
 Coeff:     -0.233D-01 0.394D-01 0.118D+00 0.233D+00 0.633D+00
 Gap=     0.282 Goal=   None    Shift=    0.000
 RMSDP=2.68D-05 MaxDP=1.78D-03 DE=-8.77D-03 OVMax= 3.38D-03

 Failed to achieve initial convergence to 1.0D-08 in  6 cycles.
 Switch to full accuracy anyway.
 Cycle   6  Pass 1  IDiag  1:
 E= -2048.75308137664     Delta-E=       -0.000232312601 Rises=F Damp=F
 DIIS: error= 2.40D-04 at cycle   1 NSaved=   1.
 NSaved= 1 IEnMin= 1 EnMin= -2048.75308137664     IErMin= 1 ErrMin= 2.40D-04
 ErrMax= 2.40D-04  0.00D+00 EMaxC= 1.00D-01 BMatC= 7.49D-05 BMatP= 7.49D-05
 IDIUse=3 WtCom= 9.98D-01 WtEn= 2.40D-03
 Coeff-Com:  0.100D+01
 Coeff-En:   0.100D+01
 Coeff:      0.100D+01
 Gap=     0.282 Goal=   None    Shift=    0.000
 RMSDP=2.68D-05 MaxDP=1.78D-03 DE=-2.32D-04 OVMax= 2.55D-03

 Cycle   7  Pass 1  IDiag  1:
 RMSU=  1.06D-04    CP:  1.00D+00
 E= -2048.75313482249     Delta-E=       -0.000053445849 Rises=F Damp=F
 DIIS: error= 2.57D-04 at cycle   2 NSaved=   2.
 NSaved= 2 IEnMin= 2 EnMin= -2048.75313482249     IErMin= 1 ErrMin= 2.40D-04
 ErrMax= 2.57D-04  0.00D+00 EMaxC= 1.00D-01 BMatC= 4.43D-05 BMatP= 7.49D-05
 IDIUse=3 WtCom= 9.97D-01 WtEn= 2.57D-03
 Coeff-Com:  0.412D+00 0.588D+00
 Coeff-En:   0.000D+00 0.100D+01
 Coeff:      0.411D+00 0.589D+00
 Gap=     0.283 Goal=   None    Shift=    0.000
 RMSDP=1.15D-05 MaxDP=1.07D-03 DE=-5.34D-05 OVMax= 1.55D-03

 Cycle   8  Pass 1  IDiag  1:
 RMSU=  1.13D-05    CP:  1.00D+00  1.02D+00
 E= -2048.75316745657     Delta-E=       -0.000032634074 Rises=F Damp=F
 DIIS: error= 1.08D-04 at cycle   3 NSaved=   3.
 NSaved= 3 IEnMin= 3 EnMin= -2048.75316745657     IErMin= 3 ErrMin= 1.08D-04
 ErrMax= 1.08D-04  0.00D+00 EMaxC= 1.00D-01 BMatC= 9.86D-06 BMatP= 4.43D-05
 IDIUse=3 WtCom= 9.99D-01 WtEn= 1.08D-03
 Coeff-Com: -0.190D-01 0.306D+00 0.713D+00
 Coeff-En:   0.000D+00 0.124D+00 0.876D+00
 Coeff:     -0.190D-01 0.306D+00 0.713D+00
 Gap=     0.283 Goal=   None    Shift=    0.000
 RMSDP=5.60D-06 MaxDP=4.58D-04 DE=-3.26D-05 OVMax= 5.15D-04

 Cycle   9  Pass 1  IDiag  1:
 RMSU=  3.86D-06    CP:  1.00D+00  1.05D+00  7.64D-01
 E= -2048.75317681300     Delta-E=       -0.000009356430 Rises=F Damp=F
 DIIS: error= 3.70D-05 at cycle   4 NSaved=   4.
 NSaved= 4 IEnMin= 4 EnMin= -2048.75317681300     IErMin= 4 ErrMin= 3.70D-05
 ErrMax= 3.70D-05  0.00D+00 EMaxC= 1.00D-01 BMatC= 5.17D-07 BMatP= 9.86D-06
 IDIUse=1 WtCom= 1.00D+00 WtEn= 0.00D+00
 Coeff-Com: -0.311D-01 0.839D-01 0.266D+00 0.681D+00
 Coeff:     -0.311D-01 0.839D-01 0.266D+00 0.681D+00
 Gap=     0.283 Goal=   None    Shift=    0.000
 RMSDP=1.46D-06 MaxDP=1.24D-04 DE=-9.36D-06 OVMax= 5.17D-04

 Cycle  10  Pass 1  IDiag  1:
 RMSU=  1.32D-06    CP:  1.00D+00  1.05D+00  7.99D-01  1.10D+00
 E= -2048.75317766106     Delta-E=       -0.000000848062 Rises=F Damp=F
 DIIS: error= 1.36D-05 at cycle   5 NSaved=   5.
 NSaved= 5 IEnMin= 5 EnMin= -2048.75317766106     IErMin= 5 ErrMin= 1.36D-05
 ErrMax= 1.36D-05  0.00D+00 EMaxC= 1.00D-01 BMatC= 1.28D-07 BMatP= 5.17D-07
 IDIUse=1 WtCom= 1.00D+00 WtEn= 0.00D+00
 Coeff-Com: -0.414D-02-0.518D-01-0.112D+00 0.223D+00 0.945D+00
 Coeff:     -0.414D-02-0.518D-01-0.112D+00 0.223D+00 0.945D+00
 Gap=     0.283 Goal=   None    Shift=    0.000
 RMSDP=1.20D-06 MaxDP=7.24D-05 DE=-8.48D-07 OVMax= 2.45D-04

 Cycle  11  Pass 1  IDiag  1:
 RMSU=  5.00D-07    CP:  1.00D+00  1.06D+00  8.08D-01  1.37D+00  1.15D+00
 E= -2048.75317792107     Delta-E=       -0.000000260010 Rises=F Damp=F
 DIIS: error= 8.85D-06 at cycle   6 NSaved=   6.
 NSaved= 6 IEnMin= 6 EnMin= -2048.75317792107     IErMin= 6 ErrMin= 8.85D-06
 ErrMax= 8.85D-06  0.00D+00 EMaxC= 1.00D-01 BMatC= 2.97D-08 BMatP= 1.28D-07
 IDIUse=1 WtCom= 1.00D+00 WtEn= 0.00D+00
 Coeff-Com:  0.460D-02-0.442D-01-0.116D+00 0.102D-02 0.508D+00 0.647D+00
 Coeff:      0.460D-02-0.442D-01-0.116D+00 0.102D-02 0.508D+00 0.647D+00
 Gap=     0.283 Goal=   None    Shift=    0.000
 RMSDP=3.90D-07 MaxDP=3.12D-05 DE=-2.60D-07 OVMax= 1.34D-04

 Cycle  12  Pass 1  IDiag  1:
 RMSU=  1.86D-07    CP:  1.00D+00  1.06D+00  8.10D-01  1.45D+00  1.29D+00
                    CP:  9.35D-01
 E= -2048.75317796490     Delta-E=       -0.000000043833 Rises=F Damp=F
 DIIS: error= 1.31D-06 at cycle   7 NSaved=   7.
 NSaved= 7 IEnMin= 7 EnMin= -2048.75317796490     IErMin= 7 ErrMin= 1.31D-06
 ErrMax= 1.31D-06  0.00D+00 EMaxC= 1.00D-01 BMatC= 8.48D-10 BMatP= 2.97D-08
 IDIUse=1 WtCom= 1.00D+00 WtEn= 0.00D+00
 Coeff-Com:  0.123D-02-0.828D-02-0.233D-01-0.784D-02 0.687D-01 0.152D+00
 Coeff-Com:  0.817D+00
 Coeff:      0.123D-02-0.828D-02-0.233D-01-0.784D-02 0.687D-01 0.152D+00
 Coeff:      0.817D+00
 Gap=     0.283 Goal=   None    Shift=    0.000
 RMSDP=8.45D-08 MaxDP=4.54D-06 DE=-4.38D-08 OVMax= 2.33D-05

 Cycle  13  Pass 1  IDiag  1:
 RMSU=  5.13D-08    CP:  1.00D+00  1.06D+00  8.09D-01  1.46D+00  1.30D+00
                    CP:  1.02D+00  1.14D+00
 E= -2048.75317796676     Delta-E=       -0.000000001862 Rises=F Damp=F
 DIIS: error= 6.09D-07 at cycle   8 NSaved=   8.
 NSaved= 8 IEnMin= 8 EnMin= -2048.75317796676     IErMin= 8 ErrMin= 6.09D-07
 ErrMax= 6.09D-07  0.00D+00 EMaxC= 1.00D-01 BMatC= 3.40D-10 BMatP= 8.48D-10
 IDIUse=1 WtCom= 1.00D+00 WtEn= 0.00D+00
 Coeff-Com: -0.701D-03 0.859D-02 0.214D-01-0.234D-02-0.110D+00-0.105D+00
 Coeff-Com:  0.411D+00 0.777D+00
 Coeff:     -0.701D-03 0.859D-02 0.214D-01-0.234D-02-0.110D+00-0.105D+00
 Coeff:      0.411D+00 0.777D+00
 Gap=     0.283 Goal=   None    Shift=    0.000
 RMSDP=4.91D-08 MaxDP=2.87D-06 DE=-1.86D-09 OVMax= 1.19D-05

 Cycle  14  Pass 1  IDiag  1:
 RMSU=  2.75D-08    CP:  1.00D+00  1.05D+00  8.09D-01  1.46D+00  1.31D+00
                    CP:  1.06D+00  1.29D+00  1.08D+00
 E= -2048.75317796730     Delta-E=       -0.000000000533 Rises=F Damp=F
 DIIS: error= 2.14D-07 at cycle   9 NSaved=   9.
 NSaved= 9 IEnMin= 9 EnMin= -2048.75317796730     IErMin= 9 ErrMin= 2.14D-07
 ErrMax= 2.14D-07  0.00D+00 EMaxC= 1.00D-01 BMatC= 2.84D-11 BMatP= 3.40D-10
 IDIUse=1 WtCom= 1.00D+00 WtEn= 0.00D+00
 Coeff-Com: -0.411D-03 0.434D-02 0.111D-01 0.447D-04-0.510D-01-0.587D-01
 Coeff-Com:  0.764D-01 0.292D+00 0.727D+00
 Coeff:     -0.411D-03 0.434D-02 0.111D-01 0.447D-04-0.510D-01-0.587D-01
 Coeff:      0.764D-01 0.292D+00 0.727D+00
 Gap=     0.283 Goal=   None    Shift=    0.000
 RMSDP=1.37D-08 MaxDP=7.98D-07 DE=-5.33D-10 OVMax= 3.52D-06

 Cycle  15  Pass 1  IDiag  1:
 RMSU=  9.06D-09    CP:  1.00D+00  1.06D+00  8.09D-01  1.46D+00  1.31D+00
                    CP:  1.07D+00  1.32D+00  1.21D+00  1.14D+00
 E= -2048.75317796723     Delta-E=        0.000000000062 Rises=F Damp=F
 DIIS: error= 6.84D-08 at cycle  10 NSaved=  10.
 NSaved=10 IEnMin= 9 EnMin= -2048.75317796730     IErMin=10 ErrMin= 6.84D-08
 ErrMax= 6.84D-08  0.00D+00 EMaxC= 1.00D-01 BMatC= 4.68D-12 BMatP= 2.84D-11
 IDIUse=1 WtCom= 1.00D+00 WtEn= 0.00D+00
 Coeff-Com:  0.827D-05-0.333D-03-0.736D-03 0.204D-03 0.563D-02 0.205D-02
 Coeff-Com: -0.511D-01-0.630D-01 0.253D+00 0.854D+00
 Coeff:      0.827D-05-0.333D-03-0.736D-03 0.204D-03 0.563D-02 0.205D-02
 Coeff:     -0.511D-01-0.630D-01 0.253D+00 0.854D+00
 Gap=     0.283 Goal=   None    Shift=    0.000
 RMSDP=6.53D-09 MaxDP=3.43D-07 DE= 6.18D-11 OVMax= 1.45D-06

 SCF Done:  E(RwB97XD) =  -2048.75317797     A.U. after   15 cycles
            NFock= 15  Conv=0.65D-08     -V/T= 2.0054
 KE= 2.037746199896D+03 PE=-1.594484282838D+04 EE= 6.276293140587D+03
 Leave Link  502 at Thu Jan 18 15:43:05 2018, MaxMem=  4294967296 cpu:           22454.0 elap:             728.2
 (Enter /share/apps/g16/l601.exe)
 Copying SCF densities to generalized density rwf, IOpCl= 0 IROHF=0.

 **********************************************************************

            Population analysis using the SCF density.

 **********************************************************************

 Orbital symmetries:
       Occupied  (A) (A) (A) (A) (A) (A) (A) (A) (A) (A) (A) (A)
                 (A) (A) (A) (A) (A) (A) (A) (A) (A) (A) (A) (A)
                 (A) (A) (A) (A) (A) (A) (A) (A) (A) (A) (A) (A)
                 (A) (A) (A) (A) (A) (A) (A) (A) (A) (A) (A) (A)
                 (A) (A) (A) (A) (A) (A) (A) (A) (A) (A) (A) (A)
                 (A) (A) (A) (A) (A) (A) (A) (A) (A) (A) (A) (A)
                 (A) (A) (A) (A) (A) (A) (A) (A) (A) (A) (A) (A)
                 (A) (A) (A) (A) (A) (A) (A) (A) (A) (A) (A) (A)
                 (A) (A) (A) (A) (A) (A) (A) (A) (A) (A) (A) (A)
                 (A) (A) (A) (A) (A) (A) (A) (A) (A) (A) (A) (A)
                 (A) (A) (A) (A) (A) (A) (A) (A) (A) (A) (A) (A)
                 (A) (A) (A) (A) (A) (A) (A) (A) (A) (A) (A) (A)
                 (A) (A) (A) (A) (A) (A) (A) (A) (A) (A)
       Virtual   (A) (A) (A) (A) (A) (A) (A) (A) (A) (A) (A) (A)
                 (A) (A) (A) (A) (A) (A) (A) (A) (A) (A) (A) (A)
                 (A) (A) (A) (A) (A) (A) (A) (A) (A) (A) (A) (A)
                 (A) (A) (A) (A) (A) (A) (A) (A) (A) (A) (A) (A)
                 (A) (A) (A) (A) (A) (A) (A) (A) (A) (A) (A) (A)
                 (A) (A) (A) (A) (A) (A) (A) (A) (A) (A) (A) (A)
                 (A) (A) (A) (A) (A) (A) (A) (A) (A) (A) (A) (A)
                 (A) (A) (A) (A) (A) (A) (A) (A) (A) (A) (A) (A)
                 (A) (A) (A) (A) (A) (A) (A) (A) (A) (A) (A) (A)
                 (A) (A) (A) (A) (A) (A) (A) (A) (A) (A) (A) (A)
                 (A) (A) (A) (A) (A) (A) (A) (A) (A) (A) (A) (A)
                 (A) (A) (A) (A) (A) (A) (A) (A) (A) (A) (A) (A)
                 (A) (A) (A) (A) (A) (A) (A) (A) (A) (A) (A) (A)
                 (A) (A) (A) (A) (A) (A) (A) (A) (A) (A) (A) (A)
                 (A) (A) (A) (A) (A) (A) (A) (A) (A) (A) (A) (A)
                 (A) (A) (A) (A) (A) (A) (A) (A) (A) (A) (A) (A)
                 (A) (A) (A) (A) (A) (A) (A) (A) (A) (A) (A) (A)
                 (A) (A) (A) (A) (A) (A) (A) (A) (A) (A) (A) (A)
                 (A) (A) (A) (A) (A) (A) (A) (A) (A) (A) (A) (A)
                 (A) (A) (A) (A) (A) (A) (A) (A) (A) (A) (A) (A)
                 (A) (A) (A) (A) (A) (A) (A) (A) (A) (A) (A) (A)
                 (A) (A) (A) (A) (A) (A) (A) (A) (A) (A) (A) (A)
                 (A) (A) (A) (A) (A) (A) (A) (A) (A) (A) (A) (A)
                 (A) (A) (A) (A) (A) (A) (A) (A) (A) (A) (A) (A)
                 (A) (A) (A) (A) (A) (A) (A) (A) (A) (A) (A) (A)
                 (A) (A) (A) (A) (A) (A) (A) (A) (A) (A) (A) (A)
                 (A) (A) (A) (A) (A) (A) (A) (A) (A) (A) (A) (A)
                 (A) (A) (A) (A) (A) (A) (A) (A) (A) (A) (A) (A)
                 (A) (A) (A) (A) (A) (A) (A) (A) (A) (A) (A) (A)
                 (A) (A) (A) (A) (A) (A) (A) (A) (A) (A) (A) (A)
                 (A) (A) (A) (A) (A) (A) (A) (A) (A) (A) (A) (A)
                 (A) (A) (A) (A) (A) (A) (A) (A) (A) (A) (A) (A)
                 (A) (A) (A) (A) (A) (A) (A) (A) (A) (A) (A) (A)
                 (A) (A) (A) (A) (A) (A) (A) (A) (A) (A) (A) (A)
                 (A) (A) (A) (A) (A) (A) (A) (A) (A) (A) (A) (A)
                 (A) (A) (A) (A) (A) (A) (A) (A) (A) (A) (A) (A)
                 (A) (A) (A) (A) (A) (A) (A) (A) (A) (A) (A) (A)
                 (A) (A) (A) (A) (A) (A) (A) (A) (A) (A) (A) (A)
                 (A) (A) (A) (A) (A) (A) (A) (A) (A) (A) (A) (A)
                 (A) (A) (A) (A) (A) (A) (A) (A) (A) (A) (A) (A)
                 (A) (A) (A) (A) (A) (A) (A) (A) (A) (A) (A) (A)
                 (A) (A) (A) (A) (A) (A) (A) (A) (A) (A) (A) (A)
                 (A) (A) (A) (A) (A) (A) (A) (A) (A) (A) (A) (A)
                 (A) (A) (A) (A) (A) (A) (A) (A) (A) (A) (A) (A)
                 (A) (A) (A) (A) (A) (A) (A) (A) (A) (A) (A) (A)
                 (A) (A) (A) (A) (A) (A) (A) (A) (A) (A) (A) (A)
                 (A) (A) (A) (A) (A) (A) (A) (A) (A) (A) (A) (A)
                 (A) (A) (A) (A) (A) (A) (A) (A) (A) (A) (A) (A)
                 (A) (A) (A) (A) (A) (A) (A)
 The electronic state is 1-A.
 Alpha  occ. eigenvalues --  -19.25700 -19.21870 -19.20573 -14.52421 -14.51866
 Alpha  occ. eigenvalues --  -14.49679 -14.48496 -14.47647 -14.46852 -14.46758
 Alpha  occ. eigenvalues --  -14.46453 -14.44734 -14.43455 -14.43310 -14.42846
 Alpha  occ. eigenvalues --  -14.42206 -14.41832 -14.41754 -14.40912 -14.40617
 Alpha  occ. eigenvalues --  -10.45355 -10.41039 -10.39924 -10.38919 -10.38107
 Alpha  occ. eigenvalues --  -10.37479 -10.37284 -10.36409 -10.36150 -10.35760
 Alpha  occ. eigenvalues --  -10.34999 -10.34889 -10.34180 -10.34111 -10.33780
 Alpha  occ. eigenvalues --  -10.33689 -10.33133 -10.31890 -10.31800 -10.30696
 Alpha  occ. eigenvalues --  -10.30232 -10.29326 -10.27887  -1.19341  -1.14515
 Alpha  occ. eigenvalues --   -1.13082  -1.12878  -1.12220  -1.10391  -1.09255
 Alpha  occ. eigenvalues --   -1.08419  -1.08256  -1.05754  -1.03780  -1.02391
 Alpha  occ. eigenvalues --   -1.01179  -1.00256  -0.99552  -0.98363  -0.97778
 Alpha  occ. eigenvalues --   -0.96296  -0.95875  -0.93397  -0.90805  -0.86979
 Alpha  occ. eigenvalues --   -0.85422  -0.84776  -0.83911  -0.83797  -0.83146
 Alpha  occ. eigenvalues --   -0.82085  -0.78715  -0.76219  -0.74427  -0.73994
 Alpha  occ. eigenvalues --   -0.73660  -0.73466  -0.73227  -0.71818  -0.69593
 Alpha  occ. eigenvalues --   -0.67191  -0.67063  -0.66411  -0.65913  -0.64347
 Alpha  occ. eigenvalues --   -0.63590  -0.63564  -0.63297  -0.62497  -0.61551
 Alpha  occ. eigenvalues --   -0.61320  -0.60935  -0.59791  -0.59339  -0.58832
 Alpha  occ. eigenvalues --   -0.58177  -0.57861  -0.57579  -0.57265  -0.56289
 Alpha  occ. eigenvalues --   -0.56036  -0.55810  -0.55132  -0.54692  -0.54247
 Alpha  occ. eigenvalues --   -0.53686  -0.53411  -0.52902  -0.52743  -0.52594
 Alpha  occ. eigenvalues --   -0.52476  -0.52101  -0.52064  -0.51474  -0.50960
 Alpha  occ. eigenvalues --   -0.49924  -0.49867  -0.49352  -0.49110  -0.48958
 Alpha  occ. eigenvalues --   -0.48580  -0.48285  -0.48040  -0.47690  -0.47438
 Alpha  occ. eigenvalues --   -0.47282  -0.45706  -0.45372  -0.44006  -0.43231
 Alpha  occ. eigenvalues --   -0.41912  -0.39974  -0.39312  -0.37934  -0.37131
 Alpha  occ. eigenvalues --   -0.37125  -0.37077  -0.36807  -0.35841  -0.34385
 Alpha  occ. eigenvalues --   -0.34292  -0.33978  -0.33809  -0.33465  -0.33079
 Alpha  occ. eigenvalues --   -0.32551  -0.32125  -0.31722  -0.31634  -0.31530
 Alpha  occ. eigenvalues --   -0.31140  -0.28862  -0.26565  -0.25210
 Alpha virt. eigenvalues --    0.03057   0.04930   0.07145   0.07637   0.08826
 Alpha virt. eigenvalues --    0.09004   0.09927   0.10324   0.10988   0.11952
 Alpha virt. eigenvalues --    0.13249   0.13336   0.14170   0.14695   0.15022
 Alpha virt. eigenvalues --    0.15149   0.16212   0.17469   0.18245   0.18331
 Alpha virt. eigenvalues --    0.18643   0.19254   0.19497   0.19590   0.19867
 Alpha virt. eigenvalues --    0.20581   0.21007   0.21302   0.21740   0.22449
 Alpha virt. eigenvalues --    0.22811   0.22878   0.23206   0.23434   0.23724
 Alpha virt. eigenvalues --    0.24141   0.24439   0.25164   0.25750   0.25791
 Alpha virt. eigenvalues --    0.26292   0.26632   0.27464   0.27836   0.27997
 Alpha virt. eigenvalues --    0.28579   0.28987   0.29652   0.30007   0.30401
 Alpha virt. eigenvalues --    0.31446   0.31519   0.32495   0.33263   0.33560
 Alpha virt. eigenvalues --    0.34142   0.34445   0.35123   0.35962   0.36215
 Alpha virt. eigenvalues --    0.36680   0.37372   0.38021   0.38618   0.39591
 Alpha virt. eigenvalues --    0.40063   0.40505   0.40733   0.41320   0.41803
 Alpha virt. eigenvalues --    0.42002   0.42364   0.42970   0.43535   0.43923
 Alpha virt. eigenvalues --    0.44802   0.45468   0.45992   0.46279   0.46733
 Alpha virt. eigenvalues --    0.47606   0.47816   0.48569   0.48846   0.49916
 Alpha virt. eigenvalues --    0.50084   0.50157   0.50814   0.51248   0.51554
 Alpha virt. eigenvalues --    0.51765   0.52318   0.52683   0.53125   0.53698
 Alpha virt. eigenvalues --    0.53944   0.54360   0.54785   0.54962   0.55406
 Alpha virt. eigenvalues --    0.55932   0.56092   0.56755   0.57043   0.57348
 Alpha virt. eigenvalues --    0.57812   0.57869   0.59137   0.59483   0.59754
 Alpha virt. eigenvalues --    0.60064   0.60307   0.60515   0.61402   0.61718
 Alpha virt. eigenvalues --    0.62009   0.62148   0.63050   0.63611   0.63723
 Alpha virt. eigenvalues --    0.64178   0.64333   0.65286   0.65577   0.65860
 Alpha virt. eigenvalues --    0.66111   0.66299   0.67123   0.67414   0.67715
 Alpha virt. eigenvalues --    0.67891   0.68667   0.68997   0.69792   0.70090
 Alpha virt. eigenvalues --    0.70778   0.70977   0.71201   0.72135   0.72687
 Alpha virt. eigenvalues --    0.73104   0.73218   0.73576   0.73833   0.74378
 Alpha virt. eigenvalues --    0.74524   0.74791   0.75130   0.75394   0.76050
 Alpha virt. eigenvalues --    0.76197   0.76469   0.76627   0.76640   0.77765
 Alpha virt. eigenvalues --    0.78331   0.78416   0.78903   0.79162   0.79316
 Alpha virt. eigenvalues --    0.79662   0.79931   0.80223   0.80795   0.81136
 Alpha virt. eigenvalues --    0.82078   0.82313   0.82617   0.83136   0.83331
 Alpha virt. eigenvalues --    0.83946   0.84168   0.84768   0.84991   0.85688
 Alpha virt. eigenvalues --    0.85897   0.86560   0.86770   0.87482   0.88165
 Alpha virt. eigenvalues --    0.88802   0.89101   0.89148   0.90248   0.90498
 Alpha virt. eigenvalues --    0.91144   0.91989   0.92334   0.93061   0.93450
 Alpha virt. eigenvalues --    0.93854   0.94335   0.94577   0.94765   0.95609
 Alpha virt. eigenvalues --    0.95912   0.96453   0.96935   0.97271   0.97396
 Alpha virt. eigenvalues --    0.97757   0.98074   0.98542   0.99141   0.99339
 Alpha virt. eigenvalues --    1.00010   1.00171   1.00985   1.01136   1.01797
 Alpha virt. eigenvalues --    1.01956   1.02277   1.03100   1.03401   1.03792
 Alpha virt. eigenvalues --    1.04093   1.04258   1.05102   1.05433   1.05552
 Alpha virt. eigenvalues --    1.06024   1.07158   1.07903   1.08320   1.08706
 Alpha virt. eigenvalues --    1.09210   1.09666   1.10638   1.10662   1.11005
 Alpha virt. eigenvalues --    1.11495   1.12172   1.12742   1.13169   1.13380
 Alpha virt. eigenvalues --    1.13691   1.14969   1.15434   1.15830   1.16265
 Alpha virt. eigenvalues --    1.16586   1.17365   1.17419   1.17835   1.18023
 Alpha virt. eigenvalues --    1.18698   1.18774   1.19588   1.19865   1.20238
 Alpha virt. eigenvalues --    1.20628   1.20970   1.21168   1.21597   1.22028
 Alpha virt. eigenvalues --    1.22424   1.22504   1.22883   1.23847   1.24287
 Alpha virt. eigenvalues --    1.24754   1.25149   1.25389   1.25496   1.26311
 Alpha virt. eigenvalues --    1.26356   1.26936   1.27423   1.27836   1.28084
 Alpha virt. eigenvalues --    1.29041   1.29929   1.30221   1.30794   1.31581
 Alpha virt. eigenvalues --    1.31999   1.32633   1.33223   1.34368   1.34518
 Alpha virt. eigenvalues --    1.34973   1.35633   1.35853   1.36667   1.37063
 Alpha virt. eigenvalues --    1.38062   1.38874   1.39757   1.39856   1.41123
 Alpha virt. eigenvalues --    1.41531   1.42659   1.43231   1.44312   1.44705
 Alpha virt. eigenvalues --    1.45337   1.46472   1.47546   1.48205   1.48698
 Alpha virt. eigenvalues --    1.48940   1.49353   1.50084   1.50808   1.51370
 Alpha virt. eigenvalues --    1.51994   1.53103   1.53504   1.54486   1.55235
 Alpha virt. eigenvalues --    1.55944   1.56554   1.56802   1.57736   1.58495
 Alpha virt. eigenvalues --    1.59064   1.60096   1.60634   1.61065   1.61794
 Alpha virt. eigenvalues --    1.62050   1.63094   1.63409   1.64045   1.64529
 Alpha virt. eigenvalues --    1.65345   1.65961   1.66531   1.67108   1.67439
 Alpha virt. eigenvalues --    1.67968   1.68379   1.68795   1.69108   1.69303
 Alpha virt. eigenvalues --    1.70647   1.70997   1.71455   1.71687   1.72200
 Alpha virt. eigenvalues --    1.72361   1.72888   1.73263   1.73732   1.74126
 Alpha virt. eigenvalues --    1.74721   1.74937   1.75413   1.75649   1.75807
 Alpha virt. eigenvalues --    1.76190   1.76866   1.77082   1.77242   1.77579
 Alpha virt. eigenvalues --    1.78510   1.78938   1.79017   1.79293   1.79521
 Alpha virt. eigenvalues --    1.80006   1.80203   1.80819   1.81035   1.81062
 Alpha virt. eigenvalues --    1.81963   1.82329   1.82938   1.83039   1.83313
 Alpha virt. eigenvalues --    1.83680   1.84438   1.84897   1.85055   1.85568
 Alpha virt. eigenvalues --    1.85933   1.86316   1.86863   1.87174   1.87638
 Alpha virt. eigenvalues --    1.88276   1.88723   1.89080   1.89424   1.89925
 Alpha virt. eigenvalues --    1.90012   1.90685   1.91393   1.91619   1.92034
 Alpha virt. eigenvalues --    1.92698   1.92898   1.93571   1.94112   1.94953
 Alpha virt. eigenvalues --    1.95434   1.95732   1.97046   1.97162   1.98689
 Alpha virt. eigenvalues --    1.99834   2.00120   2.00820   2.01387   2.01952
 Alpha virt. eigenvalues --    2.02263   2.02592   2.03303   2.03862   2.04502
 Alpha virt. eigenvalues --    2.05005   2.05430   2.06642   2.07784   2.08523
 Alpha virt. eigenvalues --    2.08754   2.09280   2.09730   2.10381   2.10800
 Alpha virt. eigenvalues --    2.11634   2.12077   2.12517   2.13481   2.14161
 Alpha virt. eigenvalues --    2.14375   2.15307   2.16497   2.17863   2.18700
 Alpha virt. eigenvalues --    2.19156   2.19727   2.20412   2.21083   2.21175
 Alpha virt. eigenvalues --    2.22762   2.22866   2.23701   2.24165   2.24937
 Alpha virt. eigenvalues --    2.25538   2.25695   2.26558   2.26820   2.27220
 Alpha virt. eigenvalues --    2.27505   2.28056   2.28936   2.29718   2.30077
 Alpha virt. eigenvalues --    2.30753   2.31614   2.31881   2.32473   2.32855
 Alpha virt. eigenvalues --    2.33332   2.33740   2.34025   2.34569   2.35139
 Alpha virt. eigenvalues --    2.35605   2.36035   2.36715   2.36909   2.37730
 Alpha virt. eigenvalues --    2.38800   2.39399   2.40017   2.41137   2.41390
 Alpha virt. eigenvalues --    2.41689   2.42787   2.43648   2.43913   2.44528
 Alpha virt. eigenvalues --    2.45369   2.45605   2.46261   2.46405   2.47033
 Alpha virt. eigenvalues --    2.47649   2.48607   2.49670   2.50228   2.51861
 Alpha virt. eigenvalues --    2.52465   2.54927   2.55764   2.55906   2.56625
 Alpha virt. eigenvalues --    2.57650   2.57950   2.59105   2.59690   2.60581
 Alpha virt. eigenvalues --    2.61646   2.62155   2.62671   2.63674   2.64231
 Alpha virt. eigenvalues --    2.65114   2.65599   2.66099   2.66563   2.66799
 Alpha virt. eigenvalues --    2.67547   2.68223   2.68639   2.69686   2.70160
 Alpha virt. eigenvalues --    2.71188   2.71750   2.72373   2.73135   2.73403
 Alpha virt. eigenvalues --    2.74437   2.74774   2.75373   2.76493   2.77045
 Alpha virt. eigenvalues --    2.78766   2.78863   2.79164   2.79441   2.79987
 Alpha virt. eigenvalues --    2.80378   2.80690   2.81299   2.81824   2.82169
 Alpha virt. eigenvalues --    2.82441   2.82915   2.83107   2.84079   2.85138
 Alpha virt. eigenvalues --    2.85337   2.86388   2.86745   2.87046   2.87338
 Alpha virt. eigenvalues --    2.88378   2.88464   2.89577   2.93766   2.94359
 Alpha virt. eigenvalues --    2.95071   2.96101   2.96567   2.98242   2.99130
 Alpha virt. eigenvalues --    2.99649   3.00485   3.02617   3.05060   3.06261
 Alpha virt. eigenvalues --    3.06726   3.09960   3.10764   3.13706   3.14743
 Alpha virt. eigenvalues --    3.15957   3.16225   3.17428   3.18845   3.21051
 Alpha virt. eigenvalues --    3.22789   3.23119   3.23517   3.24204   3.28152
 Alpha virt. eigenvalues --    3.45706   3.47232   3.47866   3.49918   3.50492
 Alpha virt. eigenvalues --    3.52976   3.55125   3.56479   3.57993   3.60239
 Alpha virt. eigenvalues --    3.63732   3.70731   3.75202
          Condensed to atoms (all electrons):
 Mulliken charges:
               1
     1  N   -0.310306
     2  C    0.178358
     3  C    0.051156
     4  N   -0.248117
     5  C    0.124356
     6  H    0.028361
     7  N   -0.281104
     8  C    0.134264
     9  H    0.015256
    10  N   -0.291124
    11  C    0.232456
    12  C    0.094137
    13  N   -0.040634
    14  H    0.110744
    15  H    0.091000
    16  H    0.029873
    17  H    0.036698
    18  H    0.023467
    19  N   -0.296294
    20  C    0.249270
    21  C    0.185619
    22  N   -0.115373
    23  H    0.114755
    24  H    0.116759
    25  N   -0.302862
    26  C    0.228663
    27  N   -0.142360
    28  H    0.126275
    29  C    0.167467
    30  O   -0.324763
    31  C   -0.008405
    32  N   -0.222608
    33  C    0.126112
    34  H    0.022118
    35  H    0.017787
    36  H    0.028402
    37  H    0.019620
    38  H    0.040840
    39  H    0.064379
    40  H    0.077167
    41  H    0.026267
    42  C   -0.081931
    43  O   -0.272013
    44  C    0.165705
    45  H    0.134675
    46  N   -0.123740
    47  O   -0.341356
    48  C    0.336521
    49  H    0.042170
    50  C    0.168116
    51  C    0.041395
    52  N   -0.277289
    53  H    0.034465
    54  H    0.039715
    55  H    0.005471
    56  H    0.121923
    57  H    0.119034
    58  N   -0.045009
    59  C    0.110839
    60  C    0.222716
    61  N   -0.268875
    62  H    0.036343
    63  C    0.152059
    64  N   -0.304043
    65  H    0.031477
    66  C    0.113258
    67  N   -0.243642
    68  C    0.016606
    69  C    0.184893
    70  N   -0.297162
 Sum of Mulliken charges =  -0.00000
 Mulliken charges with hydrogens summed into heavy atoms:
               1
     1  N   -0.310306
     2  C    0.268397
     3  C    0.051156
     4  N   -0.248117
     5  C    0.152717
     7  N   -0.281104
     8  C    0.149520
    10  N   -0.291124
    11  C    0.232456
    12  C    0.094137
    13  N    0.161111
    19  N   -0.296294
    20  C    0.249270
    21  C    0.251428
    22  N    0.116141
    25  N   -0.302862
    26  C    0.228663
    27  N   -0.016085
    29  C    0.167467
    30  O   -0.324763
    31  C   -0.008405
    32  N   -0.222608
    33  C    0.148230
    42  C   -0.055663
    43  O   -0.272013
    44  C    0.165705
    46  N    0.010935
    47  O   -0.341356
    48  C    0.336521
    50  C    0.210286
    51  C    0.223781
    52  N   -0.277289
    58  N    0.195948
    59  C    0.110839
    60  C    0.222716
    61  N   -0.268875
    63  C    0.188402
    64  N   -0.304043
    66  C    0.144735
    67  N   -0.243642
    68  C    0.016606
    69  C    0.264544
    70  N   -0.297162
 Electronic spatial extent (au):  <R**2>=          22369.8981
 Charge=             -0.0000 electrons
 Dipole moment (field-independent basis, Debye):
    X=              4.9865    Y=              5.4435    Z=              4.8108  Tot=              8.8114
 Quadrupole moment (field-independent basis, Debye-Ang):
   XX=           -143.9922   YY=           -224.8696   ZZ=           -260.1916
   XY=             12.2746   XZ=             14.0193   YZ=             -0.3868
 Traceless Quadrupole moment (field-independent basis, Debye-Ang):
   XX=             65.6923   YY=            -15.1852   ZZ=            -50.5071
   XY=             12.2746   XZ=             14.0193   YZ=             -0.3868
 Octapole moment (field-independent basis, Debye-Ang**2):
  XXX=            -65.4936  YYY=             25.9656  ZZZ=             57.3341  XYY=             33.6142
  XXY=             91.4571  XXZ=              9.2292  XZZ=             48.0786  YZZ=             55.1681
  YYZ=             28.7765  XYZ=             30.4715
 Hexadecapole moment (field-independent basis, Debye-Ang**3):
 XXXX=         -16039.0322 YYYY=          -3770.7989 ZZZZ=          -3458.8059 XXXY=            577.6957
 XXXZ=            213.1673 YYYX=            -59.2198 YYYZ=            138.0943 ZZZX=            183.0905
 ZZZY=              0.8162 XXYY=          -4191.7592 XXZZ=          -4082.1105 YYZZ=          -1311.6246
 XXYZ=             40.5480 YYXZ=             53.6894 ZZXY=            121.6050
 N-N= 5.582050309928D+03 E-N=-1.594484282788D+04  KE= 2.037746199896D+03
 No NMR shielding tensors so no spin-rotation constants.
 Leave Link  601 at Thu Jan 18 15:43:07 2018, MaxMem=  4294967296 cpu:              44.8 elap:               1.6
 (Enter /share/apps/g16/l9999.exe)
 1\1\GINC-COMPUTE-0-3\SP\RwB97XD\CC-pVDZ\C23H27N17O3\SATYA\18-Jan-2018\
 0\\#p wb97xd/cc-pvdz sp scf=(maxcycles=20)\\Base pair stacking\\0,1\N,
 0,2.18344,7.53348,-6.47105\C,0,1.89564,8.97731,-6.57363\C,0,1.97727,5.
 34573,-6.37851\N,0,3.33339,5.61312,-6.25948\C,0,3.40332,6.92046,-6.32\
 H,0,4.32783,7.49536,-6.25909\N,0,-0.09418,4.22727,-6.52372\C,0,-0.6524
 ,5.43652,-6.6407\H,0,-1.73635,5.43999,-6.74702\N,0,-0.07539,6.6365,-6.
 64603\C,0,1.25583,6.51955,-6.50964\C,0,1.24731,4.14323,-6.38803\N,0,1.
 80639,2.93702,-6.27112\H,0,2.79568,2.82741,-6.1686\H,0,1.25574,2.10227
 ,-6.28203\H,0,2.36996,9.35753,-7.36775\H,0,0.91105,9.11516,-6.67715\H,
 0,2.21029,9.44167,-5.74576\N,0,0.03932,5.92747,-3.26456\C,0,-0.58784,4
 .70488,-3.26328\C,0,-0.6398,7.23519,-3.36129\N,0,-3.50077,2.81855,-3.3
 9872\H,0,-3.75515,1.85201,-3.38065\H,0,-4.24522,3.48228,-3.47605\N,0,-
 1.91914,4.49451,-3.34948\C,0,-2.21921,3.2081,-3.32272\N,0,-1.28826,2.2
 0303,-3.21948\H,0,-1.60889,1.247,-3.20649\C,0,0.08667,2.39629,-3.12957
 \O,0,0.8412,1.41988,-3.03986\C,0,0.42439,3.77327,-3.15705\N,0,1.66213,
 4.39841,-3.09292\C,0,1.38491,5.67232,-3.16\H,0,2.12681,6.47129,-3.1373
 8\H,0,-0.3205,7.71906,-4.17537\H,0,-1.62652,7.092,-3.42565\H,0,-0.4354
 1,7.77971,-2.54856\H,0,-3.79382,-3.29996,-3.84208\H,0,-3.67168,-3.3726
 7,-2.08582\H,0,-3.90247,-1.81946,-2.88935\H,0,0.85816,-4.41407,-3.3278
 4\C,0,0.20384,-3.54604,-3.2464\O,0,1.97823,-1.97274,-3.30466\C,0,0.778
 ,-2.23532,-3.23206\H,0,0.23015,-0.2671,-3.11248\N,0,-0.13771,-1.20797,
 -3.12585\O,0,-2.23284,-0.35077,-2.94466\C,0,-1.50242,-1.32179,-3.03565
 \H,0,-1.60996,-4.66387,-3.16654\C,0,-1.1238,-3.68921,-3.16\C,0,-3.4323
 5,-2.7889,-2.96218\N,0,-1.97992,-2.61747,-3.05609\H,0,-4.95641,-2.0118
 6,-6.86174\H,0,-4.69279,-0.71965,-5.90113\H,0,-4.85943,-2.20442,-5.244
 05\H,0,2.32732,-0.70176,-6.31721\H,0,1.68017,-2.27322,-6.46493\N,0,1.5
 2128,-1.29333,-6.33931\C,0,0.28885,-0.7985,-6.20724\C,0,-2.08365,-0.92
 94,-6.08142\N,0,-2.26696,0.39075,-5.91402\H,0,-1.15517,2.10705,-5.7768
 1\C,0,-1.09754,1.02739,-5.90822\N,0,0.13789,0.53358,-6.04035\H,0,-2.90
 456,-4.04003,-6.40123\C,0,-2.37667,-3.08941,-6.32\N,0,-1.0747,-2.9524,
 -6.38132\C,0,-0.87545,-1.58764,-6.23142\C,0,-4.50594,-1.6934,-6.02768\
 N,0,-3.04978,-1.90573,-6.1396\\Version=EM64L-G16RevA.03\State=1-A\HF=-
 2048.753178\RMSD=6.527e-09\Dipole=-3.2833265,-1.0582115,-0.3433058\Qua
 drupole=-5.1018023,35.7533833,-30.651581,29.1320734,-13.5224814,0.0837
 878\PG=C01 [X(C23H27N17O3)]\\@


 CHEMISTRY BEGAN BY SAYING IT WOULD CHANGE THE BASER
 METALS INTO GOLD.  BY NOT DOING THAT IT HAS DONE MUCH
 GREATER THINGS.  --  RALPH WALDO EMERSON
 Job cpu time:       0 days  6 hours 24 minutes 39.4 seconds.
 Elapsed time:       0 days  0 hours 12 minutes 28.2 seconds.
 File lengths (MBytes):  RWF=    298 Int=      0 D2E=      0 Chk=     33 Scr=      1
 Normal termination of Gaussian 16 at Thu Jan 18 15:43:07 2018.
