 Entering Gaussian System, Link 0=g16
 Input=str15.0.1.0.com
 Output=str15.0.1.0.log
 Initial command:
 /share/apps/g16/l1.exe "/state/partition1/scr/Gau-5695.inp" -scrdir="/state/partition1/scr/"
 Entering Link 1 = /share/apps/g16/l1.exe PID=      5696.
  
 Copyright (c) 1988,1990,1992,1993,1995,1998,2003,2009,2016,
            Gaussian, Inc.  All Rights Reserved.
  
 This is part of the Gaussian(R) 16 program.  It is based on
 the Gaussian(R) 09 system (copyright 2009, Gaussian, Inc.),
 the Gaussian(R) 03 system (copyright 2003, Gaussian, Inc.),
 the Gaussian(R) 98 system (copyright 1998, Gaussian, Inc.),
 the Gaussian(R) 94 system (copyright 1995, Gaussian, Inc.),
 the Gaussian 92(TM) system (copyright 1992, Gaussian, Inc.),
 the Gaussian 90(TM) system (copyright 1990, Gaussian, Inc.),
 the Gaussian 88(TM) system (copyright 1988, Gaussian, Inc.),
 the Gaussian 86(TM) system (copyright 1986, Carnegie Mellon
 University), and the Gaussian 82(TM) system (copyright 1983,
 Carnegie Mellon University). Gaussian is a federally registered
 trademark of Gaussian, Inc.
  
 This software contains proprietary and confidential information,
 including trade secrets, belonging to Gaussian, Inc.
  
 This software is provided under written license and may be
 used, copied, transmitted, or stored only in accord with that
 written license.
  
 The following legend is applicable only to US Government
 contracts under FAR:
  
                    RESTRICTED RIGHTS LEGEND
  
 Use, reproduction and disclosure by the US Government is
 subject to restrictions as set forth in subparagraphs (a)
 and (c) of the Commercial Computer Software - Restricted
 Rights clause in FAR 52.227-19.
  
 Gaussian, Inc.
 340 Quinnipiac St., Bldg. 40, Wallingford CT 06492
  
  
 ---------------------------------------------------------------
 Warning -- This program may not be used in any manner that
 competes with the business of Gaussian, Inc. or will provide
 assistance to any competitor of Gaussian, Inc.  The licensee
 of this program is prohibited from giving any competitor of
 Gaussian, Inc. access to this program.  By using this program,
 the user acknowledges that Gaussian, Inc. is engaged in the
 business of creating and licensing software in the field of
 computational chemistry and represents and warrants to the
 licensee that it is not a competitor of Gaussian, Inc. and that
 it will not use this program in any manner prohibited above.
 ---------------------------------------------------------------
  

 Cite this work as:
 Gaussian 16, Revision A.03,
 M. J. Frisch, G. W. Trucks, H. B. Schlegel, G. E. Scuseria, 
 M. A. Robb, J. R. Cheeseman, G. Scalmani, V. Barone, 
 G. A. Petersson, H. Nakatsuji, X. Li, M. Caricato, A. V. Marenich, 
 J. Bloino, B. G. Janesko, R. Gomperts, B. Mennucci, H. P. Hratchian, 
 J. V. Ortiz, A. F. Izmaylov, J. L. Sonnenberg, D. Williams-Young, 
 F. Ding, F. Lipparini, F. Egidi, J. Goings, B. Peng, A. Petrone, 
 T. Henderson, D. Ranasinghe, V. G. Zakrzewski, J. Gao, N. Rega, 
 G. Zheng, W. Liang, M. Hada, M. Ehara, K. Toyota, R. Fukuda, 
 J. Hasegawa, M. Ishida, T. Nakajima, Y. Honda, O. Kitao, H. Nakai, 
 T. Vreven, K. Throssell, J. A. Montgomery, Jr., J. E. Peralta, 
 F. Ogliaro, M. J. Bearpark, J. J. Heyd, E. N. Brothers, K. N. Kudin, 
 V. N. Staroverov, T. A. Keith, R. Kobayashi, J. Normand, 
 K. Raghavachari, A. P. Rendell, J. C. Burant, S. S. Iyengar, 
 J. Tomasi, M. Cossi, J. M. Millam, M. Klene, C. Adamo, R. Cammi, 
 J. W. Ochterski, R. L. Martin, K. Morokuma, O. Farkas, 
 J. B. Foresman, and D. J. Fox, Gaussian, Inc., Wallingford CT, 2016.
 
 ******************************************
 Gaussian 16:  EM64L-G16RevA.03 25-Dec-2016
                18-Jan-2018 
 ******************************************
 %nprocshared=32
 Will use up to   32 processors via shared memory.
 %mem=32GB
 %chk=allatoms_t.chk
 ---------------------------------------
 #p wb97xd/cc-pvdz sp scf=(maxcycles=20)
 ---------------------------------------
 1/38=1,172=1/1;
 2/12=2,17=6,18=5,40=1/2;
 3/5=16,11=2,25=1,30=1,74=-58/1,2,3;
 4//1;
 5/5=2,7=20,38=5/2;
 6/7=2,8=2,9=2,10=2,28=1/1;
 99/5=1,9=1/99;
 Leave Link    1 at Thu Jan 18 15:43:07 2018, MaxMem=  4294967296 cpu:               2.7 elap:               0.1
 (Enter /share/apps/g16/l101.exe)
 ------------------
 Base pair stacking
 ------------------
 Symbolic Z-matrix:
 Charge =  0 Multiplicity = 1
 N                     1.15679   3.70243  -6.47105 
 C                     0.86899   5.14627  -6.57363 
 C                     0.95062   1.51468  -6.37851 
 N                     2.30674   1.78207  -6.25948 
 C                     2.37667   3.08941  -6.32 
 H                     3.30118   3.66432  -6.25909 
 N                    -1.12083   0.39623  -6.52372 
 C                    -1.67905   1.60548  -6.6407 
 H                    -2.763     1.60895  -6.74702 
 N                    -1.10204   2.80545  -6.64603 
 C                     0.22918   2.6885   -6.50964 
 C                     0.22066   0.31219  -6.38803 
 N                     0.77974  -0.89402  -6.27112 
 H                     1.76903  -1.00364  -6.1686 
 H                     0.22909  -1.72877  -6.28203 
 H                     1.34331   5.52649  -7.36775 
 H                    -0.11559   5.28411  -6.67715 
 H                     1.18364   5.61063  -5.74576 
 N                    -0.22179   3.94436  -3.26456 
 C                    -0.84895   2.72177  -3.26328 
 C                    -0.90091   5.25208  -3.36129 
 N                    -3.76188   0.83544  -3.39872 
 H                    -4.01626  -0.1311   -3.38065 
 H                    -4.50633   1.49917  -3.47605 
 N                    -2.18025   2.5114   -3.34948 
 C                    -2.48033   1.22499  -3.32272 
 N                    -1.54937   0.21992  -3.21948 
 H                    -1.87     -0.73611  -3.20649 
 C                    -0.17444   0.41318  -3.12957 
 O                     0.58009  -0.56323  -3.03986 
 C                     0.16328   1.79016  -3.15705 
 N                     1.40101   2.41529  -3.09292 
 C                     1.1238    3.68921  -3.16 
 H                     1.8657    4.48818  -3.13738 
 H                    -0.58161   5.73595  -4.17537 
 H                    -1.88763   5.10889  -3.42565 
 H                    -0.69653   5.7966   -2.54856 
 H                    -4.05493  -5.28307  -3.84208 
 H                    -3.93279  -5.35578  -2.08582 
 H                    -4.16358  -3.80258  -2.88935 
 H                     0.59705  -6.39718  -3.32784 
 C                    -0.05727  -5.52915  -3.2464 
 O                     1.71712  -3.95585  -3.30466 
 C                     0.51688  -4.21843  -3.23206 
 H                    -0.03096  -2.25021  -3.11248 
 N                    -0.39882  -3.19108  -3.12585 
 O                    -2.49395  -2.33388  -2.94466 
 C                    -1.76353  -3.3049   -3.03565 
 H                    -1.87107  -6.64698  -3.16654 
 C                    -1.38491  -5.67232  -3.16 
 C                    -3.69346  -4.77201  -2.96218 
 N                    -2.24103  -4.60058  -3.05609 
 H                    -5.98305  -5.84291  -6.86174 
 H                    -5.71944  -4.55069  -5.90113 
 H                    -5.88608  -6.03547  -5.24405 
 H                     1.30067  -4.53281  -6.31721 
 H                     0.65353  -6.10426  -6.46493 
 N                     0.49463  -5.12437  -6.33931 
 C                    -0.7378   -4.62955  -6.20724 
 C                    -3.1103   -4.76045  -6.08142 
 N                    -3.29361  -3.4403   -5.91402 
 H                    -2.18182  -1.72399  -5.77681 
 C                    -2.12418  -2.80366  -5.90822 
 N                    -0.88876  -3.29747  -6.04035 
 H                    -3.93121  -7.87108  -6.40123 
 C                    -3.40332  -6.92046  -6.32 
 N                    -2.10134  -6.78345  -6.38132 
 C                    -1.9021   -5.41869  -6.23142 
 C                    -5.53259  -5.52445  -6.02768 
 N                    -4.07643  -5.73677  -6.1396 
 
 ITRead=  0  0  0  0  0  0  0  0  0  0  0  0  0  0  0  0  0  0  0  0
 ITRead=  0  0  0  0  0  0  0  0  0  0  0  0  0  0  0  0  0  0  0  0
 ITRead=  0  0  0  0  0  0  0  0  0  0  0  0  0  0  0  0  0  0  0  0
 ITRead=  0  0  0  0  0  0  0  0  0  0
 MicOpt= -1 -1 -1 -1 -1 -1 -1 -1 -1 -1 -1 -1 -1 -1 -1 -1 -1 -1 -1 -1
 MicOpt= -1 -1 -1 -1 -1 -1 -1 -1 -1 -1 -1 -1 -1 -1 -1 -1 -1 -1 -1 -1
 MicOpt= -1 -1 -1 -1 -1 -1 -1 -1 -1 -1 -1 -1 -1 -1 -1 -1 -1 -1 -1 -1
 MicOpt= -1 -1 -1 -1 -1 -1 -1 -1 -1 -1
 NAtoms=     70 NQM=       70 NQMF=       0 NMMI=      0 NMMIF=      0
                NMic=       0 NMicF=      0.
                    Isotopes and Nuclear Properties:
 (Nuclear quadrupole moments (NQMom) in fm**2, nuclear magnetic moments (NMagM)
  in nuclear magnetons)

  Atom         1           2           3           4           5           6           7           8           9          10
 IAtWgt=          14          12          12          14          12           1          14          12           1          14
 AtmWgt=  14.0030740  12.0000000  12.0000000  14.0030740  12.0000000   1.0078250  14.0030740  12.0000000   1.0078250  14.0030740
 NucSpn=           2           0           0           2           0           1           2           0           1           2
 AtZEff=  -0.0000000  -0.0000000  -0.0000000  -0.0000000  -0.0000000  -0.0000000  -0.0000000  -0.0000000  -0.0000000  -0.0000000
 NQMom=    2.0440000   0.0000000   0.0000000   2.0440000   0.0000000   0.0000000   2.0440000   0.0000000   0.0000000   2.0440000
 NMagM=    0.4037610   0.0000000   0.0000000   0.4037610   0.0000000   2.7928460   0.4037610   0.0000000   2.7928460   0.4037610
 AtZNuc=   7.0000000   6.0000000   6.0000000   7.0000000   6.0000000   1.0000000   7.0000000   6.0000000   1.0000000   7.0000000

  Atom        11          12          13          14          15          16          17          18          19          20
 IAtWgt=          12          12          14           1           1           1           1           1          14          12
 AtmWgt=  12.0000000  12.0000000  14.0030740   1.0078250   1.0078250   1.0078250   1.0078250   1.0078250  14.0030740  12.0000000
 NucSpn=           0           0           2           1           1           1           1           1           2           0
 AtZEff=  -0.0000000  -0.0000000  -0.0000000  -0.0000000  -0.0000000  -0.0000000  -0.0000000  -0.0000000  -0.0000000  -0.0000000
 NQMom=    0.0000000   0.0000000   2.0440000   0.0000000   0.0000000   0.0000000   0.0000000   0.0000000   2.0440000   0.0000000
 NMagM=    0.0000000   0.0000000   0.4037610   2.7928460   2.7928460   2.7928460   2.7928460   2.7928460   0.4037610   0.0000000
 AtZNuc=   6.0000000   6.0000000   7.0000000   1.0000000   1.0000000   1.0000000   1.0000000   1.0000000   7.0000000   6.0000000

  Atom        21          22          23          24          25          26          27          28          29          30
 IAtWgt=          12          14           1           1          14          12          14           1          12          16
 AtmWgt=  12.0000000  14.0030740   1.0078250   1.0078250  14.0030740  12.0000000  14.0030740   1.0078250  12.0000000  15.9949146
 NucSpn=           0           2           1           1           2           0           2           1           0           0
 AtZEff=  -0.0000000  -0.0000000  -0.0000000  -0.0000000  -0.0000000  -0.0000000  -0.0000000  -0.0000000  -0.0000000  -0.0000000
 NQMom=    0.0000000   2.0440000   0.0000000   0.0000000   2.0440000   0.0000000   2.0440000   0.0000000   0.0000000   0.0000000
 NMagM=    0.0000000   0.4037610   2.7928460   2.7928460   0.4037610   0.0000000   0.4037610   2.7928460   0.0000000   0.0000000
 AtZNuc=   6.0000000   7.0000000   1.0000000   1.0000000   7.0000000   6.0000000   7.0000000   1.0000000   6.0000000   8.0000000

  Atom        31          32          33          34          35          36          37          38          39          40
 IAtWgt=          12          14          12           1           1           1           1           1           1           1
 AtmWgt=  12.0000000  14.0030740  12.0000000   1.0078250   1.0078250   1.0078250   1.0078250   1.0078250   1.0078250   1.0078250
 NucSpn=           0           2           0           1           1           1           1           1           1           1
 AtZEff=  -0.0000000  -0.0000000  -0.0000000  -0.0000000  -0.0000000  -0.0000000  -0.0000000  -0.0000000  -0.0000000  -0.0000000
 NQMom=    0.0000000   2.0440000   0.0000000   0.0000000   0.0000000   0.0000000   0.0000000   0.0000000   0.0000000   0.0000000
 NMagM=    0.0000000   0.4037610   0.0000000   2.7928460   2.7928460   2.7928460   2.7928460   2.7928460   2.7928460   2.7928460
 AtZNuc=   6.0000000   7.0000000   6.0000000   1.0000000   1.0000000   1.0000000   1.0000000   1.0000000   1.0000000   1.0000000

  Atom        41          42          43          44          45          46          47          48          49          50
 IAtWgt=           1          12          16          12           1          14          16          12           1          12
 AtmWgt=   1.0078250  12.0000000  15.9949146  12.0000000   1.0078250  14.0030740  15.9949146  12.0000000   1.0078250  12.0000000
 NucSpn=           1           0           0           0           1           2           0           0           1           0
 AtZEff=  -0.0000000  -0.0000000  -0.0000000  -0.0000000  -0.0000000  -0.0000000  -0.0000000  -0.0000000  -0.0000000  -0.0000000
 NQMom=    0.0000000   0.0000000   0.0000000   0.0000000   0.0000000   2.0440000   0.0000000   0.0000000   0.0000000   0.0000000
 NMagM=    2.7928460   0.0000000   0.0000000   0.0000000   2.7928460   0.4037610   0.0000000   0.0000000   2.7928460   0.0000000
 AtZNuc=   1.0000000   6.0000000   8.0000000   6.0000000   1.0000000   7.0000000   8.0000000   6.0000000   1.0000000   6.0000000

  Atom        51          52          53          54          55          56          57          58          59          60
 IAtWgt=          12          14           1           1           1           1           1          14          12          12
 AtmWgt=  12.0000000  14.0030740   1.0078250   1.0078250   1.0078250   1.0078250   1.0078250  14.0030740  12.0000000  12.0000000
 NucSpn=           0           2           1           1           1           1           1           2           0           0
 AtZEff=  -0.0000000  -0.0000000  -0.0000000  -0.0000000  -0.0000000  -0.0000000  -0.0000000  -0.0000000  -0.0000000  -0.0000000
 NQMom=    0.0000000   2.0440000   0.0000000   0.0000000   0.0000000   0.0000000   0.0000000   2.0440000   0.0000000   0.0000000
 NMagM=    0.0000000   0.4037610   2.7928460   2.7928460   2.7928460   2.7928460   2.7928460   0.4037610   0.0000000   0.0000000
 AtZNuc=   6.0000000   7.0000000   1.0000000   1.0000000   1.0000000   1.0000000   1.0000000   7.0000000   6.0000000   6.0000000

  Atom        61          62          63          64          65          66          67          68          69          70
 IAtWgt=          14           1          12          14           1          12          14          12          12          14
 AtmWgt=  14.0030740   1.0078250  12.0000000  14.0030740   1.0078250  12.0000000  14.0030740  12.0000000  12.0000000  14.0030740
 NucSpn=           2           1           0           2           1           0           2           0           0           2
 AtZEff=  -0.0000000  -0.0000000  -0.0000000  -0.0000000  -0.0000000  -0.0000000  -0.0000000  -0.0000000  -0.0000000  -0.0000000
 NQMom=    2.0440000   0.0000000   0.0000000   2.0440000   0.0000000   0.0000000   2.0440000   0.0000000   0.0000000   2.0440000
 NMagM=    0.4037610   2.7928460   0.0000000   0.4037610   2.7928460   0.0000000   0.4037610   0.0000000   0.0000000   0.4037610
 AtZNuc=   7.0000000   1.0000000   6.0000000   7.0000000   1.0000000   6.0000000   7.0000000   6.0000000   6.0000000   7.0000000
 Leave Link  101 at Thu Jan 18 15:43:08 2018, MaxMem=  4294967296 cpu:               7.6 elap:               0.3
 (Enter /share/apps/g16/l202.exe)
 Stoichiometry    C23H27N17O3
 Framework group  C1[X(C23H27N17O3)]
 Deg. of freedom   204
 Full point group                 C1      NOp   1
 Largest Abelian subgroup         C1      NOp   1
 Largest concise Abelian subgroup C1      NOp   1
                         Standard orientation:                         
 ---------------------------------------------------------------------
 Center     Atomic      Atomic             Coordinates (Angstroms)
 Number     Number       Type             X           Y           Z
 ---------------------------------------------------------------------
      1          7           0        5.141408   -1.505318   -1.206565
      2          6           0        6.437918   -0.977907   -1.674459
      3          6           0        2.989835   -1.808774   -0.866026
      4          7           0        3.640448   -2.798892   -0.144155
      5          6           0        4.910653   -2.576442   -0.378215
      6          1           0        5.729549   -3.168423    0.031563
      7          7           0        1.317248   -0.446502   -1.819750
      8          6           0        2.310723    0.240016   -2.393579
      9          1           0        1.998330    1.077350   -3.016111
     10          7           0        3.625974    0.048398   -2.314234
     11          6           0        3.901899   -1.003770   -1.526049
     12          6           0        1.627627   -1.499643   -1.032584
     13          7           0        0.637309   -2.186180   -0.458897
     14          1           0        0.820651   -2.972899    0.131594
     15          1           0       -0.321108   -1.937686   -0.599716
     16          1           0        6.923483   -1.687794   -2.184812
     17          1           0        6.282926   -0.188859   -2.268173
     18          1           0        6.989580   -0.698367   -0.888629
     19          7           0        5.036871    1.342819    0.822666
     20          6           0        3.685383    1.568203    0.719035
     21          6           0        6.089999    2.162670    0.190641
     22          7           0        1.034631    3.444753   -0.511340
     23          1           0        0.036379    3.433194   -0.460405
     24          1           0        1.452923    4.175045   -1.052108
     25          7           0        3.097164    2.568446    0.027979
     26          6           0        1.779735    2.522811    0.116941
     27          7           0        1.089246    1.571259    0.827775
     28          1           0        0.081784    1.614061    0.840170
     29          6           0        1.673786    0.532978    1.546211
     30          8           0        0.959412   -0.273645    2.154297
     31          6           0        3.088769    0.568848    1.460071
     32          7           0        4.046418   -0.267107    2.017713
     33          6           0        5.184069    0.229486    1.613532
     34          1           0        6.163810   -0.178760    1.863981
     35          1           0        6.629516    1.594634   -0.429896
     36          1           0        5.666203    2.906808   -0.324060
     37          1           0        6.686175    2.544157    0.896223
     38          1           0       -4.914414    2.000073   -0.021073
     39          1           0       -4.914257    2.789775    1.554054
     40          1           0       -3.510322    2.934155    0.496001
     41          1           0       -4.624561   -1.825250    2.882286
     42          6           0       -3.981561   -1.038408    2.487730
     43          8           0       -1.963609   -2.153227    3.046457
     44          6           0       -2.560762   -1.191145    2.564170
     45          1           0       -0.833296   -0.210249    2.072211
     46          7           0       -1.840432   -0.138616    2.036398
     47          8           0       -1.622729    1.882114    1.023261
     48          6           0       -2.342461    1.003234    1.463975
     49          1           0       -5.574596    0.228413    1.852755
     50          6           0       -4.501027    0.064005    1.935074
     51          6           0       -4.303493    2.279109    0.824492
     52          7           0       -3.721021    1.076915    1.427166
     53          1           0       -6.067232    1.892226   -3.457466
     54          1           0       -4.735454    2.479412   -2.720123
     55          1           0       -6.191771    2.602497   -1.993427
     56          1           0       -2.695282   -3.504677    0.359450
     57          1           0       -4.389338   -3.422901    0.176272
     58          7           0       -3.495074   -2.994036    0.043679
     59          6           0       -3.375525   -1.794442   -0.528908
     60          6           0       -4.184798    0.190556   -1.561661
     61          7           0       -2.971141    0.742088   -1.726801
     62          1           0       -1.004214    0.307238   -1.349010
     63          6           0       -2.023382   -0.065096   -1.254448
     64          7           0       -2.141100   -1.266939   -0.680614
     65          1           0       -7.405538   -0.040103   -1.722349
     66          6           0       -6.341439   -0.205960   -1.551678
     67          7           0       -5.834801   -1.275779   -0.989103
     68          6           0       -4.468106   -1.037279   -0.989225
     69          6           0       -5.615783    2.028540   -2.575650
     70          7           0       -5.399843    0.722615   -1.923011
 ---------------------------------------------------------------------
 Rotational constants (GHZ):           0.1718079           0.0519454           0.0510515
 Leave Link  202 at Thu Jan 18 15:43:08 2018, MaxMem=  4294967296 cpu:               0.5 elap:               0.0
 (Enter /share/apps/g16/l301.exe)
 Standard basis: CC-pVDZ (5D, 7F)
 Ernie: Thresh=  0.10000D-02 Tol=  0.10000D-05 Strict=F.
 Ernie:  86 primitive shells out of 1081 were deleted.
 There are   780 symmetry adapted cartesian basis functions of A   symmetry.
 There are   737 symmetry adapted basis functions of A   symmetry.
   737 basis functions,  1608 primitive gaussians,   780 cartesian basis functions
   154 alpha electrons      154 beta electrons
       nuclear repulsion energy      5589.8706033477 Hartrees.
 IExCor= 4639 DFT=T Ex+Corr=wB97XD ExCW=0 ScaHFX=  1.000000
 ScaDFX=  1.000000  1.000000  1.000000  1.000000 ScalE2=  1.000000  1.000000
 IRadAn=      5 IRanWt=     -1 IRanGd=            0 ICorTp=0 IEmpDi=121
 HFx  wShort=  0.000000 wLong=  0.200000 cFull=  0.222036 cShort=  0.000000 cLong=  0.777964
 DFx  wShort=  0.000000 wLong=  0.200000 cFull=  0.000000 cShort=  0.000000 cLong=  1.000000
 NAtoms=   70 NActive=   70 NUniq=   70 SFac= 1.00D+00 NAtFMM=   60 NAOKFM=T Big=T
 Integral buffers will be    131072 words long.
 Raffenetti 2 integral format.
 Two-electron integral symmetry is turned on.
 R6Disp:  Grimme-D2 Dispersion energy=       -0.0787654559 Hartrees.
 Nuclear repulsion after empirical dispersion term =     5589.7918378918 Hartrees.
 Leave Link  301 at Thu Jan 18 15:43:08 2018, MaxMem=  4294967296 cpu:               3.0 elap:               0.1
 (Enter /share/apps/g16/l302.exe)
 NPDir=0 NMtPBC=     1 NCelOv=     1 NCel=       1 NClECP=     1 NCelD=      1
         NCelK=      1 NCelE2=     1 NClLst=     1 CellRange=     0.0.
 One-electron integrals computed using PRISM.
 One-electron integral symmetry used in STVInt
 NBasis=   737 RedAO= T EigKep=  6.20D-04  NBF=   737
 NBsUse=   737 1.00D-06 EigRej= -1.00D+00 NBFU=   737
 Precomputing XC quadrature grid using
 IXCGrd= 4 IRadAn=           5 IRanWt=          -1 IRanGd=           0 AccXCQ= 0.00D+00.
 Generated NRdTot=       0 NPtTot=           0 NUsed=           0 NTot=          32
 NSgBfM=   766   766   766   766   766 MxSgAt=    70 MxSgA2=    70.
 Leave Link  302 at Thu Jan 18 15:43:12 2018, MaxMem=  4294967296 cpu:             138.9 elap:               4.4
 (Enter /share/apps/g16/l303.exe)
 DipDrv:  MaxL=1.
 Leave Link  303 at Thu Jan 18 15:43:13 2018, MaxMem=  4294967296 cpu:              12.6 elap:               0.4
 (Enter /share/apps/g16/l401.exe)
 ExpMin= 1.22D-01 ExpMax= 1.17D+04 ExpMxC= 4.01D+02 IAcc=3 IRadAn=         5 AccDes= 0.00D+00
 Harris functional with IExCor= 4639 and IRadAn=       5 diagonalized for initial guess.
 HarFok:  IExCor= 4639 AccDes= 0.00D+00 IRadAn=         5 IDoV= 1 UseB2=F ITyADJ=14
 ICtDFT=  3500011 ScaDFX=  1.000000  1.000000  1.000000  1.000000
 FoFCou: FMM=F IPFlag=           0 FMFlag=      100000 FMFlg1=        2001
         NFxFlg=           0 DoJE=T BraDBF=F KetDBF=T FulRan=T
         wScrn=  0.000000 ICntrl=       500 IOpCl=  0 I1Cent=   200000004 NGrid=           0
         NMat0=    1 NMatS0=      1 NMatT0=    0 NMatD0=    1 NMtDS0=    0 NMtDT0=    0
 Petite list used in FoFCou.
 Harris En= -1963.88525424730    
 JPrj=0 DoOrth=F DoCkMO=F.
 Leave Link  401 at Thu Jan 18 15:43:29 2018, MaxMem=  4294967296 cpu:             484.9 elap:              15.7
 (Enter /share/apps/g16/l502.exe)
 Integral symmetry usage will be decided dynamically.
 Closed shell SCF:
 Using DIIS extrapolation, IDIIS=  1040.
 NGot=  4294967296 LenX=  4293717438 LenY=  4293108258
 Requested convergence on RMS density matrix=1.00D-08 within  20 cycles.
 Requested convergence on MAX density matrix=1.00D-06.
 Requested convergence on             energy=1.00D-06.
 No special actions if energy rises.
 Fock matrices will be formed incrementally for  20 cycles.
 Integral accuracy reduced to 1.0D-05 until final iterations.

 Cycle   1  Pass 0  IDiag  1:
 FoFJK:  IHMeth= 1 ICntrl=       0 DoSepK=T KAlg= 0 I1Cent=           0 FoldK=F
 IRaf=         1 NMat=       1 IRICut=       1 DoRegI=T DoRafI=F ISym2E= 0 IDoP0=0 IntGTp=1.
 FoFCou: FMM=T IPFlag=           0 FMFlag=      100000 FMFlg1=        2001
         NFxFlg=           0 DoJE=T BraDBF=F KetDBF=F FulRan=T
         wScrn=  0.000000 ICntrl=       500 IOpCl=  0 I1Cent=           0 NGrid=           0
         NMat0=    1 NMatS0=      1 NMatT0=    0 NMatD0=    1 NMtDS0=    0 NMtDT0=    0
 Symmetry not used in FoFCou.
 FMM levels:  10  Number of levels for PrismC:   9
 E= -2048.31725577990    
 DIIS: error= 2.19D-02 at cycle   1 NSaved=   1.
 NSaved= 1 IEnMin= 1 EnMin= -2048.31725577990     IErMin= 1 ErrMin= 2.19D-02
 ErrMax= 2.19D-02  0.00D+00 EMaxC= 1.00D-01 BMatC= 8.35D-01 BMatP= 8.35D-01
 IDIUse=3 WtCom= 7.81D-01 WtEn= 2.19D-01
 Coeff-Com:  0.100D+01
 Coeff-En:   0.100D+01
 Coeff:      0.100D+01
 Gap=     0.257 Goal=   None    Shift=    0.000
 GapD=    0.257 DampG=1.000 DampE=0.500 DampFc=0.5000 IDamp=-1.
 Damping current iteration by 5.00D-01
 RMSDP=1.60D-03 MaxDP=1.21D-01              OVMax= 1.86D-01

 Cycle   2  Pass 0  IDiag  1:
 RMSU=  7.98D-04    CP:  9.98D-01
 E= -2048.51276357209     Delta-E=       -0.195507792183 Rises=F Damp=T
 DIIS: error= 1.21D-02 at cycle   2 NSaved=   2.
 NSaved= 2 IEnMin= 2 EnMin= -2048.51276357209     IErMin= 2 ErrMin= 1.21D-02
 ErrMax= 1.21D-02  0.00D+00 EMaxC= 1.00D-01 BMatC= 1.46D-01 BMatP= 8.35D-01
 IDIUse=3 WtCom= 8.79D-01 WtEn= 1.21D-01
 Coeff-Com: -0.188D+00 0.119D+01
 Coeff-En:   0.000D+00 0.100D+01
 Coeff:     -0.165D+00 0.117D+01
 Gap=     0.317 Goal=   None    Shift=    0.000
 RMSDP=6.01D-04 MaxDP=3.33D-02 DE=-1.96D-01 OVMax= 1.42D-01

 Cycle   3  Pass 0  IDiag  1:
 RMSU=  5.92D-04    CP:  9.94D-01  1.12D+00
 E= -2048.68948207524     Delta-E=       -0.176718503153 Rises=F Damp=F
 DIIS: error= 7.87D-03 at cycle   3 NSaved=   3.
 NSaved= 3 IEnMin= 3 EnMin= -2048.68948207524     IErMin= 3 ErrMin= 7.87D-03
 ErrMax= 7.87D-03  0.00D+00 EMaxC= 1.00D-01 BMatC= 6.86D-02 BMatP= 1.46D-01
 IDIUse=3 WtCom= 9.21D-01 WtEn= 7.87D-02
 Coeff-Com: -0.233D+00 0.559D+00 0.674D+00
 Coeff-En:   0.000D+00 0.000D+00 0.100D+01
 Coeff:     -0.215D+00 0.515D+00 0.700D+00
 Gap=     0.280 Goal=   None    Shift=    0.000
 RMSDP=3.84D-04 MaxDP=2.98D-02 DE=-1.77D-01 OVMax= 6.86D-02

 Cycle   4  Pass 0  IDiag  1:
 RMSU=  2.13D-04    CP:  9.94D-01  1.42D+00  6.46D-01
 E= -2048.74072142170     Delta-E=       -0.051239346460 Rises=F Damp=F
 DIIS: error= 2.73D-03 at cycle   4 NSaved=   4.
 NSaved= 4 IEnMin= 4 EnMin= -2048.74072142170     IErMin= 4 ErrMin= 2.73D-03
 ErrMax= 2.73D-03  0.00D+00 EMaxC= 1.00D-01 BMatC= 1.03D-02 BMatP= 6.86D-02
 IDIUse=3 WtCom= 9.73D-01 WtEn= 2.73D-02
 Coeff-Com: -0.962D-01 0.186D+00 0.379D+00 0.531D+00
 Coeff-En:   0.000D+00 0.000D+00 0.835D-01 0.916D+00
 Coeff:     -0.936D-01 0.181D+00 0.370D+00 0.542D+00
 Gap=     0.282 Goal=   None    Shift=    0.000
 RMSDP=1.35D-04 MaxDP=1.07D-02 DE=-5.12D-02 OVMax= 1.55D-02

 Cycle   5  Pass 0  IDiag  1:
 RMSU=  6.21D-05    CP:  9.94D-01  1.39D+00  7.88D-01  6.17D-01
 E= -2048.74938742723     Delta-E=       -0.008666005528 Rises=F Damp=F
 DIIS: error= 5.07D-04 at cycle   5 NSaved=   5.
 NSaved= 5 IEnMin= 5 EnMin= -2048.74938742723     IErMin= 5 ErrMin= 5.07D-04
 ErrMax= 5.07D-04  0.00D+00 EMaxC= 1.00D-01 BMatC= 2.90D-04 BMatP= 1.03D-02
 IDIUse=3 WtCom= 9.95D-01 WtEn= 5.07D-03
 Coeff-Com: -0.248D-01 0.425D-01 0.121D+00 0.235D+00 0.626D+00
 Coeff-En:   0.000D+00 0.000D+00 0.000D+00 0.000D+00 0.100D+01
 Coeff:     -0.247D-01 0.422D-01 0.121D+00 0.234D+00 0.628D+00
 Gap=     0.282 Goal=   None    Shift=    0.000
 RMSDP=2.71D-05 MaxDP=1.33D-03 DE=-8.67D-03 OVMax= 3.21D-03

 Failed to achieve initial convergence to 1.0D-08 in  6 cycles.
 Switch to full accuracy anyway.
 Cycle   6  Pass 1  IDiag  1:
 E= -2048.74957225662     Delta-E=       -0.000184829388 Rises=F Damp=F
 DIIS: error= 2.27D-04 at cycle   1 NSaved=   1.
 NSaved= 1 IEnMin= 1 EnMin= -2048.74957225662     IErMin= 1 ErrMin= 2.27D-04
 ErrMax= 2.27D-04  0.00D+00 EMaxC= 1.00D-01 BMatC= 7.79D-05 BMatP= 7.79D-05
 IDIUse=3 WtCom= 9.98D-01 WtEn= 2.27D-03
 Coeff-Com:  0.100D+01
 Coeff-En:   0.100D+01
 Coeff:      0.100D+01
 Gap=     0.282 Goal=   None    Shift=    0.000
 RMSDP=2.71D-05 MaxDP=1.33D-03 DE=-1.85D-04 OVMax= 2.74D-03

 Cycle   7  Pass 1  IDiag  1:
 RMSU=  1.15D-04    CP:  1.00D+00
 E= -2048.74962568937     Delta-E=       -0.000053432750 Rises=F Damp=F
 DIIS: error= 2.12D-04 at cycle   2 NSaved=   2.
 NSaved= 2 IEnMin= 2 EnMin= -2048.74962568937     IErMin= 2 ErrMin= 2.12D-04
 ErrMax= 2.12D-04  0.00D+00 EMaxC= 1.00D-01 BMatC= 4.55D-05 BMatP= 7.79D-05
 IDIUse=3 WtCom= 9.98D-01 WtEn= 2.12D-03
 Coeff-Com:  0.410D+00 0.590D+00
 Coeff-En:   0.154D-01 0.985D+00
 Coeff:      0.409D+00 0.591D+00
 Gap=     0.282 Goal=   None    Shift=    0.000
 RMSDP=1.22D-05 MaxDP=7.70D-04 DE=-5.34D-05 OVMax= 1.73D-03

 Cycle   8  Pass 1  IDiag  1:
 RMSU=  1.19D-05    CP:  1.00D+00  1.02D+00
 E= -2048.74965928290     Delta-E=       -0.000033593534 Rises=F Damp=F
 DIIS: error= 9.13D-05 at cycle   3 NSaved=   3.
 NSaved= 3 IEnMin= 3 EnMin= -2048.74965928290     IErMin= 3 ErrMin= 9.13D-05
 ErrMax= 9.13D-05  0.00D+00 EMaxC= 1.00D-01 BMatC= 1.05D-05 BMatP= 4.55D-05
 IDIUse=1 WtCom= 1.00D+00 WtEn= 0.00D+00
 Coeff-Com: -0.177D-01 0.311D+00 0.706D+00
 Coeff:     -0.177D-01 0.311D+00 0.706D+00
 Gap=     0.282 Goal=   None    Shift=    0.000
 RMSDP=5.78D-06 MaxDP=3.74D-04 DE=-3.36D-05 OVMax= 6.35D-04

 Cycle   9  Pass 1  IDiag  1:
 RMSU=  3.81D-06    CP:  1.00D+00  1.05D+00  7.53D-01
 E= -2048.74966938319     Delta-E=       -0.000010100295 Rises=F Damp=F
 DIIS: error= 2.36D-05 at cycle   4 NSaved=   4.
 NSaved= 4 IEnMin= 4 EnMin= -2048.74966938319     IErMin= 4 ErrMin= 2.36D-05
 ErrMax= 2.36D-05  0.00D+00 EMaxC= 1.00D-01 BMatC= 5.40D-07 BMatP= 1.05D-05
 IDIUse=1 WtCom= 1.00D+00 WtEn= 0.00D+00
 Coeff-Com: -0.296D-01 0.907D-01 0.274D+00 0.665D+00
 Coeff:     -0.296D-01 0.907D-01 0.274D+00 0.665D+00
 Gap=     0.282 Goal=   None    Shift=    0.000
 RMSDP=1.44D-06 MaxDP=9.43D-05 DE=-1.01D-05 OVMax= 4.62D-04

 Cycle  10  Pass 1  IDiag  1:
 RMSU=  1.29D-06    CP:  1.00D+00  1.05D+00  7.89D-01  1.08D+00
 E= -2048.74967022084     Delta-E=       -0.000000837645 Rises=F Damp=F
 DIIS: error= 1.46D-05 at cycle   5 NSaved=   5.
 NSaved= 5 IEnMin= 5 EnMin= -2048.74967022084     IErMin= 5 ErrMin= 1.46D-05
 ErrMax= 1.46D-05  0.00D+00 EMaxC= 1.00D-01 BMatC= 1.17D-07 BMatP= 5.40D-07
 IDIUse=1 WtCom= 1.00D+00 WtEn= 0.00D+00
 Coeff-Com: -0.371D-02-0.510D-01-0.106D+00 0.204D+00 0.957D+00
 Coeff:     -0.371D-02-0.510D-01-0.106D+00 0.204D+00 0.957D+00
 Gap=     0.282 Goal=   None    Shift=    0.000
 RMSDP=1.15D-06 MaxDP=5.88D-05 DE=-8.38D-07 OVMax= 2.59D-04

 Cycle  11  Pass 1  IDiag  1:
 RMSU=  4.97D-07    CP:  1.00D+00  1.05D+00  7.99D-01  1.35D+00  1.17D+00
 E= -2048.74967046911     Delta-E=       -0.000000248274 Rises=F Damp=F
 DIIS: error= 5.33D-06 at cycle   6 NSaved=   6.
 NSaved= 6 IEnMin= 6 EnMin= -2048.74967046911     IErMin= 6 ErrMin= 5.33D-06
 ErrMax= 5.33D-06  0.00D+00 EMaxC= 1.00D-01 BMatC= 3.03D-08 BMatP= 1.17D-07
 IDIUse=1 WtCom= 1.00D+00 WtEn= 0.00D+00
 Coeff-Com:  0.462D-02-0.461D-01-0.116D+00-0.105D-01 0.522D+00 0.646D+00
 Coeff:      0.462D-02-0.461D-01-0.116D+00-0.105D-01 0.522D+00 0.646D+00
 Gap=     0.282 Goal=   None    Shift=    0.000
 RMSDP=3.99D-07 MaxDP=2.78D-05 DE=-2.48D-07 OVMax= 1.32D-04

 Cycle  12  Pass 1  IDiag  1:
 RMSU=  1.94D-07    CP:  1.00D+00  1.05D+00  8.01D-01  1.42D+00  1.31D+00
                    CP:  9.52D-01
 E= -2048.74967051304     Delta-E=       -0.000000043930 Rises=F Damp=F
 DIIS: error= 9.93D-07 at cycle   7 NSaved=   7.
 NSaved= 7 IEnMin= 7 EnMin= -2048.74967051304     IErMin= 7 ErrMin= 9.93D-07
 ErrMax= 9.93D-07  0.00D+00 EMaxC= 1.00D-01 BMatC= 7.48D-10 BMatP= 3.03D-08
 IDIUse=1 WtCom= 1.00D+00 WtEn= 0.00D+00
 Coeff-Com:  0.115D-02-0.818D-02-0.219D-01-0.103D-01 0.667D-01 0.139D+00
 Coeff-Com:  0.833D+00
 Coeff:      0.115D-02-0.818D-02-0.219D-01-0.103D-01 0.667D-01 0.139D+00
 Coeff:      0.833D+00
 Gap=     0.282 Goal=   None    Shift=    0.000
 RMSDP=8.50D-08 MaxDP=4.35D-06 DE=-4.39D-08 OVMax= 2.52D-05

 Cycle  13  Pass 1  IDiag  1:
 RMSU=  5.37D-08    CP:  1.00D+00  1.05D+00  8.01D-01  1.43D+00  1.33D+00
                    CP:  1.04D+00  1.13D+00
 E= -2048.74967051516     Delta-E=       -0.000000002117 Rises=F Damp=F
 DIIS: error= 6.23D-07 at cycle   8 NSaved=   8.
 NSaved= 8 IEnMin= 8 EnMin= -2048.74967051516     IErMin= 8 ErrMin= 6.23D-07
 ErrMax= 6.23D-07  0.00D+00 EMaxC= 1.00D-01 BMatC= 3.33D-10 BMatP= 7.48D-10
 IDIUse=1 WtCom= 1.00D+00 WtEn= 0.00D+00
 Coeff-Com: -0.716D-03 0.888D-02 0.215D-01-0.588D-03-0.111D+00-0.111D+00
 Coeff-Com:  0.417D+00 0.777D+00
 Coeff:     -0.716D-03 0.888D-02 0.215D-01-0.588D-03-0.111D+00-0.111D+00
 Coeff:      0.417D+00 0.777D+00
 Gap=     0.282 Goal=   None    Shift=    0.000
 RMSDP=5.08D-08 MaxDP=2.54D-06 DE=-2.12D-09 OVMax= 1.21D-05

 Cycle  14  Pass 1  IDiag  1:
 RMSU=  2.93D-08    CP:  1.00D+00  1.05D+00  8.00D-01  1.44D+00  1.34D+00
                    CP:  1.08D+00  1.28D+00  1.06D+00
 E= -2048.74967051543     Delta-E=       -0.000000000268 Rises=F Damp=F
 DIIS: error= 1.76D-07 at cycle   9 NSaved=   9.
 NSaved= 9 IEnMin= 9 EnMin= -2048.74967051543     IErMin= 9 ErrMin= 1.76D-07
 ErrMax= 1.76D-07  0.00D+00 EMaxC= 1.00D-01 BMatC= 2.68D-11 BMatP= 3.33D-10
 IDIUse=1 WtCom= 1.00D+00 WtEn= 0.00D+00
 Coeff-Com: -0.397D-03 0.429D-02 0.106D-01 0.950D-03-0.492D-01-0.576D-01
 Coeff-Com:  0.796D-01 0.284D+00 0.727D+00
 Coeff:     -0.397D-03 0.429D-02 0.106D-01 0.950D-03-0.492D-01-0.576D-01
 Coeff:      0.796D-01 0.284D+00 0.727D+00
 Gap=     0.282 Goal=   None    Shift=    0.000
 RMSDP=1.37D-08 MaxDP=5.96D-07 DE=-2.68D-10 OVMax= 3.46D-06

 Cycle  15  Pass 1  IDiag  1:
 RMSU=  9.35D-09    CP:  1.00D+00  1.05D+00  8.00D-01  1.44D+00  1.34D+00
                    CP:  1.09D+00  1.31D+00  1.20D+00  1.11D+00
 E= -2048.74967051572     Delta-E=       -0.000000000292 Rises=F Damp=F
 DIIS: error= 7.55D-08 at cycle  10 NSaved=  10.
 NSaved=10 IEnMin=10 EnMin= -2048.74967051572     IErMin=10 ErrMin= 7.55D-08
 ErrMax= 7.55D-08  0.00D+00 EMaxC= 1.00D-01 BMatC= 4.98D-12 BMatP= 2.68D-11
 IDIUse=1 WtCom= 1.00D+00 WtEn= 0.00D+00
 Coeff-Com:  0.137D-04-0.390D-03-0.867D-03 0.208D-03 0.629D-02 0.297D-02
 Coeff-Com: -0.585D-01-0.746D-01 0.255D+00 0.870D+00
 Coeff:      0.137D-04-0.390D-03-0.867D-03 0.208D-03 0.629D-02 0.297D-02
 Coeff:     -0.585D-01-0.746D-01 0.255D+00 0.870D+00
 Gap=     0.282 Goal=   None    Shift=    0.000
 RMSDP=7.22D-09 MaxDP=3.44D-07 DE=-2.92D-10 OVMax= 1.66D-06

 SCF Done:  E(RwB97XD) =  -2048.74967052     A.U. after   15 cycles
            NFock= 15  Conv=0.72D-08     -V/T= 2.0054
 KE= 2.037780030230D+03 PE=-1.596002347044D+04 EE= 6.283701931803D+03
 Leave Link  502 at Thu Jan 18 15:55:34 2018, MaxMem=  4294967296 cpu:           22362.4 elap:             725.3
 (Enter /share/apps/g16/l601.exe)
 Copying SCF densities to generalized density rwf, IOpCl= 0 IROHF=0.

 **********************************************************************

            Population analysis using the SCF density.

 **********************************************************************

 Orbital symmetries:
       Occupied  (A) (A) (A) (A) (A) (A) (A) (A) (A) (A) (A) (A)
                 (A) (A) (A) (A) (A) (A) (A) (A) (A) (A) (A) (A)
                 (A) (A) (A) (A) (A) (A) (A) (A) (A) (A) (A) (A)
                 (A) (A) (A) (A) (A) (A) (A) (A) (A) (A) (A) (A)
                 (A) (A) (A) (A) (A) (A) (A) (A) (A) (A) (A) (A)
                 (A) (A) (A) (A) (A) (A) (A) (A) (A) (A) (A) (A)
                 (A) (A) (A) (A) (A) (A) (A) (A) (A) (A) (A) (A)
                 (A) (A) (A) (A) (A) (A) (A) (A) (A) (A) (A) (A)
                 (A) (A) (A) (A) (A) (A) (A) (A) (A) (A) (A) (A)
                 (A) (A) (A) (A) (A) (A) (A) (A) (A) (A) (A) (A)
                 (A) (A) (A) (A) (A) (A) (A) (A) (A) (A) (A) (A)
                 (A) (A) (A) (A) (A) (A) (A) (A) (A) (A) (A) (A)
                 (A) (A) (A) (A) (A) (A) (A) (A) (A) (A)
       Virtual   (A) (A) (A) (A) (A) (A) (A) (A) (A) (A) (A) (A)
                 (A) (A) (A) (A) (A) (A) (A) (A) (A) (A) (A) (A)
                 (A) (A) (A) (A) (A) (A) (A) (A) (A) (A) (A) (A)
                 (A) (A) (A) (A) (A) (A) (A) (A) (A) (A) (A) (A)
                 (A) (A) (A) (A) (A) (A) (A) (A) (A) (A) (A) (A)
                 (A) (A) (A) (A) (A) (A) (A) (A) (A) (A) (A) (A)
                 (A) (A) (A) (A) (A) (A) (A) (A) (A) (A) (A) (A)
                 (A) (A) (A) (A) (A) (A) (A) (A) (A) (A) (A) (A)
                 (A) (A) (A) (A) (A) (A) (A) (A) (A) (A) (A) (A)
                 (A) (A) (A) (A) (A) (A) (A) (A) (A) (A) (A) (A)
                 (A) (A) (A) (A) (A) (A) (A) (A) (A) (A) (A) (A)
                 (A) (A) (A) (A) (A) (A) (A) (A) (A) (A) (A) (A)
                 (A) (A) (A) (A) (A) (A) (A) (A) (A) (A) (A) (A)
                 (A) (A) (A) (A) (A) (A) (A) (A) (A) (A) (A) (A)
                 (A) (A) (A) (A) (A) (A) (A) (A) (A) (A) (A) (A)
                 (A) (A) (A) (A) (A) (A) (A) (A) (A) (A) (A) (A)
                 (A) (A) (A) (A) (A) (A) (A) (A) (A) (A) (A) (A)
                 (A) (A) (A) (A) (A) (A) (A) (A) (A) (A) (A) (A)
                 (A) (A) (A) (A) (A) (A) (A) (A) (A) (A) (A) (A)
                 (A) (A) (A) (A) (A) (A) (A) (A) (A) (A) (A) (A)
                 (A) (A) (A) (A) (A) (A) (A) (A) (A) (A) (A) (A)
                 (A) (A) (A) (A) (A) (A) (A) (A) (A) (A) (A) (A)
                 (A) (A) (A) (A) (A) (A) (A) (A) (A) (A) (A) (A)
                 (A) (A) (A) (A) (A) (A) (A) (A) (A) (A) (A) (A)
                 (A) (A) (A) (A) (A) (A) (A) (A) (A) (A) (A) (A)
                 (A) (A) (A) (A) (A) (A) (A) (A) (A) (A) (A) (A)
                 (A) (A) (A) (A) (A) (A) (A) (A) (A) (A) (A) (A)
                 (A) (A) (A) (A) (A) (A) (A) (A) (A) (A) (A) (A)
                 (A) (A) (A) (A) (A) (A) (A) (A) (A) (A) (A) (A)
                 (A) (A) (A) (A) (A) (A) (A) (A) (A) (A) (A) (A)
                 (A) (A) (A) (A) (A) (A) (A) (A) (A) (A) (A) (A)
                 (A) (A) (A) (A) (A) (A) (A) (A) (A) (A) (A) (A)
                 (A) (A) (A) (A) (A) (A) (A) (A) (A) (A) (A) (A)
                 (A) (A) (A) (A) (A) (A) (A) (A) (A) (A) (A) (A)
                 (A) (A) (A) (A) (A) (A) (A) (A) (A) (A) (A) (A)
                 (A) (A) (A) (A) (A) (A) (A) (A) (A) (A) (A) (A)
                 (A) (A) (A) (A) (A) (A) (A) (A) (A) (A) (A) (A)
                 (A) (A) (A) (A) (A) (A) (A) (A) (A) (A) (A) (A)
                 (A) (A) (A) (A) (A) (A) (A) (A) (A) (A) (A) (A)
                 (A) (A) (A) (A) (A) (A) (A) (A) (A) (A) (A) (A)
                 (A) (A) (A) (A) (A) (A) (A) (A) (A) (A) (A) (A)
                 (A) (A) (A) (A) (A) (A) (A) (A) (A) (A) (A) (A)
                 (A) (A) (A) (A) (A) (A) (A) (A) (A) (A) (A) (A)
                 (A) (A) (A) (A) (A) (A) (A) (A) (A) (A) (A) (A)
                 (A) (A) (A) (A) (A) (A) (A) (A) (A) (A) (A) (A)
                 (A) (A) (A) (A) (A) (A) (A) (A) (A) (A) (A) (A)
                 (A) (A) (A) (A) (A) (A) (A) (A) (A) (A) (A) (A)
                 (A) (A) (A) (A) (A) (A) (A) (A) (A) (A) (A) (A)
                 (A) (A) (A) (A) (A) (A) (A)
 The electronic state is 1-A.
 Alpha  occ. eigenvalues --  -19.25315 -19.21645 -19.20617 -14.52587 -14.51889
 Alpha  occ. eigenvalues --  -14.49047 -14.49028 -14.47922 -14.47278 -14.46746
 Alpha  occ. eigenvalues --  -14.46611 -14.45423 -14.44379 -14.44366 -14.42705
 Alpha  occ. eigenvalues --  -14.41913 -14.41380 -14.41319 -14.41146 -14.40816
 Alpha  occ. eigenvalues --  -10.44906 -10.41133 -10.39865 -10.39705 -10.38244
 Alpha  occ. eigenvalues --  -10.38000 -10.37203 -10.37126 -10.35892 -10.35865
 Alpha  occ. eigenvalues --  -10.34636 -10.34450 -10.34182 -10.34167 -10.33668
 Alpha  occ. eigenvalues --  -10.33656 -10.33523 -10.32630 -10.31656 -10.31259
 Alpha  occ. eigenvalues --  -10.30500 -10.28786 -10.28236  -1.18930  -1.15329
 Alpha  occ. eigenvalues --   -1.13207  -1.12636  -1.11571  -1.10749  -1.09307
 Alpha  occ. eigenvalues --   -1.08790  -1.08522  -1.05488  -1.04764  -1.02002
 Alpha  occ. eigenvalues --   -1.01036  -1.00827  -0.99681  -0.98541  -0.97263
 Alpha  occ. eigenvalues --   -0.96854  -0.96743  -0.93161  -0.90475  -0.87702
 Alpha  occ. eigenvalues --   -0.86055  -0.84461  -0.84145  -0.83186  -0.82913
 Alpha  occ. eigenvalues --   -0.82576  -0.78336  -0.77041  -0.74874  -0.74736
 Alpha  occ. eigenvalues --   -0.73601  -0.73255  -0.72855  -0.71414  -0.70386
 Alpha  occ. eigenvalues --   -0.67414  -0.66774  -0.66672  -0.66052  -0.64393
 Alpha  occ. eigenvalues --   -0.64208  -0.63582  -0.63096  -0.62606  -0.61796
 Alpha  occ. eigenvalues --   -0.61402  -0.60766  -0.60450  -0.59570  -0.59008
 Alpha  occ. eigenvalues --   -0.58620  -0.58366  -0.58064  -0.56955  -0.55911
 Alpha  occ. eigenvalues --   -0.55810  -0.55648  -0.55357  -0.54248  -0.54067
 Alpha  occ. eigenvalues --   -0.54011  -0.53707  -0.53485  -0.53118  -0.52985
 Alpha  occ. eigenvalues --   -0.52871  -0.52198  -0.51893  -0.50920  -0.50641
 Alpha  occ. eigenvalues --   -0.50234  -0.50087  -0.49249  -0.49213  -0.48888
 Alpha  occ. eigenvalues --   -0.48730  -0.48314  -0.48224  -0.47976  -0.47315
 Alpha  occ. eigenvalues --   -0.47215  -0.46117  -0.44985  -0.44927  -0.43064
 Alpha  occ. eigenvalues --   -0.41363  -0.40742  -0.38988  -0.37845  -0.37553
 Alpha  occ. eigenvalues --   -0.37445  -0.37233  -0.37060  -0.35999  -0.34575
 Alpha  occ. eigenvalues --   -0.34515  -0.34094  -0.33818  -0.33598  -0.32988
 Alpha  occ. eigenvalues --   -0.32653  -0.32386  -0.31866  -0.31423  -0.31122
 Alpha  occ. eigenvalues --   -0.30772  -0.29972  -0.26745  -0.24884
 Alpha virt. eigenvalues --    0.03354   0.04237   0.06875   0.07313   0.08582
 Alpha virt. eigenvalues --    0.09117   0.09857   0.10380   0.10993   0.12419
 Alpha virt. eigenvalues --    0.13096   0.13386   0.14199   0.14399   0.14886
 Alpha virt. eigenvalues --    0.15065   0.16150   0.17441   0.17950   0.18359
 Alpha virt. eigenvalues --    0.18410   0.19278   0.19581   0.20359   0.20492
 Alpha virt. eigenvalues --    0.20637   0.21014   0.21148   0.21573   0.21945
 Alpha virt. eigenvalues --    0.22426   0.22683   0.23269   0.23387   0.23745
 Alpha virt. eigenvalues --    0.24018   0.24267   0.24738   0.24972   0.25569
 Alpha virt. eigenvalues --    0.26630   0.27200   0.27638   0.27728   0.28002
 Alpha virt. eigenvalues --    0.28729   0.29022   0.29311   0.30350   0.30580
 Alpha virt. eigenvalues --    0.30743   0.31774   0.32399   0.33094   0.33243
 Alpha virt. eigenvalues --    0.34212   0.34595   0.35306   0.35679   0.36385
 Alpha virt. eigenvalues --    0.36551   0.36857   0.37706   0.38054   0.38750
 Alpha virt. eigenvalues --    0.39493   0.39992   0.40606   0.41716   0.42015
 Alpha virt. eigenvalues --    0.42281   0.42502   0.43103   0.43950   0.44400
 Alpha virt. eigenvalues --    0.45093   0.45614   0.45993   0.46330   0.46681
 Alpha virt. eigenvalues --    0.46915   0.47621   0.47909   0.48298   0.49141
 Alpha virt. eigenvalues --    0.49756   0.50068   0.50499   0.50904   0.51449
 Alpha virt. eigenvalues --    0.52007   0.52435   0.52662   0.52956   0.53014
 Alpha virt. eigenvalues --    0.53971   0.54198   0.54411   0.54886   0.55443
 Alpha virt. eigenvalues --    0.56034   0.56442   0.56805   0.57089   0.57355
 Alpha virt. eigenvalues --    0.58046   0.58659   0.59032   0.59081   0.59261
 Alpha virt. eigenvalues --    0.60190   0.60486   0.61360   0.61423   0.61515
 Alpha virt. eigenvalues --    0.62196   0.62601   0.62753   0.63055   0.63340
 Alpha virt. eigenvalues --    0.63589   0.64453   0.64776   0.65532   0.66068
 Alpha virt. eigenvalues --    0.66216   0.66596   0.67054   0.67601   0.68095
 Alpha virt. eigenvalues --    0.68184   0.68512   0.69066   0.69474   0.70498
 Alpha virt. eigenvalues --    0.70646   0.71430   0.71603   0.71688   0.72530
 Alpha virt. eigenvalues --    0.72672   0.73116   0.73872   0.74068   0.74431
 Alpha virt. eigenvalues --    0.74534   0.75023   0.75185   0.75748   0.75954
 Alpha virt. eigenvalues --    0.76370   0.76417   0.76780   0.76876   0.77999
 Alpha virt. eigenvalues --    0.78148   0.78601   0.79134   0.79669   0.79954
 Alpha virt. eigenvalues --    0.80170   0.80596   0.81404   0.81600   0.81840
 Alpha virt. eigenvalues --    0.81988   0.82562   0.82964   0.83223   0.83910
 Alpha virt. eigenvalues --    0.84234   0.84698   0.84725   0.85378   0.85614
 Alpha virt. eigenvalues --    0.86358   0.86545   0.87273   0.87547   0.87728
 Alpha virt. eigenvalues --    0.88229   0.88665   0.89352   0.89612   0.90375
 Alpha virt. eigenvalues --    0.90628   0.91314   0.92072   0.92370   0.92913
 Alpha virt. eigenvalues --    0.93442   0.93567   0.94630   0.94850   0.95168
 Alpha virt. eigenvalues --    0.95623   0.96022   0.96489   0.96614   0.97287
 Alpha virt. eigenvalues --    0.97557   0.98019   0.98320   0.98642   0.99561
 Alpha virt. eigenvalues --    0.99783   1.00244   1.00837   1.01400   1.01642
 Alpha virt. eigenvalues --    1.02099   1.02416   1.02989   1.03351   1.03737
 Alpha virt. eigenvalues --    1.04188   1.04794   1.05030   1.05564   1.06340
 Alpha virt. eigenvalues --    1.06878   1.07275   1.08059   1.08593   1.09113
 Alpha virt. eigenvalues --    1.09405   1.10205   1.10556   1.10895   1.11754
 Alpha virt. eigenvalues --    1.11828   1.12438   1.13021   1.13462   1.13616
 Alpha virt. eigenvalues --    1.14204   1.14700   1.15216   1.15844   1.16050
 Alpha virt. eigenvalues --    1.16777   1.17319   1.17636   1.17892   1.18309
 Alpha virt. eigenvalues --    1.18605   1.19138   1.19541   1.20117   1.20397
 Alpha virt. eigenvalues --    1.20551   1.20959   1.21399   1.21794   1.22253
 Alpha virt. eigenvalues --    1.22536   1.22970   1.23546   1.23948   1.24146
 Alpha virt. eigenvalues --    1.24434   1.24966   1.25461   1.25834   1.26065
 Alpha virt. eigenvalues --    1.26651   1.27042   1.28034   1.28373   1.28593
 Alpha virt. eigenvalues --    1.29061   1.29706   1.30209   1.30565   1.31126
 Alpha virt. eigenvalues --    1.31737   1.32419   1.32857   1.33771   1.34290
 Alpha virt. eigenvalues --    1.35029   1.35698   1.36027   1.36304   1.37868
 Alpha virt. eigenvalues --    1.38236   1.38923   1.39629   1.39722   1.40080
 Alpha virt. eigenvalues --    1.41439   1.41860   1.43496   1.44050   1.44235
 Alpha virt. eigenvalues --    1.45683   1.46035   1.47034   1.47827   1.48187
 Alpha virt. eigenvalues --    1.48593   1.49101   1.50865   1.51594   1.52772
 Alpha virt. eigenvalues --    1.53051   1.53562   1.54465   1.55186   1.55644
 Alpha virt. eigenvalues --    1.56113   1.56801   1.57045   1.57668   1.58090
 Alpha virt. eigenvalues --    1.59324   1.59857   1.60295   1.61523   1.62154
 Alpha virt. eigenvalues --    1.62283   1.62619   1.63545   1.64092   1.64808
 Alpha virt. eigenvalues --    1.65184   1.65526   1.66209   1.66782   1.67318
 Alpha virt. eigenvalues --    1.67547   1.67951   1.68543   1.69181   1.70010
 Alpha virt. eigenvalues --    1.71100   1.71527   1.71575   1.72121   1.72364
 Alpha virt. eigenvalues --    1.72532   1.72565   1.73193   1.73917   1.74874
 Alpha virt. eigenvalues --    1.75131   1.75379   1.75598   1.75895   1.76565
 Alpha virt. eigenvalues --    1.76843   1.77253   1.77262   1.77750   1.78022
 Alpha virt. eigenvalues --    1.78558   1.78882   1.79145   1.79444   1.79896
 Alpha virt. eigenvalues --    1.80028   1.80526   1.80628   1.80950   1.81376
 Alpha virt. eigenvalues --    1.82172   1.82286   1.82535   1.83181   1.84005
 Alpha virt. eigenvalues --    1.84460   1.84642   1.84860   1.85413   1.86032
 Alpha virt. eigenvalues --    1.86469   1.86863   1.87451   1.87871   1.88122
 Alpha virt. eigenvalues --    1.88351   1.89109   1.89481   1.89642   1.89710
 Alpha virt. eigenvalues --    1.90806   1.91222   1.91662   1.92577   1.93055
 Alpha virt. eigenvalues --    1.93576   1.94308   1.94733   1.95536   1.95977
 Alpha virt. eigenvalues --    1.96241   1.97208   1.97654   1.97914   1.98502
 Alpha virt. eigenvalues --    1.99189   1.99839   2.00318   2.01186   2.02064
 Alpha virt. eigenvalues --    2.02972   2.03661   2.04305   2.04509   2.05527
 Alpha virt. eigenvalues --    2.05849   2.06420   2.07084   2.08204   2.08657
 Alpha virt. eigenvalues --    2.09007   2.09643   2.10432   2.10618   2.11003
 Alpha virt. eigenvalues --    2.11696   2.12229   2.13997   2.15076   2.15713
 Alpha virt. eigenvalues --    2.16280   2.16394   2.16801   2.17904   2.18820
 Alpha virt. eigenvalues --    2.19816   2.20272   2.20968   2.21928   2.22249
 Alpha virt. eigenvalues --    2.22664   2.22920   2.23919   2.24657   2.25043
 Alpha virt. eigenvalues --    2.25460   2.25655   2.26284   2.26974   2.27101
 Alpha virt. eigenvalues --    2.28078   2.28509   2.29449   2.29694   2.29741
 Alpha virt. eigenvalues --    2.30481   2.31629   2.31985   2.32173   2.32873
 Alpha virt. eigenvalues --    2.33508   2.34042   2.34450   2.34623   2.35437
 Alpha virt. eigenvalues --    2.36066   2.36230   2.36615   2.37481   2.38176
 Alpha virt. eigenvalues --    2.38978   2.39244   2.40345   2.41172   2.41726
 Alpha virt. eigenvalues --    2.42146   2.43211   2.43471   2.43735   2.44990
 Alpha virt. eigenvalues --    2.45165   2.45930   2.46375   2.46790   2.47884
 Alpha virt. eigenvalues --    2.48736   2.49497   2.50436   2.51378   2.51871
 Alpha virt. eigenvalues --    2.52321   2.54378   2.55954   2.56254   2.56678
 Alpha virt. eigenvalues --    2.57711   2.58263   2.59137   2.61272   2.61489
 Alpha virt. eigenvalues --    2.62129   2.63384   2.63770   2.64455   2.65185
 Alpha virt. eigenvalues --    2.65626   2.65868   2.66081   2.66215   2.67036
 Alpha virt. eigenvalues --    2.67543   2.68409   2.68721   2.69501   2.70525
 Alpha virt. eigenvalues --    2.71168   2.71325   2.71721   2.72622   2.73844
 Alpha virt. eigenvalues --    2.74853   2.75273   2.75563   2.77175   2.77673
 Alpha virt. eigenvalues --    2.78059   2.78271   2.79156   2.79298   2.79823
 Alpha virt. eigenvalues --    2.80427   2.81008   2.81326   2.81731   2.81947
 Alpha virt. eigenvalues --    2.82634   2.82945   2.83680   2.84215   2.84812
 Alpha virt. eigenvalues --    2.85293   2.86239   2.86674   2.86863   2.87174
 Alpha virt. eigenvalues --    2.87760   2.88891   2.89870   2.93594   2.94383
 Alpha virt. eigenvalues --    2.95033   2.97570   2.98310   2.98891   3.00035
 Alpha virt. eigenvalues --    3.01685   3.02113   3.02587   3.04399   3.06070
 Alpha virt. eigenvalues --    3.06986   3.09833   3.10614   3.13232   3.15126
 Alpha virt. eigenvalues --    3.15515   3.16404   3.17557   3.18585   3.21061
 Alpha virt. eigenvalues --    3.21672   3.23430   3.24262   3.24748   3.28128
 Alpha virt. eigenvalues --    3.45018   3.47128   3.47760   3.49210   3.50976
 Alpha virt. eigenvalues --    3.52987   3.54875   3.56458   3.58254   3.60283
 Alpha virt. eigenvalues --    3.63880   3.71565   3.75723
          Condensed to atoms (all electrons):
 Mulliken charges:
               1
     1  N   -0.300025
     2  C    0.178269
     3  C    0.063537
     4  N   -0.243593
     5  C    0.135190
     6  H    0.024545
     7  N   -0.287396
     8  C    0.130681
     9  H    0.009548
    10  N   -0.278210
    11  C    0.226568
    12  C    0.074193
    13  N   -0.043815
    14  H    0.114119
    15  H    0.085138
    16  H    0.027986
    17  H    0.037935
    18  H    0.015560
    19  N   -0.299535
    20  C    0.249949
    21  C    0.189227
    22  N   -0.122090
    23  H    0.118970
    24  H    0.118400
    25  N   -0.299461
    26  C    0.233779
    27  N   -0.133233
    28  H    0.119179
    29  C    0.178041
    30  O   -0.322328
    31  C   -0.009953
    32  N   -0.212841
    33  C    0.109525
    34  H    0.020182
    35  H    0.003098
    36  H    0.034287
    37  H    0.025251
    38  H    0.035058
    39  H    0.055866
    40  H    0.077753
    41  H    0.020572
    42  C   -0.102258
    43  O   -0.272902
    44  C    0.165205
    45  H    0.128155
    46  N   -0.106233
    47  O   -0.347312
    48  C    0.329787
    49  H    0.045023
    50  C    0.169374
    51  C    0.051091
    52  N   -0.274365
    53  H    0.036226
    54  H    0.041994
    55  H    0.028975
    56  H    0.126306
    57  H    0.117790
    58  N   -0.049777
    59  C    0.086576
    60  C    0.205493
    61  N   -0.261091
    62  H    0.023528
    63  C    0.162173
    64  N   -0.299267
    65  H    0.036388
    66  C    0.126917
    67  N   -0.252350
    68  C    0.050600
    69  C    0.176825
    70  N   -0.302797
 Sum of Mulliken charges =  -0.00000
 Mulliken charges with hydrogens summed into heavy atoms:
               1
     1  N   -0.300025
     2  C    0.259750
     3  C    0.063537
     4  N   -0.243593
     5  C    0.159735
     7  N   -0.287396
     8  C    0.140229
    10  N   -0.278210
    11  C    0.226568
    12  C    0.074193
    13  N    0.155442
    19  N   -0.299535
    20  C    0.249949
    21  C    0.251863
    22  N    0.115280
    25  N   -0.299461
    26  C    0.233779
    27  N   -0.014055
    29  C    0.178041
    30  O   -0.322328
    31  C   -0.009953
    32  N   -0.212841
    33  C    0.129707
    42  C   -0.081685
    43  O   -0.272902
    44  C    0.165205
    46  N    0.021923
    47  O   -0.347312
    48  C    0.329787
    50  C    0.214397
    51  C    0.219768
    52  N   -0.274365
    58  N    0.194319
    59  C    0.086576
    60  C    0.205493
    61  N   -0.261091
    63  C    0.185701
    64  N   -0.299267
    66  C    0.163304
    67  N   -0.252350
    68  C    0.050600
    69  C    0.284020
    70  N   -0.302797
 Electronic spatial extent (au):  <R**2>=          22113.9347
 Charge=              0.0000 electrons
 Dipole moment (field-independent basis, Debye):
    X=             -5.3148    Y=              6.1095    Z=             -4.7160  Tot=              9.3710
 Quadrupole moment (field-independent basis, Debye-Ang):
   XX=           -147.4004   YY=           -224.0580   ZZ=           -262.3042
   XY=             -9.8732   XZ=             -0.6964   YZ=              1.4586
 Traceless Quadrupole moment (field-independent basis, Debye-Ang):
   XX=             63.8538   YY=            -12.8038   ZZ=            -51.0500
   XY=             -9.8732   XZ=             -0.6964   YZ=              1.4586
 Octapole moment (field-independent basis, Debye-Ang**2):
  XXX=             94.8051  YYY=             39.0723  ZZZ=            -49.1803  XYY=            -50.9116
  XXY=             99.2062  XXZ=            -66.3043  XZZ=            -62.2060  YZZ=             57.2153
  YYZ=            -33.0584  XYZ=             43.1122
 Hexadecapole moment (field-independent basis, Debye-Ang**3):
 XXXX=         -16512.1149 YYYY=          -3684.1387 ZZZZ=          -3839.2291 XXXY=           -718.4628
 XXXZ=            176.7869 YYYX=            138.1782 YYYZ=           -144.2988 ZZZX=             99.0751
 ZZZY=             29.9778 XXYY=          -3862.7409 XXZZ=          -3956.0276 YYZZ=          -1330.2478
 XXYZ=           -117.3459 YYXZ=             -7.5213 ZZXY=           -115.3418
 N-N= 5.589791837892D+03 E-N=-1.596002345853D+04  KE= 2.037780030230D+03
 No NMR shielding tensors so no spin-rotation constants.
 Leave Link  601 at Thu Jan 18 15:55:36 2018, MaxMem=  4294967296 cpu:              47.6 elap:               1.7
 (Enter /share/apps/g16/l9999.exe)
 1\1\GINC-COMPUTE-0-3\SP\RwB97XD\CC-pVDZ\C23H27N17O3\SATYA\18-Jan-2018\
 0\\#p wb97xd/cc-pvdz sp scf=(maxcycles=20)\\Base pair stacking\\0,1\N,
 0,1.15679,3.70243,-6.47105\C,0,0.86899,5.14627,-6.57363\C,0,0.95062,1.
 51468,-6.37851\N,0,2.30674,1.78207,-6.25948\C,0,2.37667,3.08941,-6.32\
 H,0,3.30118,3.66432,-6.25909\N,0,-1.12083,0.39623,-6.52372\C,0,-1.6790
 5,1.60548,-6.6407\H,0,-2.763,1.60895,-6.74702\N,0,-1.10204,2.80545,-6.
 64603\C,0,0.22918,2.6885,-6.50964\C,0,0.22066,0.31219,-6.38803\N,0,0.7
 7974,-0.89402,-6.27112\H,0,1.76903,-1.00364,-6.1686\H,0,0.22909,-1.728
 77,-6.28203\H,0,1.34331,5.52649,-7.36775\H,0,-0.11559,5.28411,-6.67715
 \H,0,1.18364,5.61063,-5.74576\N,0,-0.22179,3.94436,-3.26456\C,0,-0.848
 95,2.72177,-3.26328\C,0,-0.90091,5.25208,-3.36129\N,0,-3.76188,0.83544
 ,-3.39872\H,0,-4.01626,-0.1311,-3.38065\H,0,-4.50633,1.49917,-3.47605\
 N,0,-2.18025,2.5114,-3.34948\C,0,-2.48033,1.22499,-3.32272\N,0,-1.5493
 7,0.21992,-3.21948\H,0,-1.87,-0.73611,-3.20649\C,0,-0.17444,0.41318,-3
 .12957\O,0,0.58009,-0.56323,-3.03986\C,0,0.16328,1.79016,-3.15705\N,0,
 1.40101,2.41529,-3.09292\C,0,1.1238,3.68921,-3.16\H,0,1.8657,4.48818,-
 3.13738\H,0,-0.58161,5.73595,-4.17537\H,0,-1.88763,5.10889,-3.42565\H,
 0,-0.69653,5.7966,-2.54856\H,0,-4.05493,-5.28307,-3.84208\H,0,-3.93279
 ,-5.35578,-2.08582\H,0,-4.16358,-3.80258,-2.88935\H,0,0.59705,-6.39718
 ,-3.32784\C,0,-0.05727,-5.52915,-3.2464\O,0,1.71712,-3.95585,-3.30466\
 C,0,0.51688,-4.21843,-3.23206\H,0,-0.03096,-2.25021,-3.11248\N,0,-0.39
 882,-3.19108,-3.12585\O,0,-2.49395,-2.33388,-2.94466\C,0,-1.76353,-3.3
 049,-3.03565\H,0,-1.87107,-6.64698,-3.16654\C,0,-1.38491,-5.67232,-3.1
 6\C,0,-3.69346,-4.77201,-2.96218\N,0,-2.24103,-4.60058,-3.05609\H,0,-5
 .98305,-5.84291,-6.86174\H,0,-5.71944,-4.55069,-5.90113\H,0,-5.88608,-
 6.03547,-5.24405\H,0,1.30067,-4.53281,-6.31721\H,0,0.65353,-6.10426,-6
 .46493\N,0,0.49463,-5.12437,-6.33931\C,0,-0.7378,-4.62955,-6.20724\C,0
 ,-3.1103,-4.76045,-6.08142\N,0,-3.29361,-3.4403,-5.91402\H,0,-2.18182,
 -1.72399,-5.77681\C,0,-2.12418,-2.80366,-5.90822\N,0,-0.88876,-3.29747
 ,-6.04035\H,0,-3.93121,-7.87108,-6.40123\C,0,-3.40332,-6.92046,-6.32\N
 ,0,-2.10134,-6.78345,-6.38132\C,0,-1.9021,-5.41869,-6.23142\C,0,-5.532
 59,-5.52445,-6.02768\N,0,-4.07643,-5.73677,-6.1396\\Version=EM64L-G16R
 evA.03\State=1-A\HF=-2048.7496705\RMSD=7.221e-09\Dipole=-3.4906593,-1.
 1216386,-0.3871244\Quadrupole=-9.0975653,38.6343699,-29.5368046,23.416
 5557,-13.2001789,1.1409073\PG=C01 [X(C23H27N17O3)]\\@


 Where a calculator on the ENIAC is equipped with 18,000
 vacuum tubes and weighs 30 tons, computers inthe future
 may  have only 1,000 vacuum tubes and weigh only 1 1/2 tons.
              ---Popular Mechanics, March 1949
 Job cpu time:       0 days  6 hours 24 minutes 22.7 seconds.
 Elapsed time:       0 days  0 hours 12 minutes 28.2 seconds.
 File lengths (MBytes):  RWF=    298 Int=      0 D2E=      0 Chk=     33 Scr=      1
 Normal termination of Gaussian 16 at Thu Jan 18 15:55:36 2018.
