 Entering Gaussian System, Link 0=g16
 Input=str60.-5.2.5.com
 Output=str60.-5.2.5.log
 Initial command:
 /share/apps/g16/l1.exe "/state/partition1/scr/Gau-28730.inp" -scrdir="/state/partition1/scr/"
 Entering Link 1 = /share/apps/g16/l1.exe PID=     28731.
  
 Copyright (c) 1988,1990,1992,1993,1995,1998,2003,2009,2016,
            Gaussian, Inc.  All Rights Reserved.
  
 This is part of the Gaussian(R) 16 program.  It is based on
 the Gaussian(R) 09 system (copyright 2009, Gaussian, Inc.),
 the Gaussian(R) 03 system (copyright 2003, Gaussian, Inc.),
 the Gaussian(R) 98 system (copyright 1998, Gaussian, Inc.),
 the Gaussian(R) 94 system (copyright 1995, Gaussian, Inc.),
 the Gaussian 92(TM) system (copyright 1992, Gaussian, Inc.),
 the Gaussian 90(TM) system (copyright 1990, Gaussian, Inc.),
 the Gaussian 88(TM) system (copyright 1988, Gaussian, Inc.),
 the Gaussian 86(TM) system (copyright 1986, Carnegie Mellon
 University), and the Gaussian 82(TM) system (copyright 1983,
 Carnegie Mellon University). Gaussian is a federally registered
 trademark of Gaussian, Inc.
  
 This software contains proprietary and confidential information,
 including trade secrets, belonging to Gaussian, Inc.
  
 This software is provided under written license and may be
 used, copied, transmitted, or stored only in accord with that
 written license.
  
 The following legend is applicable only to US Government
 contracts under FAR:
  
                    RESTRICTED RIGHTS LEGEND
  
 Use, reproduction and disclosure by the US Government is
 subject to restrictions as set forth in subparagraphs (a)
 and (c) of the Commercial Computer Software - Restricted
 Rights clause in FAR 52.227-19.
  
 Gaussian, Inc.
 340 Quinnipiac St., Bldg. 40, Wallingford CT 06492
  
  
 ---------------------------------------------------------------
 Warning -- This program may not be used in any manner that
 competes with the business of Gaussian, Inc. or will provide
 assistance to any competitor of Gaussian, Inc.  The licensee
 of this program is prohibited from giving any competitor of
 Gaussian, Inc. access to this program.  By using this program,
 the user acknowledges that Gaussian, Inc. is engaged in the
 business of creating and licensing software in the field of
 computational chemistry and represents and warrants to the
 licensee that it is not a competitor of Gaussian, Inc. and that
 it will not use this program in any manner prohibited above.
 ---------------------------------------------------------------
  

 Cite this work as:
 Gaussian 16, Revision A.03,
 M. J. Frisch, G. W. Trucks, H. B. Schlegel, G. E. Scuseria, 
 M. A. Robb, J. R. Cheeseman, G. Scalmani, V. Barone, 
 G. A. Petersson, H. Nakatsuji, X. Li, M. Caricato, A. V. Marenich, 
 J. Bloino, B. G. Janesko, R. Gomperts, B. Mennucci, H. P. Hratchian, 
 J. V. Ortiz, A. F. Izmaylov, J. L. Sonnenberg, D. Williams-Young, 
 F. Ding, F. Lipparini, F. Egidi, J. Goings, B. Peng, A. Petrone, 
 T. Henderson, D. Ranasinghe, V. G. Zakrzewski, J. Gao, N. Rega, 
 G. Zheng, W. Liang, M. Hada, M. Ehara, K. Toyota, R. Fukuda, 
 J. Hasegawa, M. Ishida, T. Nakajima, Y. Honda, O. Kitao, H. Nakai, 
 T. Vreven, K. Throssell, J. A. Montgomery, Jr., J. E. Peralta, 
 F. Ogliaro, M. J. Bearpark, J. J. Heyd, E. N. Brothers, K. N. Kudin, 
 V. N. Staroverov, T. A. Keith, R. Kobayashi, J. Normand, 
 K. Raghavachari, A. P. Rendell, J. C. Burant, S. S. Iyengar, 
 J. Tomasi, M. Cossi, J. M. Millam, M. Klene, C. Adamo, R. Cammi, 
 J. W. Ochterski, R. L. Martin, K. Morokuma, O. Farkas, 
 J. B. Foresman, and D. J. Fox, Gaussian, Inc., Wallingford CT, 2016.
 
 ******************************************
 Gaussian 16:  EM64L-G16RevA.03 25-Dec-2016
                27-Jan-2018 
 ******************************************
 %nprocshared=32
 Will use up to   32 processors via shared memory.
 %mem=32GB
 %chk=allatoms_t.chk
 ---------------------------------------
 #p wb97xd/cc-pvdz sp scf=(maxcycles=20)
 ---------------------------------------
 1/38=1,172=1/1;
 2/12=2,17=6,18=5,40=1/2;
 3/5=16,11=2,25=1,30=1,74=-58/1,2,3;
 4//1;
 5/5=2,7=20,38=5/2;
 6/7=2,8=2,9=2,10=2,28=1/1;
 99/5=1,9=1/99;
 Leave Link    1 at Sat Jan 27 11:57:31 2018, MaxMem=  4294967296 cpu:               2.7 elap:               0.1
 (Enter /share/apps/g16/l101.exe)
 ------------------
 Base pair stacking
 ------------------
 Symbolic Z-matrix:
 Charge =  0 Multiplicity = 1
 N                     1.4349   -3.57473  -6.72933 
 C                     2.8713   -3.2781   -6.89292 
 C                    -0.74054  -3.37896  -6.47153 
 N                    -0.47683  -4.74002  -6.52359 
 C                     0.82323  -4.80349  -6.67682 
 H                     1.39348  -5.72932  -6.758 
 N                    -1.84948  -1.30365  -6.30939 
 C                    -0.64594  -0.73655  -6.44151 
 H                    -0.64071   0.35247  -6.42518 
 N                     0.54652  -1.31003  -6.59007 
 C                     0.42803  -2.64806  -6.59701 
 C                    -1.93526  -2.65183  -6.32032 
 N                    -3.13578  -3.21978  -6.18857 
 H                    -3.24642  -4.21425  -6.19108 
 H                    -3.96506  -2.6709   -6.08292 
 H                     3.19546  -3.66004  -7.7585 
 H                     3.01     -2.28821  -6.89377 
 H                     3.38581  -3.68442  -6.13782 
 N                     2.03388   1.39404  -3.29671 
 C                     0.72787   0.97286  -3.22596 
 C                     2.47415   2.80173  -3.36931 
 N                    -2.66576   1.70234  -3.11236 
 H                    -3.52715   1.19818  -3.05698 
 H                    -2.72561   2.70026  -3.1483 
 N                    -0.36385   1.76784  -3.211 
 C                    -1.48303   1.06954  -3.13737 
 N                    -1.53155  -0.30237  -3.08251 
 H                    -2.43248  -0.75211  -3.02757 
 C                    -0.42097  -1.1404   -3.09661 
 O                    -0.57432  -2.36692  -3.04297 
 C                     0.78871  -0.40465  -3.17545 
 N                     2.10641  -0.83953  -3.21372 
 C                     2.80767   0.25924  -3.28532 
 H                     3.89647   0.29905  -3.33231 
 H                     2.98804   2.94886  -4.21375 
 H                     1.67397   3.39996  -3.35894 
 H                     3.05607   3.01161  -2.58437 
 H                    -7.22754  -2.39862  -3.41371 
 H                    -7.07848  -2.60246  -1.6699 
 H                    -6.19504  -1.31133  -2.48469 
 H                    -4.70649  -6.49158  -3.21747 
 C                    -4.54806  -5.41891  -3.10562 
 O                    -2.19003  -5.55809  -3.32346 
 C                    -3.21604  -4.89859  -3.15867 
 H                    -2.20219  -3.12493  -3.03801 
 N                    -3.12737  -3.52959  -3.00622 
 O                    -3.98455  -1.45056  -2.68992 
 C                    -4.16284  -2.64942  -2.81482 
 H                    -6.61036  -4.93077  -2.87227 
 C                    -5.57843  -4.58553  -2.92013 
 C                    -6.5543   -2.32589  -2.57257 
 N                    -5.41658  -3.22716  -2.77518 
 H                    -8.05839   3.56955  -5.69002 
 H                    -6.70879   3.19845  -4.85161 
 H                    -8.14648   3.29082  -4.08442 
 H                    -6.77395  -3.72992  -6.05529 
 H                    -8.34646  -3.06926  -6.02633 
 N                    -7.35925  -2.92616  -5.94788 
 C                    -6.84708  -1.71681  -5.71055 
 C                    -6.95061   0.62644  -5.31028 
 N                    -5.62096   0.78887  -5.20987 
 H                    -3.90831  -0.33238  -5.311 
 C                    -4.99464  -0.37414  -5.37728 
 N                    -5.50582  -1.58647  -5.61507 
 H                    -10.06877   1.48012  -5.3319 
 C                    -9.11913   0.94585  -5.37283 
 N                    -8.99678  -0.34099  -5.58908 
 C                    -7.62681  -0.55672  -5.55199 
 C                    -7.69016   3.02767  -4.93453 
 N                    -7.92091   1.59357  -5.19549 
 
 ITRead=  0  0  0  0  0  0  0  0  0  0  0  0  0  0  0  0  0  0  0  0
 ITRead=  0  0  0  0  0  0  0  0  0  0  0  0  0  0  0  0  0  0  0  0
 ITRead=  0  0  0  0  0  0  0  0  0  0  0  0  0  0  0  0  0  0  0  0
 ITRead=  0  0  0  0  0  0  0  0  0  0
 MicOpt= -1 -1 -1 -1 -1 -1 -1 -1 -1 -1 -1 -1 -1 -1 -1 -1 -1 -1 -1 -1
 MicOpt= -1 -1 -1 -1 -1 -1 -1 -1 -1 -1 -1 -1 -1 -1 -1 -1 -1 -1 -1 -1
 MicOpt= -1 -1 -1 -1 -1 -1 -1 -1 -1 -1 -1 -1 -1 -1 -1 -1 -1 -1 -1 -1
 MicOpt= -1 -1 -1 -1 -1 -1 -1 -1 -1 -1
 NAtoms=     70 NQM=       70 NQMF=       0 NMMI=      0 NMMIF=      0
                NMic=       0 NMicF=      0.
                    Isotopes and Nuclear Properties:
 (Nuclear quadrupole moments (NQMom) in fm**2, nuclear magnetic moments (NMagM)
  in nuclear magnetons)

  Atom         1           2           3           4           5           6           7           8           9          10
 IAtWgt=          14          12          12          14          12           1          14          12           1          14
 AtmWgt=  14.0030740  12.0000000  12.0000000  14.0030740  12.0000000   1.0078250  14.0030740  12.0000000   1.0078250  14.0030740
 NucSpn=           2           0           0           2           0           1           2           0           1           2
 AtZEff=  -0.0000000  -0.0000000  -0.0000000  -0.0000000  -0.0000000  -0.0000000  -0.0000000  -0.0000000  -0.0000000  -0.0000000
 NQMom=    2.0440000   0.0000000   0.0000000   2.0440000   0.0000000   0.0000000   2.0440000   0.0000000   0.0000000   2.0440000
 NMagM=    0.4037610   0.0000000   0.0000000   0.4037610   0.0000000   2.7928460   0.4037610   0.0000000   2.7928460   0.4037610
 AtZNuc=   7.0000000   6.0000000   6.0000000   7.0000000   6.0000000   1.0000000   7.0000000   6.0000000   1.0000000   7.0000000

  Atom        11          12          13          14          15          16          17          18          19          20
 IAtWgt=          12          12          14           1           1           1           1           1          14          12
 AtmWgt=  12.0000000  12.0000000  14.0030740   1.0078250   1.0078250   1.0078250   1.0078250   1.0078250  14.0030740  12.0000000
 NucSpn=           0           0           2           1           1           1           1           1           2           0
 AtZEff=  -0.0000000  -0.0000000  -0.0000000  -0.0000000  -0.0000000  -0.0000000  -0.0000000  -0.0000000  -0.0000000  -0.0000000
 NQMom=    0.0000000   0.0000000   2.0440000   0.0000000   0.0000000   0.0000000   0.0000000   0.0000000   2.0440000   0.0000000
 NMagM=    0.0000000   0.0000000   0.4037610   2.7928460   2.7928460   2.7928460   2.7928460   2.7928460   0.4037610   0.0000000
 AtZNuc=   6.0000000   6.0000000   7.0000000   1.0000000   1.0000000   1.0000000   1.0000000   1.0000000   7.0000000   6.0000000

  Atom        21          22          23          24          25          26          27          28          29          30
 IAtWgt=          12          14           1           1          14          12          14           1          12          16
 AtmWgt=  12.0000000  14.0030740   1.0078250   1.0078250  14.0030740  12.0000000  14.0030740   1.0078250  12.0000000  15.9949146
 NucSpn=           0           2           1           1           2           0           2           1           0           0
 AtZEff=  -0.0000000  -0.0000000  -0.0000000  -0.0000000  -0.0000000  -0.0000000  -0.0000000  -0.0000000  -0.0000000  -0.0000000
 NQMom=    0.0000000   2.0440000   0.0000000   0.0000000   2.0440000   0.0000000   2.0440000   0.0000000   0.0000000   0.0000000
 NMagM=    0.0000000   0.4037610   2.7928460   2.7928460   0.4037610   0.0000000   0.4037610   2.7928460   0.0000000   0.0000000
 AtZNuc=   6.0000000   7.0000000   1.0000000   1.0000000   7.0000000   6.0000000   7.0000000   1.0000000   6.0000000   8.0000000

  Atom        31          32          33          34          35          36          37          38          39          40
 IAtWgt=          12          14          12           1           1           1           1           1           1           1
 AtmWgt=  12.0000000  14.0030740  12.0000000   1.0078250   1.0078250   1.0078250   1.0078250   1.0078250   1.0078250   1.0078250
 NucSpn=           0           2           0           1           1           1           1           1           1           1
 AtZEff=  -0.0000000  -0.0000000  -0.0000000  -0.0000000  -0.0000000  -0.0000000  -0.0000000  -0.0000000  -0.0000000  -0.0000000
 NQMom=    0.0000000   2.0440000   0.0000000   0.0000000   0.0000000   0.0000000   0.0000000   0.0000000   0.0000000   0.0000000
 NMagM=    0.0000000   0.4037610   0.0000000   2.7928460   2.7928460   2.7928460   2.7928460   2.7928460   2.7928460   2.7928460
 AtZNuc=   6.0000000   7.0000000   6.0000000   1.0000000   1.0000000   1.0000000   1.0000000   1.0000000   1.0000000   1.0000000

  Atom        41          42          43          44          45          46          47          48          49          50
 IAtWgt=           1          12          16          12           1          14          16          12           1          12
 AtmWgt=   1.0078250  12.0000000  15.9949146  12.0000000   1.0078250  14.0030740  15.9949146  12.0000000   1.0078250  12.0000000
 NucSpn=           1           0           0           0           1           2           0           0           1           0
 AtZEff=  -0.0000000  -0.0000000  -0.0000000  -0.0000000  -0.0000000  -0.0000000  -0.0000000  -0.0000000  -0.0000000  -0.0000000
 NQMom=    0.0000000   0.0000000   0.0000000   0.0000000   0.0000000   2.0440000   0.0000000   0.0000000   0.0000000   0.0000000
 NMagM=    2.7928460   0.0000000   0.0000000   0.0000000   2.7928460   0.4037610   0.0000000   0.0000000   2.7928460   0.0000000
 AtZNuc=   1.0000000   6.0000000   8.0000000   6.0000000   1.0000000   7.0000000   8.0000000   6.0000000   1.0000000   6.0000000

  Atom        51          52          53          54          55          56          57          58          59          60
 IAtWgt=          12          14           1           1           1           1           1          14          12          12
 AtmWgt=  12.0000000  14.0030740   1.0078250   1.0078250   1.0078250   1.0078250   1.0078250  14.0030740  12.0000000  12.0000000
 NucSpn=           0           2           1           1           1           1           1           2           0           0
 AtZEff=  -0.0000000  -0.0000000  -0.0000000  -0.0000000  -0.0000000  -0.0000000  -0.0000000  -0.0000000  -0.0000000  -0.0000000
 NQMom=    0.0000000   2.0440000   0.0000000   0.0000000   0.0000000   0.0000000   0.0000000   2.0440000   0.0000000   0.0000000
 NMagM=    0.0000000   0.4037610   2.7928460   2.7928460   2.7928460   2.7928460   2.7928460   0.4037610   0.0000000   0.0000000
 AtZNuc=   6.0000000   7.0000000   1.0000000   1.0000000   1.0000000   1.0000000   1.0000000   7.0000000   6.0000000   6.0000000

  Atom        61          62          63          64          65          66          67          68          69          70
 IAtWgt=          14           1          12          14           1          12          14          12          12          14
 AtmWgt=  14.0030740   1.0078250  12.0000000  14.0030740   1.0078250  12.0000000  14.0030740  12.0000000  12.0000000  14.0030740
 NucSpn=           2           1           0           2           1           0           2           0           0           2
 AtZEff=  -0.0000000  -0.0000000  -0.0000000  -0.0000000  -0.0000000  -0.0000000  -0.0000000  -0.0000000  -0.0000000  -0.0000000
 NQMom=    2.0440000   0.0000000   0.0000000   2.0440000   0.0000000   0.0000000   2.0440000   0.0000000   0.0000000   2.0440000
 NMagM=    0.4037610   2.7928460   0.0000000   0.4037610   2.7928460   0.0000000   0.4037610   0.0000000   0.0000000   0.4037610
 AtZNuc=   7.0000000   1.0000000   6.0000000   7.0000000   1.0000000   6.0000000   7.0000000   6.0000000   6.0000000   7.0000000
 Leave Link  101 at Sat Jan 27 11:57:31 2018, MaxMem=  4294967296 cpu:               7.8 elap:               0.3
 (Enter /share/apps/g16/l202.exe)
 Stoichiometry    C23H27N17O3
 Framework group  C1[X(C23H27N17O3)]
 Deg. of freedom   204
 Full point group                 C1      NOp   1
 Largest Abelian subgroup         C1      NOp   1
 Largest concise Abelian subgroup C1      NOp   1
                         Standard orientation:                         
 ---------------------------------------------------------------------
 Center     Atomic      Atomic             Coordinates (Angstroms)
 Number     Number       Type             X           Y           Z
 ---------------------------------------------------------------------
      1          7           0        4.275412   -2.246956   -1.866317
      2          6           0        5.687584   -1.890650   -2.104667
      3          6           0        2.093888   -2.150466   -1.603697
      4          7           0        2.447024   -3.481033   -1.431583
      5          6           0        3.747170   -3.485911   -1.596689
      6          1           0        4.377011   -4.373646   -1.532158
      7          7           0        0.850834   -0.153034   -1.771116
      8          6           0        2.012948    0.459670   -2.019414
      9          1           0        1.945940    1.533891   -2.186201
     10          7           0        3.239658   -0.052955   -2.092269
     11          6           0        3.210280   -1.377777   -1.872279
     12          6           0        0.854735   -1.486414   -1.553976
     13          7           0       -0.304313   -2.099821   -1.305957
     14          1           0       -0.348650   -3.085476   -1.139413
     15          1           0       -1.167363   -1.595334   -1.278175
     16          1           0        6.029520   -2.391569   -2.899870
     17          1           0        5.760197   -0.908267   -2.274288
     18          1           0        6.233935   -2.129880   -1.302007
     19          7           0        4.570179    3.257799    0.671618
     20          6           0        3.295642    2.771690    0.836886
     21          6           0        4.915356    4.658360    0.355417
     22          7           0       -0.137948    3.290640    0.890973
     23          1           0       -0.963470    2.748845    1.046562
     24          1           0       -0.264252    4.262263    0.689195
     25          7           0        2.153668    3.486097    0.738968
     26          6           0        1.083977    2.739892    0.950034
     27          7           0        1.127154    1.396663    1.235292
     28          1           0        0.258561    0.905783    1.382065
     29          6           0        2.290813    0.641269    1.340924
     30          8           0        2.219724   -0.565890    1.602572
     31          6           0        3.448271    1.429235    1.116717
     32          7           0        4.791608    1.079577    1.126921
     33          6           0        5.417723    2.193205    0.858591
     34          1           0        6.501064    2.294283    0.784883
     35          1           0        5.411612    4.693559   -0.511358
     36          1           0        4.077305    5.197177    0.280452
     37          1           0        5.488261    5.034567    1.082782
     38          1           0       -4.419422   -1.086454    1.369041
     39          1           0       -4.243303   -0.983151    3.119170
     40          1           0       -3.454099    0.205967    2.082578
     41          1           0       -1.630521   -4.917330    2.201472
     42          6           0       -1.542828   -3.833245    2.128663
     43          8           0        0.817434   -3.855618    1.892458
     44          6           0       -0.248785   -3.244969    1.963705
     45          1           0        0.645906   -1.415045    1.765652
     46          7           0       -0.250062   -1.867047    1.882503
     47          8           0       -1.240943    0.176207    1.861616
     48          6           0       -1.340171   -1.035471    1.943121
     49          1           0       -3.631085   -3.446055    2.315960
     50          6           0       -2.624786   -3.048360    2.191212
     51          6           0       -3.745843   -0.829803    2.173080
     52          7           0       -2.552400   -1.677464    2.103009
     53          1           0       -5.663024    4.346292   -1.860461
     54          1           0       -4.285134    4.209334   -0.997486
     55          1           0       -5.719645    4.337401   -0.229475
     56          1           0       -3.899375   -2.812496   -1.019762
     57          1           0       -5.512026   -2.258685   -1.072191
     58          7           0       -4.535914   -2.041365   -1.037666
     59          6           0       -4.103358   -0.778980   -1.016468
     60          6           0       -4.359166    1.586672   -1.013275
     61          7           0       -3.042491    1.848678   -0.966864
     62          1           0       -1.259985    0.838656   -0.910927
     63          6           0       -2.341632    0.716707   -0.948581
     64          7           0       -2.773006   -0.548624   -0.969751
     65          1           0       -7.527229    2.222638   -1.118552
     66          6           0       -6.544545    1.751162   -1.087286
     67          7           0       -6.338687    0.456823   -1.086771
     68          6           0       -4.957159    0.338784   -1.040065
     69          6           0       -5.253616    3.964410   -1.031882
     70          7           0       -5.390637    2.495034   -1.044001
 ---------------------------------------------------------------------
 Rotational constants (GHZ):           0.1132556           0.0598730           0.0491939
 Leave Link  202 at Sat Jan 27 11:57:31 2018, MaxMem=  4294967296 cpu:               4.6 elap:               0.2
 (Enter /share/apps/g16/l301.exe)
 Standard basis: CC-pVDZ (5D, 7F)
 Ernie: Thresh=  0.10000D-02 Tol=  0.10000D-05 Strict=F.
 Ernie:  86 primitive shells out of 1081 were deleted.
 There are   780 symmetry adapted cartesian basis functions of A   symmetry.
 There are   737 symmetry adapted basis functions of A   symmetry.
   737 basis functions,  1608 primitive gaussians,   780 cartesian basis functions
   154 alpha electrons      154 beta electrons
       nuclear repulsion energy      5429.7528476524 Hartrees.
 IExCor= 4639 DFT=T Ex+Corr=wB97XD ExCW=0 ScaHFX=  1.000000
 ScaDFX=  1.000000  1.000000  1.000000  1.000000 ScalE2=  1.000000  1.000000
 IRadAn=      5 IRanWt=     -1 IRanGd=            0 ICorTp=0 IEmpDi=121
 HFx  wShort=  0.000000 wLong=  0.200000 cFull=  0.222036 cShort=  0.000000 cLong=  0.777964
 DFx  wShort=  0.000000 wLong=  0.200000 cFull=  0.000000 cShort=  0.000000 cLong=  1.000000
 NAtoms=   70 NActive=   70 NUniq=   70 SFac= 1.00D+00 NAtFMM=   60 NAOKFM=T Big=T
 Integral buffers will be    131072 words long.
 Raffenetti 2 integral format.
 Two-electron integral symmetry is turned on.
 R6Disp:  Grimme-D2 Dispersion energy=       -0.0661675134 Hartrees.
 Nuclear repulsion after empirical dispersion term =     5429.6866801390 Hartrees.
 Leave Link  301 at Sat Jan 27 11:57:31 2018, MaxMem=  4294967296 cpu:               2.1 elap:               0.1
 (Enter /share/apps/g16/l302.exe)
 NPDir=0 NMtPBC=     1 NCelOv=     1 NCel=       1 NClECP=     1 NCelD=      1
         NCelK=      1 NCelE2=     1 NClLst=     1 CellRange=     0.0.
 One-electron integrals computed using PRISM.
 One-electron integral symmetry used in STVInt
 NBasis=   737 RedAO= T EigKep=  7.21D-04  NBF=   737
 NBsUse=   737 1.00D-06 EigRej= -1.00D+00 NBFU=   737
 Precomputing XC quadrature grid using
 IXCGrd= 4 IRadAn=           5 IRanWt=          -1 IRanGd=           0 AccXCQ= 0.00D+00.
 Generated NRdTot=       0 NPtTot=           0 NUsed=           0 NTot=          32
 NSgBfM=   761   761   761   761   761 MxSgAt=    70 MxSgA2=    70.
 Leave Link  302 at Sat Jan 27 11:57:35 2018, MaxMem=  4294967296 cpu:             133.1 elap:               4.2
 (Enter /share/apps/g16/l303.exe)
 DipDrv:  MaxL=1.
 Leave Link  303 at Sat Jan 27 11:57:36 2018, MaxMem=  4294967296 cpu:              12.5 elap:               0.4
 (Enter /share/apps/g16/l401.exe)
 ExpMin= 1.22D-01 ExpMax= 1.17D+04 ExpMxC= 4.01D+02 IAcc=3 IRadAn=         5 AccDes= 0.00D+00
 Harris functional with IExCor= 4639 and IRadAn=       5 diagonalized for initial guess.
 HarFok:  IExCor= 4639 AccDes= 0.00D+00 IRadAn=         5 IDoV= 1 UseB2=F ITyADJ=14
 ICtDFT=  3500011 ScaDFX=  1.000000  1.000000  1.000000  1.000000
 FoFCou: FMM=F IPFlag=           0 FMFlag=      100000 FMFlg1=        2001
         NFxFlg=           0 DoJE=T BraDBF=F KetDBF=T FulRan=T
         wScrn=  0.000000 ICntrl=       500 IOpCl=  0 I1Cent=   200000004 NGrid=           0
         NMat0=    1 NMatS0=      1 NMatT0=    0 NMatD0=    1 NMtDS0=    0 NMtDT0=    0
 Petite list used in FoFCou.
 Harris En= -1963.88824179334    
 JPrj=0 DoOrth=F DoCkMO=F.
 Leave Link  401 at Sat Jan 27 11:57:48 2018, MaxMem=  4294967296 cpu:             391.5 elap:              12.3
 (Enter /share/apps/g16/l502.exe)
 Integral symmetry usage will be decided dynamically.
 Closed shell SCF:
 Using DIIS extrapolation, IDIIS=  1040.
 NGot=  4294967296 LenX=  4293717438 LenY=  4293108258
 Requested convergence on RMS density matrix=1.00D-08 within  20 cycles.
 Requested convergence on MAX density matrix=1.00D-06.
 Requested convergence on             energy=1.00D-06.
 No special actions if energy rises.
 Fock matrices will be formed incrementally for  20 cycles.
 Integral accuracy reduced to 1.0D-05 until final iterations.

 Cycle   1  Pass 0  IDiag  1:
 FoFJK:  IHMeth= 1 ICntrl=       0 DoSepK=T KAlg= 0 I1Cent=           0 FoldK=F
 IRaf=         1 NMat=       1 IRICut=       1 DoRegI=T DoRafI=F ISym2E= 0 IDoP0=0 IntGTp=1.
 FoFCou: FMM=T IPFlag=           0 FMFlag=      100000 FMFlg1=        2001
         NFxFlg=           0 DoJE=T BraDBF=F KetDBF=F FulRan=T
         wScrn=  0.000000 ICntrl=       500 IOpCl=  0 I1Cent=           0 NGrid=           0
         NMat0=    1 NMatS0=      1 NMatT0=    0 NMatD0=    1 NMtDS0=    0 NMtDT0=    0
 Symmetry not used in FoFCou.
 FMM levels:  10  Number of levels for PrismC:   9
 E= -2048.31465827742    
 DIIS: error= 2.73D-02 at cycle   1 NSaved=   1.
 NSaved= 1 IEnMin= 1 EnMin= -2048.31465827742     IErMin= 1 ErrMin= 2.73D-02
 ErrMax= 2.73D-02  0.00D+00 EMaxC= 1.00D-01 BMatC= 8.30D-01 BMatP= 8.30D-01
 IDIUse=3 WtCom= 7.27D-01 WtEn= 2.73D-01
 Coeff-Com:  0.100D+01
 Coeff-En:   0.100D+01
 Coeff:      0.100D+01
 Gap=     0.259 Goal=   None    Shift=    0.000
 GapD=    0.259 DampG=1.000 DampE=0.500 DampFc=0.5000 IDamp=-1.
 Damping current iteration by 5.00D-01
 RMSDP=1.54D-03 MaxDP=1.34D-01              OVMax= 2.12D-01

 Cycle   2  Pass 0  IDiag  1:
 RMSU=  7.70D-04    CP:  9.98D-01
 E= -2048.51338221777     Delta-E=       -0.198723940346 Rises=F Damp=T
 DIIS: error= 1.53D-02 at cycle   2 NSaved=   2.
 NSaved= 2 IEnMin= 2 EnMin= -2048.51338221777     IErMin= 2 ErrMin= 1.53D-02
 ErrMax= 1.53D-02  0.00D+00 EMaxC= 1.00D-01 BMatC= 1.44D-01 BMatP= 8.30D-01
 IDIUse=3 WtCom= 8.47D-01 WtEn= 1.53D-01
 Coeff-Com: -0.207D+00 0.121D+01
 Coeff-En:   0.000D+00 0.100D+01
 Coeff:     -0.175D+00 0.118D+01
 Gap=     0.288 Goal=   None    Shift=    0.000
 RMSDP=5.80D-04 MaxDP=3.61D-02 DE=-1.99D-01 OVMax= 1.30D-01

 Cycle   3  Pass 0  IDiag  1:
 RMSU=  5.62D-04    CP:  9.94D-01  1.18D+00
 E= -2048.69588808815     Delta-E=       -0.182505870387 Rises=F Damp=F
 DIIS: error= 1.10D-02 at cycle   3 NSaved=   3.
 NSaved= 3 IEnMin= 3 EnMin= -2048.69588808815     IErMin= 3 ErrMin= 1.10D-02
 ErrMax= 1.10D-02  0.00D+00 EMaxC= 1.00D-01 BMatC= 5.82D-02 BMatP= 1.44D-01
 IDIUse=3 WtCom= 8.90D-01 WtEn= 1.10D-01
 Coeff-Com: -0.228D+00 0.540D+00 0.688D+00
 Coeff-En:   0.000D+00 0.000D+00 0.100D+01
 Coeff:     -0.203D+00 0.481D+00 0.723D+00
 Gap=     0.284 Goal=   None    Shift=    0.000
 RMSDP=3.40D-04 MaxDP=3.70D-02 DE=-1.83D-01 OVMax= 6.22D-02

 Cycle   4  Pass 0  IDiag  1:
 RMSU=  1.96D-04    CP:  9.94D-01  1.45D+00  6.75D-01
 E= -2048.73815210303     Delta-E=       -0.042264014878 Rises=F Damp=F
 DIIS: error= 4.95D-03 at cycle   4 NSaved=   4.
 NSaved= 4 IEnMin= 4 EnMin= -2048.73815210303     IErMin= 4 ErrMin= 4.95D-03
 ErrMax= 4.95D-03  0.00D+00 EMaxC= 1.00D-01 BMatC= 9.89D-03 BMatP= 5.82D-02
 IDIUse=3 WtCom= 9.50D-01 WtEn= 4.95D-02
 Coeff-Com: -0.893D-01 0.173D+00 0.390D+00 0.527D+00
 Coeff-En:   0.000D+00 0.000D+00 0.924D-01 0.908D+00
 Coeff:     -0.849D-01 0.164D+00 0.375D+00 0.546D+00
 Gap=     0.286 Goal=   None    Shift=    0.000
 RMSDP=1.29D-04 MaxDP=1.48D-02 DE=-4.23D-02 OVMax= 1.82D-02

 Cycle   5  Pass 0  IDiag  1:
 RMSU=  6.24D-05    CP:  9.94D-01  1.42D+00  8.18D-01  6.20D-01
 E= -2048.74590056252     Delta-E=       -0.007748459491 Rises=F Damp=F
 DIIS: error= 8.30D-04 at cycle   5 NSaved=   5.
 NSaved= 5 IEnMin= 5 EnMin= -2048.74590056252     IErMin= 5 ErrMin= 8.30D-04
 ErrMax= 8.30D-04  0.00D+00 EMaxC= 1.00D-01 BMatC= 3.37D-04 BMatP= 9.89D-03
 IDIUse=3 WtCom= 9.92D-01 WtEn= 8.30D-03
 Coeff-Com: -0.226D-01 0.383D-01 0.129D+00 0.252D+00 0.603D+00
 Coeff-En:   0.000D+00 0.000D+00 0.000D+00 0.000D+00 0.100D+01
 Coeff:     -0.225D-01 0.380D-01 0.128D+00 0.250D+00 0.607D+00
 Gap=     0.285 Goal=   None    Shift=    0.000
 RMSDP=2.55D-05 MaxDP=3.16D-03 DE=-7.75D-03 OVMax= 4.52D-03

 Failed to achieve initial convergence to 1.0D-08 in  6 cycles.
 Switch to full accuracy anyway.
 Cycle   6  Pass 1  IDiag  1:
 E= -2048.74619142619     Delta-E=       -0.000290863669 Rises=F Damp=F
 DIIS: error= 2.19D-04 at cycle   1 NSaved=   1.
 NSaved= 1 IEnMin= 1 EnMin= -2048.74619142619     IErMin= 1 ErrMin= 2.19D-04
 ErrMax= 2.19D-04  0.00D+00 EMaxC= 1.00D-01 BMatC= 7.79D-05 BMatP= 7.79D-05
 IDIUse=3 WtCom= 9.98D-01 WtEn= 2.19D-03
 Coeff-Com:  0.100D+01
 Coeff-En:   0.100D+01
 Coeff:      0.100D+01
 Gap=     0.286 Goal=   None    Shift=    0.000
 RMSDP=2.55D-05 MaxDP=3.16D-03 DE=-2.91D-04 OVMax= 2.30D-03

 Cycle   7  Pass 1  IDiag  1:
 RMSU=  1.13D-04    CP:  1.00D+00
 E= -2048.74624106588     Delta-E=       -0.000049639686 Rises=F Damp=F
 DIIS: error= 3.76D-04 at cycle   2 NSaved=   2.
 NSaved= 2 IEnMin= 2 EnMin= -2048.74624106588     IErMin= 1 ErrMin= 2.19D-04
 ErrMax= 3.76D-04  0.00D+00 EMaxC= 1.00D-01 BMatC= 5.49D-05 BMatP= 7.79D-05
 IDIUse=3 WtCom= 9.96D-01 WtEn= 3.76D-03
 Coeff-Com:  0.442D+00 0.558D+00
 Coeff-En:   0.849D-01 0.915D+00
 Coeff:      0.441D+00 0.559D+00
 Gap=     0.285 Goal=   None    Shift=    0.000
 RMSDP=1.13D-05 MaxDP=1.73D-03 DE=-4.96D-05 OVMax= 1.96D-03

 Cycle   8  Pass 1  IDiag  1:
 RMSU=  1.10D-05    CP:  1.00D+00  1.02D+00
 E= -2048.74627905846     Delta-E=       -0.000037992586 Rises=F Damp=F
 DIIS: error= 1.56D-04 at cycle   3 NSaved=   3.
 NSaved= 3 IEnMin= 3 EnMin= -2048.74627905846     IErMin= 3 ErrMin= 1.56D-04
 ErrMax= 1.56D-04  0.00D+00 EMaxC= 1.00D-01 BMatC= 1.04D-05 BMatP= 5.49D-05
 IDIUse=3 WtCom= 9.98D-01 WtEn= 1.56D-03
 Coeff-Com: -0.191D-01 0.290D+00 0.729D+00
 Coeff-En:   0.000D+00 0.106D+00 0.894D+00
 Coeff:     -0.191D-01 0.289D+00 0.730D+00
 Gap=     0.286 Goal=   None    Shift=    0.000
 RMSDP=5.63D-06 MaxDP=5.75D-04 DE=-3.80D-05 OVMax= 5.63D-04

 Cycle   9  Pass 1  IDiag  1:
 RMSU=  3.76D-06    CP:  1.00D+00  1.05D+00  7.75D-01
 E= -2048.74628813419     Delta-E=       -0.000009075724 Rises=F Damp=F
 DIIS: error= 3.71D-05 at cycle   4 NSaved=   4.
 NSaved= 4 IEnMin= 4 EnMin= -2048.74628813419     IErMin= 4 ErrMin= 3.71D-05
 ErrMax= 3.71D-05  0.00D+00 EMaxC= 1.00D-01 BMatC= 4.53D-07 BMatP= 1.04D-05
 IDIUse=1 WtCom= 1.00D+00 WtEn= 0.00D+00
 Coeff-Com: -0.309D-01 0.784D-01 0.257D+00 0.696D+00
 Coeff:     -0.309D-01 0.784D-01 0.257D+00 0.696D+00
 Gap=     0.286 Goal=   None    Shift=    0.000
 RMSDP=1.37D-06 MaxDP=1.37D-04 DE=-9.08D-06 OVMax= 4.90D-04

 Cycle  10  Pass 1  IDiag  1:
 RMSU=  1.21D-06    CP:  1.00D+00  1.06D+00  8.02D-01  1.12D+00
 E= -2048.74628890485     Delta-E=       -0.000000770668 Rises=F Damp=F
 DIIS: error= 1.33D-05 at cycle   5 NSaved=   5.
 NSaved= 5 IEnMin= 5 EnMin= -2048.74628890485     IErMin= 5 ErrMin= 1.33D-05
 ErrMax= 1.33D-05  0.00D+00 EMaxC= 1.00D-01 BMatC= 1.01D-07 BMatP= 4.53D-07
 IDIUse=1 WtCom= 1.00D+00 WtEn= 0.00D+00
 Coeff-Com: -0.228D-02-0.491D-01-0.127D+00 0.177D+00 0.100D+01
 Coeff:     -0.228D-02-0.491D-01-0.127D+00 0.177D+00 0.100D+01
 Gap=     0.286 Goal=   None    Shift=    0.000
 RMSDP=1.15D-06 MaxDP=7.31D-05 DE=-7.71D-07 OVMax= 2.38D-04

 Cycle  11  Pass 1  IDiag  1:
 RMSU=  4.65D-07    CP:  1.00D+00  1.06D+00  8.05D-01  1.39D+00  1.18D+00
 E= -2048.74628913136     Delta-E=       -0.000000226511 Rises=F Damp=F
 DIIS: error= 1.11D-05 at cycle   6 NSaved=   6.
 NSaved= 6 IEnMin= 6 EnMin= -2048.74628913136     IErMin= 6 ErrMin= 1.11D-05
 ErrMax= 1.11D-05  0.00D+00 EMaxC= 1.00D-01 BMatC= 2.72D-08 BMatP= 1.01D-07
 IDIUse=1 WtCom= 1.00D+00 WtEn= 0.00D+00
 Coeff-Com:  0.458D-02-0.390D-01-0.114D+00-0.107D-01 0.542D+00 0.617D+00
 Coeff:      0.458D-02-0.390D-01-0.114D+00-0.107D-01 0.542D+00 0.617D+00
 Gap=     0.286 Goal=   None    Shift=    0.000
 RMSDP=3.37D-07 MaxDP=3.68D-05 DE=-2.27D-07 OVMax= 1.19D-04

 Cycle  12  Pass 1  IDiag  1:
 RMSU=  1.79D-07    CP:  1.00D+00  1.06D+00  8.05D-01  1.45D+00  1.31D+00
                    CP:  9.09D-01
 E= -2048.74628916804     Delta-E=       -0.000000036673 Rises=F Damp=F
 DIIS: error= 1.25D-06 at cycle   7 NSaved=   7.
 NSaved= 7 IEnMin= 7 EnMin= -2048.74628916804     IErMin= 7 ErrMin= 1.25D-06
 ErrMax= 1.25D-06  0.00D+00 EMaxC= 1.00D-01 BMatC= 7.90D-10 BMatP= 2.72D-08
 IDIUse=1 WtCom= 1.00D+00 WtEn= 0.00D+00
 Coeff-Com:  0.111D-02-0.638D-02-0.208D-01-0.923D-02 0.627D-01 0.143D+00
 Coeff-Com:  0.830D+00
 Coeff:      0.111D-02-0.638D-02-0.208D-01-0.923D-02 0.627D-01 0.143D+00
 Coeff:      0.830D+00
 Gap=     0.286 Goal=   None    Shift=    0.000
 RMSDP=7.92D-08 MaxDP=5.28D-06 DE=-3.67D-08 OVMax= 2.22D-05

 Cycle  13  Pass 1  IDiag  1:
 RMSU=  4.87D-08    CP:  1.00D+00  1.06D+00  8.05D-01  1.46D+00  1.33D+00
                    CP:  9.96D-01  1.12D+00
 E= -2048.74628916976     Delta-E=       -0.000000001723 Rises=F Damp=F
 DIIS: error= 5.85D-07 at cycle   8 NSaved=   8.
 NSaved= 8 IEnMin= 8 EnMin= -2048.74628916976     IErMin= 8 ErrMin= 5.85D-07
 ErrMax= 5.85D-07  0.00D+00 EMaxC= 1.00D-01 BMatC= 2.84D-10 BMatP= 7.90D-10
 IDIUse=1 WtCom= 1.00D+00 WtEn= 0.00D+00
 Coeff-Com: -0.703D-03 0.760D-02 0.206D-01 0.312D-03-0.117D+00-0.946D-01
 Coeff-Com:  0.396D+00 0.787D+00
 Coeff:     -0.703D-03 0.760D-02 0.206D-01 0.312D-03-0.117D+00-0.946D-01
 Coeff:      0.396D+00 0.787D+00
 Gap=     0.286 Goal=   None    Shift=    0.000
 RMSDP=4.67D-08 MaxDP=2.87D-06 DE=-1.72D-09 OVMax= 1.17D-05

 Cycle  14  Pass 1  IDiag  1:
 RMSU=  2.63D-08    CP:  1.00D+00  1.06D+00  8.04D-01  1.46D+00  1.34D+00
                    CP:  1.04D+00  1.27D+00  1.11D+00
 E= -2048.74628917037     Delta-E=       -0.000000000608 Rises=F Damp=F
 DIIS: error= 2.32D-07 at cycle   9 NSaved=   9.
 NSaved= 9 IEnMin= 9 EnMin= -2048.74628917037     IErMin= 9 ErrMin= 2.32D-07
 ErrMax= 2.32D-07  0.00D+00 EMaxC= 1.00D-01 BMatC= 2.68D-11 BMatP= 2.84D-10
 IDIUse=1 WtCom= 1.00D+00 WtEn= 0.00D+00
 Coeff-Com: -0.405D-03 0.381D-02 0.106D-01 0.146D-02-0.534D-01-0.531D-01
 Coeff-Com:  0.740D-01 0.307D+00 0.710D+00
 Coeff:     -0.405D-03 0.381D-02 0.106D-01 0.146D-02-0.534D-01-0.531D-01
 Coeff:      0.740D-01 0.307D+00 0.710D+00
 Gap=     0.286 Goal=   None    Shift=    0.000
 RMSDP=1.25D-08 MaxDP=7.99D-07 DE=-6.08D-10 OVMax= 3.39D-06

 Cycle  15  Pass 1  IDiag  1:
 RMSU=  8.53D-09    CP:  1.00D+00  1.06D+00  8.04D-01  1.46D+00  1.34D+00
                    CP:  1.05D+00  1.30D+00  1.25D+00  1.11D+00
 E= -2048.74628917030     Delta-E=        0.000000000074 Rises=F Damp=F
 DIIS: error= 6.06D-08 at cycle  10 NSaved=  10.
 NSaved=10 IEnMin= 9 EnMin= -2048.74628917037     IErMin=10 ErrMin= 6.06D-08
 ErrMax= 6.06D-08  0.00D+00 EMaxC= 1.00D-01 BMatC= 4.76D-12 BMatP= 2.68D-11
 IDIUse=1 WtCom= 1.00D+00 WtEn= 0.00D+00
 Coeff-Com:  0.950D-05-0.324D-03-0.726D-03 0.101D-03 0.608D-02 0.150D-02
 Coeff-Com: -0.579D-01-0.643D-01 0.266D+00 0.849D+00
 Coeff:      0.950D-05-0.324D-03-0.726D-03 0.101D-03 0.608D-02 0.150D-02
 Coeff:     -0.579D-01-0.643D-01 0.266D+00 0.849D+00
 Gap=     0.286 Goal=   None    Shift=    0.000
 RMSDP=6.72D-09 MaxDP=3.92D-07 DE= 7.37D-11 OVMax= 1.50D-06

 SCF Done:  E(RwB97XD) =  -2048.74628917     A.U. after   15 cycles
            NFock= 15  Conv=0.67D-08     -V/T= 2.0054
 KE= 2.037670920233D+03 PE=-1.564011980244D+04 EE= 6.124015912898D+03
 Leave Link  502 at Sat Jan 27 12:08:31 2018, MaxMem=  4294967296 cpu:           19841.0 elap:             643.3
 (Enter /share/apps/g16/l601.exe)
 Copying SCF densities to generalized density rwf, IOpCl= 0 IROHF=0.

 **********************************************************************

            Population analysis using the SCF density.

 **********************************************************************

 Orbital symmetries:
       Occupied  (A) (A) (A) (A) (A) (A) (A) (A) (A) (A) (A) (A)
                 (A) (A) (A) (A) (A) (A) (A) (A) (A) (A) (A) (A)
                 (A) (A) (A) (A) (A) (A) (A) (A) (A) (A) (A) (A)
                 (A) (A) (A) (A) (A) (A) (A) (A) (A) (A) (A) (A)
                 (A) (A) (A) (A) (A) (A) (A) (A) (A) (A) (A) (A)
                 (A) (A) (A) (A) (A) (A) (A) (A) (A) (A) (A) (A)
                 (A) (A) (A) (A) (A) (A) (A) (A) (A) (A) (A) (A)
                 (A) (A) (A) (A) (A) (A) (A) (A) (A) (A) (A) (A)
                 (A) (A) (A) (A) (A) (A) (A) (A) (A) (A) (A) (A)
                 (A) (A) (A) (A) (A) (A) (A) (A) (A) (A) (A) (A)
                 (A) (A) (A) (A) (A) (A) (A) (A) (A) (A) (A) (A)
                 (A) (A) (A) (A) (A) (A) (A) (A) (A) (A) (A) (A)
                 (A) (A) (A) (A) (A) (A) (A) (A) (A) (A)
       Virtual   (A) (A) (A) (A) (A) (A) (A) (A) (A) (A) (A) (A)
                 (A) (A) (A) (A) (A) (A) (A) (A) (A) (A) (A) (A)
                 (A) (A) (A) (A) (A) (A) (A) (A) (A) (A) (A) (A)
                 (A) (A) (A) (A) (A) (A) (A) (A) (A) (A) (A) (A)
                 (A) (A) (A) (A) (A) (A) (A) (A) (A) (A) (A) (A)
                 (A) (A) (A) (A) (A) (A) (A) (A) (A) (A) (A) (A)
                 (A) (A) (A) (A) (A) (A) (A) (A) (A) (A) (A) (A)
                 (A) (A) (A) (A) (A) (A) (A) (A) (A) (A) (A) (A)
                 (A) (A) (A) (A) (A) (A) (A) (A) (A) (A) (A) (A)
                 (A) (A) (A) (A) (A) (A) (A) (A) (A) (A) (A) (A)
                 (A) (A) (A) (A) (A) (A) (A) (A) (A) (A) (A) (A)
                 (A) (A) (A) (A) (A) (A) (A) (A) (A) (A) (A) (A)
                 (A) (A) (A) (A) (A) (A) (A) (A) (A) (A) (A) (A)
                 (A) (A) (A) (A) (A) (A) (A) (A) (A) (A) (A) (A)
                 (A) (A) (A) (A) (A) (A) (A) (A) (A) (A) (A) (A)
                 (A) (A) (A) (A) (A) (A) (A) (A) (A) (A) (A) (A)
                 (A) (A) (A) (A) (A) (A) (A) (A) (A) (A) (A) (A)
                 (A) (A) (A) (A) (A) (A) (A) (A) (A) (A) (A) (A)
                 (A) (A) (A) (A) (A) (A) (A) (A) (A) (A) (A) (A)
                 (A) (A) (A) (A) (A) (A) (A) (A) (A) (A) (A) (A)
                 (A) (A) (A) (A) (A) (A) (A) (A) (A) (A) (A) (A)
                 (A) (A) (A) (A) (A) (A) (A) (A) (A) (A) (A) (A)
                 (A) (A) (A) (A) (A) (A) (A) (A) (A) (A) (A) (A)
                 (A) (A) (A) (A) (A) (A) (A) (A) (A) (A) (A) (A)
                 (A) (A) (A) (A) (A) (A) (A) (A) (A) (A) (A) (A)
                 (A) (A) (A) (A) (A) (A) (A) (A) (A) (A) (A) (A)
                 (A) (A) (A) (A) (A) (A) (A) (A) (A) (A) (A) (A)
                 (A) (A) (A) (A) (A) (A) (A) (A) (A) (A) (A) (A)
                 (A) (A) (A) (A) (A) (A) (A) (A) (A) (A) (A) (A)
                 (A) (A) (A) (A) (A) (A) (A) (A) (A) (A) (A) (A)
                 (A) (A) (A) (A) (A) (A) (A) (A) (A) (A) (A) (A)
                 (A) (A) (A) (A) (A) (A) (A) (A) (A) (A) (A) (A)
                 (A) (A) (A) (A) (A) (A) (A) (A) (A) (A) (A) (A)
                 (A) (A) (A) (A) (A) (A) (A) (A) (A) (A) (A) (A)
                 (A) (A) (A) (A) (A) (A) (A) (A) (A) (A) (A) (A)
                 (A) (A) (A) (A) (A) (A) (A) (A) (A) (A) (A) (A)
                 (A) (A) (A) (A) (A) (A) (A) (A) (A) (A) (A) (A)
                 (A) (A) (A) (A) (A) (A) (A) (A) (A) (A) (A) (A)
                 (A) (A) (A) (A) (A) (A) (A) (A) (A) (A) (A) (A)
                 (A) (A) (A) (A) (A) (A) (A) (A) (A) (A) (A) (A)
                 (A) (A) (A) (A) (A) (A) (A) (A) (A) (A) (A) (A)
                 (A) (A) (A) (A) (A) (A) (A) (A) (A) (A) (A) (A)
                 (A) (A) (A) (A) (A) (A) (A) (A) (A) (A) (A) (A)
                 (A) (A) (A) (A) (A) (A) (A) (A) (A) (A) (A) (A)
                 (A) (A) (A) (A) (A) (A) (A) (A) (A) (A) (A) (A)
                 (A) (A) (A) (A) (A) (A) (A) (A) (A) (A) (A) (A)
                 (A) (A) (A) (A) (A) (A) (A) (A) (A) (A) (A) (A)
                 (A) (A) (A) (A) (A) (A) (A) (A) (A) (A) (A) (A)
                 (A) (A) (A) (A) (A) (A) (A)
 The electronic state is 1-A.
 Alpha  occ. eigenvalues --  -19.25138 -19.21187 -19.20483 -14.52622 -14.51765
 Alpha  occ. eigenvalues --  -14.49260 -14.48828 -14.48103 -14.47043 -14.46625
 Alpha  occ. eigenvalues --  -14.46343 -14.45539 -14.45058 -14.44975 -14.43104
 Alpha  occ. eigenvalues --  -14.41928 -14.40953 -14.40830 -14.40759 -14.40471
 Alpha  occ. eigenvalues --  -10.44740 -10.41047 -10.40639 -10.39301 -10.38130
 Alpha  occ. eigenvalues --  -10.38085 -10.37613 -10.37338 -10.36394 -10.35653
 Alpha  occ. eigenvalues --  -10.34383 -10.34299 -10.34001 -10.33563 -10.33393
 Alpha  occ. eigenvalues --  -10.33094 -10.32988 -10.32916 -10.31030 -10.30651
 Alpha  occ. eigenvalues --  -10.30000 -10.28310 -10.28056  -1.18704  -1.15424
 Alpha  occ. eigenvalues --   -1.13052  -1.12199  -1.10797  -1.10558  -1.10016
 Alpha  occ. eigenvalues --   -1.08646  -1.08376  -1.05546  -1.05137  -1.01697
 Alpha  occ. eigenvalues --   -1.01220  -1.00655  -0.99484  -0.98429  -0.97519
 Alpha  occ. eigenvalues --   -0.96590  -0.96506  -0.92817  -0.90507  -0.87983
 Alpha  occ. eigenvalues --   -0.86120  -0.84096  -0.83484  -0.82938  -0.82504
 Alpha  occ. eigenvalues --   -0.81753  -0.78273  -0.77518  -0.75339  -0.74537
 Alpha  occ. eigenvalues --   -0.73415  -0.72832  -0.72641  -0.70984  -0.70825
 Alpha  occ. eigenvalues --   -0.67396  -0.67181  -0.66233  -0.65909  -0.64733
 Alpha  occ. eigenvalues --   -0.64209  -0.63386  -0.62712  -0.62435  -0.61578
 Alpha  occ. eigenvalues --   -0.61005  -0.60668  -0.60008  -0.59777  -0.59072
 Alpha  occ. eigenvalues --   -0.58998  -0.58086  -0.56716  -0.56486  -0.55734
 Alpha  occ. eigenvalues --   -0.55543  -0.55530  -0.55478  -0.54962  -0.54016
 Alpha  occ. eigenvalues --   -0.53944  -0.53494  -0.53272  -0.53126  -0.52824
 Alpha  occ. eigenvalues --   -0.52523  -0.51823  -0.51262  -0.50384  -0.50302
 Alpha  occ. eigenvalues --   -0.50017  -0.49827  -0.49410  -0.48920  -0.48736
 Alpha  occ. eigenvalues --   -0.48614  -0.47916  -0.47720  -0.47584  -0.47017
 Alpha  occ. eigenvalues --   -0.46619  -0.45620  -0.45436  -0.44646  -0.43312
 Alpha  occ. eigenvalues --   -0.41125  -0.41055  -0.38870  -0.38216  -0.38015
 Alpha  occ. eigenvalues --   -0.37256  -0.37160  -0.36742  -0.35395  -0.35082
 Alpha  occ. eigenvalues --   -0.34972  -0.33886  -0.33328  -0.33206  -0.32772
 Alpha  occ. eigenvalues --   -0.32506  -0.32241  -0.31770  -0.31270  -0.30708
 Alpha  occ. eigenvalues --   -0.30531  -0.30248  -0.26119  -0.25138
 Alpha virt. eigenvalues --    0.03425   0.03734   0.06538   0.08058   0.09080
 Alpha virt. eigenvalues --    0.09390   0.09865   0.10328   0.11066   0.11235
 Alpha virt. eigenvalues --    0.13564   0.14540   0.14564   0.14814   0.14934
 Alpha virt. eigenvalues --    0.15699   0.16677   0.16975   0.17177   0.17763
 Alpha virt. eigenvalues --    0.18986   0.19724   0.19810   0.20187   0.20434
 Alpha virt. eigenvalues --    0.20660   0.20876   0.21173   0.21549   0.21762
 Alpha virt. eigenvalues --    0.21930   0.22918   0.23615   0.23831   0.23989
 Alpha virt. eigenvalues --    0.24376   0.24385   0.24569   0.24837   0.24934
 Alpha virt. eigenvalues --    0.25525   0.25788   0.27383   0.27736   0.28353
 Alpha virt. eigenvalues --    0.28595   0.29095   0.29879   0.30354   0.30919
 Alpha virt. eigenvalues --    0.31504   0.32202   0.32392   0.33196   0.33410
 Alpha virt. eigenvalues --    0.33984   0.34521   0.35071   0.35533   0.36488
 Alpha virt. eigenvalues --    0.36823   0.37077   0.37906   0.38671   0.39172
 Alpha virt. eigenvalues --    0.39465   0.40577   0.41143   0.41554   0.41620
 Alpha virt. eigenvalues --    0.42163   0.42513   0.43001   0.44056   0.44264
 Alpha virt. eigenvalues --    0.44524   0.45714   0.46034   0.46353   0.46879
 Alpha virt. eigenvalues --    0.47584   0.47771   0.48348   0.49008   0.49129
 Alpha virt. eigenvalues --    0.49906   0.50312   0.50424   0.50871   0.51222
 Alpha virt. eigenvalues --    0.51680   0.52124   0.52604   0.53061   0.53278
 Alpha virt. eigenvalues --    0.53546   0.53958   0.54566   0.55164   0.55458
 Alpha virt. eigenvalues --    0.55893   0.56378   0.56444   0.56888   0.57156
 Alpha virt. eigenvalues --    0.57781   0.58176   0.58894   0.58950   0.59470
 Alpha virt. eigenvalues --    0.59840   0.60265   0.60431   0.60761   0.60890
 Alpha virt. eigenvalues --    0.61336   0.61376   0.61857   0.62448   0.62615
 Alpha virt. eigenvalues --    0.62768   0.63759   0.64294   0.64839   0.65164
 Alpha virt. eigenvalues --    0.65321   0.66138   0.66516   0.66579   0.66854
 Alpha virt. eigenvalues --    0.67206   0.67479   0.68702   0.68958   0.69218
 Alpha virt. eigenvalues --    0.69478   0.70245   0.70367   0.70491   0.70851
 Alpha virt. eigenvalues --    0.71576   0.72021   0.72676   0.72849   0.73519
 Alpha virt. eigenvalues --    0.73976   0.74172   0.74939   0.75004   0.75482
 Alpha virt. eigenvalues --    0.75793   0.76108   0.76222   0.76903   0.76950
 Alpha virt. eigenvalues --    0.77074   0.77404   0.78058   0.78514   0.78847
 Alpha virt. eigenvalues --    0.79540   0.79712   0.79880   0.80089   0.80588
 Alpha virt. eigenvalues --    0.81008   0.81235   0.81935   0.82154   0.82258
 Alpha virt. eigenvalues --    0.82500   0.83666   0.84409   0.84429   0.85018
 Alpha virt. eigenvalues --    0.85835   0.86078   0.86594   0.87360   0.87715
 Alpha virt. eigenvalues --    0.87843   0.88151   0.88665   0.89228   0.89425
 Alpha virt. eigenvalues --    0.89874   0.90153   0.91731   0.91859   0.92142
 Alpha virt. eigenvalues --    0.92773   0.92819   0.93473   0.93825   0.94190
 Alpha virt. eigenvalues --    0.94494   0.94828   0.95202   0.95509   0.96333
 Alpha virt. eigenvalues --    0.96692   0.97132   0.97432   0.97692   0.98266
 Alpha virt. eigenvalues --    0.98994   0.99201   0.99645   0.99791   1.00574
 Alpha virt. eigenvalues --    1.00697   1.01171   1.01578   1.02011   1.02205
 Alpha virt. eigenvalues --    1.02564   1.03136   1.03707   1.04235   1.05080
 Alpha virt. eigenvalues --    1.05242   1.05591   1.06416   1.06980   1.07090
 Alpha virt. eigenvalues --    1.07299   1.07832   1.09043   1.09128   1.10350
 Alpha virt. eigenvalues --    1.10691   1.11384   1.12031   1.12638   1.13194
 Alpha virt. eigenvalues --    1.13209   1.14132   1.14580   1.14632   1.14905
 Alpha virt. eigenvalues --    1.15403   1.15876   1.16212   1.16598   1.17073
 Alpha virt. eigenvalues --    1.17184   1.17777   1.18193   1.19032   1.19465
 Alpha virt. eigenvalues --    1.19555   1.19910   1.20259   1.20536   1.20680
 Alpha virt. eigenvalues --    1.21044   1.21473   1.21863   1.22690   1.22859
 Alpha virt. eigenvalues --    1.23139   1.23250   1.23912   1.24082   1.24873
 Alpha virt. eigenvalues --    1.25001   1.25360   1.26252   1.26474   1.27544
 Alpha virt. eigenvalues --    1.27760   1.28012   1.28883   1.29006   1.29247
 Alpha virt. eigenvalues --    1.30193   1.31494   1.32204   1.33028   1.33363
 Alpha virt. eigenvalues --    1.33925   1.34309   1.34600   1.35083   1.35757
 Alpha virt. eigenvalues --    1.37189   1.37622   1.37796   1.37928   1.39840
 Alpha virt. eigenvalues --    1.40981   1.41287   1.41836   1.42541   1.43563
 Alpha virt. eigenvalues --    1.44352   1.45682   1.46021   1.46471   1.47127
 Alpha virt. eigenvalues --    1.47858   1.49132   1.49499   1.49785   1.50309
 Alpha virt. eigenvalues --    1.50911   1.52053   1.52236   1.53216   1.53808
 Alpha virt. eigenvalues --    1.54456   1.55387   1.56001   1.57159   1.57888
 Alpha virt. eigenvalues --    1.58303   1.58420   1.58982   1.59490   1.59962
 Alpha virt. eigenvalues --    1.60793   1.61611   1.62222   1.62849   1.63227
 Alpha virt. eigenvalues --    1.63452   1.63717   1.64450   1.65243   1.66161
 Alpha virt. eigenvalues --    1.66329   1.66984   1.67531   1.67958   1.68202
 Alpha virt. eigenvalues --    1.68952   1.69201   1.69576   1.70446   1.70901
 Alpha virt. eigenvalues --    1.71715   1.72125   1.72445   1.73138   1.73451
 Alpha virt. eigenvalues --    1.73594   1.74064   1.74460   1.74618   1.75264
 Alpha virt. eigenvalues --    1.75507   1.75603   1.76001   1.76274   1.77067
 Alpha virt. eigenvalues --    1.77187   1.77389   1.77629   1.78030   1.78271
 Alpha virt. eigenvalues --    1.78623   1.78882   1.79272   1.79578   1.79967
 Alpha virt. eigenvalues --    1.80271   1.80368   1.81127   1.81313   1.81472
 Alpha virt. eigenvalues --    1.81640   1.82267   1.82783   1.83552   1.84249
 Alpha virt. eigenvalues --    1.84725   1.85307   1.85621   1.85837   1.86477
 Alpha virt. eigenvalues --    1.86952   1.87187   1.87515   1.87733   1.88610
 Alpha virt. eigenvalues --    1.88758   1.89267   1.89667   1.90710   1.90916
 Alpha virt. eigenvalues --    1.91203   1.91514   1.92267   1.92732   1.93187
 Alpha virt. eigenvalues --    1.94002   1.94370   1.94834   1.95390   1.96847
 Alpha virt. eigenvalues --    1.97066   1.97874   1.98881   1.99673   2.00151
 Alpha virt. eigenvalues --    2.00546   2.01050   2.02386   2.02805   2.03211
 Alpha virt. eigenvalues --    2.04456   2.04865   2.05060   2.05328   2.06055
 Alpha virt. eigenvalues --    2.07012   2.07944   2.08556   2.09054   2.09221
 Alpha virt. eigenvalues --    2.09625   2.10096   2.11010   2.11617   2.11955
 Alpha virt. eigenvalues --    2.12334   2.13292   2.14403   2.15625   2.16087
 Alpha virt. eigenvalues --    2.17074   2.17728   2.19757   2.20471   2.20639
 Alpha virt. eigenvalues --    2.20946   2.22081   2.22820   2.23286   2.23732
 Alpha virt. eigenvalues --    2.23963   2.24396   2.24868   2.25662   2.26033
 Alpha virt. eigenvalues --    2.26705   2.27125   2.27950   2.29220   2.29650
 Alpha virt. eigenvalues --    2.29986   2.30397   2.31004   2.31491   2.32031
 Alpha virt. eigenvalues --    2.32707   2.32902   2.33448   2.34355   2.34664
 Alpha virt. eigenvalues --    2.34948   2.35377   2.36057   2.36480   2.36862
 Alpha virt. eigenvalues --    2.37229   2.38519   2.38984   2.39242   2.40302
 Alpha virt. eigenvalues --    2.41634   2.42218   2.43004   2.43173   2.43885
 Alpha virt. eigenvalues --    2.44418   2.44831   2.44952   2.45002   2.46016
 Alpha virt. eigenvalues --    2.46690   2.48837   2.50283   2.50509   2.51518
 Alpha virt. eigenvalues --    2.51653   2.52167   2.53876   2.55109   2.55780
 Alpha virt. eigenvalues --    2.56529   2.56911   2.57959   2.58251   2.59812
 Alpha virt. eigenvalues --    2.60395   2.61715   2.61956   2.62594   2.63127
 Alpha virt. eigenvalues --    2.64253   2.64612   2.65220   2.65273   2.65785
 Alpha virt. eigenvalues --    2.66122   2.67330   2.67805   2.68533   2.69243
 Alpha virt. eigenvalues --    2.69558   2.69878   2.70132   2.71033   2.71734
 Alpha virt. eigenvalues --    2.72702   2.73677   2.75133   2.76062   2.76351
 Alpha virt. eigenvalues --    2.76767   2.77083   2.77863   2.78672   2.79175
 Alpha virt. eigenvalues --    2.79297   2.79953   2.80293   2.80378   2.80972
 Alpha virt. eigenvalues --    2.81711   2.81915   2.82413   2.83295   2.83952
 Alpha virt. eigenvalues --    2.84197   2.85357   2.86106   2.86674   2.86971
 Alpha virt. eigenvalues --    2.87098   2.88013   2.89043   2.91146   2.92769
 Alpha virt. eigenvalues --    2.93717   2.95222   2.96070   2.96996   2.97913
 Alpha virt. eigenvalues --    2.99602   3.00646   3.01924   3.04015   3.04715
 Alpha virt. eigenvalues --    3.05796   3.08749   3.10421   3.12298   3.14660
 Alpha virt. eigenvalues --    3.15218   3.15886   3.16620   3.17959   3.19959
 Alpha virt. eigenvalues --    3.20495   3.22813   3.23892   3.24618   3.25353
 Alpha virt. eigenvalues --    3.43883   3.46610   3.47624   3.48558   3.50927
 Alpha virt. eigenvalues --    3.52621   3.55010   3.56433   3.57964   3.60513
 Alpha virt. eigenvalues --    3.63580   3.70938   3.75050
          Condensed to atoms (all electrons):
 Mulliken charges:
               1
     1  N   -0.313597
     2  C    0.184552
     3  C    0.059789
     4  N   -0.259958
     5  C    0.145003
     6  H    0.027852
     7  N   -0.291343
     8  C    0.124436
     9  H    0.015248
    10  N   -0.273677
    11  C    0.263939
    12  C    0.082452
    13  N   -0.072493
    14  H    0.109339
    15  H    0.083815
    16  H    0.019542
    17  H    0.034717
    18  H    0.033438
    19  N   -0.311414
    20  C    0.247261
    21  C    0.180860
    22  N   -0.116775
    23  H    0.117545
    24  H    0.116160
    25  N   -0.311305
    26  C    0.239531
    27  N   -0.134956
    28  H    0.116151
    29  C    0.176182
    30  O   -0.321005
    31  C   -0.000285
    32  N   -0.230835
    33  C    0.125136
    34  H    0.022735
    35  H    0.027045
    36  H    0.029297
    37  H    0.024865
    38  H    0.051324
    39  H    0.057355
    40  H    0.075561
    41  H    0.028928
    42  C   -0.113699
    43  O   -0.254322
    44  C    0.167594
    45  H    0.137034
    46  N   -0.126704
    47  O   -0.348253
    48  C    0.354661
    49  H    0.041837
    50  C    0.159250
    51  C    0.041914
    52  N   -0.283523
    53  H    0.034710
    54  H    0.038272
    55  H    0.031326
    56  H    0.117028
    57  H    0.121633
    58  N   -0.063411
    59  C    0.068178
    60  C    0.249234
    61  N   -0.278894
    62  H    0.024435
    63  C    0.187590
    64  N   -0.309725
    65  H    0.040040
    66  C    0.143796
    67  N   -0.260887
    68  C    0.031339
    69  C    0.180774
    70  N   -0.313645
 Sum of Mulliken charges =  -0.00000
 Mulliken charges with hydrogens summed into heavy atoms:
               1
     1  N   -0.313597
     2  C    0.272250
     3  C    0.059789
     4  N   -0.259958
     5  C    0.172854
     7  N   -0.291343
     8  C    0.139684
    10  N   -0.273677
    11  C    0.263939
    12  C    0.082452
    13  N    0.120661
    19  N   -0.311414
    20  C    0.247261
    21  C    0.262066
    22  N    0.116930
    25  N   -0.311305
    26  C    0.239531
    27  N   -0.018805
    29  C    0.176182
    30  O   -0.321005
    31  C   -0.000285
    32  N   -0.230835
    33  C    0.147871
    42  C   -0.084771
    43  O   -0.254322
    44  C    0.167594
    46  N    0.010330
    47  O   -0.348253
    48  C    0.354661
    50  C    0.201087
    51  C    0.226155
    52  N   -0.283523
    58  N    0.175250
    59  C    0.068178
    60  C    0.249234
    61  N   -0.278894
    63  C    0.212026
    64  N   -0.309725
    66  C    0.183836
    67  N   -0.260887
    68  C    0.031339
    69  C    0.285083
    70  N   -0.313645
 Electronic spatial extent (au):  <R**2>=          22648.9166
 Charge=             -0.0000 electrons
 Dipole moment (field-independent basis, Debye):
    X=             -9.2323    Y=              5.4046    Z=             -0.8694  Tot=             10.7332
 Quadrupole moment (field-independent basis, Debye-Ang):
   XX=           -178.1518   YY=           -206.8907   ZZ=           -250.2607
   XY=              8.8346   XZ=            -18.8617   YZ=              4.4620
 Traceless Quadrupole moment (field-independent basis, Debye-Ang):
   XX=             33.6159   YY=              4.8770   ZZ=            -38.4929
   XY=              8.8346   XZ=            -18.8617   YZ=              4.4620
 Octapole moment (field-independent basis, Debye-Ang**2):
  XXX=             25.4401  YYY=            157.8174  ZZZ=             22.9776  XYY=            -95.5998
  XXY=            109.3729  XXZ=            -63.1360  XZZ=            -34.1393  YZZ=             -0.5426
  YYZ=            -28.7895  XYZ=             70.4919
 Hexadecapole moment (field-independent basis, Debye-Ang**3):
 XXXX=         -15617.2362 YYYY=          -7461.2273 ZZZZ=          -3552.0302 XXXY=           -430.7670
 XXXZ=           -354.5565 YYYX=            177.0363 YYYZ=             12.7579 ZZZX=            -99.8362
 ZZZY=            -21.4839 XXYY=          -2858.4752 XXZZ=          -3543.1595 YYZZ=          -1944.2625
 XXYZ=             40.3018 YYXZ=            -13.6949 ZZXY=             -7.1065
 N-N= 5.429686680139D+03 E-N=-1.564011979532D+04  KE= 2.037670920233D+03
 No NMR shielding tensors so no spin-rotation constants.
 Leave Link  601 at Sat Jan 27 12:08:33 2018, MaxMem=  4294967296 cpu:              48.0 elap:               1.7
 (Enter /share/apps/g16/l9999.exe)
 1\1\GINC-COMPUTE-0-3\SP\RwB97XD\CC-pVDZ\C23H27N17O3\SATYA\27-Jan-2018\
 0\\#p wb97xd/cc-pvdz sp scf=(maxcycles=20)\\Base pair stacking\\0,1\N,
 0,1.4349,-3.57473,-6.72933\C,0,2.8713,-3.2781,-6.89292\C,0,-0.74054,-3
 .37896,-6.47153\N,0,-0.47683,-4.74002,-6.52359\C,0,0.82323,-4.80349,-6
 .67682\H,0,1.39348,-5.72932,-6.758\N,0,-1.84948,-1.30365,-6.30939\C,0,
 -0.64594,-0.73655,-6.44151\H,0,-0.64071,0.35247,-6.42518\N,0,0.54652,-
 1.31003,-6.59007\C,0,0.42803,-2.64806,-6.59701\C,0,-1.93526,-2.65183,-
 6.32032\N,0,-3.13578,-3.21978,-6.18857\H,0,-3.24642,-4.21425,-6.19108\
 H,0,-3.96506,-2.6709,-6.08292\H,0,3.19546,-3.66004,-7.7585\H,0,3.01,-2
 .28821,-6.89377\H,0,3.38581,-3.68442,-6.13782\N,0,2.03388,1.39404,-3.2
 9671\C,0,0.72787,0.97286,-3.22596\C,0,2.47415,2.80173,-3.36931\N,0,-2.
 66576,1.70234,-3.11236\H,0,-3.52715,1.19818,-3.05698\H,0,-2.72561,2.70
 026,-3.1483\N,0,-0.36385,1.76784,-3.211\C,0,-1.48303,1.06954,-3.13737\
 N,0,-1.53155,-0.30237,-3.08251\H,0,-2.43248,-0.75211,-3.02757\C,0,-0.4
 2097,-1.1404,-3.09661\O,0,-0.57432,-2.36692,-3.04297\C,0,0.78871,-0.40
 465,-3.17545\N,0,2.10641,-0.83953,-3.21372\C,0,2.80767,0.25924,-3.2853
 2\H,0,3.89647,0.29905,-3.33231\H,0,2.98804,2.94886,-4.21375\H,0,1.6739
 7,3.39996,-3.35894\H,0,3.05607,3.01161,-2.58437\H,0,-7.22754,-2.39862,
 -3.41371\H,0,-7.07848,-2.60246,-1.6699\H,0,-6.19504,-1.31133,-2.48469\
 H,0,-4.70649,-6.49158,-3.21747\C,0,-4.54806,-5.41891,-3.10562\O,0,-2.1
 9003,-5.55809,-3.32346\C,0,-3.21604,-4.89859,-3.15867\H,0,-2.20219,-3.
 12493,-3.03801\N,0,-3.12737,-3.52959,-3.00622\O,0,-3.98455,-1.45056,-2
 .68992\C,0,-4.16284,-2.64942,-2.81482\H,0,-6.61036,-4.93077,-2.87227\C
 ,0,-5.57843,-4.58553,-2.92013\C,0,-6.5543,-2.32589,-2.57257\N,0,-5.416
 58,-3.22716,-2.77518\H,0,-8.05839,3.56955,-5.69002\H,0,-6.70879,3.1984
 5,-4.85161\H,0,-8.14648,3.29082,-4.08442\H,0,-6.77395,-3.72992,-6.0552
 9\H,0,-8.34646,-3.06926,-6.02633\N,0,-7.35925,-2.92616,-5.94788\C,0,-6
 .84708,-1.71681,-5.71055\C,0,-6.95061,0.62644,-5.31028\N,0,-5.62096,0.
 78887,-5.20987\H,0,-3.90831,-0.33238,-5.311\C,0,-4.99464,-0.37414,-5.3
 7728\N,0,-5.50582,-1.58647,-5.61507\H,0,-10.06877,1.48012,-5.3319\C,0,
 -9.11913,0.94585,-5.37283\N,0,-8.99678,-0.34099,-5.58908\C,0,-7.62681,
 -0.55672,-5.55199\C,0,-7.69016,3.02767,-4.93453\N,0,-7.92091,1.59357,-
 5.19549\\Version=EM64L-G16RevA.03\State=1-A\HF=-2048.7462892\RMSD=6.72
 5e-09\Dipole=-3.4812195,2.3901537,-0.0071946\Quadrupole=26.2503619,0.5
 45379,-26.7957409,7.1314382,-11.7065137,9.3596737\PG=C01 [X(C23H27N17O
 3)]\\@


 A true friend is someone who is there for
 you when he'd rather be anywhere else.
                               -- Len Wein
 Job cpu time:       0 days  5 hours 40 minutes 45.8 seconds.
 Elapsed time:       0 days  0 hours 11 minutes  2.6 seconds.
 File lengths (MBytes):  RWF=    298 Int=      0 D2E=      0 Chk=     33 Scr=      1
 Normal termination of Gaussian 16 at Sat Jan 27 12:08:34 2018.
