 Entering Gaussian System, Link 0=g16
 Input=str60.10.1.0.com
 Output=str60.10.1.0.log
 Initial command:
 /share/apps/g16/l1.exe "/state/partition1/scr/Gau-15297.inp" -scrdir="/state/partition1/scr/"
 Entering Link 1 = /share/apps/g16/l1.exe PID=     15298.
  
 Copyright (c) 1988,1990,1992,1993,1995,1998,2003,2009,2016,
            Gaussian, Inc.  All Rights Reserved.
  
 This is part of the Gaussian(R) 16 program.  It is based on
 the Gaussian(R) 09 system (copyright 2009, Gaussian, Inc.),
 the Gaussian(R) 03 system (copyright 2003, Gaussian, Inc.),
 the Gaussian(R) 98 system (copyright 1998, Gaussian, Inc.),
 the Gaussian(R) 94 system (copyright 1995, Gaussian, Inc.),
 the Gaussian 92(TM) system (copyright 1992, Gaussian, Inc.),
 the Gaussian 90(TM) system (copyright 1990, Gaussian, Inc.),
 the Gaussian 88(TM) system (copyright 1988, Gaussian, Inc.),
 the Gaussian 86(TM) system (copyright 1986, Carnegie Mellon
 University), and the Gaussian 82(TM) system (copyright 1983,
 Carnegie Mellon University). Gaussian is a federally registered
 trademark of Gaussian, Inc.
  
 This software contains proprietary and confidential information,
 including trade secrets, belonging to Gaussian, Inc.
  
 This software is provided under written license and may be
 used, copied, transmitted, or stored only in accord with that
 written license.
  
 The following legend is applicable only to US Government
 contracts under FAR:
  
                    RESTRICTED RIGHTS LEGEND
  
 Use, reproduction and disclosure by the US Government is
 subject to restrictions as set forth in subparagraphs (a)
 and (c) of the Commercial Computer Software - Restricted
 Rights clause in FAR 52.227-19.
  
 Gaussian, Inc.
 340 Quinnipiac St., Bldg. 40, Wallingford CT 06492
  
  
 ---------------------------------------------------------------
 Warning -- This program may not be used in any manner that
 competes with the business of Gaussian, Inc. or will provide
 assistance to any competitor of Gaussian, Inc.  The licensee
 of this program is prohibited from giving any competitor of
 Gaussian, Inc. access to this program.  By using this program,
 the user acknowledges that Gaussian, Inc. is engaged in the
 business of creating and licensing software in the field of
 computational chemistry and represents and warrants to the
 licensee that it is not a competitor of Gaussian, Inc. and that
 it will not use this program in any manner prohibited above.
 ---------------------------------------------------------------
  

 Cite this work as:
 Gaussian 16, Revision A.03,
 M. J. Frisch, G. W. Trucks, H. B. Schlegel, G. E. Scuseria, 
 M. A. Robb, J. R. Cheeseman, G. Scalmani, V. Barone, 
 G. A. Petersson, H. Nakatsuji, X. Li, M. Caricato, A. V. Marenich, 
 J. Bloino, B. G. Janesko, R. Gomperts, B. Mennucci, H. P. Hratchian, 
 J. V. Ortiz, A. F. Izmaylov, J. L. Sonnenberg, D. Williams-Young, 
 F. Ding, F. Lipparini, F. Egidi, J. Goings, B. Peng, A. Petrone, 
 T. Henderson, D. Ranasinghe, V. G. Zakrzewski, J. Gao, N. Rega, 
 G. Zheng, W. Liang, M. Hada, M. Ehara, K. Toyota, R. Fukuda, 
 J. Hasegawa, M. Ishida, T. Nakajima, Y. Honda, O. Kitao, H. Nakai, 
 T. Vreven, K. Throssell, J. A. Montgomery, Jr., J. E. Peralta, 
 F. Ogliaro, M. J. Bearpark, J. J. Heyd, E. N. Brothers, K. N. Kudin, 
 V. N. Staroverov, T. A. Keith, R. Kobayashi, J. Normand, 
 K. Raghavachari, A. P. Rendell, J. C. Burant, S. S. Iyengar, 
 J. Tomasi, M. Cossi, J. M. Millam, M. Klene, C. Adamo, R. Cammi, 
 J. W. Ochterski, R. L. Martin, K. Morokuma, O. Farkas, 
 J. B. Foresman, and D. J. Fox, Gaussian, Inc., Wallingford CT, 2016.
 
 ******************************************
 Gaussian 16:  EM64L-G16RevA.03 25-Dec-2016
                26-Jan-2018 
 ******************************************
 %nprocshared=32
 Will use up to   32 processors via shared memory.
 %mem=32GB
 %chk=allatoms_t.chk
 ---------------------------------------
 #p wb97xd/cc-pvdz sp scf=(maxcycles=20)
 ---------------------------------------
 1/38=1,172=1/1;
 2/12=2,17=6,18=5,40=1/2;
 3/5=16,11=2,25=1,30=1,74=-58/1,2,3;
 4//1;
 5/5=2,7=20,38=5/2;
 6/7=2,8=2,9=2,10=2,28=1/1;
 99/5=1,9=1/99;
 Leave Link    1 at Fri Jan 26 21:47:07 2018, MaxMem=  4294967296 cpu:               2.7 elap:               0.1
 (Enter /share/apps/g16/l101.exe)
 ------------------
 Base pair stacking
 ------------------
 Symbolic Z-matrix:
 Charge =  0 Multiplicity = 1
 N                     4.87923  -3.0159   -5.47843 
 C                     6.33264  -2.7611   -5.45244 
 C                     2.70499  -2.7903   -5.72153 
 N                     2.91266  -4.08545  -5.26964 
 C                     4.21425  -4.16952  -5.14127 
 H                     4.74763  -5.05771  -4.80131 
 N                     1.67922  -0.8025   -6.46945 
 C                     2.91034  -0.28701  -6.5483 
 H                     2.96109   0.74529  -6.89185 
 N                     4.08266  -0.8526   -6.2678 
 C                     3.90786  -2.11889  -5.85503 
 C                     1.53682  -2.07901  -6.05075 
 N                     0.30871  -2.59536  -5.97139 
 H                     0.15616  -3.53609  -5.66648 
 H                    -0.50029  -2.05976  -6.21386 
 H                     6.79586  -3.40245  -6.06422 
 H                     6.51316  -1.82522  -5.75355 
 H                     6.67784  -2.88245  -4.52179 
 N                     3.21872   2.67922  -3.11447 
 C                     1.91827   2.25745  -3.2523 
 C                     3.68368   4.07351  -3.25753 
 N                    -1.42262   2.96577  -3.88358 
 H                    -2.28509   2.46365  -3.94059 
 H                    -1.46086   3.95273  -4.04222 
 N                     0.85528   3.03959  -3.53928 
 C                    -0.26622   2.34441  -3.60688 
 N                    -0.343     0.98705  -3.40891 
 H                    -1.24344   0.53861  -3.48015 
 C                     0.73774   0.16239  -3.11258 
 O                     0.56033  -1.05155  -2.95251 
 C                     1.94953   0.89498  -3.03667 
 N                     3.24356   0.46994  -2.76885 
 C                     3.96016   1.55966  -2.8255 
 H                     5.03778   1.60331  -2.66398 
 H                     4.35375   4.12897  -3.99695 
 H                     2.90489   4.66217  -3.4702 
 H                     4.10484   4.37552  -2.403 
 H                    -5.89397  -1.18225  -4.60439 
 H                    -6.08923  -1.18698  -2.85325 
 H                    -5.04699   0.01169  -3.62026 
 H                    -3.51459  -5.20511  -3.46348 
 C                    -3.36642  -4.12534  -3.44404 
 O                    -1.01309  -4.26783  -3.18203 
 C                    -2.04256  -3.60283  -3.29502 
 H                    -1.04759  -1.81819  -3.17926 
 N                    -1.9667   -2.22467  -3.28284 
 O                    -2.84082  -0.1307   -3.37465 
 C                    -3.00764  -1.3375   -3.39651 
 H                    -5.42798  -3.63182  -3.67258 
 C                    -4.40184  -3.28528  -3.55723 
 C                    -5.39601  -1.00938  -3.66194 
 N                    -4.25289  -1.91789  -3.53693 
 H                    -4.31156   3.87047  -8.69571 
 H                    -3.16094   3.82721  -7.53972 
 H                    -4.71134   4.13992  -7.13655 
 H                    -3.30908  -3.10682  -6.37665 
 H                    -4.82802  -2.50663  -6.86929 
 N                    -3.86761  -2.32532  -6.65493 
 C                    -3.35544  -1.09562  -6.73686 
 C                    -3.42727   1.24468  -7.16058 
 N                    -2.13409   1.45857  -6.86671 
 H                    -0.4847    0.403    -6.26183 
 C                    -1.54013   0.31924  -6.51739 
 N                    -2.05138  -0.91339  -6.43472 
 H                    -6.4448    1.97825  -8.05979 
 C                    -5.52917   1.48044  -7.73927 
 N                    -5.42612   0.19775  -7.49073 
 C                    -4.09841   0.03486  -7.12278 
 C                    -4.11602   3.61843  -7.74796 
 N                    -4.35767   2.17476  -7.55975 
 
 ITRead=  0  0  0  0  0  0  0  0  0  0  0  0  0  0  0  0  0  0  0  0
 ITRead=  0  0  0  0  0  0  0  0  0  0  0  0  0  0  0  0  0  0  0  0
 ITRead=  0  0  0  0  0  0  0  0  0  0  0  0  0  0  0  0  0  0  0  0
 ITRead=  0  0  0  0  0  0  0  0  0  0
 MicOpt= -1 -1 -1 -1 -1 -1 -1 -1 -1 -1 -1 -1 -1 -1 -1 -1 -1 -1 -1 -1
 MicOpt= -1 -1 -1 -1 -1 -1 -1 -1 -1 -1 -1 -1 -1 -1 -1 -1 -1 -1 -1 -1
 MicOpt= -1 -1 -1 -1 -1 -1 -1 -1 -1 -1 -1 -1 -1 -1 -1 -1 -1 -1 -1 -1
 MicOpt= -1 -1 -1 -1 -1 -1 -1 -1 -1 -1
 NAtoms=     70 NQM=       70 NQMF=       0 NMMI=      0 NMMIF=      0
                NMic=       0 NMicF=      0.
                    Isotopes and Nuclear Properties:
 (Nuclear quadrupole moments (NQMom) in fm**2, nuclear magnetic moments (NMagM)
  in nuclear magnetons)

  Atom         1           2           3           4           5           6           7           8           9          10
 IAtWgt=          14          12          12          14          12           1          14          12           1          14
 AtmWgt=  14.0030740  12.0000000  12.0000000  14.0030740  12.0000000   1.0078250  14.0030740  12.0000000   1.0078250  14.0030740
 NucSpn=           2           0           0           2           0           1           2           0           1           2
 AtZEff=  -0.0000000  -0.0000000  -0.0000000  -0.0000000  -0.0000000  -0.0000000  -0.0000000  -0.0000000  -0.0000000  -0.0000000
 NQMom=    2.0440000   0.0000000   0.0000000   2.0440000   0.0000000   0.0000000   2.0440000   0.0000000   0.0000000   2.0440000
 NMagM=    0.4037610   0.0000000   0.0000000   0.4037610   0.0000000   2.7928460   0.4037610   0.0000000   2.7928460   0.4037610
 AtZNuc=   7.0000000   6.0000000   6.0000000   7.0000000   6.0000000   1.0000000   7.0000000   6.0000000   1.0000000   7.0000000

  Atom        11          12          13          14          15          16          17          18          19          20
 IAtWgt=          12          12          14           1           1           1           1           1          14          12
 AtmWgt=  12.0000000  12.0000000  14.0030740   1.0078250   1.0078250   1.0078250   1.0078250   1.0078250  14.0030740  12.0000000
 NucSpn=           0           0           2           1           1           1           1           1           2           0
 AtZEff=  -0.0000000  -0.0000000  -0.0000000  -0.0000000  -0.0000000  -0.0000000  -0.0000000  -0.0000000  -0.0000000  -0.0000000
 NQMom=    0.0000000   0.0000000   2.0440000   0.0000000   0.0000000   0.0000000   0.0000000   0.0000000   2.0440000   0.0000000
 NMagM=    0.0000000   0.0000000   0.4037610   2.7928460   2.7928460   2.7928460   2.7928460   2.7928460   0.4037610   0.0000000
 AtZNuc=   6.0000000   6.0000000   7.0000000   1.0000000   1.0000000   1.0000000   1.0000000   1.0000000   7.0000000   6.0000000

  Atom        21          22          23          24          25          26          27          28          29          30
 IAtWgt=          12          14           1           1          14          12          14           1          12          16
 AtmWgt=  12.0000000  14.0030740   1.0078250   1.0078250  14.0030740  12.0000000  14.0030740   1.0078250  12.0000000  15.9949146
 NucSpn=           0           2           1           1           2           0           2           1           0           0
 AtZEff=  -0.0000000  -0.0000000  -0.0000000  -0.0000000  -0.0000000  -0.0000000  -0.0000000  -0.0000000  -0.0000000  -0.0000000
 NQMom=    0.0000000   2.0440000   0.0000000   0.0000000   2.0440000   0.0000000   2.0440000   0.0000000   0.0000000   0.0000000
 NMagM=    0.0000000   0.4037610   2.7928460   2.7928460   0.4037610   0.0000000   0.4037610   2.7928460   0.0000000   0.0000000
 AtZNuc=   6.0000000   7.0000000   1.0000000   1.0000000   7.0000000   6.0000000   7.0000000   1.0000000   6.0000000   8.0000000

  Atom        31          32          33          34          35          36          37          38          39          40
 IAtWgt=          12          14          12           1           1           1           1           1           1           1
 AtmWgt=  12.0000000  14.0030740  12.0000000   1.0078250   1.0078250   1.0078250   1.0078250   1.0078250   1.0078250   1.0078250
 NucSpn=           0           2           0           1           1           1           1           1           1           1
 AtZEff=  -0.0000000  -0.0000000  -0.0000000  -0.0000000  -0.0000000  -0.0000000  -0.0000000  -0.0000000  -0.0000000  -0.0000000
 NQMom=    0.0000000   2.0440000   0.0000000   0.0000000   0.0000000   0.0000000   0.0000000   0.0000000   0.0000000   0.0000000
 NMagM=    0.0000000   0.4037610   0.0000000   2.7928460   2.7928460   2.7928460   2.7928460   2.7928460   2.7928460   2.7928460
 AtZNuc=   6.0000000   7.0000000   6.0000000   1.0000000   1.0000000   1.0000000   1.0000000   1.0000000   1.0000000   1.0000000

  Atom        41          42          43          44          45          46          47          48          49          50
 IAtWgt=           1          12          16          12           1          14          16          12           1          12
 AtmWgt=   1.0078250  12.0000000  15.9949146  12.0000000   1.0078250  14.0030740  15.9949146  12.0000000   1.0078250  12.0000000
 NucSpn=           1           0           0           0           1           2           0           0           1           0
 AtZEff=  -0.0000000  -0.0000000  -0.0000000  -0.0000000  -0.0000000  -0.0000000  -0.0000000  -0.0000000  -0.0000000  -0.0000000
 NQMom=    0.0000000   0.0000000   0.0000000   0.0000000   0.0000000   2.0440000   0.0000000   0.0000000   0.0000000   0.0000000
 NMagM=    2.7928460   0.0000000   0.0000000   0.0000000   2.7928460   0.4037610   0.0000000   0.0000000   2.7928460   0.0000000
 AtZNuc=   1.0000000   6.0000000   8.0000000   6.0000000   1.0000000   7.0000000   8.0000000   6.0000000   1.0000000   6.0000000

  Atom        51          52          53          54          55          56          57          58          59          60
 IAtWgt=          12          14           1           1           1           1           1          14          12          12
 AtmWgt=  12.0000000  14.0030740   1.0078250   1.0078250   1.0078250   1.0078250   1.0078250  14.0030740  12.0000000  12.0000000
 NucSpn=           0           2           1           1           1           1           1           2           0           0
 AtZEff=  -0.0000000  -0.0000000  -0.0000000  -0.0000000  -0.0000000  -0.0000000  -0.0000000  -0.0000000  -0.0000000  -0.0000000
 NQMom=    0.0000000   2.0440000   0.0000000   0.0000000   0.0000000   0.0000000   0.0000000   2.0440000   0.0000000   0.0000000
 NMagM=    0.0000000   0.4037610   2.7928460   2.7928460   2.7928460   2.7928460   2.7928460   0.4037610   0.0000000   0.0000000
 AtZNuc=   6.0000000   7.0000000   1.0000000   1.0000000   1.0000000   1.0000000   1.0000000   7.0000000   6.0000000   6.0000000

  Atom        61          62          63          64          65          66          67          68          69          70
 IAtWgt=          14           1          12          14           1          12          14          12          12          14
 AtmWgt=  14.0030740   1.0078250  12.0000000  14.0030740   1.0078250  12.0000000  14.0030740  12.0000000  12.0000000  14.0030740
 NucSpn=           2           1           0           2           1           0           2           0           0           2
 AtZEff=  -0.0000000  -0.0000000  -0.0000000  -0.0000000  -0.0000000  -0.0000000  -0.0000000  -0.0000000  -0.0000000  -0.0000000
 NQMom=    2.0440000   0.0000000   0.0000000   2.0440000   0.0000000   0.0000000   2.0440000   0.0000000   0.0000000   2.0440000
 NMagM=    0.4037610   2.7928460   0.0000000   0.4037610   2.7928460   0.0000000   0.4037610   0.0000000   0.0000000   0.4037610
 AtZNuc=   7.0000000   1.0000000   6.0000000   7.0000000   1.0000000   6.0000000   7.0000000   6.0000000   6.0000000   7.0000000
 Leave Link  101 at Fri Jan 26 21:47:07 2018, MaxMem=  4294967296 cpu:               6.4 elap:               0.2
 (Enter /share/apps/g16/l202.exe)
 Stoichiometry    C23H27N17O3
 Framework group  C1[X(C23H27N17O3)]
 Deg. of freedom   204
 Full point group                 C1      NOp   1
 Largest Abelian subgroup         C1      NOp   1
 Largest concise Abelian subgroup C1      NOp   1
                         Standard orientation:                         
 ---------------------------------------------------------------------
 Center     Atomic      Atomic             Coordinates (Angstroms)
 Number     Number       Type             X           Y           Z
 ---------------------------------------------------------------------
      1          7           0       -5.331478   -2.018396    1.387391
      2          6           0       -6.739385   -1.619315    1.578522
      3          6           0       -3.134035   -2.012043    1.295114
      4          7           0       -3.535506   -3.279097    0.897448
      5          6           0       -4.843317   -3.232204    0.968960
      6          1           0       -5.507672   -4.061930    0.725785
      7          7           0       -1.814309   -0.138248    1.852029
      8          6           0       -2.961808    0.497773    2.109571
      9          1           0       -2.857021    1.529362    2.442871
     10          7           0       -4.213421    0.052892    2.017637
     11          6           0       -4.229968   -1.223810    1.600284
     12          6           0       -1.864634   -1.421863    1.433863
     13          7           0       -0.720258   -2.058438    1.176284
     14          1           0       -0.709974   -3.009177    0.864510
     15          1           0        0.165316   -1.606953    1.286096
     16          1           0       -7.165461   -2.212138    2.262041
     17          1           0       -6.778234   -0.670594    1.890844
     18          1           0       -7.232470   -1.703860    0.712660
     19          7           0       -3.493160    3.485999   -1.277607
     20          6           0       -2.235221    2.935906   -1.332765
     21          6           0       -3.790279    4.919582   -1.084579
     22          7           0        1.216419    3.305066   -1.224702
     23          1           0        2.023396    2.719019   -1.292279
     24          1           0        1.376085    4.282958   -1.087033
     25          7           0       -1.068647    3.607184   -1.220782
     26          6           0       -0.024494    2.803094   -1.314540
     27          7           0       -0.113788    1.445217   -1.503509
     28          1           0        0.738018    0.908753   -1.563501
     29          6           0       -1.303458    0.733426   -1.621469
     30          8           0       -1.273799   -0.491894   -1.790167
     31          6           0       -2.433952    1.583792   -1.522746
     32          7           0       -3.789376    1.290917   -1.585602
     33          6           0       -4.377314    2.446807   -1.435730
     34          1           0       -5.457252    2.598413   -1.432649
     35          1           0       -4.331207    5.040552   -0.252970
     36          1           0       -2.933681    5.426937   -1.000359
     37          1           0       -4.304474    5.263741   -1.869414
     38          1           0        5.311487   -1.271044   -1.133883
     39          1           0        5.236616   -1.292225   -2.894163
     40          1           0        4.447336    0.003423   -1.994323
     41          1           0        2.398958   -5.033457   -1.846593
     42          6           0        2.357431   -3.944245   -1.857934
     43          8           0       -0.010754   -3.849942   -1.758330
     44          6           0        1.084764   -3.291554   -1.811649
     45          1           0        0.265806   -1.416064   -1.799379
     46          7           0        1.145055   -1.912704   -1.830803
     47          8           0        2.226368    0.083062   -1.900812
     48          6           0        2.273999   -1.134412   -1.888189
     49          1           0        4.468436   -3.660011   -1.951143
     50          6           0        3.476200   -3.212272   -1.914322
     51          6           0        4.695580   -1.047532   -1.992231
     52          7           0        3.462312   -1.836807   -1.930280
     53          1           0        4.879176    3.907527    3.081376
     54          1           0        3.567533    3.981715    2.113802
     55          1           0        5.061835    4.138334    1.476144
     56          1           0        2.848262   -2.930253    1.035468
     57          1           0        4.476437   -2.486021    1.284076
     58          7           0        3.517380   -2.209090    1.215310
     59          6           0        3.148206   -0.934436    1.357297
     60          6           0        3.515511    1.386166    1.733592
     61          7           0        2.220355    1.728970    1.636232
     62          1           0        0.401641    0.844906    1.302610
     63          6           0        1.470085    0.655448    1.396379
     64          7           0        1.837951   -0.622028    1.253840
     65          1           0        6.692437    1.812353    2.155129
     66          6           0        5.693881    1.409282    1.983824
     67          7           0        5.427464    0.143793    1.771118
     68          6           0        4.049697    0.115298    1.610862
     69          6           0        4.517692    3.677995    2.177697
     70          7           0        4.583447    2.217718    1.974554
 ---------------------------------------------------------------------
 Rotational constants (GHZ):           0.1072742           0.0618440           0.0516883
 Leave Link  202 at Fri Jan 26 21:47:07 2018, MaxMem=  4294967296 cpu:               0.3 elap:               0.0
 (Enter /share/apps/g16/l301.exe)
 Standard basis: CC-pVDZ (5D, 7F)
 Ernie: Thresh=  0.10000D-02 Tol=  0.10000D-05 Strict=F.
 Ernie:  86 primitive shells out of 1081 were deleted.
 There are   780 symmetry adapted cartesian basis functions of A   symmetry.
 There are   737 symmetry adapted basis functions of A   symmetry.
   737 basis functions,  1608 primitive gaussians,   780 cartesian basis functions
   154 alpha electrons      154 beta electrons
       nuclear repulsion energy      5425.7102328689 Hartrees.
 IExCor= 4639 DFT=T Ex+Corr=wB97XD ExCW=0 ScaHFX=  1.000000
 ScaDFX=  1.000000  1.000000  1.000000  1.000000 ScalE2=  1.000000  1.000000
 IRadAn=      5 IRanWt=     -1 IRanGd=            0 ICorTp=0 IEmpDi=121
 HFx  wShort=  0.000000 wLong=  0.200000 cFull=  0.222036 cShort=  0.000000 cLong=  0.777964
 DFx  wShort=  0.000000 wLong=  0.200000 cFull=  0.000000 cShort=  0.000000 cLong=  1.000000
 NAtoms=   70 NActive=   70 NUniq=   70 SFac= 1.00D+00 NAtFMM=   60 NAOKFM=T Big=T
 Integral buffers will be    131072 words long.
 Raffenetti 2 integral format.
 Two-electron integral symmetry is turned on.
 R6Disp:  Grimme-D2 Dispersion energy=       -0.0644924784 Hartrees.
 Nuclear repulsion after empirical dispersion term =     5425.6457403904 Hartrees.
 Leave Link  301 at Fri Jan 26 21:47:07 2018, MaxMem=  4294967296 cpu:               2.1 elap:               0.1
 (Enter /share/apps/g16/l302.exe)
 NPDir=0 NMtPBC=     1 NCelOv=     1 NCel=       1 NClECP=     1 NCelD=      1
         NCelK=      1 NCelE2=     1 NClLst=     1 CellRange=     0.0.
 One-electron integrals computed using PRISM.
 One-electron integral symmetry used in STVInt
 NBasis=   737 RedAO= T EigKep=  7.32D-04  NBF=   737
 NBsUse=   737 1.00D-06 EigRej= -1.00D+00 NBFU=   737
 Precomputing XC quadrature grid using
 IXCGrd= 4 IRadAn=           5 IRanWt=          -1 IRanGd=           0 AccXCQ= 0.00D+00.
 Generated NRdTot=       0 NPtTot=           0 NUsed=           0 NTot=          32
 NSgBfM=   758   757   758   758   758 MxSgAt=    70 MxSgA2=    70.
 Leave Link  302 at Fri Jan 26 21:47:12 2018, MaxMem=  4294967296 cpu:             134.6 elap:               4.2
 (Enter /share/apps/g16/l303.exe)
 DipDrv:  MaxL=1.
 Leave Link  303 at Fri Jan 26 21:47:12 2018, MaxMem=  4294967296 cpu:              12.9 elap:               0.5
 (Enter /share/apps/g16/l401.exe)
 ExpMin= 1.22D-01 ExpMax= 1.17D+04 ExpMxC= 4.01D+02 IAcc=3 IRadAn=         5 AccDes= 0.00D+00
 Harris functional with IExCor= 4639 and IRadAn=       5 diagonalized for initial guess.
 HarFok:  IExCor= 4639 AccDes= 0.00D+00 IRadAn=         5 IDoV= 1 UseB2=F ITyADJ=14
 ICtDFT=  3500011 ScaDFX=  1.000000  1.000000  1.000000  1.000000
 FoFCou: FMM=F IPFlag=           0 FMFlag=      100000 FMFlg1=        2001
         NFxFlg=           0 DoJE=T BraDBF=F KetDBF=T FulRan=T
         wScrn=  0.000000 ICntrl=       500 IOpCl=  0 I1Cent=   200000004 NGrid=           0
         NMat0=    1 NMatS0=      1 NMatT0=    0 NMatD0=    1 NMtDS0=    0 NMtDT0=    0
 Petite list used in FoFCou.
 Harris En= -1963.88766114366    
 JPrj=0 DoOrth=F DoCkMO=F.
 Leave Link  401 at Fri Jan 26 21:47:24 2018, MaxMem=  4294967296 cpu:             392.8 elap:              12.3
 (Enter /share/apps/g16/l502.exe)
 Integral symmetry usage will be decided dynamically.
 Closed shell SCF:
 Using DIIS extrapolation, IDIIS=  1040.
 NGot=  4294967296 LenX=  4293717438 LenY=  4293108258
 Requested convergence on RMS density matrix=1.00D-08 within  20 cycles.
 Requested convergence on MAX density matrix=1.00D-06.
 Requested convergence on             energy=1.00D-06.
 No special actions if energy rises.
 Fock matrices will be formed incrementally for  20 cycles.
 Integral accuracy reduced to 1.0D-05 until final iterations.

 Cycle   1  Pass 0  IDiag  1:
 FoFJK:  IHMeth= 1 ICntrl=       0 DoSepK=T KAlg= 0 I1Cent=           0 FoldK=F
 IRaf=         1 NMat=       1 IRICut=       1 DoRegI=T DoRafI=F ISym2E= 0 IDoP0=0 IntGTp=1.
 FoFCou: FMM=T IPFlag=           0 FMFlag=      100000 FMFlg1=        2001
         NFxFlg=           0 DoJE=T BraDBF=F KetDBF=F FulRan=T
         wScrn=  0.000000 ICntrl=       500 IOpCl=  0 I1Cent=           0 NGrid=           0
         NMat0=    1 NMatS0=      1 NMatT0=    0 NMatD0=    1 NMtDS0=    0 NMtDT0=    0
 Symmetry not used in FoFCou.
 FMM levels:  10  Number of levels for PrismC:   9
 E= -2048.31103899747    
 DIIS: error= 2.65D-02 at cycle   1 NSaved=   1.
 NSaved= 1 IEnMin= 1 EnMin= -2048.31103899747     IErMin= 1 ErrMin= 2.65D-02
 ErrMax= 2.65D-02  0.00D+00 EMaxC= 1.00D-01 BMatC= 8.32D-01 BMatP= 8.32D-01
 IDIUse=3 WtCom= 7.35D-01 WtEn= 2.65D-01
 Coeff-Com:  0.100D+01
 Coeff-En:   0.100D+01
 Coeff:      0.100D+01
 Gap=     0.248 Goal=   None    Shift=    0.000
 GapD=    0.248 DampG=1.000 DampE=0.500 DampFc=0.5000 IDamp=-1.
 Damping current iteration by 5.00D-01
 RMSDP=1.55D-03 MaxDP=1.32D-01              OVMax= 2.05D-01

 Cycle   2  Pass 0  IDiag  1:
 RMSU=  7.76D-04    CP:  9.98D-01
 E= -2048.50969664535     Delta-E=       -0.198657647880 Rises=F Damp=T
 DIIS: error= 1.48D-02 at cycle   2 NSaved=   2.
 NSaved= 2 IEnMin= 2 EnMin= -2048.50969664535     IErMin= 2 ErrMin= 1.48D-02
 ErrMax= 1.48D-02  0.00D+00 EMaxC= 1.00D-01 BMatC= 1.45D-01 BMatP= 8.32D-01
 IDIUse=3 WtCom= 8.52D-01 WtEn= 1.48D-01
 Coeff-Com: -0.202D+00 0.120D+01
 Coeff-En:   0.000D+00 0.100D+01
 Coeff:     -0.172D+00 0.117D+01
 Gap=     0.320 Goal=   None    Shift=    0.000
 RMSDP=5.74D-04 MaxDP=3.57D-02 DE=-1.99D-01 OVMax= 1.59D-01

 Cycle   3  Pass 0  IDiag  1:
 RMSU=  5.59D-04    CP:  9.94D-01  1.16D+00
 E= -2048.69231524651     Delta-E=       -0.182618601160 Rises=F Damp=F
 DIIS: error= 9.05D-03 at cycle   3 NSaved=   3.
 NSaved= 3 IEnMin= 3 EnMin= -2048.69231524651     IErMin= 3 ErrMin= 9.05D-03
 ErrMax= 9.05D-03  0.00D+00 EMaxC= 1.00D-01 BMatC= 5.95D-02 BMatP= 1.45D-01
 IDIUse=3 WtCom= 9.10D-01 WtEn= 9.05D-02
 Coeff-Com: -0.228D+00 0.541D+00 0.687D+00
 Coeff-En:   0.000D+00 0.000D+00 0.100D+01
 Coeff:     -0.208D+00 0.492D+00 0.716D+00
 Gap=     0.270 Goal=   None    Shift=    0.000
 RMSDP=3.41D-04 MaxDP=3.54D-02 DE=-1.83D-01 OVMax= 7.58D-02

 Cycle   4  Pass 0  IDiag  1:
 RMSU=  1.97D-04    CP:  9.95D-01  1.43D+00  6.79D-01
 E= -2048.73631253457     Delta-E=       -0.043997288059 Rises=F Damp=F
 DIIS: error= 3.81D-03 at cycle   4 NSaved=   4.
 NSaved= 4 IEnMin= 4 EnMin= -2048.73631253457     IErMin= 4 ErrMin= 3.81D-03
 ErrMax= 3.81D-03  0.00D+00 EMaxC= 1.00D-01 BMatC= 9.27D-03 BMatP= 5.95D-02
 IDIUse=3 WtCom= 9.62D-01 WtEn= 3.81D-02
 Coeff-Com: -0.921D-01 0.179D+00 0.384D+00 0.530D+00
 Coeff-En:   0.000D+00 0.000D+00 0.744D-01 0.926D+00
 Coeff:     -0.886D-01 0.172D+00 0.372D+00 0.545D+00
 Gap=     0.276 Goal=   None    Shift=    0.000
 RMSDP=1.26D-04 MaxDP=1.37D-02 DE=-4.40D-02 OVMax= 1.60D-02

 Cycle   5  Pass 0  IDiag  1:
 RMSU=  6.22D-05    CP:  9.94D-01  1.40D+00  8.14D-01  6.17D-01
 E= -2048.74367538828     Delta-E=       -0.007362853709 Rises=F Damp=F
 DIIS: error= 8.08D-04 at cycle   5 NSaved=   5.
 NSaved= 5 IEnMin= 5 EnMin= -2048.74367538828     IErMin= 5 ErrMin= 8.08D-04
 ErrMax= 8.08D-04  0.00D+00 EMaxC= 1.00D-01 BMatC= 3.20D-04 BMatP= 9.27D-03
 IDIUse=3 WtCom= 9.92D-01 WtEn= 8.08D-03
 Coeff-Com: -0.236D-01 0.403D-01 0.125D+00 0.248D+00 0.610D+00
 Coeff-En:   0.000D+00 0.000D+00 0.000D+00 0.000D+00 0.100D+01
 Coeff:     -0.235D-01 0.399D-01 0.124D+00 0.246D+00 0.613D+00
 Gap=     0.276 Goal=   None    Shift=    0.000
 RMSDP=2.52D-05 MaxDP=2.72D-03 DE=-7.36D-03 OVMax= 3.96D-03

 Failed to achieve initial convergence to 1.0D-08 in  6 cycles.
 Switch to full accuracy anyway.
 Cycle   6  Pass 1  IDiag  1:
 E= -2048.74410655431     Delta-E=       -0.000431166032 Rises=F Damp=F
 DIIS: error= 2.44D-04 at cycle   1 NSaved=   1.
 NSaved= 1 IEnMin= 1 EnMin= -2048.74410655431     IErMin= 1 ErrMin= 2.44D-04
 ErrMax= 2.44D-04  0.00D+00 EMaxC= 1.00D-01 BMatC= 8.03D-05 BMatP= 8.03D-05
 IDIUse=3 WtCom= 9.98D-01 WtEn= 2.44D-03
 Coeff-Com:  0.100D+01
 Coeff-En:   0.100D+01
 Coeff:      0.100D+01
 Gap=     0.276 Goal=   None    Shift=    0.000
 RMSDP=2.52D-05 MaxDP=2.72D-03 DE=-4.31D-04 OVMax= 2.15D-03

 Cycle   7  Pass 1  IDiag  1:
 RMSU=  1.34D-04    CP:  1.00D+00
 E= -2048.74416636928     Delta-E=       -0.000059814967 Rises=F Damp=F
 DIIS: error= 3.27D-04 at cycle   2 NSaved=   2.
 NSaved= 2 IEnMin= 2 EnMin= -2048.74416636928     IErMin= 1 ErrMin= 2.44D-04
 ErrMax= 3.27D-04  0.00D+00 EMaxC= 1.00D-01 BMatC= 4.82D-05 BMatP= 8.03D-05
 IDIUse=3 WtCom= 9.97D-01 WtEn= 3.27D-03
 Coeff-Com:  0.414D+00 0.586D+00
 Coeff-En:   0.000D+00 0.100D+01
 Coeff:      0.413D+00 0.587D+00
 Gap=     0.276 Goal=   None    Shift=    0.000
 RMSDP=1.14D-05 MaxDP=1.58D-03 DE=-5.98D-05 OVMax= 1.93D-03

 Cycle   8  Pass 1  IDiag  1:
 RMSU=  1.07D-05    CP:  1.00D+00  1.03D+00
 E= -2048.74419881371     Delta-E=       -0.000032444428 Rises=F Damp=F
 DIIS: error= 1.36D-04 at cycle   3 NSaved=   3.
 NSaved= 3 IEnMin= 3 EnMin= -2048.74419881371     IErMin= 3 ErrMin= 1.36D-04
 ErrMax= 1.36D-04  0.00D+00 EMaxC= 1.00D-01 BMatC= 1.16D-05 BMatP= 4.82D-05
 IDIUse=3 WtCom= 9.99D-01 WtEn= 1.36D-03
 Coeff-Com: -0.205D-01 0.317D+00 0.703D+00
 Coeff-En:   0.000D+00 0.145D+00 0.855D+00
 Coeff:     -0.205D-01 0.317D+00 0.703D+00
 Gap=     0.276 Goal=   None    Shift=    0.000
 RMSDP=5.96D-06 MaxDP=5.83D-04 DE=-3.24D-05 OVMax= 6.49D-04

 Cycle   9  Pass 1  IDiag  1:
 RMSU=  3.79D-06    CP:  1.00D+00  1.06D+00  7.55D-01
 E= -2048.74420875652     Delta-E=       -0.000009942818 Rises=F Damp=F
 DIIS: error= 3.50D-05 at cycle   4 NSaved=   4.
 NSaved= 4 IEnMin= 4 EnMin= -2048.74420875652     IErMin= 4 ErrMin= 3.50D-05
 ErrMax= 3.50D-05  0.00D+00 EMaxC= 1.00D-01 BMatC= 4.82D-07 BMatP= 1.16D-05
 IDIUse=1 WtCom= 1.00D+00 WtEn= 0.00D+00
 Coeff-Com: -0.294D-01 0.905D-01 0.255D+00 0.684D+00
 Coeff:     -0.294D-01 0.905D-01 0.255D+00 0.684D+00
 Gap=     0.276 Goal=   None    Shift=    0.000
 RMSDP=1.39D-06 MaxDP=1.42D-04 DE=-9.94D-06 OVMax= 4.94D-04

 Cycle  10  Pass 1  IDiag  1:
 RMSU=  1.24D-06    CP:  1.00D+00  1.06D+00  7.85D-01  1.10D+00
 E= -2048.74420954357     Delta-E=       -0.000000787043 Rises=F Damp=F
 DIIS: error= 1.55D-05 at cycle   5 NSaved=   5.
 NSaved= 5 IEnMin= 5 EnMin= -2048.74420954357     IErMin= 5 ErrMin= 1.55D-05
 ErrMax= 1.55D-05  0.00D+00 EMaxC= 1.00D-01 BMatC= 1.11D-07 BMatP= 4.82D-07
 IDIUse=1 WtCom= 1.00D+00 WtEn= 0.00D+00
 Coeff-Com: -0.197D-02-0.541D-01-0.121D+00 0.192D+00 0.985D+00
 Coeff:     -0.197D-02-0.541D-01-0.121D+00 0.192D+00 0.985D+00
 Gap=     0.276 Goal=   None    Shift=    0.000
 RMSDP=1.16D-06 MaxDP=7.57D-05 DE=-7.87D-07 OVMax= 2.41D-04

 Cycle  11  Pass 1  IDiag  1:
 RMSU=  4.94D-07    CP:  1.00D+00  1.06D+00  7.91D-01  1.37D+00  1.17D+00
 E= -2048.74420978528     Delta-E=       -0.000000241709 Rises=F Damp=F
 DIIS: error= 1.02D-05 at cycle   6 NSaved=   6.
 NSaved= 6 IEnMin= 6 EnMin= -2048.74420978528     IErMin= 6 ErrMin= 1.02D-05
 ErrMax= 1.02D-05  0.00D+00 EMaxC= 1.00D-01 BMatC= 2.70D-08 BMatP= 1.11D-07
 IDIUse=1 WtCom= 1.00D+00 WtEn= 0.00D+00
 Coeff-Com:  0.474D-02-0.446D-01-0.113D+00-0.697D-02 0.524D+00 0.636D+00
 Coeff:      0.474D-02-0.446D-01-0.113D+00-0.697D-02 0.524D+00 0.636D+00
 Gap=     0.276 Goal=   None    Shift=    0.000
 RMSDP=3.60D-07 MaxDP=3.73D-05 DE=-2.42D-07 OVMax= 1.24D-04

 Cycle  12  Pass 1  IDiag  1:
 RMSU=  1.86D-07    CP:  1.00D+00  1.06D+00  7.92D-01  1.44D+00  1.31D+00
                    CP:  9.41D-01
 E= -2048.74420982408     Delta-E=       -0.000000038804 Rises=F Damp=F
 DIIS: error= 1.31D-06 at cycle   7 NSaved=   7.
 NSaved= 7 IEnMin= 7 EnMin= -2048.74420982408     IErMin= 7 ErrMin= 1.31D-06
 ErrMax= 1.31D-06  0.00D+00 EMaxC= 1.00D-01 BMatC= 8.06D-10 BMatP= 2.70D-08
 IDIUse=1 WtCom= 1.00D+00 WtEn= 0.00D+00
 Coeff-Com:  0.111D-02-0.738D-02-0.205D-01-0.788D-02 0.591D-01 0.145D+00
 Coeff-Com:  0.830D+00
 Coeff:      0.111D-02-0.738D-02-0.205D-01-0.788D-02 0.591D-01 0.145D+00
 Coeff:      0.830D+00
 Gap=     0.276 Goal=   None    Shift=    0.000
 RMSDP=8.09D-08 MaxDP=5.37D-06 DE=-3.88D-08 OVMax= 2.30D-05

 Cycle  13  Pass 1  IDiag  1:
 RMSU=  4.90D-08    CP:  1.00D+00  1.06D+00  7.91D-01  1.45D+00  1.33D+00
                    CP:  1.03D+00  1.12D+00
 E= -2048.74420982545     Delta-E=       -0.000000001375 Rises=F Damp=F
 DIIS: error= 5.94D-07 at cycle   8 NSaved=   8.
 NSaved= 8 IEnMin= 8 EnMin= -2048.74420982545     IErMin= 8 ErrMin= 5.94D-07
 ErrMax= 5.94D-07  0.00D+00 EMaxC= 1.00D-01 BMatC= 3.10D-10 BMatP= 8.06D-10
 IDIUse=1 WtCom= 1.00D+00 WtEn= 0.00D+00
 Coeff-Com: -0.713D-03 0.835D-02 0.197D-01-0.256D-03-0.112D+00-0.938D-01
 Coeff-Com:  0.413D+00 0.766D+00
 Coeff:     -0.713D-03 0.835D-02 0.197D-01-0.256D-03-0.112D+00-0.938D-01
 Coeff:      0.413D+00 0.766D+00
 Gap=     0.276 Goal=   None    Shift=    0.000
 RMSDP=4.71D-08 MaxDP=2.87D-06 DE=-1.38D-09 OVMax= 1.14D-05

 Cycle  14  Pass 1  IDiag  1:
 RMSU=  2.75D-08    CP:  1.00D+00  1.06D+00  7.91D-01  1.45D+00  1.33D+00
                    CP:  1.07D+00  1.26D+00  1.09D+00
 E= -2048.74420982648     Delta-E=       -0.000000001025 Rises=F Damp=F
 DIIS: error= 2.04D-07 at cycle   9 NSaved=   9.
 NSaved= 9 IEnMin= 9 EnMin= -2048.74420982648     IErMin= 9 ErrMin= 2.04D-07
 ErrMax= 2.04D-07  0.00D+00 EMaxC= 1.00D-01 BMatC= 3.08D-11 BMatP= 3.10D-10
 IDIUse=1 WtCom= 1.00D+00 WtEn= 0.00D+00
 Coeff-Com: -0.433D-03 0.447D-02 0.108D-01 0.120D-02-0.541D-01-0.560D-01
 Coeff-Com:  0.859D-01 0.313D+00 0.695D+00
 Coeff:     -0.433D-03 0.447D-02 0.108D-01 0.120D-02-0.541D-01-0.560D-01
 Coeff:      0.859D-01 0.313D+00 0.695D+00
 Gap=     0.276 Goal=   None    Shift=    0.000
 RMSDP=1.29D-08 MaxDP=8.03D-07 DE=-1.03D-09 OVMax= 3.49D-06

 Cycle  15  Pass 1  IDiag  1:
 RMSU=  8.95D-09    CP:  1.00D+00  1.06D+00  7.91D-01  1.45D+00  1.33D+00
                    CP:  1.07D+00  1.28D+00  1.24D+00  1.10D+00
 E= -2048.74420982647     Delta-E=        0.000000000006 Rises=F Damp=F
 DIIS: error= 7.45D-08 at cycle  10 NSaved=  10.
 NSaved=10 IEnMin= 9 EnMin= -2048.74420982648     IErMin=10 ErrMin= 7.45D-08
 ErrMax= 7.45D-08  0.00D+00 EMaxC= 1.00D-01 BMatC= 5.02D-12 BMatP= 3.08D-11
 IDIUse=1 WtCom= 1.00D+00 WtEn= 0.00D+00
 Coeff-Com:  0.739D-05-0.312D-03-0.607D-03 0.104D-03 0.539D-02 0.111D-02
 Coeff-Com: -0.569D-01-0.619D-01 0.257D+00 0.856D+00
 Coeff:      0.739D-05-0.312D-03-0.607D-03 0.104D-03 0.539D-02 0.111D-02
 Coeff:     -0.569D-01-0.619D-01 0.257D+00 0.856D+00
 Gap=     0.276 Goal=   None    Shift=    0.000
 RMSDP=7.01D-09 MaxDP=4.06D-07 DE= 6.37D-12 OVMax= 1.64D-06

 SCF Done:  E(RwB97XD) =  -2048.74420983     A.U. after   15 cycles
            NFock= 15  Conv=0.70D-08     -V/T= 2.0054
 KE= 2.037664436004D+03 PE=-1.563217249033D+04 EE= 6.120118104108D+03
 Leave Link  502 at Fri Jan 26 21:58:01 2018, MaxMem=  4294967296 cpu:           19683.6 elap:             636.0
 (Enter /share/apps/g16/l601.exe)
 Copying SCF densities to generalized density rwf, IOpCl= 0 IROHF=0.

 **********************************************************************

            Population analysis using the SCF density.

 **********************************************************************

 Orbital symmetries:
       Occupied  (A) (A) (A) (A) (A) (A) (A) (A) (A) (A) (A) (A)
                 (A) (A) (A) (A) (A) (A) (A) (A) (A) (A) (A) (A)
                 (A) (A) (A) (A) (A) (A) (A) (A) (A) (A) (A) (A)
                 (A) (A) (A) (A) (A) (A) (A) (A) (A) (A) (A) (A)
                 (A) (A) (A) (A) (A) (A) (A) (A) (A) (A) (A) (A)
                 (A) (A) (A) (A) (A) (A) (A) (A) (A) (A) (A) (A)
                 (A) (A) (A) (A) (A) (A) (A) (A) (A) (A) (A) (A)
                 (A) (A) (A) (A) (A) (A) (A) (A) (A) (A) (A) (A)
                 (A) (A) (A) (A) (A) (A) (A) (A) (A) (A) (A) (A)
                 (A) (A) (A) (A) (A) (A) (A) (A) (A) (A) (A) (A)
                 (A) (A) (A) (A) (A) (A) (A) (A) (A) (A) (A) (A)
                 (A) (A) (A) (A) (A) (A) (A) (A) (A) (A) (A) (A)
                 (A) (A) (A) (A) (A) (A) (A) (A) (A) (A)
       Virtual   (A) (A) (A) (A) (A) (A) (A) (A) (A) (A) (A) (A)
                 (A) (A) (A) (A) (A) (A) (A) (A) (A) (A) (A) (A)
                 (A) (A) (A) (A) (A) (A) (A) (A) (A) (A) (A) (A)
                 (A) (A) (A) (A) (A) (A) (A) (A) (A) (A) (A) (A)
                 (A) (A) (A) (A) (A) (A) (A) (A) (A) (A) (A) (A)
                 (A) (A) (A) (A) (A) (A) (A) (A) (A) (A) (A) (A)
                 (A) (A) (A) (A) (A) (A) (A) (A) (A) (A) (A) (A)
                 (A) (A) (A) (A) (A) (A) (A) (A) (A) (A) (A) (A)
                 (A) (A) (A) (A) (A) (A) (A) (A) (A) (A) (A) (A)
                 (A) (A) (A) (A) (A) (A) (A) (A) (A) (A) (A) (A)
                 (A) (A) (A) (A) (A) (A) (A) (A) (A) (A) (A) (A)
                 (A) (A) (A) (A) (A) (A) (A) (A) (A) (A) (A) (A)
                 (A) (A) (A) (A) (A) (A) (A) (A) (A) (A) (A) (A)
                 (A) (A) (A) (A) (A) (A) (A) (A) (A) (A) (A) (A)
                 (A) (A) (A) (A) (A) (A) (A) (A) (A) (A) (A) (A)
                 (A) (A) (A) (A) (A) (A) (A) (A) (A) (A) (A) (A)
                 (A) (A) (A) (A) (A) (A) (A) (A) (A) (A) (A) (A)
                 (A) (A) (A) (A) (A) (A) (A) (A) (A) (A) (A) (A)
                 (A) (A) (A) (A) (A) (A) (A) (A) (A) (A) (A) (A)
                 (A) (A) (A) (A) (A) (A) (A) (A) (A) (A) (A) (A)
                 (A) (A) (A) (A) (A) (A) (A) (A) (A) (A) (A) (A)
                 (A) (A) (A) (A) (A) (A) (A) (A) (A) (A) (A) (A)
                 (A) (A) (A) (A) (A) (A) (A) (A) (A) (A) (A) (A)
                 (A) (A) (A) (A) (A) (A) (A) (A) (A) (A) (A) (A)
                 (A) (A) (A) (A) (A) (A) (A) (A) (A) (A) (A) (A)
                 (A) (A) (A) (A) (A) (A) (A) (A) (A) (A) (A) (A)
                 (A) (A) (A) (A) (A) (A) (A) (A) (A) (A) (A) (A)
                 (A) (A) (A) (A) (A) (A) (A) (A) (A) (A) (A) (A)
                 (A) (A) (A) (A) (A) (A) (A) (A) (A) (A) (A) (A)
                 (A) (A) (A) (A) (A) (A) (A) (A) (A) (A) (A) (A)
                 (A) (A) (A) (A) (A) (A) (A) (A) (A) (A) (A) (A)
                 (A) (A) (A) (A) (A) (A) (A) (A) (A) (A) (A) (A)
                 (A) (A) (A) (A) (A) (A) (A) (A) (A) (A) (A) (A)
                 (A) (A) (A) (A) (A) (A) (A) (A) (A) (A) (A) (A)
                 (A) (A) (A) (A) (A) (A) (A) (A) (A) (A) (A) (A)
                 (A) (A) (A) (A) (A) (A) (A) (A) (A) (A) (A) (A)
                 (A) (A) (A) (A) (A) (A) (A) (A) (A) (A) (A) (A)
                 (A) (A) (A) (A) (A) (A) (A) (A) (A) (A) (A) (A)
                 (A) (A) (A) (A) (A) (A) (A) (A) (A) (A) (A) (A)
                 (A) (A) (A) (A) (A) (A) (A) (A) (A) (A) (A) (A)
                 (A) (A) (A) (A) (A) (A) (A) (A) (A) (A) (A) (A)
                 (A) (A) (A) (A) (A) (A) (A) (A) (A) (A) (A) (A)
                 (A) (A) (A) (A) (A) (A) (A) (A) (A) (A) (A) (A)
                 (A) (A) (A) (A) (A) (A) (A) (A) (A) (A) (A) (A)
                 (A) (A) (A) (A) (A) (A) (A) (A) (A) (A) (A) (A)
                 (A) (A) (A) (A) (A) (A) (A) (A) (A) (A) (A) (A)
                 (A) (A) (A) (A) (A) (A) (A) (A) (A) (A) (A) (A)
                 (A) (A) (A) (A) (A) (A) (A) (A) (A) (A) (A) (A)
                 (A) (A) (A) (A) (A) (A) (A)
 The electronic state is 1-A.
 Alpha  occ. eigenvalues --  -19.25772 -19.22114 -19.20585 -14.52480 -14.52336
 Alpha  occ. eigenvalues --  -14.48853 -14.48579 -14.47904 -14.47832 -14.46940
 Alpha  occ. eigenvalues --  -14.46646 -14.45346 -14.44406 -14.44313 -14.42045
 Alpha  occ. eigenvalues --  -14.41892 -14.40890 -14.40530 -14.40178 -14.39707
 Alpha  occ. eigenvalues --  -10.45462 -10.41248 -10.40241 -10.40041 -10.38224
 Alpha  occ. eigenvalues --  -10.38126 -10.37908 -10.37137 -10.35688 -10.35131
 Alpha  occ. eigenvalues --  -10.34872 -10.34379 -10.33807 -10.33333 -10.33258
 Alpha  occ. eigenvalues --  -10.32663 -10.32565 -10.32409 -10.31425 -10.31030
 Alpha  occ. eigenvalues --  -10.30174 -10.28125 -10.27764  -1.19388  -1.15096
 Alpha  occ. eigenvalues --   -1.13211  -1.13109  -1.10622  -1.10500  -1.09471
 Alpha  occ. eigenvalues --   -1.09307  -1.08557  -1.04945  -1.04393  -1.02494
 Alpha  occ. eigenvalues --   -1.00918  -0.99844  -0.99734  -0.98569  -0.96917
 Alpha  occ. eigenvalues --   -0.96642  -0.96164  -0.92080  -0.91298  -0.87560
 Alpha  occ. eigenvalues --   -0.85831  -0.84155  -0.83627  -0.83152  -0.82570
 Alpha  occ. eigenvalues --   -0.81565  -0.79028  -0.77045  -0.74833  -0.74642
 Alpha  occ. eigenvalues --   -0.73659  -0.73394  -0.72262  -0.70492  -0.70315
 Alpha  occ. eigenvalues --   -0.67396  -0.66901  -0.66609  -0.65665  -0.64551
 Alpha  occ. eigenvalues --   -0.64289  -0.63843  -0.62697  -0.62077  -0.61760
 Alpha  occ. eigenvalues --   -0.60594  -0.60176  -0.59993  -0.59642  -0.59418
 Alpha  occ. eigenvalues --   -0.59233  -0.58362  -0.56699  -0.56023  -0.55956
 Alpha  occ. eigenvalues --   -0.55539  -0.55240  -0.54907  -0.54526  -0.54272
 Alpha  occ. eigenvalues --   -0.53763  -0.53711  -0.53444  -0.53216  -0.53014
 Alpha  occ. eigenvalues --   -0.52743  -0.52451  -0.51057  -0.50236  -0.49993
 Alpha  occ. eigenvalues --   -0.49826  -0.49570  -0.49438  -0.49257  -0.48878
 Alpha  occ. eigenvalues --   -0.48384  -0.48291  -0.48134  -0.47749  -0.47349
 Alpha  occ. eigenvalues --   -0.46239  -0.45691  -0.45303  -0.44202  -0.43989
 Alpha  occ. eigenvalues --   -0.40635  -0.40462  -0.39392  -0.37739  -0.37540
 Alpha  occ. eigenvalues --   -0.37303  -0.37254  -0.36374  -0.35819  -0.34856
 Alpha  occ. eigenvalues --   -0.34416  -0.33841  -0.33267  -0.32808  -0.32785
 Alpha  occ. eigenvalues --   -0.32682  -0.32435  -0.32164  -0.31869  -0.30224
 Alpha  occ. eigenvalues --   -0.30147  -0.29767  -0.25513  -0.25112
 Alpha virt. eigenvalues --    0.02500   0.04249   0.06940   0.08451   0.08768
 Alpha virt. eigenvalues --    0.09215   0.09760   0.10661   0.11117   0.11721
 Alpha virt. eigenvalues --    0.12766   0.14270   0.14510   0.14908   0.15116
 Alpha virt. eigenvalues --    0.15434   0.16683   0.16880   0.17550   0.17597
 Alpha virt. eigenvalues --    0.18062   0.19988   0.20295   0.20311   0.20465
 Alpha virt. eigenvalues --    0.20850   0.20909   0.21166   0.21642   0.21886
 Alpha virt. eigenvalues --    0.22267   0.22815   0.23568   0.23632   0.23809
 Alpha virt. eigenvalues --    0.24287   0.24648   0.24678   0.24855   0.25198
 Alpha virt. eigenvalues --    0.25247   0.25649   0.27091   0.27588   0.28144
 Alpha virt. eigenvalues --    0.29057   0.29377   0.29642   0.30397   0.30822
 Alpha virt. eigenvalues --    0.31512   0.31881   0.32446   0.33131   0.33505
 Alpha virt. eigenvalues --    0.34208   0.34354   0.34894   0.35847   0.36259
 Alpha virt. eigenvalues --    0.36771   0.37279   0.37665   0.38943   0.39078
 Alpha virt. eigenvalues --    0.39745   0.40438   0.40930   0.41445   0.41610
 Alpha virt. eigenvalues --    0.42063   0.42770   0.43293   0.43873   0.44421
 Alpha virt. eigenvalues --    0.44610   0.45543   0.46257   0.46734   0.47134
 Alpha virt. eigenvalues --    0.47320   0.47592   0.48509   0.48672   0.49263
 Alpha virt. eigenvalues --    0.49802   0.50235   0.50557   0.50725   0.50920
 Alpha virt. eigenvalues --    0.51368   0.51874   0.52136   0.52838   0.53347
 Alpha virt. eigenvalues --    0.53884   0.54283   0.54488   0.54957   0.55461
 Alpha virt. eigenvalues --    0.55679   0.56424   0.56592   0.57035   0.57559
 Alpha virt. eigenvalues --    0.57636   0.57971   0.58163   0.59264   0.59343
 Alpha virt. eigenvalues --    0.59673   0.59898   0.60536   0.60803   0.61006
 Alpha virt. eigenvalues --    0.61242   0.61956   0.62244   0.62723   0.63124
 Alpha virt. eigenvalues --    0.63250   0.63806   0.64191   0.65037   0.65517
 Alpha virt. eigenvalues --    0.65656   0.65901   0.66082   0.66401   0.66968
 Alpha virt. eigenvalues --    0.67291   0.67688   0.68089   0.68201   0.68482
 Alpha virt. eigenvalues --    0.69449   0.69667   0.70049   0.70804   0.71096
 Alpha virt. eigenvalues --    0.71286   0.71949   0.72314   0.72711   0.73222
 Alpha virt. eigenvalues --    0.73635   0.73973   0.74264   0.74775   0.75091
 Alpha virt. eigenvalues --    0.75443   0.75902   0.76138   0.76239   0.76587
 Alpha virt. eigenvalues --    0.77157   0.77642   0.77883   0.78204   0.78521
 Alpha virt. eigenvalues --    0.78716   0.79047   0.79928   0.80512   0.80938
 Alpha virt. eigenvalues --    0.81215   0.81369   0.81819   0.82149   0.82595
 Alpha virt. eigenvalues --    0.82837   0.83600   0.83739   0.84215   0.84479
 Alpha virt. eigenvalues --    0.84713   0.85621   0.86032   0.86647   0.87291
 Alpha virt. eigenvalues --    0.88063   0.88252   0.88665   0.89036   0.89901
 Alpha virt. eigenvalues --    0.90227   0.90590   0.91020   0.91631   0.91793
 Alpha virt. eigenvalues --    0.91844   0.92534   0.93042   0.93217   0.94109
 Alpha virt. eigenvalues --    0.95012   0.95333   0.95634   0.95881   0.96439
 Alpha virt. eigenvalues --    0.96938   0.97146   0.97480   0.98139   0.98481
 Alpha virt. eigenvalues --    0.98718   0.99218   0.99454   0.99809   0.99976
 Alpha virt. eigenvalues --    1.00350   1.00622   1.01152   1.01638   1.02112
 Alpha virt. eigenvalues --    1.03156   1.03378   1.04190   1.04268   1.04679
 Alpha virt. eigenvalues --    1.05073   1.05820   1.06331   1.06601   1.07307
 Alpha virt. eigenvalues --    1.07595   1.08094   1.08935   1.09636   1.10337
 Alpha virt. eigenvalues --    1.10731   1.11391   1.11831   1.12538   1.13203
 Alpha virt. eigenvalues --    1.13551   1.13795   1.14117   1.14203   1.14921
 Alpha virt. eigenvalues --    1.15366   1.16036   1.16326   1.16613   1.16774
 Alpha virt. eigenvalues --    1.17282   1.17707   1.18031   1.18811   1.19169
 Alpha virt. eigenvalues --    1.19591   1.19974   1.20203   1.20375   1.20839
 Alpha virt. eigenvalues --    1.21155   1.22027   1.22472   1.22728   1.23083
 Alpha virt. eigenvalues --    1.23254   1.23539   1.23737   1.24123   1.24573
 Alpha virt. eigenvalues --    1.24855   1.25094   1.25387   1.25749   1.26748
 Alpha virt. eigenvalues --    1.27874   1.28311   1.28814   1.29349   1.29739
 Alpha virt. eigenvalues --    1.30363   1.31362   1.32073   1.32330   1.33085
 Alpha virt. eigenvalues --    1.33757   1.34518   1.34627   1.34994   1.36118
 Alpha virt. eigenvalues --    1.36425   1.37513   1.38187   1.39056   1.39378
 Alpha virt. eigenvalues --    1.40630   1.40789   1.41259   1.41695   1.43104
 Alpha virt. eigenvalues --    1.44768   1.45810   1.46025   1.46253   1.47023
 Alpha virt. eigenvalues --    1.47812   1.48984   1.49196   1.49298   1.50213
 Alpha virt. eigenvalues --    1.50432   1.51735   1.52491   1.52903   1.53413
 Alpha virt. eigenvalues --    1.53944   1.54121   1.55999   1.56516   1.56882
 Alpha virt. eigenvalues --    1.56985   1.58674   1.58944   1.59278   1.59572
 Alpha virt. eigenvalues --    1.60802   1.61066   1.62252   1.62590   1.62721
 Alpha virt. eigenvalues --    1.63120   1.64268   1.64668   1.65486   1.65763
 Alpha virt. eigenvalues --    1.66248   1.66472   1.67260   1.67988   1.68376
 Alpha virt. eigenvalues --    1.68778   1.69295   1.69828   1.70177   1.70763
 Alpha virt. eigenvalues --    1.71183   1.72017   1.72280   1.72564   1.72846
 Alpha virt. eigenvalues --    1.73787   1.73966   1.74381   1.74465   1.74829
 Alpha virt. eigenvalues --    1.75278   1.75755   1.76063   1.76490   1.76662
 Alpha virt. eigenvalues --    1.76856   1.77203   1.77428   1.77571   1.78048
 Alpha virt. eigenvalues --    1.78649   1.78861   1.78983   1.79347   1.80150
 Alpha virt. eigenvalues --    1.80338   1.80454   1.80906   1.81035   1.81160
 Alpha virt. eigenvalues --    1.81797   1.82180   1.82276   1.83430   1.84071
 Alpha virt. eigenvalues --    1.84337   1.84819   1.85067   1.85335   1.85802
 Alpha virt. eigenvalues --    1.86482   1.87185   1.87872   1.88053   1.88464
 Alpha virt. eigenvalues --    1.88687   1.89403   1.89765   1.90291   1.90468
 Alpha virt. eigenvalues --    1.91036   1.91296   1.91810   1.92938   1.93245
 Alpha virt. eigenvalues --    1.94082   1.94326   1.94769   1.95068   1.97130
 Alpha virt. eigenvalues --    1.97160   1.97723   1.98340   1.99695   2.00407
 Alpha virt. eigenvalues --    2.00784   2.01595   2.01914   2.02187   2.02476
 Alpha virt. eigenvalues --    2.02869   2.04037   2.05270   2.05788   2.06146
 Alpha virt. eigenvalues --    2.07155   2.07618   2.07998   2.08364   2.09185
 Alpha virt. eigenvalues --    2.09460   2.09811   2.10822   2.10967   2.11575
 Alpha virt. eigenvalues --    2.12345   2.13526   2.14465   2.15579   2.16137
 Alpha virt. eigenvalues --    2.17472   2.18146   2.18487   2.20083   2.20525
 Alpha virt. eigenvalues --    2.21369   2.21896   2.22408   2.22551   2.23482
 Alpha virt. eigenvalues --    2.23721   2.24280   2.25168   2.25379   2.26359
 Alpha virt. eigenvalues --    2.26681   2.27086   2.27882   2.28563   2.29466
 Alpha virt. eigenvalues --    2.29981   2.30214   2.30657   2.31425   2.31919
 Alpha virt. eigenvalues --    2.32351   2.33000   2.33610   2.33748   2.33823
 Alpha virt. eigenvalues --    2.34915   2.35133   2.35501   2.35768   2.37127
 Alpha virt. eigenvalues --    2.37369   2.37780   2.38881   2.39461   2.40252
 Alpha virt. eigenvalues --    2.40929   2.42075   2.43251   2.43475   2.43754
 Alpha virt. eigenvalues --    2.44286   2.44715   2.45130   2.45320   2.46220
 Alpha virt. eigenvalues --    2.46762   2.47745   2.49312   2.50629   2.50994
 Alpha virt. eigenvalues --    2.51488   2.52258   2.54416   2.54506   2.55154
 Alpha virt. eigenvalues --    2.56349   2.56820   2.57083   2.58009   2.59141
 Alpha virt. eigenvalues --    2.60248   2.61142   2.61888   2.62200   2.62860
 Alpha virt. eigenvalues --    2.63001   2.64090   2.64931   2.65090   2.65442
 Alpha virt. eigenvalues --    2.65800   2.66509   2.67578   2.67719   2.68185
 Alpha virt. eigenvalues --    2.68810   2.69911   2.70082   2.70871   2.71686
 Alpha virt. eigenvalues --    2.72362   2.73574   2.74814   2.75048   2.76432
 Alpha virt. eigenvalues --    2.76935   2.77315   2.78167   2.78597   2.79023
 Alpha virt. eigenvalues --    2.79311   2.80103   2.80423   2.80775   2.80922
 Alpha virt. eigenvalues --    2.81479   2.81890   2.82181   2.83571   2.83892
 Alpha virt. eigenvalues --    2.84168   2.85015   2.85789   2.86502   2.86899
 Alpha virt. eigenvalues --    2.87250   2.87775   2.88512   2.90641   2.91723
 Alpha virt. eigenvalues --    2.93585   2.94434   2.94754   2.96743   2.98152
 Alpha virt. eigenvalues --    3.00070   3.00707   3.01205   3.03656   3.04417
 Alpha virt. eigenvalues --    3.05600   3.09044   3.10886   3.12491   3.14801
 Alpha virt. eigenvalues --    3.15732   3.16068   3.16412   3.16923   3.19578
 Alpha virt. eigenvalues --    3.20533   3.22241   3.23317   3.24725   3.25135
 Alpha virt. eigenvalues --    3.44187   3.47008   3.47422   3.49283   3.50202
 Alpha virt. eigenvalues --    3.53532   3.54355   3.56126   3.57483   3.59845
 Alpha virt. eigenvalues --    3.63224   3.70538   3.74524
          Condensed to atoms (all electrons):
 Mulliken charges:
               1
     1  N   -0.313000
     2  C    0.182433
     3  C    0.044934
     4  N   -0.256298
     5  C    0.137023
     6  H    0.024718
     7  N   -0.301848
     8  C    0.140412
     9  H    0.008100
    10  N   -0.288030
    11  C    0.258877
    12  C    0.114013
    13  N   -0.065945
    14  H    0.112195
    15  H    0.080913
    16  H    0.021943
    17  H    0.032810
    18  H    0.027480
    19  N   -0.312042
    20  C    0.248494
    21  C    0.180828
    22  N   -0.113075
    23  H    0.113468
    24  H    0.114968
    25  N   -0.310622
    26  C    0.241946
    27  N   -0.150239
    28  H    0.122283
    29  C    0.196191
    30  O   -0.321400
    31  C   -0.014038
    32  N   -0.225631
    33  C    0.129272
    34  H    0.024487
    35  H    0.028088
    36  H    0.028824
    37  H    0.024916
    38  H    0.053679
    39  H    0.060879
    40  H    0.076220
    41  H    0.031889
    42  C   -0.116434
    43  O   -0.260066
    44  C    0.170239
    45  H    0.132842
    46  N   -0.123338
    47  O   -0.346073
    48  C    0.344552
    49  H    0.045071
    50  C    0.154570
    51  C    0.040553
    52  N   -0.277111
    53  H    0.034717
    54  H    0.041828
    55  H    0.027693
    56  H    0.116718
    57  H    0.116004
    58  N   -0.061907
    59  C    0.094208
    60  C    0.244603
    61  N   -0.270086
    62  H    0.040909
    63  C    0.169365
    64  N   -0.313383
    65  H    0.037820
    66  C    0.139975
    67  N   -0.268088
    68  C    0.029668
    69  C    0.178535
    70  N   -0.313501
 Sum of Mulliken charges =  -0.00000
 Mulliken charges with hydrogens summed into heavy atoms:
               1
     1  N   -0.313000
     2  C    0.264667
     3  C    0.044934
     4  N   -0.256298
     5  C    0.161741
     7  N   -0.301848
     8  C    0.148512
    10  N   -0.288030
    11  C    0.258877
    12  C    0.114013
    13  N    0.127164
    19  N   -0.312042
    20  C    0.248494
    21  C    0.262655
    22  N    0.115362
    25  N   -0.310622
    26  C    0.241946
    27  N   -0.027956
    29  C    0.196191
    30  O   -0.321400
    31  C   -0.014038
    32  N   -0.225631
    33  C    0.153759
    42  C   -0.084545
    43  O   -0.260066
    44  C    0.170239
    46  N    0.009504
    47  O   -0.346073
    48  C    0.344552
    50  C    0.199641
    51  C    0.231331
    52  N   -0.277111
    58  N    0.170815
    59  C    0.094208
    60  C    0.244603
    61  N   -0.270086
    63  C    0.210274
    64  N   -0.313383
    66  C    0.177795
    67  N   -0.268088
    68  C    0.029668
    69  C    0.282772
    70  N   -0.313501
 Electronic spatial extent (au):  <R**2>=          22205.5635
 Charge=             -0.0000 electrons
 Dipole moment (field-independent basis, Debye):
    X=              9.5985    Y=              5.1657    Z=              0.5539  Tot=             10.9143
 Quadrupole moment (field-independent basis, Debye-Ang):
   XX=           -169.5004   YY=           -206.9463   ZZ=           -250.5729
   XY=             -7.5659   XZ=             -8.3355   YZ=             -1.5103
 Traceless Quadrupole moment (field-independent basis, Debye-Ang):
   XX=             39.5061   YY=              2.0602   ZZ=            -41.5663
   XY=             -7.5659   XZ=             -8.3355   YZ=             -1.5103
 Octapole moment (field-independent basis, Debye-Ang**2):
  XXX=            -61.6104  YYY=            148.2554  ZZZ=            -15.2324  XYY=             86.6114
  XXY=             31.4473  XXZ=             10.4874  XZZ=             61.4443  YZZ=             21.0608
  YYZ=             19.3333  XYZ=             92.1901
 Hexadecapole moment (field-independent basis, Debye-Ang**3):
 XXXX=         -13950.0171 YYYY=          -7450.6561 ZZZZ=          -4147.3991 XXXY=            585.3196
 XXXZ=           -229.4794 YYYX=           -306.3575 YYYZ=            -27.0324 ZZZX=            -10.5347
 ZZZY=             73.6350 XXYY=          -2942.7944 XXZZ=          -3366.6695 YYZZ=          -1988.9136
 XXYZ=            112.0181 YYXZ=            120.8469 ZZXY=             50.3579
 N-N= 5.425645740390D+03 E-N=-1.563217248741D+04  KE= 2.037664436004D+03
 No NMR shielding tensors so no spin-rotation constants.
 Leave Link  601 at Fri Jan 26 21:58:02 2018, MaxMem=  4294967296 cpu:              49.0 elap:               1.7
 (Enter /share/apps/g16/l9999.exe)
 1\1\GINC-COMPUTE-0-3\SP\RwB97XD\CC-pVDZ\C23H27N17O3\SATYA\26-Jan-2018\
 0\\#p wb97xd/cc-pvdz sp scf=(maxcycles=20)\\Base pair stacking\\0,1\N,
 0,4.87923,-3.0159,-5.47843\C,0,6.33264,-2.7611,-5.45244\C,0,2.70499,-2
 .7903,-5.72153\N,0,2.91266,-4.08545,-5.26964\C,0,4.21425,-4.16952,-5.1
 4127\H,0,4.74763,-5.05771,-4.80131\N,0,1.67922,-0.8025,-6.46945\C,0,2.
 91034,-0.28701,-6.5483\H,0,2.96109,0.74529,-6.89185\N,0,4.08266,-0.852
 6,-6.2678\C,0,3.90786,-2.11889,-5.85503\C,0,1.53682,-2.07901,-6.05075\
 N,0,0.30871,-2.59536,-5.97139\H,0,0.15616,-3.53609,-5.66648\H,0,-0.500
 29,-2.05976,-6.21386\H,0,6.79586,-3.40245,-6.06422\H,0,6.51316,-1.8252
 2,-5.75355\H,0,6.67784,-2.88245,-4.52179\N,0,3.21872,2.67922,-3.11447\
 C,0,1.91827,2.25745,-3.2523\C,0,3.68368,4.07351,-3.25753\N,0,-1.42262,
 2.96577,-3.88358\H,0,-2.28509,2.46365,-3.94059\H,0,-1.46086,3.95273,-4
 .04222\N,0,0.85528,3.03959,-3.53928\C,0,-0.26622,2.34441,-3.60688\N,0,
 -0.343,0.98705,-3.40891\H,0,-1.24344,0.53861,-3.48015\C,0,0.73774,0.16
 239,-3.11258\O,0,0.56033,-1.05155,-2.95251\C,0,1.94953,0.89498,-3.0366
 7\N,0,3.24356,0.46994,-2.76885\C,0,3.96016,1.55966,-2.8255\H,0,5.03778
 ,1.60331,-2.66398\H,0,4.35375,4.12897,-3.99695\H,0,2.90489,4.66217,-3.
 4702\H,0,4.10484,4.37552,-2.403\H,0,-5.89397,-1.18225,-4.60439\H,0,-6.
 08923,-1.18698,-2.85325\H,0,-5.04699,0.01169,-3.62026\H,0,-3.51459,-5.
 20511,-3.46348\C,0,-3.36642,-4.12534,-3.44404\O,0,-1.01309,-4.26783,-3
 .18203\C,0,-2.04256,-3.60283,-3.29502\H,0,-1.04759,-1.81819,-3.17926\N
 ,0,-1.9667,-2.22467,-3.28284\O,0,-2.84082,-0.1307,-3.37465\C,0,-3.0076
 4,-1.3375,-3.39651\H,0,-5.42798,-3.63182,-3.67258\C,0,-4.40184,-3.2852
 8,-3.55723\C,0,-5.39601,-1.00938,-3.66194\N,0,-4.25289,-1.91789,-3.536
 93\H,0,-4.31156,3.87047,-8.69571\H,0,-3.16094,3.82721,-7.53972\H,0,-4.
 71134,4.13992,-7.13655\H,0,-3.30908,-3.10682,-6.37665\H,0,-4.82802,-2.
 50663,-6.86929\N,0,-3.86761,-2.32532,-6.65493\C,0,-3.35544,-1.09562,-6
 .73686\C,0,-3.42727,1.24468,-7.16058\N,0,-2.13409,1.45857,-6.86671\H,0
 ,-0.4847,0.403,-6.26183\C,0,-1.54013,0.31924,-6.51739\N,0,-2.05138,-0.
 91339,-6.43472\H,0,-6.4448,1.97825,-8.05979\C,0,-5.52917,1.48044,-7.73
 927\N,0,-5.42612,0.19775,-7.49073\C,0,-4.09841,0.03486,-7.12278\C,0,-4
 .11602,3.61843,-7.74796\N,0,-4.35767,2.17476,-7.55975\\Version=EM64L-G
 16RevA.03\State=1-A\HF=-2048.7442098\RMSD=7.014e-09\Dipole=-3.4770208,
 2.3938745,-0.7863468\Quadrupole=30.6291021,0.7360267,-31.3651288,2.454
 52,3.3491926,1.6965173\PG=C01 [X(C23H27N17O3)]\\@


 The number of Unix installations has grown to 10,
  with more expected.
                  -- The Unix Programmer's Manual,
                     2nd Edition, June, 1972.
 Job cpu time:       0 days  5 hours 38 minutes  7.0 seconds.
 Elapsed time:       0 days  0 hours 10 minutes 55.3 seconds.
 File lengths (MBytes):  RWF=    298 Int=      0 D2E=      0 Chk=     33 Scr=      1
 Normal termination of Gaussian 16 at Fri Jan 26 21:58:03 2018.
