 Entering Gaussian System, Link 0=g16
 Input=str60.-10.2.0.com
 Output=str60.-10.2.0.log
 Initial command:
 /share/apps/g16/l1.exe "/state/partition1/scr/Gau-21399.inp" -scrdir="/state/partition1/scr/"
 Entering Link 1 = /share/apps/g16/l1.exe PID=     21400.
  
 Copyright (c) 1988,1990,1992,1993,1995,1998,2003,2009,2016,
            Gaussian, Inc.  All Rights Reserved.
  
 This is part of the Gaussian(R) 16 program.  It is based on
 the Gaussian(R) 09 system (copyright 2009, Gaussian, Inc.),
 the Gaussian(R) 03 system (copyright 2003, Gaussian, Inc.),
 the Gaussian(R) 98 system (copyright 1998, Gaussian, Inc.),
 the Gaussian(R) 94 system (copyright 1995, Gaussian, Inc.),
 the Gaussian 92(TM) system (copyright 1992, Gaussian, Inc.),
 the Gaussian 90(TM) system (copyright 1990, Gaussian, Inc.),
 the Gaussian 88(TM) system (copyright 1988, Gaussian, Inc.),
 the Gaussian 86(TM) system (copyright 1986, Carnegie Mellon
 University), and the Gaussian 82(TM) system (copyright 1983,
 Carnegie Mellon University). Gaussian is a federally registered
 trademark of Gaussian, Inc.
  
 This software contains proprietary and confidential information,
 including trade secrets, belonging to Gaussian, Inc.
  
 This software is provided under written license and may be
 used, copied, transmitted, or stored only in accord with that
 written license.
  
 The following legend is applicable only to US Government
 contracts under FAR:
  
                    RESTRICTED RIGHTS LEGEND
  
 Use, reproduction and disclosure by the US Government is
 subject to restrictions as set forth in subparagraphs (a)
 and (c) of the Commercial Computer Software - Restricted
 Rights clause in FAR 52.227-19.
  
 Gaussian, Inc.
 340 Quinnipiac St., Bldg. 40, Wallingford CT 06492
  
  
 ---------------------------------------------------------------
 Warning -- This program may not be used in any manner that
 competes with the business of Gaussian, Inc. or will provide
 assistance to any competitor of Gaussian, Inc.  The licensee
 of this program is prohibited from giving any competitor of
 Gaussian, Inc. access to this program.  By using this program,
 the user acknowledges that Gaussian, Inc. is engaged in the
 business of creating and licensing software in the field of
 computational chemistry and represents and warrants to the
 licensee that it is not a competitor of Gaussian, Inc. and that
 it will not use this program in any manner prohibited above.
 ---------------------------------------------------------------
  

 Cite this work as:
 Gaussian 16, Revision A.03,
 M. J. Frisch, G. W. Trucks, H. B. Schlegel, G. E. Scuseria, 
 M. A. Robb, J. R. Cheeseman, G. Scalmani, V. Barone, 
 G. A. Petersson, H. Nakatsuji, X. Li, M. Caricato, A. V. Marenich, 
 J. Bloino, B. G. Janesko, R. Gomperts, B. Mennucci, H. P. Hratchian, 
 J. V. Ortiz, A. F. Izmaylov, J. L. Sonnenberg, D. Williams-Young, 
 F. Ding, F. Lipparini, F. Egidi, J. Goings, B. Peng, A. Petrone, 
 T. Henderson, D. Ranasinghe, V. G. Zakrzewski, J. Gao, N. Rega, 
 G. Zheng, W. Liang, M. Hada, M. Ehara, K. Toyota, R. Fukuda, 
 J. Hasegawa, M. Ishida, T. Nakajima, Y. Honda, O. Kitao, H. Nakai, 
 T. Vreven, K. Throssell, J. A. Montgomery, Jr., J. E. Peralta, 
 F. Ogliaro, M. J. Bearpark, J. J. Heyd, E. N. Brothers, K. N. Kudin, 
 V. N. Staroverov, T. A. Keith, R. Kobayashi, J. Normand, 
 K. Raghavachari, A. P. Rendell, J. C. Burant, S. S. Iyengar, 
 J. Tomasi, M. Cossi, J. M. Millam, M. Klene, C. Adamo, R. Cammi, 
 J. W. Ochterski, R. L. Martin, K. Morokuma, O. Farkas, 
 J. B. Foresman, and D. J. Fox, Gaussian, Inc., Wallingford CT, 2016.
 
 ******************************************
 Gaussian 16:  EM64L-G16RevA.03 25-Dec-2016
                26-Jan-2018 
 ******************************************
 %nprocshared=32
 Will use up to   32 processors via shared memory.
 %mem=32GB
 %chk=allatoms_t.chk
 ---------------------------------------
 #p wb97xd/cc-pvdz sp scf=(maxcycles=20)
 ---------------------------------------
 1/38=1,172=1/1;
 2/12=2,17=6,18=5,40=1/2;
 3/5=16,11=2,25=1,30=1,74=-58/1,2,3;
 4//1;
 5/5=2,7=20,38=5/2;
 6/7=2,8=2,9=2,10=2,28=1/1;
 99/5=1,9=1/99;
 Leave Link    1 at Fri Jan 26 22:54:25 2018, MaxMem=  4294967296 cpu:               2.7 elap:               0.1
 (Enter /share/apps/g16/l101.exe)
 ------------------
 Base pair stacking
 ------------------
 Symbolic Z-matrix:
 Charge =  0 Multiplicity = 1
 N                     1.72319  -2.86642  -7.04576 
 C                     3.1505   -2.56551  -7.26996 
 C                    -0.42749  -2.68242  -6.62385 
 N                    -0.18953  -4.03107  -6.84577 
 C                     1.09666  -4.08794  -7.09108 
 H                     1.64554  -5.00351  -7.31335 
 N                    -1.49022  -0.62934  -6.15651 
 C                    -0.28888  -0.06127  -6.30368 
 H                    -0.26518   1.01883  -6.16557 
 N                     0.88209  -0.62446  -6.59448 
 C                     0.74201  -1.95206  -6.74373 
 C                    -1.59808  -1.96686  -6.31302 
 N                    -2.79644  -2.53575  -6.16651 
 H                    -2.9229   -3.52257  -6.27332 
 H                    -3.60822  -1.99525  -5.94511 
 H                     3.41159  -2.84987  -8.19253 
 H                     3.30467  -1.58309  -7.16886 
 H                     3.7064   -3.059    -6.60106 
 N                     2.14425   1.83227  -3.34486 
 C                     0.84414   1.4103   -3.20449 
 C                     2.58401   3.24116  -3.39305 
 N                    -2.53203   2.13907  -2.841 
 H                    -3.3898    1.63422  -2.74826 
 H                    -2.59042   3.13771  -2.83526 
 N                    -0.24131   2.20546  -3.08794 
 C                    -1.35583   1.50623  -2.96742 
 N                    -1.40572   0.13329  -2.96128 
 H                    -2.30277  -0.31712  -2.86433 
 C                    -0.30156  -0.70495  -3.07982 
 O                    -0.4556   -1.93243  -3.06253 
 C                     0.90307   0.03179  -3.21008 
 N                     2.2138   -0.40293  -3.35111 
 C                     2.91293   0.69692  -3.42708 
 H                     3.99645   0.73715  -3.54389 
 H                     3.042     3.41955  -4.26324 
 H                     1.78845   3.83954  -3.30764 
 H                     3.2169    3.42045  -2.64064 
 H                    -7.11889  -1.942    -2.99679 
 H                    -6.85662  -2.21192  -1.27545 
 H                    -6.02371  -0.89192  -2.09718 
 H                    -4.60553  -6.04251  -3.12092 
 C                    -4.43615  -4.97504  -2.97934 
 O                    -2.098    -5.10873  -3.35655 
 C                    -3.10856  -4.4547   -3.10002 
 H                    -2.08243  -2.68811  -2.97934 
 N                    -3.00503  -3.09257  -2.9022 
 O                    -3.83195  -1.02596  -2.45214 
 C                    -4.02247  -2.21902  -2.6102 
 H                    -6.47691  -4.49358  -2.59291 
 C                    -5.44907  -4.14803  -2.69533 
 C                    -6.3917   -1.90199  -2.1995 
 N                    -5.27304  -2.79632  -2.51018 
 H                    -7.56703   4.19558  -4.58333 
 H                    -6.17192   3.72049  -3.88329 
 H                    -7.55508   3.73782  -3.01689 
 H                    -6.42596  -3.0265   -5.85027 
 H                    -7.98249  -2.35991  -5.64304 
 N                    -6.99011  -2.23506  -5.61469 
 C                    -6.44433  -1.06473  -5.27759 
 C                    -6.48414   1.21901  -4.61077 
 N                    -5.14835   1.35765  -4.5812 
 H                    -3.46403   0.2404   -4.92099 
 C                    -4.55291   0.21571  -4.91932 
 N                    -5.09779  -0.95752  -5.25728 
 H                    -9.58306   2.09635  -4.32947 
 C                    -8.64675   1.56201  -4.49305 
 N                    -8.55931   0.30689  -4.86006 
 C                    -7.19345   0.07662  -4.93839 
 C                    -7.1592    3.5686   -3.91957 
 N                    -7.42933   2.17524  -4.32401 
 
 ITRead=  0  0  0  0  0  0  0  0  0  0  0  0  0  0  0  0  0  0  0  0
 ITRead=  0  0  0  0  0  0  0  0  0  0  0  0  0  0  0  0  0  0  0  0
 ITRead=  0  0  0  0  0  0  0  0  0  0  0  0  0  0  0  0  0  0  0  0
 ITRead=  0  0  0  0  0  0  0  0  0  0
 MicOpt= -1 -1 -1 -1 -1 -1 -1 -1 -1 -1 -1 -1 -1 -1 -1 -1 -1 -1 -1 -1
 MicOpt= -1 -1 -1 -1 -1 -1 -1 -1 -1 -1 -1 -1 -1 -1 -1 -1 -1 -1 -1 -1
 MicOpt= -1 -1 -1 -1 -1 -1 -1 -1 -1 -1 -1 -1 -1 -1 -1 -1 -1 -1 -1 -1
 MicOpt= -1 -1 -1 -1 -1 -1 -1 -1 -1 -1
 NAtoms=     70 NQM=       70 NQMF=       0 NMMI=      0 NMMIF=      0
                NMic=       0 NMicF=      0.
                    Isotopes and Nuclear Properties:
 (Nuclear quadrupole moments (NQMom) in fm**2, nuclear magnetic moments (NMagM)
  in nuclear magnetons)

  Atom         1           2           3           4           5           6           7           8           9          10
 IAtWgt=          14          12          12          14          12           1          14          12           1          14
 AtmWgt=  14.0030740  12.0000000  12.0000000  14.0030740  12.0000000   1.0078250  14.0030740  12.0000000   1.0078250  14.0030740
 NucSpn=           2           0           0           2           0           1           2           0           1           2
 AtZEff=  -0.0000000  -0.0000000  -0.0000000  -0.0000000  -0.0000000  -0.0000000  -0.0000000  -0.0000000  -0.0000000  -0.0000000
 NQMom=    2.0440000   0.0000000   0.0000000   2.0440000   0.0000000   0.0000000   2.0440000   0.0000000   0.0000000   2.0440000
 NMagM=    0.4037610   0.0000000   0.0000000   0.4037610   0.0000000   2.7928460   0.4037610   0.0000000   2.7928460   0.4037610
 AtZNuc=   7.0000000   6.0000000   6.0000000   7.0000000   6.0000000   1.0000000   7.0000000   6.0000000   1.0000000   7.0000000

  Atom        11          12          13          14          15          16          17          18          19          20
 IAtWgt=          12          12          14           1           1           1           1           1          14          12
 AtmWgt=  12.0000000  12.0000000  14.0030740   1.0078250   1.0078250   1.0078250   1.0078250   1.0078250  14.0030740  12.0000000
 NucSpn=           0           0           2           1           1           1           1           1           2           0
 AtZEff=  -0.0000000  -0.0000000  -0.0000000  -0.0000000  -0.0000000  -0.0000000  -0.0000000  -0.0000000  -0.0000000  -0.0000000
 NQMom=    0.0000000   0.0000000   2.0440000   0.0000000   0.0000000   0.0000000   0.0000000   0.0000000   2.0440000   0.0000000
 NMagM=    0.0000000   0.0000000   0.4037610   2.7928460   2.7928460   2.7928460   2.7928460   2.7928460   0.4037610   0.0000000
 AtZNuc=   6.0000000   6.0000000   7.0000000   1.0000000   1.0000000   1.0000000   1.0000000   1.0000000   7.0000000   6.0000000

  Atom        21          22          23          24          25          26          27          28          29          30
 IAtWgt=          12          14           1           1          14          12          14           1          12          16
 AtmWgt=  12.0000000  14.0030740   1.0078250   1.0078250  14.0030740  12.0000000  14.0030740   1.0078250  12.0000000  15.9949146
 NucSpn=           0           2           1           1           2           0           2           1           0           0
 AtZEff=  -0.0000000  -0.0000000  -0.0000000  -0.0000000  -0.0000000  -0.0000000  -0.0000000  -0.0000000  -0.0000000  -0.0000000
 NQMom=    0.0000000   2.0440000   0.0000000   0.0000000   2.0440000   0.0000000   2.0440000   0.0000000   0.0000000   0.0000000
 NMagM=    0.0000000   0.4037610   2.7928460   2.7928460   0.4037610   0.0000000   0.4037610   2.7928460   0.0000000   0.0000000
 AtZNuc=   6.0000000   7.0000000   1.0000000   1.0000000   7.0000000   6.0000000   7.0000000   1.0000000   6.0000000   8.0000000

  Atom        31          32          33          34          35          36          37          38          39          40
 IAtWgt=          12          14          12           1           1           1           1           1           1           1
 AtmWgt=  12.0000000  14.0030740  12.0000000   1.0078250   1.0078250   1.0078250   1.0078250   1.0078250   1.0078250   1.0078250
 NucSpn=           0           2           0           1           1           1           1           1           1           1
 AtZEff=  -0.0000000  -0.0000000  -0.0000000  -0.0000000  -0.0000000  -0.0000000  -0.0000000  -0.0000000  -0.0000000  -0.0000000
 NQMom=    0.0000000   2.0440000   0.0000000   0.0000000   0.0000000   0.0000000   0.0000000   0.0000000   0.0000000   0.0000000
 NMagM=    0.0000000   0.4037610   0.0000000   2.7928460   2.7928460   2.7928460   2.7928460   2.7928460   2.7928460   2.7928460
 AtZNuc=   6.0000000   7.0000000   6.0000000   1.0000000   1.0000000   1.0000000   1.0000000   1.0000000   1.0000000   1.0000000

  Atom        41          42          43          44          45          46          47          48          49          50
 IAtWgt=           1          12          16          12           1          14          16          12           1          12
 AtmWgt=   1.0078250  12.0000000  15.9949146  12.0000000   1.0078250  14.0030740  15.9949146  12.0000000   1.0078250  12.0000000
 NucSpn=           1           0           0           0           1           2           0           0           1           0
 AtZEff=  -0.0000000  -0.0000000  -0.0000000  -0.0000000  -0.0000000  -0.0000000  -0.0000000  -0.0000000  -0.0000000  -0.0000000
 NQMom=    0.0000000   0.0000000   0.0000000   0.0000000   0.0000000   2.0440000   0.0000000   0.0000000   0.0000000   0.0000000
 NMagM=    2.7928460   0.0000000   0.0000000   0.0000000   2.7928460   0.4037610   0.0000000   0.0000000   2.7928460   0.0000000
 AtZNuc=   1.0000000   6.0000000   8.0000000   6.0000000   1.0000000   7.0000000   8.0000000   6.0000000   1.0000000   6.0000000

  Atom        51          52          53          54          55          56          57          58          59          60
 IAtWgt=          12          14           1           1           1           1           1          14          12          12
 AtmWgt=  12.0000000  14.0030740   1.0078250   1.0078250   1.0078250   1.0078250   1.0078250  14.0030740  12.0000000  12.0000000
 NucSpn=           0           2           1           1           1           1           1           2           0           0
 AtZEff=  -0.0000000  -0.0000000  -0.0000000  -0.0000000  -0.0000000  -0.0000000  -0.0000000  -0.0000000  -0.0000000  -0.0000000
 NQMom=    0.0000000   2.0440000   0.0000000   0.0000000   0.0000000   0.0000000   0.0000000   2.0440000   0.0000000   0.0000000
 NMagM=    0.0000000   0.4037610   2.7928460   2.7928460   2.7928460   2.7928460   2.7928460   0.4037610   0.0000000   0.0000000
 AtZNuc=   6.0000000   7.0000000   1.0000000   1.0000000   1.0000000   1.0000000   1.0000000   7.0000000   6.0000000   6.0000000

  Atom        61          62          63          64          65          66          67          68          69          70
 IAtWgt=          14           1          12          14           1          12          14          12          12          14
 AtmWgt=  14.0030740   1.0078250  12.0000000  14.0030740   1.0078250  12.0000000  14.0030740  12.0000000  12.0000000  14.0030740
 NucSpn=           2           1           0           2           1           0           2           0           0           2
 AtZEff=  -0.0000000  -0.0000000  -0.0000000  -0.0000000  -0.0000000  -0.0000000  -0.0000000  -0.0000000  -0.0000000  -0.0000000
 NQMom=    2.0440000   0.0000000   0.0000000   2.0440000   0.0000000   0.0000000   2.0440000   0.0000000   0.0000000   2.0440000
 NMagM=    0.4037610   2.7928460   0.0000000   0.4037610   2.7928460   0.0000000   0.4037610   0.0000000   0.0000000   0.4037610
 AtZNuc=   7.0000000   1.0000000   6.0000000   7.0000000   1.0000000   6.0000000   7.0000000   6.0000000   6.0000000   7.0000000
 Leave Link  101 at Fri Jan 26 22:54:25 2018, MaxMem=  4294967296 cpu:               6.9 elap:               0.2
 (Enter /share/apps/g16/l202.exe)
 Stoichiometry    C23H27N17O3
 Framework group  C1[X(C23H27N17O3)]
 Deg. of freedom   204
 Full point group                 C1      NOp   1
 Largest Abelian subgroup         C1      NOp   1
 Largest concise Abelian subgroup C1      NOp   1
                         Standard orientation:                         
 ---------------------------------------------------------------------
 Center     Atomic      Atomic             Coordinates (Angstroms)
 Number     Number       Type             X           Y           Z
 ---------------------------------------------------------------------
      1          7           0        4.617021   -2.119985   -1.731511
      2          6           0        6.034129   -1.734015   -1.875929
      3          6           0        2.423911   -2.064173   -1.575170
      4          7           0        2.787018   -3.398602   -1.464806
      5          6           0        4.093762   -3.378814   -1.563420
      6          1           0        4.732238   -4.261645   -1.519837
      7          7           0        1.162281   -0.074490   -1.686503
      8          6           0        2.326488    0.565165   -1.838308
      9          1           0        2.252526    1.646647   -1.944037
     10          7           0        3.562546    0.071781   -1.878932
     11          6           0        3.541180   -1.264131   -1.740004
     12          6           0        1.174420   -1.418401   -1.549223
     13          7           0        0.013303   -2.058699   -1.397580
     14          1           0       -0.025183   -3.053029   -1.292507
     15          1           0       -0.857209   -1.566596   -1.383837
     16          1           0        6.422706   -2.182245   -2.681076
     17          1           0        6.101057   -0.742435   -1.982828
     18          1           0        6.542860   -2.014920   -1.062129
     19          7           0        4.244912    3.281056    0.845685
     20          6           0        2.972727    2.772102    0.948452
     21          6           0        4.580169    4.683360    0.526581
     22          7           0       -0.467904    3.223102    0.805575
     23          1           0       -1.290249    2.667303    0.924233
     24          1           0       -0.601436    4.188898    0.581674
     25          7           0        1.824446    3.462009    0.776565
     26          6           0        0.759203    2.697809    0.940453
     27          7           0        0.812243    1.360114    1.249076
     28          1           0       -0.053583    0.854218    1.355757
     29          6           0        1.982522    0.629778    1.430525
     30          8           0        1.920191   -0.574523    1.707129
     31          6           0        3.135320    1.437279    1.257653
     32          7           0        4.482471    1.114715    1.347212
     33          6           0        5.101048    2.236516    1.095915
     34          1           0        6.184677    2.358096    1.080210
     35          1           0        5.122772    4.715550   -0.312082
     36          1           0        3.737389    5.204152    0.397096
     37          1           0        5.104743    5.081733    1.278203
     38          1           0       -4.684758   -1.231045    1.117662
     39          1           0       -4.607556   -1.098168    2.872951
     40          1           0       -3.785202    0.090905    1.862398
     41          1           0       -1.873314   -4.992607    2.163129
     42          6           0       -1.802485   -3.908195    2.077922
     43          8           0        0.567210   -3.886930    1.972090
     44          6           0       -0.512801   -3.296708    1.974911
     45          1           0        0.356303   -1.452424    1.797081
     46          7           0       -0.535942   -1.920455    1.871746
     47          8           0       -1.563056    0.102072    1.763820
     48          6           0       -1.643439   -1.110005    1.859104
     49          1           0       -3.904925   -3.560045    2.144032
     50          6           0       -2.901068   -3.144232    2.068403
     51          6           0       -4.061631   -0.949025    1.953278
     52          7           0       -2.850145   -1.773626    1.962419
     53          1           0       -5.402790    4.348035   -1.839722
     54          1           0       -4.068133    4.174978   -0.917312
     55          1           0       -5.541090    4.240331   -0.217164
     56          1           0       -3.580990   -2.827961   -1.337983
     57          1           0       -5.196751   -2.290292   -1.439475
     58          7           0       -4.226827   -2.064407   -1.342353
     59          6           0       -3.814052   -0.800763   -1.224006
     60          6           0       -4.103627    1.557347   -1.092989
     61          7           0       -2.794842    1.830977   -0.963998
     62          1           0       -1.003066    0.839667   -0.877509
     63          6           0       -2.079605    0.707965   -0.977453
     64          7           0       -2.491170   -0.558592   -1.095895
     65          1           0       -7.271209    2.162602   -1.321574
     66          6           0       -6.284664    1.701242   -1.268387
     67          7           0       -6.060536    0.411642   -1.334461
     68          6           0       -4.681544    0.306655   -1.224487
     69          6           0       -5.030041    3.921623   -1.015563
     70          7           0       -5.145178    2.454183   -1.122128
 ---------------------------------------------------------------------
 Rotational constants (GHZ):           0.1140898           0.0617197           0.0505224
 Leave Link  202 at Fri Jan 26 22:54:25 2018, MaxMem=  4294967296 cpu:               0.3 elap:               0.0
 (Enter /share/apps/g16/l301.exe)
 Standard basis: CC-pVDZ (5D, 7F)
 Ernie: Thresh=  0.10000D-02 Tol=  0.10000D-05 Strict=F.
 Ernie:  86 primitive shells out of 1081 were deleted.
 There are   780 symmetry adapted cartesian basis functions of A   symmetry.
 There are   737 symmetry adapted basis functions of A   symmetry.
   737 basis functions,  1608 primitive gaussians,   780 cartesian basis functions
   154 alpha electrons      154 beta electrons
       nuclear repulsion energy      5465.8390440494 Hartrees.
 IExCor= 4639 DFT=T Ex+Corr=wB97XD ExCW=0 ScaHFX=  1.000000
 ScaDFX=  1.000000  1.000000  1.000000  1.000000 ScalE2=  1.000000  1.000000
 IRadAn=      5 IRanWt=     -1 IRanGd=            0 ICorTp=0 IEmpDi=121
 HFx  wShort=  0.000000 wLong=  0.200000 cFull=  0.222036 cShort=  0.000000 cLong=  0.777964
 DFx  wShort=  0.000000 wLong=  0.200000 cFull=  0.000000 cShort=  0.000000 cLong=  1.000000
 NAtoms=   70 NActive=   70 NUniq=   70 SFac= 1.00D+00 NAtFMM=   60 NAOKFM=T Big=T
 Integral buffers will be    131072 words long.
 Raffenetti 2 integral format.
 Two-electron integral symmetry is turned on.
 R6Disp:  Grimme-D2 Dispersion energy=       -0.0680100812 Hartrees.
 Nuclear repulsion after empirical dispersion term =     5465.7710339682 Hartrees.
 Leave Link  301 at Fri Jan 26 22:54:25 2018, MaxMem=  4294967296 cpu:               2.1 elap:               0.1
 (Enter /share/apps/g16/l302.exe)
 NPDir=0 NMtPBC=     1 NCelOv=     1 NCel=       1 NClECP=     1 NCelD=      1
         NCelK=      1 NCelE2=     1 NClLst=     1 CellRange=     0.0.
 One-electron integrals computed using PRISM.
 One-electron integral symmetry used in STVInt
 NBasis=   737 RedAO= T EigKep=  7.21D-04  NBF=   737
 NBsUse=   737 1.00D-06 EigRej= -1.00D+00 NBFU=   737
 Precomputing XC quadrature grid using
 IXCGrd= 4 IRadAn=           5 IRanWt=          -1 IRanGd=           0 AccXCQ= 0.00D+00.
 Generated NRdTot=       0 NPtTot=           0 NUsed=           0 NTot=          32
 NSgBfM=   760   760   760   760   760 MxSgAt=    70 MxSgA2=    70.
 Leave Link  302 at Fri Jan 26 22:54:30 2018, MaxMem=  4294967296 cpu:             133.3 elap:               4.2
 (Enter /share/apps/g16/l303.exe)
 DipDrv:  MaxL=1.
 Leave Link  303 at Fri Jan 26 22:54:30 2018, MaxMem=  4294967296 cpu:              12.9 elap:               0.5
 (Enter /share/apps/g16/l401.exe)
 ExpMin= 1.22D-01 ExpMax= 1.17D+04 ExpMxC= 4.01D+02 IAcc=3 IRadAn=         5 AccDes= 0.00D+00
 Harris functional with IExCor= 4639 and IRadAn=       5 diagonalized for initial guess.
 HarFok:  IExCor= 4639 AccDes= 0.00D+00 IRadAn=         5 IDoV= 1 UseB2=F ITyADJ=14
 ICtDFT=  3500011 ScaDFX=  1.000000  1.000000  1.000000  1.000000
 FoFCou: FMM=F IPFlag=           0 FMFlag=      100000 FMFlg1=        2001
         NFxFlg=           0 DoJE=T BraDBF=F KetDBF=T FulRan=T
         wScrn=  0.000000 ICntrl=       500 IOpCl=  0 I1Cent=   200000004 NGrid=           0
         NMat0=    1 NMatS0=      1 NMatT0=    0 NMatD0=    1 NMtDS0=    0 NMtDT0=    0
 Petite list used in FoFCou.
 Harris En= -1963.88834857718    
 JPrj=0 DoOrth=F DoCkMO=F.
 Leave Link  401 at Fri Jan 26 22:54:43 2018, MaxMem=  4294967296 cpu:             397.2 elap:              12.5
 (Enter /share/apps/g16/l502.exe)
 Integral symmetry usage will be decided dynamically.
 Closed shell SCF:
 Using DIIS extrapolation, IDIIS=  1040.
 NGot=  4294967296 LenX=  4293717438 LenY=  4293108258
 Requested convergence on RMS density matrix=1.00D-08 within  20 cycles.
 Requested convergence on MAX density matrix=1.00D-06.
 Requested convergence on             energy=1.00D-06.
 No special actions if energy rises.
 Fock matrices will be formed incrementally for  20 cycles.
 Integral accuracy reduced to 1.0D-05 until final iterations.

 Cycle   1  Pass 0  IDiag  1:
 FoFJK:  IHMeth= 1 ICntrl=       0 DoSepK=T KAlg= 0 I1Cent=           0 FoldK=F
 IRaf=         1 NMat=       1 IRICut=       1 DoRegI=T DoRafI=F ISym2E= 0 IDoP0=0 IntGTp=1.
 FoFCou: FMM=T IPFlag=           0 FMFlag=      100000 FMFlg1=        2001
         NFxFlg=           0 DoJE=T BraDBF=F KetDBF=F FulRan=T
         wScrn=  0.000000 ICntrl=       500 IOpCl=  0 I1Cent=           0 NGrid=           0
         NMat0=    1 NMatS0=      1 NMatT0=    0 NMatD0=    1 NMtDS0=    0 NMtDT0=    0
 Symmetry not used in FoFCou.
 FMM levels:  10  Number of levels for PrismC:   9
 E= -2048.31572574718    
 DIIS: error= 2.71D-02 at cycle   1 NSaved=   1.
 NSaved= 1 IEnMin= 1 EnMin= -2048.31572574718     IErMin= 1 ErrMin= 2.71D-02
 ErrMax= 2.71D-02  0.00D+00 EMaxC= 1.00D-01 BMatC= 8.30D-01 BMatP= 8.30D-01
 IDIUse=3 WtCom= 7.29D-01 WtEn= 2.71D-01
 Coeff-Com:  0.100D+01
 Coeff-En:   0.100D+01
 Coeff:      0.100D+01
 Gap=     0.254 Goal=   None    Shift=    0.000
 GapD=    0.254 DampG=1.000 DampE=0.500 DampFc=0.5000 IDamp=-1.
 Damping current iteration by 5.00D-01
 RMSDP=1.54D-03 MaxDP=1.34D-01              OVMax= 2.14D-01

 Cycle   2  Pass 0  IDiag  1:
 RMSU=  7.71D-04    CP:  9.98D-01
 E= -2048.51418997254     Delta-E=       -0.198464225364 Rises=F Damp=T
 DIIS: error= 1.52D-02 at cycle   2 NSaved=   2.
 NSaved= 2 IEnMin= 2 EnMin= -2048.51418997254     IErMin= 2 ErrMin= 1.52D-02
 ErrMax= 1.52D-02  0.00D+00 EMaxC= 1.00D-01 BMatC= 1.44D-01 BMatP= 8.30D-01
 IDIUse=3 WtCom= 8.48D-01 WtEn= 1.52D-01
 Coeff-Com: -0.205D+00 0.120D+01
 Coeff-En:   0.000D+00 0.100D+01
 Coeff:     -0.174D+00 0.117D+01
 Gap=     0.287 Goal=   None    Shift=    0.000
 RMSDP=5.78D-04 MaxDP=3.62D-02 DE=-1.98D-01 OVMax= 1.60D-01

 Cycle   3  Pass 0  IDiag  1:
 RMSU=  5.60D-04    CP:  9.94D-01  1.17D+00
 E= -2048.69685251671     Delta-E=       -0.182662544165 Rises=F Damp=F
 DIIS: error= 1.03D-02 at cycle   3 NSaved=   3.
 NSaved= 3 IEnMin= 3 EnMin= -2048.69685251671     IErMin= 3 ErrMin= 1.03D-02
 ErrMax= 1.03D-02  0.00D+00 EMaxC= 1.00D-01 BMatC= 5.83D-02 BMatP= 1.44D-01
 IDIUse=3 WtCom= 8.97D-01 WtEn= 1.03D-01
 Coeff-Com: -0.228D+00 0.539D+00 0.689D+00
 Coeff-En:   0.000D+00 0.000D+00 0.100D+01
 Coeff:     -0.205D+00 0.483D+00 0.721D+00
 Gap=     0.278 Goal=   None    Shift=    0.000
 RMSDP=3.38D-04 MaxDP=3.66D-02 DE=-1.83D-01 OVMax= 7.62D-02

 Cycle   4  Pass 0  IDiag  1:
 RMSU=  1.95D-04    CP:  9.94D-01  1.44D+00  6.78D-01
 E= -2048.73946106964     Delta-E=       -0.042608552931 Rises=F Damp=F
 DIIS: error= 4.47D-03 at cycle   4 NSaved=   4.
 NSaved= 4 IEnMin= 4 EnMin= -2048.73946106964     IErMin= 4 ErrMin= 4.47D-03
 ErrMax= 4.47D-03  0.00D+00 EMaxC= 1.00D-01 BMatC= 9.57D-03 BMatP= 5.83D-02
 IDIUse=3 WtCom= 9.55D-01 WtEn= 4.47D-02
 Coeff-Com: -0.900D-01 0.174D+00 0.388D+00 0.528D+00
 Coeff-En:   0.000D+00 0.000D+00 0.846D-01 0.915D+00
 Coeff:     -0.860D-01 0.166D+00 0.374D+00 0.546D+00
 Gap=     0.281 Goal=   None    Shift=    0.000
 RMSDP=1.26D-04 MaxDP=1.45D-02 DE=-4.26D-02 OVMax= 1.72D-02

 Cycle   5  Pass 0  IDiag  1:
 RMSU=  6.20D-05    CP:  9.94D-01  1.41D+00  8.18D-01  6.21D-01
 E= -2048.74697391036     Delta-E=       -0.007512840720 Rises=F Damp=F
 DIIS: error= 8.15D-04 at cycle   5 NSaved=   5.
 NSaved= 5 IEnMin= 5 EnMin= -2048.74697391036     IErMin= 5 ErrMin= 8.15D-04
 ErrMax= 8.15D-04  0.00D+00 EMaxC= 1.00D-01 BMatC= 3.26D-04 BMatP= 9.57D-03
 IDIUse=3 WtCom= 9.92D-01 WtEn= 8.15D-03
 Coeff-Com: -0.230D-01 0.389D-01 0.128D+00 0.251D+00 0.606D+00
 Coeff-En:   0.000D+00 0.000D+00 0.000D+00 0.000D+00 0.100D+01
 Coeff:     -0.228D-01 0.386D-01 0.126D+00 0.249D+00 0.609D+00
 Gap=     0.281 Goal=   None    Shift=    0.000
 RMSDP=2.52D-05 MaxDP=3.02D-03 DE=-7.51D-03 OVMax= 4.26D-03

 Failed to achieve initial convergence to 1.0D-08 in  6 cycles.
 Switch to full accuracy anyway.
 Cycle   6  Pass 1  IDiag  1:
 E= -2048.74726653645     Delta-E=       -0.000292626091 Rises=F Damp=F
 DIIS: error= 2.19D-04 at cycle   1 NSaved=   1.
 NSaved= 1 IEnMin= 1 EnMin= -2048.74726653645     IErMin= 1 ErrMin= 2.19D-04
 ErrMax= 2.19D-04  0.00D+00 EMaxC= 1.00D-01 BMatC= 7.79D-05 BMatP= 7.79D-05
 IDIUse=3 WtCom= 9.98D-01 WtEn= 2.19D-03
 Coeff-Com:  0.100D+01
 Coeff-En:   0.100D+01
 Coeff:      0.100D+01
 Gap=     0.281 Goal=   None    Shift=    0.000
 RMSDP=2.52D-05 MaxDP=3.02D-03 DE=-2.93D-04 OVMax= 2.29D-03

 Cycle   7  Pass 1  IDiag  1:
 RMSU=  1.14D-04    CP:  1.00D+00
 E= -2048.74731786841     Delta-E=       -0.000051331964 Rises=F Damp=F
 DIIS: error= 3.44D-04 at cycle   2 NSaved=   2.
 NSaved= 2 IEnMin= 2 EnMin= -2048.74731786841     IErMin= 1 ErrMin= 2.19D-04
 ErrMax= 3.44D-04  0.00D+00 EMaxC= 1.00D-01 BMatC= 5.32D-05 BMatP= 7.79D-05
 IDIUse=3 WtCom= 9.97D-01 WtEn= 3.44D-03
 Coeff-Com:  0.437D+00 0.563D+00
 Coeff-En:   0.576D-01 0.942D+00
 Coeff:      0.436D+00 0.564D+00
 Gap=     0.281 Goal=   None    Shift=    0.000
 RMSDP=1.12D-05 MaxDP=1.68D-03 DE=-5.13D-05 OVMax= 1.88D-03

 Cycle   8  Pass 1  IDiag  1:
 RMSU=  1.09D-05    CP:  1.00D+00  1.02D+00
 E= -2048.74735450298     Delta-E=       -0.000036634566 Rises=F Damp=F
 DIIS: error= 1.37D-04 at cycle   3 NSaved=   3.
 NSaved= 3 IEnMin= 3 EnMin= -2048.74735450298     IErMin= 3 ErrMin= 1.37D-04
 ErrMax= 1.37D-04  0.00D+00 EMaxC= 1.00D-01 BMatC= 1.05D-05 BMatP= 5.32D-05
 IDIUse=3 WtCom= 9.99D-01 WtEn= 1.37D-03
 Coeff-Com: -0.190D-01 0.295D+00 0.724D+00
 Coeff-En:   0.000D+00 0.114D+00 0.886D+00
 Coeff:     -0.189D-01 0.295D+00 0.724D+00
 Gap=     0.281 Goal=   None    Shift=    0.000
 RMSDP=5.65D-06 MaxDP=5.95D-04 DE=-3.66D-05 OVMax= 5.45D-04

 Cycle   9  Pass 1  IDiag  1:
 RMSU=  3.73D-06    CP:  1.00D+00  1.05D+00  7.70D-01
 E= -2048.74736362899     Delta-E=       -0.000009126014 Rises=F Damp=F
 DIIS: error= 3.48D-05 at cycle   4 NSaved=   4.
 NSaved= 4 IEnMin= 4 EnMin= -2048.74736362899     IErMin= 4 ErrMin= 3.48D-05
 ErrMax= 3.48D-05  0.00D+00 EMaxC= 1.00D-01 BMatC= 4.59D-07 BMatP= 1.05D-05
 IDIUse=1 WtCom= 1.00D+00 WtEn= 0.00D+00
 Coeff-Com: -0.306D-01 0.815D-01 0.259D+00 0.690D+00
 Coeff:     -0.306D-01 0.815D-01 0.259D+00 0.690D+00
 Gap=     0.281 Goal=   None    Shift=    0.000
 RMSDP=1.36D-06 MaxDP=1.39D-04 DE=-9.13D-06 OVMax= 4.80D-04

 Cycle  10  Pass 1  IDiag  1:
 RMSU=  1.21D-06    CP:  1.00D+00  1.06D+00  7.97D-01  1.11D+00
 E= -2048.74736439240     Delta-E=       -0.000000763407 Rises=F Damp=F
 DIIS: error= 1.30D-05 at cycle   5 NSaved=   5.
 NSaved= 5 IEnMin= 5 EnMin= -2048.74736439240     IErMin= 5 ErrMin= 1.30D-05
 ErrMax= 1.30D-05  0.00D+00 EMaxC= 1.00D-01 BMatC= 1.01D-07 BMatP= 4.59D-07
 IDIUse=1 WtCom= 1.00D+00 WtEn= 0.00D+00
 Coeff-Com: -0.226D-02-0.491D-01-0.124D+00 0.177D+00 0.998D+00
 Coeff:     -0.226D-02-0.491D-01-0.124D+00 0.177D+00 0.998D+00
 Gap=     0.281 Goal=   None    Shift=    0.000
 RMSDP=1.14D-06 MaxDP=7.15D-05 DE=-7.63D-07 OVMax= 2.27D-04

 Cycle  11  Pass 1  IDiag  1:
 RMSU=  4.68D-07    CP:  1.00D+00  1.06D+00  8.00D-01  1.38D+00  1.18D+00
 E= -2048.74736461525     Delta-E=       -0.000000222851 Rises=F Damp=F
 DIIS: error= 1.07D-05 at cycle   6 NSaved=   6.
 NSaved= 6 IEnMin= 6 EnMin= -2048.74736461525     IErMin= 6 ErrMin= 1.07D-05
 ErrMax= 1.07D-05  0.00D+00 EMaxC= 1.00D-01 BMatC= 2.67D-08 BMatP= 1.01D-07
 IDIUse=1 WtCom= 1.00D+00 WtEn= 0.00D+00
 Coeff-Com:  0.465D-02-0.398D-01-0.113D+00-0.128D-01 0.538D+00 0.624D+00
 Coeff:      0.465D-02-0.398D-01-0.113D+00-0.128D-01 0.538D+00 0.624D+00
 Gap=     0.281 Goal=   None    Shift=    0.000
 RMSDP=3.42D-07 MaxDP=3.71D-05 DE=-2.23D-07 OVMax= 1.18D-04

 Cycle  12  Pass 1  IDiag  1:
 RMSU=  1.79D-07    CP:  1.00D+00  1.06D+00  8.01D-01  1.44D+00  1.31D+00
                    CP:  9.10D-01
 E= -2048.74736465212     Delta-E=       -0.000000036874 Rises=F Damp=F
 DIIS: error= 1.22D-06 at cycle   7 NSaved=   7.
 NSaved= 7 IEnMin= 7 EnMin= -2048.74736465212     IErMin= 7 ErrMin= 1.22D-06
 ErrMax= 1.22D-06  0.00D+00 EMaxC= 1.00D-01 BMatC= 7.68D-10 BMatP= 2.67D-08
 IDIUse=1 WtCom= 1.00D+00 WtEn= 0.00D+00
 Coeff-Com:  0.111D-02-0.658D-02-0.207D-01-0.918D-02 0.620D-01 0.144D+00
 Coeff-Com:  0.830D+00
 Coeff:      0.111D-02-0.658D-02-0.207D-01-0.918D-02 0.620D-01 0.144D+00
 Coeff:      0.830D+00
 Gap=     0.281 Goal=   None    Shift=    0.000
 RMSDP=7.77D-08 MaxDP=5.18D-06 DE=-3.69D-08 OVMax= 2.14D-05

 Cycle  13  Pass 1  IDiag  1:
 RMSU=  4.80D-08    CP:  1.00D+00  1.06D+00  8.01D-01  1.45D+00  1.33D+00
                    CP:  9.96D-01  1.12D+00
 E= -2048.74736465375     Delta-E=       -0.000000001627 Rises=F Damp=F
 DIIS: error= 5.78D-07 at cycle   8 NSaved=   8.
 NSaved= 8 IEnMin= 8 EnMin= -2048.74736465375     IErMin= 8 ErrMin= 5.78D-07
 ErrMax= 5.78D-07  0.00D+00 EMaxC= 1.00D-01 BMatC= 2.79D-10 BMatP= 7.68D-10
 IDIUse=1 WtCom= 1.00D+00 WtEn= 0.00D+00
 Coeff-Com: -0.705D-03 0.760D-02 0.201D-01 0.829D-03-0.115D+00-0.935D-01
 Coeff-Com:  0.398D+00 0.782D+00
 Coeff:     -0.705D-03 0.760D-02 0.201D-01 0.829D-03-0.115D+00-0.935D-01
 Coeff:      0.398D+00 0.782D+00
 Gap=     0.281 Goal=   None    Shift=    0.000
 RMSDP=4.57D-08 MaxDP=2.79D-06 DE=-1.63D-09 OVMax= 1.12D-05

 Cycle  14  Pass 1  IDiag  1:
 RMSU=  2.61D-08    CP:  1.00D+00  1.06D+00  8.00D-01  1.45D+00  1.34D+00
                    CP:  1.04D+00  1.27D+00  1.11D+00
 E= -2048.74736465441     Delta-E=       -0.000000000663 Rises=F Damp=F
 DIIS: error= 2.17D-07 at cycle   9 NSaved=   9.
 NSaved= 9 IEnMin= 9 EnMin= -2048.74736465441     IErMin= 9 ErrMin= 2.17D-07
 ErrMax= 2.17D-07  0.00D+00 EMaxC= 1.00D-01 BMatC= 2.72D-11 BMatP= 2.79D-10
 IDIUse=1 WtCom= 1.00D+00 WtEn= 0.00D+00
 Coeff-Com: -0.415D-03 0.392D-02 0.107D-01 0.172D-02-0.536D-01-0.539D-01
 Coeff-Com:  0.757D-01 0.310D+00 0.706D+00
 Coeff:     -0.415D-03 0.392D-02 0.107D-01 0.172D-02-0.536D-01-0.539D-01
 Coeff:      0.757D-01 0.310D+00 0.706D+00
 Gap=     0.281 Goal=   None    Shift=    0.000
 RMSDP=1.25D-08 MaxDP=7.84D-07 DE=-6.63D-10 OVMax= 3.33D-06

 Cycle  15  Pass 1  IDiag  1:
 RMSU=  8.61D-09    CP:  1.00D+00  1.06D+00  8.00D-01  1.45D+00  1.34D+00
                    CP:  1.04D+00  1.29D+00  1.25D+00  1.11D+00
 E= -2048.74736465438     Delta-E=        0.000000000034 Rises=F Damp=F
 DIIS: error= 5.87D-08 at cycle  10 NSaved=  10.
 NSaved=10 IEnMin= 9 EnMin= -2048.74736465441     IErMin=10 ErrMin= 5.87D-08
 ErrMax= 5.87D-08  0.00D+00 EMaxC= 1.00D-01 BMatC= 4.73D-12 BMatP= 2.72D-11
 IDIUse=1 WtCom= 1.00D+00 WtEn= 0.00D+00
 Coeff-Com:  0.980D-05-0.321D-03-0.710D-03 0.657D-04 0.598D-02 0.150D-02
 Coeff-Com: -0.583D-01-0.654D-01 0.263D+00 0.854D+00
 Coeff:      0.980D-05-0.321D-03-0.710D-03 0.657D-04 0.598D-02 0.150D-02
 Coeff:     -0.583D-01-0.654D-01 0.263D+00 0.854D+00
 Gap=     0.281 Goal=   None    Shift=    0.000
 RMSDP=6.78D-09 MaxDP=3.94D-07 DE= 3.37D-11 OVMax= 1.49D-06

 SCF Done:  E(RwB97XD) =  -2048.74736465     A.U. after   15 cycles
            NFock= 15  Conv=0.68D-08     -V/T= 2.0054
 KE= 2.037689502680D+03 PE=-1.571233571136D+04 EE= 6.160127810059D+03
 Leave Link  502 at Fri Jan 26 23:05:45 2018, MaxMem=  4294967296 cpu:           20482.0 elap:             662.3
 (Enter /share/apps/g16/l601.exe)
 Copying SCF densities to generalized density rwf, IOpCl= 0 IROHF=0.

 **********************************************************************

            Population analysis using the SCF density.

 **********************************************************************

 Orbital symmetries:
       Occupied  (A) (A) (A) (A) (A) (A) (A) (A) (A) (A) (A) (A)
                 (A) (A) (A) (A) (A) (A) (A) (A) (A) (A) (A) (A)
                 (A) (A) (A) (A) (A) (A) (A) (A) (A) (A) (A) (A)
                 (A) (A) (A) (A) (A) (A) (A) (A) (A) (A) (A) (A)
                 (A) (A) (A) (A) (A) (A) (A) (A) (A) (A) (A) (A)
                 (A) (A) (A) (A) (A) (A) (A) (A) (A) (A) (A) (A)
                 (A) (A) (A) (A) (A) (A) (A) (A) (A) (A) (A) (A)
                 (A) (A) (A) (A) (A) (A) (A) (A) (A) (A) (A) (A)
                 (A) (A) (A) (A) (A) (A) (A) (A) (A) (A) (A) (A)
                 (A) (A) (A) (A) (A) (A) (A) (A) (A) (A) (A) (A)
                 (A) (A) (A) (A) (A) (A) (A) (A) (A) (A) (A) (A)
                 (A) (A) (A) (A) (A) (A) (A) (A) (A) (A) (A) (A)
                 (A) (A) (A) (A) (A) (A) (A) (A) (A) (A)
       Virtual   (A) (A) (A) (A) (A) (A) (A) (A) (A) (A) (A) (A)
                 (A) (A) (A) (A) (A) (A) (A) (A) (A) (A) (A) (A)
                 (A) (A) (A) (A) (A) (A) (A) (A) (A) (A) (A) (A)
                 (A) (A) (A) (A) (A) (A) (A) (A) (A) (A) (A) (A)
                 (A) (A) (A) (A) (A) (A) (A) (A) (A) (A) (A) (A)
                 (A) (A) (A) (A) (A) (A) (A) (A) (A) (A) (A) (A)
                 (A) (A) (A) (A) (A) (A) (A) (A) (A) (A) (A) (A)
                 (A) (A) (A) (A) (A) (A) (A) (A) (A) (A) (A) (A)
                 (A) (A) (A) (A) (A) (A) (A) (A) (A) (A) (A) (A)
                 (A) (A) (A) (A) (A) (A) (A) (A) (A) (A) (A) (A)
                 (A) (A) (A) (A) (A) (A) (A) (A) (A) (A) (A) (A)
                 (A) (A) (A) (A) (A) (A) (A) (A) (A) (A) (A) (A)
                 (A) (A) (A) (A) (A) (A) (A) (A) (A) (A) (A) (A)
                 (A) (A) (A) (A) (A) (A) (A) (A) (A) (A) (A) (A)
                 (A) (A) (A) (A) (A) (A) (A) (A) (A) (A) (A) (A)
                 (A) (A) (A) (A) (A) (A) (A) (A) (A) (A) (A) (A)
                 (A) (A) (A) (A) (A) (A) (A) (A) (A) (A) (A) (A)
                 (A) (A) (A) (A) (A) (A) (A) (A) (A) (A) (A) (A)
                 (A) (A) (A) (A) (A) (A) (A) (A) (A) (A) (A) (A)
                 (A) (A) (A) (A) (A) (A) (A) (A) (A) (A) (A) (A)
                 (A) (A) (A) (A) (A) (A) (A) (A) (A) (A) (A) (A)
                 (A) (A) (A) (A) (A) (A) (A) (A) (A) (A) (A) (A)
                 (A) (A) (A) (A) (A) (A) (A) (A) (A) (A) (A) (A)
                 (A) (A) (A) (A) (A) (A) (A) (A) (A) (A) (A) (A)
                 (A) (A) (A) (A) (A) (A) (A) (A) (A) (A) (A) (A)
                 (A) (A) (A) (A) (A) (A) (A) (A) (A) (A) (A) (A)
                 (A) (A) (A) (A) (A) (A) (A) (A) (A) (A) (A) (A)
                 (A) (A) (A) (A) (A) (A) (A) (A) (A) (A) (A) (A)
                 (A) (A) (A) (A) (A) (A) (A) (A) (A) (A) (A) (A)
                 (A) (A) (A) (A) (A) (A) (A) (A) (A) (A) (A) (A)
                 (A) (A) (A) (A) (A) (A) (A) (A) (A) (A) (A) (A)
                 (A) (A) (A) (A) (A) (A) (A) (A) (A) (A) (A) (A)
                 (A) (A) (A) (A) (A) (A) (A) (A) (A) (A) (A) (A)
                 (A) (A) (A) (A) (A) (A) (A) (A) (A) (A) (A) (A)
                 (A) (A) (A) (A) (A) (A) (A) (A) (A) (A) (A) (A)
                 (A) (A) (A) (A) (A) (A) (A) (A) (A) (A) (A) (A)
                 (A) (A) (A) (A) (A) (A) (A) (A) (A) (A) (A) (A)
                 (A) (A) (A) (A) (A) (A) (A) (A) (A) (A) (A) (A)
                 (A) (A) (A) (A) (A) (A) (A) (A) (A) (A) (A) (A)
                 (A) (A) (A) (A) (A) (A) (A) (A) (A) (A) (A) (A)
                 (A) (A) (A) (A) (A) (A) (A) (A) (A) (A) (A) (A)
                 (A) (A) (A) (A) (A) (A) (A) (A) (A) (A) (A) (A)
                 (A) (A) (A) (A) (A) (A) (A) (A) (A) (A) (A) (A)
                 (A) (A) (A) (A) (A) (A) (A) (A) (A) (A) (A) (A)
                 (A) (A) (A) (A) (A) (A) (A) (A) (A) (A) (A) (A)
                 (A) (A) (A) (A) (A) (A) (A) (A) (A) (A) (A) (A)
                 (A) (A) (A) (A) (A) (A) (A) (A) (A) (A) (A) (A)
                 (A) (A) (A) (A) (A) (A) (A) (A) (A) (A) (A) (A)
                 (A) (A) (A) (A) (A) (A) (A)
 The electronic state is 1-A.
 Alpha  occ. eigenvalues --  -19.25173 -19.21316 -19.20360 -14.52734 -14.51908
 Alpha  occ. eigenvalues --  -14.49279 -14.48679 -14.48142 -14.47181 -14.46487
 Alpha  occ. eigenvalues --  -14.45990 -14.45647 -14.45071 -14.45043 -14.42972
 Alpha  occ. eigenvalues --  -14.41767 -14.40883 -14.40754 -14.40619 -14.40322
 Alpha  occ. eigenvalues --  -10.44838 -10.40860 -10.40683 -10.39442 -10.38221
 Alpha  occ. eigenvalues --  -10.37957 -10.37692 -10.37432 -10.36498 -10.35552
 Alpha  occ. eigenvalues --  -10.34551 -10.34155 -10.34146 -10.33598 -10.33224
 Alpha  occ. eigenvalues --  -10.33144 -10.32947 -10.32815 -10.30916 -10.30752
 Alpha  occ. eigenvalues --  -10.30129 -10.28246 -10.27894  -1.18817  -1.15518
 Alpha  occ. eigenvalues --   -1.12908  -1.12332  -1.10809  -1.10412  -1.10037
 Alpha  occ. eigenvalues --   -1.08773  -1.08209  -1.05607  -1.05029  -1.01826
 Alpha  occ. eigenvalues --   -1.01315  -1.00544  -0.99240  -0.98283  -0.97569
 Alpha  occ. eigenvalues --   -0.96532  -0.96436  -0.92705  -0.90621  -0.88071
 Alpha  occ. eigenvalues --   -0.86236  -0.83937  -0.83473  -0.83071  -0.82376
 Alpha  occ. eigenvalues --   -0.81801  -0.78385  -0.77576  -0.75435  -0.74395
 Alpha  occ. eigenvalues --   -0.73231  -0.72786  -0.72756  -0.71022  -0.70799
 Alpha  occ. eigenvalues --   -0.67489  -0.66979  -0.66189  -0.66004  -0.64811
 Alpha  occ. eigenvalues --   -0.64137  -0.63432  -0.62655  -0.62387  -0.61378
 Alpha  occ. eigenvalues --   -0.61049  -0.60717  -0.60162  -0.59788  -0.59222
 Alpha  occ. eigenvalues --   -0.59065  -0.57859  -0.56685  -0.56392  -0.55741
 Alpha  occ. eigenvalues --   -0.55617  -0.55577  -0.55523  -0.54875  -0.54110
 Alpha  occ. eigenvalues --   -0.53913  -0.53487  -0.53307  -0.53153  -0.52731
 Alpha  occ. eigenvalues --   -0.52636  -0.51919  -0.51296  -0.50414  -0.50312
 Alpha  occ. eigenvalues --   -0.49925  -0.49802  -0.49623  -0.48946  -0.48738
 Alpha  occ. eigenvalues --   -0.48521  -0.47941  -0.47778  -0.47511  -0.46988
 Alpha  occ. eigenvalues --   -0.46582  -0.45687  -0.45393  -0.44348  -0.43450
 Alpha  occ. eigenvalues --   -0.41243  -0.41031  -0.38895  -0.38257  -0.38083
 Alpha  occ. eigenvalues --   -0.37211  -0.37046  -0.36592  -0.35528  -0.35106
 Alpha  occ. eigenvalues --   -0.34973  -0.33727  -0.33263  -0.33158  -0.32669
 Alpha  occ. eigenvalues --   -0.32348  -0.32296  -0.31671  -0.31465  -0.30733
 Alpha  occ. eigenvalues --   -0.30511  -0.30167  -0.25993  -0.24966
 Alpha virt. eigenvalues --    0.03140   0.03878   0.06391   0.08054   0.09097
 Alpha virt. eigenvalues --    0.09552   0.09973   0.10306   0.11141   0.11270
 Alpha virt. eigenvalues --    0.13200   0.14329   0.14654   0.14937   0.15246
 Alpha virt. eigenvalues --    0.15519   0.16626   0.16889   0.17280   0.17641
 Alpha virt. eigenvalues --    0.18863   0.19729   0.19995   0.20233   0.20519
 Alpha virt. eigenvalues --    0.20649   0.20831   0.21136   0.21509   0.21708
 Alpha virt. eigenvalues --    0.22227   0.23215   0.23803   0.23967   0.24002
 Alpha virt. eigenvalues --    0.24452   0.24511   0.24569   0.24858   0.25024
 Alpha virt. eigenvalues --    0.25357   0.25767   0.27477   0.28019   0.28504
 Alpha virt. eigenvalues --    0.28728   0.29119   0.29826   0.30383   0.30956
 Alpha virt. eigenvalues --    0.31641   0.32075   0.32382   0.33195   0.33549
 Alpha virt. eigenvalues --    0.34195   0.34475   0.35083   0.35549   0.36479
 Alpha virt. eigenvalues --    0.36780   0.37078   0.37972   0.38733   0.39065
 Alpha virt. eigenvalues --    0.39426   0.40405   0.40748   0.41519   0.41896
 Alpha virt. eigenvalues --    0.42221   0.42803   0.43166   0.44072   0.44421
 Alpha virt. eigenvalues --    0.44669   0.45610   0.45868   0.46658   0.46818
 Alpha virt. eigenvalues --    0.47632   0.47875   0.48741   0.49221   0.49504
 Alpha virt. eigenvalues --    0.49903   0.50300   0.50510   0.50811   0.51265
 Alpha virt. eigenvalues --    0.51602   0.52036   0.52675   0.53109   0.53545
 Alpha virt. eigenvalues --    0.53869   0.54077   0.54600   0.55227   0.55457
 Alpha virt. eigenvalues --    0.56067   0.56233   0.56677   0.56992   0.57399
 Alpha virt. eigenvalues --    0.57779   0.58181   0.58793   0.59062   0.59528
 Alpha virt. eigenvalues --    0.60013   0.60375   0.60406   0.60810   0.61045
 Alpha virt. eigenvalues --    0.61482   0.61759   0.61919   0.62336   0.62857
 Alpha virt. eigenvalues --    0.62980   0.63565   0.63925   0.65066   0.65366
 Alpha virt. eigenvalues --    0.65795   0.66294   0.66506   0.66851   0.66908
 Alpha virt. eigenvalues --    0.67177   0.67939   0.68281   0.68893   0.69375
 Alpha virt. eigenvalues --    0.69578   0.70083   0.70407   0.70711   0.71158
 Alpha virt. eigenvalues --    0.71890   0.72241   0.72725   0.73063   0.73476
 Alpha virt. eigenvalues --    0.74148   0.74231   0.74596   0.75154   0.75339
 Alpha virt. eigenvalues --    0.75872   0.76242   0.76317   0.76766   0.76867
 Alpha virt. eigenvalues --    0.77332   0.77585   0.78258   0.78561   0.79034
 Alpha virt. eigenvalues --    0.79329   0.79863   0.80107   0.80355   0.80630
 Alpha virt. eigenvalues --    0.80798   0.81328   0.81409   0.82097   0.82560
 Alpha virt. eigenvalues --    0.82788   0.83808   0.84328   0.84840   0.85428
 Alpha virt. eigenvalues --    0.85749   0.86281   0.86735   0.86999   0.87674
 Alpha virt. eigenvalues --    0.87881   0.88278   0.88916   0.89017   0.89620
 Alpha virt. eigenvalues --    0.89950   0.90919   0.91706   0.91997   0.92391
 Alpha virt. eigenvalues --    0.92482   0.92895   0.93460   0.94058   0.94519
 Alpha virt. eigenvalues --    0.94718   0.95198   0.95528   0.95577   0.96281
 Alpha virt. eigenvalues --    0.96555   0.97304   0.97843   0.98435   0.98784
 Alpha virt. eigenvalues --    0.99062   0.99721   1.00031   1.00623   1.01035
 Alpha virt. eigenvalues --    1.01235   1.01324   1.01944   1.02204   1.02548
 Alpha virt. eigenvalues --    1.02803   1.03855   1.04053   1.04762   1.05034
 Alpha virt. eigenvalues --    1.05617   1.06039   1.06356   1.06880   1.07322
 Alpha virt. eigenvalues --    1.07899   1.08100   1.09084   1.10049   1.10304
 Alpha virt. eigenvalues --    1.11294   1.11508   1.12389   1.12732   1.12928
 Alpha virt. eigenvalues --    1.13365   1.14166   1.14649   1.15279   1.15547
 Alpha virt. eigenvalues --    1.15955   1.16023   1.16470   1.17150   1.17601
 Alpha virt. eigenvalues --    1.17824   1.18154   1.18632   1.19369   1.19523
 Alpha virt. eigenvalues --    1.19908   1.20094   1.20623   1.20790   1.21198
 Alpha virt. eigenvalues --    1.21527   1.22370   1.22523   1.23043   1.23197
 Alpha virt. eigenvalues --    1.23587   1.23920   1.24139   1.24488   1.25123
 Alpha virt. eigenvalues --    1.25792   1.26581   1.26829   1.26958   1.27769
 Alpha virt. eigenvalues --    1.28365   1.29044   1.29279   1.29920   1.30382
 Alpha virt. eigenvalues --    1.31058   1.32619   1.33105   1.33612   1.33729
 Alpha virt. eigenvalues --    1.34073   1.35112   1.35310   1.35531   1.36247
 Alpha virt. eigenvalues --    1.36922   1.37350   1.38439   1.38561   1.40097
 Alpha virt. eigenvalues --    1.41090   1.42006   1.42584   1.42980   1.43784
 Alpha virt. eigenvalues --    1.44843   1.45866   1.46008   1.47385   1.47707
 Alpha virt. eigenvalues --    1.48193   1.48723   1.49204   1.49885   1.50191
 Alpha virt. eigenvalues --    1.51472   1.51898   1.52706   1.53090   1.54564
 Alpha virt. eigenvalues --    1.55395   1.56099   1.56189   1.56985   1.57514
 Alpha virt. eigenvalues --    1.58541   1.58715   1.59148   1.59699   1.60128
 Alpha virt. eigenvalues --    1.60957   1.61799   1.62728   1.62766   1.63305
 Alpha virt. eigenvalues --    1.63680   1.64151   1.64672   1.65355   1.66411
 Alpha virt. eigenvalues --    1.66928   1.67194   1.68236   1.68327   1.68515
 Alpha virt. eigenvalues --    1.69122   1.69414   1.69579   1.70236   1.71019
 Alpha virt. eigenvalues --    1.71696   1.72133   1.72967   1.73193   1.73310
 Alpha virt. eigenvalues --    1.73540   1.74186   1.74767   1.74953   1.75437
 Alpha virt. eigenvalues --    1.75752   1.75961   1.76218   1.76530   1.77098
 Alpha virt. eigenvalues --    1.77363   1.77670   1.77965   1.78003   1.78553
 Alpha virt. eigenvalues --    1.78988   1.79300   1.79546   1.79963   1.80403
 Alpha virt. eigenvalues --    1.80604   1.80989   1.81287   1.81370   1.81445
 Alpha virt. eigenvalues --    1.81853   1.82612   1.82887   1.83596   1.84056
 Alpha virt. eigenvalues --    1.84526   1.85313   1.85771   1.86227   1.86680
 Alpha virt. eigenvalues --    1.87255   1.87461   1.88173   1.88344   1.88730
 Alpha virt. eigenvalues --    1.89160   1.89569   1.90121   1.90229   1.91187
 Alpha virt. eigenvalues --    1.91570   1.91843   1.92730   1.93101   1.93382
 Alpha virt. eigenvalues --    1.94139   1.94379   1.94760   1.95945   1.96886
 Alpha virt. eigenvalues --    1.97806   1.98437   1.99485   1.99832   2.00427
 Alpha virt. eigenvalues --    2.01126   2.01720   2.02330   2.02760   2.03805
 Alpha virt. eigenvalues --    2.04440   2.04863   2.05401   2.05947   2.06180
 Alpha virt. eigenvalues --    2.06707   2.08455   2.09009   2.09229   2.09400
 Alpha virt. eigenvalues --    2.09908   2.10649   2.11055   2.12247   2.12869
 Alpha virt. eigenvalues --    2.12986   2.14317   2.14922   2.15262   2.16643
 Alpha virt. eigenvalues --    2.17293   2.19092   2.19725   2.20586   2.20905
 Alpha virt. eigenvalues --    2.21291   2.21677   2.22729   2.23042   2.23570
 Alpha virt. eigenvalues --    2.24335   2.24747   2.25375   2.25446   2.26151
 Alpha virt. eigenvalues --    2.27177   2.27600   2.28119   2.29598   2.29906
 Alpha virt. eigenvalues --    2.30281   2.30711   2.31089   2.31632   2.32331
 Alpha virt. eigenvalues --    2.33003   2.33363   2.34035   2.34251   2.34574
 Alpha virt. eigenvalues --    2.34961   2.35574   2.36130   2.36570   2.36939
 Alpha virt. eigenvalues --    2.37593   2.38438   2.38992   2.40011   2.40991
 Alpha virt. eigenvalues --    2.41750   2.42319   2.42644   2.43428   2.43837
 Alpha virt. eigenvalues --    2.44635   2.44778   2.45227   2.45573   2.46254
 Alpha virt. eigenvalues --    2.47073   2.48253   2.50239   2.50874   2.51684
 Alpha virt. eigenvalues --    2.52271   2.52623   2.54430   2.55366   2.55907
 Alpha virt. eigenvalues --    2.56790   2.57180   2.57916   2.58466   2.60305
 Alpha virt. eigenvalues --    2.60525   2.61762   2.62217   2.63095   2.63793
 Alpha virt. eigenvalues --    2.64158   2.64660   2.64886   2.65526   2.65787
 Alpha virt. eigenvalues --    2.66258   2.66988   2.67841   2.68853   2.69333
 Alpha virt. eigenvalues --    2.69751   2.69886   2.70121   2.71242   2.71754
 Alpha virt. eigenvalues --    2.72348   2.74351   2.75055   2.76042   2.76329
 Alpha virt. eigenvalues --    2.76660   2.76970   2.77885   2.78959   2.79365
 Alpha virt. eigenvalues --    2.79955   2.80021   2.80300   2.80545   2.80899
 Alpha virt. eigenvalues --    2.81616   2.82172   2.82576   2.83182   2.83834
 Alpha virt. eigenvalues --    2.84376   2.85633   2.86116   2.86931   2.87107
 Alpha virt. eigenvalues --    2.87313   2.88117   2.89506   2.91446   2.93633
 Alpha virt. eigenvalues --    2.94333   2.94990   2.96530   2.97519   2.99193
 Alpha virt. eigenvalues --    2.99734   3.00805   3.01699   3.04156   3.04883
 Alpha virt. eigenvalues --    3.06621   3.08572   3.10648   3.12909   3.14795
 Alpha virt. eigenvalues --    3.15420   3.15954   3.16910   3.18264   3.20086
 Alpha virt. eigenvalues --    3.20423   3.22853   3.23886   3.24565   3.25590
 Alpha virt. eigenvalues --    3.43923   3.47148   3.48034   3.48690   3.50907
 Alpha virt. eigenvalues --    3.52965   3.54790   3.56576   3.58123   3.60557
 Alpha virt. eigenvalues --    3.63928   3.71038   3.75131
          Condensed to atoms (all electrons):
 Mulliken charges:
               1
     1  N   -0.314153
     2  C    0.184266
     3  C    0.056104
     4  N   -0.261568
     5  C    0.142230
     6  H    0.027008
     7  N   -0.291085
     8  C    0.126184
     9  H    0.015428
    10  N   -0.274201
    11  C    0.264432
    12  C    0.091616
    13  N   -0.071767
    14  H    0.109165
    15  H    0.081618
    16  H    0.020269
    17  H    0.034315
    18  H    0.031664
    19  N   -0.310603
    20  C    0.245329
    21  C    0.180697
    22  N   -0.106457
    23  H    0.112206
    24  H    0.113912
    25  N   -0.310203
    26  C    0.232288
    27  N   -0.131576
    28  H    0.112544
    29  C    0.178275
    30  O   -0.322022
    31  C   -0.006787
    32  N   -0.227259
    33  C    0.126205
    34  H    0.021904
    35  H    0.027180
    36  H    0.028819
    37  H    0.024428
    38  H    0.049670
    39  H    0.059271
    40  H    0.074930
    41  H    0.029611
    42  C   -0.114574
    43  O   -0.256856
    44  C    0.173429
    45  H    0.136404
    46  N   -0.128427
    47  O   -0.345231
    48  C    0.354570
    49  H    0.042569
    50  C    0.160070
    51  C    0.042231
    52  N   -0.284816
    53  H    0.035394
    54  H    0.036474
    55  H    0.031846
    56  H    0.118185
    57  H    0.121567
    58  N   -0.061717
    59  C    0.070408
    60  C    0.251738
    61  N   -0.282961
    62  H    0.027353
    63  C    0.188965
    64  N   -0.309592
    65  H    0.040170
    66  C    0.142633
    67  N   -0.260486
    68  C    0.030207
    69  C    0.180856
    70  N   -0.314297
 Sum of Mulliken charges =  -0.00000
 Mulliken charges with hydrogens summed into heavy atoms:
               1
     1  N   -0.314153
     2  C    0.270515
     3  C    0.056104
     4  N   -0.261568
     5  C    0.169239
     7  N   -0.291085
     8  C    0.141611
    10  N   -0.274201
    11  C    0.264432
    12  C    0.091616
    13  N    0.119017
    19  N   -0.310603
    20  C    0.245329
    21  C    0.261124
    22  N    0.119661
    25  N   -0.310203
    26  C    0.232288
    27  N   -0.019032
    29  C    0.178275
    30  O   -0.322022
    31  C   -0.006787
    32  N   -0.227259
    33  C    0.148108
    42  C   -0.084963
    43  O   -0.256856
    44  C    0.173429
    46  N    0.007977
    47  O   -0.345231
    48  C    0.354570
    50  C    0.202639
    51  C    0.226102
    52  N   -0.284816
    58  N    0.178035
    59  C    0.070408
    60  C    0.251738
    61  N   -0.282961
    63  C    0.216318
    64  N   -0.309592
    66  C    0.182804
    67  N   -0.260486
    68  C    0.030207
    69  C    0.284570
    70  N   -0.314297
 Electronic spatial extent (au):  <R**2>=          22136.9684
 Charge=             -0.0000 electrons
 Dipole moment (field-independent basis, Debye):
    X=             -9.3941    Y=              5.1413    Z=             -1.4875  Tot=             10.8118
 Quadrupole moment (field-independent basis, Debye-Ang):
   XX=           -174.6003   YY=           -207.7612   ZZ=           -252.1271
   XY=              8.4986   XZ=            -16.4215   YZ=              5.8250
 Traceless Quadrupole moment (field-independent basis, Debye-Ang):
   XX=             36.8959   YY=              3.7350   ZZ=            -40.6309
   XY=              8.4986   XZ=            -16.4215   YZ=              5.8250
 Octapole moment (field-independent basis, Debye-Ang**2):
  XXX=             43.2898  YYY=            152.6208  ZZZ=             16.9239  XYY=            -98.9908
  XXY=             83.7636  XXZ=            -48.8347  XZZ=            -39.0733  YZZ=              1.2621
  YYZ=            -31.1875  XYZ=             67.6458
 Hexadecapole moment (field-independent basis, Debye-Ang**3):
 XXXX=         -14923.0914 YYYY=          -7414.9417 ZZZZ=          -3541.4207 XXXY=           -505.5696
 XXXZ=           -364.5914 YYYX=            206.2292 YYYZ=             31.4216 ZZZX=            -87.8389
 ZZZY=            -12.9504 XXYY=          -2842.1778 XXZZ=          -3448.5737 YYZZ=          -1935.2052
 XXYZ=             51.5241 YYXZ=             31.2280 ZZXY=             19.8944
 N-N= 5.465771033968D+03 E-N=-1.571233570338D+04  KE= 2.037689502680D+03
 No NMR shielding tensors so no spin-rotation constants.
 Leave Link  601 at Fri Jan 26 23:05:47 2018, MaxMem=  4294967296 cpu:              47.7 elap:               1.7
 (Enter /share/apps/g16/l9999.exe)
 1\1\GINC-COMPUTE-0-3\SP\RwB97XD\CC-pVDZ\C23H27N17O3\SATYA\26-Jan-2018\
 0\\#p wb97xd/cc-pvdz sp scf=(maxcycles=20)\\Base pair stacking\\0,1\N,
 0,1.72319,-2.86642,-7.04576\C,0,3.1505,-2.56551,-7.26996\C,0,-0.42749,
 -2.68242,-6.62385\N,0,-0.18953,-4.03107,-6.84577\C,0,1.09666,-4.08794,
 -7.09108\H,0,1.64554,-5.00351,-7.31335\N,0,-1.49022,-0.62934,-6.15651\
 C,0,-0.28888,-0.06127,-6.30368\H,0,-0.26518,1.01883,-6.16557\N,0,0.882
 09,-0.62446,-6.59448\C,0,0.74201,-1.95206,-6.74373\C,0,-1.59808,-1.966
 86,-6.31302\N,0,-2.79644,-2.53575,-6.16651\H,0,-2.9229,-3.52257,-6.273
 32\H,0,-3.60822,-1.99525,-5.94511\H,0,3.41159,-2.84987,-8.19253\H,0,3.
 30467,-1.58309,-7.16886\H,0,3.7064,-3.059,-6.60106\N,0,2.14425,1.83227
 ,-3.34486\C,0,0.84414,1.4103,-3.20449\C,0,2.58401,3.24116,-3.39305\N,0
 ,-2.53203,2.13907,-2.841\H,0,-3.3898,1.63422,-2.74826\H,0,-2.59042,3.1
 3771,-2.83526\N,0,-0.24131,2.20546,-3.08794\C,0,-1.35583,1.50623,-2.96
 742\N,0,-1.40572,0.13329,-2.96128\H,0,-2.30277,-0.31712,-2.86433\C,0,-
 0.30156,-0.70495,-3.07982\O,0,-0.4556,-1.93243,-3.06253\C,0,0.90307,0.
 03179,-3.21008\N,0,2.2138,-0.40293,-3.35111\C,0,2.91293,0.69692,-3.427
 08\H,0,3.99645,0.73715,-3.54389\H,0,3.042,3.41955,-4.26324\H,0,1.78845
 ,3.83954,-3.30764\H,0,3.2169,3.42045,-2.64064\H,0,-7.11889,-1.942,-2.9
 9679\H,0,-6.85662,-2.21192,-1.27545\H,0,-6.02371,-0.89192,-2.09718\H,0
 ,-4.60553,-6.04251,-3.12092\C,0,-4.43615,-4.97504,-2.97934\O,0,-2.098,
 -5.10873,-3.35655\C,0,-3.10856,-4.4547,-3.10002\H,0,-2.08243,-2.68811,
 -2.97934\N,0,-3.00503,-3.09257,-2.9022\O,0,-3.83195,-1.02596,-2.45214\
 C,0,-4.02247,-2.21902,-2.6102\H,0,-6.47691,-4.49358,-2.59291\C,0,-5.44
 907,-4.14803,-2.69533\C,0,-6.3917,-1.90199,-2.1995\N,0,-5.27304,-2.796
 32,-2.51018\H,0,-7.56703,4.19558,-4.58333\H,0,-6.17192,3.72049,-3.8832
 9\H,0,-7.55508,3.73782,-3.01689\H,0,-6.42596,-3.0265,-5.85027\H,0,-7.9
 8249,-2.35991,-5.64304\N,0,-6.99011,-2.23506,-5.61469\C,0,-6.44433,-1.
 06473,-5.27759\C,0,-6.48414,1.21901,-4.61077\N,0,-5.14835,1.35765,-4.5
 812\H,0,-3.46403,0.2404,-4.92099\C,0,-4.55291,0.21571,-4.91932\N,0,-5.
 09779,-0.95752,-5.25728\H,0,-9.58306,2.09635,-4.32947\C,0,-8.64675,1.5
 6201,-4.49305\N,0,-8.55931,0.30689,-4.86006\C,0,-7.19345,0.07662,-4.93
 839\C,0,-7.1592,3.5686,-3.91957\N,0,-7.42933,2.17524,-4.32401\\Version
 =EM64L-G16RevA.03\State=1-A\HF=-2048.7473647\RMSD=6.775e-09\Dipole=-3.
 5164677,2.3742676,0.3016974\Quadrupole=25.5792353,-1.9585496,-23.62068
 57,8.0407664,-15.8258342,10.9975565\PG=C01 [X(C23H27N17O3)]\\@


 THE SECRET OF SUCCESS IN LIFE IS TO EAT WHAT YOU LIKE, AND LET THE FOOD
 FIGHT IT OUT INSIDE YOU. -- FROM A FORTUNE COOKIE
 Job cpu time:       0 days  5 hours 51 minutes 27.6 seconds.
 Elapsed time:       0 days  0 hours 11 minutes 21.7 seconds.
 File lengths (MBytes):  RWF=    298 Int=      0 D2E=      0 Chk=     33 Scr=      1
 Normal termination of Gaussian 16 at Fri Jan 26 23:05:47 2018.
