 Entering Gaussian System, Link 0=g16
 Input=str60.10.1.5.com
 Output=str60.10.1.5.log
 Initial command:
 /share/apps/g16/l1.exe "/state/partition1/scr/Gau-19371.inp" -scrdir="/state/partition1/scr/"
 Entering Link 1 = /share/apps/g16/l1.exe PID=     19372.
  
 Copyright (c) 1988,1990,1992,1993,1995,1998,2003,2009,2016,
            Gaussian, Inc.  All Rights Reserved.
  
 This is part of the Gaussian(R) 16 program.  It is based on
 the Gaussian(R) 09 system (copyright 2009, Gaussian, Inc.),
 the Gaussian(R) 03 system (copyright 2003, Gaussian, Inc.),
 the Gaussian(R) 98 system (copyright 1998, Gaussian, Inc.),
 the Gaussian(R) 94 system (copyright 1995, Gaussian, Inc.),
 the Gaussian 92(TM) system (copyright 1992, Gaussian, Inc.),
 the Gaussian 90(TM) system (copyright 1990, Gaussian, Inc.),
 the Gaussian 88(TM) system (copyright 1988, Gaussian, Inc.),
 the Gaussian 86(TM) system (copyright 1986, Carnegie Mellon
 University), and the Gaussian 82(TM) system (copyright 1983,
 Carnegie Mellon University). Gaussian is a federally registered
 trademark of Gaussian, Inc.
  
 This software contains proprietary and confidential information,
 including trade secrets, belonging to Gaussian, Inc.
  
 This software is provided under written license and may be
 used, copied, transmitted, or stored only in accord with that
 written license.
  
 The following legend is applicable only to US Government
 contracts under FAR:
  
                    RESTRICTED RIGHTS LEGEND
  
 Use, reproduction and disclosure by the US Government is
 subject to restrictions as set forth in subparagraphs (a)
 and (c) of the Commercial Computer Software - Restricted
 Rights clause in FAR 52.227-19.
  
 Gaussian, Inc.
 340 Quinnipiac St., Bldg. 40, Wallingford CT 06492
  
  
 ---------------------------------------------------------------
 Warning -- This program may not be used in any manner that
 competes with the business of Gaussian, Inc. or will provide
 assistance to any competitor of Gaussian, Inc.  The licensee
 of this program is prohibited from giving any competitor of
 Gaussian, Inc. access to this program.  By using this program,
 the user acknowledges that Gaussian, Inc. is engaged in the
 business of creating and licensing software in the field of
 computational chemistry and represents and warrants to the
 licensee that it is not a competitor of Gaussian, Inc. and that
 it will not use this program in any manner prohibited above.
 ---------------------------------------------------------------
  

 Cite this work as:
 Gaussian 16, Revision A.03,
 M. J. Frisch, G. W. Trucks, H. B. Schlegel, G. E. Scuseria, 
 M. A. Robb, J. R. Cheeseman, G. Scalmani, V. Barone, 
 G. A. Petersson, H. Nakatsuji, X. Li, M. Caricato, A. V. Marenich, 
 J. Bloino, B. G. Janesko, R. Gomperts, B. Mennucci, H. P. Hratchian, 
 J. V. Ortiz, A. F. Izmaylov, J. L. Sonnenberg, D. Williams-Young, 
 F. Ding, F. Lipparini, F. Egidi, J. Goings, B. Peng, A. Petrone, 
 T. Henderson, D. Ranasinghe, V. G. Zakrzewski, J. Gao, N. Rega, 
 G. Zheng, W. Liang, M. Hada, M. Ehara, K. Toyota, R. Fukuda, 
 J. Hasegawa, M. Ishida, T. Nakajima, Y. Honda, O. Kitao, H. Nakai, 
 T. Vreven, K. Throssell, J. A. Montgomery, Jr., J. E. Peralta, 
 F. Ogliaro, M. J. Bearpark, J. J. Heyd, E. N. Brothers, K. N. Kudin, 
 V. N. Staroverov, T. A. Keith, R. Kobayashi, J. Normand, 
 K. Raghavachari, A. P. Rendell, J. C. Burant, S. S. Iyengar, 
 J. Tomasi, M. Cossi, J. M. Millam, M. Klene, C. Adamo, R. Cammi, 
 J. W. Ochterski, R. L. Martin, K. Morokuma, O. Farkas, 
 J. B. Foresman, and D. J. Fox, Gaussian, Inc., Wallingford CT, 2016.
 
 ******************************************
 Gaussian 16:  EM64L-G16RevA.03 25-Dec-2016
                26-Jan-2018 
 ******************************************
 %nprocshared=32
 Will use up to   32 processors via shared memory.
 %mem=32GB
 %chk=allatoms_t.chk
 ---------------------------------------
 #p wb97xd/cc-pvdz sp scf=(maxcycles=20)
 ---------------------------------------
 1/38=1,172=1/1;
 2/12=2,17=6,18=5,40=1/2;
 3/5=16,11=2,25=1,30=1,74=-58/1,2,3;
 4//1;
 5/5=2,7=20,38=5/2;
 6/7=2,8=2,9=2,10=2,28=1/1;
 99/5=1,9=1/99;
 Leave Link    1 at Fri Jan 26 22:32:02 2018, MaxMem=  4294967296 cpu:               2.7 elap:               0.1
 (Enter /share/apps/g16/l101.exe)
 ------------------
 Base pair stacking
 ------------------
 Symbolic Z-matrix:
 Charge =  0 Multiplicity = 1
 N                     4.14048  -3.45048  -5.58646 
 C                     5.59389  -3.19568  -5.56047 
 C                     1.96624  -3.22488  -5.82956 
 N                     2.17391  -4.52003  -5.37767 
 C                     3.4755   -4.6041   -5.2493 
 H                     4.00888  -5.49229  -4.90934 
 N                     0.94047  -1.23708  -6.57749 
 C                     2.17159  -0.7216   -6.65633 
 H                     2.22234   0.31071  -6.99988 
 N                     3.34391  -1.28718  -6.37583 
 C                     3.16911  -2.55347  -5.96306 
 C                     0.79807  -2.5136   -6.15878 
 N                    -0.43004  -3.02994  -6.07942 
 H                    -0.58259  -3.97068  -5.77452 
 H                    -1.23904  -2.49435  -6.32189 
 H                     6.05711  -3.83703  -6.17225 
 H                     5.77441  -2.2598   -5.86159 
 H                     5.93909  -3.31703  -4.62982 
 N                     2.97056   2.24783  -3.13616 
 C                     1.67012   1.82605  -3.274 
 C                     3.43553   3.64212  -3.27922 
 N                    -1.67077   2.53437  -3.90527 
 H                    -2.53325   2.03225  -3.96229 
 H                    -1.70901   3.52133  -4.06391 
 N                     0.60713   2.6082   -3.56098 
 C                    -0.51437   1.91301  -3.62857 
 N                    -0.59115   0.55565  -3.4306 
 H                    -1.49159   0.10721  -3.50185 
 C                     0.48959  -0.269    -3.13427 
 O                     0.31218  -1.48294  -2.9742 
 C                     1.70137   0.46358  -3.05836 
 N                     2.9954    0.03855  -2.79054 
 C                     3.712     1.12827  -2.8472 
 H                     4.78963   1.17191  -2.68567 
 H                     4.10559   3.69757  -4.01864 
 H                     2.65673   4.23077  -3.4919 
 H                     3.85668   3.94413  -2.42469 
 H                    -6.14212  -1.61364  -4.62608 
 H                    -6.33738  -1.61837  -2.87494 
 H                    -5.29514  -0.41971  -3.64195 
 H                    -3.76274  -5.63651  -3.48517 
 C                    -3.61458  -4.55674  -3.46574 
 O                    -1.26125  -4.69922  -3.20372 
 C                    -2.29071  -4.03423  -3.31671 
 H                    -1.29574  -2.24959  -3.20095 
 N                    -2.21485  -2.65606  -3.30453 
 O                    -3.08897  -0.5621   -3.39635 
 C                    -3.25579  -1.76889  -3.41821 
 H                    -5.67613  -4.06322  -3.69427 
 C                    -4.65     -3.71668  -3.57892 
 C                    -5.64416  -1.44077  -3.68363 
 N                    -4.50104  -2.34928  -3.55862 
 H                    -5.05031   3.43588  -8.80375 
 H                    -3.89969   3.39263  -7.64776 
 H                    -5.45009   3.70534  -7.24458 
 H                    -4.04783  -3.5414   -6.48469 
 H                    -5.56677  -2.94122  -6.97732 
 N                    -4.60636  -2.7599   -6.76297 
 C                    -4.09419  -1.5302   -6.84489 
 C                    -4.16602   0.8101   -7.26861 
 N                    -2.87284   1.02399  -6.97475 
 H                    -1.22345  -0.03158  -6.36986 
 C                    -2.27888  -0.11535  -6.62542 
 N                    -2.79013  -1.34797  -6.54276 
 H                    -7.18355   1.54367  -8.16782 
 C                    -6.26792   1.04585  -7.8473 
 N                    -6.16487  -0.23684  -7.59877 
 C                    -4.83716  -0.39972  -7.23081 
 C                    -4.85477   3.18385  -7.85599 
 N                    -5.09642   1.74018  -7.66778 
 
 ITRead=  0  0  0  0  0  0  0  0  0  0  0  0  0  0  0  0  0  0  0  0
 ITRead=  0  0  0  0  0  0  0  0  0  0  0  0  0  0  0  0  0  0  0  0
 ITRead=  0  0  0  0  0  0  0  0  0  0  0  0  0  0  0  0  0  0  0  0
 ITRead=  0  0  0  0  0  0  0  0  0  0
 MicOpt= -1 -1 -1 -1 -1 -1 -1 -1 -1 -1 -1 -1 -1 -1 -1 -1 -1 -1 -1 -1
 MicOpt= -1 -1 -1 -1 -1 -1 -1 -1 -1 -1 -1 -1 -1 -1 -1 -1 -1 -1 -1 -1
 MicOpt= -1 -1 -1 -1 -1 -1 -1 -1 -1 -1 -1 -1 -1 -1 -1 -1 -1 -1 -1 -1
 MicOpt= -1 -1 -1 -1 -1 -1 -1 -1 -1 -1
 NAtoms=     70 NQM=       70 NQMF=       0 NMMI=      0 NMMIF=      0
                NMic=       0 NMicF=      0.
                    Isotopes and Nuclear Properties:
 (Nuclear quadrupole moments (NQMom) in fm**2, nuclear magnetic moments (NMagM)
  in nuclear magnetons)

  Atom         1           2           3           4           5           6           7           8           9          10
 IAtWgt=          14          12          12          14          12           1          14          12           1          14
 AtmWgt=  14.0030740  12.0000000  12.0000000  14.0030740  12.0000000   1.0078250  14.0030740  12.0000000   1.0078250  14.0030740
 NucSpn=           2           0           0           2           0           1           2           0           1           2
 AtZEff=  -0.0000000  -0.0000000  -0.0000000  -0.0000000  -0.0000000  -0.0000000  -0.0000000  -0.0000000  -0.0000000  -0.0000000
 NQMom=    2.0440000   0.0000000   0.0000000   2.0440000   0.0000000   0.0000000   2.0440000   0.0000000   0.0000000   2.0440000
 NMagM=    0.4037610   0.0000000   0.0000000   0.4037610   0.0000000   2.7928460   0.4037610   0.0000000   2.7928460   0.4037610
 AtZNuc=   7.0000000   6.0000000   6.0000000   7.0000000   6.0000000   1.0000000   7.0000000   6.0000000   1.0000000   7.0000000

  Atom        11          12          13          14          15          16          17          18          19          20
 IAtWgt=          12          12          14           1           1           1           1           1          14          12
 AtmWgt=  12.0000000  12.0000000  14.0030740   1.0078250   1.0078250   1.0078250   1.0078250   1.0078250  14.0030740  12.0000000
 NucSpn=           0           0           2           1           1           1           1           1           2           0
 AtZEff=  -0.0000000  -0.0000000  -0.0000000  -0.0000000  -0.0000000  -0.0000000  -0.0000000  -0.0000000  -0.0000000  -0.0000000
 NQMom=    0.0000000   0.0000000   2.0440000   0.0000000   0.0000000   0.0000000   0.0000000   0.0000000   2.0440000   0.0000000
 NMagM=    0.0000000   0.0000000   0.4037610   2.7928460   2.7928460   2.7928460   2.7928460   2.7928460   0.4037610   0.0000000
 AtZNuc=   6.0000000   6.0000000   7.0000000   1.0000000   1.0000000   1.0000000   1.0000000   1.0000000   7.0000000   6.0000000

  Atom        21          22          23          24          25          26          27          28          29          30
 IAtWgt=          12          14           1           1          14          12          14           1          12          16
 AtmWgt=  12.0000000  14.0030740   1.0078250   1.0078250  14.0030740  12.0000000  14.0030740   1.0078250  12.0000000  15.9949146
 NucSpn=           0           2           1           1           2           0           2           1           0           0
 AtZEff=  -0.0000000  -0.0000000  -0.0000000  -0.0000000  -0.0000000  -0.0000000  -0.0000000  -0.0000000  -0.0000000  -0.0000000
 NQMom=    0.0000000   2.0440000   0.0000000   0.0000000   2.0440000   0.0000000   2.0440000   0.0000000   0.0000000   0.0000000
 NMagM=    0.0000000   0.4037610   2.7928460   2.7928460   0.4037610   0.0000000   0.4037610   2.7928460   0.0000000   0.0000000
 AtZNuc=   6.0000000   7.0000000   1.0000000   1.0000000   7.0000000   6.0000000   7.0000000   1.0000000   6.0000000   8.0000000

  Atom        31          32          33          34          35          36          37          38          39          40
 IAtWgt=          12          14          12           1           1           1           1           1           1           1
 AtmWgt=  12.0000000  14.0030740  12.0000000   1.0078250   1.0078250   1.0078250   1.0078250   1.0078250   1.0078250   1.0078250
 NucSpn=           0           2           0           1           1           1           1           1           1           1
 AtZEff=  -0.0000000  -0.0000000  -0.0000000  -0.0000000  -0.0000000  -0.0000000  -0.0000000  -0.0000000  -0.0000000  -0.0000000
 NQMom=    0.0000000   2.0440000   0.0000000   0.0000000   0.0000000   0.0000000   0.0000000   0.0000000   0.0000000   0.0000000
 NMagM=    0.0000000   0.4037610   0.0000000   2.7928460   2.7928460   2.7928460   2.7928460   2.7928460   2.7928460   2.7928460
 AtZNuc=   6.0000000   7.0000000   6.0000000   1.0000000   1.0000000   1.0000000   1.0000000   1.0000000   1.0000000   1.0000000

  Atom        41          42          43          44          45          46          47          48          49          50
 IAtWgt=           1          12          16          12           1          14          16          12           1          12
 AtmWgt=   1.0078250  12.0000000  15.9949146  12.0000000   1.0078250  14.0030740  15.9949146  12.0000000   1.0078250  12.0000000
 NucSpn=           1           0           0           0           1           2           0           0           1           0
 AtZEff=  -0.0000000  -0.0000000  -0.0000000  -0.0000000  -0.0000000  -0.0000000  -0.0000000  -0.0000000  -0.0000000  -0.0000000
 NQMom=    0.0000000   0.0000000   0.0000000   0.0000000   0.0000000   2.0440000   0.0000000   0.0000000   0.0000000   0.0000000
 NMagM=    2.7928460   0.0000000   0.0000000   0.0000000   2.7928460   0.4037610   0.0000000   0.0000000   2.7928460   0.0000000
 AtZNuc=   1.0000000   6.0000000   8.0000000   6.0000000   1.0000000   7.0000000   8.0000000   6.0000000   1.0000000   6.0000000

  Atom        51          52          53          54          55          56          57          58          59          60
 IAtWgt=          12          14           1           1           1           1           1          14          12          12
 AtmWgt=  12.0000000  14.0030740   1.0078250   1.0078250   1.0078250   1.0078250   1.0078250  14.0030740  12.0000000  12.0000000
 NucSpn=           0           2           1           1           1           1           1           2           0           0
 AtZEff=  -0.0000000  -0.0000000  -0.0000000  -0.0000000  -0.0000000  -0.0000000  -0.0000000  -0.0000000  -0.0000000  -0.0000000
 NQMom=    0.0000000   2.0440000   0.0000000   0.0000000   0.0000000   0.0000000   0.0000000   2.0440000   0.0000000   0.0000000
 NMagM=    0.0000000   0.4037610   2.7928460   2.7928460   2.7928460   2.7928460   2.7928460   0.4037610   0.0000000   0.0000000
 AtZNuc=   6.0000000   7.0000000   1.0000000   1.0000000   1.0000000   1.0000000   1.0000000   7.0000000   6.0000000   6.0000000

  Atom        61          62          63          64          65          66          67          68          69          70
 IAtWgt=          14           1          12          14           1          12          14          12          12          14
 AtmWgt=  14.0030740   1.0078250  12.0000000  14.0030740   1.0078250  12.0000000  14.0030740  12.0000000  12.0000000  14.0030740
 NucSpn=           2           1           0           2           1           0           2           0           0           2
 AtZEff=  -0.0000000  -0.0000000  -0.0000000  -0.0000000  -0.0000000  -0.0000000  -0.0000000  -0.0000000  -0.0000000  -0.0000000
 NQMom=    2.0440000   0.0000000   0.0000000   2.0440000   0.0000000   0.0000000   2.0440000   0.0000000   0.0000000   2.0440000
 NMagM=    0.4037610   2.7928460   0.0000000   0.4037610   2.7928460   0.0000000   0.4037610   0.0000000   0.0000000   0.4037610
 AtZNuc=   7.0000000   1.0000000   6.0000000   7.0000000   1.0000000   6.0000000   7.0000000   6.0000000   6.0000000   7.0000000
 Leave Link  101 at Fri Jan 26 22:32:02 2018, MaxMem=  4294967296 cpu:               7.8 elap:               0.3
 (Enter /share/apps/g16/l202.exe)
 Stoichiometry    C23H27N17O3
 Framework group  C1[X(C23H27N17O3)]
 Deg. of freedom   204
 Full point group                 C1      NOp   1
 Largest Abelian subgroup         C1      NOp   1
 Largest concise Abelian subgroup C1      NOp   1
                         Standard orientation:                         
 ---------------------------------------------------------------------
 Center     Atomic      Atomic             Coordinates (Angstroms)
 Number     Number       Type             X           Y           Z
 ---------------------------------------------------------------------
      1          7           0        4.983654   -2.155068   -1.586239
      2          6           0        6.388707   -1.784441   -1.844038
      3          6           0        2.792850   -2.107061   -1.398130
      4          7           0        3.188714   -3.376183   -1.001433
      5          6           0        4.492749   -3.354301   -1.130642
      6          1           0        5.152224   -4.192996   -0.905625
      7          7           0        1.483601   -0.216439   -1.921932
      8          6           0        2.629855    0.395020   -2.237861
      9          1           0        2.528963    1.424089   -2.580065
     10          7           0        3.876153   -0.071644   -2.194746
     11          6           0        3.888220   -1.343068   -1.761434
     12          6           0        1.529321   -1.495399   -1.489182
     13          7           0        0.386181   -2.107468   -1.173335
     14          1           0        0.372626   -3.053859   -0.848701
     15          1           0       -0.495159   -1.641173   -1.250392
     16          1           0        6.773691   -2.393587   -2.537511
     17          1           0        6.430730   -0.840611   -2.170461
     18          1           0        6.917765   -1.867129   -0.999491
     19          7           0        3.858877    3.458884    1.071173
     20          6           0        2.594962    2.932793    1.188601
     21          6           0        4.172790    4.884200    0.846142
     22          7           0       -0.850949    3.364100    1.226525
     23          1           0       -1.664525    2.793920    1.337141
     24          1           0       -0.999021    4.342954    1.082866
     25          7           0        1.436767    3.623997    1.118706
     26          6           0        0.383552    2.840521    1.268780
     27          7           0        0.456800    1.483720    1.471856
     28          1           0       -0.400993    0.963843    1.576186
     29          6           0        1.637603    0.751683    1.547255
     30          8           0        1.593509   -0.470657    1.733501
     31          6           0        2.777664    1.579750    1.387841
     32          7           0        4.129093    1.262775    1.395334
     33          6           0        4.730425    2.405653    1.204422
     34          1           0        5.811732    2.537274    1.152133
     35          1           0        4.678729    4.984674   -0.009853
     36          1           0        3.322504    5.406140    0.792627
     37          1           0        4.727020    5.228697    1.603078
     38          1           0       -5.027112   -1.136546    1.376083
     39          1           0       -4.875375   -1.136900    3.131536
     40          1           0       -4.103376    0.132522    2.180779
     41          1           0       -2.153732   -4.942710    2.011234
     42          6           0       -2.092316   -3.854392    2.006138
     43          8           0        0.270515   -3.804997    1.801908
     44          6           0       -0.811447   -3.225898    1.895551
     45          1           0        0.039539   -1.366121    1.822364
     46          7           0       -0.846209   -1.846030    1.898832
     47          8           0       -1.887595    0.170037    1.989246
     48          6           0       -1.957467   -1.046406    1.995041
     49          1           0       -4.191765   -3.530154    2.187684
     50          6           0       -3.194277   -3.101276    2.101545
     51          6           0       -4.370200   -0.913613    2.203627
     52          7           0       -3.155135   -1.726197    2.098436
     53          1           0       -5.184116    3.936149   -2.911776
     54          1           0       -3.830120    3.998363   -2.003518
     55          1           0       -5.291929    4.190520   -1.303325
     56          1           0       -3.187709   -2.911535   -0.865066
     57          1           0       -4.817038   -2.440558   -1.048220
     58          7           0       -3.851097   -2.180490   -1.025154
     59          6           0       -3.465813   -0.914747   -1.200202
     60          6           0       -3.807798    1.407298   -1.591169
     61          7           0       -2.503703    1.727379   -1.555106
     62          1           0       -0.688163    0.814230   -1.289436
     63          6           0       -1.762907    0.643315   -1.333883
     64          7           0       -2.146911   -0.625256   -1.158301
     65          1           0       -6.992059    1.886603   -1.879168
     66          6           0       -5.994297    1.467382   -1.746269
     67          7           0       -5.741434    0.199982   -1.528468
     68          6           0       -4.358685    0.148138   -1.428187
     69          6           0       -4.787439    3.711422   -2.021749
     70          7           0       -4.870270    2.255282   -1.796366
 ---------------------------------------------------------------------
 Rotational constants (GHZ):           0.1070590           0.0613991           0.0512999
 Leave Link  202 at Fri Jan 26 22:32:02 2018, MaxMem=  4294967296 cpu:               0.4 elap:               0.0
 (Enter /share/apps/g16/l301.exe)
 Standard basis: CC-pVDZ (5D, 7F)
 Ernie: Thresh=  0.10000D-02 Tol=  0.10000D-05 Strict=F.
 Ernie:  86 primitive shells out of 1081 were deleted.
 There are   780 symmetry adapted cartesian basis functions of A   symmetry.
 There are   737 symmetry adapted basis functions of A   symmetry.
   737 basis functions,  1608 primitive gaussians,   780 cartesian basis functions
   154 alpha electrons      154 beta electrons
       nuclear repulsion energy      5415.7042011348 Hartrees.
 IExCor= 4639 DFT=T Ex+Corr=wB97XD ExCW=0 ScaHFX=  1.000000
 ScaDFX=  1.000000  1.000000  1.000000  1.000000 ScalE2=  1.000000  1.000000
 IRadAn=      5 IRanWt=     -1 IRanGd=            0 ICorTp=0 IEmpDi=121
 HFx  wShort=  0.000000 wLong=  0.200000 cFull=  0.222036 cShort=  0.000000 cLong=  0.777964
 DFx  wShort=  0.000000 wLong=  0.200000 cFull=  0.000000 cShort=  0.000000 cLong=  1.000000
 NAtoms=   70 NActive=   70 NUniq=   70 SFac= 1.00D+00 NAtFMM=   60 NAOKFM=T Big=T
 Integral buffers will be    131072 words long.
 Raffenetti 2 integral format.
 Two-electron integral symmetry is turned on.
 R6Disp:  Grimme-D2 Dispersion energy=       -0.0639585367 Hartrees.
 Nuclear repulsion after empirical dispersion term =     5415.6402425981 Hartrees.
 Leave Link  301 at Fri Jan 26 22:32:02 2018, MaxMem=  4294967296 cpu:               3.0 elap:               0.1
 (Enter /share/apps/g16/l302.exe)
 NPDir=0 NMtPBC=     1 NCelOv=     1 NCel=       1 NClECP=     1 NCelD=      1
         NCelK=      1 NCelE2=     1 NClLst=     1 CellRange=     0.0.
 One-electron integrals computed using PRISM.
 One-electron integral symmetry used in STVInt
 NBasis=   737 RedAO= T EigKep=  7.30D-04  NBF=   737
 NBsUse=   737 1.00D-06 EigRej= -1.00D+00 NBFU=   737
 Precomputing XC quadrature grid using
 IXCGrd= 4 IRadAn=           5 IRanWt=          -1 IRanGd=           0 AccXCQ= 0.00D+00.
 Generated NRdTot=       0 NPtTot=           0 NUsed=           0 NTot=          32
 NSgBfM=   760   759   759   759   760 MxSgAt=    70 MxSgA2=    70.
 Leave Link  302 at Fri Jan 26 22:32:06 2018, MaxMem=  4294967296 cpu:             135.8 elap:               4.3
 (Enter /share/apps/g16/l303.exe)
 DipDrv:  MaxL=1.
 Leave Link  303 at Fri Jan 26 22:32:07 2018, MaxMem=  4294967296 cpu:              12.5 elap:               0.4
 (Enter /share/apps/g16/l401.exe)
 ExpMin= 1.22D-01 ExpMax= 1.17D+04 ExpMxC= 4.01D+02 IAcc=3 IRadAn=         5 AccDes= 0.00D+00
 Harris functional with IExCor= 4639 and IRadAn=       5 diagonalized for initial guess.
 HarFok:  IExCor= 4639 AccDes= 0.00D+00 IRadAn=         5 IDoV= 1 UseB2=F ITyADJ=14
 ICtDFT=  3500011 ScaDFX=  1.000000  1.000000  1.000000  1.000000
 FoFCou: FMM=F IPFlag=           0 FMFlag=      100000 FMFlg1=        2001
         NFxFlg=           0 DoJE=T BraDBF=F KetDBF=T FulRan=T
         wScrn=  0.000000 ICntrl=       500 IOpCl=  0 I1Cent=   200000004 NGrid=           0
         NMat0=    1 NMatS0=      1 NMatT0=    0 NMatD0=    1 NMtDS0=    0 NMtDT0=    0
 Petite list used in FoFCou.
 Harris En= -1963.88769973991    
 JPrj=0 DoOrth=F DoCkMO=F.
 Leave Link  401 at Fri Jan 26 22:32:19 2018, MaxMem=  4294967296 cpu:             388.5 elap:              12.2
 (Enter /share/apps/g16/l502.exe)
 Integral symmetry usage will be decided dynamically.
 Closed shell SCF:
 Using DIIS extrapolation, IDIIS=  1040.
 NGot=  4294967296 LenX=  4293717438 LenY=  4293108258
 Requested convergence on RMS density matrix=1.00D-08 within  20 cycles.
 Requested convergence on MAX density matrix=1.00D-06.
 Requested convergence on             energy=1.00D-06.
 No special actions if energy rises.
 Fock matrices will be formed incrementally for  20 cycles.
 Integral accuracy reduced to 1.0D-05 until final iterations.

 Cycle   1  Pass 0  IDiag  1:
 FoFJK:  IHMeth= 1 ICntrl=       0 DoSepK=T KAlg= 0 I1Cent=           0 FoldK=F
 IRaf=         1 NMat=       1 IRICut=       1 DoRegI=T DoRafI=F ISym2E= 0 IDoP0=0 IntGTp=1.
 FoFCou: FMM=T IPFlag=           0 FMFlag=      100000 FMFlg1=        2001
         NFxFlg=           0 DoJE=T BraDBF=F KetDBF=F FulRan=T
         wScrn=  0.000000 ICntrl=       500 IOpCl=  0 I1Cent=           0 NGrid=           0
         NMat0=    1 NMatS0=      1 NMatT0=    0 NMatD0=    1 NMtDS0=    0 NMtDT0=    0
 Symmetry not used in FoFCou.
 FMM levels:  10  Number of levels for PrismC:   9
 E= -2048.31188701301    
 DIIS: error= 2.72D-02 at cycle   1 NSaved=   1.
 NSaved= 1 IEnMin= 1 EnMin= -2048.31188701301     IErMin= 1 ErrMin= 2.72D-02
 ErrMax= 2.72D-02  0.00D+00 EMaxC= 1.00D-01 BMatC= 8.31D-01 BMatP= 8.31D-01
 IDIUse=3 WtCom= 7.28D-01 WtEn= 2.72D-01
 Coeff-Com:  0.100D+01
 Coeff-En:   0.100D+01
 Coeff:      0.100D+01
 Gap=     0.252 Goal=   None    Shift=    0.000
 GapD=    0.252 DampG=1.000 DampE=0.500 DampFc=0.5000 IDamp=-1.
 Damping current iteration by 5.00D-01
 RMSDP=1.55D-03 MaxDP=1.32D-01              OVMax= 2.08D-01

 Cycle   2  Pass 0  IDiag  1:
 RMSU=  7.73D-04    CP:  9.98D-01
 E= -2048.51030884076     Delta-E=       -0.198421827750 Rises=F Damp=T
 DIIS: error= 1.52D-02 at cycle   2 NSaved=   2.
 NSaved= 2 IEnMin= 2 EnMin= -2048.51030884076     IErMin= 2 ErrMin= 1.52D-02
 ErrMax= 1.52D-02  0.00D+00 EMaxC= 1.00D-01 BMatC= 1.45D-01 BMatP= 8.31D-01
 IDIUse=3 WtCom= 8.48D-01 WtEn= 1.52D-01
 Coeff-Com: -0.203D+00 0.120D+01
 Coeff-En:   0.000D+00 0.100D+01
 Coeff:     -0.172D+00 0.117D+01
 Gap=     0.301 Goal=   None    Shift=    0.000
 RMSDP=5.74D-04 MaxDP=3.57D-02 DE=-1.98D-01 OVMax= 1.42D-01

 Cycle   3  Pass 0  IDiag  1:
 RMSU=  5.59D-04    CP:  9.94D-01  1.16D+00
 E= -2048.69275381450     Delta-E=       -0.182444973735 Rises=F Damp=F
 DIIS: error= 9.00D-03 at cycle   3 NSaved=   3.
 NSaved= 3 IEnMin= 3 EnMin= -2048.69275381450     IErMin= 3 ErrMin= 9.00D-03
 ErrMax= 9.00D-03  0.00D+00 EMaxC= 1.00D-01 BMatC= 5.93D-02 BMatP= 1.45D-01
 IDIUse=3 WtCom= 9.10D-01 WtEn= 9.00D-02
 Coeff-Com: -0.228D+00 0.541D+00 0.687D+00
 Coeff-En:   0.000D+00 0.000D+00 0.100D+01
 Coeff:     -0.208D+00 0.492D+00 0.716D+00
 Gap=     0.272 Goal=   None    Shift=    0.000
 RMSDP=3.40D-04 MaxDP=3.55D-02 DE=-1.82D-01 OVMax= 7.65D-02

 Cycle   4  Pass 0  IDiag  1:
 RMSU=  1.96D-04    CP:  9.95D-01  1.43D+00  6.78D-01
 E= -2048.73652626729     Delta-E=       -0.043772452794 Rises=F Damp=F
 DIIS: error= 3.78D-03 at cycle   4 NSaved=   4.
 NSaved= 4 IEnMin= 4 EnMin= -2048.73652626729     IErMin= 4 ErrMin= 3.78D-03
 ErrMax= 3.78D-03  0.00D+00 EMaxC= 1.00D-01 BMatC= 9.20D-03 BMatP= 5.93D-02
 IDIUse=3 WtCom= 9.62D-01 WtEn= 3.78D-02
 Coeff-Com: -0.920D-01 0.178D+00 0.383D+00 0.531D+00
 Coeff-En:   0.000D+00 0.000D+00 0.731D-01 0.927D+00
 Coeff:     -0.885D-01 0.171D+00 0.372D+00 0.546D+00
 Gap=     0.278 Goal=   None    Shift=    0.000
 RMSDP=1.26D-04 MaxDP=1.42D-02 DE=-4.38D-02 OVMax= 1.56D-02

 Cycle   5  Pass 0  IDiag  1:
 RMSU=  6.23D-05    CP:  9.94D-01  1.40D+00  8.14D-01  6.20D-01
 E= -2048.74379746262     Delta-E=       -0.007271195330 Rises=F Damp=F
 DIIS: error= 8.57D-04 at cycle   5 NSaved=   5.
 NSaved= 5 IEnMin= 5 EnMin= -2048.74379746262     IErMin= 5 ErrMin= 8.57D-04
 ErrMax= 8.57D-04  0.00D+00 EMaxC= 1.00D-01 BMatC= 3.22D-04 BMatP= 9.20D-03
 IDIUse=3 WtCom= 9.91D-01 WtEn= 8.57D-03
 Coeff-Com: -0.238D-01 0.405D-01 0.126D+00 0.250D+00 0.608D+00
 Coeff-En:   0.000D+00 0.000D+00 0.000D+00 0.000D+00 0.100D+01
 Coeff:     -0.236D-01 0.402D-01 0.124D+00 0.247D+00 0.612D+00
 Gap=     0.278 Goal=   None    Shift=    0.000
 RMSDP=2.51D-05 MaxDP=2.81D-03 DE=-7.27D-03 OVMax= 4.08D-03

 Failed to achieve initial convergence to 1.0D-08 in  6 cycles.
 Switch to full accuracy anyway.
 Cycle   6  Pass 1  IDiag  1:
 E= -2048.74419770418     Delta-E=       -0.000400241556 Rises=F Damp=F
 DIIS: error= 3.04D-04 at cycle   1 NSaved=   1.
 NSaved= 1 IEnMin= 1 EnMin= -2048.74419770418     IErMin= 1 ErrMin= 3.04D-04
 ErrMax= 3.04D-04  0.00D+00 EMaxC= 1.00D-01 BMatC= 7.63D-05 BMatP= 7.63D-05
 IDIUse=3 WtCom= 9.97D-01 WtEn= 3.04D-03
 Coeff-Com:  0.100D+01
 Coeff-En:   0.100D+01
 Coeff:      0.100D+01
 Gap=     0.278 Goal=   None    Shift=    0.000
 RMSDP=2.51D-05 MaxDP=2.81D-03 DE=-4.00D-04 OVMax= 2.21D-03

 Cycle   7  Pass 1  IDiag  1:
 RMSU=  1.12D-04    CP:  1.00D+00
 E= -2048.74425092015     Delta-E=       -0.000053215969 Rises=F Damp=F
 DIIS: error= 3.50D-04 at cycle   2 NSaved=   2.
 NSaved= 2 IEnMin= 2 EnMin= -2048.74425092015     IErMin= 1 ErrMin= 3.04D-04
 ErrMax= 3.50D-04  0.00D+00 EMaxC= 1.00D-01 BMatC= 5.00D-05 BMatP= 7.63D-05
 IDIUse=3 WtCom= 9.97D-01 WtEn= 3.50D-03
 Coeff-Com:  0.430D+00 0.570D+00
 Coeff-En:   0.923D-02 0.991D+00
 Coeff:      0.428D+00 0.572D+00
 Gap=     0.278 Goal=   None    Shift=    0.000
 RMSDP=1.10D-05 MaxDP=1.61D-03 DE=-5.32D-05 OVMax= 1.93D-03

 Cycle   8  Pass 1  IDiag  1:
 RMSU=  1.07D-05    CP:  1.00D+00  1.02D+00
 E= -2048.74428541835     Delta-E=       -0.000034498205 Rises=F Damp=F
 DIIS: error= 1.23D-04 at cycle   3 NSaved=   3.
 NSaved= 3 IEnMin= 3 EnMin= -2048.74428541835     IErMin= 3 ErrMin= 1.23D-04
 ErrMax= 1.23D-04  0.00D+00 EMaxC= 1.00D-01 BMatC= 1.04D-05 BMatP= 5.00D-05
 IDIUse=3 WtCom= 9.99D-01 WtEn= 1.23D-03
 Coeff-Com: -0.194D-01 0.300D+00 0.719D+00
 Coeff-En:   0.000D+00 0.118D+00 0.882D+00
 Coeff:     -0.194D-01 0.300D+00 0.719D+00
 Gap=     0.278 Goal=   None    Shift=    0.000
 RMSDP=5.62D-06 MaxDP=5.87D-04 DE=-3.45D-05 OVMax= 6.20D-04

 Cycle   9  Pass 1  IDiag  1:
 RMSU=  3.76D-06    CP:  1.00D+00  1.05D+00  7.66D-01
 E= -2048.74429451345     Delta-E=       -0.000009095096 Rises=F Damp=F
 DIIS: error= 3.64D-05 at cycle   4 NSaved=   4.
 NSaved= 4 IEnMin= 4 EnMin= -2048.74429451345     IErMin= 4 ErrMin= 3.64D-05
 ErrMax= 3.64D-05  0.00D+00 EMaxC= 1.00D-01 BMatC= 4.76D-07 BMatP= 1.04D-05
 IDIUse=1 WtCom= 1.00D+00 WtEn= 0.00D+00
 Coeff-Com: -0.312D-01 0.834D-01 0.261D+00 0.687D+00
 Coeff:     -0.312D-01 0.834D-01 0.261D+00 0.687D+00
 Gap=     0.278 Goal=   None    Shift=    0.000
 RMSDP=1.38D-06 MaxDP=1.40D-04 DE=-9.10D-06 OVMax= 4.98D-04

 Cycle  10  Pass 1  IDiag  1:
 RMSU=  1.23D-06    CP:  1.00D+00  1.06D+00  7.96D-01  1.11D+00
 E= -2048.74429529620     Delta-E=       -0.000000782748 Rises=F Damp=F
 DIIS: error= 1.51D-05 at cycle   5 NSaved=   5.
 NSaved= 5 IEnMin= 5 EnMin= -2048.74429529620     IErMin= 5 ErrMin= 1.51D-05
 ErrMax= 1.51D-05  0.00D+00 EMaxC= 1.00D-01 BMatC= 1.07D-07 BMatP= 4.76D-07
 IDIUse=1 WtCom= 1.00D+00 WtEn= 0.00D+00
 Coeff-Com: -0.274D-02-0.497D-01-0.120D+00 0.189D+00 0.984D+00
 Coeff:     -0.274D-02-0.497D-01-0.120D+00 0.189D+00 0.984D+00
 Gap=     0.278 Goal=   None    Shift=    0.000
 RMSDP=1.14D-06 MaxDP=7.25D-05 DE=-7.83D-07 OVMax= 2.35D-04

 Cycle  11  Pass 1  IDiag  1:
 RMSU=  4.73D-07    CP:  1.00D+00  1.06D+00  8.01D-01  1.38D+00  1.17D+00
 E= -2048.74429552748     Delta-E=       -0.000000231279 Rises=F Damp=F
 DIIS: error= 1.01D-05 at cycle   6 NSaved=   6.
 NSaved= 6 IEnMin= 6 EnMin= -2048.74429552748     IErMin= 6 ErrMin= 1.01D-05
 ErrMax= 1.01D-05  0.00D+00 EMaxC= 1.00D-01 BMatC= 2.69D-08 BMatP= 1.07D-07
 IDIUse=1 WtCom= 1.00D+00 WtEn= 0.00D+00
 Coeff-Com:  0.469D-02-0.409D-01-0.113D+00-0.931D-02 0.526D+00 0.632D+00
 Coeff:      0.469D-02-0.409D-01-0.113D+00-0.931D-02 0.526D+00 0.632D+00
 Gap=     0.278 Goal=   None    Shift=    0.000
 RMSDP=3.52D-07 MaxDP=3.67D-05 DE=-2.31D-07 OVMax= 1.23D-04

 Cycle  12  Pass 1  IDiag  1:
 RMSU=  1.79D-07    CP:  1.00D+00  1.06D+00  8.01D-01  1.44D+00  1.30D+00
                    CP:  9.19D-01
 E= -2048.74429556516     Delta-E=       -0.000000037684 Rises=F Damp=F
 DIIS: error= 1.29D-06 at cycle   7 NSaved=   7.
 NSaved= 7 IEnMin= 7 EnMin= -2048.74429556516     IErMin= 7 ErrMin= 1.29D-06
 ErrMax= 1.29D-06  0.00D+00 EMaxC= 1.00D-01 BMatC= 7.91D-10 BMatP= 2.69D-08
 IDIUse=1 WtCom= 1.00D+00 WtEn= 0.00D+00
 Coeff-Com:  0.115D-02-0.698D-02-0.213D-01-0.852D-02 0.625D-01 0.146D+00
 Coeff-Com:  0.827D+00
 Coeff:      0.115D-02-0.698D-02-0.213D-01-0.852D-02 0.625D-01 0.146D+00
 Coeff:      0.827D+00
 Gap=     0.278 Goal=   None    Shift=    0.000
 RMSDP=7.84D-08 MaxDP=5.20D-06 DE=-3.77D-08 OVMax= 2.28D-05

 Cycle  13  Pass 1  IDiag  1:
 RMSU=  4.79D-08    CP:  1.00D+00  1.06D+00  8.01D-01  1.45D+00  1.32D+00
                    CP:  1.00D+00  1.13D+00
 E= -2048.74429556674     Delta-E=       -0.000000001577 Rises=F Damp=F
 DIIS: error= 5.86D-07 at cycle   8 NSaved=   8.
 NSaved= 8 IEnMin= 8 EnMin= -2048.74429556674     IErMin= 8 ErrMin= 5.86D-07
 ErrMax= 5.86D-07  0.00D+00 EMaxC= 1.00D-01 BMatC= 2.93D-10 BMatP= 7.91D-10
 IDIUse=1 WtCom= 1.00D+00 WtEn= 0.00D+00
 Coeff-Com: -0.711D-03 0.783D-02 0.201D-01 0.321D-03-0.113D+00-0.965D-01
 Coeff-Com:  0.401D+00 0.781D+00
 Coeff:     -0.711D-03 0.783D-02 0.201D-01 0.321D-03-0.113D+00-0.965D-01
 Coeff:      0.401D+00 0.781D+00
 Gap=     0.278 Goal=   None    Shift=    0.000
 RMSDP=4.65D-08 MaxDP=2.81D-06 DE=-1.58D-09 OVMax= 1.15D-05

 Cycle  14  Pass 1  IDiag  1:
 RMSU=  2.65D-08    CP:  1.00D+00  1.06D+00  8.00D-01  1.45D+00  1.33D+00
                    CP:  1.05D+00  1.28D+00  1.10D+00
 E= -2048.74429556730     Delta-E=       -0.000000000559 Rises=F Damp=F
 DIIS: error= 2.03D-07 at cycle   9 NSaved=   9.
 NSaved= 9 IEnMin= 9 EnMin= -2048.74429556730     IErMin= 9 ErrMin= 2.03D-07
 ErrMax= 2.03D-07  0.00D+00 EMaxC= 1.00D-01 BMatC= 2.89D-11 BMatP= 2.93D-10
 IDIUse=1 WtCom= 1.00D+00 WtEn= 0.00D+00
 Coeff-Com: -0.427D-03 0.411D-02 0.109D-01 0.143D-02-0.540D-01-0.561D-01
 Coeff-Com:  0.809D-01 0.315D+00 0.698D+00
 Coeff:     -0.427D-03 0.411D-02 0.109D-01 0.143D-02-0.540D-01-0.561D-01
 Coeff:      0.809D-01 0.315D+00 0.698D+00
 Gap=     0.278 Goal=   None    Shift=    0.000
 RMSDP=1.27D-08 MaxDP=7.86D-07 DE=-5.59D-10 OVMax= 3.46D-06

 Cycle  15  Pass 1  IDiag  1:
 RMSU=  8.66D-09    CP:  1.00D+00  1.06D+00  8.00D-01  1.45D+00  1.33D+00
                    CP:  1.05D+00  1.31D+00  1.25D+00  1.10D+00
 E= -2048.74429556741     Delta-E=       -0.000000000112 Rises=F Damp=F
 DIIS: error= 7.08D-08 at cycle  10 NSaved=  10.
 NSaved=10 IEnMin=10 EnMin= -2048.74429556741     IErMin=10 ErrMin= 7.08D-08
 ErrMax= 7.08D-08  0.00D+00 EMaxC= 1.00D-01 BMatC= 4.87D-12 BMatP= 2.89D-11
 IDIUse=1 WtCom= 1.00D+00 WtEn= 0.00D+00
 Coeff-Com:  0.586D-05-0.292D-03-0.612D-03 0.803D-04 0.542D-02 0.125D-02
 Coeff-Com: -0.562D-01-0.625D-01 0.261D+00 0.852D+00
 Coeff:      0.586D-05-0.292D-03-0.612D-03 0.803D-04 0.542D-02 0.125D-02
 Coeff:     -0.562D-01-0.625D-01 0.261D+00 0.852D+00
 Gap=     0.278 Goal=   None    Shift=    0.000
 RMSDP=6.77D-09 MaxDP=3.86D-07 DE=-1.12D-10 OVMax= 1.56D-06

 SCF Done:  E(RwB97XD) =  -2048.74429557     A.U. after   15 cycles
            NFock= 15  Conv=0.68D-08     -V/T= 2.0054
 KE= 2.037657678387D+03 PE=-1.561213208543D+04 EE= 6.110089868875D+03
 Leave Link  502 at Fri Jan 26 22:42:47 2018, MaxMem=  4294967296 cpu:           19428.7 elap:             627.7
 (Enter /share/apps/g16/l601.exe)
 Copying SCF densities to generalized density rwf, IOpCl= 0 IROHF=0.

 **********************************************************************

            Population analysis using the SCF density.

 **********************************************************************

 Orbital symmetries:
       Occupied  (A) (A) (A) (A) (A) (A) (A) (A) (A) (A) (A) (A)
                 (A) (A) (A) (A) (A) (A) (A) (A) (A) (A) (A) (A)
                 (A) (A) (A) (A) (A) (A) (A) (A) (A) (A) (A) (A)
                 (A) (A) (A) (A) (A) (A) (A) (A) (A) (A) (A) (A)
                 (A) (A) (A) (A) (A) (A) (A) (A) (A) (A) (A) (A)
                 (A) (A) (A) (A) (A) (A) (A) (A) (A) (A) (A) (A)
                 (A) (A) (A) (A) (A) (A) (A) (A) (A) (A) (A) (A)
                 (A) (A) (A) (A) (A) (A) (A) (A) (A) (A) (A) (A)
                 (A) (A) (A) (A) (A) (A) (A) (A) (A) (A) (A) (A)
                 (A) (A) (A) (A) (A) (A) (A) (A) (A) (A) (A) (A)
                 (A) (A) (A) (A) (A) (A) (A) (A) (A) (A) (A) (A)
                 (A) (A) (A) (A) (A) (A) (A) (A) (A) (A) (A) (A)
                 (A) (A) (A) (A) (A) (A) (A) (A) (A) (A)
       Virtual   (A) (A) (A) (A) (A) (A) (A) (A) (A) (A) (A) (A)
                 (A) (A) (A) (A) (A) (A) (A) (A) (A) (A) (A) (A)
                 (A) (A) (A) (A) (A) (A) (A) (A) (A) (A) (A) (A)
                 (A) (A) (A) (A) (A) (A) (A) (A) (A) (A) (A) (A)
                 (A) (A) (A) (A) (A) (A) (A) (A) (A) (A) (A) (A)
                 (A) (A) (A) (A) (A) (A) (A) (A) (A) (A) (A) (A)
                 (A) (A) (A) (A) (A) (A) (A) (A) (A) (A) (A) (A)
                 (A) (A) (A) (A) (A) (A) (A) (A) (A) (A) (A) (A)
                 (A) (A) (A) (A) (A) (A) (A) (A) (A) (A) (A) (A)
                 (A) (A) (A) (A) (A) (A) (A) (A) (A) (A) (A) (A)
                 (A) (A) (A) (A) (A) (A) (A) (A) (A) (A) (A) (A)
                 (A) (A) (A) (A) (A) (A) (A) (A) (A) (A) (A) (A)
                 (A) (A) (A) (A) (A) (A) (A) (A) (A) (A) (A) (A)
                 (A) (A) (A) (A) (A) (A) (A) (A) (A) (A) (A) (A)
                 (A) (A) (A) (A) (A) (A) (A) (A) (A) (A) (A) (A)
                 (A) (A) (A) (A) (A) (A) (A) (A) (A) (A) (A) (A)
                 (A) (A) (A) (A) (A) (A) (A) (A) (A) (A) (A) (A)
                 (A) (A) (A) (A) (A) (A) (A) (A) (A) (A) (A) (A)
                 (A) (A) (A) (A) (A) (A) (A) (A) (A) (A) (A) (A)
                 (A) (A) (A) (A) (A) (A) (A) (A) (A) (A) (A) (A)
                 (A) (A) (A) (A) (A) (A) (A) (A) (A) (A) (A) (A)
                 (A) (A) (A) (A) (A) (A) (A) (A) (A) (A) (A) (A)
                 (A) (A) (A) (A) (A) (A) (A) (A) (A) (A) (A) (A)
                 (A) (A) (A) (A) (A) (A) (A) (A) (A) (A) (A) (A)
                 (A) (A) (A) (A) (A) (A) (A) (A) (A) (A) (A) (A)
                 (A) (A) (A) (A) (A) (A) (A) (A) (A) (A) (A) (A)
                 (A) (A) (A) (A) (A) (A) (A) (A) (A) (A) (A) (A)
                 (A) (A) (A) (A) (A) (A) (A) (A) (A) (A) (A) (A)
                 (A) (A) (A) (A) (A) (A) (A) (A) (A) (A) (A) (A)
                 (A) (A) (A) (A) (A) (A) (A) (A) (A) (A) (A) (A)
                 (A) (A) (A) (A) (A) (A) (A) (A) (A) (A) (A) (A)
                 (A) (A) (A) (A) (A) (A) (A) (A) (A) (A) (A) (A)
                 (A) (A) (A) (A) (A) (A) (A) (A) (A) (A) (A) (A)
                 (A) (A) (A) (A) (A) (A) (A) (A) (A) (A) (A) (A)
                 (A) (A) (A) (A) (A) (A) (A) (A) (A) (A) (A) (A)
                 (A) (A) (A) (A) (A) (A) (A) (A) (A) (A) (A) (A)
                 (A) (A) (A) (A) (A) (A) (A) (A) (A) (A) (A) (A)
                 (A) (A) (A) (A) (A) (A) (A) (A) (A) (A) (A) (A)
                 (A) (A) (A) (A) (A) (A) (A) (A) (A) (A) (A) (A)
                 (A) (A) (A) (A) (A) (A) (A) (A) (A) (A) (A) (A)
                 (A) (A) (A) (A) (A) (A) (A) (A) (A) (A) (A) (A)
                 (A) (A) (A) (A) (A) (A) (A) (A) (A) (A) (A) (A)
                 (A) (A) (A) (A) (A) (A) (A) (A) (A) (A) (A) (A)
                 (A) (A) (A) (A) (A) (A) (A) (A) (A) (A) (A) (A)
                 (A) (A) (A) (A) (A) (A) (A) (A) (A) (A) (A) (A)
                 (A) (A) (A) (A) (A) (A) (A) (A) (A) (A) (A) (A)
                 (A) (A) (A) (A) (A) (A) (A) (A) (A) (A) (A) (A)
                 (A) (A) (A) (A) (A) (A) (A) (A) (A) (A) (A) (A)
                 (A) (A) (A) (A) (A) (A) (A)
 The electronic state is 1-A.
 Alpha  occ. eigenvalues --  -19.25598 -19.21922 -19.20570 -14.52400 -14.52339
 Alpha  occ. eigenvalues --  -14.48887 -14.48777 -14.47847 -14.47637 -14.46899
 Alpha  occ. eigenvalues --  -14.46628 -14.45385 -14.44618 -14.44488 -14.42142
 Alpha  occ. eigenvalues --  -14.42050 -14.40944 -14.40464 -14.40234 -14.39829
 Alpha  occ. eigenvalues --  -10.45302 -10.41252 -10.40216 -10.40036 -10.38224
 Alpha  occ. eigenvalues --  -10.37999 -10.37967 -10.37259 -10.35880 -10.34994
 Alpha  occ. eigenvalues --  -10.34991 -10.34412 -10.33827 -10.33386 -10.33212
 Alpha  occ. eigenvalues --  -10.32793 -10.32568 -10.32459 -10.31298 -10.31060
 Alpha  occ. eigenvalues --  -10.30068 -10.28154 -10.27788  -1.19214  -1.15175
 Alpha  occ. eigenvalues --   -1.13202  -1.12919  -1.10642  -1.10463  -1.09586
 Alpha  occ. eigenvalues --   -1.09209  -1.08552  -1.05107  -1.04500  -1.02309
 Alpha  occ. eigenvalues --   -1.00990  -0.99969  -0.99720  -0.98571  -0.97084
 Alpha  occ. eigenvalues --   -0.96669  -0.96149  -0.92193  -0.91157  -0.87666
 Alpha  occ. eigenvalues --   -0.85892  -0.84182  -0.83482  -0.83133  -0.82592
 Alpha  occ. eigenvalues --   -0.81534  -0.78878  -0.77171  -0.74962  -0.74663
 Alpha  occ. eigenvalues --   -0.73637  -0.73236  -0.72318  -0.70602  -0.70365
 Alpha  occ. eigenvalues --   -0.67389  -0.67031  -0.66463  -0.65726  -0.64497
 Alpha  occ. eigenvalues --   -0.64381  -0.63790  -0.62661  -0.62153  -0.61762
 Alpha  occ. eigenvalues --   -0.60705  -0.60292  -0.59923  -0.59533  -0.59383
 Alpha  occ. eigenvalues --   -0.59299  -0.58341  -0.56721  -0.56053  -0.55872
 Alpha  occ. eigenvalues --   -0.55451  -0.55314  -0.55028  -0.54506  -0.54257
 Alpha  occ. eigenvalues --   -0.53789  -0.53666  -0.53489  -0.53102  -0.52985
 Alpha  occ. eigenvalues --   -0.52842  -0.52326  -0.51026  -0.50228  -0.50041
 Alpha  occ. eigenvalues --   -0.49896  -0.49557  -0.49422  -0.49250  -0.48807
 Alpha  occ. eigenvalues --   -0.48346  -0.48324  -0.48066  -0.47767  -0.47289
 Alpha  occ. eigenvalues --   -0.46251  -0.45677  -0.45316  -0.44246  -0.43898
 Alpha  occ. eigenvalues --   -0.40736  -0.40555  -0.39254  -0.37857  -0.37654
 Alpha  occ. eigenvalues --   -0.37303  -0.37294  -0.36370  -0.35668  -0.34917
 Alpha  occ. eigenvalues --   -0.34550  -0.33935  -0.33131  -0.32832  -0.32750
 Alpha  occ. eigenvalues --   -0.32661  -0.32510  -0.32040  -0.31883  -0.30344
 Alpha  occ. eigenvalues --   -0.30202  -0.29811  -0.25533  -0.25215
 Alpha virt. eigenvalues --    0.02608   0.04229   0.06758   0.08533   0.08777
 Alpha virt. eigenvalues --    0.09261   0.09769   0.10587   0.11104   0.11636
 Alpha virt. eigenvalues --    0.13118   0.14424   0.14509   0.14828   0.15153
 Alpha virt. eigenvalues --    0.15402   0.16700   0.16833   0.17379   0.17688
 Alpha virt. eigenvalues --    0.18278   0.19927   0.20242   0.20338   0.20470
 Alpha virt. eigenvalues --    0.20822   0.20925   0.21138   0.21490   0.21856
 Alpha virt. eigenvalues --    0.22091   0.22936   0.23592   0.23668   0.23773
 Alpha virt. eigenvalues --    0.24282   0.24540   0.24757   0.24879   0.25107
 Alpha virt. eigenvalues --    0.25344   0.25708   0.27239   0.27615   0.28071
 Alpha virt. eigenvalues --    0.29131   0.29272   0.29628   0.30347   0.30921
 Alpha virt. eigenvalues --    0.31544   0.32012   0.32343   0.33212   0.33415
 Alpha virt. eigenvalues --    0.34005   0.34515   0.34871   0.35830   0.36279
 Alpha virt. eigenvalues --    0.36677   0.37226   0.37655   0.38833   0.39012
 Alpha virt. eigenvalues --    0.39634   0.40413   0.40897   0.41669   0.41790
 Alpha virt. eigenvalues --    0.41985   0.42606   0.43268   0.43988   0.44272
 Alpha virt. eigenvalues --    0.44636   0.45693   0.46218   0.46665   0.47007
 Alpha virt. eigenvalues --    0.47415   0.47496   0.48421   0.48882   0.49094
 Alpha virt. eigenvalues --    0.49837   0.50269   0.50499   0.50807   0.51182
 Alpha virt. eigenvalues --    0.51247   0.51736   0.52262   0.52969   0.53147
 Alpha virt. eigenvalues --    0.54061   0.54195   0.54620   0.54905   0.55236
 Alpha virt. eigenvalues --    0.55491   0.56376   0.56584   0.57074   0.57381
 Alpha virt. eigenvalues --    0.57594   0.57958   0.58341   0.59039   0.59315
 Alpha virt. eigenvalues --    0.59896   0.60045   0.60463   0.60555   0.60984
 Alpha virt. eigenvalues --    0.61203   0.61925   0.61956   0.62484   0.62913
 Alpha virt. eigenvalues --    0.63260   0.63490   0.63857   0.65020   0.65465
 Alpha virt. eigenvalues --    0.65592   0.65836   0.66116   0.66524   0.66943
 Alpha virt. eigenvalues --    0.67144   0.67383   0.67690   0.67909   0.68770
 Alpha virt. eigenvalues --    0.69389   0.69714   0.70007   0.70957   0.71036
 Alpha virt. eigenvalues --    0.71183   0.72261   0.72357   0.72801   0.73191
 Alpha virt. eigenvalues --    0.73448   0.73820   0.74326   0.74461   0.75076
 Alpha virt. eigenvalues --    0.75321   0.75869   0.76186   0.76299   0.76479
 Alpha virt. eigenvalues --    0.77264   0.77435   0.77816   0.78199   0.78536
 Alpha virt. eigenvalues --    0.78848   0.79197   0.79688   0.80388   0.80574
 Alpha virt. eigenvalues --    0.80789   0.81347   0.81858   0.82133   0.82542
 Alpha virt. eigenvalues --    0.83064   0.83104   0.83657   0.84453   0.84547
 Alpha virt. eigenvalues --    0.85032   0.85743   0.85969   0.86985   0.87457
 Alpha virt. eigenvalues --    0.88049   0.88234   0.88484   0.88908   0.89670
 Alpha virt. eigenvalues --    0.89784   0.90907   0.91408   0.91480   0.91798
 Alpha virt. eigenvalues --    0.92064   0.92636   0.92732   0.93252   0.94200
 Alpha virt. eigenvalues --    0.94638   0.94930   0.95191   0.95442   0.96182
 Alpha virt. eigenvalues --    0.96368   0.96947   0.97582   0.97975   0.98296
 Alpha virt. eigenvalues --    0.98550   0.99196   0.99601   0.99747   1.00198
 Alpha virt. eigenvalues --    1.00691   1.00756   1.01560   1.01669   1.02380
 Alpha virt. eigenvalues --    1.02481   1.03122   1.03901   1.04513   1.04918
 Alpha virt. eigenvalues --    1.05458   1.05606   1.06061   1.06526   1.07234
 Alpha virt. eigenvalues --    1.07329   1.07846   1.08688   1.09530   1.09859
 Alpha virt. eigenvalues --    1.10315   1.11033   1.11950   1.12255   1.12769
 Alpha virt. eigenvalues --    1.13390   1.13725   1.14026   1.14402   1.14891
 Alpha virt. eigenvalues --    1.15550   1.16052   1.16331   1.16724   1.17115
 Alpha virt. eigenvalues --    1.17364   1.17594   1.18045   1.18544   1.18878
 Alpha virt. eigenvalues --    1.19691   1.19697   1.20011   1.20443   1.20640
 Alpha virt. eigenvalues --    1.21291   1.21906   1.22511   1.22742   1.23066
 Alpha virt. eigenvalues --    1.23125   1.23545   1.23684   1.23930   1.24218
 Alpha virt. eigenvalues --    1.24818   1.24907   1.25391   1.26272   1.26568
 Alpha virt. eigenvalues --    1.27810   1.27971   1.28921   1.29269   1.29642
 Alpha virt. eigenvalues --    1.30250   1.31368   1.31975   1.32102   1.32739
 Alpha virt. eigenvalues --    1.33550   1.34090   1.34578   1.35358   1.35853
 Alpha virt. eigenvalues --    1.36265   1.37538   1.38121   1.38274   1.39304
 Alpha virt. eigenvalues --    1.40425   1.41209   1.41598   1.42187   1.43438
 Alpha virt. eigenvalues --    1.44034   1.45648   1.45751   1.46475   1.47216
 Alpha virt. eigenvalues --    1.47711   1.48393   1.49215   1.49649   1.49928
 Alpha virt. eigenvalues --    1.50442   1.51342   1.52394   1.52714   1.53187
 Alpha virt. eigenvalues --    1.53419   1.54771   1.55941   1.56249   1.57006
 Alpha virt. eigenvalues --    1.57593   1.58376   1.58630   1.58940   1.59586
 Alpha virt. eigenvalues --    1.60479   1.61164   1.62074   1.62273   1.62536
 Alpha virt. eigenvalues --    1.62823   1.63639   1.64356   1.65264   1.65630
 Alpha virt. eigenvalues --    1.65966   1.66636   1.67353   1.68023   1.68584
 Alpha virt. eigenvalues --    1.68613   1.69053   1.69431   1.70027   1.70596
 Alpha virt. eigenvalues --    1.71298   1.71954   1.72046   1.72518   1.72761
 Alpha virt. eigenvalues --    1.73754   1.73887   1.74039   1.74277   1.74717
 Alpha virt. eigenvalues --    1.75404   1.75667   1.75843   1.76051   1.76615
 Alpha virt. eigenvalues --    1.76804   1.77265   1.77379   1.77636   1.77996
 Alpha virt. eigenvalues --    1.78401   1.78797   1.79112   1.79429   1.79982
 Alpha virt. eigenvalues --    1.80271   1.80494   1.80944   1.81147   1.81363
 Alpha virt. eigenvalues --    1.82012   1.82290   1.82723   1.83440   1.84036
 Alpha virt. eigenvalues --    1.84502   1.84896   1.85006   1.85253   1.85813
 Alpha virt. eigenvalues --    1.86280   1.87040   1.87381   1.88219   1.88269
 Alpha virt. eigenvalues --    1.88638   1.89197   1.89387   1.90037   1.90285
 Alpha virt. eigenvalues --    1.90792   1.91327   1.91803   1.92767   1.93125
 Alpha virt. eigenvalues --    1.93510   1.94240   1.94713   1.95428   1.96509
 Alpha virt. eigenvalues --    1.96947   1.97867   1.98204   1.99370   2.00138
 Alpha virt. eigenvalues --    2.00712   2.01530   2.01810   2.02394   2.02661
 Alpha virt. eigenvalues --    2.02852   2.03789   2.05102   2.05626   2.05881
 Alpha virt. eigenvalues --    2.06818   2.07762   2.08057   2.08370   2.09374
 Alpha virt. eigenvalues --    2.09465   2.09909   2.10626   2.11075   2.11786
 Alpha virt. eigenvalues --    2.12711   2.13902   2.14538   2.15545   2.16228
 Alpha virt. eigenvalues --    2.17460   2.17723   2.18435   2.20118   2.20686
 Alpha virt. eigenvalues --    2.21376   2.21602   2.22482   2.22717   2.23141
 Alpha virt. eigenvalues --    2.23782   2.24119   2.24965   2.25321   2.26183
 Alpha virt. eigenvalues --    2.26494   2.27184   2.27588   2.28594   2.29628
 Alpha virt. eigenvalues --    2.30038   2.30251   2.30591   2.31451   2.31813
 Alpha virt. eigenvalues --    2.32276   2.33138   2.33355   2.33753   2.33897
 Alpha virt. eigenvalues --    2.34524   2.35040   2.35434   2.35809   2.37055
 Alpha virt. eigenvalues --    2.37434   2.37760   2.38678   2.39482   2.40030
 Alpha virt. eigenvalues --    2.41299   2.41922   2.42956   2.43358   2.43874
 Alpha virt. eigenvalues --    2.44157   2.44703   2.45003   2.45494   2.45903
 Alpha virt. eigenvalues --    2.46960   2.47797   2.49443   2.50853   2.50882
 Alpha virt. eigenvalues --    2.51443   2.51961   2.54365   2.54559   2.55449
 Alpha virt. eigenvalues --    2.56138   2.56759   2.57168   2.57954   2.59103
 Alpha virt. eigenvalues --    2.60598   2.61561   2.62064   2.62223   2.62715
 Alpha virt. eigenvalues --    2.62921   2.64073   2.64774   2.64993   2.65318
 Alpha virt. eigenvalues --    2.65921   2.66092   2.67134   2.67564   2.67917
 Alpha virt. eigenvalues --    2.68849   2.69888   2.70116   2.70801   2.72094
 Alpha virt. eigenvalues --    2.72163   2.74084   2.74496   2.75256   2.76476
 Alpha virt. eigenvalues --    2.76765   2.77050   2.77996   2.78405   2.79025
 Alpha virt. eigenvalues --    2.79301   2.79928   2.80271   2.80471   2.80944
 Alpha virt. eigenvalues --    2.81567   2.81782   2.82146   2.83638   2.83710
 Alpha virt. eigenvalues --    2.83973   2.84792   2.85766   2.86470   2.86846
 Alpha virt. eigenvalues --    2.87475   2.87927   2.88631   2.90153   2.91610
 Alpha virt. eigenvalues --    2.93423   2.94094   2.94557   2.96555   2.97963
 Alpha virt. eigenvalues --    3.00085   3.00752   3.00929   3.03461   3.04439
 Alpha virt. eigenvalues --    3.05620   3.08685   3.10509   3.12416   3.14709
 Alpha virt. eigenvalues --    3.15522   3.15869   3.16514   3.17442   3.19447
 Alpha virt. eigenvalues --    3.20422   3.22354   3.23437   3.24764   3.25087
 Alpha virt. eigenvalues --    3.44007   3.47114   3.47380   3.49177   3.50327
 Alpha virt. eigenvalues --    3.53679   3.54496   3.56133   3.57487   3.59973
 Alpha virt. eigenvalues --    3.63184   3.70477   3.74629
          Condensed to atoms (all electrons):
 Mulliken charges:
               1
     1  N   -0.313242
     2  C    0.182957
     3  C    0.049733
     4  N   -0.255104
     5  C    0.138811
     6  H    0.025123
     7  N   -0.301624
     8  C    0.138164
     9  H    0.009014
    10  N   -0.285670
    11  C    0.260598
    12  C    0.107651
    13  N   -0.069753
    14  H    0.112325
    15  H    0.080912
    16  H    0.021222
    17  H    0.032951
    18  H    0.028675
    19  N   -0.311707
    20  C    0.248972
    21  C    0.180779
    22  N   -0.115917
    23  H    0.114394
    24  H    0.115851
    25  N   -0.311407
    26  C    0.244999
    27  N   -0.149588
    28  H    0.120134
    29  C    0.196937
    30  O   -0.321649
    31  C   -0.015167
    32  N   -0.226636
    33  C    0.128531
    34  H    0.023941
    35  H    0.027899
    36  H    0.029084
    37  H    0.024992
    38  H    0.049898
    39  H    0.060818
    40  H    0.075767
    41  H    0.031238
    42  C   -0.115074
    43  O   -0.256544
    44  C    0.166903
    45  H    0.134047
    46  N   -0.124849
    47  O   -0.348020
    48  C    0.349029
    49  H    0.043740
    50  C    0.153751
    51  C    0.041766
    52  N   -0.278812
    53  H    0.034602
    54  H    0.041346
    55  H    0.028741
    56  H    0.116602
    57  H    0.117849
    58  N   -0.062919
    59  C    0.092454
    60  C    0.248343
    61  N   -0.272603
    62  H    0.038170
    63  C    0.175124
    64  N   -0.316327
    65  H    0.038565
    66  C    0.141302
    67  N   -0.265802
    68  C    0.027979
    69  C    0.179202
    70  N   -0.313470
 Sum of Mulliken charges =  -0.00000
 Mulliken charges with hydrogens summed into heavy atoms:
               1
     1  N   -0.313242
     2  C    0.265805
     3  C    0.049733
     4  N   -0.255104
     5  C    0.163933
     7  N   -0.301624
     8  C    0.147178
    10  N   -0.285670
    11  C    0.260598
    12  C    0.107651
    13  N    0.123483
    19  N   -0.311707
    20  C    0.248972
    21  C    0.262754
    22  N    0.114327
    25  N   -0.311407
    26  C    0.244999
    27  N   -0.029454
    29  C    0.196937
    30  O   -0.321649
    31  C   -0.015167
    32  N   -0.226636
    33  C    0.152472
    42  C   -0.083837
    43  O   -0.256544
    44  C    0.166903
    46  N    0.009198
    47  O   -0.348020
    48  C    0.349029
    50  C    0.197490
    51  C    0.228248
    52  N   -0.278812
    58  N    0.171532
    59  C    0.092454
    60  C    0.248343
    61  N   -0.272603
    63  C    0.213294
    64  N   -0.316327
    66  C    0.179867
    67  N   -0.265802
    68  C    0.027979
    69  C    0.283891
    70  N   -0.313470
 Electronic spatial extent (au):  <R**2>=          22329.5562
 Charge=             -0.0000 electrons
 Dipole moment (field-independent basis, Debye):
    X=             -9.4399    Y=              5.3531    Z=             -0.2748  Tot=             10.8555
 Quadrupole moment (field-independent basis, Debye-Ang):
   XX=           -172.5172   YY=           -206.6655   ZZ=           -249.6990
   XY=              7.4634   XZ=            -11.9228   YZ=              0.7914
 Traceless Quadrupole moment (field-independent basis, Debye-Ang):
   XX=             37.1100   YY=              2.9618   ZZ=            -40.0718
   XY=              7.4634   XZ=            -11.9228   YZ=              0.7914
 Octapole moment (field-independent basis, Debye-Ang**2):
  XXX=             56.9724  YYY=            152.1167  ZZZ=             22.0675  XYY=            -81.6536
  XXY=             58.3788  XXZ=            -31.1016  XZZ=            -59.9337  YZZ=             15.1937
  YYZ=            -20.2328  XYZ=             92.5109
 Hexadecapole moment (field-independent basis, Debye-Ang**3):
 XXXX=         -14325.1280 YYYY=          -7485.5442 ZZZZ=          -4139.1370 XXXY=           -563.9674
 XXXZ=           -244.5376 YYYX=            278.5079 YYYZ=              4.4248 ZZZX=            -38.7063
 ZZZY=            -70.0223 XXYY=          -2881.3699 XXZZ=          -3377.5441 YYZZ=          -2003.8070
 XXYZ=            -98.9470 YYXZ=             78.0045 ZZXY=            -54.9704
 N-N= 5.415640242598D+03 E-N=-1.561213208080D+04  KE= 2.037657678387D+03
 No NMR shielding tensors so no spin-rotation constants.
 Leave Link  601 at Fri Jan 26 22:42:49 2018, MaxMem=  4294967296 cpu:              50.0 elap:               1.8
 (Enter /share/apps/g16/l9999.exe)
 1\1\GINC-COMPUTE-0-3\SP\RwB97XD\CC-pVDZ\C23H27N17O3\SATYA\26-Jan-2018\
 0\\#p wb97xd/cc-pvdz sp scf=(maxcycles=20)\\Base pair stacking\\0,1\N,
 0,4.14048,-3.45048,-5.58646\C,0,5.59389,-3.19568,-5.56047\C,0,1.96624,
 -3.22488,-5.82956\N,0,2.17391,-4.52003,-5.37767\C,0,3.4755,-4.6041,-5.
 2493\H,0,4.00888,-5.49229,-4.90934\N,0,0.94047,-1.23708,-6.57749\C,0,2
 .17159,-0.7216,-6.65633\H,0,2.22234,0.31071,-6.99988\N,0,3.34391,-1.28
 718,-6.37583\C,0,3.16911,-2.55347,-5.96306\C,0,0.79807,-2.5136,-6.1587
 8\N,0,-0.43004,-3.02994,-6.07942\H,0,-0.58259,-3.97068,-5.77452\H,0,-1
 .23904,-2.49435,-6.32189\H,0,6.05711,-3.83703,-6.17225\H,0,5.77441,-2.
 2598,-5.86159\H,0,5.93909,-3.31703,-4.62982\N,0,2.97056,2.24783,-3.136
 16\C,0,1.67012,1.82605,-3.274\C,0,3.43553,3.64212,-3.27922\N,0,-1.6707
 7,2.53437,-3.90527\H,0,-2.53325,2.03225,-3.96229\H,0,-1.70901,3.52133,
 -4.06391\N,0,0.60713,2.6082,-3.56098\C,0,-0.51437,1.91301,-3.62857\N,0
 ,-0.59115,0.55565,-3.4306\H,0,-1.49159,0.10721,-3.50185\C,0,0.48959,-0
 .269,-3.13427\O,0,0.31218,-1.48294,-2.9742\C,0,1.70137,0.46358,-3.0583
 6\N,0,2.9954,0.03855,-2.79054\C,0,3.712,1.12827,-2.8472\H,0,4.78963,1.
 17191,-2.68567\H,0,4.10559,3.69757,-4.01864\H,0,2.65673,4.23077,-3.491
 9\H,0,3.85668,3.94413,-2.42469\H,0,-6.14212,-1.61364,-4.62608\H,0,-6.3
 3738,-1.61837,-2.87494\H,0,-5.29514,-0.41971,-3.64195\H,0,-3.76274,-5.
 63651,-3.48517\C,0,-3.61458,-4.55674,-3.46574\O,0,-1.26125,-4.69922,-3
 .20372\C,0,-2.29071,-4.03423,-3.31671\H,0,-1.29574,-2.24959,-3.20095\N
 ,0,-2.21485,-2.65606,-3.30453\O,0,-3.08897,-0.5621,-3.39635\C,0,-3.255
 79,-1.76889,-3.41821\H,0,-5.67613,-4.06322,-3.69427\C,0,-4.65,-3.71668
 ,-3.57892\C,0,-5.64416,-1.44077,-3.68363\N,0,-4.50104,-2.34928,-3.5586
 2\H,0,-5.05031,3.43588,-8.80375\H,0,-3.89969,3.39263,-7.64776\H,0,-5.4
 5009,3.70534,-7.24458\H,0,-4.04783,-3.5414,-6.48469\H,0,-5.56677,-2.94
 122,-6.97732\N,0,-4.60636,-2.7599,-6.76297\C,0,-4.09419,-1.5302,-6.844
 89\C,0,-4.16602,0.8101,-7.26861\N,0,-2.87284,1.02399,-6.97475\H,0,-1.2
 2345,-0.03158,-6.36986\C,0,-2.27888,-0.11535,-6.62542\N,0,-2.79013,-1.
 34797,-6.54276\H,0,-7.18355,1.54367,-8.16782\C,0,-6.26792,1.04585,-7.8
 473\N,0,-6.16487,-0.23684,-7.59877\C,0,-4.83716,-0.39972,-7.23081\C,0,
 -4.85477,3.18385,-7.85599\N,0,-5.09642,1.74018,-7.66778\\Version=EM64L
 -G16RevA.03\State=1-A\HF=-2048.7442956\RMSD=6.773e-09\Dipole=-3.440192
 7,2.3985806,-0.8077339\Quadrupole=29.471019,1.485386,-30.956405,3.1006
 214,3.0255837,1.8035913\PG=C01 [X(C23H27N17O3)]\\@


 BULLDOZER: SOMEONE WHO SLEEPS THROUGH SPEECHES.
 Job cpu time:       0 days  5 hours 33 minutes 51.8 seconds.
 Elapsed time:       0 days  0 hours 10 minutes 47.0 seconds.
 File lengths (MBytes):  RWF=    298 Int=      0 D2E=      0 Chk=     33 Scr=      1
 Normal termination of Gaussian 16 at Fri Jan 26 22:42:49 2018.
