 Entering Gaussian System, Link 0=g16
 Input=str60.0.-2.5.com
 Output=str60.0.-2.5.log
 Initial command:
 /share/apps/g16/l1.exe "/state/partition1/scr/Gau-14598.inp" -scrdir="/state/partition1/scr/"
 Entering Link 1 = /share/apps/g16/l1.exe PID=     14599.
  
 Copyright (c) 1988,1990,1992,1993,1995,1998,2003,2009,2016,
            Gaussian, Inc.  All Rights Reserved.
  
 This is part of the Gaussian(R) 16 program.  It is based on
 the Gaussian(R) 09 system (copyright 2009, Gaussian, Inc.),
 the Gaussian(R) 03 system (copyright 2003, Gaussian, Inc.),
 the Gaussian(R) 98 system (copyright 1998, Gaussian, Inc.),
 the Gaussian(R) 94 system (copyright 1995, Gaussian, Inc.),
 the Gaussian 92(TM) system (copyright 1992, Gaussian, Inc.),
 the Gaussian 90(TM) system (copyright 1990, Gaussian, Inc.),
 the Gaussian 88(TM) system (copyright 1988, Gaussian, Inc.),
 the Gaussian 86(TM) system (copyright 1986, Carnegie Mellon
 University), and the Gaussian 82(TM) system (copyright 1983,
 Carnegie Mellon University). Gaussian is a federally registered
 trademark of Gaussian, Inc.
  
 This software contains proprietary and confidential information,
 including trade secrets, belonging to Gaussian, Inc.
  
 This software is provided under written license and may be
 used, copied, transmitted, or stored only in accord with that
 written license.
  
 The following legend is applicable only to US Government
 contracts under FAR:
  
                    RESTRICTED RIGHTS LEGEND
  
 Use, reproduction and disclosure by the US Government is
 subject to restrictions as set forth in subparagraphs (a)
 and (c) of the Commercial Computer Software - Restricted
 Rights clause in FAR 52.227-19.
  
 Gaussian, Inc.
 340 Quinnipiac St., Bldg. 40, Wallingford CT 06492
  
  
 ---------------------------------------------------------------
 Warning -- This program may not be used in any manner that
 competes with the business of Gaussian, Inc. or will provide
 assistance to any competitor of Gaussian, Inc.  The licensee
 of this program is prohibited from giving any competitor of
 Gaussian, Inc. access to this program.  By using this program,
 the user acknowledges that Gaussian, Inc. is engaged in the
 business of creating and licensing software in the field of
 computational chemistry and represents and warrants to the
 licensee that it is not a competitor of Gaussian, Inc. and that
 it will not use this program in any manner prohibited above.
 ---------------------------------------------------------------
  

 Cite this work as:
 Gaussian 16, Revision A.03,
 M. J. Frisch, G. W. Trucks, H. B. Schlegel, G. E. Scuseria, 
 M. A. Robb, J. R. Cheeseman, G. Scalmani, V. Barone, 
 G. A. Petersson, H. Nakatsuji, X. Li, M. Caricato, A. V. Marenich, 
 J. Bloino, B. G. Janesko, R. Gomperts, B. Mennucci, H. P. Hratchian, 
 J. V. Ortiz, A. F. Izmaylov, J. L. Sonnenberg, D. Williams-Young, 
 F. Ding, F. Lipparini, F. Egidi, J. Goings, B. Peng, A. Petrone, 
 T. Henderson, D. Ranasinghe, V. G. Zakrzewski, J. Gao, N. Rega, 
 G. Zheng, W. Liang, M. Hada, M. Ehara, K. Toyota, R. Fukuda, 
 J. Hasegawa, M. Ishida, T. Nakajima, Y. Honda, O. Kitao, H. Nakai, 
 T. Vreven, K. Throssell, J. A. Montgomery, Jr., J. E. Peralta, 
 F. Ogliaro, M. J. Bearpark, J. J. Heyd, E. N. Brothers, K. N. Kudin, 
 V. N. Staroverov, T. A. Keith, R. Kobayashi, J. Normand, 
 K. Raghavachari, A. P. Rendell, J. C. Burant, S. S. Iyengar, 
 J. Tomasi, M. Cossi, J. M. Millam, M. Klene, C. Adamo, R. Cammi, 
 J. W. Ochterski, R. L. Martin, K. Morokuma, O. Farkas, 
 J. B. Foresman, and D. J. Fox, Gaussian, Inc., Wallingford CT, 2016.
 
 ******************************************
 Gaussian 16:  EM64L-G16RevA.03 25-Dec-2016
                 1-Feb-2018 
 ******************************************
 %nprocshared=32
 Will use up to   32 processors via shared memory.
 %mem=32GB
 %chk=allatoms_t.chk
 ---------------------------------------
 #p wb97xd/cc-pvdz sp scf=(maxcycles=20)
 ---------------------------------------
 1/38=1,172=1/1;
 2/12=2,17=6,18=5,40=1/2;
 3/5=16,11=2,25=1,30=1,74=-58/1,2,3;
 4//1;
 5/5=2,7=20,38=5/2;
 6/7=2,8=2,9=2,10=2,28=1/1;
 99/5=1,9=1/99;
 Leave Link    1 at Thu Feb  1 13:37:19 2018, MaxMem=  4294967296 cpu:               6.6 elap:               0.2
 (Enter /share/apps/g16/l101.exe)
 ------------------
 Base pair stacking
 ------------------
 Symbolic Z-matrix:
 Charge =  0 Multiplicity = 1
 N                     9.36817   0.49365  -6.47105 
 C                     10.81206   0.78119  -6.57363 
 C                     7.18046   0.7002   -6.3785 
 N                     7.44761  -0.65596  -6.25948 
 C                     8.75493  -0.72613  -6.32 
 H                     9.32967  -1.65074  -6.25909 
 N                     6.06237   2.77186  -6.52372 
 C                     7.27173   3.32986  -6.6407 
 H                     7.27539   4.41381  -6.74702 
 N                     8.47159   2.75264  -6.64602 
 C                     8.35441   1.42144  -6.50964 
 C                     5.97809   1.43038  -6.38803 
 N                     4.77179   0.87152  -6.27112 
 H                     4.66199  -0.11775  -6.1686 
 H                     3.93713   1.42231  -6.28203 
 H                     11.19219   0.3068   -7.36775 
 H                     10.95008   1.76575  -6.67715 
 H                     11.27636   0.46646  -5.74576 
 N                     4.67628   5.71964  -3.26456 
 C                     3.36827   5.29872  -3.26328 
 C                     5.1209    7.12451  -3.36129 
 N                    -0.02525   6.02494  -3.39872 
 H                    -0.88862   5.52145  -3.38065 
 H                    -0.08224   7.02068  -3.47605 
 N                     2.27822   6.09144  -3.34948 
 C                     1.15634   5.39409  -3.32272 
 N                     1.10381   4.02512  -3.21948 
 H                     0.20104   3.5759   -3.20649 
 C                     2.21262   3.18945  -3.12957 
 O                     2.05561   1.96551  -3.03986 
 C                     3.42516   3.92421  -3.15705 
 N                     4.74237   3.49092  -3.09292 
 C                     5.44724   4.58767  -3.16 
 H                     6.5368    4.62793  -3.13738 
 H                     5.68883   7.24082  -4.17537 
 H                     4.32198   7.72104  -3.42565 
 H                     5.65047   7.36497  -2.54855 
 H                    -4.55927   1.90612  -3.84208 
 H                    -4.52434   1.76834  -2.08582 
 H                    -3.58914   3.02973  -2.88935 
 H                    -2.05799  -2.17134  -3.32784 
 C                    -1.90678  -1.09489  -3.2464 
 O                     0.46038  -1.2373   -3.30466 
 C                    -0.57393  -0.57418  -3.23206 
 H                     0.43059   1.20485  -3.11248 
 N                    -0.49485   0.79976  -3.12585 
 O                    -1.37002   2.88745  -2.94466 
 C                    -1.54026   1.68437  -3.03565 
 H                    -3.97971  -0.60258  -3.16654 
 C                    -2.94673  -0.25725  -3.16 
 C                    -3.9423    2.01184  -2.96218 
 N                    -2.79414   1.10594  -3.05609 
 H                    -0.17589   7.6352   -6.86174 
 H                     1.11628   7.37135  -5.90113 
 H                    -0.36847   7.53825  -5.24405 
 H                     1.13291   0.35124  -6.31721 
 H                    -0.43843   0.99866  -6.46493 
 N                     0.54149   1.15739  -6.33931 
 C                     1.03653   2.38973  -6.20724 
 C                     0.90605   4.76225  -6.08142 
 N                     2.22624   4.94532  -5.91402 
 H                     3.94234   3.83322  -5.77681 
 C                     2.86267   3.77578  -5.90822 
 N                     2.36864   2.54045  -6.04035 
 H                    -2.20443   5.58371  -6.40123 
 C                    -1.2539    5.05566  -6.32 
 N                    -1.11712   3.75365  -6.38132 
 C                     0.2476    3.55417  -6.23142 
 C                     0.14249   7.18468  -6.02768 
 N                    -0.0701    5.72856  -6.13959 
 
 ITRead=  0  0  0  0  0  0  0  0  0  0  0  0  0  0  0  0  0  0  0  0
 ITRead=  0  0  0  0  0  0  0  0  0  0  0  0  0  0  0  0  0  0  0  0
 ITRead=  0  0  0  0  0  0  0  0  0  0  0  0  0  0  0  0  0  0  0  0
 ITRead=  0  0  0  0  0  0  0  0  0  0
 MicOpt= -1 -1 -1 -1 -1 -1 -1 -1 -1 -1 -1 -1 -1 -1 -1 -1 -1 -1 -1 -1
 MicOpt= -1 -1 -1 -1 -1 -1 -1 -1 -1 -1 -1 -1 -1 -1 -1 -1 -1 -1 -1 -1
 MicOpt= -1 -1 -1 -1 -1 -1 -1 -1 -1 -1 -1 -1 -1 -1 -1 -1 -1 -1 -1 -1
 MicOpt= -1 -1 -1 -1 -1 -1 -1 -1 -1 -1
 NAtoms=     70 NQM=       70 NQMF=       0 NMMI=      0 NMMIF=      0
                NMic=       0 NMicF=      0.
                    Isotopes and Nuclear Properties:
 (Nuclear quadrupole moments (NQMom) in fm**2, nuclear magnetic moments (NMagM)
  in nuclear magnetons)

  Atom         1           2           3           4           5           6           7           8           9          10
 IAtWgt=          14          12          12          14          12           1          14          12           1          14
 AtmWgt=  14.0030740  12.0000000  12.0000000  14.0030740  12.0000000   1.0078250  14.0030740  12.0000000   1.0078250  14.0030740
 NucSpn=           2           0           0           2           0           1           2           0           1           2
 AtZEff=  -0.0000000  -0.0000000  -0.0000000  -0.0000000  -0.0000000  -0.0000000  -0.0000000  -0.0000000  -0.0000000  -0.0000000
 NQMom=    2.0440000   0.0000000   0.0000000   2.0440000   0.0000000   0.0000000   2.0440000   0.0000000   0.0000000   2.0440000
 NMagM=    0.4037610   0.0000000   0.0000000   0.4037610   0.0000000   2.7928460   0.4037610   0.0000000   2.7928460   0.4037610
 AtZNuc=   7.0000000   6.0000000   6.0000000   7.0000000   6.0000000   1.0000000   7.0000000   6.0000000   1.0000000   7.0000000

  Atom        11          12          13          14          15          16          17          18          19          20
 IAtWgt=          12          12          14           1           1           1           1           1          14          12
 AtmWgt=  12.0000000  12.0000000  14.0030740   1.0078250   1.0078250   1.0078250   1.0078250   1.0078250  14.0030740  12.0000000
 NucSpn=           0           0           2           1           1           1           1           1           2           0
 AtZEff=  -0.0000000  -0.0000000  -0.0000000  -0.0000000  -0.0000000  -0.0000000  -0.0000000  -0.0000000  -0.0000000  -0.0000000
 NQMom=    0.0000000   0.0000000   2.0440000   0.0000000   0.0000000   0.0000000   0.0000000   0.0000000   2.0440000   0.0000000
 NMagM=    0.0000000   0.0000000   0.4037610   2.7928460   2.7928460   2.7928460   2.7928460   2.7928460   0.4037610   0.0000000
 AtZNuc=   6.0000000   6.0000000   7.0000000   1.0000000   1.0000000   1.0000000   1.0000000   1.0000000   7.0000000   6.0000000

  Atom        21          22          23          24          25          26          27          28          29          30
 IAtWgt=          12          14           1           1          14          12          14           1          12          16
 AtmWgt=  12.0000000  14.0030740   1.0078250   1.0078250  14.0030740  12.0000000  14.0030740   1.0078250  12.0000000  15.9949146
 NucSpn=           0           2           1           1           2           0           2           1           0           0
 AtZEff=  -0.0000000  -0.0000000  -0.0000000  -0.0000000  -0.0000000  -0.0000000  -0.0000000  -0.0000000  -0.0000000  -0.0000000
 NQMom=    0.0000000   2.0440000   0.0000000   0.0000000   2.0440000   0.0000000   2.0440000   0.0000000   0.0000000   0.0000000
 NMagM=    0.0000000   0.4037610   2.7928460   2.7928460   0.4037610   0.0000000   0.4037610   2.7928460   0.0000000   0.0000000
 AtZNuc=   6.0000000   7.0000000   1.0000000   1.0000000   7.0000000   6.0000000   7.0000000   1.0000000   6.0000000   8.0000000

  Atom        31          32          33          34          35          36          37          38          39          40
 IAtWgt=          12          14          12           1           1           1           1           1           1           1
 AtmWgt=  12.0000000  14.0030740  12.0000000   1.0078250   1.0078250   1.0078250   1.0078250   1.0078250   1.0078250   1.0078250
 NucSpn=           0           2           0           1           1           1           1           1           1           1
 AtZEff=  -0.0000000  -0.0000000  -0.0000000  -0.0000000  -0.0000000  -0.0000000  -0.0000000  -0.0000000  -0.0000000  -0.0000000
 NQMom=    0.0000000   2.0440000   0.0000000   0.0000000   0.0000000   0.0000000   0.0000000   0.0000000   0.0000000   0.0000000
 NMagM=    0.0000000   0.4037610   0.0000000   2.7928460   2.7928460   2.7928460   2.7928460   2.7928460   2.7928460   2.7928460
 AtZNuc=   6.0000000   7.0000000   6.0000000   1.0000000   1.0000000   1.0000000   1.0000000   1.0000000   1.0000000   1.0000000

  Atom        41          42          43          44          45          46          47          48          49          50
 IAtWgt=           1          12          16          12           1          14          16          12           1          12
 AtmWgt=   1.0078250  12.0000000  15.9949146  12.0000000   1.0078250  14.0030740  15.9949146  12.0000000   1.0078250  12.0000000
 NucSpn=           1           0           0           0           1           2           0           0           1           0
 AtZEff=  -0.0000000  -0.0000000  -0.0000000  -0.0000000  -0.0000000  -0.0000000  -0.0000000  -0.0000000  -0.0000000  -0.0000000
 NQMom=    0.0000000   0.0000000   0.0000000   0.0000000   0.0000000   2.0440000   0.0000000   0.0000000   0.0000000   0.0000000
 NMagM=    2.7928460   0.0000000   0.0000000   0.0000000   2.7928460   0.4037610   0.0000000   0.0000000   2.7928460   0.0000000
 AtZNuc=   1.0000000   6.0000000   8.0000000   6.0000000   1.0000000   7.0000000   8.0000000   6.0000000   1.0000000   6.0000000

  Atom        51          52          53          54          55          56          57          58          59          60
 IAtWgt=          12          14           1           1           1           1           1          14          12          12
 AtmWgt=  12.0000000  14.0030740   1.0078250   1.0078250   1.0078250   1.0078250   1.0078250  14.0030740  12.0000000  12.0000000
 NucSpn=           0           2           1           1           1           1           1           2           0           0
 AtZEff=  -0.0000000  -0.0000000  -0.0000000  -0.0000000  -0.0000000  -0.0000000  -0.0000000  -0.0000000  -0.0000000  -0.0000000
 NQMom=    0.0000000   2.0440000   0.0000000   0.0000000   0.0000000   0.0000000   0.0000000   2.0440000   0.0000000   0.0000000
 NMagM=    0.0000000   0.4037610   2.7928460   2.7928460   2.7928460   2.7928460   2.7928460   0.4037610   0.0000000   0.0000000
 AtZNuc=   6.0000000   7.0000000   1.0000000   1.0000000   1.0000000   1.0000000   1.0000000   7.0000000   6.0000000   6.0000000

  Atom        61          62          63          64          65          66          67          68          69          70
 IAtWgt=          14           1          12          14           1          12          14          12          12          14
 AtmWgt=  14.0030740   1.0078250  12.0000000  14.0030740   1.0078250  12.0000000  14.0030740  12.0000000  12.0000000  14.0030740
 NucSpn=           2           1           0           2           1           0           2           0           0           2
 AtZEff=  -0.0000000  -0.0000000  -0.0000000  -0.0000000  -0.0000000  -0.0000000  -0.0000000  -0.0000000  -0.0000000  -0.0000000
 NQMom=    2.0440000   0.0000000   0.0000000   2.0440000   0.0000000   0.0000000   2.0440000   0.0000000   0.0000000   2.0440000
 NMagM=    0.4037610   2.7928460   0.0000000   0.4037610   2.7928460   0.0000000   0.4037610   0.0000000   0.0000000   0.4037610
 AtZNuc=   7.0000000   1.0000000   6.0000000   7.0000000   1.0000000   6.0000000   7.0000000   6.0000000   6.0000000   7.0000000
 Leave Link  101 at Thu Feb  1 13:37:19 2018, MaxMem=  4294967296 cpu:              11.4 elap:               0.4
 (Enter /share/apps/g16/l202.exe)
 Stoichiometry    C23H27N17O3
 Framework group  C1[X(C23H27N17O3)]
 Deg. of freedom   204
 Full point group                 C1      NOp   1
 Largest Abelian subgroup         C1      NOp   1
 Largest concise Abelian subgroup C1      NOp   1
                         Standard orientation:                         
 ---------------------------------------------------------------------
 Center     Atomic      Atomic             Coordinates (Angstroms)
 Number     Number       Type             X           Y           Z
 ---------------------------------------------------------------------
      1          7           0       -7.198547   -1.622448    0.069448
      2          6           0       -8.592264   -1.188474   -0.147897
      3          6           0       -5.037534   -1.641491    0.478060
      4          7           0       -5.403636   -2.962387    0.263799
      5          6           0       -6.690912   -2.898057    0.026200
      6          1           0       -7.325478   -3.758356   -0.188633
      7          7           0       -3.782100    0.303476    0.929699
      8          6           0       -4.925081    0.982286    0.786831
      9          1           0       -4.845424    2.060328    0.920046
     10          7           0       -6.145925    0.531483    0.505421
     11          6           0       -6.133258   -0.804019    0.361553
     12          6           0       -3.802483   -1.038872    0.778801
     13          7           0       -2.662567   -1.718223    0.921024
     14          1           0       -2.630878   -2.713020    0.818089
     15          1           0       -1.801847   -1.256238    1.135210
     16          1           0       -9.187805   -1.625184    0.526482
     17          1           0       -8.651988   -0.195465   -0.050479
     18          1           0       -8.885326   -1.449695   -1.067613
     19          7           0       -1.407412    3.109189   -1.849079
     20          6           0       -0.181546    2.556014   -1.567449
     21          6           0       -1.721021    4.551835   -1.815532
     22          7           0        3.147412    2.928765   -0.650490
     23          1           0        3.938126    2.339263   -0.487720
     24          1           0        3.283675    3.912972   -0.534324
     25          7           0        0.933473    3.232011   -1.215589
     26          6           0        1.957419    2.423140   -1.008489
     27          7           0        1.896186    1.056553   -1.135712
     28          1           0        2.729294    0.516956   -0.957590
     29          6           0        0.759581    0.339782   -1.496621
     30          8           0        0.810864   -0.893357   -1.583045
     31          6           0       -0.348659    1.195182   -1.722394
     32          7           0       -1.653178    0.899955   -2.093832
     33          6           0       -2.242709    2.063025   -2.156468
     34          1           0       -3.289201    2.215217   -2.422863
     35          1           0       -2.444547    4.721898   -1.147409
     36          1           0       -0.902531    5.062728   -1.556058
     37          1           0       -2.025776    4.849491   -2.719599
     38          1           0        7.031652   -1.636579    0.687007
     39          1           0        7.382863   -1.761349   -1.035124
     40          1           0        6.419297   -0.414472   -0.427813
     41          1           0        4.321270   -5.432636   -0.492105
     42          6           0        4.299855   -4.345954   -0.575203
     43          8           0        1.979119   -4.244491   -1.055837
     44          6           0        3.063351   -3.690889   -0.874835
     45          1           0        2.293444   -1.817428   -1.167576
     46          7           0        3.146901   -2.315591   -0.957433
     47          8           0        4.242671   -0.328087   -0.877960
     48          6           0        4.267815   -1.542730   -0.784837
     49          1           0        6.375081   -4.069015   -0.172055
     50          6           0        5.409966   -3.619271   -0.401459
     51          6           0        6.644124   -1.463628   -0.305950
     52          7           0        5.420710   -2.247119   -0.498682
     53          1           0        2.666658    4.497852    2.801318
     54          1           0        1.606692    4.373023    1.567226
     55          1           0        3.210877    4.389616    1.266548
     56          1           0        0.800955   -2.610137    1.771181
     57          1           0        2.353914   -2.128462    2.287310
     58          7           0        1.448761   -1.869193    1.948642
     59          6           0        1.121159   -0.591844    1.743152
     60          6           0        1.511076    1.755276    1.716769
     61          7           0        0.288149    2.073951    1.261428
     62          1           0       -1.453461    1.144898    0.709844
     63          6           0       -0.442949    0.976095    1.079475
     64          7           0       -0.116636   -0.304124    1.284712
     65          1           0        4.533389    2.250953    2.752187
     66          6           0        3.578624    1.823849    2.444050
     67          7           0        3.303253    0.542518    2.436317
     68          6           0        1.995329    0.485167    1.977223
     69          6           0        2.502928    4.086588    1.904632
     70          7           0        2.539297    2.615791    2.020552
 ---------------------------------------------------------------------
 Rotational constants (GHZ):           0.1215822           0.0523018           0.0431453
 Leave Link  202 at Thu Feb  1 13:37:20 2018, MaxMem=  4294967296 cpu:               5.0 elap:               0.2
 (Enter /share/apps/g16/l301.exe)
 Standard basis: CC-pVDZ (5D, 7F)
 Ernie: Thresh=  0.10000D-02 Tol=  0.10000D-05 Strict=F.
 Ernie:  86 primitive shells out of 1081 were deleted.
 There are   780 symmetry adapted cartesian basis functions of A   symmetry.
 There are   737 symmetry adapted basis functions of A   symmetry.
   737 basis functions,  1608 primitive gaussians,   780 cartesian basis functions
   154 alpha electrons      154 beta electrons
       nuclear repulsion energy      5393.1482585479 Hartrees.
 IExCor= 4639 DFT=T Ex+Corr=wB97XD ExCW=0 ScaHFX=  1.000000
 ScaDFX=  1.000000  1.000000  1.000000  1.000000 ScalE2=  1.000000  1.000000
 IRadAn=      5 IRanWt=     -1 IRanGd=            0 ICorTp=0 IEmpDi=121
 HFx  wShort=  0.000000 wLong=  0.200000 cFull=  0.222036 cShort=  0.000000 cLong=  0.777964
 DFx  wShort=  0.000000 wLong=  0.200000 cFull=  0.000000 cShort=  0.000000 cLong=  1.000000
 NAtoms=   70 NActive=   70 NUniq=   70 SFac= 1.00D+00 NAtFMM=   60 NAOKFM=T Big=T
 Integral buffers will be    131072 words long.
 Raffenetti 2 integral format.
 Two-electron integral symmetry is turned on.
 R6Disp:  Grimme-D2 Dispersion energy=       -0.0672619659 Hartrees.
 Nuclear repulsion after empirical dispersion term =     5393.0809965820 Hartrees.
 Leave Link  301 at Thu Feb  1 13:37:20 2018, MaxMem=  4294967296 cpu:               4.3 elap:               0.2
 (Enter /share/apps/g16/l302.exe)
 NPDir=0 NMtPBC=     1 NCelOv=     1 NCel=       1 NClECP=     1 NCelD=      1
         NCelK=      1 NCelE2=     1 NClLst=     1 CellRange=     0.0.
 One-electron integrals computed using PRISM.
 One-electron integral symmetry used in STVInt
 NBasis=   737 RedAO= T EigKep=  6.66D-04  NBF=   737
 NBsUse=   737 1.00D-06 EigRej= -1.00D+00 NBFU=   737
 Precomputing XC quadrature grid using
 IXCGrd= 4 IRadAn=           5 IRanWt=          -1 IRanGd=           0 AccXCQ= 0.00D+00.
 Generated NRdTot=       0 NPtTot=           0 NUsed=           0 NTot=          32
 NSgBfM=   760   760   760   760   760 MxSgAt=    70 MxSgA2=    70.
 Leave Link  302 at Thu Feb  1 13:37:33 2018, MaxMem=  4294967296 cpu:             354.3 elap:              12.9
 (Enter /share/apps/g16/l303.exe)
 DipDrv:  MaxL=1.
 Leave Link  303 at Thu Feb  1 13:37:34 2018, MaxMem=  4294967296 cpu:              22.1 elap:               0.9
 (Enter /share/apps/g16/l401.exe)
 ExpMin= 1.22D-01 ExpMax= 1.17D+04 ExpMxC= 4.01D+02 IAcc=3 IRadAn=         5 AccDes= 0.00D+00
 Harris functional with IExCor= 4639 and IRadAn=       5 diagonalized for initial guess.
 HarFok:  IExCor= 4639 AccDes= 0.00D+00 IRadAn=         5 IDoV= 1 UseB2=F ITyADJ=14
 ICtDFT=  3500011 ScaDFX=  1.000000  1.000000  1.000000  1.000000
 FoFCou: FMM=F IPFlag=           0 FMFlag=      100000 FMFlg1=        2001
         NFxFlg=           0 DoJE=T BraDBF=F KetDBF=T FulRan=T
         wScrn=  0.000000 ICntrl=       500 IOpCl=  0 I1Cent=   200000004 NGrid=           0
         NMat0=    1 NMatS0=      1 NMatT0=    0 NMatD0=    1 NMtDS0=    0 NMtDT0=    0
 Petite list used in FoFCou.
 Harris En= -1963.85886158558    
 JPrj=0 DoOrth=F DoCkMO=F.
 Leave Link  401 at Thu Feb  1 13:37:51 2018, MaxMem=  4294967296 cpu:             486.5 elap:              17.8
 (Enter /share/apps/g16/l502.exe)
 Integral symmetry usage will be decided dynamically.
 Closed shell SCF:
 Using DIIS extrapolation, IDIIS=  1040.
 NGot=  4294967296 LenX=  4293717438 LenY=  4293108258
 Requested convergence on RMS density matrix=1.00D-08 within  20 cycles.
 Requested convergence on MAX density matrix=1.00D-06.
 Requested convergence on             energy=1.00D-06.
 No special actions if energy rises.
 Fock matrices will be formed incrementally for  20 cycles.
 Integral accuracy reduced to 1.0D-05 until final iterations.

 Cycle   1  Pass 0  IDiag  1:
 FoFJK:  IHMeth= 1 ICntrl=       0 DoSepK=T KAlg= 0 I1Cent=           0 FoldK=F
 IRaf=         1 NMat=       1 IRICut=       1 DoRegI=T DoRafI=F ISym2E= 0 IDoP0=0 IntGTp=1.
 FoFCou: FMM=T IPFlag=           0 FMFlag=      100000 FMFlg1=        2001
         NFxFlg=           0 DoJE=T BraDBF=F KetDBF=F FulRan=T
         wScrn=  0.000000 ICntrl=       500 IOpCl=  0 I1Cent=           0 NGrid=           0
         NMat0=    1 NMatS0=      1 NMatT0=    0 NMatD0=    1 NMtDS0=    0 NMtDT0=    0
 Symmetry not used in FoFCou.
 FMM levels:  10  Number of levels for PrismC:   9
 E= -2048.28787655319    
 DIIS: error= 2.28D-02 at cycle   1 NSaved=   1.
 NSaved= 1 IEnMin= 1 EnMin= -2048.28787655319     IErMin= 1 ErrMin= 2.28D-02
 ErrMax= 2.28D-02  0.00D+00 EMaxC= 1.00D-01 BMatC= 8.34D-01 BMatP= 8.34D-01
 IDIUse=3 WtCom= 7.72D-01 WtEn= 2.28D-01
 Coeff-Com:  0.100D+01
 Coeff-En:   0.100D+01
 Coeff:      0.100D+01
 Gap=     0.263 Goal=   None    Shift=    0.000
 GapD=    0.263 DampG=1.000 DampE=0.500 DampFc=0.5000 IDamp=-1.
 Damping current iteration by 5.00D-01
 RMSDP=1.60D-03 MaxDP=1.29D-01              OVMax= 2.10D-01

 Cycle   2  Pass 0  IDiag  1:
 RMSU=  7.98D-04    CP:  9.98D-01
 E= -2048.48625024050     Delta-E=       -0.198373687313 Rises=F Damp=T
 DIIS: error= 1.26D-02 at cycle   2 NSaved=   2.
 NSaved= 2 IEnMin= 2 EnMin= -2048.48625024050     IErMin= 2 ErrMin= 1.26D-02
 ErrMax= 1.26D-02  0.00D+00 EMaxC= 1.00D-01 BMatC= 1.45D-01 BMatP= 8.34D-01
 IDIUse=3 WtCom= 8.74D-01 WtEn= 1.26D-01
 Coeff-Com: -0.193D+00 0.119D+01
 Coeff-En:   0.000D+00 0.100D+01
 Coeff:     -0.169D+00 0.117D+01
 Gap=     0.367 Goal=   None    Shift=    0.000
 RMSDP=5.92D-04 MaxDP=3.39D-02 DE=-1.98D-01 OVMax= 1.55D-01

 Cycle   3  Pass 0  IDiag  1:
 RMSU=  5.81D-04    CP:  9.94D-01  1.13D+00
 E= -2048.66819278200     Delta-E=       -0.181942541492 Rises=F Damp=F
 DIIS: error= 9.66D-03 at cycle   3 NSaved=   3.
 NSaved= 3 IEnMin= 3 EnMin= -2048.66819278200     IErMin= 3 ErrMin= 9.66D-03
 ErrMax= 9.66D-03  0.00D+00 EMaxC= 1.00D-01 BMatC= 6.30D-02 BMatP= 1.45D-01
 IDIUse=3 WtCom= 9.03D-01 WtEn= 9.66D-02
 Coeff-Com: -0.230D+00 0.546D+00 0.684D+00
 Coeff-En:   0.000D+00 0.000D+00 0.100D+01
 Coeff:     -0.208D+00 0.493D+00 0.715D+00
 Gap=     0.281 Goal=   None    Shift=    0.000
 RMSDP=3.63D-04 MaxDP=3.39D-02 DE=-1.82D-01 OVMax= 6.69D-02

 Cycle   4  Pass 0  IDiag  1:
 RMSU=  2.07D-04    CP:  9.94D-01  1.42D+00  6.71D-01
 E= -2048.71498066740     Delta-E=       -0.046787885405 Rises=F Damp=F
 DIIS: error= 4.00D-03 at cycle   4 NSaved=   4.
 NSaved= 4 IEnMin= 4 EnMin= -2048.71498066740     IErMin= 4 ErrMin= 4.00D-03
 ErrMax= 4.00D-03  0.00D+00 EMaxC= 1.00D-01 BMatC= 1.02D-02 BMatP= 6.30D-02
 IDIUse=3 WtCom= 9.60D-01 WtEn= 4.00D-02
 Coeff-Com: -0.935D-01 0.181D+00 0.387D+00 0.525D+00
 Coeff-En:   0.000D+00 0.000D+00 0.888D-01 0.911D+00
 Coeff:     -0.898D-01 0.174D+00 0.376D+00 0.540D+00
 Gap=     0.287 Goal=   None    Shift=    0.000
 RMSDP=1.35D-04 MaxDP=1.26D-02 DE=-4.68D-02 OVMax= 1.38D-02

 Cycle   5  Pass 0  IDiag  1:
 RMSU=  6.33D-05    CP:  9.94D-01  1.38D+00  8.11D-01  6.01D-01
 E= -2048.72328455325     Delta-E=       -0.008303885845 Rises=F Damp=F
 DIIS: error= 7.39D-04 at cycle   5 NSaved=   5.
 NSaved= 5 IEnMin= 5 EnMin= -2048.72328455325     IErMin= 5 ErrMin= 7.39D-04
 ErrMax= 7.39D-04  0.00D+00 EMaxC= 1.00D-01 BMatC= 3.48D-04 BMatP= 1.02D-02
 IDIUse=3 WtCom= 9.93D-01 WtEn= 7.39D-03
 Coeff-Com: -0.251D-01 0.431D-01 0.130D+00 0.251D+00 0.601D+00
 Coeff-En:   0.000D+00 0.000D+00 0.000D+00 0.000D+00 0.100D+01
 Coeff:     -0.250D-01 0.428D-01 0.129D+00 0.249D+00 0.604D+00
 Gap=     0.286 Goal=   None    Shift=    0.000
 RMSDP=2.79D-05 MaxDP=2.03D-03 DE=-8.30D-03 OVMax= 3.46D-03

 Failed to achieve initial convergence to 1.0D-08 in  6 cycles.
 Switch to full accuracy anyway.
 Cycle   6  Pass 1  IDiag  1:
 E= -2048.72374823998     Delta-E=       -0.000463686733 Rises=F Damp=F
 DIIS: error= 2.29D-04 at cycle   1 NSaved=   1.
 NSaved= 1 IEnMin= 1 EnMin= -2048.72374823998     IErMin= 1 ErrMin= 2.29D-04
 ErrMax= 2.29D-04  0.00D+00 EMaxC= 1.00D-01 BMatC= 6.96D-05 BMatP= 6.96D-05
 IDIUse=3 WtCom= 9.98D-01 WtEn= 2.29D-03
 Coeff-Com:  0.100D+01
 Coeff-En:   0.100D+01
 Coeff:      0.100D+01
 Gap=     0.286 Goal=   None    Shift=    0.000
 RMSDP=2.79D-05 MaxDP=2.03D-03 DE=-4.64D-04 OVMax= 2.59D-03

 Cycle   7  Pass 1  IDiag  1:
 RMSU=  1.02D-04    CP:  1.00D+00
 E= -2048.72379715291     Delta-E=       -0.000048912929 Rises=F Damp=F
 DIIS: error= 2.55D-04 at cycle   2 NSaved=   2.
 NSaved= 2 IEnMin= 2 EnMin= -2048.72379715291     IErMin= 1 ErrMin= 2.29D-04
 ErrMax= 2.55D-04  0.00D+00 EMaxC= 1.00D-01 BMatC= 4.60D-05 BMatP= 6.96D-05
 IDIUse=3 WtCom= 9.97D-01 WtEn= 2.55D-03
 Coeff-Com:  0.432D+00 0.568D+00
 Coeff-En:   0.427D-01 0.957D+00
 Coeff:      0.431D+00 0.569D+00
 Gap=     0.286 Goal=   None    Shift=    0.000
 RMSDP=1.16D-05 MaxDP=9.73D-04 DE=-4.89D-05 OVMax= 1.54D-03

 Cycle   8  Pass 1  IDiag  1:
 RMSU=  1.14D-05    CP:  1.00D+00  1.02D+00
 E= -2048.72383187672     Delta-E=       -0.000034723808 Rises=F Damp=F
 DIIS: error= 1.02D-04 at cycle   3 NSaved=   3.
 NSaved= 3 IEnMin= 3 EnMin= -2048.72383187672     IErMin= 3 ErrMin= 1.02D-04
 ErrMax= 1.02D-04  0.00D+00 EMaxC= 1.00D-01 BMatC= 8.86D-06 BMatP= 4.60D-05
 IDIUse=3 WtCom= 9.99D-01 WtEn= 1.02D-03
 Coeff-Com: -0.191D-01 0.289D+00 0.730D+00
 Coeff-En:   0.000D+00 0.993D-01 0.901D+00
 Coeff:     -0.191D-01 0.289D+00 0.731D+00
 Gap=     0.286 Goal=   None    Shift=    0.000
 RMSDP=5.58D-06 MaxDP=3.95D-04 DE=-3.47D-05 OVMax= 5.65D-04

 Cycle   9  Pass 1  IDiag  1:
 RMSU=  3.85D-06    CP:  1.00D+00  1.05D+00  7.83D-01
 E= -2048.72384052769     Delta-E=       -0.000008650969 Rises=F Damp=F
 DIIS: error= 4.56D-05 at cycle   4 NSaved=   4.
 NSaved= 4 IEnMin= 4 EnMin= -2048.72384052769     IErMin= 4 ErrMin= 4.56D-05
 ErrMax= 4.56D-05  0.00D+00 EMaxC= 1.00D-01 BMatC= 5.38D-07 BMatP= 8.86D-06
 IDIUse=1 WtCom= 1.00D+00 WtEn= 0.00D+00
 Coeff-Com: -0.351D-01 0.777D-01 0.280D+00 0.678D+00
 Coeff:     -0.351D-01 0.777D-01 0.280D+00 0.678D+00
 Gap=     0.286 Goal=   None    Shift=    0.000
 RMSDP=1.47D-06 MaxDP=1.21D-04 DE=-8.65D-06 OVMax= 4.86D-04

 Cycle  10  Pass 1  IDiag  1:
 RMSU=  1.31D-06    CP:  1.00D+00  1.06D+00  8.20D-01  1.09D+00
 E= -2048.72384139971     Delta-E=       -0.000000872025 Rises=F Damp=F
 DIIS: error= 1.57D-05 at cycle   5 NSaved=   5.
 NSaved= 5 IEnMin= 5 EnMin= -2048.72384139971     IErMin= 5 ErrMin= 1.57D-05
 ErrMax= 1.57D-05  0.00D+00 EMaxC= 1.00D-01 BMatC= 1.15D-07 BMatP= 5.38D-07
 IDIUse=1 WtCom= 1.00D+00 WtEn= 0.00D+00
 Coeff-Com: -0.456D-02-0.488D-01-0.114D+00 0.200D+00 0.967D+00
 Coeff:     -0.456D-02-0.488D-01-0.114D+00 0.200D+00 0.967D+00
 Gap=     0.286 Goal=   None    Shift=    0.000
 RMSDP=1.17D-06 MaxDP=7.37D-05 DE=-8.72D-07 OVMax= 2.50D-04

 Cycle  11  Pass 1  IDiag  1:
 RMSU=  4.80D-07    CP:  1.00D+00  1.06D+00  8.29D-01  1.36D+00  1.17D+00
 E= -2048.72384164760     Delta-E=       -0.000000247889 Rises=F Damp=F
 DIIS: error= 1.07D-05 at cycle   6 NSaved=   6.
 NSaved= 6 IEnMin= 6 EnMin= -2048.72384164760     IErMin= 6 ErrMin= 1.07D-05
 ErrMax= 1.07D-05  0.00D+00 EMaxC= 1.00D-01 BMatC= 2.84D-08 BMatP= 1.15D-07
 IDIUse=1 WtCom= 1.00D+00 WtEn= 0.00D+00
 Coeff-Com:  0.481D-02-0.399D-01-0.115D+00-0.565D-02 0.516D+00 0.639D+00
 Coeff:      0.481D-02-0.399D-01-0.115D+00-0.565D-02 0.516D+00 0.639D+00
 Gap=     0.286 Goal=   None    Shift=    0.000
 RMSDP=3.64D-07 MaxDP=3.22D-05 DE=-2.48D-07 OVMax= 1.20D-04

 Cycle  12  Pass 1  IDiag  1:
 RMSU=  1.84D-07    CP:  1.00D+00  1.06D+00  8.31D-01  1.43D+00  1.30D+00
                    CP:  9.18D-01
 E= -2048.72384168794     Delta-E=       -0.000000040342 Rises=F Damp=F
 DIIS: error= 1.28D-06 at cycle   7 NSaved=   7.
 NSaved= 7 IEnMin= 7 EnMin= -2048.72384168794     IErMin= 7 ErrMin= 1.28D-06
 ErrMax= 1.28D-06  0.00D+00 EMaxC= 1.00D-01 BMatC= 6.75D-10 BMatP= 2.84D-08
 IDIUse=1 WtCom= 1.00D+00 WtEn= 0.00D+00
 Coeff-Com:  0.104D-02-0.542D-02-0.172D-01-0.838D-02 0.426D-01 0.118D+00
 Coeff-Com:  0.869D+00
 Coeff:      0.104D-02-0.542D-02-0.172D-01-0.838D-02 0.426D-01 0.118D+00
 Coeff:      0.869D+00
 Gap=     0.286 Goal=   None    Shift=    0.000
 RMSDP=8.28D-08 MaxDP=5.69D-06 DE=-4.03D-08 OVMax= 2.49D-05

 Cycle  13  Pass 1  IDiag  1:
 RMSU=  4.92D-08    CP:  1.00D+00  1.06D+00  8.31D-01  1.44D+00  1.32D+00
                    CP:  1.00D+00  1.15D+00
 E= -2048.72384168969     Delta-E=       -0.000000001744 Rises=F Damp=F
 DIIS: error= 5.78D-07 at cycle   8 NSaved=   8.
 NSaved= 8 IEnMin= 8 EnMin= -2048.72384168969     IErMin= 8 ErrMin= 5.78D-07
 ErrMax= 5.78D-07  0.00D+00 EMaxC= 1.00D-01 BMatC= 2.86D-10 BMatP= 6.75D-10
 IDIUse=1 WtCom= 1.00D+00 WtEn= 0.00D+00
 Coeff-Com: -0.728D-03 0.776D-02 0.212D-01-0.735D-03-0.111D+00-0.107D+00
 Coeff-Com:  0.415D+00 0.776D+00
 Coeff:     -0.728D-03 0.776D-02 0.212D-01-0.735D-03-0.111D+00-0.107D+00
 Coeff:      0.415D+00 0.776D+00
 Gap=     0.286 Goal=   None    Shift=    0.000
 RMSDP=4.50D-08 MaxDP=2.75D-06 DE=-1.74D-09 OVMax= 9.93D-06

 Cycle  14  Pass 1  IDiag  1:
 RMSU=  2.59D-08    CP:  1.00D+00  1.06D+00  8.30D-01  1.44D+00  1.32D+00
                    CP:  1.04D+00  1.30D+00  1.08D+00
 E= -2048.72384169028     Delta-E=       -0.000000000596 Rises=F Damp=F
 DIIS: error= 2.58D-07 at cycle   9 NSaved=   9.
 NSaved= 9 IEnMin= 9 EnMin= -2048.72384169028     IErMin= 9 ErrMin= 2.58D-07
 ErrMax= 2.58D-07  0.00D+00 EMaxC= 1.00D-01 BMatC= 2.57D-11 BMatP= 2.86D-10
 IDIUse=1 WtCom= 1.00D+00 WtEn= 0.00D+00
 Coeff-Com: -0.405D-03 0.374D-02 0.104D-01 0.694D-03-0.492D-01-0.550D-01
 Coeff-Com:  0.938D-01 0.303D+00 0.693D+00
 Coeff:     -0.405D-03 0.374D-02 0.104D-01 0.694D-03-0.492D-01-0.550D-01
 Coeff:      0.938D-01 0.303D+00 0.693D+00
 Gap=     0.286 Goal=   None    Shift=    0.000
 RMSDP=1.20D-08 MaxDP=8.83D-07 DE=-5.96D-10 OVMax= 3.25D-06

 Cycle  15  Pass 1  IDiag  1:
 RMSU=  8.77D-09    CP:  1.00D+00  1.06D+00  8.30D-01  1.44D+00  1.32D+00
                    CP:  1.05D+00  1.32D+00  1.21D+00  1.07D+00
 E= -2048.72384168991     Delta-E=        0.000000000372 Rises=F Damp=F
 DIIS: error= 1.04D-07 at cycle  10 NSaved=  10.
 NSaved=10 IEnMin= 9 EnMin= -2048.72384169028     IErMin=10 ErrMin= 1.04D-07
 ErrMax= 1.04D-07  0.00D+00 EMaxC= 1.00D-01 BMatC= 5.67D-12 BMatP= 2.57D-11
 IDIUse=1 WtCom= 1.00D+00 WtEn= 0.00D+00
 Coeff-Com:  0.349D-05-0.275D-03-0.636D-03 0.106D-03 0.526D-02 0.151D-02
 Coeff-Com: -0.569D-01-0.652D-01 0.286D+00 0.830D+00
 Coeff:      0.349D-05-0.275D-03-0.636D-03 0.106D-03 0.526D-02 0.151D-02
 Coeff:     -0.569D-01-0.652D-01 0.286D+00 0.830D+00
 Gap=     0.286 Goal=   None    Shift=    0.000
 RMSDP=6.90D-09 MaxDP=3.51D-07 DE= 3.72D-10 OVMax= 1.50D-06

 SCF Done:  E(RwB97XD) =  -2048.72384169     A.U. after   15 cycles
            NFock= 15  Conv=0.69D-08     -V/T= 2.0053
 KE= 2.037845439814D+03 PE=-1.556711289234D+04 EE= 6.087462614253D+03
 Leave Link  502 at Thu Feb  1 13:51:33 2018, MaxMem=  4294967296 cpu:           22026.7 elap:             821.5
 (Enter /share/apps/g16/l601.exe)
 Copying SCF densities to generalized density rwf, IOpCl= 0 IROHF=0.

 **********************************************************************

            Population analysis using the SCF density.

 **********************************************************************

 Orbital symmetries:
       Occupied  (A) (A) (A) (A) (A) (A) (A) (A) (A) (A) (A) (A)
                 (A) (A) (A) (A) (A) (A) (A) (A) (A) (A) (A) (A)
                 (A) (A) (A) (A) (A) (A) (A) (A) (A) (A) (A) (A)
                 (A) (A) (A) (A) (A) (A) (A) (A) (A) (A) (A) (A)
                 (A) (A) (A) (A) (A) (A) (A) (A) (A) (A) (A) (A)
                 (A) (A) (A) (A) (A) (A) (A) (A) (A) (A) (A) (A)
                 (A) (A) (A) (A) (A) (A) (A) (A) (A) (A) (A) (A)
                 (A) (A) (A) (A) (A) (A) (A) (A) (A) (A) (A) (A)
                 (A) (A) (A) (A) (A) (A) (A) (A) (A) (A) (A) (A)
                 (A) (A) (A) (A) (A) (A) (A) (A) (A) (A) (A) (A)
                 (A) (A) (A) (A) (A) (A) (A) (A) (A) (A) (A) (A)
                 (A) (A) (A) (A) (A) (A) (A) (A) (A) (A) (A) (A)
                 (A) (A) (A) (A) (A) (A) (A) (A) (A) (A)
       Virtual   (A) (A) (A) (A) (A) (A) (A) (A) (A) (A) (A) (A)
                 (A) (A) (A) (A) (A) (A) (A) (A) (A) (A) (A) (A)
                 (A) (A) (A) (A) (A) (A) (A) (A) (A) (A) (A) (A)
                 (A) (A) (A) (A) (A) (A) (A) (A) (A) (A) (A) (A)
                 (A) (A) (A) (A) (A) (A) (A) (A) (A) (A) (A) (A)
                 (A) (A) (A) (A) (A) (A) (A) (A) (A) (A) (A) (A)
                 (A) (A) (A) (A) (A) (A) (A) (A) (A) (A) (A) (A)
                 (A) (A) (A) (A) (A) (A) (A) (A) (A) (A) (A) (A)
                 (A) (A) (A) (A) (A) (A) (A) (A) (A) (A) (A) (A)
                 (A) (A) (A) (A) (A) (A) (A) (A) (A) (A) (A) (A)
                 (A) (A) (A) (A) (A) (A) (A) (A) (A) (A) (A) (A)
                 (A) (A) (A) (A) (A) (A) (A) (A) (A) (A) (A) (A)
                 (A) (A) (A) (A) (A) (A) (A) (A) (A) (A) (A) (A)
                 (A) (A) (A) (A) (A) (A) (A) (A) (A) (A) (A) (A)
                 (A) (A) (A) (A) (A) (A) (A) (A) (A) (A) (A) (A)
                 (A) (A) (A) (A) (A) (A) (A) (A) (A) (A) (A) (A)
                 (A) (A) (A) (A) (A) (A) (A) (A) (A) (A) (A) (A)
                 (A) (A) (A) (A) (A) (A) (A) (A) (A) (A) (A) (A)
                 (A) (A) (A) (A) (A) (A) (A) (A) (A) (A) (A) (A)
                 (A) (A) (A) (A) (A) (A) (A) (A) (A) (A) (A) (A)
                 (A) (A) (A) (A) (A) (A) (A) (A) (A) (A) (A) (A)
                 (A) (A) (A) (A) (A) (A) (A) (A) (A) (A) (A) (A)
                 (A) (A) (A) (A) (A) (A) (A) (A) (A) (A) (A) (A)
                 (A) (A) (A) (A) (A) (A) (A) (A) (A) (A) (A) (A)
                 (A) (A) (A) (A) (A) (A) (A) (A) (A) (A) (A) (A)
                 (A) (A) (A) (A) (A) (A) (A) (A) (A) (A) (A) (A)
                 (A) (A) (A) (A) (A) (A) (A) (A) (A) (A) (A) (A)
                 (A) (A) (A) (A) (A) (A) (A) (A) (A) (A) (A) (A)
                 (A) (A) (A) (A) (A) (A) (A) (A) (A) (A) (A) (A)
                 (A) (A) (A) (A) (A) (A) (A) (A) (A) (A) (A) (A)
                 (A) (A) (A) (A) (A) (A) (A) (A) (A) (A) (A) (A)
                 (A) (A) (A) (A) (A) (A) (A) (A) (A) (A) (A) (A)
                 (A) (A) (A) (A) (A) (A) (A) (A) (A) (A) (A) (A)
                 (A) (A) (A) (A) (A) (A) (A) (A) (A) (A) (A) (A)
                 (A) (A) (A) (A) (A) (A) (A) (A) (A) (A) (A) (A)
                 (A) (A) (A) (A) (A) (A) (A) (A) (A) (A) (A) (A)
                 (A) (A) (A) (A) (A) (A) (A) (A) (A) (A) (A) (A)
                 (A) (A) (A) (A) (A) (A) (A) (A) (A) (A) (A) (A)
                 (A) (A) (A) (A) (A) (A) (A) (A) (A) (A) (A) (A)
                 (A) (A) (A) (A) (A) (A) (A) (A) (A) (A) (A) (A)
                 (A) (A) (A) (A) (A) (A) (A) (A) (A) (A) (A) (A)
                 (A) (A) (A) (A) (A) (A) (A) (A) (A) (A) (A) (A)
                 (A) (A) (A) (A) (A) (A) (A) (A) (A) (A) (A) (A)
                 (A) (A) (A) (A) (A) (A) (A) (A) (A) (A) (A) (A)
                 (A) (A) (A) (A) (A) (A) (A) (A) (A) (A) (A) (A)
                 (A) (A) (A) (A) (A) (A) (A) (A) (A) (A) (A) (A)
                 (A) (A) (A) (A) (A) (A) (A) (A) (A) (A) (A) (A)
                 (A) (A) (A) (A) (A) (A) (A) (A) (A) (A) (A) (A)
                 (A) (A) (A) (A) (A) (A) (A)
 The electronic state is 1-A.
 Alpha  occ. eigenvalues --  -19.26131 -19.22366 -19.21094 -14.52754 -14.50941
 Alpha  occ. eigenvalues --  -14.49126 -14.48911 -14.48234 -14.47517 -14.47428
 Alpha  occ. eigenvalues --  -14.46698 -14.44153 -14.42551 -14.42525 -14.42398
 Alpha  occ. eigenvalues --  -14.42273 -14.41621 -14.41089 -14.40990 -14.40234
 Alpha  occ. eigenvalues --  -10.45789 -10.41749 -10.40473 -10.38718 -10.38336
 Alpha  occ. eigenvalues --  -10.38114 -10.36606 -10.35575 -10.35532 -10.35520
 Alpha  occ. eigenvalues --  -10.34622 -10.34272 -10.34108 -10.33593 -10.33513
 Alpha  occ. eigenvalues --  -10.33178 -10.32892 -10.31411 -10.31160 -10.31057
 Alpha  occ. eigenvalues --  -10.31020 -10.28708 -10.28518  -1.19729  -1.14131
 Alpha  occ. eigenvalues --   -1.13441  -1.13375  -1.11509  -1.10967  -1.09645
 Alpha  occ. eigenvalues --   -1.09241  -1.07671  -1.05089  -1.03289  -1.02852
 Alpha  occ. eigenvalues --   -1.00782  -1.00540  -0.99470  -0.98986  -0.97108
 Alpha  occ. eigenvalues --   -0.96946  -0.95222  -0.92729  -0.91368  -0.86328
 Alpha  occ. eigenvalues --   -0.84719  -0.84506  -0.84069  -0.83954  -0.82868
 Alpha  occ. eigenvalues --   -0.82434  -0.79207  -0.75616  -0.75095  -0.74335
 Alpha  occ. eigenvalues --   -0.73694  -0.73277  -0.73029  -0.71176  -0.69026
 Alpha  occ. eigenvalues --   -0.68015  -0.66889  -0.66426  -0.65402  -0.64796
 Alpha  occ. eigenvalues --   -0.64130  -0.63163  -0.62975  -0.62703  -0.62578
 Alpha  occ. eigenvalues --   -0.60303  -0.60034  -0.59857  -0.59780  -0.59280
 Alpha  occ. eigenvalues --   -0.58881  -0.58274  -0.56894  -0.56594  -0.56487
 Alpha  occ. eigenvalues --   -0.56294  -0.55501  -0.54876  -0.54656  -0.54041
 Alpha  occ. eigenvalues --   -0.53958  -0.53623  -0.53344  -0.52713  -0.52456
 Alpha  occ. eigenvalues --   -0.51819  -0.51795  -0.51433  -0.50840  -0.50535
 Alpha  occ. eigenvalues --   -0.50280  -0.49731  -0.49257  -0.49146  -0.48974
 Alpha  occ. eigenvalues --   -0.48673  -0.48555  -0.48342  -0.47799  -0.47299
 Alpha  occ. eigenvalues --   -0.47067  -0.45408  -0.45226  -0.44346  -0.43225
 Alpha  occ. eigenvalues --   -0.41293  -0.39753  -0.39656  -0.37805  -0.37709
 Alpha  occ. eigenvalues --   -0.37293  -0.36657  -0.36050  -0.35641  -0.35354
 Alpha  occ. eigenvalues --   -0.33681  -0.33621  -0.33554  -0.33095  -0.33009
 Alpha  occ. eigenvalues --   -0.32446  -0.32297  -0.32260  -0.32109  -0.31062
 Alpha  occ. eigenvalues --   -0.30436  -0.28327  -0.25918  -0.25834
 Alpha virt. eigenvalues --    0.02783   0.05274   0.07791   0.07937   0.08158
 Alpha virt. eigenvalues --    0.08949   0.09775   0.10880   0.11134   0.12466
 Alpha virt. eigenvalues --    0.13130   0.13829   0.14256   0.14513   0.14888
 Alpha virt. eigenvalues --    0.15926   0.16507   0.16823   0.16971   0.18048
 Alpha virt. eigenvalues --    0.18849   0.19312   0.19901   0.19990   0.20241
 Alpha virt. eigenvalues --    0.20752   0.20867   0.21373   0.21767   0.22446
 Alpha virt. eigenvalues --    0.22645   0.23032   0.23262   0.23847   0.24020
 Alpha virt. eigenvalues --    0.24394   0.24543   0.25137   0.25355   0.25672
 Alpha virt. eigenvalues --    0.26240   0.26500   0.27022   0.27482   0.27866
 Alpha virt. eigenvalues --    0.28896   0.29406   0.29840   0.30511   0.30678
 Alpha virt. eigenvalues --    0.31265   0.31480   0.33096   0.33164   0.33758
 Alpha virt. eigenvalues --    0.33988   0.34861   0.35476   0.36109   0.36800
 Alpha virt. eigenvalues --    0.37226   0.37623   0.38170   0.39703   0.40148
 Alpha virt. eigenvalues --    0.40290   0.40752   0.40833   0.41493   0.41935
 Alpha virt. eigenvalues --    0.42537   0.42886   0.43544   0.43732   0.44400
 Alpha virt. eigenvalues --    0.45262   0.45651   0.46488   0.46792   0.47078
 Alpha virt. eigenvalues --    0.47815   0.48224   0.48651   0.49247   0.49788
 Alpha virt. eigenvalues --    0.50131   0.50182   0.50970   0.51266   0.51433
 Alpha virt. eigenvalues --    0.51835   0.52216   0.52680   0.53170   0.53520
 Alpha virt. eigenvalues --    0.53626   0.54159   0.54450   0.54892   0.55529
 Alpha virt. eigenvalues --    0.55922   0.56428   0.57132   0.57393   0.58175
 Alpha virt. eigenvalues --    0.58300   0.58451   0.58750   0.59264   0.59466
 Alpha virt. eigenvalues --    0.59717   0.60059   0.60733   0.61162   0.61528
 Alpha virt. eigenvalues --    0.61755   0.62303   0.62391   0.62522   0.63274
 Alpha virt. eigenvalues --    0.63607   0.64600   0.64663   0.64956   0.65311
 Alpha virt. eigenvalues --    0.65419   0.65878   0.66333   0.66470   0.67183
 Alpha virt. eigenvalues --    0.67925   0.68099   0.68247   0.68282   0.68815
 Alpha virt. eigenvalues --    0.69094   0.69878   0.70135   0.70499   0.70652
 Alpha virt. eigenvalues --    0.71178   0.71759   0.72029   0.72394   0.73734
 Alpha virt. eigenvalues --    0.74147   0.74324   0.74650   0.75032   0.75393
 Alpha virt. eigenvalues --    0.75786   0.75820   0.76383   0.76500   0.77153
 Alpha virt. eigenvalues --    0.77298   0.77573   0.78062   0.78166   0.78460
 Alpha virt. eigenvalues --    0.78871   0.79020   0.79510   0.79879   0.80195
 Alpha virt. eigenvalues --    0.80592   0.81146   0.81579   0.82748   0.82941
 Alpha virt. eigenvalues --    0.83487   0.83525   0.83764   0.84473   0.85171
 Alpha virt. eigenvalues --    0.85492   0.85862   0.86529   0.86716   0.87264
 Alpha virt. eigenvalues --    0.87596   0.88250   0.88739   0.89317   0.89614
 Alpha virt. eigenvalues --    0.90755   0.90828   0.91029   0.91326   0.91649
 Alpha virt. eigenvalues --    0.92373   0.92965   0.93248   0.94217   0.94480
 Alpha virt. eigenvalues --    0.94978   0.95372   0.95599   0.95982   0.96107
 Alpha virt. eigenvalues --    0.96401   0.96899   0.97102   0.97505   0.98295
 Alpha virt. eigenvalues --    0.98389   0.99254   1.00667   1.00812   1.01086
 Alpha virt. eigenvalues --    1.01374   1.01891   1.02063   1.02562   1.02800
 Alpha virt. eigenvalues --    1.03946   1.04137   1.04770   1.05168   1.05442
 Alpha virt. eigenvalues --    1.05715   1.06251   1.07314   1.07505   1.08546
 Alpha virt. eigenvalues --    1.08846   1.09619   1.09904   1.10280   1.10613
 Alpha virt. eigenvalues --    1.11425   1.12001   1.12676   1.13165   1.14280
 Alpha virt. eigenvalues --    1.14406   1.14453   1.14897   1.14988   1.15715
 Alpha virt. eigenvalues --    1.15800   1.16571   1.17335   1.17883   1.17960
 Alpha virt. eigenvalues --    1.18412   1.18504   1.19061   1.19549   1.20106
 Alpha virt. eigenvalues --    1.20430   1.20702   1.21078   1.21160   1.21658
 Alpha virt. eigenvalues --    1.22320   1.22417   1.22683   1.22982   1.23231
 Alpha virt. eigenvalues --    1.23582   1.24097   1.24713   1.25166   1.25418
 Alpha virt. eigenvalues --    1.26296   1.26712   1.27732   1.28263   1.28981
 Alpha virt. eigenvalues --    1.29890   1.30279   1.30931   1.31748   1.32665
 Alpha virt. eigenvalues --    1.33114   1.33277   1.33951   1.34380   1.34539
 Alpha virt. eigenvalues --    1.35018   1.35061   1.35926   1.37242   1.37592
 Alpha virt. eigenvalues --    1.38563   1.38868   1.39676   1.40551   1.40954
 Alpha virt. eigenvalues --    1.42305   1.43390   1.44246   1.44429   1.44800
 Alpha virt. eigenvalues --    1.45995   1.46653   1.47066   1.47478   1.47901
 Alpha virt. eigenvalues --    1.48513   1.48937   1.49164   1.49801   1.50733
 Alpha virt. eigenvalues --    1.51131   1.51642   1.52884   1.54009   1.55070
 Alpha virt. eigenvalues --    1.56063   1.56083   1.56454   1.56984   1.58732
 Alpha virt. eigenvalues --    1.58838   1.59266   1.59371   1.60573   1.61099
 Alpha virt. eigenvalues --    1.61451   1.61984   1.62583   1.63155   1.63281
 Alpha virt. eigenvalues --    1.64336   1.65831   1.66305   1.66635   1.66892
 Alpha virt. eigenvalues --    1.67269   1.67794   1.68112   1.68348   1.68802
 Alpha virt. eigenvalues --    1.69045   1.70098   1.70313   1.70823   1.71208
 Alpha virt. eigenvalues --    1.71698   1.71942   1.72254   1.73110   1.73565
 Alpha virt. eigenvalues --    1.74108   1.74772   1.74804   1.74910   1.75334
 Alpha virt. eigenvalues --    1.75595   1.76171   1.76248   1.76912   1.77136
 Alpha virt. eigenvalues --    1.77917   1.78013   1.78505   1.78810   1.79296
 Alpha virt. eigenvalues --    1.79828   1.79953   1.80104   1.80195   1.80524
 Alpha virt. eigenvalues --    1.80948   1.81639   1.82340   1.82451   1.82930
 Alpha virt. eigenvalues --    1.83065   1.83425   1.84057   1.84549   1.84898
 Alpha virt. eigenvalues --    1.85564   1.86179   1.86621   1.87136   1.87638
 Alpha virt. eigenvalues --    1.87738   1.87873   1.88340   1.89080   1.89302
 Alpha virt. eigenvalues --    1.89610   1.89809   1.90131   1.90578   1.90873
 Alpha virt. eigenvalues --    1.91889   1.92193   1.93029   1.93515   1.94054
 Alpha virt. eigenvalues --    1.94536   1.95144   1.95200   1.96999   1.97543
 Alpha virt. eigenvalues --    1.98160   1.98662   2.00276   2.00829   2.01139
 Alpha virt. eigenvalues --    2.01466   2.01957   2.02375   2.03174   2.04701
 Alpha virt. eigenvalues --    2.05642   2.06191   2.06502   2.06793   2.07898
 Alpha virt. eigenvalues --    2.08165   2.08631   2.08882   2.09897   2.10137
 Alpha virt. eigenvalues --    2.10284   2.11261   2.12582   2.12917   2.13398
 Alpha virt. eigenvalues --    2.13769   2.14295   2.16180   2.16689   2.18222
 Alpha virt. eigenvalues --    2.18973   2.19818   2.20340   2.20596   2.21142
 Alpha virt. eigenvalues --    2.21384   2.22237   2.22594   2.23652   2.24110
 Alpha virt. eigenvalues --    2.24470   2.25352   2.25720   2.26956   2.27595
 Alpha virt. eigenvalues --    2.28064   2.28901   2.29326   2.29685   2.29862
 Alpha virt. eigenvalues --    2.30283   2.31113   2.31802   2.31971   2.32917
 Alpha virt. eigenvalues --    2.33453   2.33747   2.34194   2.34423   2.34863
 Alpha virt. eigenvalues --    2.35606   2.36179   2.36818   2.37635   2.38071
 Alpha virt. eigenvalues --    2.38951   2.39794   2.40177   2.40775   2.41515
 Alpha virt. eigenvalues --    2.41907   2.42656   2.43004   2.43310   2.44594
 Alpha virt. eigenvalues --    2.44818   2.45448   2.46182   2.46563   2.47054
 Alpha virt. eigenvalues --    2.48251   2.48562   2.49720   2.50270   2.52037
 Alpha virt. eigenvalues --    2.52187   2.53469   2.54229   2.54489   2.56159
 Alpha virt. eigenvalues --    2.56372   2.56966   2.57945   2.59443   2.60025
 Alpha virt. eigenvalues --    2.60136   2.61114   2.61646   2.62312   2.63608
 Alpha virt. eigenvalues --    2.64400   2.64831   2.65061   2.66609   2.67338
 Alpha virt. eigenvalues --    2.67988   2.68018   2.68761   2.69238   2.69723
 Alpha virt. eigenvalues --    2.70434   2.70860   2.71677   2.71905   2.72913
 Alpha virt. eigenvalues --    2.73857   2.74136   2.74610   2.75505   2.77399
 Alpha virt. eigenvalues --    2.78458   2.78999   2.79177   2.79416   2.79973
 Alpha virt. eigenvalues --    2.80222   2.80401   2.80761   2.81215   2.81845
 Alpha virt. eigenvalues --    2.82454   2.82618   2.82803   2.84040   2.84362
 Alpha virt. eigenvalues --    2.85034   2.85565   2.86209   2.86577   2.87103
 Alpha virt. eigenvalues --    2.87642   2.89014   2.89311   2.90230   2.92417
 Alpha virt. eigenvalues --    2.94269   2.96322   2.97363   2.98954   2.99715
 Alpha virt. eigenvalues --    3.00022   3.02343   3.04150   3.04934   3.06726
 Alpha virt. eigenvalues --    3.09502   3.10484   3.12520   3.13944   3.14839
 Alpha virt. eigenvalues --    3.15050   3.15522   3.15920   3.17762   3.21474
 Alpha virt. eigenvalues --    3.21663   3.23121   3.23656   3.23876   3.25819
 Alpha virt. eigenvalues --    3.46330   3.47203   3.47885   3.49921   3.50622
 Alpha virt. eigenvalues --    3.53068   3.53486   3.55817   3.57850   3.59665
 Alpha virt. eigenvalues --    3.61787   3.70702   3.73978
          Condensed to atoms (all electrons):
 Mulliken charges:
               1
     1  N   -0.310912
     2  C    0.181101
     3  C    0.028102
     4  N   -0.259412
     5  C    0.133884
     6  H    0.027019
     7  N   -0.291213
     8  C    0.134015
     9  H    0.008185
    10  N   -0.288824
    11  C    0.243558
    12  C    0.123383
    13  N   -0.057466
    14  H    0.108269
    15  H    0.089259
    16  H    0.025457
    17  H    0.035416
    18  H    0.026373
    19  N   -0.307984
    20  C    0.263246
    21  C    0.183536
    22  N   -0.099844
    23  H    0.116974
    24  H    0.118437
    25  N   -0.271815
    26  C    0.168550
    27  N   -0.108300
    28  H    0.121846
    29  C    0.166737
    30  O   -0.319242
    31  C   -0.025757
    32  N   -0.213135
    33  C    0.126192
    34  H    0.031048
    35  H    0.030172
    36  H    0.026270
    37  H    0.025310
    38  H    0.061743
    39  H    0.060439
    40  H    0.075845
    41  H    0.033164
    42  C   -0.111928
    43  O   -0.266623
    44  C    0.172447
    45  H    0.134300
    46  N   -0.139113
    47  O   -0.347945
    48  C    0.361011
    49  H    0.049385
    50  C    0.171380
    51  C    0.042755
    52  N   -0.298850
    53  H    0.030943
    54  H    0.046961
    55  H   -0.010181
    56  H    0.124057
    57  H    0.112081
    58  N   -0.065237
    59  C    0.094999
    60  C    0.212264
    61  N   -0.253915
    62  H    0.041242
    63  C    0.165862
    64  N   -0.296115
    65  H    0.025057
    66  C    0.110141
    67  N   -0.259662
    68  C    0.035696
    69  C    0.183823
    70  N   -0.284459
 Sum of Mulliken charges =  -0.00000
 Mulliken charges with hydrogens summed into heavy atoms:
               1
     1  N   -0.310912
     2  C    0.268347
     3  C    0.028102
     4  N   -0.259412
     5  C    0.160903
     7  N   -0.291213
     8  C    0.142201
    10  N   -0.288824
    11  C    0.243558
    12  C    0.123383
    13  N    0.140062
    19  N   -0.307984
    20  C    0.263246
    21  C    0.265288
    22  N    0.135567
    25  N   -0.271815
    26  C    0.168550
    27  N    0.013545
    29  C    0.166737
    30  O   -0.319242
    31  C   -0.025757
    32  N   -0.213135
    33  C    0.157239
    42  C   -0.078764
    43  O   -0.266623
    44  C    0.172447
    46  N   -0.004813
    47  O   -0.347945
    48  C    0.361011
    50  C    0.220765
    51  C    0.240781
    52  N   -0.298850
    58  N    0.170901
    59  C    0.094999
    60  C    0.212264
    61  N   -0.253915
    63  C    0.207104
    64  N   -0.296115
    66  C    0.135198
    67  N   -0.259662
    68  C    0.035696
    69  C    0.251546
    70  N   -0.284459
 Electronic spatial extent (au):  <R**2>=          24942.6021
 Charge=             -0.0000 electrons
 Dipole moment (field-independent basis, Debye):
    X=              8.8382    Y=              4.6279    Z=              2.2738  Tot=             10.2323
 Quadrupole moment (field-independent basis, Debye-Ang):
   XX=           -151.6101   YY=           -211.5395   ZZ=           -250.8133
   XY=             -1.5889   XZ=             13.1809   YZ=            -10.0028
 Traceless Quadrupole moment (field-independent basis, Debye-Ang):
   XX=             53.0442   YY=             -6.8852   ZZ=            -46.1590
   XY=             -1.5889   XZ=             13.1809   YZ=            -10.0028
 Octapole moment (field-independent basis, Debye-Ang**2):
  XXX=             49.8867  YYY=            144.4825  ZZZ=             -5.0127  XYY=            105.2909
  XXY=           -161.2106  XXZ=            -59.3061  XZZ=              9.5697  YZZ=             26.4513
  YYZ=             35.8908  XYZ=             32.9667
 Hexadecapole moment (field-independent basis, Debye-Ang**3):
 XXXX=         -15672.7807 YYYY=          -7434.4309 ZZZZ=          -2915.0781 XXXY=            430.5944
 XXXZ=            321.6111 YYYX=           -148.7627 YYYZ=           -118.2271 ZZZX=             28.7379
 ZZZY=             -4.4626 XXYY=          -4013.2137 XXZZ=          -4178.2992 YYZZ=          -1716.9125
 XXYZ=            102.8836 YYXZ=            246.8309 ZZXY=              3.2188
 N-N= 5.393080996582D+03 E-N=-1.556711288062D+04  KE= 2.037845439814D+03
 No NMR shielding tensors so no spin-rotation constants.
 Leave Link  601 at Thu Feb  1 13:51:39 2018, MaxMem=  4294967296 cpu:             147.3 elap:               5.6
 (Enter /share/apps/g16/l9999.exe)
 1\1\GINC-ROCKS\SP\RwB97XD\CC-pVDZ\C23H27N17O3\SATYA\01-Feb-2018\0\\#p 
 wb97xd/cc-pvdz sp scf=(maxcycles=20)\\Base pair stacking\\0,1\N,0,9.36
 817,0.49365,-6.47105\C,0,10.81206,0.78119,-6.57363\C,0,7.18046,0.7002,
 -6.3785\N,0,7.44761,-0.65596,-6.25948\C,0,8.75493,-0.72613,-6.32\H,0,9
 .32967,-1.65074,-6.25909\N,0,6.06237,2.77186,-6.52372\C,0,7.27173,3.32
 986,-6.6407\H,0,7.27539,4.41381,-6.74702\N,0,8.47159,2.75264,-6.64602\
 C,0,8.35441,1.42144,-6.50964\C,0,5.97809,1.43038,-6.38803\N,0,4.77179,
 0.87152,-6.27112\H,0,4.66199,-0.11775,-6.1686\H,0,3.93713,1.42231,-6.2
 8203\H,0,11.19219,0.3068,-7.36775\H,0,10.95008,1.76575,-6.67715\H,0,11
 .27636,0.46646,-5.74576\N,0,4.67628,5.71964,-3.26456\C,0,3.36827,5.298
 72,-3.26328\C,0,5.1209,7.12451,-3.36129\N,0,-0.02525,6.02494,-3.39872\
 H,0,-0.88862,5.52145,-3.38065\H,0,-0.08224,7.02068,-3.47605\N,0,2.2782
 2,6.09144,-3.34948\C,0,1.15634,5.39409,-3.32272\N,0,1.10381,4.02512,-3
 .21948\H,0,0.20104,3.5759,-3.20649\C,0,2.21262,3.18945,-3.12957\O,0,2.
 05561,1.96551,-3.03986\C,0,3.42516,3.92421,-3.15705\N,0,4.74237,3.4909
 2,-3.09292\C,0,5.44724,4.58767,-3.16\H,0,6.5368,4.62793,-3.13738\H,0,5
 .68883,7.24082,-4.17537\H,0,4.32198,7.72104,-3.42565\H,0,5.65047,7.364
 97,-2.54855\H,0,-4.55927,1.90612,-3.84208\H,0,-4.52434,1.76834,-2.0858
 2\H,0,-3.58914,3.02973,-2.88935\H,0,-2.05799,-2.17134,-3.32784\C,0,-1.
 90678,-1.09489,-3.2464\O,0,0.46038,-1.2373,-3.30466\C,0,-0.57393,-0.57
 418,-3.23206\H,0,0.43059,1.20485,-3.11248\N,0,-0.49485,0.79976,-3.1258
 5\O,0,-1.37002,2.88745,-2.94466\C,0,-1.54026,1.68437,-3.03565\H,0,-3.9
 7971,-0.60258,-3.16654\C,0,-2.94673,-0.25725,-3.16\C,0,-3.9423,2.01184
 ,-2.96218\N,0,-2.79414,1.10594,-3.05609\H,0,-0.17589,7.6352,-6.86174\H
 ,0,1.11628,7.37135,-5.90113\H,0,-0.36847,7.53825,-5.24405\H,0,1.13291,
 0.35124,-6.31721\H,0,-0.43843,0.99866,-6.46493\N,0,0.54149,1.15739,-6.
 33931\C,0,1.03653,2.38973,-6.20724\C,0,0.90605,4.76225,-6.08142\N,0,2.
 22624,4.94532,-5.91402\H,0,3.94234,3.83322,-5.77681\C,0,2.86267,3.7757
 8,-5.90822\N,0,2.36864,2.54045,-6.04035\H,0,-2.20443,5.58371,-6.40123\
 C,0,-1.2539,5.05566,-6.32\N,0,-1.11712,3.75365,-6.38132\C,0,0.2476,3.5
 5417,-6.23142\C,0,0.14249,7.18468,-6.02768\N,0,-0.0701,5.72856,-6.1395
 9\\Version=EM64L-G16RevA.03\State=1-A\HF=-2048.7238417\RMSD=6.900e-09\
 Dipole=-3.3832082,2.1805892,-0.0728484\Quadrupole=40.0799889,-5.299536
 4,-34.7804525,-1.8037427,-6.7308275,7.8549776\PG=C01 [X(C23H27N17O3)]\
 \@


 GOOD SENSE ABOUT TRIVIALITIES IS BETTER THAN NONSENSE
 ABOUT THINGS THAT MATTER

                                       -- MAX BEERBOHM
 Job cpu time:       0 days  6 hours 24 minutes 30.9 seconds.
 Elapsed time:       0 days  0 hours 14 minutes 20.0 seconds.
 File lengths (MBytes):  RWF=    298 Int=      0 D2E=      0 Chk=     33 Scr=      1
 Normal termination of Gaussian 16 at Thu Feb  1 13:51:39 2018.
