 Entering Gaussian System, Link 0=g16
 Input=str60.-10.-0.5.com
 Output=str60.-10.-0.5.log
 Initial command:
 /share/apps/g16/l1.exe "/state/partition1/scr/Gau-8111.inp" -scrdir="/state/partition1/scr/"
 Entering Link 1 = /share/apps/g16/l1.exe PID=      8112.
  
 Copyright (c) 1988,1990,1992,1993,1995,1998,2003,2009,2016,
            Gaussian, Inc.  All Rights Reserved.
  
 This is part of the Gaussian(R) 16 program.  It is based on
 the Gaussian(R) 09 system (copyright 2009, Gaussian, Inc.),
 the Gaussian(R) 03 system (copyright 2003, Gaussian, Inc.),
 the Gaussian(R) 98 system (copyright 1998, Gaussian, Inc.),
 the Gaussian(R) 94 system (copyright 1995, Gaussian, Inc.),
 the Gaussian 92(TM) system (copyright 1992, Gaussian, Inc.),
 the Gaussian 90(TM) system (copyright 1990, Gaussian, Inc.),
 the Gaussian 88(TM) system (copyright 1988, Gaussian, Inc.),
 the Gaussian 86(TM) system (copyright 1986, Carnegie Mellon
 University), and the Gaussian 82(TM) system (copyright 1983,
 Carnegie Mellon University). Gaussian is a federally registered
 trademark of Gaussian, Inc.
  
 This software contains proprietary and confidential information,
 including trade secrets, belonging to Gaussian, Inc.
  
 This software is provided under written license and may be
 used, copied, transmitted, or stored only in accord with that
 written license.
  
 The following legend is applicable only to US Government
 contracts under FAR:
  
                    RESTRICTED RIGHTS LEGEND
  
 Use, reproduction and disclosure by the US Government is
 subject to restrictions as set forth in subparagraphs (a)
 and (c) of the Commercial Computer Software - Restricted
 Rights clause in FAR 52.227-19.
  
 Gaussian, Inc.
 340 Quinnipiac St., Bldg. 40, Wallingford CT 06492
  
  
 ---------------------------------------------------------------
 Warning -- This program may not be used in any manner that
 competes with the business of Gaussian, Inc. or will provide
 assistance to any competitor of Gaussian, Inc.  The licensee
 of this program is prohibited from giving any competitor of
 Gaussian, Inc. access to this program.  By using this program,
 the user acknowledges that Gaussian, Inc. is engaged in the
 business of creating and licensing software in the field of
 computational chemistry and represents and warrants to the
 licensee that it is not a competitor of Gaussian, Inc. and that
 it will not use this program in any manner prohibited above.
 ---------------------------------------------------------------
  

 Cite this work as:
 Gaussian 16, Revision A.03,
 M. J. Frisch, G. W. Trucks, H. B. Schlegel, G. E. Scuseria, 
 M. A. Robb, J. R. Cheeseman, G. Scalmani, V. Barone, 
 G. A. Petersson, H. Nakatsuji, X. Li, M. Caricato, A. V. Marenich, 
 J. Bloino, B. G. Janesko, R. Gomperts, B. Mennucci, H. P. Hratchian, 
 J. V. Ortiz, A. F. Izmaylov, J. L. Sonnenberg, D. Williams-Young, 
 F. Ding, F. Lipparini, F. Egidi, J. Goings, B. Peng, A. Petrone, 
 T. Henderson, D. Ranasinghe, V. G. Zakrzewski, J. Gao, N. Rega, 
 G. Zheng, W. Liang, M. Hada, M. Ehara, K. Toyota, R. Fukuda, 
 J. Hasegawa, M. Ishida, T. Nakajima, Y. Honda, O. Kitao, H. Nakai, 
 T. Vreven, K. Throssell, J. A. Montgomery, Jr., J. E. Peralta, 
 F. Ogliaro, M. J. Bearpark, J. J. Heyd, E. N. Brothers, K. N. Kudin, 
 V. N. Staroverov, T. A. Keith, R. Kobayashi, J. Normand, 
 K. Raghavachari, A. P. Rendell, J. C. Burant, S. S. Iyengar, 
 J. Tomasi, M. Cossi, J. M. Millam, M. Klene, C. Adamo, R. Cammi, 
 J. W. Ochterski, R. L. Martin, K. Morokuma, O. Farkas, 
 J. B. Foresman, and D. J. Fox, Gaussian, Inc., Wallingford CT, 2016.
 
 ******************************************
 Gaussian 16:  EM64L-G16RevA.03 25-Dec-2016
                26-Jan-2018 
 ******************************************
 %nprocshared=32
 Will use up to   32 processors via shared memory.
 %mem=32GB
 %chk=allatoms_t.chk
 ---------------------------------------
 #p wb97xd/cc-pvdz sp scf=(maxcycles=20)
 ---------------------------------------
 1/38=1,172=1/1;
 2/12=2,17=6,18=5,40=1/2;
 3/5=16,11=2,25=1,30=1,74=-58/1,2,3;
 4//1;
 5/5=2,7=20,38=5/2;
 6/7=2,8=2,9=2,10=2,28=1/1;
 99/5=1,9=1/99;
 Leave Link    1 at Fri Jan 26 20:27:34 2018, MaxMem=  4294967296 cpu:               2.7 elap:               0.1
 (Enter /share/apps/g16/l101.exe)
 ------------------
 Base pair stacking
 ------------------
 Symbolic Z-matrix:
 Charge =  0 Multiplicity = 1
 N                     5.41694  -0.69351  -7.58594 
 C                     6.84424  -0.3926   -7.81013 
 C                     3.26626  -0.50951  -7.16403 
 N                     3.50422  -1.85816  -7.38594 
 C                     4.7904   -1.91503  -7.63125 
 H                     5.33929  -2.8306   -7.85352 
 N                     2.20353   1.54357  -6.69668 
 C                     3.40487   2.11164  -6.84385 
 H                     3.42857   3.19174  -6.70574 
 N                     4.57583   1.54845  -7.13465 
 C                     4.43576   0.22085  -7.2839 
 C                     2.09567   0.20605  -6.85319 
 N                     0.89731  -0.36284  -6.70668 
 H                     0.77085  -1.34967  -6.81349 
 H                     0.08553   0.17766  -6.48529 
 H                     7.10534  -0.67697  -8.73271 
 H                     6.99842   0.58982  -7.70903 
 H                     7.40015  -0.8861   -7.14124 
 N                     3.38501   3.98924  -3.45333 
 C                     2.0849    3.56727  -3.31296 
 C                     3.82478   5.39813  -3.50152 
 N                    -1.29127   4.29604  -2.94947 
 H                    -2.14904   3.79119  -2.85673 
 H                    -1.34965   5.29468  -2.94373 
 N                     0.99946   4.36243  -3.19641 
 C                    -0.11507   3.6632   -3.07589 
 N                    -0.16496   2.29026  -3.06975 
 H                    -1.06201   1.83985  -2.9728 
 C                     0.9392    1.45202  -3.18829 
 O                     0.78516   0.22454  -3.171 
 C                     2.14383   2.18876  -3.31855 
 N                     3.45457   1.75404  -3.45958 
 C                     4.15369   2.85389  -3.53555 
 H                     5.23721   2.89412  -3.65236 
 H                     4.28277   5.57651  -4.37171 
 H                     3.02922   5.99651  -3.41611 
 H                     4.45766   5.57742  -2.74911 
 H                    -5.87812   0.21497  -3.10526 
 H                    -5.61586  -0.05495  -1.38392 
 H                    -4.78295   1.26504  -2.20565 
 H                    -3.36477  -3.88554  -3.2294 
 C                    -3.19539  -2.81807  -3.08781 
 O                    -0.85724  -2.95176  -3.46502 
 C                    -1.8678   -2.29773  -3.20849 
 H                    -0.84167  -0.53114  -3.08782 
 N                    -1.76427  -0.9356   -3.01067 
 O                    -2.59118   1.13101  -2.56061 
 C                    -2.78171  -0.06205  -2.71867 
 H                    -5.23615  -2.33661  -2.70138 
 C                    -4.20831  -1.99106  -2.8038 
 C                    -5.15094   0.25497  -2.30797 
 N                    -4.03228  -0.63936  -2.61865 
 H                    -3.87328   6.36849  -5.12351 
 H                    -2.47817   5.8934   -4.42346 
 H                    -3.86133   5.91073  -3.55706 
 H                    -2.73221  -0.85359  -6.39044 
 H                    -4.28875  -0.187    -6.18321 
 N                    -3.29636  -0.06215  -6.15487 
 C                    -2.75058   1.10818  -5.81777 
 C                    -2.79039   3.39192  -5.15095 
 N                    -1.4546    3.53056  -5.12138 
 H                     0.22971   2.41331  -5.46117 
 C                    -0.85916   2.38862  -5.4595 
 N                    -1.40404   1.21539  -5.79745 
 H                    -5.88931   4.26926  -4.86965 
 C                    -4.953     3.73492  -5.03322 
 N                    -4.86556   2.4798   -5.40023 
 C                    -3.4997    2.24953  -5.47857 
 C                    -3.46546   5.74151  -4.45974 
 N                    -3.73558   4.34815  -4.86418 
 
 ITRead=  0  0  0  0  0  0  0  0  0  0  0  0  0  0  0  0  0  0  0  0
 ITRead=  0  0  0  0  0  0  0  0  0  0  0  0  0  0  0  0  0  0  0  0
 ITRead=  0  0  0  0  0  0  0  0  0  0  0  0  0  0  0  0  0  0  0  0
 ITRead=  0  0  0  0  0  0  0  0  0  0
 MicOpt= -1 -1 -1 -1 -1 -1 -1 -1 -1 -1 -1 -1 -1 -1 -1 -1 -1 -1 -1 -1
 MicOpt= -1 -1 -1 -1 -1 -1 -1 -1 -1 -1 -1 -1 -1 -1 -1 -1 -1 -1 -1 -1
 MicOpt= -1 -1 -1 -1 -1 -1 -1 -1 -1 -1 -1 -1 -1 -1 -1 -1 -1 -1 -1 -1
 MicOpt= -1 -1 -1 -1 -1 -1 -1 -1 -1 -1
 NAtoms=     70 NQM=       70 NQMF=       0 NMMI=      0 NMMIF=      0
                NMic=       0 NMicF=      0.
                    Isotopes and Nuclear Properties:
 (Nuclear quadrupole moments (NQMom) in fm**2, nuclear magnetic moments (NMagM)
  in nuclear magnetons)

  Atom         1           2           3           4           5           6           7           8           9          10
 IAtWgt=          14          12          12          14          12           1          14          12           1          14
 AtmWgt=  14.0030740  12.0000000  12.0000000  14.0030740  12.0000000   1.0078250  14.0030740  12.0000000   1.0078250  14.0030740
 NucSpn=           2           0           0           2           0           1           2           0           1           2
 AtZEff=  -0.0000000  -0.0000000  -0.0000000  -0.0000000  -0.0000000  -0.0000000  -0.0000000  -0.0000000  -0.0000000  -0.0000000
 NQMom=    2.0440000   0.0000000   0.0000000   2.0440000   0.0000000   0.0000000   2.0440000   0.0000000   0.0000000   2.0440000
 NMagM=    0.4037610   0.0000000   0.0000000   0.4037610   0.0000000   2.7928460   0.4037610   0.0000000   2.7928460   0.4037610
 AtZNuc=   7.0000000   6.0000000   6.0000000   7.0000000   6.0000000   1.0000000   7.0000000   6.0000000   1.0000000   7.0000000

  Atom        11          12          13          14          15          16          17          18          19          20
 IAtWgt=          12          12          14           1           1           1           1           1          14          12
 AtmWgt=  12.0000000  12.0000000  14.0030740   1.0078250   1.0078250   1.0078250   1.0078250   1.0078250  14.0030740  12.0000000
 NucSpn=           0           0           2           1           1           1           1           1           2           0
 AtZEff=  -0.0000000  -0.0000000  -0.0000000  -0.0000000  -0.0000000  -0.0000000  -0.0000000  -0.0000000  -0.0000000  -0.0000000
 NQMom=    0.0000000   0.0000000   2.0440000   0.0000000   0.0000000   0.0000000   0.0000000   0.0000000   2.0440000   0.0000000
 NMagM=    0.0000000   0.0000000   0.4037610   2.7928460   2.7928460   2.7928460   2.7928460   2.7928460   0.4037610   0.0000000
 AtZNuc=   6.0000000   6.0000000   7.0000000   1.0000000   1.0000000   1.0000000   1.0000000   1.0000000   7.0000000   6.0000000

  Atom        21          22          23          24          25          26          27          28          29          30
 IAtWgt=          12          14           1           1          14          12          14           1          12          16
 AtmWgt=  12.0000000  14.0030740   1.0078250   1.0078250  14.0030740  12.0000000  14.0030740   1.0078250  12.0000000  15.9949146
 NucSpn=           0           2           1           1           2           0           2           1           0           0
 AtZEff=  -0.0000000  -0.0000000  -0.0000000  -0.0000000  -0.0000000  -0.0000000  -0.0000000  -0.0000000  -0.0000000  -0.0000000
 NQMom=    0.0000000   2.0440000   0.0000000   0.0000000   2.0440000   0.0000000   2.0440000   0.0000000   0.0000000   0.0000000
 NMagM=    0.0000000   0.4037610   2.7928460   2.7928460   0.4037610   0.0000000   0.4037610   2.7928460   0.0000000   0.0000000
 AtZNuc=   6.0000000   7.0000000   1.0000000   1.0000000   7.0000000   6.0000000   7.0000000   1.0000000   6.0000000   8.0000000

  Atom        31          32          33          34          35          36          37          38          39          40
 IAtWgt=          12          14          12           1           1           1           1           1           1           1
 AtmWgt=  12.0000000  14.0030740  12.0000000   1.0078250   1.0078250   1.0078250   1.0078250   1.0078250   1.0078250   1.0078250
 NucSpn=           0           2           0           1           1           1           1           1           1           1
 AtZEff=  -0.0000000  -0.0000000  -0.0000000  -0.0000000  -0.0000000  -0.0000000  -0.0000000  -0.0000000  -0.0000000  -0.0000000
 NQMom=    0.0000000   2.0440000   0.0000000   0.0000000   0.0000000   0.0000000   0.0000000   0.0000000   0.0000000   0.0000000
 NMagM=    0.0000000   0.4037610   0.0000000   2.7928460   2.7928460   2.7928460   2.7928460   2.7928460   2.7928460   2.7928460
 AtZNuc=   6.0000000   7.0000000   6.0000000   1.0000000   1.0000000   1.0000000   1.0000000   1.0000000   1.0000000   1.0000000

  Atom        41          42          43          44          45          46          47          48          49          50
 IAtWgt=           1          12          16          12           1          14          16          12           1          12
 AtmWgt=   1.0078250  12.0000000  15.9949146  12.0000000   1.0078250  14.0030740  15.9949146  12.0000000   1.0078250  12.0000000
 NucSpn=           1           0           0           0           1           2           0           0           1           0
 AtZEff=  -0.0000000  -0.0000000  -0.0000000  -0.0000000  -0.0000000  -0.0000000  -0.0000000  -0.0000000  -0.0000000  -0.0000000
 NQMom=    0.0000000   0.0000000   0.0000000   0.0000000   0.0000000   2.0440000   0.0000000   0.0000000   0.0000000   0.0000000
 NMagM=    2.7928460   0.0000000   0.0000000   0.0000000   2.7928460   0.4037610   0.0000000   0.0000000   2.7928460   0.0000000
 AtZNuc=   1.0000000   6.0000000   8.0000000   6.0000000   1.0000000   7.0000000   8.0000000   6.0000000   1.0000000   6.0000000

  Atom        51          52          53          54          55          56          57          58          59          60
 IAtWgt=          12          14           1           1           1           1           1          14          12          12
 AtmWgt=  12.0000000  14.0030740   1.0078250   1.0078250   1.0078250   1.0078250   1.0078250  14.0030740  12.0000000  12.0000000
 NucSpn=           0           2           1           1           1           1           1           2           0           0
 AtZEff=  -0.0000000  -0.0000000  -0.0000000  -0.0000000  -0.0000000  -0.0000000  -0.0000000  -0.0000000  -0.0000000  -0.0000000
 NQMom=    0.0000000   2.0440000   0.0000000   0.0000000   0.0000000   0.0000000   0.0000000   2.0440000   0.0000000   0.0000000
 NMagM=    0.0000000   0.4037610   2.7928460   2.7928460   2.7928460   2.7928460   2.7928460   0.4037610   0.0000000   0.0000000
 AtZNuc=   6.0000000   7.0000000   1.0000000   1.0000000   1.0000000   1.0000000   1.0000000   7.0000000   6.0000000   6.0000000

  Atom        61          62          63          64          65          66          67          68          69          70
 IAtWgt=          14           1          12          14           1          12          14          12          12          14
 AtmWgt=  14.0030740   1.0078250  12.0000000  14.0030740   1.0078250  12.0000000  14.0030740  12.0000000  12.0000000  14.0030740
 NucSpn=           2           1           0           2           1           0           2           0           0           2
 AtZEff=  -0.0000000  -0.0000000  -0.0000000  -0.0000000  -0.0000000  -0.0000000  -0.0000000  -0.0000000  -0.0000000  -0.0000000
 NQMom=    2.0440000   0.0000000   0.0000000   2.0440000   0.0000000   0.0000000   2.0440000   0.0000000   0.0000000   2.0440000
 NMagM=    0.4037610   2.7928460   0.0000000   0.4037610   2.7928460   0.0000000   0.4037610   0.0000000   0.0000000   0.4037610
 AtZNuc=   7.0000000   1.0000000   6.0000000   7.0000000   1.0000000   6.0000000   7.0000000   6.0000000   6.0000000   7.0000000
 Leave Link  101 at Fri Jan 26 20:27:35 2018, MaxMem=  4294967296 cpu:               7.8 elap:               0.3
 (Enter /share/apps/g16/l202.exe)
 Stoichiometry    C23H27N17O3
 Framework group  C1[X(C23H27N17O3)]
 Deg. of freedom   204
 Full point group                 C1      NOp   1
 Largest Abelian subgroup         C1      NOp   1
 Largest concise Abelian subgroup C1      NOp   1
                         Standard orientation:                         
 ---------------------------------------------------------------------
 Center     Atomic      Atomic             Coordinates (Angstroms)
 Number     Number       Type             X           Y           Z
 ---------------------------------------------------------------------
      1          7           0       -6.171569   -1.687774    0.799716
      2          6           0       -7.569503   -1.236276    0.658565
      3          6           0       -3.987119   -1.731132    1.051881
      4          7           0       -4.391392   -3.053687    0.941701
      5          6           0       -5.691262   -2.974627    0.794198
      6          1           0       -6.355086   -3.831558    0.676041
      7          7           0       -2.667537    0.208216    1.298008
      8          6           0       -3.805630    0.902811    1.198703
      9          1           0       -3.697253    1.984652    1.262950
     10          7           0       -5.051648    0.463736    1.032735
     11          6           0       -5.073341   -0.877725    0.966189
     12          6           0       -2.722821   -1.139754    1.227238
     13          7           0       -1.587824   -1.834854    1.326160
     14          1           0       -1.581488   -2.834348    1.279197
     15          1           0       -0.705644   -1.380505    1.450521
     16          1           0       -8.121743   -1.620860    1.398375
     17          1           0       -7.604244   -0.238260    0.702154
     18          1           0       -7.933759   -1.542694   -0.220877
     19          7           0       -2.599361    3.257171   -1.633841
     20          6           0       -1.357608    2.691355   -1.472750
     21          6           0       -2.915530    4.688163   -1.452211
     22          7           0        2.016683    3.008314   -0.714164
     23          1           0        2.817376    2.413309   -0.650112
     24          1           0        2.155916    3.979155   -0.517170
     25          7           0       -0.226765    3.342355   -1.124274
     26          6           0        0.810053    2.526890   -1.049112
     27          7           0        0.746410    1.176884   -1.295939
     28          1           0        1.590133    0.630564   -1.214497
     29          6           0       -0.406344    0.485906   -1.655906
     30          8           0       -0.355806   -0.733922   -1.856403
     31          6           0       -1.528542    1.348676   -1.740682
     32          7           0       -2.851002    1.077018   -2.063500
     33          6           0       -3.447135    2.235912   -1.987335
     34          1           0       -4.507567    2.402556   -2.179670
     35          1           0       -3.600597    4.791048   -0.731863
     36          1           0       -2.085416    5.180555   -1.193890
     37          1           0       -3.272071    5.063567   -2.307052
     38          1           0        5.986192   -1.625690   -0.015881
     39          1           0        6.239638   -1.591538   -1.759225
     40          1           0        5.307416   -0.313259   -0.979277
     41          1           0        3.226402   -5.322913   -1.379924
     42          6           0        3.196566   -4.233395   -1.362927
     43          8           0        0.851982   -4.108831   -1.701329
     44          6           0        1.942823   -3.564571   -1.532088
     45          1           0        1.151114   -1.678986   -1.610241
     46          7           0        2.016825   -2.186766   -1.494339
     47          8           0        3.108483   -0.205230   -1.296830
     48          6           0        3.143046   -1.423067   -1.315655
     49          1           0        5.290354   -3.976212   -1.053503
     50          6           0        4.312238   -3.515881   -1.186677
     51          6           0        5.542396   -1.367171   -0.965762
     52          7           0        4.312728   -2.140516   -1.159675
     53          1           0        3.974667    4.359097    2.452847
     54          1           0        2.825106    4.187870    1.307726
     55          1           0        4.402995    4.152114    0.891711
     56          1           0        1.912229   -2.753103    1.974782
     57          1           0        3.507158   -2.277214    2.348725
     58          7           0        2.584382   -2.017720    2.061714
     59          6           0        2.265408   -0.747170    1.806483
     60          6           0        2.694085    1.585539    1.615674
     61          7           0        1.446966    1.904717    1.231941
     62          1           0       -0.346638    0.984416    0.862300
     63          6           0        0.685065    0.814659    1.167295
     64          7           0        1.002687   -0.458740    1.422529
     65          1           0        5.792463    2.072527    2.399928
     66          6           0        4.810241    1.649732    2.186771
     67          7           0        4.512272    0.376399    2.273403
     68          6           0        3.173416    0.321893    1.913920
     69          6           0        3.738401    3.901369    1.595715
     70          7           0        3.756951    2.439068    1.794004
 ---------------------------------------------------------------------
 Rotational constants (GHZ):           0.1161107           0.0614261           0.0502733
 Leave Link  202 at Fri Jan 26 20:27:35 2018, MaxMem=  4294967296 cpu:               0.4 elap:               0.0
 (Enter /share/apps/g16/l301.exe)
 Standard basis: CC-pVDZ (5D, 7F)
 Ernie: Thresh=  0.10000D-02 Tol=  0.10000D-05 Strict=F.
 Ernie:  86 primitive shells out of 1081 were deleted.
 There are   780 symmetry adapted cartesian basis functions of A   symmetry.
 There are   737 symmetry adapted basis functions of A   symmetry.
   737 basis functions,  1608 primitive gaussians,   780 cartesian basis functions
   154 alpha electrons      154 beta electrons
       nuclear repulsion energy      5495.2291095261 Hartrees.
 IExCor= 4639 DFT=T Ex+Corr=wB97XD ExCW=0 ScaHFX=  1.000000
 ScaDFX=  1.000000  1.000000  1.000000  1.000000 ScalE2=  1.000000  1.000000
 IRadAn=      5 IRanWt=     -1 IRanGd=            0 ICorTp=0 IEmpDi=121
 HFx  wShort=  0.000000 wLong=  0.200000 cFull=  0.222036 cShort=  0.000000 cLong=  0.777964
 DFx  wShort=  0.000000 wLong=  0.200000 cFull=  0.000000 cShort=  0.000000 cLong=  1.000000
 NAtoms=   70 NActive=   70 NUniq=   70 SFac= 1.00D+00 NAtFMM=   60 NAOKFM=T Big=T
 Integral buffers will be    131072 words long.
 Raffenetti 2 integral format.
 Two-electron integral symmetry is turned on.
 R6Disp:  Grimme-D2 Dispersion energy=       -0.0690726432 Hartrees.
 Nuclear repulsion after empirical dispersion term =     5495.1600368830 Hartrees.
 Leave Link  301 at Fri Jan 26 20:27:35 2018, MaxMem=  4294967296 cpu:               2.9 elap:               0.1
 (Enter /share/apps/g16/l302.exe)
 NPDir=0 NMtPBC=     1 NCelOv=     1 NCel=       1 NClECP=     1 NCelD=      1
         NCelK=      1 NCelE2=     1 NClLst=     1 CellRange=     0.0.
 One-electron integrals computed using PRISM.
 One-electron integral symmetry used in STVInt
 NBasis=   737 RedAO= T EigKep=  6.98D-04  NBF=   737
 NBsUse=   737 1.00D-06 EigRej= -1.00D+00 NBFU=   737
 Precomputing XC quadrature grid using
 IXCGrd= 4 IRadAn=           5 IRanWt=          -1 IRanGd=           0 AccXCQ= 0.00D+00.
 Generated NRdTot=       0 NPtTot=           0 NUsed=           0 NTot=          32
 NSgBfM=   769   769   769   769   769 MxSgAt=    70 MxSgA2=    70.
 Leave Link  302 at Fri Jan 26 20:27:39 2018, MaxMem=  4294967296 cpu:             139.0 elap:               4.4
 (Enter /share/apps/g16/l303.exe)
 DipDrv:  MaxL=1.
 Leave Link  303 at Fri Jan 26 20:27:40 2018, MaxMem=  4294967296 cpu:              12.4 elap:               0.4
 (Enter /share/apps/g16/l401.exe)
 ExpMin= 1.22D-01 ExpMax= 1.17D+04 ExpMxC= 4.01D+02 IAcc=3 IRadAn=         5 AccDes= 0.00D+00
 Harris functional with IExCor= 4639 and IRadAn=       5 diagonalized for initial guess.
 HarFok:  IExCor= 4639 AccDes= 0.00D+00 IRadAn=         5 IDoV= 1 UseB2=F ITyADJ=14
 ICtDFT=  3500011 ScaDFX=  1.000000  1.000000  1.000000  1.000000
 FoFCou: FMM=F IPFlag=           0 FMFlag=      100000 FMFlg1=        2001
         NFxFlg=           0 DoJE=T BraDBF=F KetDBF=T FulRan=T
         wScrn=  0.000000 ICntrl=       500 IOpCl=  0 I1Cent=   200000004 NGrid=           0
         NMat0=    1 NMatS0=      1 NMatT0=    0 NMatD0=    1 NMtDS0=    0 NMtDT0=    0
 Petite list used in FoFCou.
 Harris En= -1963.82748659937    
 JPrj=0 DoOrth=F DoCkMO=F.
 Leave Link  401 at Fri Jan 26 20:27:52 2018, MaxMem=  4294967296 cpu:             397.8 elap:              12.5
 (Enter /share/apps/g16/l502.exe)
 Integral symmetry usage will be decided dynamically.
 Closed shell SCF:
 Using DIIS extrapolation, IDIIS=  1040.
 NGot=  4294967296 LenX=  4293717438 LenY=  4293108258
 Requested convergence on RMS density matrix=1.00D-08 within  20 cycles.
 Requested convergence on MAX density matrix=1.00D-06.
 Requested convergence on             energy=1.00D-06.
 No special actions if energy rises.
 Fock matrices will be formed incrementally for  20 cycles.
 Integral accuracy reduced to 1.0D-05 until final iterations.

 Cycle   1  Pass 0  IDiag  1:
 FoFJK:  IHMeth= 1 ICntrl=       0 DoSepK=T KAlg= 0 I1Cent=           0 FoldK=F
 IRaf=         1 NMat=       1 IRICut=       1 DoRegI=T DoRafI=F ISym2E= 0 IDoP0=0 IntGTp=1.
 FoFCou: FMM=T IPFlag=           0 FMFlag=      100000 FMFlg1=        2001
         NFxFlg=           0 DoJE=T BraDBF=F KetDBF=F FulRan=T
         wScrn=  0.000000 ICntrl=       500 IOpCl=  0 I1Cent=           0 NGrid=           0
         NMat0=    1 NMatS0=      1 NMatT0=    0 NMatD0=    1 NMtDS0=    0 NMtDT0=    0
 Symmetry not used in FoFCou.
 FMM levels:  10  Number of levels for PrismC:   9
 E= -2048.26140645057    
 DIIS: error= 2.52D-02 at cycle   1 NSaved=   1.
 NSaved= 1 IEnMin= 1 EnMin= -2048.26140645057     IErMin= 1 ErrMin= 2.52D-02
 ErrMax= 2.52D-02  0.00D+00 EMaxC= 1.00D-01 BMatC= 8.34D-01 BMatP= 8.34D-01
 IDIUse=3 WtCom= 7.48D-01 WtEn= 2.52D-01
 Coeff-Com:  0.100D+01
 Coeff-En:   0.100D+01
 Coeff:      0.100D+01
 Gap=     0.266 Goal=   None    Shift=    0.000
 GapD=    0.266 DampG=1.000 DampE=0.500 DampFc=0.5000 IDamp=-1.
 Damping current iteration by 5.00D-01
 RMSDP=1.59D-03 MaxDP=1.32D-01              OVMax= 2.09D-01

 Cycle   2  Pass 0  IDiag  1:
 RMSU=  7.94D-04    CP:  9.97D-01
 E= -2048.46113628508     Delta-E=       -0.199729834512 Rises=F Damp=T
 DIIS: error= 1.41D-02 at cycle   2 NSaved=   2.
 NSaved= 2 IEnMin= 2 EnMin= -2048.46113628508     IErMin= 2 ErrMin= 1.41D-02
 ErrMax= 1.41D-02  0.00D+00 EMaxC= 1.00D-01 BMatC= 1.45D-01 BMatP= 8.34D-01
 IDIUse=3 WtCom= 8.59D-01 WtEn= 1.41D-01
 Coeff-Com: -0.196D+00 0.120D+01
 Coeff-En:   0.000D+00 0.100D+01
 Coeff:     -0.169D+00 0.117D+01
 Gap=     0.359 Goal=   None    Shift=    0.000
 RMSDP=5.82D-04 MaxDP=3.47D-02 DE=-2.00D-01 OVMax= 1.39D-01

 Cycle   3  Pass 0  IDiag  1:
 RMSU=  5.69D-04    CP:  9.94D-01  1.15D+00
 E= -2048.64608960279     Delta-E=       -0.184953317707 Rises=F Damp=F
 DIIS: error= 1.05D-02 at cycle   3 NSaved=   3.
 NSaved= 3 IEnMin= 3 EnMin= -2048.64608960279     IErMin= 3 ErrMin= 1.05D-02
 ErrMax= 1.05D-02  0.00D+00 EMaxC= 1.00D-01 BMatC= 5.95D-02 BMatP= 1.45D-01
 IDIUse=3 WtCom= 8.95D-01 WtEn= 1.05D-01
 Coeff-Com: -0.227D+00 0.537D+00 0.690D+00
 Coeff-En:   0.000D+00 0.000D+00 0.100D+01
 Coeff:     -0.203D+00 0.480D+00 0.723D+00
 Gap=     0.276 Goal=   None    Shift=    0.000
 RMSDP=3.51D-04 MaxDP=3.56D-02 DE=-1.85D-01 OVMax= 7.73D-02

 Cycle   4  Pass 0  IDiag  1:
 RMSU=  2.03D-04    CP:  9.94D-01  1.42D+00  6.78D-01
 E= -2048.68982430453     Delta-E=       -0.043734701741 Rises=F Damp=F
 DIIS: error= 4.39D-03 at cycle   4 NSaved=   4.
 NSaved= 4 IEnMin= 4 EnMin= -2048.68982430453     IErMin= 4 ErrMin= 4.39D-03
 ErrMax= 4.39D-03  0.00D+00 EMaxC= 1.00D-01 BMatC= 1.00D-02 BMatP= 5.95D-02
 IDIUse=3 WtCom= 9.56D-01 WtEn= 4.39D-02
 Coeff-Com: -0.908D-01 0.176D+00 0.391D+00 0.524D+00
 Coeff-En:   0.000D+00 0.000D+00 0.935D-01 0.906D+00
 Coeff:     -0.868D-01 0.168D+00 0.378D+00 0.540D+00
 Gap=     0.281 Goal=   None    Shift=    0.000
 RMSDP=1.32D-04 MaxDP=1.38D-02 DE=-4.37D-02 OVMax= 1.50D-02

 Cycle   5  Pass 0  IDiag  1:
 RMSU=  6.27D-05    CP:  9.93D-01  1.39D+00  8.19D-01  6.06D-01
 E= -2048.69791240460     Delta-E=       -0.008088100074 Rises=F Damp=F
 DIIS: error= 7.78D-04 at cycle   5 NSaved=   5.
 NSaved= 5 IEnMin= 5 EnMin= -2048.69791240460     IErMin= 5 ErrMin= 7.78D-04
 ErrMax= 7.78D-04  0.00D+00 EMaxC= 1.00D-01 BMatC= 3.17D-04 BMatP= 1.00D-02
 IDIUse=3 WtCom= 9.92D-01 WtEn= 7.78D-03
 Coeff-Com: -0.218D-01 0.365D-01 0.123D+00 0.242D+00 0.620D+00
 Coeff-En:   0.000D+00 0.000D+00 0.000D+00 0.000D+00 0.100D+01
 Coeff:     -0.216D-01 0.363D-01 0.122D+00 0.240D+00 0.623D+00
 Gap=     0.281 Goal=   None    Shift=    0.000
 RMSDP=2.60D-05 MaxDP=2.46D-03 DE=-8.09D-03 OVMax= 3.76D-03

 Failed to achieve initial convergence to 1.0D-08 in  6 cycles.
 Switch to full accuracy anyway.
 Cycle   6  Pass 1  IDiag  1:
 E= -2048.69827917445     Delta-E=       -0.000366769852 Rises=F Damp=F
 DIIS: error= 2.19D-04 at cycle   1 NSaved=   1.
 NSaved= 1 IEnMin= 1 EnMin= -2048.69827917445     IErMin= 1 ErrMin= 2.19D-04
 ErrMax= 2.19D-04  0.00D+00 EMaxC= 1.00D-01 BMatC= 7.68D-05 BMatP= 7.68D-05
 IDIUse=3 WtCom= 9.98D-01 WtEn= 2.19D-03
 Coeff-Com:  0.100D+01
 Coeff-En:   0.100D+01
 Coeff:      0.100D+01
 Gap=     0.281 Goal=   None    Shift=    0.000
 RMSDP=2.60D-05 MaxDP=2.46D-03 DE=-3.67D-04 OVMax= 2.41D-03

 Cycle   7  Pass 1  IDiag  1:
 RMSU=  1.10D-04    CP:  1.00D+00
 E= -2048.69833421353     Delta-E=       -0.000055039080 Rises=F Damp=F
 DIIS: error= 3.01D-04 at cycle   2 NSaved=   2.
 NSaved= 2 IEnMin= 2 EnMin= -2048.69833421353     IErMin= 1 ErrMin= 2.19D-04
 ErrMax= 3.01D-04  0.00D+00 EMaxC= 1.00D-01 BMatC= 4.51D-05 BMatP= 7.68D-05
 IDIUse=3 WtCom= 9.97D-01 WtEn= 3.01D-03
 Coeff-Com:  0.411D+00 0.589D+00
 Coeff-En:   0.000D+00 0.100D+01
 Coeff:      0.410D+00 0.590D+00
 Gap=     0.281 Goal=   None    Shift=    0.000
 RMSDP=1.11D-05 MaxDP=1.39D-03 DE=-5.50D-05 OVMax= 1.66D-03

 Cycle   8  Pass 1  IDiag  1:
 RMSU=  1.07D-05    CP:  1.00D+00  1.02D+00
 E= -2048.69836586753     Delta-E=       -0.000031654002 Rises=F Damp=F
 DIIS: error= 1.42D-04 at cycle   3 NSaved=   3.
 NSaved= 3 IEnMin= 3 EnMin= -2048.69836586753     IErMin= 3 ErrMin= 1.42D-04
 ErrMax= 1.42D-04  0.00D+00 EMaxC= 1.00D-01 BMatC= 1.05D-05 BMatP= 4.51D-05
 IDIUse=3 WtCom= 9.99D-01 WtEn= 1.42D-03
 Coeff-Com: -0.184D-01 0.312D+00 0.706D+00
 Coeff-En:   0.000D+00 0.130D+00 0.870D+00
 Coeff:     -0.184D-01 0.312D+00 0.706D+00
 Gap=     0.281 Goal=   None    Shift=    0.000
 RMSDP=5.54D-06 MaxDP=5.36D-04 DE=-3.17D-05 OVMax= 5.82D-04

 Cycle   9  Pass 1  IDiag  1:
 RMSU=  3.80D-06    CP:  1.00D+00  1.05D+00  7.65D-01
 E= -2048.69837516803     Delta-E=       -0.000009300491 Rises=F Damp=F
 DIIS: error= 4.71D-05 at cycle   4 NSaved=   4.
 NSaved= 4 IEnMin= 4 EnMin= -2048.69837516803     IErMin= 4 ErrMin= 4.71D-05
 ErrMax= 4.71D-05  0.00D+00 EMaxC= 1.00D-01 BMatC= 5.01D-07 BMatP= 1.05D-05
 IDIUse=1 WtCom= 1.00D+00 WtEn= 0.00D+00
 Coeff-Com: -0.301D-01 0.880D-01 0.262D+00 0.681D+00
 Coeff:     -0.301D-01 0.880D-01 0.262D+00 0.681D+00
 Gap=     0.281 Goal=   None    Shift=    0.000
 RMSDP=1.42D-06 MaxDP=1.53D-04 DE=-9.30D-06 OVMax= 5.24D-04

 Cycle  10  Pass 1  IDiag  1:
 RMSU=  1.28D-06    CP:  1.00D+00  1.06D+00  7.96D-01  1.10D+00
 E= -2048.69837597968     Delta-E=       -0.000000811655 Rises=F Damp=F
 DIIS: error= 1.39D-05 at cycle   5 NSaved=   5.
 NSaved= 5 IEnMin= 5 EnMin= -2048.69837597968     IErMin= 5 ErrMin= 1.39D-05
 ErrMax= 1.39D-05  0.00D+00 EMaxC= 1.00D-01 BMatC= 1.18D-07 BMatP= 5.01D-07
 IDIUse=1 WtCom= 1.00D+00 WtEn= 0.00D+00
 Coeff-Com: -0.279D-02-0.540D-01-0.121D+00 0.202D+00 0.975D+00
 Coeff:     -0.279D-02-0.540D-01-0.121D+00 0.202D+00 0.975D+00
 Gap=     0.281 Goal=   None    Shift=    0.000
 RMSDP=1.18D-06 MaxDP=7.36D-05 DE=-8.12D-07 OVMax= 2.37D-04

 Cycle  11  Pass 1  IDiag  1:
 RMSU=  4.96D-07    CP:  1.00D+00  1.06D+00  8.06D-01  1.37D+00  1.16D+00
 E= -2048.69837622905     Delta-E=       -0.000000249365 Rises=F Damp=F
 DIIS: error= 1.18D-05 at cycle   6 NSaved=   6.
 NSaved= 6 IEnMin= 6 EnMin= -2048.69837622905     IErMin= 6 ErrMin= 1.18D-05
 ErrMax= 1.18D-05  0.00D+00 EMaxC= 1.00D-01 BMatC= 2.67D-08 BMatP= 1.18D-07
 IDIUse=1 WtCom= 1.00D+00 WtEn= 0.00D+00
 Coeff-Com:  0.452D-02-0.443D-01-0.114D+00-0.201D-02 0.514D+00 0.641D+00
 Coeff:      0.452D-02-0.443D-01-0.114D+00-0.201D-02 0.514D+00 0.641D+00
 Gap=     0.281 Goal=   None    Shift=    0.000
 RMSDP=3.68D-07 MaxDP=3.67D-05 DE=-2.49D-07 OVMax= 1.29D-04

 Cycle  12  Pass 1  IDiag  1:
 RMSU=  1.84D-07    CP:  1.00D+00  1.06D+00  8.06D-01  1.44D+00  1.29D+00
                    CP:  9.22D-01
 E= -2048.69837626860     Delta-E=       -0.000000039558 Rises=F Damp=F
 DIIS: error= 1.43D-06 at cycle   7 NSaved=   7.
 NSaved= 7 IEnMin= 7 EnMin= -2048.69837626860     IErMin= 7 ErrMin= 1.43D-06
 ErrMax= 1.43D-06  0.00D+00 EMaxC= 1.00D-01 BMatC= 8.47D-10 BMatP= 2.67D-08
 IDIUse=1 WtCom= 1.00D+00 WtEn= 0.00D+00
 Coeff-Com:  0.117D-02-0.799D-02-0.221D-01-0.702D-02 0.656D-01 0.154D+00
 Coeff-Com:  0.816D+00
 Coeff:      0.117D-02-0.799D-02-0.221D-01-0.702D-02 0.656D-01 0.154D+00
 Coeff:      0.816D+00
 Gap=     0.281 Goal=   None    Shift=    0.000
 RMSDP=8.21D-08 MaxDP=5.07D-06 DE=-3.96D-08 OVMax= 2.15D-05

 Cycle  13  Pass 1  IDiag  1:
 RMSU=  5.21D-08    CP:  1.00D+00  1.06D+00  8.06D-01  1.45D+00  1.31D+00
                    CP:  1.01D+00  1.12D+00
 E= -2048.69837627024     Delta-E=       -0.000000001638 Rises=F Damp=F
 DIIS: error= 6.31D-07 at cycle   8 NSaved=   8.
 NSaved= 8 IEnMin= 8 EnMin= -2048.69837627024     IErMin= 8 ErrMin= 6.31D-07
 ErrMax= 6.31D-07  0.00D+00 EMaxC= 1.00D-01 BMatC= 3.43D-10 BMatP= 8.47D-10
 IDIUse=1 WtCom= 1.00D+00 WtEn= 0.00D+00
 Coeff-Com: -0.633D-03 0.798D-02 0.194D-01-0.169D-02-0.108D+00-0.911D-01
 Coeff-Com:  0.422D+00 0.752D+00
 Coeff:     -0.633D-03 0.798D-02 0.194D-01-0.169D-02-0.108D+00-0.911D-01
 Coeff:      0.422D+00 0.752D+00
 Gap=     0.281 Goal=   None    Shift=    0.000
 RMSDP=4.86D-08 MaxDP=2.82D-06 DE=-1.64D-09 OVMax= 1.14D-05

 Cycle  14  Pass 1  IDiag  1:
 RMSU=  2.86D-08    CP:  1.00D+00  1.06D+00  8.05D-01  1.45D+00  1.32D+00
                    CP:  1.05D+00  1.27D+00  1.03D+00
 E= -2048.69837627087     Delta-E=       -0.000000000627 Rises=F Damp=F
 DIIS: error= 2.47D-07 at cycle   9 NSaved=   9.
 NSaved= 9 IEnMin= 9 EnMin= -2048.69837627087     IErMin= 9 ErrMin= 2.47D-07
 ErrMax= 2.47D-07  0.00D+00 EMaxC= 1.00D-01 BMatC= 3.89D-11 BMatP= 3.43D-10
 IDIUse=1 WtCom= 1.00D+00 WtEn= 0.00D+00
 Coeff-Com: -0.438D-03 0.476D-02 0.119D-01 0.626D-03-0.577D-01-0.611D-01
 Coeff-Com:  0.930D-01 0.330D+00 0.679D+00
 Coeff:     -0.438D-03 0.476D-02 0.119D-01 0.626D-03-0.577D-01-0.611D-01
 Coeff:      0.930D-01 0.330D+00 0.679D+00
 Gap=     0.281 Goal=   None    Shift=    0.000
 RMSDP=1.43D-08 MaxDP=7.59D-07 DE=-6.27D-10 OVMax= 3.44D-06

 Cycle  15  Pass 1  IDiag  1:
 RMSU=  9.49D-09    CP:  1.00D+00  1.06D+00  8.06D-01  1.45D+00  1.32D+00
                    CP:  1.06D+00  1.30D+00  1.18D+00  1.09D+00
 E= -2048.69837627094     Delta-E=       -0.000000000074 Rises=F Damp=F
 DIIS: error= 5.75D-08 at cycle  10 NSaved=  10.
 NSaved=10 IEnMin=10 EnMin= -2048.69837627094     IErMin=10 ErrMin= 5.75D-08
 ErrMax= 5.75D-08  0.00D+00 EMaxC= 1.00D-01 BMatC= 5.04D-12 BMatP= 3.89D-11
 IDIUse=1 WtCom= 1.00D+00 WtEn= 0.00D+00
 Coeff-Com: -0.300D-05-0.226D-03-0.431D-03 0.171D-03 0.450D-02 0.139D-04
 Coeff-Com: -0.545D-01-0.555D-01 0.231D+00 0.875D+00
 Coeff:     -0.300D-05-0.226D-03-0.431D-03 0.171D-03 0.450D-02 0.139D-04
 Coeff:     -0.545D-01-0.555D-01 0.231D+00 0.875D+00
 Gap=     0.281 Goal=   None    Shift=    0.000
 RMSDP=7.27D-09 MaxDP=4.14D-07 DE=-7.37D-11 OVMax= 1.58D-06

 SCF Done:  E(RwB97XD) =  -2048.69837627     A.U. after   15 cycles
            NFock= 15  Conv=0.73D-08     -V/T= 2.0053
 KE= 2.037978817357D+03 PE=-1.577126298889D+04 EE= 6.189425758379D+03
 Leave Link  502 at Fri Jan 26 20:39:18 2018, MaxMem=  4294967296 cpu:           21196.7 elap:             685.3
 (Enter /share/apps/g16/l601.exe)
 Copying SCF densities to generalized density rwf, IOpCl= 0 IROHF=0.

 **********************************************************************

            Population analysis using the SCF density.

 **********************************************************************

 Orbital symmetries:
       Occupied  (A) (A) (A) (A) (A) (A) (A) (A) (A) (A) (A) (A)
                 (A) (A) (A) (A) (A) (A) (A) (A) (A) (A) (A) (A)
                 (A) (A) (A) (A) (A) (A) (A) (A) (A) (A) (A) (A)
                 (A) (A) (A) (A) (A) (A) (A) (A) (A) (A) (A) (A)
                 (A) (A) (A) (A) (A) (A) (A) (A) (A) (A) (A) (A)
                 (A) (A) (A) (A) (A) (A) (A) (A) (A) (A) (A) (A)
                 (A) (A) (A) (A) (A) (A) (A) (A) (A) (A) (A) (A)
                 (A) (A) (A) (A) (A) (A) (A) (A) (A) (A) (A) (A)
                 (A) (A) (A) (A) (A) (A) (A) (A) (A) (A) (A) (A)
                 (A) (A) (A) (A) (A) (A) (A) (A) (A) (A) (A) (A)
                 (A) (A) (A) (A) (A) (A) (A) (A) (A) (A) (A) (A)
                 (A) (A) (A) (A) (A) (A) (A) (A) (A) (A) (A) (A)
                 (A) (A) (A) (A) (A) (A) (A) (A) (A) (A)
       Virtual   (A) (A) (A) (A) (A) (A) (A) (A) (A) (A) (A) (A)
                 (A) (A) (A) (A) (A) (A) (A) (A) (A) (A) (A) (A)
                 (A) (A) (A) (A) (A) (A) (A) (A) (A) (A) (A) (A)
                 (A) (A) (A) (A) (A) (A) (A) (A) (A) (A) (A) (A)
                 (A) (A) (A) (A) (A) (A) (A) (A) (A) (A) (A) (A)
                 (A) (A) (A) (A) (A) (A) (A) (A) (A) (A) (A) (A)
                 (A) (A) (A) (A) (A) (A) (A) (A) (A) (A) (A) (A)
                 (A) (A) (A) (A) (A) (A) (A) (A) (A) (A) (A) (A)
                 (A) (A) (A) (A) (A) (A) (A) (A) (A) (A) (A) (A)
                 (A) (A) (A) (A) (A) (A) (A) (A) (A) (A) (A) (A)
                 (A) (A) (A) (A) (A) (A) (A) (A) (A) (A) (A) (A)
                 (A) (A) (A) (A) (A) (A) (A) (A) (A) (A) (A) (A)
                 (A) (A) (A) (A) (A) (A) (A) (A) (A) (A) (A) (A)
                 (A) (A) (A) (A) (A) (A) (A) (A) (A) (A) (A) (A)
                 (A) (A) (A) (A) (A) (A) (A) (A) (A) (A) (A) (A)
                 (A) (A) (A) (A) (A) (A) (A) (A) (A) (A) (A) (A)
                 (A) (A) (A) (A) (A) (A) (A) (A) (A) (A) (A) (A)
                 (A) (A) (A) (A) (A) (A) (A) (A) (A) (A) (A) (A)
                 (A) (A) (A) (A) (A) (A) (A) (A) (A) (A) (A) (A)
                 (A) (A) (A) (A) (A) (A) (A) (A) (A) (A) (A) (A)
                 (A) (A) (A) (A) (A) (A) (A) (A) (A) (A) (A) (A)
                 (A) (A) (A) (A) (A) (A) (A) (A) (A) (A) (A) (A)
                 (A) (A) (A) (A) (A) (A) (A) (A) (A) (A) (A) (A)
                 (A) (A) (A) (A) (A) (A) (A) (A) (A) (A) (A) (A)
                 (A) (A) (A) (A) (A) (A) (A) (A) (A) (A) (A) (A)
                 (A) (A) (A) (A) (A) (A) (A) (A) (A) (A) (A) (A)
                 (A) (A) (A) (A) (A) (A) (A) (A) (A) (A) (A) (A)
                 (A) (A) (A) (A) (A) (A) (A) (A) (A) (A) (A) (A)
                 (A) (A) (A) (A) (A) (A) (A) (A) (A) (A) (A) (A)
                 (A) (A) (A) (A) (A) (A) (A) (A) (A) (A) (A) (A)
                 (A) (A) (A) (A) (A) (A) (A) (A) (A) (A) (A) (A)
                 (A) (A) (A) (A) (A) (A) (A) (A) (A) (A) (A) (A)
                 (A) (A) (A) (A) (A) (A) (A) (A) (A) (A) (A) (A)
                 (A) (A) (A) (A) (A) (A) (A) (A) (A) (A) (A) (A)
                 (A) (A) (A) (A) (A) (A) (A) (A) (A) (A) (A) (A)
                 (A) (A) (A) (A) (A) (A) (A) (A) (A) (A) (A) (A)
                 (A) (A) (A) (A) (A) (A) (A) (A) (A) (A) (A) (A)
                 (A) (A) (A) (A) (A) (A) (A) (A) (A) (A) (A) (A)
                 (A) (A) (A) (A) (A) (A) (A) (A) (A) (A) (A) (A)
                 (A) (A) (A) (A) (A) (A) (A) (A) (A) (A) (A) (A)
                 (A) (A) (A) (A) (A) (A) (A) (A) (A) (A) (A) (A)
                 (A) (A) (A) (A) (A) (A) (A) (A) (A) (A) (A) (A)
                 (A) (A) (A) (A) (A) (A) (A) (A) (A) (A) (A) (A)
                 (A) (A) (A) (A) (A) (A) (A) (A) (A) (A) (A) (A)
                 (A) (A) (A) (A) (A) (A) (A) (A) (A) (A) (A) (A)
                 (A) (A) (A) (A) (A) (A) (A) (A) (A) (A) (A) (A)
                 (A) (A) (A) (A) (A) (A) (A) (A) (A) (A) (A) (A)
                 (A) (A) (A) (A) (A) (A) (A) (A) (A) (A) (A) (A)
                 (A) (A) (A) (A) (A) (A) (A)
 The electronic state is 1-A.
 Alpha  occ. eigenvalues --  -19.25941 -19.21972 -19.20736 -14.52464 -14.52422
 Alpha  occ. eigenvalues --  -14.48868 -14.48465 -14.48072 -14.47870 -14.46892
 Alpha  occ. eigenvalues --  -14.46061 -14.45245 -14.43681 -14.42984 -14.42165
 Alpha  occ. eigenvalues --  -14.42165 -14.41162 -14.40827 -14.40567 -14.39903
 Alpha  occ. eigenvalues --  -10.45527 -10.41036 -10.40102 -10.39472 -10.38267
 Alpha  occ. eigenvalues --  -10.37878 -10.37759 -10.36696 -10.35209 -10.35074
 Alpha  occ. eigenvalues --  -10.35073 -10.34428 -10.34368 -10.33830 -10.33304
 Alpha  occ. eigenvalues --  -10.33060 -10.32798 -10.32185 -10.31206 -10.31027
 Alpha  occ. eigenvalues --  -10.30674 -10.28256 -10.28179  -1.19498  -1.15079
 Alpha  occ. eigenvalues --   -1.13406  -1.13009  -1.11051  -1.10691  -1.09370
 Alpha  occ. eigenvalues --   -1.09131  -1.08526  -1.04727  -1.04482  -1.02492
 Alpha  occ. eigenvalues --   -1.00997  -1.00221  -0.99861  -0.98673  -0.96749
 Alpha  occ. eigenvalues --   -0.96675  -0.96328  -0.92391  -0.91106  -0.87471
 Alpha  occ. eigenvalues --   -0.86049  -0.84186  -0.83651  -0.83576  -0.82610
 Alpha  occ. eigenvalues --   -0.82051  -0.78928  -0.76835  -0.74796  -0.74661
 Alpha  occ. eigenvalues --   -0.73685  -0.73360  -0.72675  -0.70791  -0.70297
 Alpha  occ. eigenvalues --   -0.67529  -0.66671  -0.66552  -0.66094  -0.64511
 Alpha  occ. eigenvalues --   -0.64232  -0.63824  -0.62931  -0.62505  -0.62048
 Alpha  occ. eigenvalues --   -0.60507  -0.60240  -0.60090  -0.59586  -0.59547
 Alpha  occ. eigenvalues --   -0.59338  -0.58499  -0.57123  -0.56324  -0.56076
 Alpha  occ. eigenvalues --   -0.56051  -0.55858  -0.55251  -0.54938  -0.54368
 Alpha  occ. eigenvalues --   -0.53997  -0.53695  -0.53171  -0.53033  -0.52943
 Alpha  occ. eigenvalues --   -0.52430  -0.52314  -0.51506  -0.50460  -0.50233
 Alpha  occ. eigenvalues --   -0.49952  -0.49463  -0.49371  -0.49027  -0.48827
 Alpha  occ. eigenvalues --   -0.48648  -0.48361  -0.48303  -0.48033  -0.47426
 Alpha  occ. eigenvalues --   -0.46644  -0.46092  -0.44804  -0.43986  -0.43653
 Alpha  occ. eigenvalues --   -0.40885  -0.40534  -0.39508  -0.37975  -0.37479
 Alpha  occ. eigenvalues --   -0.37328  -0.36909  -0.36747  -0.35874  -0.35039
 Alpha  occ. eigenvalues --   -0.34187  -0.33354  -0.33273  -0.33152  -0.32690
 Alpha  occ. eigenvalues --   -0.32465  -0.32013  -0.31893  -0.31368  -0.30536
 Alpha  occ. eigenvalues --   -0.30090  -0.29156  -0.25812  -0.25112
 Alpha virt. eigenvalues --    0.03013   0.04402   0.07553   0.08262   0.08305
 Alpha virt. eigenvalues --    0.09141   0.09445   0.10947   0.11451   0.11664
 Alpha virt. eigenvalues --    0.12339   0.13867   0.14282   0.14613   0.15032
 Alpha virt. eigenvalues --    0.15810   0.15927   0.16704   0.17144   0.17642
 Alpha virt. eigenvalues --    0.18478   0.19525   0.19981   0.20439   0.20493
 Alpha virt. eigenvalues --    0.20757   0.20942   0.21066   0.21266   0.21789
 Alpha virt. eigenvalues --    0.22635   0.23283   0.23511   0.23885   0.23946
 Alpha virt. eigenvalues --    0.24165   0.24249   0.24726   0.24812   0.25364
 Alpha virt. eigenvalues --    0.25672   0.26753   0.27391   0.27567   0.28142
 Alpha virt. eigenvalues --    0.29195   0.29370   0.29527   0.30351   0.30985
 Alpha virt. eigenvalues --    0.31532   0.32011   0.32611   0.33558   0.33725
 Alpha virt. eigenvalues --    0.33989   0.34453   0.34904   0.35917   0.36622
 Alpha virt. eigenvalues --    0.37056   0.37313   0.37877   0.39310   0.39677
 Alpha virt. eigenvalues --    0.40050   0.40584   0.40673   0.41320   0.41620
 Alpha virt. eigenvalues --    0.42545   0.42759   0.43228   0.43859   0.44415
 Alpha virt. eigenvalues --    0.44726   0.45369   0.46223   0.46741   0.47100
 Alpha virt. eigenvalues --    0.47431   0.48335   0.48786   0.49118   0.49817
 Alpha virt. eigenvalues --    0.50017   0.50179   0.50609   0.50657   0.51053
 Alpha virt. eigenvalues --    0.52102   0.52367   0.52710   0.53074   0.53601
 Alpha virt. eigenvalues --    0.53700   0.54222   0.55061   0.55590   0.55991
 Alpha virt. eigenvalues --    0.56399   0.56903   0.57196   0.57358   0.57550
 Alpha virt. eigenvalues --    0.57994   0.58891   0.59244   0.59503   0.59823
 Alpha virt. eigenvalues --    0.59911   0.60168   0.60489   0.61250   0.61522
 Alpha virt. eigenvalues --    0.61899   0.62052   0.62648   0.63181   0.63246
 Alpha virt. eigenvalues --    0.63697   0.64170   0.64479   0.64831   0.65490
 Alpha virt. eigenvalues --    0.65757   0.66679   0.66781   0.66954   0.67635
 Alpha virt. eigenvalues --    0.67898   0.68406   0.68806   0.68991   0.69278
 Alpha virt. eigenvalues --    0.69492   0.69973   0.70303   0.70516   0.70940
 Alpha virt. eigenvalues --    0.71235   0.72244   0.72836   0.73156   0.73651
 Alpha virt. eigenvalues --    0.73894   0.74717   0.74944   0.75272   0.75849
 Alpha virt. eigenvalues --    0.75900   0.76029   0.76453   0.76701   0.77043
 Alpha virt. eigenvalues --    0.77408   0.77718   0.78073   0.78331   0.78674
 Alpha virt. eigenvalues --    0.79195   0.79424   0.80590   0.80894   0.81267
 Alpha virt. eigenvalues --    0.81476   0.81912   0.82080   0.82460   0.82797
 Alpha virt. eigenvalues --    0.83554   0.83946   0.84242   0.84684   0.85358
 Alpha virt. eigenvalues --    0.85690   0.86115   0.86465   0.86877   0.87137
 Alpha virt. eigenvalues --    0.87791   0.88234   0.89038   0.89263   0.90107
 Alpha virt. eigenvalues --    0.90512   0.90661   0.91402   0.91575   0.92422
 Alpha virt. eigenvalues --    0.92778   0.92999   0.93028   0.93342   0.93889
 Alpha virt. eigenvalues --    0.94160   0.94527   0.95546   0.95926   0.96525
 Alpha virt. eigenvalues --    0.96660   0.97492   0.97502   0.97790   0.98444
 Alpha virt. eigenvalues --    0.98885   1.00015   1.00514   1.00712   1.01434
 Alpha virt. eigenvalues --    1.01742   1.01857   1.02355   1.02848   1.03573
 Alpha virt. eigenvalues --    1.03782   1.04225   1.04408   1.05258   1.05330
 Alpha virt. eigenvalues --    1.05739   1.06173   1.06509   1.08028   1.08470
 Alpha virt. eigenvalues --    1.09109   1.09420   1.09591   1.10271   1.11209
 Alpha virt. eigenvalues --    1.12162   1.12585   1.13105   1.13533   1.13886
 Alpha virt. eigenvalues --    1.14412   1.14710   1.14872   1.15318   1.15742
 Alpha virt. eigenvalues --    1.16463   1.16611   1.16932   1.17329   1.18074
 Alpha virt. eigenvalues --    1.18127   1.18607   1.18968   1.19350   1.19706
 Alpha virt. eigenvalues --    1.20568   1.20837   1.21012   1.21270   1.21956
 Alpha virt. eigenvalues --    1.22297   1.22717   1.23051   1.23218   1.23430
 Alpha virt. eigenvalues --    1.23628   1.24065   1.24807   1.25087   1.25648
 Alpha virt. eigenvalues --    1.25819   1.26450   1.27169   1.27818   1.28680
 Alpha virt. eigenvalues --    1.29224   1.29599   1.30541   1.31441   1.31802
 Alpha virt. eigenvalues --    1.32630   1.33175   1.33593   1.34452   1.34904
 Alpha virt. eigenvalues --    1.35348   1.35720   1.36189   1.37449   1.37941
 Alpha virt. eigenvalues --    1.38417   1.39404   1.39965   1.40037   1.41198
 Alpha virt. eigenvalues --    1.42505   1.42875   1.44438   1.45164   1.45827
 Alpha virt. eigenvalues --    1.46465   1.46810   1.47992   1.48566   1.49020
 Alpha virt. eigenvalues --    1.49336   1.49512   1.49712   1.50040   1.51494
 Alpha virt. eigenvalues --    1.51763   1.52859   1.53721   1.54270   1.55441
 Alpha virt. eigenvalues --    1.56034   1.56385   1.56840   1.57575   1.58109
 Alpha virt. eigenvalues --    1.58474   1.58939   1.60071   1.60483   1.61222
 Alpha virt. eigenvalues --    1.61960   1.62188   1.62770   1.62822   1.63293
 Alpha virt. eigenvalues --    1.63645   1.64777   1.66228   1.66372   1.66515
 Alpha virt. eigenvalues --    1.67637   1.67879   1.68573   1.68814   1.69686
 Alpha virt. eigenvalues --    1.70139   1.70602   1.70727   1.70995   1.71043
 Alpha virt. eigenvalues --    1.71557   1.72252   1.72806   1.73142   1.73674
 Alpha virt. eigenvalues --    1.73890   1.74681   1.75158   1.75287   1.75589
 Alpha virt. eigenvalues --    1.75821   1.76394   1.76874   1.76950   1.77156
 Alpha virt. eigenvalues --    1.77287   1.77953   1.78482   1.78741   1.79359
 Alpha virt. eigenvalues --    1.79987   1.80206   1.80300   1.80374   1.80574
 Alpha virt. eigenvalues --    1.80990   1.81317   1.81765   1.82122   1.82431
 Alpha virt. eigenvalues --    1.82833   1.83551   1.84013   1.84054   1.84625
 Alpha virt. eigenvalues --    1.85613   1.85997   1.86552   1.86802   1.87293
 Alpha virt. eigenvalues --    1.87979   1.88431   1.88594   1.89099   1.89216
 Alpha virt. eigenvalues --    1.89998   1.90066   1.90964   1.91113   1.92154
 Alpha virt. eigenvalues --    1.92933   1.92951   1.93404   1.93600   1.93817
 Alpha virt. eigenvalues --    1.94262   1.95467   1.95797   1.97003   1.97564
 Alpha virt. eigenvalues --    1.98597   1.99154   2.00014   2.01009   2.01310
 Alpha virt. eigenvalues --    2.02009   2.02233   2.02815   2.03233   2.04425
 Alpha virt. eigenvalues --    2.05407   2.06120   2.06377   2.06772   2.07420
 Alpha virt. eigenvalues --    2.07635   2.08562   2.08917   2.09312   2.10358
 Alpha virt. eigenvalues --    2.10550   2.10764   2.11989   2.13169   2.13629
 Alpha virt. eigenvalues --    2.14043   2.14803   2.15647   2.16219   2.18175
 Alpha virt. eigenvalues --    2.19074   2.19444   2.20155   2.20393   2.21248
 Alpha virt. eigenvalues --    2.21832   2.22129   2.22504   2.23722   2.24035
 Alpha virt. eigenvalues --    2.24461   2.24816   2.25492   2.25983   2.26542
 Alpha virt. eigenvalues --    2.27496   2.28568   2.29635   2.29821   2.30287
 Alpha virt. eigenvalues --    2.30526   2.30862   2.31781   2.32702   2.33123
 Alpha virt. eigenvalues --    2.33886   2.34253   2.34794   2.34896   2.35348
 Alpha virt. eigenvalues --    2.36301   2.36656   2.37176   2.37491   2.38129
 Alpha virt. eigenvalues --    2.38884   2.39089   2.40053   2.41436   2.41836
 Alpha virt. eigenvalues --    2.42309   2.42515   2.43644   2.43690   2.44236
 Alpha virt. eigenvalues --    2.45186   2.45878   2.46281   2.46735   2.47383
 Alpha virt. eigenvalues --    2.48147   2.49614   2.50239   2.50533   2.52157
 Alpha virt. eigenvalues --    2.52892   2.53217   2.54593   2.55009   2.55509
 Alpha virt. eigenvalues --    2.56563   2.57301   2.57962   2.58831   2.59795
 Alpha virt. eigenvalues --    2.60811   2.61630   2.62019   2.62181   2.63541
 Alpha virt. eigenvalues --    2.64246   2.64667   2.65302   2.65397   2.66023
 Alpha virt. eigenvalues --    2.67662   2.68419   2.68595   2.68900   2.69496
 Alpha virt. eigenvalues --    2.69882   2.70201   2.71023   2.71865   2.71907
 Alpha virt. eigenvalues --    2.73521   2.74232   2.74602   2.75638   2.75991
 Alpha virt. eigenvalues --    2.78284   2.78669   2.79111   2.79362   2.79580
 Alpha virt. eigenvalues --    2.80351   2.80579   2.80759   2.81139   2.81449
 Alpha virt. eigenvalues --    2.81662   2.82555   2.82986   2.83244   2.84372
 Alpha virt. eigenvalues --    2.84929   2.85506   2.86343   2.86843   2.87409
 Alpha virt. eigenvalues --    2.88298   2.89297   2.89707   2.92426   2.93811
 Alpha virt. eigenvalues --    2.94590   2.95535   2.97279   2.98530   2.99399
 Alpha virt. eigenvalues --    3.00491   3.02769   3.02971   3.04992   3.07150
 Alpha virt. eigenvalues --    3.08805   3.10465   3.10658   3.13635   3.14846
 Alpha virt. eigenvalues --    3.15401   3.16244   3.16399   3.17929   3.20807
 Alpha virt. eigenvalues --    3.21561   3.22447   3.23662   3.24183   3.26292
 Alpha virt. eigenvalues --    3.45285   3.47375   3.48363   3.49873   3.50167
 Alpha virt. eigenvalues --    3.53491   3.54042   3.56331   3.58075   3.59986
 Alpha virt. eigenvalues --    3.63067   3.70466   3.74567
          Condensed to atoms (all electrons):
 Mulliken charges:
               1
     1  N   -0.312487
     2  C    0.181688
     3  C    0.035831
     4  N   -0.260473
     5  C    0.134671
     6  H    0.025712
     7  N   -0.293130
     8  C    0.147739
     9  H    0.005222
    10  N   -0.291425
    11  C    0.252422
    12  C    0.123683
    13  N   -0.060832
    14  H    0.108221
    15  H    0.084383
    16  H    0.023859
    17  H    0.033389
    18  H    0.027005
    19  N   -0.312070
    20  C    0.243079
    21  C    0.181594
    22  N   -0.082119
    23  H    0.114579
    24  H    0.107721
    25  N   -0.291537
    26  C    0.204100
    27  N   -0.120381
    28  H    0.118839
    29  C    0.156123
    30  O   -0.316466
    31  C    0.015124
    32  N   -0.222001
    33  C    0.124567
    34  H    0.027540
    35  H    0.027957
    36  H    0.027940
    37  H    0.025084
    38  H    0.060844
    39  H    0.058327
    40  H    0.076600
    41  H    0.032014
    42  C   -0.111902
    43  O   -0.261251
    44  C    0.172154
    45  H    0.133228
    46  N   -0.129429
    47  O   -0.346289
    48  C    0.350205
    49  H    0.047362
    50  C    0.164482
    51  C    0.042448
    52  N   -0.291337
    53  H    0.039409
    54  H    0.040991
    55  H    0.026754
    56  H    0.120755
    57  H    0.115112
    58  N   -0.069682
    59  C    0.082548
    60  C    0.210307
    61  N   -0.270981
    62  H    0.039778
    63  C    0.170475
    64  N   -0.302742
    65  H    0.035031
    66  C    0.134223
    67  N   -0.267030
    68  C    0.054188
    69  C    0.161118
    70  N   -0.312861
 Sum of Mulliken charges =  -0.00000
 Mulliken charges with hydrogens summed into heavy atoms:
               1
     1  N   -0.312487
     2  C    0.265941
     3  C    0.035831
     4  N   -0.260473
     5  C    0.160382
     7  N   -0.293130
     8  C    0.152961
    10  N   -0.291425
    11  C    0.252422
    12  C    0.123683
    13  N    0.131772
    19  N   -0.312070
    20  C    0.243079
    21  C    0.262575
    22  N    0.140181
    25  N   -0.291537
    26  C    0.204100
    27  N   -0.001542
    29  C    0.156123
    30  O   -0.316466
    31  C    0.015124
    32  N   -0.222001
    33  C    0.152107
    42  C   -0.079888
    43  O   -0.261251
    44  C    0.172154
    46  N    0.003800
    47  O   -0.346289
    48  C    0.350205
    50  C    0.211844
    51  C    0.238219
    52  N   -0.291337
    58  N    0.166185
    59  C    0.082548
    60  C    0.210307
    61  N   -0.270981
    63  C    0.210254
    64  N   -0.302742
    66  C    0.169254
    67  N   -0.267030
    68  C    0.054188
    69  C    0.268272
    70  N   -0.312861
 Electronic spatial extent (au):  <R**2>=          22194.5408
 Charge=             -0.0000 electrons
 Dipole moment (field-independent basis, Debye):
    X=              9.0090    Y=              4.7969    Z=              2.5621  Tot=             10.5231
 Quadrupole moment (field-independent basis, Debye-Ang):
   XX=           -162.0821   YY=           -209.7515   ZZ=           -254.5418
   XY=             -6.4301   XZ=              2.0697   YZ=             -9.3204
 Traceless Quadrupole moment (field-independent basis, Debye-Ang):
   XX=             46.7097   YY=             -0.9597   ZZ=            -45.7500
   XY=             -6.4301   XZ=              2.0697   YZ=             -9.3204
 Octapole moment (field-independent basis, Debye-Ang**2):
  XXX=            -53.3119  YYY=            142.6223  ZZZ=              0.4426  XYY=            105.7301
  XXY=            -52.1915  XXZ=            -30.7425  XZZ=             30.0863  YZZ=             18.5324
  YYZ=             37.6600  XYZ=             62.9263
 Hexadecapole moment (field-independent basis, Debye-Ang**3):
 XXXX=         -13825.5923 YYYY=          -7358.3625 ZZZZ=          -3446.7712 XXXY=            527.7725
 XXXZ=           -123.5521 YYYX=           -238.7237 YYYZ=           -107.2735 ZZZX=              3.7231
 ZZZY=            -15.6263 XXYY=          -3235.9229 XXZZ=          -3539.2536 YYZZ=          -1845.6434
 XXYZ=             81.9363 YYXZ=            217.7686 ZZXY=            -31.7199
 N-N= 5.495160036883D+03 E-N=-1.577126298123D+04  KE= 2.037978817357D+03
 No NMR shielding tensors so no spin-rotation constants.
 Leave Link  601 at Fri Jan 26 20:39:20 2018, MaxMem=  4294967296 cpu:              49.9 elap:               1.7
 (Enter /share/apps/g16/l9999.exe)
 1\1\GINC-COMPUTE-0-3\SP\RwB97XD\CC-pVDZ\C23H27N17O3\SATYA\26-Jan-2018\
 0\\#p wb97xd/cc-pvdz sp scf=(maxcycles=20)\\Base pair stacking\\0,1\N,
 0,5.41694,-0.69351,-7.58594\C,0,6.84424,-0.3926,-7.81013\C,0,3.26626,-
 0.50951,-7.16403\N,0,3.50422,-1.85816,-7.38594\C,0,4.7904,-1.91503,-7.
 63125\H,0,5.33929,-2.8306,-7.85352\N,0,2.20353,1.54357,-6.69668\C,0,3.
 40487,2.11164,-6.84385\H,0,3.42857,3.19174,-6.70574\N,0,4.57583,1.5484
 5,-7.13465\C,0,4.43576,0.22085,-7.2839\C,0,2.09567,0.20605,-6.85319\N,
 0,0.89731,-0.36284,-6.70668\H,0,0.77085,-1.34967,-6.81349\H,0,0.08553,
 0.17766,-6.48529\H,0,7.10534,-0.67697,-8.73271\H,0,6.99842,0.58982,-7.
 70903\H,0,7.40015,-0.8861,-7.14124\N,0,3.38501,3.98924,-3.45333\C,0,2.
 0849,3.56727,-3.31296\C,0,3.82478,5.39813,-3.50152\N,0,-1.29127,4.2960
 4,-2.94947\H,0,-2.14904,3.79119,-2.85673\H,0,-1.34965,5.29468,-2.94373
 \N,0,0.99946,4.36243,-3.19641\C,0,-0.11507,3.6632,-3.07589\N,0,-0.1649
 6,2.29026,-3.06975\H,0,-1.06201,1.83985,-2.9728\C,0,0.9392,1.45202,-3.
 18829\O,0,0.78516,0.22454,-3.171\C,0,2.14383,2.18876,-3.31855\N,0,3.45
 457,1.75404,-3.45958\C,0,4.15369,2.85389,-3.53555\H,0,5.23721,2.89412,
 -3.65236\H,0,4.28277,5.57651,-4.37171\H,0,3.02922,5.99651,-3.41611\H,0
 ,4.45766,5.57742,-2.74911\H,0,-5.87812,0.21497,-3.10526\H,0,-5.61586,-
 0.05495,-1.38392\H,0,-4.78295,1.26504,-2.20565\H,0,-3.36477,-3.88554,-
 3.2294\C,0,-3.19539,-2.81807,-3.08781\O,0,-0.85724,-2.95176,-3.46502\C
 ,0,-1.8678,-2.29773,-3.20849\H,0,-0.84167,-0.53114,-3.08782\N,0,-1.764
 27,-0.9356,-3.01067\O,0,-2.59118,1.13101,-2.56061\C,0,-2.78171,-0.0620
 5,-2.71867\H,0,-5.23615,-2.33661,-2.70138\C,0,-4.20831,-1.99106,-2.803
 8\C,0,-5.15094,0.25497,-2.30797\N,0,-4.03228,-0.63936,-2.61865\H,0,-3.
 87328,6.36849,-5.12351\H,0,-2.47817,5.8934,-4.42346\H,0,-3.86133,5.910
 73,-3.55706\H,0,-2.73221,-0.85359,-6.39044\H,0,-4.28875,-0.187,-6.1832
 1\N,0,-3.29636,-0.06215,-6.15487\C,0,-2.75058,1.10818,-5.81777\C,0,-2.
 79039,3.39192,-5.15095\N,0,-1.4546,3.53056,-5.12138\H,0,0.22971,2.4133
 1,-5.46117\C,0,-0.85916,2.38862,-5.4595\N,0,-1.40404,1.21539,-5.79745\
 H,0,-5.88931,4.26926,-4.86965\C,0,-4.953,3.73492,-5.03322\N,0,-4.86556
 ,2.4798,-5.40023\C,0,-3.4997,2.24953,-5.47857\C,0,-3.46546,5.74151,-4.
 45974\N,0,-3.73558,4.34815,-4.86418\\Version=EM64L-G16RevA.03\State=1-
 A\HF=-2048.6983763\RMSD=7.267e-09\Dipole=-3.3985456,2.3266367,0.421055
 5\Quadrupole=31.0584944,-4.8714504,-26.1870439,4.8527322,-16.2798946,1
 1.372244\PG=C01 [X(C23H27N17O3)]\\@


 MEN HAVE BECOME THE TOOLS OF THEIR TOOLS... THOREAU   
 Job cpu time:       0 days  6 hours  3 minutes 32.0 seconds.
 Elapsed time:       0 days  0 hours 11 minutes 45.0 seconds.
 File lengths (MBytes):  RWF=    298 Int=      0 D2E=      0 Chk=     33 Scr=      1
 Normal termination of Gaussian 16 at Fri Jan 26 20:39:20 2018.
