 Entering Gaussian System, Link 0=g16
 Input=str60.-20.1.5.com
 Output=str60.-20.1.5.log
 Initial command:
 /share/apps/g16/l1.exe "/state/partition1/scr/Gau-30153.inp" -scrdir="/state/partition1/scr/"
 Entering Link 1 = /share/apps/g16/l1.exe PID=     30154.
  
 Copyright (c) 1988,1990,1992,1993,1995,1998,2003,2009,2016,
            Gaussian, Inc.  All Rights Reserved.
  
 This is part of the Gaussian(R) 16 program.  It is based on
 the Gaussian(R) 09 system (copyright 2009, Gaussian, Inc.),
 the Gaussian(R) 03 system (copyright 2003, Gaussian, Inc.),
 the Gaussian(R) 98 system (copyright 1998, Gaussian, Inc.),
 the Gaussian(R) 94 system (copyright 1995, Gaussian, Inc.),
 the Gaussian 92(TM) system (copyright 1992, Gaussian, Inc.),
 the Gaussian 90(TM) system (copyright 1990, Gaussian, Inc.),
 the Gaussian 88(TM) system (copyright 1988, Gaussian, Inc.),
 the Gaussian 86(TM) system (copyright 1986, Carnegie Mellon
 University), and the Gaussian 82(TM) system (copyright 1983,
 Carnegie Mellon University). Gaussian is a federally registered
 trademark of Gaussian, Inc.
  
 This software contains proprietary and confidential information,
 including trade secrets, belonging to Gaussian, Inc.
  
 This software is provided under written license and may be
 used, copied, transmitted, or stored only in accord with that
 written license.
  
 The following legend is applicable only to US Government
 contracts under FAR:
  
                    RESTRICTED RIGHTS LEGEND
  
 Use, reproduction and disclosure by the US Government is
 subject to restrictions as set forth in subparagraphs (a)
 and (c) of the Commercial Computer Software - Restricted
 Rights clause in FAR 52.227-19.
  
 Gaussian, Inc.
 340 Quinnipiac St., Bldg. 40, Wallingford CT 06492
  
  
 ---------------------------------------------------------------
 Warning -- This program may not be used in any manner that
 competes with the business of Gaussian, Inc. or will provide
 assistance to any competitor of Gaussian, Inc.  The licensee
 of this program is prohibited from giving any competitor of
 Gaussian, Inc. access to this program.  By using this program,
 the user acknowledges that Gaussian, Inc. is engaged in the
 business of creating and licensing software in the field of
 computational chemistry and represents and warrants to the
 licensee that it is not a competitor of Gaussian, Inc. and that
 it will not use this program in any manner prohibited above.
 ---------------------------------------------------------------
  

 Cite this work as:
 Gaussian 16, Revision A.03,
 M. J. Frisch, G. W. Trucks, H. B. Schlegel, G. E. Scuseria, 
 M. A. Robb, J. R. Cheeseman, G. Scalmani, V. Barone, 
 G. A. Petersson, H. Nakatsuji, X. Li, M. Caricato, A. V. Marenich, 
 J. Bloino, B. G. Janesko, R. Gomperts, B. Mennucci, H. P. Hratchian, 
 J. V. Ortiz, A. F. Izmaylov, J. L. Sonnenberg, D. Williams-Young, 
 F. Ding, F. Lipparini, F. Egidi, J. Goings, B. Peng, A. Petrone, 
 T. Henderson, D. Ranasinghe, V. G. Zakrzewski, J. Gao, N. Rega, 
 G. Zheng, W. Liang, M. Hada, M. Ehara, K. Toyota, R. Fukuda, 
 J. Hasegawa, M. Ishida, T. Nakajima, Y. Honda, O. Kitao, H. Nakai, 
 T. Vreven, K. Throssell, J. A. Montgomery, Jr., J. E. Peralta, 
 F. Ogliaro, M. J. Bearpark, J. J. Heyd, E. N. Brothers, K. N. Kudin, 
 V. N. Staroverov, T. A. Keith, R. Kobayashi, J. Normand, 
 K. Raghavachari, A. P. Rendell, J. C. Burant, S. S. Iyengar, 
 J. Tomasi, M. Cossi, J. M. Millam, M. Klene, C. Adamo, R. Cammi, 
 J. W. Ochterski, R. L. Martin, K. Morokuma, O. Farkas, 
 J. B. Foresman, and D. J. Fox, Gaussian, Inc., Wallingford CT, 2016.
 
 ******************************************
 Gaussian 16:  EM64L-G16RevA.03 25-Dec-2016
                27-Jan-2018 
 ******************************************
 %nprocshared=32
 Will use up to   32 processors via shared memory.
 %mem=32GB
 %chk=allatoms_t.chk
 ---------------------------------------
 #p wb97xd/cc-pvdz sp scf=(maxcycles=20)
 ---------------------------------------
 1/38=1,172=1/1;
 2/12=2,17=6,18=5,40=1/2;
 3/5=16,11=2,25=1,30=1,74=-58/1,2,3;
 4//1;
 5/5=2,7=20,38=5/2;
 6/7=2,8=2,9=2,10=2,28=1/1;
 99/5=1,9=1/99;
 Leave Link    1 at Sat Jan 27 06:19:17 2018, MaxMem=  4294967296 cpu:               2.8 elap:               0.1
 (Enter /share/apps/g16/l101.exe)
 ------------------
 Base pair stacking
 ------------------
 Symbolic Z-matrix:
 Charge =  0 Multiplicity = 1
 N                     1.47284  -1.85266  -7.62021 
 C                     2.87678  -1.55803  -7.96682 
 C                    -0.59198  -1.69405  -6.87948 
 N                    -0.4691   -2.96727  -7.41664 
 C                     0.76996  -3.01187  -7.8414 
 H                     1.22789  -3.87347  -8.32811 
 N                    -1.45631   0.23921  -5.84104 
 C                    -0.24961   0.78479  -6.0249 
 H                    -0.14085   1.80601  -5.66222 
 N                     0.8378    0.26073  -6.58687 
 C                     0.59683  -0.99529  -6.99769 
 C                    -1.66692  -1.02595  -6.26542 
 N                    -2.8708   -1.57228  -6.08278 
 H                    -3.07151  -2.50605  -6.38111 
 H                    -3.61273  -1.06711  -5.64177 
 H                     3.00157  -1.63959  -8.95574 
 H                     3.10394  -0.62823  -7.67873 
 H                     3.48011  -2.20599  -7.50191 
 N                     2.12263   2.27267  -3.44685 
 C                     0.84567   1.84783  -3.16949 
 C                     2.57317   3.67899  -3.4477 
 N                    -2.44358   2.56402  -2.31528 
 H                    -3.2894    2.05791  -2.14892 
 H                    -2.48598   3.55967  -2.22812 
 N                    -0.20359   2.63737  -2.85368 
 C                    -1.30323   1.93663  -2.6407 
 N                    -1.37216   0.56738  -2.72966 
 H                    -2.25558   0.11544  -2.54999 
 C                    -0.30524  -0.26506  -3.05307 
 O                    -0.47383  -1.48957  -3.10666 
 C                     0.88302   0.47337  -3.28468 
 N                     2.15778   0.04397  -3.62745 
 C                     2.85728   1.14291  -3.7125 
 H                     3.91693   1.18641  -3.96652 
 H                     2.91687   3.92007  -4.35465 
 H                     1.80436   4.2732   -3.21509 
 H                     3.30098   3.79798  -2.7732 
 H                    -7.07157  -1.47081  -2.17216 
 H                    -6.59202  -1.87083  -0.52454 
 H                    -5.85347  -0.4969   -1.34809 
 H                    -4.65644  -5.56284  -2.92646 
 C                    -4.45437  -4.50991  -2.72963 
 O                    -2.18723  -4.6265   -3.41782 
 C                    -3.14615  -3.98859  -2.98384 
 H                    -2.08707  -2.24124  -2.86786 
 N                    -2.99771  -2.64575  -2.70102 
 O                    -3.72858  -0.61478  -1.99519 
 C                    -3.95561  -1.79159  -2.21483 
 H                    -6.42033  -4.04872  -2.04545 
 C                    -5.4095   -3.70158  -2.25538 
 C                    -6.2465   -1.49456  -1.47592 
 N                    -5.19099  -2.36854  -1.99533 
 H                    -6.97178   4.79846  -2.45353 
 H                    -5.5325    4.13314  -2.06892 
 H                    -6.79208   4.00488  -1.03883 
 H                    -6.45552  -1.99779  -5.38783 
 H                    -7.92867  -1.34139  -4.83188 
 N                    -6.93471  -1.25958  -4.91287 
 C                    -6.27837  -0.21219  -4.40952 
 C                    -6.09036   1.86706  -3.26798 
 N                    -4.75538   1.95041  -3.39163 
 H                    -3.20072   0.87988  -4.19013 
 C                    -4.28015   0.89229  -4.04541 
 N                    -4.93588  -0.15778  -4.55035 
 H                    -9.06805   2.76461  -2.38484 
 C                    -8.19518   2.24843  -2.78559 
 N                    -8.23366   1.10359  -3.42241 
 C                    -6.90566   0.85032  -3.73387 
 C                    -6.52411   4.02657  -2.00211 
 N                    -6.93002   2.7674   -2.65614 
 
 ITRead=  0  0  0  0  0  0  0  0  0  0  0  0  0  0  0  0  0  0  0  0
 ITRead=  0  0  0  0  0  0  0  0  0  0  0  0  0  0  0  0  0  0  0  0
 ITRead=  0  0  0  0  0  0  0  0  0  0  0  0  0  0  0  0  0  0  0  0
 ITRead=  0  0  0  0  0  0  0  0  0  0
 MicOpt= -1 -1 -1 -1 -1 -1 -1 -1 -1 -1 -1 -1 -1 -1 -1 -1 -1 -1 -1 -1
 MicOpt= -1 -1 -1 -1 -1 -1 -1 -1 -1 -1 -1 -1 -1 -1 -1 -1 -1 -1 -1 -1
 MicOpt= -1 -1 -1 -1 -1 -1 -1 -1 -1 -1 -1 -1 -1 -1 -1 -1 -1 -1 -1 -1
 MicOpt= -1 -1 -1 -1 -1 -1 -1 -1 -1 -1
 NAtoms=     70 NQM=       70 NQMF=       0 NMMI=      0 NMMIF=      0
                NMic=       0 NMicF=      0.
                    Isotopes and Nuclear Properties:
 (Nuclear quadrupole moments (NQMom) in fm**2, nuclear magnetic moments (NMagM)
  in nuclear magnetons)

  Atom         1           2           3           4           5           6           7           8           9          10
 IAtWgt=          14          12          12          14          12           1          14          12           1          14
 AtmWgt=  14.0030740  12.0000000  12.0000000  14.0030740  12.0000000   1.0078250  14.0030740  12.0000000   1.0078250  14.0030740
 NucSpn=           2           0           0           2           0           1           2           0           1           2
 AtZEff=  -0.0000000  -0.0000000  -0.0000000  -0.0000000  -0.0000000  -0.0000000  -0.0000000  -0.0000000  -0.0000000  -0.0000000
 NQMom=    2.0440000   0.0000000   0.0000000   2.0440000   0.0000000   0.0000000   2.0440000   0.0000000   0.0000000   2.0440000
 NMagM=    0.4037610   0.0000000   0.0000000   0.4037610   0.0000000   2.7928460   0.4037610   0.0000000   2.7928460   0.4037610
 AtZNuc=   7.0000000   6.0000000   6.0000000   7.0000000   6.0000000   1.0000000   7.0000000   6.0000000   1.0000000   7.0000000

  Atom        11          12          13          14          15          16          17          18          19          20
 IAtWgt=          12          12          14           1           1           1           1           1          14          12
 AtmWgt=  12.0000000  12.0000000  14.0030740   1.0078250   1.0078250   1.0078250   1.0078250   1.0078250  14.0030740  12.0000000
 NucSpn=           0           0           2           1           1           1           1           1           2           0
 AtZEff=  -0.0000000  -0.0000000  -0.0000000  -0.0000000  -0.0000000  -0.0000000  -0.0000000  -0.0000000  -0.0000000  -0.0000000
 NQMom=    0.0000000   0.0000000   2.0440000   0.0000000   0.0000000   0.0000000   0.0000000   0.0000000   2.0440000   0.0000000
 NMagM=    0.0000000   0.0000000   0.4037610   2.7928460   2.7928460   2.7928460   2.7928460   2.7928460   0.4037610   0.0000000
 AtZNuc=   6.0000000   6.0000000   7.0000000   1.0000000   1.0000000   1.0000000   1.0000000   1.0000000   7.0000000   6.0000000

  Atom        21          22          23          24          25          26          27          28          29          30
 IAtWgt=          12          14           1           1          14          12          14           1          12          16
 AtmWgt=  12.0000000  14.0030740   1.0078250   1.0078250  14.0030740  12.0000000  14.0030740   1.0078250  12.0000000  15.9949146
 NucSpn=           0           2           1           1           2           0           2           1           0           0
 AtZEff=  -0.0000000  -0.0000000  -0.0000000  -0.0000000  -0.0000000  -0.0000000  -0.0000000  -0.0000000  -0.0000000  -0.0000000
 NQMom=    0.0000000   2.0440000   0.0000000   0.0000000   2.0440000   0.0000000   2.0440000   0.0000000   0.0000000   0.0000000
 NMagM=    0.0000000   0.4037610   2.7928460   2.7928460   0.4037610   0.0000000   0.4037610   2.7928460   0.0000000   0.0000000
 AtZNuc=   6.0000000   7.0000000   1.0000000   1.0000000   7.0000000   6.0000000   7.0000000   1.0000000   6.0000000   8.0000000

  Atom        31          32          33          34          35          36          37          38          39          40
 IAtWgt=          12          14          12           1           1           1           1           1           1           1
 AtmWgt=  12.0000000  14.0030740  12.0000000   1.0078250   1.0078250   1.0078250   1.0078250   1.0078250   1.0078250   1.0078250
 NucSpn=           0           2           0           1           1           1           1           1           1           1
 AtZEff=  -0.0000000  -0.0000000  -0.0000000  -0.0000000  -0.0000000  -0.0000000  -0.0000000  -0.0000000  -0.0000000  -0.0000000
 NQMom=    0.0000000   2.0440000   0.0000000   0.0000000   0.0000000   0.0000000   0.0000000   0.0000000   0.0000000   0.0000000
 NMagM=    0.0000000   0.4037610   0.0000000   2.7928460   2.7928460   2.7928460   2.7928460   2.7928460   2.7928460   2.7928460
 AtZNuc=   6.0000000   7.0000000   6.0000000   1.0000000   1.0000000   1.0000000   1.0000000   1.0000000   1.0000000   1.0000000

  Atom        41          42          43          44          45          46          47          48          49          50
 IAtWgt=           1          12          16          12           1          14          16          12           1          12
 AtmWgt=   1.0078250  12.0000000  15.9949146  12.0000000   1.0078250  14.0030740  15.9949146  12.0000000   1.0078250  12.0000000
 NucSpn=           1           0           0           0           1           2           0           0           1           0
 AtZEff=  -0.0000000  -0.0000000  -0.0000000  -0.0000000  -0.0000000  -0.0000000  -0.0000000  -0.0000000  -0.0000000  -0.0000000
 NQMom=    0.0000000   0.0000000   0.0000000   0.0000000   0.0000000   2.0440000   0.0000000   0.0000000   0.0000000   0.0000000
 NMagM=    2.7928460   0.0000000   0.0000000   0.0000000   2.7928460   0.4037610   0.0000000   0.0000000   2.7928460   0.0000000
 AtZNuc=   1.0000000   6.0000000   8.0000000   6.0000000   1.0000000   7.0000000   8.0000000   6.0000000   1.0000000   6.0000000

  Atom        51          52          53          54          55          56          57          58          59          60
 IAtWgt=          12          14           1           1           1           1           1          14          12          12
 AtmWgt=  12.0000000  14.0030740   1.0078250   1.0078250   1.0078250   1.0078250   1.0078250  14.0030740  12.0000000  12.0000000
 NucSpn=           0           2           1           1           1           1           1           2           0           0
 AtZEff=  -0.0000000  -0.0000000  -0.0000000  -0.0000000  -0.0000000  -0.0000000  -0.0000000  -0.0000000  -0.0000000  -0.0000000
 NQMom=    0.0000000   2.0440000   0.0000000   0.0000000   0.0000000   0.0000000   0.0000000   2.0440000   0.0000000   0.0000000
 NMagM=    0.0000000   0.4037610   2.7928460   2.7928460   2.7928460   2.7928460   2.7928460   0.4037610   0.0000000   0.0000000
 AtZNuc=   6.0000000   7.0000000   1.0000000   1.0000000   1.0000000   1.0000000   1.0000000   7.0000000   6.0000000   6.0000000

  Atom        61          62          63          64          65          66          67          68          69          70
 IAtWgt=          14           1          12          14           1          12          14          12          12          14
 AtmWgt=  14.0030740   1.0078250  12.0000000  14.0030740   1.0078250  12.0000000  14.0030740  12.0000000  12.0000000  14.0030740
 NucSpn=           2           1           0           2           1           0           2           0           0           2
 AtZEff=  -0.0000000  -0.0000000  -0.0000000  -0.0000000  -0.0000000  -0.0000000  -0.0000000  -0.0000000  -0.0000000  -0.0000000
 NQMom=    2.0440000   0.0000000   0.0000000   2.0440000   0.0000000   0.0000000   2.0440000   0.0000000   0.0000000   2.0440000
 NMagM=    0.4037610   2.7928460   0.0000000   0.4037610   2.7928460   0.0000000   0.4037610   0.0000000   0.0000000   0.4037610
 AtZNuc=   7.0000000   1.0000000   6.0000000   7.0000000   1.0000000   6.0000000   7.0000000   6.0000000   6.0000000   7.0000000
 Leave Link  101 at Sat Jan 27 06:19:17 2018, MaxMem=  4294967296 cpu:               7.8 elap:               0.3
 (Enter /share/apps/g16/l202.exe)
 Stoichiometry    C23H27N17O3
 Framework group  C1[X(C23H27N17O3)]
 Deg. of freedom   204
 Full point group                 C1      NOp   1
 Largest Abelian subgroup         C1      NOp   1
 Largest concise Abelian subgroup C1      NOp   1
                         Standard orientation:                         
 ---------------------------------------------------------------------
 Center     Atomic      Atomic             Coordinates (Angstroms)
 Number     Number       Type             X           Y           Z
 ---------------------------------------------------------------------
      1          7           0        4.944358   -1.969531   -1.559970
      2          6           0        6.362507   -1.561094   -1.564870
      3          6           0        2.745163   -1.945119   -1.543677
      4          7           0        3.118305   -3.281187   -1.564025
      5          6           0        4.428304   -3.242422   -1.573023
      6          1           0        5.074458   -4.120579   -1.589304
      7          7           0        1.466709    0.036603   -1.508236
      8          6           0        2.629583    0.696384   -1.507971
      9          1           0        2.548053    1.782380   -1.493044
     10          7           0        3.872208    0.218307   -1.523303
     11          6           0        3.859880   -1.124810   -1.540939
     12          6           0        1.488026   -1.314066   -1.526227
     13          7           0        0.328259   -1.974445   -1.526524
     14          1           0        0.296444   -2.974461   -1.539492
     15          1           0       -0.547867   -1.492377   -1.513806
     16          1           0        6.808656   -1.910734   -2.388818
     17          1           0        6.422863   -0.563437   -1.552136
     18          1           0        6.820989   -1.931406   -0.756993
     19          7           0        3.928169    3.257207    0.990732
     20          6           0        2.660738    2.726984    1.013686
     21          6           0        4.263018    4.654316    0.649137
     22          7           0       -0.765828    3.104866    0.592232
     23          1           0       -1.585244    2.537249    0.667076
     24          1           0       -0.898183    4.059729    0.324961
     25          7           0        1.517513    3.387887    0.730315
     26          6           0        0.456022    2.608761    0.838966
     27          7           0        0.507966    1.283540    1.197576
     28          1           0       -0.354730    0.764526    1.255393
     29          6           0        1.673080    0.582996    1.493579
     30          8           0        1.610207   -0.612282    1.806751
     31          6           0        2.821800    1.406818    1.381143
     32          7           0        4.163350    1.114138    1.584787
     33          6           0        4.780186    2.238822    1.342293
     34          1           0        5.859558    2.381183    1.405275
     35          1           0        4.868077    4.668906   -0.146160
     36          1           0        3.423955    5.153691    0.437337
     37          1           0        4.721148    5.088094    1.424229
     38          1           0       -4.917385   -1.418651    0.737109
     39          1           0       -4.978120   -1.225161    2.487397
     40          1           0       -4.100713   -0.054830    1.501569
     41          1           0       -2.131062   -5.086557    2.126138
     42          6           0       -2.072433   -4.004442    2.008554
     43          8           0        0.297657   -3.939959    2.083650
     44          6           0       -0.789285   -3.371417    1.983087
     45          1           0        0.059277   -1.517376    1.807571
     46          7           0       -0.827934   -2.000155    1.830157
     47          8           0       -1.878097   -0.003104    1.572959
     48          6           0       -1.944856   -1.212628    1.704348
     49          1           0       -4.179344   -3.695857    1.901334
     50          6           0       -3.179900   -3.263086    1.888171
     51          6           0       -4.365496   -1.096370    1.607515
     52          7           0       -3.144408   -1.896102    1.738290
     53          1           0       -5.133592    4.408391   -1.584896
     54          1           0       -3.859542    4.137483   -0.602293
     55          1           0       -5.375664    4.112616    0.001722
     56          1           0       -3.251586   -2.766567   -1.793898
     57          1           0       -4.864444   -2.230268   -1.939448
     58          7           0       -3.906028   -2.011453   -1.752988
     59          6           0       -3.518912   -0.767632   -1.462782
     60          6           0       -3.848195    1.557681   -1.080377
     61          7           0       -2.554390    1.822210   -0.834408
     62          1           0       -0.758821    0.838123   -0.744359
     63          6           0       -1.824703    0.712550   -0.929815
     64          7           0       -2.210553   -0.534161   -1.220375
     65          1           0       -7.002088    2.166683   -1.446773
     66          6           0       -6.014955    1.708088   -1.381943
     67          7           0       -5.769618    0.436164   -1.581183
     68          6           0       -4.399404    0.327262   -1.393054
     69          6           0       -4.809519    3.891570   -0.792510
     70          7           0       -4.897665    2.445696   -1.074832
 ---------------------------------------------------------------------
 Rotational constants (GHZ):           0.1168015           0.0633038           0.0515803
 Leave Link  202 at Sat Jan 27 06:19:18 2018, MaxMem=  4294967296 cpu:               0.3 elap:               0.0
 (Enter /share/apps/g16/l301.exe)
 Standard basis: CC-pVDZ (5D, 7F)
 Ernie: Thresh=  0.10000D-02 Tol=  0.10000D-05 Strict=F.
 Ernie:  86 primitive shells out of 1081 were deleted.
 There are   780 symmetry adapted cartesian basis functions of A   symmetry.
 There are   737 symmetry adapted basis functions of A   symmetry.
   737 basis functions,  1608 primitive gaussians,   780 cartesian basis functions
   154 alpha electrons      154 beta electrons
       nuclear repulsion energy      5517.0795214776 Hartrees.
 IExCor= 4639 DFT=T Ex+Corr=wB97XD ExCW=0 ScaHFX=  1.000000
 ScaDFX=  1.000000  1.000000  1.000000  1.000000 ScalE2=  1.000000  1.000000
 IRadAn=      5 IRanWt=     -1 IRanGd=            0 ICorTp=0 IEmpDi=121
 HFx  wShort=  0.000000 wLong=  0.200000 cFull=  0.222036 cShort=  0.000000 cLong=  0.777964
 DFx  wShort=  0.000000 wLong=  0.200000 cFull=  0.000000 cShort=  0.000000 cLong=  1.000000
 NAtoms=   70 NActive=   70 NUniq=   70 SFac= 1.00D+00 NAtFMM=   60 NAOKFM=T Big=T
 Integral buffers will be    131072 words long.
 Raffenetti 2 integral format.
 Two-electron integral symmetry is turned on.
 R6Disp:  Grimme-D2 Dispersion energy=       -0.0703971917 Hartrees.
 Nuclear repulsion after empirical dispersion term =     5517.0091242859 Hartrees.
 Leave Link  301 at Sat Jan 27 06:19:18 2018, MaxMem=  4294967296 cpu:               2.2 elap:               0.1
 (Enter /share/apps/g16/l302.exe)
 NPDir=0 NMtPBC=     1 NCelOv=     1 NCel=       1 NClECP=     1 NCelD=      1
         NCelK=      1 NCelE2=     1 NClLst=     1 CellRange=     0.0.
 One-electron integrals computed using PRISM.
 One-electron integral symmetry used in STVInt
 NBasis=   737 RedAO= T EigKep=  7.19D-04  NBF=   737
 NBsUse=   737 1.00D-06 EigRej= -1.00D+00 NBFU=   737
 Precomputing XC quadrature grid using
 IXCGrd= 4 IRadAn=           5 IRanWt=          -1 IRanGd=           0 AccXCQ= 0.00D+00.
 Generated NRdTot=       0 NPtTot=           0 NUsed=           0 NTot=          32
 NSgBfM=   761   760   760   761   761 MxSgAt=    70 MxSgA2=    70.
 Leave Link  302 at Sat Jan 27 06:19:22 2018, MaxMem=  4294967296 cpu:             133.4 elap:               4.2
 (Enter /share/apps/g16/l303.exe)
 DipDrv:  MaxL=1.
 Leave Link  303 at Sat Jan 27 06:19:22 2018, MaxMem=  4294967296 cpu:              12.6 elap:               0.4
 (Enter /share/apps/g16/l401.exe)
 ExpMin= 1.22D-01 ExpMax= 1.17D+04 ExpMxC= 4.01D+02 IAcc=3 IRadAn=         5 AccDes= 0.00D+00
 Harris functional with IExCor= 4639 and IRadAn=       5 diagonalized for initial guess.
 HarFok:  IExCor= 4639 AccDes= 0.00D+00 IRadAn=         5 IDoV= 1 UseB2=F ITyADJ=14
 ICtDFT=  3500011 ScaDFX=  1.000000  1.000000  1.000000  1.000000
 FoFCou: FMM=F IPFlag=           0 FMFlag=      100000 FMFlg1=        2001
         NFxFlg=           0 DoJE=T BraDBF=F KetDBF=T FulRan=T
         wScrn=  0.000000 ICntrl=       500 IOpCl=  0 I1Cent=   200000004 NGrid=           0
         NMat0=    1 NMatS0=      1 NMatT0=    0 NMatD0=    1 NMtDS0=    0 NMtDT0=    0
 Petite list used in FoFCou.
 Harris En= -1963.86509607829    
 JPrj=0 DoOrth=F DoCkMO=F.
 Leave Link  401 at Sat Jan 27 06:19:35 2018, MaxMem=  4294967296 cpu:             401.7 elap:              12.6
 (Enter /share/apps/g16/l502.exe)
 Integral symmetry usage will be decided dynamically.
 Closed shell SCF:
 Using DIIS extrapolation, IDIIS=  1040.
 NGot=  4294967296 LenX=  4293717438 LenY=  4293108258
 Requested convergence on RMS density matrix=1.00D-08 within  20 cycles.
 Requested convergence on MAX density matrix=1.00D-06.
 Requested convergence on             energy=1.00D-06.
 No special actions if energy rises.
 Fock matrices will be formed incrementally for  20 cycles.
 Integral accuracy reduced to 1.0D-05 until final iterations.

 Cycle   1  Pass 0  IDiag  1:
 FoFJK:  IHMeth= 1 ICntrl=       0 DoSepK=T KAlg= 0 I1Cent=           0 FoldK=F
 IRaf=         1 NMat=       1 IRICut=       1 DoRegI=T DoRafI=F ISym2E= 0 IDoP0=0 IntGTp=1.
 FoFCou: FMM=T IPFlag=           0 FMFlag=      100000 FMFlg1=        2001
         NFxFlg=           0 DoJE=T BraDBF=F KetDBF=F FulRan=T
         wScrn=  0.000000 ICntrl=       500 IOpCl=  0 I1Cent=           0 NGrid=           0
         NMat0=    1 NMatS0=      1 NMatT0=    0 NMatD0=    1 NMtDS0=    0 NMtDT0=    0
 Symmetry not used in FoFCou.
 FMM levels:  10  Number of levels for PrismC:   9
 E= -2048.30254380164    
 DIIS: error= 2.31D-02 at cycle   1 NSaved=   1.
 NSaved= 1 IEnMin= 1 EnMin= -2048.30254380164     IErMin= 1 ErrMin= 2.31D-02
 ErrMax= 2.31D-02  0.00D+00 EMaxC= 1.00D-01 BMatC= 8.29D-01 BMatP= 8.29D-01
 IDIUse=3 WtCom= 7.69D-01 WtEn= 2.31D-01
 Coeff-Com:  0.100D+01
 Coeff-En:   0.100D+01
 Coeff:      0.100D+01
 Gap=     0.246 Goal=   None    Shift=    0.000
 GapD=    0.246 DampG=1.000 DampE=0.500 DampFc=0.5000 IDamp=-1.
 Damping current iteration by 5.00D-01
 RMSDP=1.54D-03 MaxDP=1.34D-01              OVMax= 2.14D-01

 Cycle   2  Pass 0  IDiag  1:
 RMSU=  7.71D-04    CP:  9.98D-01
 E= -2048.50008096237     Delta-E=       -0.197537160725 Rises=F Damp=T
 DIIS: error= 1.28D-02 at cycle   2 NSaved=   2.
 NSaved= 2 IEnMin= 2 EnMin= -2048.50008096237     IErMin= 2 ErrMin= 1.28D-02
 ErrMax= 1.28D-02  0.00D+00 EMaxC= 1.00D-01 BMatC= 1.45D-01 BMatP= 8.29D-01
 IDIUse=3 WtCom= 8.72D-01 WtEn= 1.28D-01
 Coeff-Com: -0.202D+00 0.120D+01
 Coeff-En:   0.000D+00 0.100D+01
 Coeff:     -0.177D+00 0.118D+01
 Gap=     0.287 Goal=   None    Shift=    0.000
 RMSDP=5.78D-04 MaxDP=3.66D-02 DE=-1.98D-01 OVMax= 1.58D-01

 Cycle   3  Pass 0  IDiag  1:
 RMSU=  5.62D-04    CP:  9.94D-01  1.16D+00
 E= -2048.68129889647     Delta-E=       -0.181217934100 Rises=F Damp=F
 DIIS: error= 9.46D-03 at cycle   3 NSaved=   3.
 NSaved= 3 IEnMin= 3 EnMin= -2048.68129889647     IErMin= 3 ErrMin= 9.46D-03
 ErrMax= 9.46D-03  0.00D+00 EMaxC= 1.00D-01 BMatC= 5.97D-02 BMatP= 1.45D-01
 IDIUse=3 WtCom= 9.05D-01 WtEn= 9.46D-02
 Coeff-Com: -0.230D+00 0.542D+00 0.688D+00
 Coeff-En:   0.000D+00 0.000D+00 0.100D+01
 Coeff:     -0.209D+00 0.491D+00 0.718D+00
 Gap=     0.272 Goal=   None    Shift=    0.000
 RMSDP=3.39D-04 MaxDP=3.65D-02 DE=-1.81D-01 OVMax= 7.43D-02

 Cycle   4  Pass 0  IDiag  1:
 RMSU=  1.95D-04    CP:  9.94D-01  1.44D+00  6.83D-01
 E= -2048.72542379199     Delta-E=       -0.044124895519 Rises=F Damp=F
 DIIS: error= 3.84D-03 at cycle   4 NSaved=   4.
 NSaved= 4 IEnMin= 4 EnMin= -2048.72542379199     IErMin= 4 ErrMin= 3.84D-03
 ErrMax= 3.84D-03  0.00D+00 EMaxC= 1.00D-01 BMatC= 9.23D-03 BMatP= 5.97D-02
 IDIUse=3 WtCom= 9.62D-01 WtEn= 3.84D-02
 Coeff-Com: -0.925D-01 0.179D+00 0.385D+00 0.529D+00
 Coeff-En:   0.000D+00 0.000D+00 0.715D-01 0.928D+00
 Coeff:     -0.889D-01 0.172D+00 0.373D+00 0.544D+00
 Gap=     0.274 Goal=   None    Shift=    0.000
 RMSDP=1.24D-04 MaxDP=1.40D-02 DE=-4.41D-02 OVMax= 1.58D-02

 Cycle   5  Pass 0  IDiag  1:
 RMSU=  6.17D-05    CP:  9.94D-01  1.41D+00  8.17D-01  6.22D-01
 E= -2048.73268812534     Delta-E=       -0.007264333355 Rises=F Damp=F
 DIIS: error= 7.61D-04 at cycle   5 NSaved=   5.
 NSaved= 5 IEnMin= 5 EnMin= -2048.73268812534     IErMin= 5 ErrMin= 7.61D-04
 ErrMax= 7.61D-04  0.00D+00 EMaxC= 1.00D-01 BMatC= 3.10D-04 BMatP= 9.23D-03
 IDIUse=3 WtCom= 9.92D-01 WtEn= 7.61D-03
 Coeff-Com: -0.235D-01 0.399D-01 0.125D+00 0.247D+00 0.612D+00
 Coeff-En:   0.000D+00 0.000D+00 0.000D+00 0.000D+00 0.100D+01
 Coeff:     -0.233D-01 0.396D-01 0.124D+00 0.245D+00 0.615D+00
 Gap=     0.274 Goal=   None    Shift=    0.000
 RMSDP=2.49D-05 MaxDP=2.84D-03 DE=-7.26D-03 OVMax= 3.97D-03

 Failed to achieve initial convergence to 1.0D-08 in  6 cycles.
 Switch to full accuracy anyway.
 Cycle   6  Pass 1  IDiag  1:
 E= -2048.73300098232     Delta-E=       -0.000312856974 Rises=F Damp=F
 DIIS: error= 2.08D-04 at cycle   1 NSaved=   1.
 NSaved= 1 IEnMin= 1 EnMin= -2048.73300098232     IErMin= 1 ErrMin= 2.08D-04
 ErrMax= 2.08D-04  0.00D+00 EMaxC= 1.00D-01 BMatC= 8.22D-05 BMatP= 8.22D-05
 IDIUse=3 WtCom= 9.98D-01 WtEn= 2.08D-03
 Coeff-Com:  0.100D+01
 Coeff-En:   0.100D+01
 Coeff:      0.100D+01
 Gap=     0.274 Goal=   None    Shift=    0.000
 RMSDP=2.49D-05 MaxDP=2.84D-03 DE=-3.13D-04 OVMax= 2.19D-03

 Cycle   7  Pass 1  IDiag  1:
 RMSU=  1.18D-04    CP:  1.00D+00
 E= -2048.73305653422     Delta-E=       -0.000055551907 Rises=F Damp=F
 DIIS: error= 3.31D-04 at cycle   2 NSaved=   2.
 NSaved= 2 IEnMin= 2 EnMin= -2048.73305653422     IErMin= 1 ErrMin= 2.08D-04
 ErrMax= 3.31D-04  0.00D+00 EMaxC= 1.00D-01 BMatC= 5.26D-05 BMatP= 8.22D-05
 IDIUse=3 WtCom= 9.97D-01 WtEn= 3.31D-03
 Coeff-Com:  0.425D+00 0.575D+00
 Coeff-En:   0.143D-01 0.986D+00
 Coeff:      0.424D+00 0.576D+00
 Gap=     0.274 Goal=   None    Shift=    0.000
 RMSDP=1.14D-05 MaxDP=1.66D-03 DE=-5.56D-05 OVMax= 1.83D-03

 Cycle   8  Pass 1  IDiag  1:
 RMSU=  1.10D-05    CP:  1.00D+00  1.02D+00
 E= -2048.73309201734     Delta-E=       -0.000035483111 Rises=F Damp=F
 DIIS: error= 1.39D-04 at cycle   3 NSaved=   3.
 NSaved= 3 IEnMin= 3 EnMin= -2048.73309201734     IErMin= 3 ErrMin= 1.39D-04
 ErrMax= 1.39D-04  0.00D+00 EMaxC= 1.00D-01 BMatC= 1.16D-05 BMatP= 5.26D-05
 IDIUse=3 WtCom= 9.99D-01 WtEn= 1.39D-03
 Coeff-Com: -0.190D-01 0.308D+00 0.711D+00
 Coeff-En:   0.000D+00 0.136D+00 0.864D+00
 Coeff:     -0.190D-01 0.308D+00 0.711D+00
 Gap=     0.274 Goal=   None    Shift=    0.000
 RMSDP=5.74D-06 MaxDP=5.98D-04 DE=-3.55D-05 OVMax= 5.70D-04

 Cycle   9  Pass 1  IDiag  1:
 RMSU=  3.79D-06    CP:  1.00D+00  1.05D+00  7.61D-01
 E= -2048.73310195234     Delta-E=       -0.000009935008 Rises=F Damp=F
 DIIS: error= 3.31D-05 at cycle   4 NSaved=   4.
 NSaved= 4 IEnMin= 4 EnMin= -2048.73310195234     IErMin= 4 ErrMin= 3.31D-05
 ErrMax= 3.31D-05  0.00D+00 EMaxC= 1.00D-01 BMatC= 4.72D-07 BMatP= 1.16D-05
 IDIUse=1 WtCom= 1.00D+00 WtEn= 0.00D+00
 Coeff-Com: -0.289D-01 0.878D-01 0.256D+00 0.685D+00
 Coeff:     -0.289D-01 0.878D-01 0.256D+00 0.685D+00
 Gap=     0.274 Goal=   None    Shift=    0.000
 RMSDP=1.37D-06 MaxDP=1.39D-04 DE=-9.94D-06 OVMax= 4.69D-04

 Cycle  10  Pass 1  IDiag  1:
 RMSU=  1.22D-06    CP:  1.00D+00  1.06D+00  7.89D-01  1.10D+00
 E= -2048.73310272367     Delta-E=       -0.000000771330 Rises=F Damp=F
 DIIS: error= 1.47D-05 at cycle   5 NSaved=   5.
 NSaved= 5 IEnMin= 5 EnMin= -2048.73310272367     IErMin= 5 ErrMin= 1.47D-05
 ErrMax= 1.47D-05  0.00D+00 EMaxC= 1.00D-01 BMatC= 1.04D-07 BMatP= 4.72D-07
 IDIUse=1 WtCom= 1.00D+00 WtEn= 0.00D+00
 Coeff-Com: -0.181D-02-0.522D-01-0.124D+00 0.178D+00 0.100D+01
 Coeff:     -0.181D-02-0.522D-01-0.124D+00 0.178D+00 0.100D+01
 Gap=     0.274 Goal=   None    Shift=    0.000
 RMSDP=1.15D-06 MaxDP=7.20D-05 DE=-7.71D-07 OVMax= 2.21D-04

 Cycle  11  Pass 1  IDiag  1:
 RMSU=  4.80D-07    CP:  1.00D+00  1.06D+00  7.94D-01  1.37D+00  1.18D+00
 E= -2048.73310295368     Delta-E=       -0.000000230009 Rises=F Damp=F
 DIIS: error= 9.63D-06 at cycle   6 NSaved=   6.
 NSaved= 6 IEnMin= 6 EnMin= -2048.73310295368     IErMin= 6 ErrMin= 9.63D-06
 ErrMax= 9.63D-06  0.00D+00 EMaxC= 1.00D-01 BMatC= 2.68D-08 BMatP= 1.04D-07
 IDIUse=1 WtCom= 1.00D+00 WtEn= 0.00D+00
 Coeff-Com:  0.454D-02-0.426D-01-0.113D+00-0.116D-01 0.536D+00 0.626D+00
 Coeff:      0.454D-02-0.426D-01-0.113D+00-0.116D-01 0.536D+00 0.626D+00
 Gap=     0.274 Goal=   None    Shift=    0.000
 RMSDP=3.49D-07 MaxDP=3.71D-05 DE=-2.30D-07 OVMax= 1.16D-04

 Cycle  12  Pass 1  IDiag  1:
 RMSU=  1.84D-07    CP:  1.00D+00  1.06D+00  7.95D-01  1.44D+00  1.31D+00
                    CP:  9.12D-01
 E= -2048.73310299083     Delta-E=       -0.000000037146 Rises=F Damp=F
 DIIS: error= 1.03D-06 at cycle   7 NSaved=   7.
 NSaved= 7 IEnMin= 7 EnMin= -2048.73310299083     IErMin= 7 ErrMin= 1.03D-06
 ErrMax= 1.03D-06  0.00D+00 EMaxC= 1.00D-01 BMatC= 7.65D-10 BMatP= 2.68D-08
 IDIUse=1 WtCom= 1.00D+00 WtEn= 0.00D+00
 Coeff-Com:  0.105D-02-0.688D-02-0.200D-01-0.848D-02 0.598D-01 0.142D+00
 Coeff-Com:  0.832D+00
 Coeff:      0.105D-02-0.688D-02-0.200D-01-0.848D-02 0.598D-01 0.142D+00
 Coeff:      0.832D+00
 Gap=     0.274 Goal=   None    Shift=    0.000
 RMSDP=7.78D-08 MaxDP=5.15D-06 DE=-3.71D-08 OVMax= 2.09D-05

 Cycle  13  Pass 1  IDiag  1:
 RMSU=  4.82D-08    CP:  1.00D+00  1.06D+00  7.94D-01  1.44D+00  1.33D+00
                    CP:  9.99D-01  1.12D+00
 E= -2048.73310299252     Delta-E=       -0.000000001686 Rises=F Damp=F
 DIIS: error= 5.58D-07 at cycle   8 NSaved=   8.
 NSaved= 8 IEnMin= 8 EnMin= -2048.73310299252     IErMin= 8 ErrMin= 5.58D-07
 ErrMax= 5.58D-07  0.00D+00 EMaxC= 1.00D-01 BMatC= 2.79D-10 BMatP= 7.65D-10
 IDIUse=1 WtCom= 1.00D+00 WtEn= 0.00D+00
 Coeff-Com: -0.678D-03 0.791D-02 0.195D-01 0.546D-03-0.113D+00-0.907D-01
 Coeff-Com:  0.399D+00 0.776D+00
 Coeff:     -0.678D-03 0.791D-02 0.195D-01 0.546D-03-0.113D+00-0.907D-01
 Coeff:      0.399D+00 0.776D+00
 Gap=     0.274 Goal=   None    Shift=    0.000
 RMSDP=4.57D-08 MaxDP=2.75D-06 DE=-1.69D-09 OVMax= 1.09D-05

 Cycle  14  Pass 1  IDiag  1:
 RMSU=  2.65D-08    CP:  1.00D+00  1.06D+00  7.94D-01  1.45D+00  1.34D+00
                    CP:  1.04D+00  1.26D+00  1.10D+00
 E= -2048.73310299295     Delta-E=       -0.000000000437 Rises=F Damp=F
 DIIS: error= 1.90D-07 at cycle   9 NSaved=   9.
 NSaved= 9 IEnMin= 9 EnMin= -2048.73310299295     IErMin= 9 ErrMin= 1.90D-07
 ErrMax= 1.90D-07  0.00D+00 EMaxC= 1.00D-01 BMatC= 2.84D-11 BMatP= 2.79D-10
 IDIUse=1 WtCom= 1.00D+00 WtEn= 0.00D+00
 Coeff-Com: -0.405D-03 0.415D-02 0.105D-01 0.162D-02-0.534D-01-0.535D-01
 Coeff-Com:  0.756D-01 0.311D+00 0.704D+00
 Coeff:     -0.405D-03 0.415D-02 0.105D-01 0.162D-02-0.534D-01-0.535D-01
 Coeff:      0.756D-01 0.311D+00 0.704D+00
 Gap=     0.274 Goal=   None    Shift=    0.000
 RMSDP=1.29D-08 MaxDP=7.74D-07 DE=-4.37D-10 OVMax= 3.31D-06

 Cycle  15  Pass 1  IDiag  1:
 RMSU=  8.76D-09    CP:  1.00D+00  1.06D+00  7.94D-01  1.45D+00  1.34D+00
                    CP:  1.05D+00  1.28D+00  1.25D+00  1.10D+00
 E= -2048.73310299288     Delta-E=        0.000000000077 Rises=F Damp=F
 DIIS: error= 6.65D-08 at cycle  10 NSaved=  10.
 NSaved=10 IEnMin= 9 EnMin= -2048.73310299295     IErMin=10 ErrMin= 6.65D-08
 ErrMax= 6.65D-08  0.00D+00 EMaxC= 1.00D-01 BMatC= 4.83D-12 BMatP= 2.84D-11
 IDIUse=1 WtCom= 1.00D+00 WtEn= 0.00D+00
 Coeff-Com:  0.103D-04-0.338D-03-0.710D-03 0.810D-04 0.599D-02 0.142D-02
 Coeff-Com: -0.599D-01-0.666D-01 0.261D+00 0.859D+00
 Coeff:      0.103D-04-0.338D-03-0.710D-03 0.810D-04 0.599D-02 0.142D-02
 Coeff:     -0.599D-01-0.666D-01 0.261D+00 0.859D+00
 Gap=     0.274 Goal=   None    Shift=    0.000
 RMSDP=7.01D-09 MaxDP=4.05D-07 DE= 7.73D-11 OVMax= 1.51D-06

 SCF Done:  E(RwB97XD) =  -2048.73310299     A.U. after   15 cycles
            NFock= 15  Conv=0.70D-08     -V/T= 2.0053
 KE= 2.037859311801D+03 PE=-1.581498704335D+04 EE= 6.211385504266D+03
 Leave Link  502 at Sat Jan 27 06:31:03 2018, MaxMem=  4294967296 cpu:           21260.4 elap:             688.0
 (Enter /share/apps/g16/l601.exe)
 Copying SCF densities to generalized density rwf, IOpCl= 0 IROHF=0.

 **********************************************************************

            Population analysis using the SCF density.

 **********************************************************************

 Orbital symmetries:
       Occupied  (A) (A) (A) (A) (A) (A) (A) (A) (A) (A) (A) (A)
                 (A) (A) (A) (A) (A) (A) (A) (A) (A) (A) (A) (A)
                 (A) (A) (A) (A) (A) (A) (A) (A) (A) (A) (A) (A)
                 (A) (A) (A) (A) (A) (A) (A) (A) (A) (A) (A) (A)
                 (A) (A) (A) (A) (A) (A) (A) (A) (A) (A) (A) (A)
                 (A) (A) (A) (A) (A) (A) (A) (A) (A) (A) (A) (A)
                 (A) (A) (A) (A) (A) (A) (A) (A) (A) (A) (A) (A)
                 (A) (A) (A) (A) (A) (A) (A) (A) (A) (A) (A) (A)
                 (A) (A) (A) (A) (A) (A) (A) (A) (A) (A) (A) (A)
                 (A) (A) (A) (A) (A) (A) (A) (A) (A) (A) (A) (A)
                 (A) (A) (A) (A) (A) (A) (A) (A) (A) (A) (A) (A)
                 (A) (A) (A) (A) (A) (A) (A) (A) (A) (A) (A) (A)
                 (A) (A) (A) (A) (A) (A) (A) (A) (A) (A)
       Virtual   (A) (A) (A) (A) (A) (A) (A) (A) (A) (A) (A) (A)
                 (A) (A) (A) (A) (A) (A) (A) (A) (A) (A) (A) (A)
                 (A) (A) (A) (A) (A) (A) (A) (A) (A) (A) (A) (A)
                 (A) (A) (A) (A) (A) (A) (A) (A) (A) (A) (A) (A)
                 (A) (A) (A) (A) (A) (A) (A) (A) (A) (A) (A) (A)
                 (A) (A) (A) (A) (A) (A) (A) (A) (A) (A) (A) (A)
                 (A) (A) (A) (A) (A) (A) (A) (A) (A) (A) (A) (A)
                 (A) (A) (A) (A) (A) (A) (A) (A) (A) (A) (A) (A)
                 (A) (A) (A) (A) (A) (A) (A) (A) (A) (A) (A) (A)
                 (A) (A) (A) (A) (A) (A) (A) (A) (A) (A) (A) (A)
                 (A) (A) (A) (A) (A) (A) (A) (A) (A) (A) (A) (A)
                 (A) (A) (A) (A) (A) (A) (A) (A) (A) (A) (A) (A)
                 (A) (A) (A) (A) (A) (A) (A) (A) (A) (A) (A) (A)
                 (A) (A) (A) (A) (A) (A) (A) (A) (A) (A) (A) (A)
                 (A) (A) (A) (A) (A) (A) (A) (A) (A) (A) (A) (A)
                 (A) (A) (A) (A) (A) (A) (A) (A) (A) (A) (A) (A)
                 (A) (A) (A) (A) (A) (A) (A) (A) (A) (A) (A) (A)
                 (A) (A) (A) (A) (A) (A) (A) (A) (A) (A) (A) (A)
                 (A) (A) (A) (A) (A) (A) (A) (A) (A) (A) (A) (A)
                 (A) (A) (A) (A) (A) (A) (A) (A) (A) (A) (A) (A)
                 (A) (A) (A) (A) (A) (A) (A) (A) (A) (A) (A) (A)
                 (A) (A) (A) (A) (A) (A) (A) (A) (A) (A) (A) (A)
                 (A) (A) (A) (A) (A) (A) (A) (A) (A) (A) (A) (A)
                 (A) (A) (A) (A) (A) (A) (A) (A) (A) (A) (A) (A)
                 (A) (A) (A) (A) (A) (A) (A) (A) (A) (A) (A) (A)
                 (A) (A) (A) (A) (A) (A) (A) (A) (A) (A) (A) (A)
                 (A) (A) (A) (A) (A) (A) (A) (A) (A) (A) (A) (A)
                 (A) (A) (A) (A) (A) (A) (A) (A) (A) (A) (A) (A)
                 (A) (A) (A) (A) (A) (A) (A) (A) (A) (A) (A) (A)
                 (A) (A) (A) (A) (A) (A) (A) (A) (A) (A) (A) (A)
                 (A) (A) (A) (A) (A) (A) (A) (A) (A) (A) (A) (A)
                 (A) (A) (A) (A) (A) (A) (A) (A) (A) (A) (A) (A)
                 (A) (A) (A) (A) (A) (A) (A) (A) (A) (A) (A) (A)
                 (A) (A) (A) (A) (A) (A) (A) (A) (A) (A) (A) (A)
                 (A) (A) (A) (A) (A) (A) (A) (A) (A) (A) (A) (A)
                 (A) (A) (A) (A) (A) (A) (A) (A) (A) (A) (A) (A)
                 (A) (A) (A) (A) (A) (A) (A) (A) (A) (A) (A) (A)
                 (A) (A) (A) (A) (A) (A) (A) (A) (A) (A) (A) (A)
                 (A) (A) (A) (A) (A) (A) (A) (A) (A) (A) (A) (A)
                 (A) (A) (A) (A) (A) (A) (A) (A) (A) (A) (A) (A)
                 (A) (A) (A) (A) (A) (A) (A) (A) (A) (A) (A) (A)
                 (A) (A) (A) (A) (A) (A) (A) (A) (A) (A) (A) (A)
                 (A) (A) (A) (A) (A) (A) (A) (A) (A) (A) (A) (A)
                 (A) (A) (A) (A) (A) (A) (A) (A) (A) (A) (A) (A)
                 (A) (A) (A) (A) (A) (A) (A) (A) (A) (A) (A) (A)
                 (A) (A) (A) (A) (A) (A) (A) (A) (A) (A) (A) (A)
                 (A) (A) (A) (A) (A) (A) (A) (A) (A) (A) (A) (A)
                 (A) (A) (A) (A) (A) (A) (A) (A) (A) (A) (A) (A)
                 (A) (A) (A) (A) (A) (A) (A)
 The electronic state is 1-A.
 Alpha  occ. eigenvalues --  -19.25195 -19.21398 -19.20147 -14.52987 -14.52045
 Alpha  occ. eigenvalues --  -14.49394 -14.48424 -14.48220 -14.47293 -14.46163
 Alpha  occ. eigenvalues --  -14.45855 -14.45081 -14.45057 -14.44765 -14.42925
 Alpha  occ. eigenvalues --  -14.41355 -14.40999 -14.40465 -14.40422 -14.40177
 Alpha  occ. eigenvalues --  -10.44917 -10.40841 -10.40365 -10.39536 -10.38413
 Alpha  occ. eigenvalues --  -10.37884 -10.37714 -10.37482 -10.36751 -10.35514
 Alpha  occ. eigenvalues --  -10.34717 -10.34469 -10.33852 -10.33678 -10.33281
 Alpha  occ. eigenvalues --  -10.32952 -10.32929 -10.32709 -10.30817 -10.30716
 Alpha  occ. eigenvalues --  -10.30266 -10.28229 -10.27544  -1.18970  -1.15741
 Alpha  occ. eigenvalues --   -1.12641  -1.12430  -1.10865  -1.10196  -1.10152
 Alpha  occ. eigenvalues --   -1.08908  -1.07847  -1.05834  -1.04974  -1.01934
 Alpha  occ. eigenvalues --   -1.01531  -1.00493  -0.98750  -0.98003  -0.97678
 Alpha  occ. eigenvalues --   -0.96609  -0.96166  -0.92640  -0.90707  -0.88328
 Alpha  occ. eigenvalues --   -0.86499  -0.83676  -0.83476  -0.83204  -0.82147
 Alpha  occ. eigenvalues --   -0.81868  -0.78486  -0.77762  -0.75759  -0.74130
 Alpha  occ. eigenvalues --   -0.72945  -0.72805  -0.72793  -0.71225  -0.70808
 Alpha  occ. eigenvalues --   -0.67795  -0.66597  -0.66204  -0.66050  -0.65043
 Alpha  occ. eigenvalues --   -0.64051  -0.63378  -0.62663  -0.62431  -0.61228
 Alpha  occ. eigenvalues --   -0.61000  -0.60792  -0.60422  -0.59893  -0.59402
 Alpha  occ. eigenvalues --   -0.59110  -0.57581  -0.56793  -0.56184  -0.55891
 Alpha  occ. eigenvalues --   -0.55785  -0.55711  -0.55588  -0.54824  -0.54416
 Alpha  occ. eigenvalues --   -0.53814  -0.53679  -0.53240  -0.53150  -0.52786
 Alpha  occ. eigenvalues --   -0.52451  -0.51980  -0.51350  -0.50616  -0.50223
 Alpha  occ. eigenvalues --   -0.50004  -0.49774  -0.49666  -0.48953  -0.48812
 Alpha  occ. eigenvalues --   -0.48376  -0.47915  -0.47839  -0.47145  -0.46879
 Alpha  occ. eigenvalues --   -0.46487  -0.45702  -0.45353  -0.44024  -0.43539
 Alpha  occ. eigenvalues --   -0.41577  -0.40972  -0.38918  -0.38429  -0.38286
 Alpha  occ. eigenvalues --   -0.37291  -0.36790  -0.36390  -0.35749  -0.35109
 Alpha  occ. eigenvalues --   -0.34836  -0.33411  -0.33329  -0.32767  -0.32578
 Alpha  occ. eigenvalues --   -0.32181  -0.32012  -0.31615  -0.31457  -0.30849
 Alpha  occ. eigenvalues --   -0.30522  -0.30109  -0.25822  -0.24598
 Alpha virt. eigenvalues --    0.02829   0.03892   0.06033   0.08080   0.08974
 Alpha virt. eigenvalues --    0.09765   0.10097   0.10348   0.11227   0.11282
 Alpha virt. eigenvalues --    0.12827   0.14022   0.14644   0.15285   0.15328
 Alpha virt. eigenvalues --    0.15526   0.16593   0.16853   0.17330   0.17516
 Alpha virt. eigenvalues --    0.18917   0.19759   0.19996   0.20241   0.20683
 Alpha virt. eigenvalues --    0.20754   0.21082   0.21207   0.21508   0.21623
 Alpha virt. eigenvalues --    0.23012   0.23564   0.23954   0.24175   0.24307
 Alpha virt. eigenvalues --    0.24483   0.24612   0.25122   0.25161   0.25232
 Alpha virt. eigenvalues --    0.25356   0.25934   0.27801   0.28530   0.28817
 Alpha virt. eigenvalues --    0.28865   0.29344   0.29899   0.30570   0.30924
 Alpha virt. eigenvalues --    0.31677   0.32141   0.32583   0.33317   0.33759
 Alpha virt. eigenvalues --    0.34346   0.34547   0.35290   0.35769   0.36487
 Alpha virt. eigenvalues --    0.37148   0.37344   0.38219   0.38896   0.38905
 Alpha virt. eigenvalues --    0.39246   0.40273   0.40609   0.41569   0.42092
 Alpha virt. eigenvalues --    0.42344   0.42916   0.43607   0.44068   0.44504
 Alpha virt. eigenvalues --    0.44813   0.45680   0.46145   0.46663   0.46861
 Alpha virt. eigenvalues --    0.47897   0.48127   0.48557   0.49301   0.49814
 Alpha virt. eigenvalues --    0.50250   0.50346   0.50818   0.51293   0.51362
 Alpha virt. eigenvalues --    0.51689   0.52458   0.52582   0.53077   0.53614
 Alpha virt. eigenvalues --    0.54259   0.54370   0.55242   0.55499   0.55723
 Alpha virt. eigenvalues --    0.56249   0.56406   0.57111   0.57311   0.57685
 Alpha virt. eigenvalues --    0.58172   0.58270   0.58580   0.59356   0.59472
 Alpha virt. eigenvalues --    0.60093   0.60483   0.60518   0.60711   0.61142
 Alpha virt. eigenvalues --    0.61720   0.62360   0.62405   0.62826   0.62920
 Alpha virt. eigenvalues --    0.63659   0.63869   0.64458   0.65245   0.65628
 Alpha virt. eigenvalues --    0.66001   0.66342   0.66758   0.66850   0.66961
 Alpha virt. eigenvalues --    0.67220   0.68271   0.68545   0.68972   0.69791
 Alpha virt. eigenvalues --    0.69985   0.70273   0.70695   0.70912   0.71735
 Alpha virt. eigenvalues --    0.72001   0.72458   0.72710   0.73522   0.73782
 Alpha virt. eigenvalues --    0.73931   0.74300   0.75083   0.75407   0.75664
 Alpha virt. eigenvalues --    0.75970   0.76474   0.76762   0.76914   0.76960
 Alpha virt. eigenvalues --    0.77500   0.77896   0.78286   0.78486   0.78867
 Alpha virt. eigenvalues --    0.79466   0.79953   0.80303   0.80556   0.80978
 Alpha virt. eigenvalues --    0.81216   0.81474   0.81741   0.82536   0.82893
 Alpha virt. eigenvalues --    0.83785   0.84189   0.84215   0.85074   0.85866
 Alpha virt. eigenvalues --    0.85928   0.86594   0.87282   0.87609   0.87899
 Alpha virt. eigenvalues --    0.88370   0.88471   0.88972   0.89227   0.89902
 Alpha virt. eigenvalues --    0.90347   0.91482   0.91638   0.92053   0.92230
 Alpha virt. eigenvalues --    0.92846   0.93268   0.93537   0.93997   0.94382
 Alpha virt. eigenvalues --    0.95135   0.95530   0.95647   0.96070   0.96424
 Alpha virt. eigenvalues --    0.96991   0.97570   0.97975   0.98268   0.99028
 Alpha virt. eigenvalues --    0.99479   0.99667   1.00350   1.00658   1.01295
 Alpha virt. eigenvalues --    1.01705   1.01954   1.02433   1.02580   1.03094
 Alpha virt. eigenvalues --    1.03633   1.03836   1.04445   1.05265   1.05744
 Alpha virt. eigenvalues --    1.05871   1.06431   1.07503   1.08497   1.08752
 Alpha virt. eigenvalues --    1.09436   1.09901   1.10272   1.10549   1.10928
 Alpha virt. eigenvalues --    1.12049   1.12500   1.12833   1.13471   1.13705
 Alpha virt. eigenvalues --    1.14515   1.14760   1.14858   1.15690   1.15822
 Alpha virt. eigenvalues --    1.16316   1.16533   1.17261   1.17585   1.18094
 Alpha virt. eigenvalues --    1.18794   1.19291   1.19487   1.19745   1.20115
 Alpha virt. eigenvalues --    1.20463   1.20898   1.21224   1.21373   1.21624
 Alpha virt. eigenvalues --    1.22284   1.22611   1.22816   1.23263   1.24006
 Alpha virt. eigenvalues --    1.24057   1.24812   1.25443   1.25618   1.25732
 Alpha virt. eigenvalues --    1.26341   1.27357   1.27611   1.28406   1.28835
 Alpha virt. eigenvalues --    1.29241   1.29913   1.30475   1.31980   1.32706
 Alpha virt. eigenvalues --    1.33226   1.33790   1.34142   1.34338   1.35621
 Alpha virt. eigenvalues --    1.35968   1.36363   1.36737   1.37244   1.38140
 Alpha virt. eigenvalues --    1.38391   1.39119   1.39922   1.41233   1.41701
 Alpha virt. eigenvalues --    1.42443   1.43297   1.43956   1.45508   1.45781
 Alpha virt. eigenvalues --    1.46441   1.47200   1.47397   1.48038   1.49032
 Alpha virt. eigenvalues --    1.49704   1.49843   1.50442   1.50592   1.51021
 Alpha virt. eigenvalues --    1.51445   1.52386   1.52899   1.53917   1.54881
 Alpha virt. eigenvalues --    1.55785   1.56319   1.56754   1.56966   1.58166
 Alpha virt. eigenvalues --    1.58926   1.59065   1.59486   1.60397   1.61064
 Alpha virt. eigenvalues --    1.61420   1.61886   1.62140   1.62506   1.63924
 Alpha virt. eigenvalues --    1.64258   1.64352   1.64702   1.65699   1.66877
 Alpha virt. eigenvalues --    1.67394   1.67992   1.68289   1.68783   1.68959
 Alpha virt. eigenvalues --    1.69274   1.70015   1.70329   1.70752   1.71215
 Alpha virt. eigenvalues --    1.71492   1.72228   1.73098   1.73607   1.73950
 Alpha virt. eigenvalues --    1.74061   1.74710   1.75283   1.75345   1.75965
 Alpha virt. eigenvalues --    1.76310   1.76680   1.76936   1.77086   1.77261
 Alpha virt. eigenvalues --    1.77859   1.78215   1.78572   1.78737   1.79180
 Alpha virt. eigenvalues --    1.79506   1.80223   1.80526   1.80687   1.80883
 Alpha virt. eigenvalues --    1.81126   1.81271   1.81346   1.81770   1.82113
 Alpha virt. eigenvalues --    1.82522   1.82857   1.83536   1.84105   1.84472
 Alpha virt. eigenvalues --    1.85025   1.85896   1.86461   1.86918   1.87192
 Alpha virt. eigenvalues --    1.87860   1.88021   1.88717   1.89377   1.89631
 Alpha virt. eigenvalues --    1.90160   1.90549   1.90853   1.91599   1.92021
 Alpha virt. eigenvalues --    1.92638   1.92990   1.93170   1.93996   1.94369
 Alpha virt. eigenvalues --    1.94545   1.95486   1.95696   1.96487   1.97315
 Alpha virt. eigenvalues --    1.98358   1.99465   1.99744   2.01119   2.01496
 Alpha virt. eigenvalues --    2.02472   2.02712   2.03236   2.03796   2.04013
 Alpha virt. eigenvalues --    2.05246   2.06050   2.06266   2.06496   2.06595
 Alpha virt. eigenvalues --    2.08163   2.08944   2.09196   2.09466   2.09972
 Alpha virt. eigenvalues --    2.10400   2.11301   2.11645   2.13364   2.14358
 Alpha virt. eigenvalues --    2.14886   2.15171   2.15621   2.15906   2.16786
 Alpha virt. eigenvalues --    2.17920   2.19297   2.20056   2.20868   2.21782
 Alpha virt. eigenvalues --    2.21936   2.22287   2.22587   2.22901   2.24260
 Alpha virt. eigenvalues --    2.24979   2.25316   2.25780   2.26074   2.26424
 Alpha virt. eigenvalues --    2.27623   2.28242   2.28737   2.29852   2.30416
 Alpha virt. eigenvalues --    2.30758   2.31014   2.31969   2.32510   2.32905
 Alpha virt. eigenvalues --    2.33485   2.33830   2.34493   2.34760   2.35326
 Alpha virt. eigenvalues --    2.35819   2.36094   2.36616   2.37649   2.38272
 Alpha virt. eigenvalues --    2.38560   2.39134   2.40257   2.40756   2.41626
 Alpha virt. eigenvalues --    2.41842   2.42754   2.43158   2.43589   2.43964
 Alpha virt. eigenvalues --    2.44690   2.45041   2.45128   2.46843   2.48078
 Alpha virt. eigenvalues --    2.48305   2.48707   2.50387   2.51184   2.52148
 Alpha virt. eigenvalues --    2.53455   2.53876   2.54547   2.56305   2.56839
 Alpha virt. eigenvalues --    2.57068   2.58027   2.58908   2.59923   2.60958
 Alpha virt. eigenvalues --    2.61750   2.62261   2.62657   2.63763   2.64076
 Alpha virt. eigenvalues --    2.64717   2.64945   2.65460   2.65933   2.66280
 Alpha virt. eigenvalues --    2.66703   2.67935   2.68066   2.69505   2.69957
 Alpha virt. eigenvalues --    2.70357   2.71006   2.71294   2.71834   2.72736
 Alpha virt. eigenvalues --    2.73310   2.74742   2.75246   2.76309   2.76420
 Alpha virt. eigenvalues --    2.77190   2.77723   2.78482   2.79401   2.79674
 Alpha virt. eigenvalues --    2.80373   2.80568   2.80763   2.81201   2.81431
 Alpha virt. eigenvalues --    2.82013   2.82955   2.83047   2.83677   2.84340
 Alpha virt. eigenvalues --    2.84604   2.86238   2.86417   2.87431   2.87540
 Alpha virt. eigenvalues --    2.87930   2.88660   2.90066   2.92170   2.93795
 Alpha virt. eigenvalues --    2.94969   2.95986   2.98011   2.99014   2.99892
 Alpha virt. eigenvalues --    3.00616   3.02323   3.02644   3.04687   3.05973
 Alpha virt. eigenvalues --    3.08427   3.09827   3.11319   3.13282   3.15058
 Alpha virt. eigenvalues --    3.15955   3.16097   3.17125   3.18608   3.20492
 Alpha virt. eigenvalues --    3.21290   3.22843   3.24133   3.24620   3.26161
 Alpha virt. eigenvalues --    3.44046   3.47515   3.48747   3.49678   3.51068
 Alpha virt. eigenvalues --    3.53499   3.54559   3.56896   3.58550   3.60778
 Alpha virt. eigenvalues --    3.64349   3.71496   3.75387
          Condensed to atoms (all electrons):
 Mulliken charges:
               1
     1  N   -0.314735
     2  C    0.183911
     3  C    0.049392
     4  N   -0.263941
     5  C    0.139481
     6  H    0.026267
     7  N   -0.292666
     8  C    0.133171
     9  H    0.017270
    10  N   -0.275261
    11  C    0.265118
    12  C    0.099992
    13  N   -0.070009
    14  H    0.106676
    15  H    0.079085
    16  H    0.020918
    17  H    0.034140
    18  H    0.030422
    19  N   -0.307142
    20  C    0.233943
    21  C    0.180626
    22  N   -0.087341
    23  H    0.107532
    24  H    0.108935
    25  N   -0.306776
    26  C    0.217700
    27  N   -0.133971
    28  H    0.112785
    29  C    0.183876
    30  O   -0.323970
    31  C   -0.020943
    32  N   -0.220175
    33  C    0.126804
    34  H    0.020168
    35  H    0.027123
    36  H    0.028133
    37  H    0.023766
    38  H    0.048323
    39  H    0.060813
    40  H    0.076138
    41  H    0.030429
    42  C   -0.113231
    43  O   -0.258706
    44  C    0.179057
    45  H    0.135182
    46  N   -0.130617
    47  O   -0.342744
    48  C    0.353231
    49  H    0.043578
    50  C    0.162219
    51  C    0.043431
    52  N   -0.286782
    53  H    0.036755
    54  H    0.032962
    55  H    0.033867
    56  H    0.118941
    57  H    0.121460
    58  N   -0.060004
    59  C    0.074089
    60  C    0.265327
    61  N   -0.303195
    62  H    0.044964
    63  C    0.187616
    64  N   -0.304880
    65  H    0.040645
    66  C    0.140635
    67  N   -0.258884
    68  C    0.023002
    69  C    0.181559
    70  N   -0.315486
 Sum of Mulliken charges =  -0.00000
 Mulliken charges with hydrogens summed into heavy atoms:
               1
     1  N   -0.314735
     2  C    0.269391
     3  C    0.049392
     4  N   -0.263941
     5  C    0.165748
     7  N   -0.292666
     8  C    0.150441
    10  N   -0.275261
    11  C    0.265118
    12  C    0.099992
    13  N    0.115752
    19  N   -0.307142
    20  C    0.233943
    21  C    0.259649
    22  N    0.129125
    25  N   -0.306776
    26  C    0.217700
    27  N   -0.021186
    29  C    0.183876
    30  O   -0.323970
    31  C   -0.020943
    32  N   -0.220175
    33  C    0.146973
    42  C   -0.082802
    43  O   -0.258706
    44  C    0.179057
    46  N    0.004565
    47  O   -0.342744
    48  C    0.353231
    50  C    0.205797
    51  C    0.228706
    52  N   -0.286782
    58  N    0.180396
    59  C    0.074089
    60  C    0.265327
    61  N   -0.303195
    63  C    0.232580
    64  N   -0.304880
    66  C    0.181280
    67  N   -0.258884
    68  C    0.023002
    69  C    0.285144
    70  N   -0.315486
 Electronic spatial extent (au):  <R**2>=          21662.1688
 Charge=             -0.0000 electrons
 Dipole moment (field-independent basis, Debye):
    X=             -9.6875    Y=              4.7811    Z=             -2.5048  Tot=             11.0897
 Quadrupole moment (field-independent basis, Debye-Ang):
   XX=           -170.8139   YY=           -209.5441   ZZ=           -254.3006
   XY=              8.0590   XZ=            -13.6595   YZ=              8.2003
 Traceless Quadrupole moment (field-independent basis, Debye-Ang):
   XX=             40.7390   YY=              2.0088   ZZ=            -42.7478
   XY=              8.0590   XZ=            -13.6595   YZ=              8.2003
 Octapole moment (field-independent basis, Debye-Ang**2):
  XXX=             53.3299  YYY=            145.0991  ZZZ=              5.9274  XYY=           -105.2992
  XXY=             58.5212  XXZ=            -32.5304  XZZ=            -41.8487  YZZ=              0.8348
  YYZ=            -35.7425  XYZ=             57.9467
 Hexadecapole moment (field-independent basis, Debye-Ang**3):
 XXXX=         -14372.5194 YYYY=          -7327.8278 ZZZZ=          -3421.4359 XXXY=           -556.6495
 XXXZ=           -382.4518 YYYX=            210.7705 YYYZ=             59.6854 ZZZX=            -68.8277
 ZZZY=             15.4533 XXYY=          -2856.9417 XXZZ=          -3391.9105 YYZZ=          -1898.1480
 XXYZ=             73.7925 YYXZ=             65.5776 ZZXY=             64.9425
 N-N= 5.517009124286D+03 E-N=-1.581498703481D+04  KE= 2.037859311801D+03
 No NMR shielding tensors so no spin-rotation constants.
 Leave Link  601 at Sat Jan 27 06:31:05 2018, MaxMem=  4294967296 cpu:              48.0 elap:               1.7
 (Enter /share/apps/g16/l9999.exe)
 1\1\GINC-COMPUTE-0-3\SP\RwB97XD\CC-pVDZ\C23H27N17O3\SATYA\27-Jan-2018\
 0\\#p wb97xd/cc-pvdz sp scf=(maxcycles=20)\\Base pair stacking\\0,1\N,
 0,1.47284,-1.85266,-7.62021\C,0,2.87678,-1.55803,-7.96682\C,0,-0.59198
 ,-1.69405,-6.87948\N,0,-0.4691,-2.96727,-7.41664\C,0,0.76996,-3.01187,
 -7.8414\H,0,1.22789,-3.87347,-8.32811\N,0,-1.45631,0.23921,-5.84104\C,
 0,-0.24961,0.78479,-6.0249\H,0,-0.14085,1.80601,-5.66222\N,0,0.8378,0.
 26073,-6.58687\C,0,0.59683,-0.99529,-6.99769\C,0,-1.66692,-1.02595,-6.
 26542\N,0,-2.8708,-1.57228,-6.08278\H,0,-3.07151,-2.50605,-6.38111\H,0
 ,-3.61273,-1.06711,-5.64177\H,0,3.00157,-1.63959,-8.95574\H,0,3.10394,
 -0.62823,-7.67873\H,0,3.48011,-2.20599,-7.50191\N,0,2.12263,2.27267,-3
 .44685\C,0,0.84567,1.84783,-3.16949\C,0,2.57317,3.67899,-3.4477\N,0,-2
 .44358,2.56402,-2.31528\H,0,-3.2894,2.05791,-2.14892\H,0,-2.48598,3.55
 967,-2.22812\N,0,-0.20359,2.63737,-2.85368\C,0,-1.30323,1.93663,-2.640
 7\N,0,-1.37216,0.56738,-2.72966\H,0,-2.25558,0.11544,-2.54999\C,0,-0.3
 0524,-0.26506,-3.05307\O,0,-0.47383,-1.48957,-3.10666\C,0,0.88302,0.47
 337,-3.28468\N,0,2.15778,0.04397,-3.62745\C,0,2.85728,1.14291,-3.7125\
 H,0,3.91693,1.18641,-3.96652\H,0,2.91687,3.92007,-4.35465\H,0,1.80436,
 4.2732,-3.21509\H,0,3.30098,3.79798,-2.7732\H,0,-7.07157,-1.47081,-2.1
 7216\H,0,-6.59202,-1.87083,-0.52454\H,0,-5.85347,-0.4969,-1.34809\H,0,
 -4.65644,-5.56284,-2.92646\C,0,-4.45437,-4.50991,-2.72963\O,0,-2.18723
 ,-4.6265,-3.41782\C,0,-3.14615,-3.98859,-2.98384\H,0,-2.08707,-2.24124
 ,-2.86786\N,0,-2.99771,-2.64575,-2.70102\O,0,-3.72858,-0.61478,-1.9951
 9\C,0,-3.95561,-1.79159,-2.21483\H,0,-6.42033,-4.04872,-2.04545\C,0,-5
 .4095,-3.70158,-2.25538\C,0,-6.2465,-1.49456,-1.47592\N,0,-5.19099,-2.
 36854,-1.99533\H,0,-6.97178,4.79846,-2.45353\H,0,-5.5325,4.13314,-2.06
 892\H,0,-6.79208,4.00488,-1.03883\H,0,-6.45552,-1.99779,-5.38783\H,0,-
 7.92867,-1.34139,-4.83188\N,0,-6.93471,-1.25958,-4.91287\C,0,-6.27837,
 -0.21219,-4.40952\C,0,-6.09036,1.86706,-3.26798\N,0,-4.75538,1.95041,-
 3.39163\H,0,-3.20072,0.87988,-4.19013\C,0,-4.28015,0.89229,-4.04541\N,
 0,-4.93588,-0.15778,-4.55035\H,0,-9.06805,2.76461,-2.38484\C,0,-8.1951
 8,2.24843,-2.78559\N,0,-8.23366,1.10359,-3.42241\C,0,-6.90566,0.85032,
 -3.73387\C,0,-6.52411,4.02657,-2.00211\N,0,-6.93002,2.7674,-2.65614\\V
 ersion=EM64L-G16RevA.03\State=1-A\HF=-2048.733103\RMSD=7.009e-09\Dipol
 e=-3.5636563,2.3428186,0.9205605\Quadrupole=21.2818792,-7.1115847,-14.
 1702945,11.4194392,-22.3268991,12.6499465\PG=C01 [X(C23H27N17O3)]\\@


 Spring appears, and we are once more children.
                                  -- Anonymous
 Job cpu time:       0 days  6 hours  4 minutes 31.5 seconds.
 Elapsed time:       0 days  0 hours 11 minutes 47.5 seconds.
 File lengths (MBytes):  RWF=    298 Int=      0 D2E=      0 Chk=     33 Scr=      1
 Normal termination of Gaussian 16 at Sat Jan 27 06:31:05 2018.
