 Entering Gaussian System, Link 0=g16
 Input=str60.0.-1.0.com
 Output=str60.0.-1.0.log
 Initial command:
 /share/apps/g16/l1.exe "/state/partition1/scr/Gau-31000.inp" -scrdir="/state/partition1/scr/"
 Entering Link 1 = /share/apps/g16/l1.exe PID=     31001.
  
 Copyright (c) 1988,1990,1992,1993,1995,1998,2003,2009,2016,
            Gaussian, Inc.  All Rights Reserved.
  
 This is part of the Gaussian(R) 16 program.  It is based on
 the Gaussian(R) 09 system (copyright 2009, Gaussian, Inc.),
 the Gaussian(R) 03 system (copyright 2003, Gaussian, Inc.),
 the Gaussian(R) 98 system (copyright 1998, Gaussian, Inc.),
 the Gaussian(R) 94 system (copyright 1995, Gaussian, Inc.),
 the Gaussian 92(TM) system (copyright 1992, Gaussian, Inc.),
 the Gaussian 90(TM) system (copyright 1990, Gaussian, Inc.),
 the Gaussian 88(TM) system (copyright 1988, Gaussian, Inc.),
 the Gaussian 86(TM) system (copyright 1986, Carnegie Mellon
 University), and the Gaussian 82(TM) system (copyright 1983,
 Carnegie Mellon University). Gaussian is a federally registered
 trademark of Gaussian, Inc.
  
 This software contains proprietary and confidential information,
 including trade secrets, belonging to Gaussian, Inc.
  
 This software is provided under written license and may be
 used, copied, transmitted, or stored only in accord with that
 written license.
  
 The following legend is applicable only to US Government
 contracts under FAR:
  
                    RESTRICTED RIGHTS LEGEND
  
 Use, reproduction and disclosure by the US Government is
 subject to restrictions as set forth in subparagraphs (a)
 and (c) of the Commercial Computer Software - Restricted
 Rights clause in FAR 52.227-19.
  
 Gaussian, Inc.
 340 Quinnipiac St., Bldg. 40, Wallingford CT 06492
  
  
 ---------------------------------------------------------------
 Warning -- This program may not be used in any manner that
 competes with the business of Gaussian, Inc. or will provide
 assistance to any competitor of Gaussian, Inc.  The licensee
 of this program is prohibited from giving any competitor of
 Gaussian, Inc. access to this program.  By using this program,
 the user acknowledges that Gaussian, Inc. is engaged in the
 business of creating and licensing software in the field of
 computational chemistry and represents and warrants to the
 licensee that it is not a competitor of Gaussian, Inc. and that
 it will not use this program in any manner prohibited above.
 ---------------------------------------------------------------
  

 Cite this work as:
 Gaussian 16, Revision A.03,
 M. J. Frisch, G. W. Trucks, H. B. Schlegel, G. E. Scuseria, 
 M. A. Robb, J. R. Cheeseman, G. Scalmani, V. Barone, 
 G. A. Petersson, H. Nakatsuji, X. Li, M. Caricato, A. V. Marenich, 
 J. Bloino, B. G. Janesko, R. Gomperts, B. Mennucci, H. P. Hratchian, 
 J. V. Ortiz, A. F. Izmaylov, J. L. Sonnenberg, D. Williams-Young, 
 F. Ding, F. Lipparini, F. Egidi, J. Goings, B. Peng, A. Petrone, 
 T. Henderson, D. Ranasinghe, V. G. Zakrzewski, J. Gao, N. Rega, 
 G. Zheng, W. Liang, M. Hada, M. Ehara, K. Toyota, R. Fukuda, 
 J. Hasegawa, M. Ishida, T. Nakajima, Y. Honda, O. Kitao, H. Nakai, 
 T. Vreven, K. Throssell, J. A. Montgomery, Jr., J. E. Peralta, 
 F. Ogliaro, M. J. Bearpark, J. J. Heyd, E. N. Brothers, K. N. Kudin, 
 V. N. Staroverov, T. A. Keith, R. Kobayashi, J. Normand, 
 K. Raghavachari, A. P. Rendell, J. C. Burant, S. S. Iyengar, 
 J. Tomasi, M. Cossi, J. M. Millam, M. Klene, C. Adamo, R. Cammi, 
 J. W. Ochterski, R. L. Martin, K. Morokuma, O. Farkas, 
 J. B. Foresman, and D. J. Fox, Gaussian, Inc., Wallingford CT, 2016.
 
 ******************************************
 Gaussian 16:  EM64L-G16RevA.03 25-Dec-2016
                26-Jan-2018 
 ******************************************
 %nprocshared=32
 Will use up to   32 processors via shared memory.
 %mem=32GB
 %chk=allatoms_t.chk
 ---------------------------------------
 #p wb97xd/cc-pvdz sp scf=(maxcycles=20)
 ---------------------------------------
 1/38=1,172=1/1;
 2/12=2,17=6,18=5,40=1/2;
 3/5=16,11=2,25=1,30=1,74=-58/1,2,3;
 4//1;
 5/5=2,7=20,38=5/2;
 6/7=2,8=2,9=2,10=2,28=1/1;
 99/5=1,9=1/99;
 Leave Link    1 at Fri Jan 26 18:46:57 2018, MaxMem=  4294967296 cpu:               2.7 elap:               0.1
 (Enter /share/apps/g16/l101.exe)
 ------------------
 Base pair stacking
 ------------------
 Symbolic Z-matrix:
 Charge =  0 Multiplicity = 1
 N                     7.11786  -0.80521  -6.47105 
 C                     8.56175  -0.51767  -6.57363 
 C                     4.93015  -0.59865  -6.3785 
 N                     5.1973   -1.95482  -6.25948 
 C                     6.50462  -2.02499  -6.32 
 H                     7.07936  -2.9496   -6.25909 
 N                     3.81207   1.473    -6.52372 
 C                     5.02142   2.031    -6.6407 
 H                     5.02508   3.11495  -6.74702 
 N                     6.22128   1.45378  -6.64602 
 C                     6.1041    0.12258  -6.50964 
 C                     3.72778   0.13152  -6.38803 
 N                     2.52148  -0.42734  -6.27112 
 H                     2.41168  -1.41661  -6.1686 
 H                     1.68682   0.12346  -6.28203 
 H                     8.94188  -0.99206  -7.36775 
 H                     8.69977   0.46689  -6.67715 
 H                     9.02605  -0.8324   -5.74576 
 N                     3.92613   4.42051  -3.26456 
 C                     2.61812   3.9996   -3.26328 
 C                     4.37074   5.82538  -3.36129 
 N                    -0.77541   4.72581  -3.39872 
 H                    -1.63877   4.22232  -3.38065 
 H                    -0.83239   5.72155  -3.47605 
 N                     1.52806   4.79231  -3.34948 
 C                     0.40619   4.09496  -3.32272 
 N                     0.35366   2.72599  -3.21948 
 H                    -0.54912   2.27677  -3.20649 
 C                     1.46246   1.89032  -3.12957 
 O                     1.30546   0.66638  -3.03986 
 C                     2.675     2.62509  -3.15705 
 N                     3.99221   2.1918   -3.09292 
 C                     4.69709   3.28855  -3.16 
 H                     5.78665   3.3288   -3.13738 
 H                     4.93867   5.94169  -4.17537 
 H                     3.57183   6.42192  -3.42565 
 H                     4.90032   6.06584  -2.54855 
 H                    -5.30943   0.607    -3.84208 
 H                    -5.27449   0.46922  -2.08582 
 H                    -4.33929   1.73061  -2.88935 
 H                    -2.80814  -3.47046  -3.32784 
 C                    -2.65693  -2.39402  -3.2464 
 O                    -0.28977  -2.53642  -3.30466 
 C                    -1.32408  -1.87331  -3.23206 
 H                    -0.31956  -0.09427  -3.11248 
 N                    -1.24501  -0.49937  -3.12585 
 O                    -2.12017   1.58832  -2.94466 
 C                    -2.29041   0.38524  -3.03565 
 H                    -4.72986  -1.9017   -3.16654 
 C                    -3.69688  -1.55638  -3.16 
 C                    -4.69245   0.71271  -2.96218 
 N                    -3.54429  -0.19319  -3.05609 
 H                    -2.4262    6.33634  -6.86174 
 H                    -1.13403   6.0725   -5.90113 
 H                    -2.61878   6.2394   -5.24405 
 H                    -1.1174   -0.94762  -6.31721 
 H                    -2.68874  -0.30019  -6.46493 
 N                    -1.70882  -0.14147  -6.33931 
 C                    -1.21378   1.09087  -6.20724 
 C                    -1.34425   3.46339  -6.08142 
 N                    -0.02407   3.64647  -5.91402 
 H                     1.69203   2.53436  -5.77681 
 C                     0.61236   2.47693  -5.90822 
 N                     0.11833   1.24159  -6.04035 
 H                    -4.45474   4.28485  -6.40123 
 C                    -3.50421   3.7568   -6.32 
 N                    -3.36743   2.4548   -6.38132 
 C                    -2.00271   2.25531  -6.23142 
 C                    -2.10782   5.88582  -6.02768 
 N                    -2.32041   4.4297   -6.13959 
 
 ITRead=  0  0  0  0  0  0  0  0  0  0  0  0  0  0  0  0  0  0  0  0
 ITRead=  0  0  0  0  0  0  0  0  0  0  0  0  0  0  0  0  0  0  0  0
 ITRead=  0  0  0  0  0  0  0  0  0  0  0  0  0  0  0  0  0  0  0  0
 ITRead=  0  0  0  0  0  0  0  0  0  0
 MicOpt= -1 -1 -1 -1 -1 -1 -1 -1 -1 -1 -1 -1 -1 -1 -1 -1 -1 -1 -1 -1
 MicOpt= -1 -1 -1 -1 -1 -1 -1 -1 -1 -1 -1 -1 -1 -1 -1 -1 -1 -1 -1 -1
 MicOpt= -1 -1 -1 -1 -1 -1 -1 -1 -1 -1 -1 -1 -1 -1 -1 -1 -1 -1 -1 -1
 MicOpt= -1 -1 -1 -1 -1 -1 -1 -1 -1 -1
 NAtoms=     70 NQM=       70 NQMF=       0 NMMI=      0 NMMIF=      0
                NMic=       0 NMicF=      0.
                    Isotopes and Nuclear Properties:
 (Nuclear quadrupole moments (NQMom) in fm**2, nuclear magnetic moments (NMagM)
  in nuclear magnetons)

  Atom         1           2           3           4           5           6           7           8           9          10
 IAtWgt=          14          12          12          14          12           1          14          12           1          14
 AtmWgt=  14.0030740  12.0000000  12.0000000  14.0030740  12.0000000   1.0078250  14.0030740  12.0000000   1.0078250  14.0030740
 NucSpn=           2           0           0           2           0           1           2           0           1           2
 AtZEff=  -0.0000000  -0.0000000  -0.0000000  -0.0000000  -0.0000000  -0.0000000  -0.0000000  -0.0000000  -0.0000000  -0.0000000
 NQMom=    2.0440000   0.0000000   0.0000000   2.0440000   0.0000000   0.0000000   2.0440000   0.0000000   0.0000000   2.0440000
 NMagM=    0.4037610   0.0000000   0.0000000   0.4037610   0.0000000   2.7928460   0.4037610   0.0000000   2.7928460   0.4037610
 AtZNuc=   7.0000000   6.0000000   6.0000000   7.0000000   6.0000000   1.0000000   7.0000000   6.0000000   1.0000000   7.0000000

  Atom        11          12          13          14          15          16          17          18          19          20
 IAtWgt=          12          12          14           1           1           1           1           1          14          12
 AtmWgt=  12.0000000  12.0000000  14.0030740   1.0078250   1.0078250   1.0078250   1.0078250   1.0078250  14.0030740  12.0000000
 NucSpn=           0           0           2           1           1           1           1           1           2           0
 AtZEff=  -0.0000000  -0.0000000  -0.0000000  -0.0000000  -0.0000000  -0.0000000  -0.0000000  -0.0000000  -0.0000000  -0.0000000
 NQMom=    0.0000000   0.0000000   2.0440000   0.0000000   0.0000000   0.0000000   0.0000000   0.0000000   2.0440000   0.0000000
 NMagM=    0.0000000   0.0000000   0.4037610   2.7928460   2.7928460   2.7928460   2.7928460   2.7928460   0.4037610   0.0000000
 AtZNuc=   6.0000000   6.0000000   7.0000000   1.0000000   1.0000000   1.0000000   1.0000000   1.0000000   7.0000000   6.0000000

  Atom        21          22          23          24          25          26          27          28          29          30
 IAtWgt=          12          14           1           1          14          12          14           1          12          16
 AtmWgt=  12.0000000  14.0030740   1.0078250   1.0078250  14.0030740  12.0000000  14.0030740   1.0078250  12.0000000  15.9949146
 NucSpn=           0           2           1           1           2           0           2           1           0           0
 AtZEff=  -0.0000000  -0.0000000  -0.0000000  -0.0000000  -0.0000000  -0.0000000  -0.0000000  -0.0000000  -0.0000000  -0.0000000
 NQMom=    0.0000000   2.0440000   0.0000000   0.0000000   2.0440000   0.0000000   2.0440000   0.0000000   0.0000000   0.0000000
 NMagM=    0.0000000   0.4037610   2.7928460   2.7928460   0.4037610   0.0000000   0.4037610   2.7928460   0.0000000   0.0000000
 AtZNuc=   6.0000000   7.0000000   1.0000000   1.0000000   7.0000000   6.0000000   7.0000000   1.0000000   6.0000000   8.0000000

  Atom        31          32          33          34          35          36          37          38          39          40
 IAtWgt=          12          14          12           1           1           1           1           1           1           1
 AtmWgt=  12.0000000  14.0030740  12.0000000   1.0078250   1.0078250   1.0078250   1.0078250   1.0078250   1.0078250   1.0078250
 NucSpn=           0           2           0           1           1           1           1           1           1           1
 AtZEff=  -0.0000000  -0.0000000  -0.0000000  -0.0000000  -0.0000000  -0.0000000  -0.0000000  -0.0000000  -0.0000000  -0.0000000
 NQMom=    0.0000000   2.0440000   0.0000000   0.0000000   0.0000000   0.0000000   0.0000000   0.0000000   0.0000000   0.0000000
 NMagM=    0.0000000   0.4037610   0.0000000   2.7928460   2.7928460   2.7928460   2.7928460   2.7928460   2.7928460   2.7928460
 AtZNuc=   6.0000000   7.0000000   6.0000000   1.0000000   1.0000000   1.0000000   1.0000000   1.0000000   1.0000000   1.0000000

  Atom        41          42          43          44          45          46          47          48          49          50
 IAtWgt=           1          12          16          12           1          14          16          12           1          12
 AtmWgt=   1.0078250  12.0000000  15.9949146  12.0000000   1.0078250  14.0030740  15.9949146  12.0000000   1.0078250  12.0000000
 NucSpn=           1           0           0           0           1           2           0           0           1           0
 AtZEff=  -0.0000000  -0.0000000  -0.0000000  -0.0000000  -0.0000000  -0.0000000  -0.0000000  -0.0000000  -0.0000000  -0.0000000
 NQMom=    0.0000000   0.0000000   0.0000000   0.0000000   0.0000000   2.0440000   0.0000000   0.0000000   0.0000000   0.0000000
 NMagM=    2.7928460   0.0000000   0.0000000   0.0000000   2.7928460   0.4037610   0.0000000   0.0000000   2.7928460   0.0000000
 AtZNuc=   1.0000000   6.0000000   8.0000000   6.0000000   1.0000000   7.0000000   8.0000000   6.0000000   1.0000000   6.0000000

  Atom        51          52          53          54          55          56          57          58          59          60
 IAtWgt=          12          14           1           1           1           1           1          14          12          12
 AtmWgt=  12.0000000  14.0030740   1.0078250   1.0078250   1.0078250   1.0078250   1.0078250  14.0030740  12.0000000  12.0000000
 NucSpn=           0           2           1           1           1           1           1           2           0           0
 AtZEff=  -0.0000000  -0.0000000  -0.0000000  -0.0000000  -0.0000000  -0.0000000  -0.0000000  -0.0000000  -0.0000000  -0.0000000
 NQMom=    0.0000000   2.0440000   0.0000000   0.0000000   0.0000000   0.0000000   0.0000000   2.0440000   0.0000000   0.0000000
 NMagM=    0.0000000   0.4037610   2.7928460   2.7928460   2.7928460   2.7928460   2.7928460   0.4037610   0.0000000   0.0000000
 AtZNuc=   6.0000000   7.0000000   1.0000000   1.0000000   1.0000000   1.0000000   1.0000000   7.0000000   6.0000000   6.0000000

  Atom        61          62          63          64          65          66          67          68          69          70
 IAtWgt=          14           1          12          14           1          12          14          12          12          14
 AtmWgt=  14.0030740   1.0078250  12.0000000  14.0030740   1.0078250  12.0000000  14.0030740  12.0000000  12.0000000  14.0030740
 NucSpn=           2           1           0           2           1           0           2           0           0           2
 AtZEff=  -0.0000000  -0.0000000  -0.0000000  -0.0000000  -0.0000000  -0.0000000  -0.0000000  -0.0000000  -0.0000000  -0.0000000
 NQMom=    2.0440000   0.0000000   0.0000000   2.0440000   0.0000000   0.0000000   2.0440000   0.0000000   0.0000000   2.0440000
 NMagM=    0.4037610   2.7928460   0.0000000   0.4037610   2.7928460   0.0000000   0.4037610   0.0000000   0.0000000   0.4037610
 AtZNuc=   7.0000000   1.0000000   6.0000000   7.0000000   1.0000000   6.0000000   7.0000000   6.0000000   6.0000000   7.0000000
 Leave Link  101 at Fri Jan 26 18:46:58 2018, MaxMem=  4294967296 cpu:               7.2 elap:               0.3
 (Enter /share/apps/g16/l202.exe)
 Stoichiometry    C23H27N17O3
 Framework group  C1[X(C23H27N17O3)]
 Deg. of freedom   204
 Full point group                 C1      NOp   1
 Largest Abelian subgroup         C1      NOp   1
 Largest concise Abelian subgroup C1      NOp   1
                         Standard orientation:                         
 ---------------------------------------------------------------------
 Center     Atomic      Atomic             Coordinates (Angstroms)
 Number     Number       Type             X           Y           Z
 ---------------------------------------------------------------------
      1          7           0       -6.474346   -1.647225    0.562846
      2          6           0       -7.873604   -1.193768    0.442536
      3          6           0       -4.293400   -1.699247    0.842268
      4          7           0       -4.685847   -3.008935    0.606824
      5          6           0       -5.984077   -2.925179    0.447904
      6          1           0       -6.639515   -3.772110    0.242842
      7          7           0       -2.992469    0.218231    1.282477
      8          6           0       -4.134382    0.911645    1.229692
      9          1           0       -4.035280    1.983885    1.393233
     10          7           0       -5.374493    0.481441    1.006253
     11          6           0       -5.384872   -0.848577    0.818192
     12          6           0       -3.036316   -1.118100    1.089131
     13          7           0       -1.897497   -1.812007    1.141437
     14          1           0       -1.882765   -2.803060    1.004258
     15          1           0       -1.020691   -1.365148    1.319441
     16          1           0       -8.433238   -1.647379    1.136234
     17          1           0       -7.916663   -0.204066    0.575807
     18          1           0       -8.223009   -1.421522   -0.466333
     19          7           0       -2.223623    3.271892   -1.784603
     20          6           0       -0.989441    2.698675   -1.594148
     21          6           0       -2.518949    4.715367   -1.685322
     22          7           0        2.391503    3.010764   -0.863677
     23          1           0        3.183923    2.409098   -0.767303
     24          1           0        2.545075    3.989288   -0.723566
     25          7           0        0.151637    3.352525   -1.286787
     26          6           0        1.177082    2.528052   -1.167150
     27          7           0        1.093574    1.167073   -1.335259
     28          1           0        1.929777    0.614387   -1.224433
     29          6           0       -0.070010    0.472956   -1.651706
     30          8           0       -0.037362   -0.757021   -1.781382
     31          6           0       -1.180196    1.345321   -1.783472
     32          7           0       -2.507422    1.074354   -2.086691
     33          6           0       -3.086897    2.244104   -2.076245
     34          1           0       -4.145506    2.414463   -2.275237
     35          1           0       -3.200087    4.869523   -0.970419
     36          1           0       -1.681116    5.209974   -1.458037
     37          1           0       -2.873019    5.045740   -2.559570
     38          1           0        6.297543   -1.631280    0.091719
     39          1           0        6.545611   -1.701666   -1.651313
     40          1           0        5.634132   -0.367219   -0.944332
     41          1           0        3.481316   -5.361440   -1.049047
     42          6           0        3.466916   -4.272452   -1.095072
     43          8           0        1.123204   -4.134205   -1.434217
     44          6           0        2.222170   -3.596699   -1.299519
     45          1           0        1.456890   -1.707680   -1.484712
     46          7           0        2.315737   -2.220217   -1.341783
     47          8           0        3.435897   -0.246370   -1.262067
     48          6           0        3.453211   -1.463620   -1.210454
     49          1           0        5.565137   -4.027718   -0.806333
     50          6           0        4.593179   -3.561949   -0.963471
     51          6           0        5.854265   -1.421840   -0.870415
     52          7           0        4.613166   -2.187469   -1.016132
     53          1           0        3.600477    4.289863    2.906431
     54          1           0        2.468562    4.215792    1.733670
     55          1           0        4.052404    4.228029    1.339477
     56          1           0        1.600039   -2.762794    1.755857
     57          1           0        3.185795   -2.312534    2.194877
     58          7           0        2.265196   -2.034018    1.918940
     59          6           0        1.940049   -0.747640    1.775135
     60          6           0        2.353323    1.595466    1.802713
     61          7           0        1.109326    1.940111    1.431088
     62          1           0       -0.671709    1.045614    0.953172
     63          6           0        0.356866    0.855533    1.256745
     64          7           0        0.680679   -0.433704    1.400279
     65          1           0        5.436470    2.029214    2.673514
     66          6           0        4.460652    1.621202    2.408471
     67          7           0        4.171337    0.343372    2.375021
     68          6           0        2.838158    0.313084    1.992343
     69          6           0        3.379888    3.910228    2.007983
     70          7           0        3.406950    2.436116    2.073281
 ---------------------------------------------------------------------
 Rotational constants (GHZ):           0.1152255           0.0591199           0.0486880
 Leave Link  202 at Fri Jan 26 18:46:58 2018, MaxMem=  4294967296 cpu:               0.3 elap:               0.0
 (Enter /share/apps/g16/l301.exe)
 Standard basis: CC-pVDZ (5D, 7F)
 Ernie: Thresh=  0.10000D-02 Tol=  0.10000D-05 Strict=F.
 Ernie:  86 primitive shells out of 1081 were deleted.
 There are   780 symmetry adapted cartesian basis functions of A   symmetry.
 There are   737 symmetry adapted basis functions of A   symmetry.
   737 basis functions,  1608 primitive gaussians,   780 cartesian basis functions
   154 alpha electrons      154 beta electrons
       nuclear repulsion energy      5450.9981451155 Hartrees.
 IExCor= 4639 DFT=T Ex+Corr=wB97XD ExCW=0 ScaHFX=  1.000000
 ScaDFX=  1.000000  1.000000  1.000000  1.000000 ScalE2=  1.000000  1.000000
 IRadAn=      5 IRanWt=     -1 IRanGd=            0 ICorTp=0 IEmpDi=121
 HFx  wShort=  0.000000 wLong=  0.200000 cFull=  0.222036 cShort=  0.000000 cLong=  0.777964
 DFx  wShort=  0.000000 wLong=  0.200000 cFull=  0.000000 cShort=  0.000000 cLong=  1.000000
 NAtoms=   70 NActive=   70 NUniq=   70 SFac= 1.00D+00 NAtFMM=   60 NAOKFM=T Big=T
 Integral buffers will be    131072 words long.
 Raffenetti 2 integral format.
 Two-electron integral symmetry is turned on.
 R6Disp:  Grimme-D2 Dispersion energy=       -0.0677922642 Hartrees.
 Nuclear repulsion after empirical dispersion term =     5450.9303528513 Hartrees.
 Leave Link  301 at Fri Jan 26 18:46:58 2018, MaxMem=  4294967296 cpu:               2.1 elap:               0.1
 (Enter /share/apps/g16/l302.exe)
 NPDir=0 NMtPBC=     1 NCelOv=     1 NCel=       1 NClECP=     1 NCelD=      1
         NCelK=      1 NCelE2=     1 NClLst=     1 CellRange=     0.0.
 One-electron integrals computed using PRISM.
 One-electron integral symmetry used in STVInt
 NBasis=   737 RedAO= T EigKep=  6.97D-04  NBF=   737
 NBsUse=   737 1.00D-06 EigRej= -1.00D+00 NBFU=   737
 Precomputing XC quadrature grid using
 IXCGrd= 4 IRadAn=           5 IRanWt=          -1 IRanGd=           0 AccXCQ= 0.00D+00.
 Generated NRdTot=       0 NPtTot=           0 NUsed=           0 NTot=          32
 NSgBfM=   768   768   768   768   768 MxSgAt=    70 MxSgA2=    70.
 Leave Link  302 at Fri Jan 26 18:47:02 2018, MaxMem=  4294967296 cpu:             134.1 elap:               4.2
 (Enter /share/apps/g16/l303.exe)
 DipDrv:  MaxL=1.
 Leave Link  303 at Fri Jan 26 18:47:02 2018, MaxMem=  4294967296 cpu:              12.4 elap:               0.4
 (Enter /share/apps/g16/l401.exe)
 ExpMin= 1.22D-01 ExpMax= 1.17D+04 ExpMxC= 4.01D+02 IAcc=3 IRadAn=         5 AccDes= 0.00D+00
 Harris functional with IExCor= 4639 and IRadAn=       5 diagonalized for initial guess.
 HarFok:  IExCor= 4639 AccDes= 0.00D+00 IRadAn=         5 IDoV= 1 UseB2=F ITyADJ=14
 ICtDFT=  3500011 ScaDFX=  1.000000  1.000000  1.000000  1.000000
 FoFCou: FMM=F IPFlag=           0 FMFlag=      100000 FMFlg1=        2001
         NFxFlg=           0 DoJE=T BraDBF=F KetDBF=T FulRan=T
         wScrn=  0.000000 ICntrl=       500 IOpCl=  0 I1Cent=   200000004 NGrid=           0
         NMat0=    1 NMatS0=      1 NMatT0=    0 NMatD0=    1 NMtDS0=    0 NMtDT0=    0
 Petite list used in FoFCou.
 Harris En= -1963.87128800292    
 JPrj=0 DoOrth=F DoCkMO=F.
 Leave Link  401 at Fri Jan 26 18:47:15 2018, MaxMem=  4294967296 cpu:             391.8 elap:              12.3
 (Enter /share/apps/g16/l502.exe)
 Integral symmetry usage will be decided dynamically.
 Closed shell SCF:
 Using DIIS extrapolation, IDIIS=  1040.
 NGot=  4294967296 LenX=  4293717438 LenY=  4293108258
 Requested convergence on RMS density matrix=1.00D-08 within  20 cycles.
 Requested convergence on MAX density matrix=1.00D-06.
 Requested convergence on             energy=1.00D-06.
 No special actions if energy rises.
 Fock matrices will be formed incrementally for  20 cycles.
 Integral accuracy reduced to 1.0D-05 until final iterations.

 Cycle   1  Pass 0  IDiag  1:
 FoFJK:  IHMeth= 1 ICntrl=       0 DoSepK=T KAlg= 0 I1Cent=           0 FoldK=F
 IRaf=         1 NMat=       1 IRICut=       1 DoRegI=T DoRafI=F ISym2E= 0 IDoP0=0 IntGTp=1.
 FoFCou: FMM=T IPFlag=           0 FMFlag=      100000 FMFlg1=        2001
         NFxFlg=           0 DoJE=T BraDBF=F KetDBF=F FulRan=T
         wScrn=  0.000000 ICntrl=       500 IOpCl=  0 I1Cent=           0 NGrid=           0
         NMat0=    1 NMatS0=      1 NMatT0=    0 NMatD0=    1 NMtDS0=    0 NMtDT0=    0
 Symmetry not used in FoFCou.
 FMM levels:  10  Number of levels for PrismC:   9
 E= -2048.29783904007    
 DIIS: error= 2.41D-02 at cycle   1 NSaved=   1.
 NSaved= 1 IEnMin= 1 EnMin= -2048.29783904007     IErMin= 1 ErrMin= 2.41D-02
 ErrMax= 2.41D-02  0.00D+00 EMaxC= 1.00D-01 BMatC= 8.33D-01 BMatP= 8.33D-01
 IDIUse=3 WtCom= 7.59D-01 WtEn= 2.41D-01
 Coeff-Com:  0.100D+01
 Coeff-En:   0.100D+01
 Coeff:      0.100D+01
 Gap=     0.251 Goal=   None    Shift=    0.000
 GapD=    0.251 DampG=1.000 DampE=0.500 DampFc=0.5000 IDamp=-1.
 Damping current iteration by 5.00D-01
 RMSDP=1.58D-03 MaxDP=1.31D-01              OVMax= 1.76D-01

 Cycle   2  Pass 0  IDiag  1:
 RMSU=  7.91D-04    CP:  9.98D-01
 E= -2048.49683678074     Delta-E=       -0.198997740668 Rises=F Damp=T
 DIIS: error= 1.33D-02 at cycle   2 NSaved=   2.
 NSaved= 2 IEnMin= 2 EnMin= -2048.49683678074     IErMin= 2 ErrMin= 1.33D-02
 ErrMax= 1.33D-02  0.00D+00 EMaxC= 1.00D-01 BMatC= 1.45D-01 BMatP= 8.33D-01
 IDIUse=3 WtCom= 8.67D-01 WtEn= 1.33D-01
 Coeff-Com: -0.198D+00 0.120D+01
 Coeff-En:   0.000D+00 0.100D+01
 Coeff:     -0.171D+00 0.117D+01
 Gap=     0.360 Goal=   None    Shift=    0.000
 RMSDP=5.85D-04 MaxDP=3.49D-02 DE=-1.99D-01 OVMax= 1.43D-01

 Cycle   3  Pass 0  IDiag  1:
 RMSU=  5.72D-04    CP:  9.94D-01  1.15D+00
 E= -2048.67977211790     Delta-E=       -0.182935337166 Rises=F Damp=F
 DIIS: error= 1.09D-02 at cycle   3 NSaved=   3.
 NSaved= 3 IEnMin= 3 EnMin= -2048.67977211790     IErMin= 3 ErrMin= 1.09D-02
 ErrMax= 1.09D-02  0.00D+00 EMaxC= 1.00D-01 BMatC= 6.06D-02 BMatP= 1.45D-01
 IDIUse=3 WtCom= 8.91D-01 WtEn= 1.09D-01
 Coeff-Com: -0.229D+00 0.542D+00 0.687D+00
 Coeff-En:   0.000D+00 0.000D+00 0.100D+01
 Coeff:     -0.204D+00 0.483D+00 0.721D+00
 Gap=     0.276 Goal=   None    Shift=    0.000
 RMSDP=3.55D-04 MaxDP=3.55D-02 DE=-1.83D-01 OVMax= 7.81D-02

 Cycle   4  Pass 0  IDiag  1:
 RMSU=  2.03D-04    CP:  9.94D-01  1.43D+00  6.71D-01
 E= -2048.72429431773     Delta-E=       -0.044522199832 Rises=F Damp=F
 DIIS: error= 4.64D-03 at cycle   4 NSaved=   4.
 NSaved= 4 IEnMin= 4 EnMin= -2048.72429431773     IErMin= 4 ErrMin= 4.64D-03
 ErrMax= 4.64D-03  0.00D+00 EMaxC= 1.00D-01 BMatC= 1.03D-02 BMatP= 6.06D-02
 IDIUse=3 WtCom= 9.54D-01 WtEn= 4.64D-02
 Coeff-Com: -0.912D-01 0.177D+00 0.392D+00 0.523D+00
 Coeff-En:   0.000D+00 0.000D+00 0.975D-01 0.903D+00
 Coeff:     -0.870D-01 0.168D+00 0.378D+00 0.541D+00
 Gap=     0.281 Goal=   None    Shift=    0.000
 RMSDP=1.34D-04 MaxDP=1.39D-02 DE=-4.45D-02 OVMax= 1.60D-02

 Cycle   5  Pass 0  IDiag  1:
 RMSU=  6.24D-05    CP:  9.94D-01  1.39D+00  8.15D-01  6.03D-01
 E= -2048.73262573435     Delta-E=       -0.008331416612 Rises=F Damp=F
 DIIS: error= 7.41D-04 at cycle   5 NSaved=   5.
 NSaved= 5 IEnMin= 5 EnMin= -2048.73262573435     IErMin= 5 ErrMin= 7.41D-04
 ErrMax= 7.41D-04  0.00D+00 EMaxC= 1.00D-01 BMatC= 3.31D-04 BMatP= 1.03D-02
 IDIUse=3 WtCom= 9.93D-01 WtEn= 7.41D-03
 Coeff-Com: -0.227D-01 0.383D-01 0.126D+00 0.246D+00 0.612D+00
 Coeff-En:   0.000D+00 0.000D+00 0.000D+00 0.000D+00 0.100D+01
 Coeff:     -0.225D-01 0.380D-01 0.125D+00 0.244D+00 0.615D+00
 Gap=     0.281 Goal=   None    Shift=    0.000
 RMSDP=2.64D-05 MaxDP=2.42D-03 DE=-8.33D-03 OVMax= 3.68D-03

 Failed to achieve initial convergence to 1.0D-08 in  6 cycles.
 Switch to full accuracy anyway.
 Cycle   6  Pass 1  IDiag  1:
 E= -2048.73301166631     Delta-E=       -0.000385931969 Rises=F Damp=F
 DIIS: error= 1.87D-04 at cycle   1 NSaved=   1.
 NSaved= 1 IEnMin= 1 EnMin= -2048.73301166631     IErMin= 1 ErrMin= 1.87D-04
 ErrMax= 1.87D-04  0.00D+00 EMaxC= 1.00D-01 BMatC= 7.70D-05 BMatP= 7.70D-05
 IDIUse=3 WtCom= 9.98D-01 WtEn= 1.87D-03
 Coeff-Com:  0.100D+01
 Coeff-En:   0.100D+01
 Coeff:      0.100D+01
 Gap=     0.281 Goal=   None    Shift=    0.000
 RMSDP=2.64D-05 MaxDP=2.42D-03 DE=-3.86D-04 OVMax= 2.36D-03

 Cycle   7  Pass 1  IDiag  1:
 RMSU=  1.19D-04    CP:  1.00D+00
 E= -2048.73306806417     Delta-E=       -0.000056397857 Rises=F Damp=F
 DIIS: error= 2.83D-04 at cycle   2 NSaved=   2.
 NSaved= 2 IEnMin= 2 EnMin= -2048.73306806417     IErMin= 1 ErrMin= 1.87D-04
 ErrMax= 2.83D-04  0.00D+00 EMaxC= 1.00D-01 BMatC= 4.36D-05 BMatP= 7.70D-05
 IDIUse=3 WtCom= 9.97D-01 WtEn= 2.83D-03
 Coeff-Com:  0.404D+00 0.596D+00
 Coeff-En:   0.000D+00 0.100D+01
 Coeff:      0.403D+00 0.597D+00
 Gap=     0.281 Goal=   None    Shift=    0.000
 RMSDP=1.12D-05 MaxDP=1.32D-03 DE=-5.64D-05 OVMax= 1.56D-03

 Cycle   8  Pass 1  IDiag  1:
 RMSU=  1.08D-05    CP:  1.00D+00  1.03D+00
 E= -2048.73309830724     Delta-E=       -0.000030243072 Rises=F Damp=F
 DIIS: error= 1.45D-04 at cycle   3 NSaved=   3.
 NSaved= 3 IEnMin= 3 EnMin= -2048.73309830724     IErMin= 3 ErrMin= 1.45D-04
 ErrMax= 1.45D-04  0.00D+00 EMaxC= 1.00D-01 BMatC= 1.08D-05 BMatP= 4.36D-05
 IDIUse=3 WtCom= 9.99D-01 WtEn= 1.45D-03
 Coeff-Com: -0.189D-01 0.320D+00 0.699D+00
 Coeff-En:   0.000D+00 0.144D+00 0.856D+00
 Coeff:     -0.188D-01 0.319D+00 0.699D+00
 Gap=     0.281 Goal=   None    Shift=    0.000
 RMSDP=5.62D-06 MaxDP=5.25D-04 DE=-3.02D-05 OVMax= 5.67D-04

 Cycle   9  Pass 1  IDiag  1:
 RMSU=  3.77D-06    CP:  1.00D+00  1.05D+00  7.59D-01
 E= -2048.73310782256     Delta-E=       -0.000009515321 Rises=F Damp=F
 DIIS: error= 4.22D-05 at cycle   4 NSaved=   4.
 NSaved= 4 IEnMin= 4 EnMin= -2048.73310782256     IErMin= 4 ErrMin= 4.22D-05
 ErrMax= 4.22D-05  0.00D+00 EMaxC= 1.00D-01 BMatC= 4.92D-07 BMatP= 1.08D-05
 IDIUse=1 WtCom= 1.00D+00 WtEn= 0.00D+00
 Coeff-Com: -0.294D-01 0.904D-01 0.259D+00 0.680D+00
 Coeff:     -0.294D-01 0.904D-01 0.259D+00 0.680D+00
 Gap=     0.281 Goal=   None    Shift=    0.000
 RMSDP=1.39D-06 MaxDP=1.48D-04 DE=-9.52D-06 OVMax= 5.05D-04

 Cycle  10  Pass 1  IDiag  1:
 RMSU=  1.26D-06    CP:  1.00D+00  1.06D+00  7.90D-01  1.09D+00
 E= -2048.73310861400     Delta-E=       -0.000000791436 Rises=F Damp=F
 DIIS: error= 1.75D-05 at cycle   5 NSaved=   5.
 NSaved= 5 IEnMin= 5 EnMin= -2048.73310861400     IErMin= 5 ErrMin= 1.75D-05
 ErrMax= 1.75D-05  0.00D+00 EMaxC= 1.00D-01 BMatC= 1.15D-07 BMatP= 4.92D-07
 IDIUse=1 WtCom= 1.00D+00 WtEn= 0.00D+00
 Coeff-Com: -0.253D-02-0.560D-01-0.120D+00 0.199D+00 0.979D+00
 Coeff:     -0.253D-02-0.560D-01-0.120D+00 0.199D+00 0.979D+00
 Gap=     0.281 Goal=   None    Shift=    0.000
 RMSDP=1.17D-06 MaxDP=7.39D-05 DE=-7.91D-07 OVMax= 2.35D-04

 Cycle  11  Pass 1  IDiag  1:
 RMSU=  4.85D-07    CP:  1.00D+00  1.06D+00  8.00D-01  1.36D+00  1.17D+00
 E= -2048.73310885549     Delta-E=       -0.000000241490 Rises=F Damp=F
 DIIS: error= 1.14D-05 at cycle   6 NSaved=   6.
 NSaved= 6 IEnMin= 6 EnMin= -2048.73310885549     IErMin= 6 ErrMin= 1.14D-05
 ErrMax= 1.14D-05  0.00D+00 EMaxC= 1.00D-01 BMatC= 2.59D-08 BMatP= 1.15D-07
 IDIUse=1 WtCom= 1.00D+00 WtEn= 0.00D+00
 Coeff-Com:  0.446D-02-0.452D-01-0.111D+00-0.190D-02 0.515D+00 0.639D+00
 Coeff:      0.446D-02-0.452D-01-0.111D+00-0.190D-02 0.515D+00 0.639D+00
 Gap=     0.281 Goal=   None    Shift=    0.000
 RMSDP=3.51D-07 MaxDP=3.62D-05 DE=-2.41D-07 OVMax= 1.25D-04

 Cycle  12  Pass 1  IDiag  1:
 RMSU=  1.79D-07    CP:  1.00D+00  1.06D+00  8.01D-01  1.43D+00  1.30D+00
                    CP:  9.32D-01
 E= -2048.73310889306     Delta-E=       -0.000000037566 Rises=F Damp=F
 DIIS: error= 1.16D-06 at cycle   7 NSaved=   7.
 NSaved= 7 IEnMin= 7 EnMin= -2048.73310889306     IErMin= 7 ErrMin= 1.16D-06
 ErrMax= 1.16D-06  0.00D+00 EMaxC= 1.00D-01 BMatC= 7.51D-10 BMatP= 2.59D-08
 IDIUse=1 WtCom= 1.00D+00 WtEn= 0.00D+00
 Coeff-Com:  0.998D-03-0.680D-02-0.183D-01-0.710D-02 0.483D-01 0.135D+00
 Coeff-Com:  0.848D+00
 Coeff:      0.998D-03-0.680D-02-0.183D-01-0.710D-02 0.483D-01 0.135D+00
 Coeff:      0.848D+00
 Gap=     0.281 Goal=   None    Shift=    0.000
 RMSDP=8.19D-08 MaxDP=5.27D-06 DE=-3.76D-08 OVMax= 2.23D-05

 Cycle  13  Pass 1  IDiag  1:
 RMSU=  4.88D-08    CP:  1.00D+00  1.06D+00  8.01D-01  1.44D+00  1.31D+00
                    CP:  1.02D+00  1.13D+00
 E= -2048.73310889449     Delta-E=       -0.000000001437 Rises=F Damp=F
 DIIS: error= 6.64D-07 at cycle   8 NSaved=   8.
 NSaved= 8 IEnMin= 8 EnMin= -2048.73310889449     IErMin= 8 ErrMin= 6.64D-07
 ErrMax= 6.64D-07  0.00D+00 EMaxC= 1.00D-01 BMatC= 2.96D-10 BMatP= 7.51D-10
 IDIUse=1 WtCom= 1.00D+00 WtEn= 0.00D+00
 Coeff-Com: -0.643D-03 0.825D-02 0.192D-01-0.124D-02-0.108D+00-0.910D-01
 Coeff-Com:  0.427D+00 0.747D+00
 Coeff:     -0.643D-03 0.825D-02 0.192D-01-0.124D-02-0.108D+00-0.910D-01
 Coeff:      0.427D+00 0.747D+00
 Gap=     0.281 Goal=   None    Shift=    0.000
 RMSDP=4.40D-08 MaxDP=2.61D-06 DE=-1.44D-09 OVMax= 1.07D-05

 Cycle  14  Pass 1  IDiag  1:
 RMSU=  2.63D-08    CP:  1.00D+00  1.06D+00  8.00D-01  1.44D+00  1.32D+00
                    CP:  1.06D+00  1.27D+00  1.05D+00
 E= -2048.73310889485     Delta-E=       -0.000000000362 Rises=F Damp=F
 DIIS: error= 2.15D-07 at cycle   9 NSaved=   9.
 NSaved= 9 IEnMin= 9 EnMin= -2048.73310889485     IErMin= 9 ErrMin= 2.15D-07
 ErrMax= 2.15D-07  0.00D+00 EMaxC= 1.00D-01 BMatC= 3.27D-11 BMatP= 2.96D-10
 IDIUse=1 WtCom= 1.00D+00 WtEn= 0.00D+00
 Coeff-Com: -0.410D-03 0.461D-02 0.110D-01 0.617D-03-0.547D-01-0.571D-01
 Coeff-Com:  0.944D-01 0.321D+00 0.680D+00
 Coeff:     -0.410D-03 0.461D-02 0.110D-01 0.617D-03-0.547D-01-0.571D-01
 Coeff:      0.944D-01 0.321D+00 0.680D+00
 Gap=     0.281 Goal=   None    Shift=    0.000
 RMSDP=1.31D-08 MaxDP=7.59D-07 DE=-3.62D-10 OVMax= 3.38D-06

 Cycle  15  Pass 1  IDiag  1:
 RMSU=  9.10D-09    CP:  1.00D+00  1.06D+00  8.00D-01  1.44D+00  1.32D+00
                    CP:  1.07D+00  1.30D+00  1.20D+00  1.08D+00
 E= -2048.73310889508     Delta-E=       -0.000000000227 Rises=F Damp=F
 DIIS: error= 7.70D-08 at cycle  10 NSaved=  10.
 NSaved=10 IEnMin=10 EnMin= -2048.73310889508     IErMin=10 ErrMin= 7.70D-08
 ErrMax= 7.70D-08  0.00D+00 EMaxC= 1.00D-01 BMatC= 5.13D-12 BMatP= 3.27D-11
 IDIUse=1 WtCom= 1.00D+00 WtEn= 0.00D+00
 Coeff-Com:  0.184D-06-0.252D-03-0.481D-03 0.153D-03 0.469D-02 0.393D-03
 Coeff-Com: -0.563D-01-0.557D-01 0.260D+00 0.847D+00
 Coeff:      0.184D-06-0.252D-03-0.481D-03 0.153D-03 0.469D-02 0.393D-03
 Coeff:     -0.563D-01-0.557D-01 0.260D+00 0.847D+00
 Gap=     0.281 Goal=   None    Shift=    0.000
 RMSDP=6.72D-09 MaxDP=4.09D-07 DE=-2.27D-10 OVMax= 1.61D-06

 SCF Done:  E(RwB97XD) =  -2048.73310890     A.U. after   15 cycles
            NFock= 15  Conv=0.67D-08     -V/T= 2.0054
 KE= 2.037774593023D+03 PE=-1.568275439985D+04 EE= 6.145316345078D+03
 Leave Link  502 at Fri Jan 26 18:58:14 2018, MaxMem=  4294967296 cpu:           20425.6 elap:             658.8
 (Enter /share/apps/g16/l601.exe)
 Copying SCF densities to generalized density rwf, IOpCl= 0 IROHF=0.

 **********************************************************************

            Population analysis using the SCF density.

 **********************************************************************

 Orbital symmetries:
       Occupied  (A) (A) (A) (A) (A) (A) (A) (A) (A) (A) (A) (A)
                 (A) (A) (A) (A) (A) (A) (A) (A) (A) (A) (A) (A)
                 (A) (A) (A) (A) (A) (A) (A) (A) (A) (A) (A) (A)
                 (A) (A) (A) (A) (A) (A) (A) (A) (A) (A) (A) (A)
                 (A) (A) (A) (A) (A) (A) (A) (A) (A) (A) (A) (A)
                 (A) (A) (A) (A) (A) (A) (A) (A) (A) (A) (A) (A)
                 (A) (A) (A) (A) (A) (A) (A) (A) (A) (A) (A) (A)
                 (A) (A) (A) (A) (A) (A) (A) (A) (A) (A) (A) (A)
                 (A) (A) (A) (A) (A) (A) (A) (A) (A) (A) (A) (A)
                 (A) (A) (A) (A) (A) (A) (A) (A) (A) (A) (A) (A)
                 (A) (A) (A) (A) (A) (A) (A) (A) (A) (A) (A) (A)
                 (A) (A) (A) (A) (A) (A) (A) (A) (A) (A) (A) (A)
                 (A) (A) (A) (A) (A) (A) (A) (A) (A) (A)
       Virtual   (A) (A) (A) (A) (A) (A) (A) (A) (A) (A) (A) (A)
                 (A) (A) (A) (A) (A) (A) (A) (A) (A) (A) (A) (A)
                 (A) (A) (A) (A) (A) (A) (A) (A) (A) (A) (A) (A)
                 (A) (A) (A) (A) (A) (A) (A) (A) (A) (A) (A) (A)
                 (A) (A) (A) (A) (A) (A) (A) (A) (A) (A) (A) (A)
                 (A) (A) (A) (A) (A) (A) (A) (A) (A) (A) (A) (A)
                 (A) (A) (A) (A) (A) (A) (A) (A) (A) (A) (A) (A)
                 (A) (A) (A) (A) (A) (A) (A) (A) (A) (A) (A) (A)
                 (A) (A) (A) (A) (A) (A) (A) (A) (A) (A) (A) (A)
                 (A) (A) (A) (A) (A) (A) (A) (A) (A) (A) (A) (A)
                 (A) (A) (A) (A) (A) (A) (A) (A) (A) (A) (A) (A)
                 (A) (A) (A) (A) (A) (A) (A) (A) (A) (A) (A) (A)
                 (A) (A) (A) (A) (A) (A) (A) (A) (A) (A) (A) (A)
                 (A) (A) (A) (A) (A) (A) (A) (A) (A) (A) (A) (A)
                 (A) (A) (A) (A) (A) (A) (A) (A) (A) (A) (A) (A)
                 (A) (A) (A) (A) (A) (A) (A) (A) (A) (A) (A) (A)
                 (A) (A) (A) (A) (A) (A) (A) (A) (A) (A) (A) (A)
                 (A) (A) (A) (A) (A) (A) (A) (A) (A) (A) (A) (A)
                 (A) (A) (A) (A) (A) (A) (A) (A) (A) (A) (A) (A)
                 (A) (A) (A) (A) (A) (A) (A) (A) (A) (A) (A) (A)
                 (A) (A) (A) (A) (A) (A) (A) (A) (A) (A) (A) (A)
                 (A) (A) (A) (A) (A) (A) (A) (A) (A) (A) (A) (A)
                 (A) (A) (A) (A) (A) (A) (A) (A) (A) (A) (A) (A)
                 (A) (A) (A) (A) (A) (A) (A) (A) (A) (A) (A) (A)
                 (A) (A) (A) (A) (A) (A) (A) (A) (A) (A) (A) (A)
                 (A) (A) (A) (A) (A) (A) (A) (A) (A) (A) (A) (A)
                 (A) (A) (A) (A) (A) (A) (A) (A) (A) (A) (A) (A)
                 (A) (A) (A) (A) (A) (A) (A) (A) (A) (A) (A) (A)
                 (A) (A) (A) (A) (A) (A) (A) (A) (A) (A) (A) (A)
                 (A) (A) (A) (A) (A) (A) (A) (A) (A) (A) (A) (A)
                 (A) (A) (A) (A) (A) (A) (A) (A) (A) (A) (A) (A)
                 (A) (A) (A) (A) (A) (A) (A) (A) (A) (A) (A) (A)
                 (A) (A) (A) (A) (A) (A) (A) (A) (A) (A) (A) (A)
                 (A) (A) (A) (A) (A) (A) (A) (A) (A) (A) (A) (A)
                 (A) (A) (A) (A) (A) (A) (A) (A) (A) (A) (A) (A)
                 (A) (A) (A) (A) (A) (A) (A) (A) (A) (A) (A) (A)
                 (A) (A) (A) (A) (A) (A) (A) (A) (A) (A) (A) (A)
                 (A) (A) (A) (A) (A) (A) (A) (A) (A) (A) (A) (A)
                 (A) (A) (A) (A) (A) (A) (A) (A) (A) (A) (A) (A)
                 (A) (A) (A) (A) (A) (A) (A) (A) (A) (A) (A) (A)
                 (A) (A) (A) (A) (A) (A) (A) (A) (A) (A) (A) (A)
                 (A) (A) (A) (A) (A) (A) (A) (A) (A) (A) (A) (A)
                 (A) (A) (A) (A) (A) (A) (A) (A) (A) (A) (A) (A)
                 (A) (A) (A) (A) (A) (A) (A) (A) (A) (A) (A) (A)
                 (A) (A) (A) (A) (A) (A) (A) (A) (A) (A) (A) (A)
                 (A) (A) (A) (A) (A) (A) (A) (A) (A) (A) (A) (A)
                 (A) (A) (A) (A) (A) (A) (A) (A) (A) (A) (A) (A)
                 (A) (A) (A) (A) (A) (A) (A) (A) (A) (A) (A) (A)
                 (A) (A) (A) (A) (A) (A) (A)
 The electronic state is 1-A.
 Alpha  occ. eigenvalues --  -19.26080 -19.22266 -19.20754 -14.52665 -14.51933
 Alpha  occ. eigenvalues --  -14.48869 -14.48500 -14.48030 -14.47778 -14.46944
 Alpha  occ. eigenvalues --  -14.46916 -14.44913 -14.43505 -14.43181 -14.42131
 Alpha  occ. eigenvalues --  -14.42005 -14.41181 -14.40862 -14.40586 -14.39868
 Alpha  occ. eigenvalues --  -10.45691 -10.41370 -10.40360 -10.39296 -10.38332
 Alpha  occ. eigenvalues --  -10.38093 -10.37486 -10.36433 -10.35274 -10.35150
 Alpha  occ. eigenvalues --  -10.34899 -10.34470 -10.33845 -10.33757 -10.33305
 Alpha  occ. eigenvalues --  -10.33080 -10.32792 -10.32009 -10.31404 -10.31022
 Alpha  occ. eigenvalues --  -10.30711 -10.28261 -10.28223  -1.19644  -1.14647
 Alpha  occ. eigenvalues --   -1.13372  -1.13273  -1.11079  -1.10693  -1.09555
 Alpha  occ. eigenvalues --   -1.08830  -1.08562  -1.04692  -1.04172  -1.02695
 Alpha  occ. eigenvalues --   -1.00567  -1.00169  -0.99985  -0.98647  -0.96732
 Alpha  occ. eigenvalues --   -0.96667  -0.96113  -0.92348  -0.91312  -0.87073
 Alpha  occ. eigenvalues --   -0.85541  -0.84236  -0.83772  -0.83670  -0.82632
 Alpha  occ. eigenvalues --   -0.82060  -0.79123  -0.76476  -0.74781  -0.74154
 Alpha  occ. eigenvalues --   -0.73882  -0.73557  -0.72647  -0.70779  -0.69899
 Alpha  occ. eigenvalues --   -0.67587  -0.66753  -0.66267  -0.66060  -0.64634
 Alpha  occ. eigenvalues --   -0.63928  -0.63777  -0.62855  -0.62450  -0.62064
 Alpha  occ. eigenvalues --   -0.60121  -0.60058  -0.59918  -0.59718  -0.59423
 Alpha  occ. eigenvalues --   -0.59041  -0.58699  -0.56885  -0.56317  -0.56149
 Alpha  occ. eigenvalues --   -0.56119  -0.55292  -0.55179  -0.54713  -0.54539
 Alpha  occ. eigenvalues --   -0.53815  -0.53636  -0.53176  -0.53097  -0.52746
 Alpha  occ. eigenvalues --   -0.52532  -0.52204  -0.51515  -0.50446  -0.50297
 Alpha  occ. eigenvalues --   -0.49942  -0.49602  -0.49284  -0.48982  -0.48708
 Alpha  occ. eigenvalues --   -0.48554  -0.48497  -0.48351  -0.48142  -0.47520
 Alpha  occ. eigenvalues --   -0.46673  -0.45796  -0.44800  -0.44233  -0.43576
 Alpha  occ. eigenvalues --   -0.40867  -0.39983  -0.39605  -0.37829  -0.37355
 Alpha  occ. eigenvalues --   -0.37053  -0.36896  -0.36872  -0.35887  -0.34422
 Alpha  occ. eigenvalues --   -0.34027  -0.33496  -0.33391  -0.33223  -0.33099
 Alpha  occ. eigenvalues --   -0.32734  -0.32480  -0.32225  -0.31902  -0.30566
 Alpha  occ. eigenvalues --   -0.30094  -0.29273  -0.25715  -0.25352
 Alpha virt. eigenvalues --    0.02774   0.04512   0.07700   0.08238   0.08331
 Alpha virt. eigenvalues --    0.09092   0.09454   0.11009   0.11496   0.11791
 Alpha virt. eigenvalues --    0.12374   0.13960   0.14212   0.14695   0.14993
 Alpha virt. eigenvalues --    0.15936   0.16131   0.16965   0.17113   0.17846
 Alpha virt. eigenvalues --    0.19009   0.19287   0.20100   0.20328   0.20381
 Alpha virt. eigenvalues --    0.20618   0.20814   0.20996   0.21276   0.22105
 Alpha virt. eigenvalues --    0.22730   0.22898   0.23230   0.23464   0.23876
 Alpha virt. eigenvalues --    0.24132   0.24246   0.24677   0.24745   0.25163
 Alpha virt. eigenvalues --    0.25621   0.26575   0.26862   0.27507   0.27931
 Alpha virt. eigenvalues --    0.29176   0.29352   0.29715   0.30586   0.30961
 Alpha virt. eigenvalues --    0.31225   0.31761   0.32536   0.33694   0.33804
 Alpha virt. eigenvalues --    0.34163   0.34263   0.35345   0.35901   0.36740
 Alpha virt. eigenvalues --    0.37182   0.37279   0.38090   0.39495   0.39715
 Alpha virt. eigenvalues --    0.39903   0.40307   0.40688   0.41340   0.41686
 Alpha virt. eigenvalues --    0.42390   0.42721   0.43702   0.43817   0.44689
 Alpha virt. eigenvalues --    0.44824   0.45519   0.46348   0.46599   0.47246
 Alpha virt. eigenvalues --    0.47368   0.48228   0.48585   0.49017   0.49798
 Alpha virt. eigenvalues --    0.49897   0.50258   0.50520   0.50751   0.50829
 Alpha virt. eigenvalues --    0.51794   0.52088   0.52671   0.52939   0.53231
 Alpha virt. eigenvalues --    0.53792   0.54020   0.54924   0.55181   0.55751
 Alpha virt. eigenvalues --    0.56316   0.56509   0.56699   0.56885   0.57699
 Alpha virt. eigenvalues --    0.58053   0.58394   0.59118   0.59203   0.59245
 Alpha virt. eigenvalues --    0.59896   0.60094   0.60619   0.60910   0.61202
 Alpha virt. eigenvalues --    0.61718   0.62041   0.62434   0.62946   0.63387
 Alpha virt. eigenvalues --    0.63545   0.63898   0.64382   0.65022   0.65412
 Alpha virt. eigenvalues --    0.65580   0.66107   0.66483   0.66832   0.67394
 Alpha virt. eigenvalues --    0.67520   0.67907   0.68349   0.68744   0.69110
 Alpha virt. eigenvalues --    0.69614   0.69913   0.70123   0.70368   0.70743
 Alpha virt. eigenvalues --    0.71534   0.71646   0.72697   0.72844   0.73047
 Alpha virt. eigenvalues --    0.73927   0.74299   0.74762   0.75037   0.75389
 Alpha virt. eigenvalues --    0.75484   0.75857   0.76237   0.76606   0.76950
 Alpha virt. eigenvalues --    0.77079   0.77483   0.77835   0.77951   0.78344
 Alpha virt. eigenvalues --    0.78742   0.79081   0.79447   0.79933   0.80661
 Alpha virt. eigenvalues --    0.80861   0.81582   0.81671   0.82204   0.82888
 Alpha virt. eigenvalues --    0.83204   0.83477   0.83848   0.84770   0.85011
 Alpha virt. eigenvalues --    0.85539   0.85619   0.86026   0.87350   0.87650
 Alpha virt. eigenvalues --    0.88520   0.88613   0.89163   0.89440   0.89524
 Alpha virt. eigenvalues --    0.90323   0.90822   0.91372   0.91593   0.91764
 Alpha virt. eigenvalues --    0.92212   0.92621   0.93479   0.93758   0.94335
 Alpha virt. eigenvalues --    0.94731   0.94924   0.95594   0.95899   0.96328
 Alpha virt. eigenvalues --    0.96423   0.97280   0.97645   0.98303   0.98445
 Alpha virt. eigenvalues --    0.98796   0.99542   1.00327   1.00744   1.01108
 Alpha virt. eigenvalues --    1.01457   1.01625   1.01893   1.02439   1.02902
 Alpha virt. eigenvalues --    1.03048   1.04011   1.04290   1.05177   1.05439
 Alpha virt. eigenvalues --    1.06036   1.06261   1.06883   1.07532   1.08363
 Alpha virt. eigenvalues --    1.08819   1.08887   1.09314   1.10503   1.10813
 Alpha virt. eigenvalues --    1.11169   1.11506   1.12451   1.12912   1.13565
 Alpha virt. eigenvalues --    1.13978   1.14236   1.14660   1.15196   1.15526
 Alpha virt. eigenvalues --    1.15742   1.16025   1.16211   1.17095   1.17518
 Alpha virt. eigenvalues --    1.18435   1.18897   1.19269   1.19518   1.19623
 Alpha virt. eigenvalues --    1.20110   1.20693   1.20952   1.21138   1.21346
 Alpha virt. eigenvalues --    1.21466   1.22493   1.22585   1.22933   1.23114
 Alpha virt. eigenvalues --    1.23730   1.23772   1.24386   1.24509   1.24989
 Alpha virt. eigenvalues --    1.25432   1.25935   1.26997   1.27374   1.27940
 Alpha virt. eigenvalues --    1.28733   1.29333   1.29655   1.30360   1.31777
 Alpha virt. eigenvalues --    1.32463   1.32964   1.33828   1.34075   1.34512
 Alpha virt. eigenvalues --    1.34989   1.35365   1.36059   1.36410   1.37574
 Alpha virt. eigenvalues --    1.37851   1.38718   1.39208   1.39767   1.40606
 Alpha virt. eigenvalues --    1.41257   1.42135   1.43002   1.44159   1.44560
 Alpha virt. eigenvalues --    1.45383   1.46189   1.47087   1.47648   1.47844
 Alpha virt. eigenvalues --    1.48288   1.48909   1.49212   1.49434   1.49708
 Alpha virt. eigenvalues --    1.50591   1.50931   1.52073   1.53372   1.53455
 Alpha virt. eigenvalues --    1.55645   1.55867   1.56091   1.56348   1.56724
 Alpha virt. eigenvalues --    1.58416   1.58695   1.59255   1.59604   1.61274
 Alpha virt. eigenvalues --    1.61609   1.61947   1.62132   1.62864   1.63336
 Alpha virt. eigenvalues --    1.64038   1.64533   1.65444   1.66088   1.66588
 Alpha virt. eigenvalues --    1.67059   1.67671   1.68031   1.68359   1.68855
 Alpha virt. eigenvalues --    1.69480   1.69957   1.70168   1.70538   1.71194
 Alpha virt. eigenvalues --    1.71706   1.72494   1.72597   1.72859   1.73275
 Alpha virt. eigenvalues --    1.73629   1.74217   1.74609   1.75117   1.75243
 Alpha virt. eigenvalues --    1.75573   1.76007   1.76534   1.77048   1.77105
 Alpha virt. eigenvalues --    1.77493   1.77723   1.78086   1.78947   1.78983
 Alpha virt. eigenvalues --    1.79277   1.79813   1.80222   1.80362   1.80404
 Alpha virt. eigenvalues --    1.80514   1.81068   1.81305   1.82037   1.82326
 Alpha virt. eigenvalues --    1.82986   1.83494   1.83799   1.84166   1.84339
 Alpha virt. eigenvalues --    1.84839   1.85867   1.86119   1.86829   1.87329
 Alpha virt. eigenvalues --    1.87629   1.87921   1.88221   1.88662   1.88698
 Alpha virt. eigenvalues --    1.89807   1.89958   1.90250   1.90432   1.90770
 Alpha virt. eigenvalues --    1.91882   1.92484   1.93373   1.93588   1.93731
 Alpha virt. eigenvalues --    1.93918   1.94567   1.95414   1.96158   1.96914
 Alpha virt. eigenvalues --    1.98297   1.98522   1.99339   2.00447   2.01159
 Alpha virt. eigenvalues --    2.01453   2.01701   2.02106   2.02554   2.04063
 Alpha virt. eigenvalues --    2.04431   2.05082   2.06271   2.06948   2.06973
 Alpha virt. eigenvalues --    2.07581   2.08150   2.08422   2.08957   2.09371
 Alpha virt. eigenvalues --    2.10235   2.10364   2.11243   2.12558   2.13438
 Alpha virt. eigenvalues --    2.13868   2.14753   2.15253   2.16553   2.17892
 Alpha virt. eigenvalues --    2.18711   2.19958   2.20248   2.20317   2.20991
 Alpha virt. eigenvalues --    2.21296   2.22093   2.22889   2.23635   2.23766
 Alpha virt. eigenvalues --    2.24464   2.24944   2.25782   2.26142   2.26487
 Alpha virt. eigenvalues --    2.27392   2.28446   2.28619   2.29255   2.29769
 Alpha virt. eigenvalues --    2.30287   2.30556   2.31025   2.31546   2.32192
 Alpha virt. eigenvalues --    2.32791   2.34056   2.34574   2.34829   2.35080
 Alpha virt. eigenvalues --    2.35401   2.35944   2.36331   2.37121   2.37192
 Alpha virt. eigenvalues --    2.38249   2.39403   2.40068   2.41192   2.41854
 Alpha virt. eigenvalues --    2.42045   2.42540   2.43171   2.43629   2.44425
 Alpha virt. eigenvalues --    2.45327   2.45864   2.46215   2.46283   2.47128
 Alpha virt. eigenvalues --    2.47564   2.48944   2.50205   2.50636   2.51714
 Alpha virt. eigenvalues --    2.52174   2.53249   2.54522   2.54584   2.55779
 Alpha virt. eigenvalues --    2.56504   2.57250   2.57710   2.57888   2.58870
 Alpha virt. eigenvalues --    2.60456   2.61372   2.61956   2.62187   2.62952
 Alpha virt. eigenvalues --    2.64230   2.64711   2.65169   2.65332   2.66029
 Alpha virt. eigenvalues --    2.66705   2.67563   2.68493   2.68710   2.69149
 Alpha virt. eigenvalues --    2.69660   2.70302   2.70904   2.71087   2.72039
 Alpha virt. eigenvalues --    2.73227   2.73326   2.74347   2.75308   2.75917
 Alpha virt. eigenvalues --    2.77709   2.78532   2.78937   2.79174   2.79382
 Alpha virt. eigenvalues --    2.79943   2.80310   2.80677   2.80900   2.81071
 Alpha virt. eigenvalues --    2.81651   2.82165   2.82660   2.83102   2.84221
 Alpha virt. eigenvalues --    2.84654   2.85391   2.86137   2.86648   2.87125
 Alpha virt. eigenvalues --    2.87629   2.88411   2.89090   2.91830   2.92133
 Alpha virt. eigenvalues --    2.94276   2.95286   2.97155   2.98048   2.99378
 Alpha virt. eigenvalues --    3.00295   3.02146   3.03215   3.04622   3.06321
 Alpha virt. eigenvalues --    3.07601   3.09865   3.10358   3.13570   3.14591
 Alpha virt. eigenvalues --    3.15199   3.15808   3.16114   3.17907   3.19921
 Alpha virt. eigenvalues --    3.21963   3.22070   3.23805   3.24096   3.26039
 Alpha virt. eigenvalues --    3.45376   3.47333   3.47822   3.49413   3.50015
 Alpha virt. eigenvalues --    3.53434   3.53962   3.56123   3.57924   3.59781
 Alpha virt. eigenvalues --    3.62516   3.70452   3.74207
          Condensed to atoms (all electrons):
 Mulliken charges:
               1
     1  N   -0.311739
     2  C    0.181381
     3  C    0.033778
     4  N   -0.259482
     5  C    0.133904
     6  H    0.025676
     7  N   -0.294991
     8  C    0.142415
     9  H    0.006122
    10  N   -0.291878
    11  C    0.248113
    12  C    0.126290
    13  N   -0.057574
    14  H    0.109787
    15  H    0.087368
    16  H    0.024282
    17  H    0.033968
    18  H    0.026324
    19  N   -0.312816
    20  C    0.241036
    21  C    0.181700
    22  N   -0.104056
    23  H    0.116308
    24  H    0.112989
    25  N   -0.292715
    26  C    0.212215
    27  N   -0.119273
    28  H    0.112457
    29  C    0.148273
    30  O   -0.314960
    31  C    0.011588
    32  N   -0.221671
    33  C    0.127305
    34  H    0.029165
    35  H    0.028410
    36  H    0.027748
    37  H    0.025072
    38  H    0.062530
    39  H    0.058504
    40  H    0.076214
    41  H    0.032584
    42  C   -0.111623
    43  O   -0.263266
    44  C    0.163797
    45  H    0.134003
    46  N   -0.128969
    47  O   -0.345899
    48  C    0.352791
    49  H    0.048718
    50  C    0.165148
    51  C    0.043664
    52  N   -0.293037
    53  H    0.036498
    54  H    0.047090
    55  H    0.017710
    56  H    0.126123
    57  H    0.114210
    58  N   -0.070681
    59  C    0.086467
    60  C    0.215331
    61  N   -0.255245
    62  H    0.053245
    63  C    0.161597
    64  N   -0.301650
    65  H    0.032987
    66  C    0.131346
    67  N   -0.267479
    68  C    0.046997
    69  C    0.166121
    70  N   -0.308349
 Sum of Mulliken charges =  -0.00000
 Mulliken charges with hydrogens summed into heavy atoms:
               1
     1  N   -0.311739
     2  C    0.265955
     3  C    0.033778
     4  N   -0.259482
     5  C    0.159580
     7  N   -0.294991
     8  C    0.148537
    10  N   -0.291878
    11  C    0.248113
    12  C    0.126290
    13  N    0.139581
    19  N   -0.312816
    20  C    0.241036
    21  C    0.262930
    22  N    0.125241
    25  N   -0.292715
    26  C    0.212215
    27  N   -0.006816
    29  C    0.148273
    30  O   -0.314960
    31  C    0.011588
    32  N   -0.221671
    33  C    0.156470
    42  C   -0.079039
    43  O   -0.263266
    44  C    0.163797
    46  N    0.005034
    47  O   -0.345899
    48  C    0.352791
    50  C    0.213866
    51  C    0.240912
    52  N   -0.293037
    58  N    0.169652
    59  C    0.086467
    60  C    0.215331
    61  N   -0.255245
    63  C    0.214842
    64  N   -0.301650
    66  C    0.164333
    67  N   -0.267479
    68  C    0.046997
    69  C    0.267419
    70  N   -0.308349
 Electronic spatial extent (au):  <R**2>=          22845.9196
 Charge=             -0.0000 electrons
 Dipole moment (field-independent basis, Debye):
    X=              9.2242    Y=              4.6886    Z=              2.1907  Tot=             10.5768
 Quadrupole moment (field-independent basis, Debye-Ang):
   XX=           -159.6305   YY=           -209.6285   ZZ=           -252.4053
   XY=             -5.5306   XZ=              5.8182   YZ=             -8.2143
 Traceless Quadrupole moment (field-independent basis, Debye-Ang):
   XX=             47.5909   YY=             -2.4071   ZZ=            -45.1839
   XY=             -5.5306   XZ=              5.8182   YZ=             -8.2143
 Octapole moment (field-independent basis, Debye-Ang**2):
  XXX=            -27.6255  YYY=            141.6877  ZZZ=             -0.8692  XYY=            107.7922
  XXY=            -82.0504  XXZ=            -46.4505  XZZ=             28.7050  YZZ=             28.6178
  YYZ=             32.6740  XYZ=             61.8950
 Hexadecapole moment (field-independent basis, Debye-Ang**3):
 XXXX=         -14102.2521 YYYY=          -7393.5415 ZZZZ=          -3472.4228 XXXY=            494.4008
 XXXZ=            -10.1187 YYYX=           -235.5065 YYYZ=           -110.7866 ZZZX=             27.7576
 ZZZY=             14.9241 XXYY=          -3418.3183 XXZZ=          -3670.8880 YYZZ=          -1822.3810
 XXYZ=            111.3652 YYXZ=            233.5014 ZZXY=              4.4457
 N-N= 5.450930352851D+03 E-N=-1.568275439562D+04  KE= 2.037774593023D+03
 No NMR shielding tensors so no spin-rotation constants.
 Leave Link  601 at Fri Jan 26 18:58:15 2018, MaxMem=  4294967296 cpu:              47.5 elap:               1.7
 (Enter /share/apps/g16/l9999.exe)
 1\1\GINC-COMPUTE-0-3\SP\RwB97XD\CC-pVDZ\C23H27N17O3\SATYA\26-Jan-2018\
 0\\#p wb97xd/cc-pvdz sp scf=(maxcycles=20)\\Base pair stacking\\0,1\N,
 0,7.11786,-0.80521,-6.47105\C,0,8.56175,-0.51767,-6.57363\C,0,4.93015,
 -0.59865,-6.3785\N,0,5.1973,-1.95482,-6.25948\C,0,6.50462,-2.02499,-6.
 32\H,0,7.07936,-2.9496,-6.25909\N,0,3.81207,1.473,-6.52372\C,0,5.02142
 ,2.031,-6.6407\H,0,5.02508,3.11495,-6.74702\N,0,6.22128,1.45378,-6.646
 02\C,0,6.1041,0.12258,-6.50964\C,0,3.72778,0.13152,-6.38803\N,0,2.5214
 8,-0.42734,-6.27112\H,0,2.41168,-1.41661,-6.1686\H,0,1.68682,0.12346,-
 6.28203\H,0,8.94188,-0.99206,-7.36775\H,0,8.69977,0.46689,-6.67715\H,0
 ,9.02605,-0.8324,-5.74576\N,0,3.92613,4.42051,-3.26456\C,0,2.61812,3.9
 996,-3.26328\C,0,4.37074,5.82538,-3.36129\N,0,-0.77541,4.72581,-3.3987
 2\H,0,-1.63877,4.22232,-3.38065\H,0,-0.83239,5.72155,-3.47605\N,0,1.52
 806,4.79231,-3.34948\C,0,0.40619,4.09496,-3.32272\N,0,0.35366,2.72599,
 -3.21948\H,0,-0.54912,2.27677,-3.20649\C,0,1.46246,1.89032,-3.12957\O,
 0,1.30546,0.66638,-3.03986\C,0,2.675,2.62509,-3.15705\N,0,3.99221,2.19
 18,-3.09292\C,0,4.69709,3.28855,-3.16\H,0,5.78665,3.3288,-3.13738\H,0,
 4.93867,5.94169,-4.17537\H,0,3.57183,6.42192,-3.42565\H,0,4.90032,6.06
 584,-2.54855\H,0,-5.30943,0.607,-3.84208\H,0,-5.27449,0.46922,-2.08582
 \H,0,-4.33929,1.73061,-2.88935\H,0,-2.80814,-3.47046,-3.32784\C,0,-2.6
 5693,-2.39402,-3.2464\O,0,-0.28977,-2.53642,-3.30466\C,0,-1.32408,-1.8
 7331,-3.23206\H,0,-0.31956,-0.09427,-3.11248\N,0,-1.24501,-0.49937,-3.
 12585\O,0,-2.12017,1.58832,-2.94466\C,0,-2.29041,0.38524,-3.03565\H,0,
 -4.72986,-1.9017,-3.16654\C,0,-3.69688,-1.55638,-3.16\C,0,-4.69245,0.7
 1271,-2.96218\N,0,-3.54429,-0.19319,-3.05609\H,0,-2.4262,6.33634,-6.86
 174\H,0,-1.13403,6.0725,-5.90113\H,0,-2.61878,6.2394,-5.24405\H,0,-1.1
 174,-0.94762,-6.31721\H,0,-2.68874,-0.30019,-6.46493\N,0,-1.70882,-0.1
 4147,-6.33931\C,0,-1.21378,1.09087,-6.20724\C,0,-1.34425,3.46339,-6.08
 142\N,0,-0.02407,3.64647,-5.91402\H,0,1.69203,2.53436,-5.77681\C,0,0.6
 1236,2.47693,-5.90822\N,0,0.11833,1.24159,-6.04035\H,0,-4.45474,4.2848
 5,-6.40123\C,0,-3.50421,3.7568,-6.32\N,0,-3.36743,2.4548,-6.38132\C,0,
 -2.00271,2.25531,-6.23142\C,0,-2.10782,5.88582,-6.02768\N,0,-2.32041,4
 .4297,-6.13959\\Version=EM64L-G16RevA.03\State=1-A\HF=-2048.7331089\RM
 SD=6.723e-09\Dipole=-3.4757791,2.2817422,-0.1685657\Quadrupole=35.5843
 853,-2.9445645,-32.6398208,0.817742,-6.4500137,7.23345\PG=C01 [X(C23H2
 7N17O3)]\\@


 THERE'S NOTHING WRONG WITH FOLLOWING A TRAIN OF THOUGHT...
 AS LONG AS IT ULTIMATELY PULLS INTO THE STATION.
 Job cpu time:       0 days  5 hours 50 minutes 26.3 seconds.
 Elapsed time:       0 days  0 hours 11 minutes 18.0 seconds.
 File lengths (MBytes):  RWF=    298 Int=      0 D2E=      0 Chk=     33 Scr=      1
 Normal termination of Gaussian 16 at Fri Jan 26 18:58:16 2018.
