 Entering Gaussian System, Link 0=g16
 Input=str60.-20.-2.0.com
 Output=str60.-20.-2.0.log
 Initial command:
 /share/apps/g16/l1.exe "/state/partition1/scr/Gau-886.inp" -scrdir="/state/partition1/scr/"
 Entering Link 1 = /share/apps/g16/l1.exe PID=       887.
  
 Copyright (c) 1988,1990,1992,1993,1995,1998,2003,2009,2016,
            Gaussian, Inc.  All Rights Reserved.
  
 This is part of the Gaussian(R) 16 program.  It is based on
 the Gaussian(R) 09 system (copyright 2009, Gaussian, Inc.),
 the Gaussian(R) 03 system (copyright 2003, Gaussian, Inc.),
 the Gaussian(R) 98 system (copyright 1998, Gaussian, Inc.),
 the Gaussian(R) 94 system (copyright 1995, Gaussian, Inc.),
 the Gaussian 92(TM) system (copyright 1992, Gaussian, Inc.),
 the Gaussian 90(TM) system (copyright 1990, Gaussian, Inc.),
 the Gaussian 88(TM) system (copyright 1988, Gaussian, Inc.),
 the Gaussian 86(TM) system (copyright 1986, Carnegie Mellon
 University), and the Gaussian 82(TM) system (copyright 1983,
 Carnegie Mellon University). Gaussian is a federally registered
 trademark of Gaussian, Inc.
  
 This software contains proprietary and confidential information,
 including trade secrets, belonging to Gaussian, Inc.
  
 This software is provided under written license and may be
 used, copied, transmitted, or stored only in accord with that
 written license.
  
 The following legend is applicable only to US Government
 contracts under FAR:
  
                    RESTRICTED RIGHTS LEGEND
  
 Use, reproduction and disclosure by the US Government is
 subject to restrictions as set forth in subparagraphs (a)
 and (c) of the Commercial Computer Software - Restricted
 Rights clause in FAR 52.227-19.
  
 Gaussian, Inc.
 340 Quinnipiac St., Bldg. 40, Wallingford CT 06492
  
  
 ---------------------------------------------------------------
 Warning -- This program may not be used in any manner that
 competes with the business of Gaussian, Inc. or will provide
 assistance to any competitor of Gaussian, Inc.  The licensee
 of this program is prohibited from giving any competitor of
 Gaussian, Inc. access to this program.  By using this program,
 the user acknowledges that Gaussian, Inc. is engaged in the
 business of creating and licensing software in the field of
 computational chemistry and represents and warrants to the
 licensee that it is not a competitor of Gaussian, Inc. and that
 it will not use this program in any manner prohibited above.
 ---------------------------------------------------------------
  

 Cite this work as:
 Gaussian 16, Revision A.03,
 M. J. Frisch, G. W. Trucks, H. B. Schlegel, G. E. Scuseria, 
 M. A. Robb, J. R. Cheeseman, G. Scalmani, V. Barone, 
 G. A. Petersson, H. Nakatsuji, X. Li, M. Caricato, A. V. Marenich, 
 J. Bloino, B. G. Janesko, R. Gomperts, B. Mennucci, H. P. Hratchian, 
 J. V. Ortiz, A. F. Izmaylov, J. L. Sonnenberg, D. Williams-Young, 
 F. Ding, F. Lipparini, F. Egidi, J. Goings, B. Peng, A. Petrone, 
 T. Henderson, D. Ranasinghe, V. G. Zakrzewski, J. Gao, N. Rega, 
 G. Zheng, W. Liang, M. Hada, M. Ehara, K. Toyota, R. Fukuda, 
 J. Hasegawa, M. Ishida, T. Nakajima, Y. Honda, O. Kitao, H. Nakai, 
 T. Vreven, K. Throssell, J. A. Montgomery, Jr., J. E. Peralta, 
 F. Ogliaro, M. J. Bearpark, J. J. Heyd, E. N. Brothers, K. N. Kudin, 
 V. N. Staroverov, T. A. Keith, R. Kobayashi, J. Normand, 
 K. Raghavachari, A. P. Rendell, J. C. Burant, S. S. Iyengar, 
 J. Tomasi, M. Cossi, J. M. Millam, M. Klene, C. Adamo, R. Cammi, 
 J. W. Ochterski, R. L. Martin, K. Morokuma, O. Farkas, 
 J. B. Foresman, and D. J. Fox, Gaussian, Inc., Wallingford CT, 2016.
 
 ******************************************
 Gaussian 16:  EM64L-G16RevA.03 25-Dec-2016
                27-Jan-2018 
 ******************************************
 %nprocshared=32
 Will use up to   32 processors via shared memory.
 %mem=32GB
 %chk=allatoms_t.chk
 ---------------------------------------
 #p wb97xd/cc-pvdz sp scf=(maxcycles=20)
 ---------------------------------------
 1/38=1,172=1/1;
 2/12=2,17=6,18=5,40=1/2;
 3/5=16,11=2,25=1,30=1,74=-58/1,2,3;
 4//1;
 5/5=2,7=20,38=5/2;
 6/7=2,8=2,9=2,10=2,28=1/1;
 99/5=1,9=1/99;
 Leave Link    1 at Sat Jan 27 06:52:34 2018, MaxMem=  4294967296 cpu:               2.7 elap:               0.1
 (Enter /share/apps/g16/l101.exe)
 ------------------
 Base pair stacking
 ------------------
 Symbolic Z-matrix:
 Charge =  0 Multiplicity = 1
 N                     6.41209   1.22156  -9.08873 
 C                     7.81604   1.51619  -9.43534 
 C                     4.34727   1.38017  -8.34801 
 N                     4.47015   0.10695  -8.88517 
 C                     5.70921   0.06235  -9.30993 
 H                     6.16714  -0.79925  -9.79664 
 N                     3.48294   3.31344  -7.30957 
 C                     4.68964   3.85901  -7.49343 
 H                     4.79841   4.88023  -7.13074 
 N                     5.77705   3.33495  -8.05539 
 C                     5.53609   2.07893  -8.46622 
 C                     3.27234   2.04828  -7.73394 
 N                     2.06845   1.50194  -7.5513 
 H                     1.86774   0.56817  -7.84964 
 H                     1.32653   2.00711  -7.11029 
 H                     7.94082   1.43463  -10.42426 
 H                     8.04319   2.44599  -9.14725 
 H                     8.41936   0.86823  -8.97043 
 N                     3.82037   5.25789  -3.74581 
 C                     2.54341   4.83305  -3.46845 
 C                     4.27091   6.6642   -3.74666 
 N                    -0.74584   5.54923  -2.61424 
 H                    -1.59166   5.04313  -2.44788 
 H                    -0.78824   6.54489  -2.52708 
 N                     1.49415   5.62259  -3.15264 
 C                     0.39451   4.92185  -2.93966 
 N                     0.32558   3.5526   -3.02863 
 H                    -0.55784   3.10066  -2.84895 
 C                     1.3925    2.72016  -3.35204 
 O                     1.22391   1.49564  -3.40562 
 C                     2.58076   3.45859  -3.58364 
 N                     3.85552   3.02918  -3.92641 
 C                     4.55502   4.12813  -4.01147 
 H                     5.61467   4.17163  -4.26548 
 H                     4.6146    6.90529  -4.65361 
 H                     3.5021    7.25842  -3.51405 
 H                     4.99872   6.78319  -3.07216 
 H                    -5.37384   1.51441  -2.47113 
 H                    -4.89428   1.11439  -0.82351 
 H                    -4.15573   2.48832  -1.64706 
 H                    -2.9587   -2.57762  -3.22542 
 C                    -2.75663  -1.52469  -3.0286 
 O                    -0.48949  -1.64128  -3.71678 
 C                    -1.44841  -1.00337  -3.2828 
 H                    -0.38933   0.74397  -3.16682 
 N                    -1.29997   0.33947  -2.99998 
 O                    -2.03084   2.37044  -2.29415 
 C                    -2.25787   1.19363  -2.51379 
 H                    -4.72259  -1.0635   -2.34441 
 C                    -3.71176  -0.71636  -2.55434 
 C                    -4.54877   1.49066  -1.77488 
 N                    -3.49325   0.61668  -2.29429 
 H                    -2.03253   7.87268  -3.92205 
 H                    -0.59324   7.20737  -3.53744 
 H                    -1.85283   7.0791   -2.50736 
 H                    -1.51627   1.07644  -6.85635 
 H                    -2.98942   1.73283  -6.30041 
 N                    -1.99545   1.81464  -6.3814 
 C                    -1.33912   2.86203  -5.87804 
 C                    -1.15111   4.94128  -4.73651 
 N                     0.18388   5.02463  -4.86016 
 H                     1.73854   3.9541   -5.65865 
 C                     0.65911   3.96651  -5.51394 
 N                     0.00338   2.91645  -6.01887 
 H                    -4.1288    5.83883  -3.85337 
 C                    -3.25593   5.32265  -4.25411 
 N                    -3.29441   4.17782  -4.89094 
 C                    -1.96641   3.92454  -5.20239 
 C                    -1.58486   7.10079  -3.47063 
 N                    -1.99077   5.84163  -4.12466 
 
 ITRead=  0  0  0  0  0  0  0  0  0  0  0  0  0  0  0  0  0  0  0  0
 ITRead=  0  0  0  0  0  0  0  0  0  0  0  0  0  0  0  0  0  0  0  0
 ITRead=  0  0  0  0  0  0  0  0  0  0  0  0  0  0  0  0  0  0  0  0
 ITRead=  0  0  0  0  0  0  0  0  0  0
 MicOpt= -1 -1 -1 -1 -1 -1 -1 -1 -1 -1 -1 -1 -1 -1 -1 -1 -1 -1 -1 -1
 MicOpt= -1 -1 -1 -1 -1 -1 -1 -1 -1 -1 -1 -1 -1 -1 -1 -1 -1 -1 -1 -1
 MicOpt= -1 -1 -1 -1 -1 -1 -1 -1 -1 -1 -1 -1 -1 -1 -1 -1 -1 -1 -1 -1
 MicOpt= -1 -1 -1 -1 -1 -1 -1 -1 -1 -1
 NAtoms=     70 NQM=       70 NQMF=       0 NMMI=      0 NMMIF=      0
                NMic=       0 NMicF=      0.
                    Isotopes and Nuclear Properties:
 (Nuclear quadrupole moments (NQMom) in fm**2, nuclear magnetic moments (NMagM)
  in nuclear magnetons)

  Atom         1           2           3           4           5           6           7           8           9          10
 IAtWgt=          14          12          12          14          12           1          14          12           1          14
 AtmWgt=  14.0030740  12.0000000  12.0000000  14.0030740  12.0000000   1.0078250  14.0030740  12.0000000   1.0078250  14.0030740
 NucSpn=           2           0           0           2           0           1           2           0           1           2
 AtZEff=  -0.0000000  -0.0000000  -0.0000000  -0.0000000  -0.0000000  -0.0000000  -0.0000000  -0.0000000  -0.0000000  -0.0000000
 NQMom=    2.0440000   0.0000000   0.0000000   2.0440000   0.0000000   0.0000000   2.0440000   0.0000000   0.0000000   2.0440000
 NMagM=    0.4037610   0.0000000   0.0000000   0.4037610   0.0000000   2.7928460   0.4037610   0.0000000   2.7928460   0.4037610
 AtZNuc=   7.0000000   6.0000000   6.0000000   7.0000000   6.0000000   1.0000000   7.0000000   6.0000000   1.0000000   7.0000000

  Atom        11          12          13          14          15          16          17          18          19          20
 IAtWgt=          12          12          14           1           1           1           1           1          14          12
 AtmWgt=  12.0000000  12.0000000  14.0030740   1.0078250   1.0078250   1.0078250   1.0078250   1.0078250  14.0030740  12.0000000
 NucSpn=           0           0           2           1           1           1           1           1           2           0
 AtZEff=  -0.0000000  -0.0000000  -0.0000000  -0.0000000  -0.0000000  -0.0000000  -0.0000000  -0.0000000  -0.0000000  -0.0000000
 NQMom=    0.0000000   0.0000000   2.0440000   0.0000000   0.0000000   0.0000000   0.0000000   0.0000000   2.0440000   0.0000000
 NMagM=    0.0000000   0.0000000   0.4037610   2.7928460   2.7928460   2.7928460   2.7928460   2.7928460   0.4037610   0.0000000
 AtZNuc=   6.0000000   6.0000000   7.0000000   1.0000000   1.0000000   1.0000000   1.0000000   1.0000000   7.0000000   6.0000000

  Atom        21          22          23          24          25          26          27          28          29          30
 IAtWgt=          12          14           1           1          14          12          14           1          12          16
 AtmWgt=  12.0000000  14.0030740   1.0078250   1.0078250  14.0030740  12.0000000  14.0030740   1.0078250  12.0000000  15.9949146
 NucSpn=           0           2           1           1           2           0           2           1           0           0
 AtZEff=  -0.0000000  -0.0000000  -0.0000000  -0.0000000  -0.0000000  -0.0000000  -0.0000000  -0.0000000  -0.0000000  -0.0000000
 NQMom=    0.0000000   2.0440000   0.0000000   0.0000000   2.0440000   0.0000000   2.0440000   0.0000000   0.0000000   0.0000000
 NMagM=    0.0000000   0.4037610   2.7928460   2.7928460   0.4037610   0.0000000   0.4037610   2.7928460   0.0000000   0.0000000
 AtZNuc=   6.0000000   7.0000000   1.0000000   1.0000000   7.0000000   6.0000000   7.0000000   1.0000000   6.0000000   8.0000000

  Atom        31          32          33          34          35          36          37          38          39          40
 IAtWgt=          12          14          12           1           1           1           1           1           1           1
 AtmWgt=  12.0000000  14.0030740  12.0000000   1.0078250   1.0078250   1.0078250   1.0078250   1.0078250   1.0078250   1.0078250
 NucSpn=           0           2           0           1           1           1           1           1           1           1
 AtZEff=  -0.0000000  -0.0000000  -0.0000000  -0.0000000  -0.0000000  -0.0000000  -0.0000000  -0.0000000  -0.0000000  -0.0000000
 NQMom=    0.0000000   2.0440000   0.0000000   0.0000000   0.0000000   0.0000000   0.0000000   0.0000000   0.0000000   0.0000000
 NMagM=    0.0000000   0.4037610   0.0000000   2.7928460   2.7928460   2.7928460   2.7928460   2.7928460   2.7928460   2.7928460
 AtZNuc=   6.0000000   7.0000000   6.0000000   1.0000000   1.0000000   1.0000000   1.0000000   1.0000000   1.0000000   1.0000000

  Atom        41          42          43          44          45          46          47          48          49          50
 IAtWgt=           1          12          16          12           1          14          16          12           1          12
 AtmWgt=   1.0078250  12.0000000  15.9949146  12.0000000   1.0078250  14.0030740  15.9949146  12.0000000   1.0078250  12.0000000
 NucSpn=           1           0           0           0           1           2           0           0           1           0
 AtZEff=  -0.0000000  -0.0000000  -0.0000000  -0.0000000  -0.0000000  -0.0000000  -0.0000000  -0.0000000  -0.0000000  -0.0000000
 NQMom=    0.0000000   0.0000000   0.0000000   0.0000000   0.0000000   2.0440000   0.0000000   0.0000000   0.0000000   0.0000000
 NMagM=    2.7928460   0.0000000   0.0000000   0.0000000   2.7928460   0.4037610   0.0000000   0.0000000   2.7928460   0.0000000
 AtZNuc=   1.0000000   6.0000000   8.0000000   6.0000000   1.0000000   7.0000000   8.0000000   6.0000000   1.0000000   6.0000000

  Atom        51          52          53          54          55          56          57          58          59          60
 IAtWgt=          12          14           1           1           1           1           1          14          12          12
 AtmWgt=  12.0000000  14.0030740   1.0078250   1.0078250   1.0078250   1.0078250   1.0078250  14.0030740  12.0000000  12.0000000
 NucSpn=           0           2           1           1           1           1           1           2           0           0
 AtZEff=  -0.0000000  -0.0000000  -0.0000000  -0.0000000  -0.0000000  -0.0000000  -0.0000000  -0.0000000  -0.0000000  -0.0000000
 NQMom=    0.0000000   2.0440000   0.0000000   0.0000000   0.0000000   0.0000000   0.0000000   2.0440000   0.0000000   0.0000000
 NMagM=    0.0000000   0.4037610   2.7928460   2.7928460   2.7928460   2.7928460   2.7928460   0.4037610   0.0000000   0.0000000
 AtZNuc=   6.0000000   7.0000000   1.0000000   1.0000000   1.0000000   1.0000000   1.0000000   7.0000000   6.0000000   6.0000000

  Atom        61          62          63          64          65          66          67          68          69          70
 IAtWgt=          14           1          12          14           1          12          14          12          12          14
 AtmWgt=  14.0030740   1.0078250  12.0000000  14.0030740   1.0078250  12.0000000  14.0030740  12.0000000  12.0000000  14.0030740
 NucSpn=           2           1           0           2           1           0           2           0           0           2
 AtZEff=  -0.0000000  -0.0000000  -0.0000000  -0.0000000  -0.0000000  -0.0000000  -0.0000000  -0.0000000  -0.0000000  -0.0000000
 NQMom=    2.0440000   0.0000000   0.0000000   2.0440000   0.0000000   0.0000000   2.0440000   0.0000000   0.0000000   2.0440000
 NMagM=    0.4037610   2.7928460   0.0000000   0.4037610   2.7928460   0.0000000   0.4037610   0.0000000   0.0000000   0.4037610
 AtZNuc=   7.0000000   1.0000000   6.0000000   7.0000000   1.0000000   6.0000000   7.0000000   6.0000000   6.0000000   7.0000000
 Leave Link  101 at Sat Jan 27 06:52:34 2018, MaxMem=  4294967296 cpu:               7.4 elap:               0.3
 (Enter /share/apps/g16/l202.exe)
 Stoichiometry    C23H27N17O3
 Framework group  C1[X(C23H27N17O3)]
 Deg. of freedom   204
 Full point group                 C1      NOp   1
 Largest Abelian subgroup         C1      NOp   1
 Largest concise Abelian subgroup C1      NOp   1
                         Standard orientation:                         
 ---------------------------------------------------------------------
 Center     Atomic      Atomic             Coordinates (Angstroms)
 Number     Number       Type             X           Y           Z
 ---------------------------------------------------------------------
      1          7           0       -6.878754   -1.637374    0.303185
      2          6           0       -8.254883   -1.213546   -0.020330
      3          6           0       -4.725769   -1.639129    0.752580
      4          7           0       -5.129487   -2.966105    0.782204
      5          6           0       -6.410424   -2.911940    0.510276
      6          1           0       -7.068122   -3.779367    0.447469
      7          7           0       -3.417430    0.320517    0.857434
      8          6           0       -4.536471    0.991774    0.566337
      9          1           0       -4.425363    2.073012    0.496735
     10          7           0       -5.766374    0.530105    0.349311
     11          6           0       -5.793059   -0.808466    0.458601
     12          6           0       -3.477252   -1.025176    0.960414
     13          7           0       -2.361260   -1.697012    1.250921
     14          1           0       -2.358971   -2.693913    1.336944
     15          1           0       -1.489929   -1.227016    1.392408
     16          1           0       -8.873789   -1.499038    0.711540
     17          1           0       -8.285169   -0.218660   -0.112015
     18          1           0       -8.542057   -1.634766   -0.880617
     19          7           0       -1.833614    3.058390   -1.709802
     20          6           0       -0.604131    2.513524   -1.427779
     21          6           0       -2.196483    4.479835   -1.540935
     22          7           0        2.665013    2.881317   -0.314593
     23          1           0        3.466699    2.300580   -0.175780
     24          1           0        2.762827    3.851117   -0.089530
     25          7           0        0.470385    3.179777   -0.952827
     26          6           0        1.510233    2.382929   -0.781493
     27          7           0        1.500610    1.036362   -1.053850
     28          1           0        2.342264    0.504809   -0.892497
     29          6           0        0.406338    0.329927   -1.543122
     30          8           0        0.502716   -0.885128   -1.755479
     31          6           0       -0.718374    1.172615   -1.732271
     32          7           0       -1.993910    0.881514   -2.196131
     33          6           0       -2.618511    2.027449   -2.165586
     34          1           0       -3.656202    2.177246   -2.465635
     35          1           0       -2.955132    4.557430   -0.894996
     36          1           0       -1.408281    4.983379   -1.189573
     37          1           0       -2.469290    4.862958   -2.422756
     38          1           0        6.634366   -1.687943    0.726914
     39          1           0        7.068064   -1.619252   -0.979495
     40          1           0        6.033196   -0.372339   -0.282623
     41          1           0        4.109262   -5.412937   -0.974507
     42          6           0        4.055353   -4.324626   -0.944396
     43          8           0        1.756980   -4.238719   -1.525094
     44          6           0        2.812666   -3.676864   -1.234164
     45          1           0        1.994778   -1.805558   -1.366715
     46          7           0        2.853891   -2.298752   -1.168212
     47          8           0        3.877811   -0.300567   -0.827547
     48          6           0        3.939252   -1.517029   -0.860894
     49          1           0        6.099518   -4.033162   -0.413125
     50          6           0        5.131421   -3.589230   -0.641308
     51          6           0        6.287157   -1.421696   -0.260318
     52          7           0        5.100733   -2.214760   -0.593784
     53          1           0        3.129714    4.611626    2.042193
     54          1           0        2.085057    4.286481    0.831784
     55          1           0        3.693322    4.201804    0.566456
     56          1           0        1.059685   -2.508828    2.324378
     57          1           0        2.618926   -1.981935    2.772974
     58          7           0        1.727458   -1.765974    2.373131
     59          6           0        1.442849   -0.541442    1.925151
     60          6           0        1.905877    1.747168    1.467343
     61          7           0        0.700435    2.008329    0.935234
     62          1           0       -1.060719    1.040777    0.531785
     63          6           0       -0.061614    0.916529    0.947256
     64          7           0        0.221626   -0.310833    1.395496
     65          1           0        4.926222    2.344703    2.453567
     66          6           0        3.963391    1.893907    2.211332
     67          7           0        3.648477    0.642103    2.438234
     68          6           0        2.346453    0.535733    1.971164
     69          6           0        2.966780    4.043843    1.235300
     70          7           0        2.955667    2.620621    1.625581
 ---------------------------------------------------------------------
 Rotational constants (GHZ):           0.1233746           0.0560734           0.0458942
 Leave Link  202 at Sat Jan 27 06:52:34 2018, MaxMem=  4294967296 cpu:               0.3 elap:               0.0
 (Enter /share/apps/g16/l301.exe)
 Standard basis: CC-pVDZ (5D, 7F)
 Ernie: Thresh=  0.10000D-02 Tol=  0.10000D-05 Strict=F.
 Ernie:  86 primitive shells out of 1081 were deleted.
 There are   780 symmetry adapted cartesian basis functions of A   symmetry.
 There are   737 symmetry adapted basis functions of A   symmetry.
   737 basis functions,  1608 primitive gaussians,   780 cartesian basis functions
   154 alpha electrons      154 beta electrons
       nuclear repulsion energy      5499.8044437681 Hartrees.
 IExCor= 4639 DFT=T Ex+Corr=wB97XD ExCW=0 ScaHFX=  1.000000
 ScaDFX=  1.000000  1.000000  1.000000  1.000000 ScalE2=  1.000000  1.000000
 IRadAn=      5 IRanWt=     -1 IRanGd=            0 ICorTp=0 IEmpDi=121
 HFx  wShort=  0.000000 wLong=  0.200000 cFull=  0.222036 cShort=  0.000000 cLong=  0.777964
 DFx  wShort=  0.000000 wLong=  0.200000 cFull=  0.000000 cShort=  0.000000 cLong=  1.000000
 NAtoms=   70 NActive=   70 NUniq=   70 SFac= 1.00D+00 NAtFMM=   60 NAOKFM=T Big=T
 Integral buffers will be    131072 words long.
 Raffenetti 2 integral format.
 Two-electron integral symmetry is turned on.
 R6Disp:  Grimme-D2 Dispersion energy=       -0.0682904688 Hartrees.
 Nuclear repulsion after empirical dispersion term =     5499.7361532993 Hartrees.
 Leave Link  301 at Sat Jan 27 06:52:35 2018, MaxMem=  4294967296 cpu:               2.1 elap:               0.1
 (Enter /share/apps/g16/l302.exe)
 NPDir=0 NMtPBC=     1 NCelOv=     1 NCel=       1 NClECP=     1 NCelD=      1
         NCelK=      1 NCelE2=     1 NClLst=     1 CellRange=     0.0.
 One-electron integrals computed using PRISM.
 One-electron integral symmetry used in STVInt
 NBasis=   737 RedAO= T EigKep=  6.38D-04  NBF=   737
 NBsUse=   737 1.00D-06 EigRej= -1.00D+00 NBFU=   737
 Precomputing XC quadrature grid using
 IXCGrd= 4 IRadAn=           5 IRanWt=          -1 IRanGd=           0 AccXCQ= 0.00D+00.
 Generated NRdTot=       0 NPtTot=           0 NUsed=           0 NTot=          32
 NSgBfM=   764   763   764   764   764 MxSgAt=    70 MxSgA2=    70.
 Leave Link  302 at Sat Jan 27 06:52:39 2018, MaxMem=  4294967296 cpu:             133.4 elap:               4.2
 (Enter /share/apps/g16/l303.exe)
 DipDrv:  MaxL=1.
 Leave Link  303 at Sat Jan 27 06:52:39 2018, MaxMem=  4294967296 cpu:              12.5 elap:               0.4
 (Enter /share/apps/g16/l401.exe)
 ExpMin= 1.22D-01 ExpMax= 1.17D+04 ExpMxC= 4.01D+02 IAcc=3 IRadAn=         5 AccDes= 0.00D+00
 Harris functional with IExCor= 4639 and IRadAn=       5 diagonalized for initial guess.
 HarFok:  IExCor= 4639 AccDes= 0.00D+00 IRadAn=         5 IDoV= 1 UseB2=F ITyADJ=14
 ICtDFT=  3500011 ScaDFX=  1.000000  1.000000  1.000000  1.000000
 FoFCou: FMM=F IPFlag=           0 FMFlag=      100000 FMFlg1=        2001
         NFxFlg=           0 DoJE=T BraDBF=F KetDBF=T FulRan=T
         wScrn=  0.000000 ICntrl=       500 IOpCl=  0 I1Cent=   200000004 NGrid=           0
         NMat0=    1 NMatS0=      1 NMatT0=    0 NMatD0=    1 NMtDS0=    0 NMtDT0=    0
 Petite list used in FoFCou.
 Harris En= -1963.52180947127    
 JPrj=0 DoOrth=F DoCkMO=F.
 Leave Link  401 at Sat Jan 27 06:52:52 2018, MaxMem=  4294967296 cpu:             405.8 elap:              12.8
 (Enter /share/apps/g16/l502.exe)
 Integral symmetry usage will be decided dynamically.
 Closed shell SCF:
 Using DIIS extrapolation, IDIIS=  1040.
 NGot=  4294967296 LenX=  4293717438 LenY=  4293108258
 Requested convergence on RMS density matrix=1.00D-08 within  20 cycles.
 Requested convergence on MAX density matrix=1.00D-06.
 Requested convergence on             energy=1.00D-06.
 No special actions if energy rises.
 Fock matrices will be formed incrementally for  20 cycles.
 Integral accuracy reduced to 1.0D-05 until final iterations.

 Cycle   1  Pass 0  IDiag  1:
 FoFJK:  IHMeth= 1 ICntrl=       0 DoSepK=T KAlg= 0 I1Cent=           0 FoldK=F
 IRaf=         1 NMat=       1 IRICut=       1 DoRegI=T DoRafI=F ISym2E= 0 IDoP0=0 IntGTp=1.
 FoFCou: FMM=T IPFlag=           0 FMFlag=      100000 FMFlg1=        2001
         NFxFlg=           0 DoJE=T BraDBF=F KetDBF=F FulRan=T
         wScrn=  0.000000 ICntrl=       500 IOpCl=  0 I1Cent=           0 NGrid=           0
         NMat0=    1 NMatS0=      1 NMatT0=    0 NMatD0=    1 NMtDS0=    0 NMtDT0=    0
 Symmetry not used in FoFCou.
 FMM levels:  10  Number of levels for PrismC:   9
 E= -2047.98483980209    
 DIIS: error= 2.41D-02 at cycle   1 NSaved=   1.
 NSaved= 1 IEnMin= 1 EnMin= -2047.98483980209     IErMin= 1 ErrMin= 2.41D-02
 ErrMax= 2.41D-02  0.00D+00 EMaxC= 1.00D-01 BMatC= 8.43D-01 BMatP= 8.43D-01
 IDIUse=3 WtCom= 7.59D-01 WtEn= 2.41D-01
 Coeff-Com:  0.100D+01
 Coeff-En:   0.100D+01
 Coeff:      0.100D+01
 Gap=     0.271 Goal=   None    Shift=    0.000
 GapD=    0.271 DampG=1.000 DampE=0.500 DampFc=0.5000 IDamp=-1.
 Damping current iteration by 5.00D-01
 RMSDP=1.69D-03 MaxDP=1.29D-01              OVMax= 2.13D-01

 Cycle   2  Pass 0  IDiag  1:
 RMSU=  8.45D-04    CP:  9.97D-01
 E= -2048.18456747540     Delta-E=       -0.199727673309 Rises=F Damp=T
 DIIS: error= 1.35D-02 at cycle   2 NSaved=   2.
 NSaved= 2 IEnMin= 2 EnMin= -2048.18456747540     IErMin= 2 ErrMin= 1.35D-02
 ErrMax= 1.35D-02  0.00D+00 EMaxC= 1.00D-01 BMatC= 1.47D-01 BMatP= 8.43D-01
 IDIUse=3 WtCom= 8.65D-01 WtEn= 1.35D-01
 Coeff-Com: -0.171D+00 0.117D+01
 Coeff-En:   0.000D+00 0.100D+01
 Coeff:     -0.148D+00 0.115D+01
 Gap=     0.314 Goal=   None    Shift=    0.000
 RMSDP=6.19D-04 MaxDP=3.39D-02 DE=-2.00D-01 OVMax= 1.51D-01

 Cycle   3  Pass 0  IDiag  1:
 RMSU=  6.11D-04    CP:  9.93D-01  1.10D+00
 E= -2048.37190846049     Delta-E=       -0.187340985092 Rises=F Damp=F
 DIIS: error= 8.61D-03 at cycle   3 NSaved=   3.
 NSaved= 3 IEnMin= 3 EnMin= -2048.37190846049     IErMin= 3 ErrMin= 8.61D-03
 ErrMax= 8.61D-03  0.00D+00 EMaxC= 1.00D-01 BMatC= 6.66D-02 BMatP= 1.47D-01
 IDIUse=3 WtCom= 9.14D-01 WtEn= 8.61D-02
 Coeff-Com: -0.225D+00 0.541D+00 0.684D+00
 Coeff-En:   0.000D+00 0.000D+00 0.100D+01
 Coeff:     -0.205D+00 0.494D+00 0.711D+00
 Gap=     0.264 Goal=   None    Shift=    0.000
 RMSDP=3.96D-04 MaxDP=3.21D-02 DE=-1.87D-01 OVMax= 6.86D-02

 Cycle   4  Pass 0  IDiag  1:
 RMSU=  2.26D-04    CP:  9.93D-01  1.41D+00  6.70D-01
 E= -2048.42095898814     Delta-E=       -0.049050527642 Rises=F Damp=F
 DIIS: error= 3.23D-03 at cycle   4 NSaved=   4.
 NSaved= 4 IEnMin= 4 EnMin= -2048.42095898814     IErMin= 4 ErrMin= 3.23D-03
 ErrMax= 3.23D-03  0.00D+00 EMaxC= 1.00D-01 BMatC= 1.12D-02 BMatP= 6.66D-02
 IDIUse=3 WtCom= 9.68D-01 WtEn= 3.23D-02
 Coeff-Com: -0.948D-01 0.184D+00 0.392D+00 0.519D+00
 Coeff-En:   0.000D+00 0.000D+00 0.101D+00 0.899D+00
 Coeff:     -0.917D-01 0.178D+00 0.382D+00 0.531D+00
 Gap=     0.259 Goal=   None    Shift=    0.000
 RMSDP=1.47D-04 MaxDP=1.12D-02 DE=-4.91D-02 OVMax= 1.82D-02

 Cycle   5  Pass 0  IDiag  1:
 RMSU=  6.83D-05    CP:  9.93D-01  1.37D+00  8.14D-01  6.00D-01
 E= -2048.43027622079     Delta-E=       -0.009317232652 Rises=F Damp=F
 DIIS: error= 4.94D-04 at cycle   5 NSaved=   5.
 NSaved= 5 IEnMin= 5 EnMin= -2048.43027622079     IErMin= 5 ErrMin= 4.94D-04
 ErrMax= 4.94D-04  0.00D+00 EMaxC= 1.00D-01 BMatC= 3.63D-04 BMatP= 1.12D-02
 IDIUse=3 WtCom= 9.95D-01 WtEn= 4.94D-03
 Coeff-Com: -0.257D-01 0.439D-01 0.132D+00 0.242D+00 0.608D+00
 Coeff-En:   0.000D+00 0.000D+00 0.000D+00 0.000D+00 0.100D+01
 Coeff:     -0.256D-01 0.437D-01 0.131D+00 0.241D+00 0.610D+00
 Gap=     0.259 Goal=   None    Shift=    0.000
 RMSDP=3.29D-05 MaxDP=2.16D-03 DE=-9.32D-03 OVMax= 5.76D-03

 Failed to achieve initial convergence to 1.0D-08 in  6 cycles.
 Switch to full accuracy anyway.
 Cycle   6  Pass 1  IDiag  1:
 E= -2048.43084038124     Delta-E=       -0.000564160450 Rises=F Damp=F
 DIIS: error= 2.21D-04 at cycle   1 NSaved=   1.
 NSaved= 1 IEnMin= 1 EnMin= -2048.43084038124     IErMin= 1 ErrMin= 2.21D-04
 ErrMax= 2.21D-04  0.00D+00 EMaxC= 1.00D-01 BMatC= 8.76D-05 BMatP= 8.76D-05
 IDIUse=3 WtCom= 9.98D-01 WtEn= 2.21D-03
 Coeff-Com:  0.100D+01
 Coeff-En:   0.100D+01
 Coeff:      0.100D+01
 Gap=     0.259 Goal=   None    Shift=    0.000
 RMSDP=3.29D-05 MaxDP=2.16D-03 DE=-5.64D-04 OVMax= 3.31D-03

 Cycle   7  Pass 1  IDiag  1:
 RMSU=  1.07D-04    CP:  1.00D+00
 E= -2048.43088590731     Delta-E=       -0.000045526068 Rises=F Damp=F
 DIIS: error= 1.84D-04 at cycle   2 NSaved=   2.
 NSaved= 2 IEnMin= 2 EnMin= -2048.43088590731     IErMin= 2 ErrMin= 1.84D-04
 ErrMax= 1.84D-04  0.00D+00 EMaxC= 1.00D-01 BMatC= 7.49D-05 BMatP= 8.76D-05
 IDIUse=3 WtCom= 9.98D-01 WtEn= 1.84D-03
 Coeff-Com:  0.475D+00 0.525D+00
 Coeff-En:   0.252D+00 0.748D+00
 Coeff:      0.474D+00 0.526D+00
 Gap=     0.260 Goal=   None    Shift=    0.000
 RMSDP=1.57D-05 MaxDP=1.36D-03 DE=-4.55D-05 OVMax= 2.70D-03

 Cycle   8  Pass 1  IDiag  1:
 RMSU=  1.57D-05    CP:  1.00D+00  1.01D+00
 E= -2048.43094656700     Delta-E=       -0.000060659695 Rises=F Damp=F
 DIIS: error= 6.74D-05 at cycle   3 NSaved=   3.
 NSaved= 3 IEnMin= 3 EnMin= -2048.43094656700     IErMin= 3 ErrMin= 6.74D-05
 ErrMax= 6.74D-05  0.00D+00 EMaxC= 1.00D-01 BMatC= 1.08D-05 BMatP= 7.49D-05
 IDIUse=1 WtCom= 1.00D+00 WtEn= 0.00D+00
 Coeff-Com: -0.181D-01 0.257D+00 0.761D+00
 Coeff:     -0.181D-01 0.257D+00 0.761D+00
 Gap=     0.259 Goal=   None    Shift=    0.000
 RMSDP=6.79D-06 MaxDP=3.50D-04 DE=-6.07D-05 OVMax= 9.77D-04

 Cycle   9  Pass 1  IDiag  1:
 RMSU=  4.83D-06    CP:  1.00D+00  1.05D+00  8.17D-01
 E= -2048.43095837064     Delta-E=       -0.000011803641 Rises=F Damp=F
 DIIS: error= 3.95D-05 at cycle   4 NSaved=   4.
 NSaved= 4 IEnMin= 4 EnMin= -2048.43095837064     IErMin= 4 ErrMin= 3.95D-05
 ErrMax= 3.95D-05  0.00D+00 EMaxC= 1.00D-01 BMatC= 8.23D-07 BMatP= 1.08D-05
 IDIUse=1 WtCom= 1.00D+00 WtEn= 0.00D+00
 Coeff-Com: -0.398D-01 0.723D-01 0.305D+00 0.662D+00
 Coeff:     -0.398D-01 0.723D-01 0.305D+00 0.662D+00
 Gap=     0.260 Goal=   None    Shift=    0.000
 RMSDP=2.02D-06 MaxDP=1.25D-04 DE=-1.18D-05 OVMax= 4.78D-04

 Cycle  10  Pass 1  IDiag  1:
 RMSU=  1.68D-06    CP:  1.00D+00  1.05D+00  8.61D-01  1.16D+00
 E= -2048.43095977630     Delta-E=       -0.000001405654 Rises=F Damp=F
 DIIS: error= 1.28D-05 at cycle   5 NSaved=   5.
 NSaved= 5 IEnMin= 5 EnMin= -2048.43095977630     IErMin= 5 ErrMin= 1.28D-05
 ErrMax= 1.28D-05  0.00D+00 EMaxC= 1.00D-01 BMatC= 1.68D-07 BMatP= 8.23D-07
 IDIUse=1 WtCom= 1.00D+00 WtEn= 0.00D+00
 Coeff-Com: -0.539D-02-0.472D-01-0.135D+00 0.184D+00 0.100D+01
 Coeff:     -0.539D-02-0.472D-01-0.135D+00 0.184D+00 0.100D+01
 Gap=     0.260 Goal=   None    Shift=    0.000
 RMSDP=1.73D-06 MaxDP=7.88D-05 DE=-1.41D-06 OVMax= 4.19D-04

 Cycle  11  Pass 1  IDiag  1:
 RMSU=  6.39D-07    CP:  1.00D+00  1.05D+00  8.73D-01  1.47D+00  1.25D+00
 E= -2048.43096023493     Delta-E=       -0.000000458629 Rises=F Damp=F
 DIIS: error= 9.35D-06 at cycle   6 NSaved=   6.
 NSaved= 6 IEnMin= 6 EnMin= -2048.43096023493     IErMin= 6 ErrMin= 9.35D-06
 ErrMax= 9.35D-06  0.00D+00 EMaxC= 1.00D-01 BMatC= 4.93D-08 BMatP= 1.68D-07
 IDIUse=1 WtCom= 1.00D+00 WtEn= 0.00D+00
 Coeff-Com:  0.546D-02-0.388D-01-0.135D+00-0.161D-01 0.555D+00 0.630D+00
 Coeff:      0.546D-02-0.388D-01-0.135D+00-0.161D-01 0.555D+00 0.630D+00
 Gap=     0.260 Goal=   None    Shift=    0.000
 RMSDP=5.89D-07 MaxDP=3.87D-05 DE=-4.59D-07 OVMax= 1.52D-04

 Cycle  12  Pass 1  IDiag  1:
 RMSU=  2.68D-07    CP:  1.00D+00  1.05D+00  8.77D-01  1.57D+00  1.41D+00
                    CP:  9.65D-01
 E= -2048.43096031003     Delta-E=       -0.000000075109 Rises=F Damp=F
 DIIS: error= 1.64D-06 at cycle   7 NSaved=   7.
 NSaved= 7 IEnMin= 7 EnMin= -2048.43096031003     IErMin= 7 ErrMin= 1.64D-06
 ErrMax= 1.64D-06  0.00D+00 EMaxC= 1.00D-01 BMatC= 1.55D-09 BMatP= 4.93D-08
 IDIUse=1 WtCom= 1.00D+00 WtEn= 0.00D+00
 Coeff-Com:  0.155D-02-0.698D-02-0.274D-01-0.138D-01 0.789D-01 0.141D+00
 Coeff-Com:  0.827D+00
 Coeff:      0.155D-02-0.698D-02-0.274D-01-0.138D-01 0.789D-01 0.141D+00
 Coeff:      0.827D+00
 Gap=     0.260 Goal=   None    Shift=    0.000
 RMSDP=1.59D-07 MaxDP=6.98D-06 DE=-7.51D-08 OVMax= 5.12D-05

 Cycle  13  Pass 1  IDiag  1:
 RMSU=  8.47D-08    CP:  1.00D+00  1.05D+00  8.78D-01  1.58D+00  1.44D+00
                    CP:  1.09D+00  1.21D+00
 E= -2048.43096031457     Delta-E=       -0.000000004537 Rises=F Damp=F
 DIIS: error= 9.53D-07 at cycle   8 NSaved=   8.
 NSaved= 8 IEnMin= 8 EnMin= -2048.43096031457     IErMin= 8 ErrMin= 9.53D-07
 ErrMax= 9.53D-07  0.00D+00 EMaxC= 1.00D-01 BMatC= 7.53D-10 BMatP= 1.55D-09
 IDIUse=1 WtCom= 1.00D+00 WtEn= 0.00D+00
 Coeff-Com: -0.963D-03 0.915D-02 0.292D-01-0.517D-03-0.135D+00-0.141D+00
 Coeff-Com:  0.409D+00 0.830D+00
 Coeff:     -0.963D-03 0.915D-02 0.292D-01-0.517D-03-0.135D+00-0.141D+00
 Coeff:      0.409D+00 0.830D+00
 Gap=     0.260 Goal=   None    Shift=    0.000
 RMSDP=1.12D-07 MaxDP=4.52D-06 DE=-4.54D-09 OVMax= 3.68D-05

 Cycle  14  Pass 1  IDiag  1:
 RMSU=  4.72D-08    CP:  1.00D+00  1.05D+00  8.78D-01  1.59D+00  1.47D+00
                    CP:  1.17D+00  1.46D+00  1.23D+00
 E= -2048.43096031604     Delta-E=       -0.000000001465 Rises=F Damp=F
 DIIS: error= 3.62D-07 at cycle   9 NSaved=   9.
 NSaved= 9 IEnMin= 9 EnMin= -2048.43096031604     IErMin= 9 ErrMin= 3.62D-07
 ErrMax= 3.62D-07  0.00D+00 EMaxC= 1.00D-01 BMatC= 1.02D-10 BMatP= 7.53D-10
 IDIUse=1 WtCom= 1.00D+00 WtEn= 0.00D+00
 Coeff-Com: -0.659D-03 0.534D-02 0.174D-01 0.185D-02-0.721D-01-0.857D-01
 Coeff-Com:  0.936D-01 0.380D+00 0.661D+00
 Coeff:     -0.659D-03 0.534D-02 0.174D-01 0.185D-02-0.721D-01-0.857D-01
 Coeff:      0.936D-01 0.380D+00 0.661D+00
 Gap=     0.260 Goal=   None    Shift=    0.000
 RMSDP=3.03D-08 MaxDP=1.36D-06 DE=-1.47D-09 OVMax= 9.06D-06

 Cycle  15  Pass 1  IDiag  1:
 RMSU=  1.51D-08    CP:  1.00D+00  1.05D+00  8.78D-01  1.59D+00  1.47D+00
                    CP:  1.18D+00  1.52D+00  1.43D+00  1.14D+00
 E= -2048.43096031638     Delta-E=       -0.000000000347 Rises=F Damp=F
 DIIS: error= 1.64D-07 at cycle  10 NSaved=  10.
 NSaved=10 IEnMin=10 EnMin= -2048.43096031638     IErMin=10 ErrMin= 1.64D-07
 ErrMax= 1.64D-07  0.00D+00 EMaxC= 1.00D-01 BMatC= 1.37D-11 BMatP= 1.02D-10
 IDIUse=1 WtCom= 1.00D+00 WtEn= 0.00D+00
 Coeff-Com:  0.988D-05-0.391D-03-0.134D-02 0.300D-03 0.809D-02 0.355D-02
 Coeff-Com: -0.670D-01-0.660D-01 0.212D+00 0.911D+00
 Coeff:      0.988D-05-0.391D-03-0.134D-02 0.300D-03 0.809D-02 0.355D-02
 Coeff:     -0.670D-01-0.660D-01 0.212D+00 0.911D+00
 Gap=     0.260 Goal=   None    Shift=    0.000
 RMSDP=1.91D-08 MaxDP=8.21D-07 DE=-3.47D-10 OVMax= 6.61D-06

 Cycle  16  Pass 1  IDiag  1:
 RMSU=  6.79D-09    CP:  1.00D+00  1.05D+00  8.78D-01  1.59D+00  1.47D+00
                    CP:  1.19D+00  1.55D+00  1.54D+00  1.34D+00  1.15D+00
 E= -2048.43096031656     Delta-E=       -0.000000000178 Rises=F Damp=F
 DIIS: error= 8.91D-08 at cycle  11 NSaved=  11.
 NSaved=11 IEnMin=11 EnMin= -2048.43096031656     IErMin=11 ErrMin= 8.91D-08
 ErrMax= 8.91D-08  0.00D+00 EMaxC= 1.00D-01 BMatC= 3.55D-12 BMatP= 1.37D-11
 IDIUse=1 WtCom= 1.00D+00 WtEn= 0.00D+00
 Coeff-Com:  0.977D-04-0.909D-03-0.306D-02-0.113D-03 0.140D-01 0.138D-01
 Coeff-Com: -0.432D-01-0.798D-01-0.151D-01 0.416D+00 0.699D+00
 Coeff:      0.977D-04-0.909D-03-0.306D-02-0.113D-03 0.140D-01 0.138D-01
 Coeff:     -0.432D-01-0.798D-01-0.151D-01 0.416D+00 0.699D+00
 Gap=     0.260 Goal=   None    Shift=    0.000
 RMSDP=5.76D-09 MaxDP=2.51D-07 DE=-1.78D-10 OVMax= 1.69D-06

 SCF Done:  E(RwB97XD) =  -2048.43096032     A.U. after   16 cycles
            NFock= 16  Conv=0.58D-08     -V/T= 2.0045
 KE= 2.039241479288D+03 PE=-1.578065680452D+04 EE= 6.193248211620D+03
 Leave Link  502 at Sat Jan 27 07:05:13 2018, MaxMem=  4294967296 cpu:           22968.1 elap:             740.7
 (Enter /share/apps/g16/l601.exe)
 Copying SCF densities to generalized density rwf, IOpCl= 0 IROHF=0.

 **********************************************************************

            Population analysis using the SCF density.

 **********************************************************************

 Orbital symmetries:
       Occupied  (A) (A) (A) (A) (A) (A) (A) (A) (A) (A) (A) (A)
                 (A) (A) (A) (A) (A) (A) (A) (A) (A) (A) (A) (A)
                 (A) (A) (A) (A) (A) (A) (A) (A) (A) (A) (A) (A)
                 (A) (A) (A) (A) (A) (A) (A) (A) (A) (A) (A) (A)
                 (A) (A) (A) (A) (A) (A) (A) (A) (A) (A) (A) (A)
                 (A) (A) (A) (A) (A) (A) (A) (A) (A) (A) (A) (A)
                 (A) (A) (A) (A) (A) (A) (A) (A) (A) (A) (A) (A)
                 (A) (A) (A) (A) (A) (A) (A) (A) (A) (A) (A) (A)
                 (A) (A) (A) (A) (A) (A) (A) (A) (A) (A) (A) (A)
                 (A) (A) (A) (A) (A) (A) (A) (A) (A) (A) (A) (A)
                 (A) (A) (A) (A) (A) (A) (A) (A) (A) (A) (A) (A)
                 (A) (A) (A) (A) (A) (A) (A) (A) (A) (A) (A) (A)
                 (A) (A) (A) (A) (A) (A) (A) (A) (A) (A)
       Virtual   (A) (A) (A) (A) (A) (A) (A) (A) (A) (A) (A) (A)
                 (A) (A) (A) (A) (A) (A) (A) (A) (A) (A) (A) (A)
                 (A) (A) (A) (A) (A) (A) (A) (A) (A) (A) (A) (A)
                 (A) (A) (A) (A) (A) (A) (A) (A) (A) (A) (A) (A)
                 (A) (A) (A) (A) (A) (A) (A) (A) (A) (A) (A) (A)
                 (A) (A) (A) (A) (A) (A) (A) (A) (A) (A) (A) (A)
                 (A) (A) (A) (A) (A) (A) (A) (A) (A) (A) (A) (A)
                 (A) (A) (A) (A) (A) (A) (A) (A) (A) (A) (A) (A)
                 (A) (A) (A) (A) (A) (A) (A) (A) (A) (A) (A) (A)
                 (A) (A) (A) (A) (A) (A) (A) (A) (A) (A) (A) (A)
                 (A) (A) (A) (A) (A) (A) (A) (A) (A) (A) (A) (A)
                 (A) (A) (A) (A) (A) (A) (A) (A) (A) (A) (A) (A)
                 (A) (A) (A) (A) (A) (A) (A) (A) (A) (A) (A) (A)
                 (A) (A) (A) (A) (A) (A) (A) (A) (A) (A) (A) (A)
                 (A) (A) (A) (A) (A) (A) (A) (A) (A) (A) (A) (A)
                 (A) (A) (A) (A) (A) (A) (A) (A) (A) (A) (A) (A)
                 (A) (A) (A) (A) (A) (A) (A) (A) (A) (A) (A) (A)
                 (A) (A) (A) (A) (A) (A) (A) (A) (A) (A) (A) (A)
                 (A) (A) (A) (A) (A) (A) (A) (A) (A) (A) (A) (A)
                 (A) (A) (A) (A) (A) (A) (A) (A) (A) (A) (A) (A)
                 (A) (A) (A) (A) (A) (A) (A) (A) (A) (A) (A) (A)
                 (A) (A) (A) (A) (A) (A) (A) (A) (A) (A) (A) (A)
                 (A) (A) (A) (A) (A) (A) (A) (A) (A) (A) (A) (A)
                 (A) (A) (A) (A) (A) (A) (A) (A) (A) (A) (A) (A)
                 (A) (A) (A) (A) (A) (A) (A) (A) (A) (A) (A) (A)
                 (A) (A) (A) (A) (A) (A) (A) (A) (A) (A) (A) (A)
                 (A) (A) (A) (A) (A) (A) (A) (A) (A) (A) (A) (A)
                 (A) (A) (A) (A) (A) (A) (A) (A) (A) (A) (A) (A)
                 (A) (A) (A) (A) (A) (A) (A) (A) (A) (A) (A) (A)
                 (A) (A) (A) (A) (A) (A) (A) (A) (A) (A) (A) (A)
                 (A) (A) (A) (A) (A) (A) (A) (A) (A) (A) (A) (A)
                 (A) (A) (A) (A) (A) (A) (A) (A) (A) (A) (A) (A)
                 (A) (A) (A) (A) (A) (A) (A) (A) (A) (A) (A) (A)
                 (A) (A) (A) (A) (A) (A) (A) (A) (A) (A) (A) (A)
                 (A) (A) (A) (A) (A) (A) (A) (A) (A) (A) (A) (A)
                 (A) (A) (A) (A) (A) (A) (A) (A) (A) (A) (A) (A)
                 (A) (A) (A) (A) (A) (A) (A) (A) (A) (A) (A) (A)
                 (A) (A) (A) (A) (A) (A) (A) (A) (A) (A) (A) (A)
                 (A) (A) (A) (A) (A) (A) (A) (A) (A) (A) (A) (A)
                 (A) (A) (A) (A) (A) (A) (A) (A) (A) (A) (A) (A)
                 (A) (A) (A) (A) (A) (A) (A) (A) (A) (A) (A) (A)
                 (A) (A) (A) (A) (A) (A) (A) (A) (A) (A) (A) (A)
                 (A) (A) (A) (A) (A) (A) (A) (A) (A) (A) (A) (A)
                 (A) (A) (A) (A) (A) (A) (A) (A) (A) (A) (A) (A)
                 (A) (A) (A) (A) (A) (A) (A) (A) (A) (A) (A) (A)
                 (A) (A) (A) (A) (A) (A) (A) (A) (A) (A) (A) (A)
                 (A) (A) (A) (A) (A) (A) (A) (A) (A) (A) (A) (A)
                 (A) (A) (A) (A) (A) (A) (A) (A) (A) (A) (A) (A)
                 (A) (A) (A) (A) (A) (A) (A)
 The electronic state is 1-A.
 Alpha  occ. eigenvalues --  -19.25764 -19.21879 -19.20155 -14.52503 -14.52411
 Alpha  occ. eigenvalues --  -14.48996 -14.48504 -14.47965 -14.47799 -14.45204
 Alpha  occ. eigenvalues --  -14.44803 -14.43757 -14.43579 -14.42760 -14.42617
 Alpha  occ. eigenvalues --  -14.41720 -14.41140 -14.40853 -14.40636 -14.40391
 Alpha  occ. eigenvalues --  -10.45417 -10.41002 -10.40011 -10.39542 -10.37771
 Alpha  occ. eigenvalues --  -10.37736 -10.37691 -10.36427 -10.36190 -10.35719
 Alpha  occ. eigenvalues --  -10.35222 -10.34717 -10.34370 -10.34028 -10.33621
 Alpha  occ. eigenvalues --  -10.33342 -10.33246 -10.32394 -10.31082 -10.31072
 Alpha  occ. eigenvalues --  -10.30871 -10.28832 -10.27998  -1.19373  -1.17981
 Alpha  occ. eigenvalues --   -1.13127  -1.12905  -1.11601  -1.10411  -1.09820
 Alpha  occ. eigenvalues --   -1.09289  -1.09248  -1.05330  -1.05241  -1.03806
 Alpha  occ. eigenvalues --   -1.02421  -1.00749  -0.98362  -0.98225  -0.97252
 Alpha  occ. eigenvalues --   -0.96790  -0.96435  -0.92907  -0.91131  -0.91018
 Alpha  occ. eigenvalues --   -0.86858  -0.84177  -0.84085  -0.83621  -0.82536
 Alpha  occ. eigenvalues --   -0.82474  -0.78843  -0.77236  -0.75408  -0.74533
 Alpha  occ. eigenvalues --   -0.74338  -0.73304  -0.73192  -0.71628  -0.71325
 Alpha  occ. eigenvalues --   -0.68657  -0.67748  -0.66602  -0.66562  -0.65868
 Alpha  occ. eigenvalues --   -0.64694  -0.64335  -0.63739  -0.63005  -0.62642
 Alpha  occ. eigenvalues --   -0.61678  -0.60735  -0.60508  -0.60132  -0.59541
 Alpha  occ. eigenvalues --   -0.59484  -0.59395  -0.56996  -0.56648  -0.56549
 Alpha  occ. eigenvalues --   -0.56415  -0.55820  -0.55656  -0.54765  -0.54343
 Alpha  occ. eigenvalues --   -0.53780  -0.53311  -0.53254  -0.53093  -0.52695
 Alpha  occ. eigenvalues --   -0.52380  -0.51975  -0.51118  -0.50943  -0.50435
 Alpha  occ. eigenvalues --   -0.49945  -0.49653  -0.49323  -0.49162  -0.48712
 Alpha  occ. eigenvalues --   -0.48218  -0.48104  -0.47805  -0.47310  -0.47164
 Alpha  occ. eigenvalues --   -0.46122  -0.45828  -0.45334  -0.43952  -0.42306
 Alpha  occ. eigenvalues --   -0.41449  -0.39802  -0.39385  -0.38721  -0.37438
 Alpha  occ. eigenvalues --   -0.37034  -0.36995  -0.36162  -0.35530  -0.33953
 Alpha  occ. eigenvalues --   -0.33780  -0.33679  -0.33111  -0.32999  -0.32380
 Alpha  occ. eigenvalues --   -0.32308  -0.31894  -0.31607  -0.31122  -0.31069
 Alpha  occ. eigenvalues --   -0.30593  -0.28901  -0.26097  -0.23105
 Alpha virt. eigenvalues --    0.02846   0.03194   0.06545   0.07686   0.08451
 Alpha virt. eigenvalues --    0.09291   0.10109   0.10624   0.11763   0.12455
 Alpha virt. eigenvalues --    0.13160   0.13725   0.14089   0.14676   0.15210
 Alpha virt. eigenvalues --    0.15521   0.15859   0.16788   0.17315   0.17723
 Alpha virt. eigenvalues --    0.18745   0.18973   0.19321   0.19827   0.20088
 Alpha virt. eigenvalues --    0.20427   0.20546   0.21014   0.21199   0.21668
 Alpha virt. eigenvalues --    0.22320   0.23314   0.23428   0.23755   0.23928
 Alpha virt. eigenvalues --    0.24112   0.24364   0.24406   0.25257   0.25546
 Alpha virt. eigenvalues --    0.25857   0.26851   0.27955   0.28540   0.28671
 Alpha virt. eigenvalues --    0.28854   0.29278   0.29898   0.30492   0.30974
 Alpha virt. eigenvalues --    0.31663   0.31925   0.32735   0.33381   0.34103
 Alpha virt. eigenvalues --    0.34685   0.35091   0.35488   0.36149   0.36889
 Alpha virt. eigenvalues --    0.37535   0.38039   0.38281   0.39093   0.39855
 Alpha virt. eigenvalues --    0.40022   0.40497   0.41057   0.41392   0.42060
 Alpha virt. eigenvalues --    0.42458   0.42690   0.43622   0.44383   0.44560
 Alpha virt. eigenvalues --    0.44942   0.45067   0.46026   0.46563   0.47118
 Alpha virt. eigenvalues --    0.47805   0.48137   0.48882   0.49227   0.49730
 Alpha virt. eigenvalues --    0.49793   0.50357   0.50733   0.51300   0.51565
 Alpha virt. eigenvalues --    0.51986   0.52504   0.52922   0.53574   0.53889
 Alpha virt. eigenvalues --    0.54102   0.54505   0.54804   0.55516   0.55957
 Alpha virt. eigenvalues --    0.56513   0.56597   0.57096   0.57549   0.58421
 Alpha virt. eigenvalues --    0.58568   0.58812   0.59210   0.59652   0.59854
 Alpha virt. eigenvalues --    0.60518   0.60781   0.61130   0.61369   0.61571
 Alpha virt. eigenvalues --    0.62107   0.62140   0.62504   0.63237   0.63584
 Alpha virt. eigenvalues --    0.64156   0.64210   0.64623   0.65238   0.65987
 Alpha virt. eigenvalues --    0.66170   0.66728   0.67062   0.67135   0.67673
 Alpha virt. eigenvalues --    0.67881   0.67974   0.68316   0.68756   0.69069
 Alpha virt. eigenvalues --    0.69414   0.69867   0.70168   0.70609   0.70752
 Alpha virt. eigenvalues --    0.71671   0.72295   0.72892   0.73412   0.73491
 Alpha virt. eigenvalues --    0.73994   0.74553   0.74989   0.75084   0.75440
 Alpha virt. eigenvalues --    0.75793   0.76301   0.76406   0.76669   0.77109
 Alpha virt. eigenvalues --    0.77188   0.78008   0.78563   0.78842   0.79279
 Alpha virt. eigenvalues --    0.79312   0.79811   0.80008   0.80419   0.80908
 Alpha virt. eigenvalues --    0.80991   0.81782   0.82261   0.82589   0.83076
 Alpha virt. eigenvalues --    0.83434   0.83742   0.84638   0.84842   0.85169
 Alpha virt. eigenvalues --    0.85827   0.86299   0.87122   0.87274   0.87874
 Alpha virt. eigenvalues --    0.88532   0.89045   0.89321   0.89586   0.90198
 Alpha virt. eigenvalues --    0.90292   0.90835   0.91325   0.91841   0.92204
 Alpha virt. eigenvalues --    0.92498   0.93499   0.93935   0.94442   0.94918
 Alpha virt. eigenvalues --    0.95110   0.95942   0.96413   0.96739   0.96944
 Alpha virt. eigenvalues --    0.97291   0.97852   0.98065   0.98522   0.99054
 Alpha virt. eigenvalues --    1.00031   1.00820   1.01410   1.01627   1.02101
 Alpha virt. eigenvalues --    1.02444   1.02540   1.03453   1.03633   1.04329
 Alpha virt. eigenvalues --    1.04526   1.05191   1.05644   1.05903   1.06708
 Alpha virt. eigenvalues --    1.07215   1.07754   1.07820   1.08525   1.09362
 Alpha virt. eigenvalues --    1.09783   1.10244   1.10791   1.11427   1.11944
 Alpha virt. eigenvalues --    1.12599   1.13562   1.13789   1.14149   1.14677
 Alpha virt. eigenvalues --    1.14804   1.15226   1.15618   1.16098   1.16698
 Alpha virt. eigenvalues --    1.17220   1.17663   1.18259   1.18504   1.19038
 Alpha virt. eigenvalues --    1.19074   1.19242   1.20017   1.20581   1.20675
 Alpha virt. eigenvalues --    1.21204   1.21531   1.21798   1.22505   1.22655
 Alpha virt. eigenvalues --    1.22951   1.23204   1.23893   1.23981   1.24501
 Alpha virt. eigenvalues --    1.25021   1.25488   1.26231   1.26794   1.27417
 Alpha virt. eigenvalues --    1.27870   1.28987   1.29725   1.30188   1.30456
 Alpha virt. eigenvalues --    1.30935   1.31624   1.32285   1.32992   1.33577
 Alpha virt. eigenvalues --    1.33911   1.34088   1.34605   1.34832   1.35397
 Alpha virt. eigenvalues --    1.37193   1.37673   1.37784   1.38416   1.39220
 Alpha virt. eigenvalues --    1.39372   1.41104   1.41747   1.42653   1.43252
 Alpha virt. eigenvalues --    1.44264   1.44455   1.45367   1.46647   1.46898
 Alpha virt. eigenvalues --    1.47076   1.47887   1.48244   1.48901   1.49535
 Alpha virt. eigenvalues --    1.50328   1.50892   1.51019   1.51451   1.51935
 Alpha virt. eigenvalues --    1.52809   1.54629   1.56016   1.56130   1.56282
 Alpha virt. eigenvalues --    1.56381   1.57049   1.58445   1.58899   1.59051
 Alpha virt. eigenvalues --    1.59730   1.60695   1.61734   1.62127   1.62779
 Alpha virt. eigenvalues --    1.62921   1.63510   1.63747   1.64328   1.65040
 Alpha virt. eigenvalues --    1.65489   1.66469   1.66751   1.67167   1.67559
 Alpha virt. eigenvalues --    1.67709   1.68161   1.68570   1.68831   1.69251
 Alpha virt. eigenvalues --    1.69928   1.70245   1.70534   1.71452   1.71675
 Alpha virt. eigenvalues --    1.72616   1.72683   1.73298   1.73701   1.73911
 Alpha virt. eigenvalues --    1.74441   1.74868   1.75253   1.75437   1.75902
 Alpha virt. eigenvalues --    1.76074   1.76606   1.77347   1.77652   1.78249
 Alpha virt. eigenvalues --    1.78785   1.78915   1.79454   1.79753   1.79973
 Alpha virt. eigenvalues --    1.80122   1.80144   1.80553   1.81051   1.81882
 Alpha virt. eigenvalues --    1.82228   1.82894   1.83016   1.83507   1.83577
 Alpha virt. eigenvalues --    1.84040   1.84508   1.86014   1.86140   1.86903
 Alpha virt. eigenvalues --    1.87330   1.87652   1.88002   1.88124   1.88528
 Alpha virt. eigenvalues --    1.88919   1.88977   1.89242   1.90260   1.91058
 Alpha virt. eigenvalues --    1.91262   1.92071   1.92468   1.92986   1.93714
 Alpha virt. eigenvalues --    1.94343   1.94920   1.95757   1.96446   1.97268
 Alpha virt. eigenvalues --    1.98103   1.98708   1.99036   1.99264   2.00615
 Alpha virt. eigenvalues --    2.01072   2.01820   2.01923   2.02691   2.03050
 Alpha virt. eigenvalues --    2.04119   2.04818   2.05328   2.06300   2.06649
 Alpha virt. eigenvalues --    2.07096   2.07334   2.07408   2.07668   2.08540
 Alpha virt. eigenvalues --    2.09370   2.10068   2.10212   2.10510   2.12348
 Alpha virt. eigenvalues --    2.13061   2.13228   2.13647   2.15520   2.16194
 Alpha virt. eigenvalues --    2.17239   2.18106   2.18761   2.19495   2.19785
 Alpha virt. eigenvalues --    2.20713   2.21058   2.22013   2.22455   2.22571
 Alpha virt. eigenvalues --    2.23490   2.23876   2.24581   2.25483   2.25771
 Alpha virt. eigenvalues --    2.26537   2.27256   2.28424   2.29069   2.29103
 Alpha virt. eigenvalues --    2.29629   2.29916   2.30206   2.31694   2.32200
 Alpha virt. eigenvalues --    2.33170   2.33523   2.33917   2.34484   2.34678
 Alpha virt. eigenvalues --    2.34920   2.35530   2.36285   2.36638   2.37640
 Alpha virt. eigenvalues --    2.38198   2.39691   2.40062   2.40218   2.40778
 Alpha virt. eigenvalues --    2.41290   2.42053   2.42824   2.42915   2.43248
 Alpha virt. eigenvalues --    2.44078   2.44444   2.45359   2.45572   2.46164
 Alpha virt. eigenvalues --    2.47127   2.47901   2.48808   2.49517   2.50340
 Alpha virt. eigenvalues --    2.50998   2.52254   2.52526   2.53185   2.54076
 Alpha virt. eigenvalues --    2.54744   2.55362   2.56198   2.56843   2.57479
 Alpha virt. eigenvalues --    2.58827   2.59732   2.60454   2.60578   2.61315
 Alpha virt. eigenvalues --    2.61740   2.62179   2.62577   2.64019   2.64726
 Alpha virt. eigenvalues --    2.64934   2.66341   2.66987   2.68068   2.68544
 Alpha virt. eigenvalues --    2.68771   2.69513   2.70153   2.70566   2.70731
 Alpha virt. eigenvalues --    2.71682   2.72413   2.73683   2.74024   2.74573
 Alpha virt. eigenvalues --    2.75055   2.75456   2.76312   2.77853   2.78544
 Alpha virt. eigenvalues --    2.79277   2.79566   2.79911   2.80290   2.80616
 Alpha virt. eigenvalues --    2.81017   2.81530   2.81955   2.82465   2.82890
 Alpha virt. eigenvalues --    2.84176   2.84741   2.84990   2.85355   2.86251
 Alpha virt. eigenvalues --    2.86419   2.87373   2.88023   2.88235   2.90031
 Alpha virt. eigenvalues --    2.91400   2.92334   2.93577   2.94366   2.95526
 Alpha virt. eigenvalues --    2.98757   2.99232   2.99798   3.00782   3.03669
 Alpha virt. eigenvalues --    3.04479   3.05710   3.07364   3.09577   3.10487
 Alpha virt. eigenvalues --    3.11782   3.13970   3.14403   3.15224   3.15919
 Alpha virt. eigenvalues --    3.16136   3.16584   3.18159   3.20915   3.22118
 Alpha virt. eigenvalues --    3.23330   3.23675   3.25345   3.27748   3.44002
 Alpha virt. eigenvalues --    3.46470   3.47337   3.49509   3.50640   3.52973
 Alpha virt. eigenvalues --    3.53967   3.56458   3.57026   3.60915   3.62568
 Alpha virt. eigenvalues --    3.69824   3.71572   3.74739
          Condensed to atoms (all electrons):
 Mulliken charges:
               1
     1  N   -0.311524
     2  C    0.181197
     3  C    0.030755
     4  N   -0.260847
     5  C    0.135033
     6  H    0.027445
     7  N   -0.289833
     8  C    0.139817
     9  H    0.004727
    10  N   -0.288063
    11  C    0.247184
    12  C    0.126110
    13  N   -0.061478
    14  H    0.106963
    15  H    0.087979
    16  H    0.025217
    17  H    0.035226
    18  H    0.027422
    19  N   -0.313709
    20  C    0.221808
    21  C    0.182929
    22  N   -0.098482
    23  H    0.105982
    24  H    0.082040
    25  N   -0.237521
    26  C    0.107136
    27  N   -0.087445
    28  H    0.115033
    29  C    0.130177
    30  O   -0.318667
    31  C   -0.002549
    32  N   -0.216419
    33  C    0.124327
    34  H    0.030369
    35  H    0.026760
    36  H    0.024549
    37  H    0.024612
    38  H    0.060096
    39  H    0.058724
    40  H    0.075150
    41  H    0.032017
    42  C   -0.111903
    43  O   -0.262634
    44  C    0.177158
    45  H    0.134219
    46  N   -0.140365
    47  O   -0.343975
    48  C    0.358683
    49  H    0.047424
    50  C    0.168361
    51  C    0.044193
    52  N   -0.298443
    53  H    0.001389
    54  H    0.030032
    55  H   -0.001831
    56  H    0.122222
    57  H    0.116515
    58  N   -0.069541
    59  C    0.099203
    60  C    0.204713
    61  N   -0.247154
    62  H    0.077926
    63  C    0.157302
    64  N   -0.291831
    65  H    0.032008
    66  C    0.107370
    67  N   -0.264164
    68  C    0.062282
    69  C    0.336605
    70  N   -0.336015
 Sum of Mulliken charges =  -0.00000
 Mulliken charges with hydrogens summed into heavy atoms:
               1
     1  N   -0.311524
     2  C    0.269063
     3  C    0.030755
     4  N   -0.260847
     5  C    0.162477
     7  N   -0.289833
     8  C    0.144544
    10  N   -0.288063
    11  C    0.247184
    12  C    0.126110
    13  N    0.133464
    19  N   -0.313709
    20  C    0.221808
    21  C    0.258850
    22  N    0.089540
    25  N   -0.237521
    26  C    0.107136
    27  N    0.027589
    29  C    0.130177
    30  O   -0.318667
    31  C   -0.002549
    32  N   -0.216419
    33  C    0.154696
    42  C   -0.079886
    43  O   -0.262634
    44  C    0.177158
    46  N   -0.006146
    47  O   -0.343975
    48  C    0.358683
    50  C    0.215785
    51  C    0.238164
    52  N   -0.298443
    58  N    0.169196
    59  C    0.099203
    60  C    0.204713
    61  N   -0.247154
    63  C    0.235229
    64  N   -0.291831
    66  C    0.139379
    67  N   -0.264164
    68  C    0.062282
    69  C    0.366195
    70  N   -0.336015
 Electronic spatial extent (au):  <R**2>=          23603.8958
 Charge=             -0.0000 electrons
 Dipole moment (field-independent basis, Debye):
    X=              8.3124    Y=              4.7367    Z=              4.2560  Tot=             10.4712
 Quadrupole moment (field-independent basis, Debye-Ang):
   XX=           -155.0985   YY=           -212.4466   ZZ=           -254.8603
   XY=             -1.2939   XZ=             11.0620   YZ=            -12.7189
 Traceless Quadrupole moment (field-independent basis, Debye-Ang):
   XX=             52.3700   YY=             -4.9781   ZZ=            -47.3918
   XY=             -1.2939   XZ=             11.0620   YZ=            -12.7189
 Octapole moment (field-independent basis, Debye-Ang**2):
  XXX=             -7.0546  YYY=            146.2936  ZZZ=              6.1972  XYY=            103.8881
  XXY=           -131.3444  XXZ=            -41.3063  XZZ=              7.9970  YZZ=              8.2365
  YYZ=             47.7411  XYZ=             31.4817
 Hexadecapole moment (field-independent basis, Debye-Ang**3):
 XXXX=         -14871.9284 YYYY=          -7340.1551 ZZZZ=          -2910.3556 XXXY=            482.6222
 XXXZ=            152.6318 YYYX=           -118.0319 YYYZ=           -137.0842 ZZZX=             13.1571
 ZZZY=            -75.2797 XXYY=          -3709.6608 XXZZ=          -3933.8468 YYZZ=          -1757.2799
 XXYZ=             92.3667 YYXZ=            237.6757 ZZXY=            -48.3356
 N-N= 5.499736153299D+03 E-N=-1.578065681195D+04  KE= 2.039241479288D+03
 No NMR shielding tensors so no spin-rotation constants.
 Leave Link  601 at Sat Jan 27 07:05:15 2018, MaxMem=  4294967296 cpu:              47.6 elap:               1.7
 (Enter /share/apps/g16/l9999.exe)
 1\1\GINC-COMPUTE-0-3\SP\RwB97XD\CC-pVDZ\C23H27N17O3\SATYA\27-Jan-2018\
 0\\#p wb97xd/cc-pvdz sp scf=(maxcycles=20)\\Base pair stacking\\0,1\N,
 0,6.41209,1.22156,-9.08873\C,0,7.81604,1.51619,-9.43534\C,0,4.34727,1.
 38017,-8.34801\N,0,4.47015,0.10695,-8.88517\C,0,5.70921,0.06235,-9.309
 93\H,0,6.16714,-0.79925,-9.79664\N,0,3.48294,3.31344,-7.30957\C,0,4.68
 964,3.85901,-7.49343\H,0,4.79841,4.88023,-7.13074\N,0,5.77705,3.33495,
 -8.05539\C,0,5.53609,2.07893,-8.46622\C,0,3.27234,2.04828,-7.73394\N,0
 ,2.06845,1.50194,-7.5513\H,0,1.86774,0.56817,-7.84964\H,0,1.32653,2.00
 711,-7.11029\H,0,7.94082,1.43463,-10.42426\H,0,8.04319,2.44599,-9.1472
 5\H,0,8.41936,0.86823,-8.97043\N,0,3.82037,5.25789,-3.74581\C,0,2.5434
 1,4.83305,-3.46845\C,0,4.27091,6.6642,-3.74666\N,0,-0.74584,5.54923,-2
 .61424\H,0,-1.59166,5.04313,-2.44788\H,0,-0.78824,6.54489,-2.52708\N,0
 ,1.49415,5.62259,-3.15264\C,0,0.39451,4.92185,-2.93966\N,0,0.32558,3.5
 526,-3.02863\H,0,-0.55784,3.10066,-2.84895\C,0,1.3925,2.72016,-3.35204
 \O,0,1.22391,1.49564,-3.40562\C,0,2.58076,3.45859,-3.58364\N,0,3.85552
 ,3.02918,-3.92641\C,0,4.55502,4.12813,-4.01147\H,0,5.61467,4.17163,-4.
 26548\H,0,4.6146,6.90529,-4.65361\H,0,3.5021,7.25842,-3.51405\H,0,4.99
 872,6.78319,-3.07216\H,0,-5.37384,1.51441,-2.47113\H,0,-4.89428,1.1143
 9,-0.82351\H,0,-4.15573,2.48832,-1.64706\H,0,-2.9587,-2.57762,-3.22542
 \C,0,-2.75663,-1.52469,-3.0286\O,0,-0.48949,-1.64128,-3.71678\C,0,-1.4
 4841,-1.00337,-3.2828\H,0,-0.38933,0.74397,-3.16682\N,0,-1.29997,0.339
 47,-2.99998\O,0,-2.03084,2.37044,-2.29415\C,0,-2.25787,1.19363,-2.5137
 9\H,0,-4.72259,-1.0635,-2.34441\C,0,-3.71176,-0.71636,-2.55434\C,0,-4.
 54877,1.49066,-1.77488\N,0,-3.49325,0.61668,-2.29429\H,0,-2.03253,7.87
 268,-3.92205\H,0,-0.59324,7.20737,-3.53744\H,0,-1.85283,7.0791,-2.5073
 6\H,0,-1.51627,1.07644,-6.85635\H,0,-2.98942,1.73283,-6.30041\N,0,-1.9
 9545,1.81464,-6.3814\C,0,-1.33912,2.86203,-5.87804\C,0,-1.15111,4.9412
 8,-4.73651\N,0,0.18388,5.02463,-4.86016\H,0,1.73854,3.9541,-5.65865\C,
 0,0.65911,3.96651,-5.51394\N,0,0.00338,2.91645,-6.01887\H,0,-4.1288,5.
 83883,-3.85337\C,0,-3.25593,5.32265,-4.25411\N,0,-3.29441,4.17782,-4.8
 9094\C,0,-1.96641,3.92454,-5.20239\C,0,-1.58486,7.10079,-3.47063\N,0,-
 1.99077,5.84163,-4.12466\\Version=EM64L-G16RevA.03\State=1-A\HF=-2048.
 4309603\RMSD=5.758e-09\Dipole=-3.331943,2.3087236,0.7346612\Quadrupole
 =28.5614213,-11.1073484,-17.4540729,6.5299642,-25.5404044,15.0576653\P
 G=C01 [X(C23H27N17O3)]\\@


 OUR LITTLE SYSTEMS HAVE THEIR DAY,    
   THEY HAVE THEIR DAY AND CEASE TO BE.
   THEY ARE BUT BROKEN LIGHTS OF THEE, 
 AND THOU, OH LORD, ART MORE THAN THEY.
          -------------------          
 LET KNOWLEDGE GROW FROM MORE TO MORE, 
   BUT MORE OF REVERENCE IN US DWELL.  
   THAT MIND AND SOUL, ACCORDING WELL, 
 MAY MAKE ONE MUSIC AS BEFORE.....     
          -------------------          
                    LORD TENNYSON      
 Job cpu time:       0 days  6 hours 33 minutes  2.4 seconds.
 Elapsed time:       0 days  0 hours 12 minutes 40.4 seconds.
 File lengths (MBytes):  RWF=    298 Int=      0 D2E=      0 Chk=     33 Scr=      1
 Normal termination of Gaussian 16 at Sat Jan 27 07:05:15 2018.
