 Entering Gaussian System, Link 0=g16
 Input=str60.-15.-2.0.com
 Output=str60.-15.-2.0.log
 Initial command:
 /share/apps/g16/l1.exe "/state/partition1/scr/Gau-9790.inp" -scrdir="/state/partition1/scr/"
 Entering Link 1 = /share/apps/g16/l1.exe PID=      9791.
  
 Copyright (c) 1988,1990,1992,1993,1995,1998,2003,2009,2016,
            Gaussian, Inc.  All Rights Reserved.
  
 This is part of the Gaussian(R) 16 program.  It is based on
 the Gaussian(R) 09 system (copyright 2009, Gaussian, Inc.),
 the Gaussian(R) 03 system (copyright 2003, Gaussian, Inc.),
 the Gaussian(R) 98 system (copyright 1998, Gaussian, Inc.),
 the Gaussian(R) 94 system (copyright 1995, Gaussian, Inc.),
 the Gaussian 92(TM) system (copyright 1992, Gaussian, Inc.),
 the Gaussian 90(TM) system (copyright 1990, Gaussian, Inc.),
 the Gaussian 88(TM) system (copyright 1988, Gaussian, Inc.),
 the Gaussian 86(TM) system (copyright 1986, Carnegie Mellon
 University), and the Gaussian 82(TM) system (copyright 1983,
 Carnegie Mellon University). Gaussian is a federally registered
 trademark of Gaussian, Inc.
  
 This software contains proprietary and confidential information,
 including trade secrets, belonging to Gaussian, Inc.
  
 This software is provided under written license and may be
 used, copied, transmitted, or stored only in accord with that
 written license.
  
 The following legend is applicable only to US Government
 contracts under FAR:
  
                    RESTRICTED RIGHTS LEGEND
  
 Use, reproduction and disclosure by the US Government is
 subject to restrictions as set forth in subparagraphs (a)
 and (c) of the Commercial Computer Software - Restricted
 Rights clause in FAR 52.227-19.
  
 Gaussian, Inc.
 340 Quinnipiac St., Bldg. 40, Wallingford CT 06492
  
  
 ---------------------------------------------------------------
 Warning -- This program may not be used in any manner that
 competes with the business of Gaussian, Inc. or will provide
 assistance to any competitor of Gaussian, Inc.  The licensee
 of this program is prohibited from giving any competitor of
 Gaussian, Inc. access to this program.  By using this program,
 the user acknowledges that Gaussian, Inc. is engaged in the
 business of creating and licensing software in the field of
 computational chemistry and represents and warrants to the
 licensee that it is not a competitor of Gaussian, Inc. and that
 it will not use this program in any manner prohibited above.
 ---------------------------------------------------------------
  

 Cite this work as:
 Gaussian 16, Revision A.03,
 M. J. Frisch, G. W. Trucks, H. B. Schlegel, G. E. Scuseria, 
 M. A. Robb, J. R. Cheeseman, G. Scalmani, V. Barone, 
 G. A. Petersson, H. Nakatsuji, X. Li, M. Caricato, A. V. Marenich, 
 J. Bloino, B. G. Janesko, R. Gomperts, B. Mennucci, H. P. Hratchian, 
 J. V. Ortiz, A. F. Izmaylov, J. L. Sonnenberg, D. Williams-Young, 
 F. Ding, F. Lipparini, F. Egidi, J. Goings, B. Peng, A. Petrone, 
 T. Henderson, D. Ranasinghe, V. G. Zakrzewski, J. Gao, N. Rega, 
 G. Zheng, W. Liang, M. Hada, M. Ehara, K. Toyota, R. Fukuda, 
 J. Hasegawa, M. Ishida, T. Nakajima, Y. Honda, O. Kitao, H. Nakai, 
 T. Vreven, K. Throssell, J. A. Montgomery, Jr., J. E. Peralta, 
 F. Ogliaro, M. J. Bearpark, J. J. Heyd, E. N. Brothers, K. N. Kudin, 
 V. N. Staroverov, T. A. Keith, R. Kobayashi, J. Normand, 
 K. Raghavachari, A. P. Rendell, J. C. Burant, S. S. Iyengar, 
 J. Tomasi, M. Cossi, J. M. Millam, M. Klene, C. Adamo, R. Cammi, 
 J. W. Ochterski, R. L. Martin, K. Morokuma, O. Farkas, 
 J. B. Foresman, and D. J. Fox, Gaussian, Inc., Wallingford CT, 2016.
 
 ******************************************
 Gaussian 16:  EM64L-G16RevA.03 25-Dec-2016
                27-Jan-2018 
 ******************************************
 %nprocshared=32
 Will use up to   32 processors via shared memory.
 %mem=32GB
 %chk=allatoms_t.chk
 ---------------------------------------
 #p wb97xd/cc-pvdz sp scf=(maxcycles=20)
 ---------------------------------------
 1/38=1,172=1/1;
 2/12=2,17=6,18=5,40=1/2;
 3/5=16,11=2,25=1,30=1,74=-58/1,2,3;
 4//1;
 5/5=2,7=20,38=5/2;
 6/7=2,8=2,9=2,10=2,28=1/1;
 99/5=1,9=1/99;
 Leave Link    1 at Sat Jan 27 02:39:11 2018, MaxMem=  4294967296 cpu:               2.7 elap:               0.1
 (Enter /share/apps/g16/l101.exe)
 ------------------
 Base pair stacking
 ------------------
 Symbolic Z-matrix:
 Charge =  0 Multiplicity = 1
 N                     7.04699   0.91076  -8.53621 
 C                     8.46355   1.21105  -8.82116 
 C                     4.93328   1.08219  -7.95298 
 N                     5.12384  -0.23692  -8.33814 
 C                     6.38964  -0.28741  -8.6741 
 H                     6.90077  -1.18136  -9.03262 
 N                     3.95281   3.08749  -7.19114 
 C                     5.15537   3.64836  -7.35499 
 H                     5.21395   4.70568  -7.1002 
 N                     6.2911    3.10183  -7.7843 
 C                     6.10975   1.80179  -8.06967 
 C                     3.80289   1.77788  -7.48698 
 N                     2.60324   1.21621  -7.32408 
 H                     2.44642   0.24978  -7.5306 
 H                     1.82077   1.74198  -6.99023 
 H                     8.65728   1.02741  -9.78496 
 H                     8.64754   2.17327  -8.62264 
 H                     9.04968   0.63659  -8.2498 
 N                     3.97573   5.27361  -3.63563 
 C                     2.68535   4.85036  -3.42623 
 C                     4.41889   6.68206  -3.65972 
 N                    -0.65588   5.57453  -2.8151 
 H                    -1.50842   5.06899  -2.6853 
 H                    -0.70845   6.5724   -2.76814 
 N                     1.61411   5.64365  -3.20905 
 C                     0.50614   4.94356  -3.04199 
 N                     0.44946   3.57151  -3.08403 
 H                    -0.44171   3.12033  -2.94543 
 C                     1.53903   2.73519  -3.30604 
 O                     1.37992   1.50838  -3.32469 
 C                     2.73646   3.47288  -3.4873 
 N                     4.03283   3.04005  -3.73016 
 C                     4.73133   4.13998  -3.81055 
 H                     5.80509   4.1815   -3.99656 
 H                     4.81992   6.89185  -4.55077 
 H                     3.63382   7.27905  -3.49997 
 H                     5.10058   6.83102  -2.94424 
 H                    -5.26475   1.51536  -2.82261 
 H                    -4.89189   1.17992  -1.1335 
 H                    -4.1075    2.5276   -1.95803 
 H                    -2.78675  -2.58471  -3.26482 
 C                    -2.6028   -1.52383  -3.09475 
 O                    -0.29507  -1.64986  -3.6292 
 C                    -1.28319  -1.00309  -3.28264 
 H                    -0.24198   0.75474  -3.16339 
 N                    -1.1597    0.3503   -3.04113 
 O                    -1.9444    2.4008   -2.46071 
 C                    -2.1512    1.21511  -2.65052 
 H                    -4.61131  -1.05147  -2.55758 
 C                    -3.59055  -0.70523  -2.71415 
 C                    -4.48677   1.52317  -2.07378 
 N                    -3.3956    0.63801  -2.49043 
 H                    -1.89127   7.8066   -4.68935 
 H                    -0.46549   7.23297  -4.14146 
 H                    -1.78866   7.17627  -3.18749 
 H                    -1.00884   0.7537   -6.82086 
 H                    -2.53217   1.41875  -6.43708 
 N                    -1.53732   1.52309  -6.46185 
 C                    -0.94282   2.63907  -6.03485 
 C                    -0.88433   4.83419  -5.11845 
 N                     0.4535    4.94636  -5.16356 
 H                     2.08485   3.84626  -5.7372 
 C                     0.9981    3.83968  -5.66511 
 N                     0.40438   2.72088  -6.09334 
 H                    -3.93646   5.72604  -4.53427 
 C                    -3.02587   5.19784  -4.81847 
 N                    -2.99264   3.9904   -5.32705 
 C                    -1.64068   3.74762  -5.52197 
 C                    -1.45641   7.10257  -4.12789 
 N                    -1.78565   5.76792  -4.66485 
 
 ITRead=  0  0  0  0  0  0  0  0  0  0  0  0  0  0  0  0  0  0  0  0
 ITRead=  0  0  0  0  0  0  0  0  0  0  0  0  0  0  0  0  0  0  0  0
 ITRead=  0  0  0  0  0  0  0  0  0  0  0  0  0  0  0  0  0  0  0  0
 ITRead=  0  0  0  0  0  0  0  0  0  0
 MicOpt= -1 -1 -1 -1 -1 -1 -1 -1 -1 -1 -1 -1 -1 -1 -1 -1 -1 -1 -1 -1
 MicOpt= -1 -1 -1 -1 -1 -1 -1 -1 -1 -1 -1 -1 -1 -1 -1 -1 -1 -1 -1 -1
 MicOpt= -1 -1 -1 -1 -1 -1 -1 -1 -1 -1 -1 -1 -1 -1 -1 -1 -1 -1 -1 -1
 MicOpt= -1 -1 -1 -1 -1 -1 -1 -1 -1 -1
 NAtoms=     70 NQM=       70 NQMF=       0 NMMI=      0 NMMIF=      0
                NMic=       0 NMicF=      0.
                    Isotopes and Nuclear Properties:
 (Nuclear quadrupole moments (NQMom) in fm**2, nuclear magnetic moments (NMagM)
  in nuclear magnetons)

  Atom         1           2           3           4           5           6           7           8           9          10
 IAtWgt=          14          12          12          14          12           1          14          12           1          14
 AtmWgt=  14.0030740  12.0000000  12.0000000  14.0030740  12.0000000   1.0078250  14.0030740  12.0000000   1.0078250  14.0030740
 NucSpn=           2           0           0           2           0           1           2           0           1           2
 AtZEff=  -0.0000000  -0.0000000  -0.0000000  -0.0000000  -0.0000000  -0.0000000  -0.0000000  -0.0000000  -0.0000000  -0.0000000
 NQMom=    2.0440000   0.0000000   0.0000000   2.0440000   0.0000000   0.0000000   2.0440000   0.0000000   0.0000000   2.0440000
 NMagM=    0.4037610   0.0000000   0.0000000   0.4037610   0.0000000   2.7928460   0.4037610   0.0000000   2.7928460   0.4037610
 AtZNuc=   7.0000000   6.0000000   6.0000000   7.0000000   6.0000000   1.0000000   7.0000000   6.0000000   1.0000000   7.0000000

  Atom        11          12          13          14          15          16          17          18          19          20
 IAtWgt=          12          12          14           1           1           1           1           1          14          12
 AtmWgt=  12.0000000  12.0000000  14.0030740   1.0078250   1.0078250   1.0078250   1.0078250   1.0078250  14.0030740  12.0000000
 NucSpn=           0           0           2           1           1           1           1           1           2           0
 AtZEff=  -0.0000000  -0.0000000  -0.0000000  -0.0000000  -0.0000000  -0.0000000  -0.0000000  -0.0000000  -0.0000000  -0.0000000
 NQMom=    0.0000000   0.0000000   2.0440000   0.0000000   0.0000000   0.0000000   0.0000000   0.0000000   2.0440000   0.0000000
 NMagM=    0.0000000   0.0000000   0.4037610   2.7928460   2.7928460   2.7928460   2.7928460   2.7928460   0.4037610   0.0000000
 AtZNuc=   6.0000000   6.0000000   7.0000000   1.0000000   1.0000000   1.0000000   1.0000000   1.0000000   7.0000000   6.0000000

  Atom        21          22          23          24          25          26          27          28          29          30
 IAtWgt=          12          14           1           1          14          12          14           1          12          16
 AtmWgt=  12.0000000  14.0030740   1.0078250   1.0078250  14.0030740  12.0000000  14.0030740   1.0078250  12.0000000  15.9949146
 NucSpn=           0           2           1           1           2           0           2           1           0           0
 AtZEff=  -0.0000000  -0.0000000  -0.0000000  -0.0000000  -0.0000000  -0.0000000  -0.0000000  -0.0000000  -0.0000000  -0.0000000
 NQMom=    0.0000000   2.0440000   0.0000000   0.0000000   2.0440000   0.0000000   2.0440000   0.0000000   0.0000000   0.0000000
 NMagM=    0.0000000   0.4037610   2.7928460   2.7928460   0.4037610   0.0000000   0.4037610   2.7928460   0.0000000   0.0000000
 AtZNuc=   6.0000000   7.0000000   1.0000000   1.0000000   7.0000000   6.0000000   7.0000000   1.0000000   6.0000000   8.0000000

  Atom        31          32          33          34          35          36          37          38          39          40
 IAtWgt=          12          14          12           1           1           1           1           1           1           1
 AtmWgt=  12.0000000  14.0030740  12.0000000   1.0078250   1.0078250   1.0078250   1.0078250   1.0078250   1.0078250   1.0078250
 NucSpn=           0           2           0           1           1           1           1           1           1           1
 AtZEff=  -0.0000000  -0.0000000  -0.0000000  -0.0000000  -0.0000000  -0.0000000  -0.0000000  -0.0000000  -0.0000000  -0.0000000
 NQMom=    0.0000000   2.0440000   0.0000000   0.0000000   0.0000000   0.0000000   0.0000000   0.0000000   0.0000000   0.0000000
 NMagM=    0.0000000   0.4037610   0.0000000   2.7928460   2.7928460   2.7928460   2.7928460   2.7928460   2.7928460   2.7928460
 AtZNuc=   6.0000000   7.0000000   6.0000000   1.0000000   1.0000000   1.0000000   1.0000000   1.0000000   1.0000000   1.0000000

  Atom        41          42          43          44          45          46          47          48          49          50
 IAtWgt=           1          12          16          12           1          14          16          12           1          12
 AtmWgt=   1.0078250  12.0000000  15.9949146  12.0000000   1.0078250  14.0030740  15.9949146  12.0000000   1.0078250  12.0000000
 NucSpn=           1           0           0           0           1           2           0           0           1           0
 AtZEff=  -0.0000000  -0.0000000  -0.0000000  -0.0000000  -0.0000000  -0.0000000  -0.0000000  -0.0000000  -0.0000000  -0.0000000
 NQMom=    0.0000000   0.0000000   0.0000000   0.0000000   0.0000000   2.0440000   0.0000000   0.0000000   0.0000000   0.0000000
 NMagM=    2.7928460   0.0000000   0.0000000   0.0000000   2.7928460   0.4037610   0.0000000   0.0000000   2.7928460   0.0000000
 AtZNuc=   1.0000000   6.0000000   8.0000000   6.0000000   1.0000000   7.0000000   8.0000000   6.0000000   1.0000000   6.0000000

  Atom        51          52          53          54          55          56          57          58          59          60
 IAtWgt=          12          14           1           1           1           1           1          14          12          12
 AtmWgt=  12.0000000  14.0030740   1.0078250   1.0078250   1.0078250   1.0078250   1.0078250  14.0030740  12.0000000  12.0000000
 NucSpn=           0           2           1           1           1           1           1           2           0           0
 AtZEff=  -0.0000000  -0.0000000  -0.0000000  -0.0000000  -0.0000000  -0.0000000  -0.0000000  -0.0000000  -0.0000000  -0.0000000
 NQMom=    0.0000000   2.0440000   0.0000000   0.0000000   0.0000000   0.0000000   0.0000000   2.0440000   0.0000000   0.0000000
 NMagM=    0.0000000   0.4037610   2.7928460   2.7928460   2.7928460   2.7928460   2.7928460   0.4037610   0.0000000   0.0000000
 AtZNuc=   6.0000000   7.0000000   1.0000000   1.0000000   1.0000000   1.0000000   1.0000000   7.0000000   6.0000000   6.0000000

  Atom        61          62          63          64          65          66          67          68          69          70
 IAtWgt=          14           1          12          14           1          12          14          12          12          14
 AtmWgt=  14.0030740   1.0078250  12.0000000  14.0030740   1.0078250  12.0000000  14.0030740  12.0000000  12.0000000  14.0030740
 NucSpn=           2           1           0           2           1           0           2           0           0           2
 AtZEff=  -0.0000000  -0.0000000  -0.0000000  -0.0000000  -0.0000000  -0.0000000  -0.0000000  -0.0000000  -0.0000000  -0.0000000
 NQMom=    2.0440000   0.0000000   0.0000000   2.0440000   0.0000000   0.0000000   2.0440000   0.0000000   0.0000000   2.0440000
 NMagM=    0.4037610   2.7928460   0.0000000   0.4037610   2.7928460   0.0000000   0.4037610   0.0000000   0.0000000   0.4037610
 AtZNuc=   7.0000000   1.0000000   6.0000000   7.0000000   1.0000000   6.0000000   7.0000000   6.0000000   6.0000000   7.0000000
 Leave Link  101 at Sat Jan 27 02:39:12 2018, MaxMem=  4294967296 cpu:               7.7 elap:               0.3
 (Enter /share/apps/g16/l202.exe)
 Stoichiometry    C23H27N17O3
 Framework group  C1[X(C23H27N17O3)]
 Deg. of freedom   204
 Full point group                 C1      NOp   1
 Largest Abelian subgroup         C1      NOp   1
 Largest concise Abelian subgroup C1      NOp   1
                         Standard orientation:                         
 ---------------------------------------------------------------------
 Center     Atomic      Atomic             Coordinates (Angstroms)
 Number     Number       Type             X           Y           Z
 ---------------------------------------------------------------------
      1          7           0       -6.903503   -1.632520    0.280987
      2          6           0       -8.284488   -1.200952   -0.009948
      3          6           0       -4.746833   -1.644394    0.712202
      4          7           0       -5.143374   -2.973451    0.679429
      5          6           0       -6.426814   -2.913110    0.420951
      6          1           0       -7.080498   -3.780046    0.320669
      7          7           0       -3.447872    0.314986    0.903203
      8          6           0       -4.572799    0.993514    0.654786
      9          1           0       -4.467912    2.077482    0.637859
     10          7           0       -5.802063    0.536248    0.425217
     11          6           0       -5.820856   -0.806217    0.468369
     12          6           0       -3.499825   -1.034467    0.939981
     13          7           0       -2.377956   -1.713555    1.187810
     14          1           0       -2.369747   -2.713468    1.224384
     15          1           0       -1.507908   -1.246254    1.345273
     16          1           0       -8.895718   -1.525735    0.711911
     17          1           0       -8.320726   -0.202933   -0.052063
     18          1           0       -8.576689   -1.580747   -0.887661
     19          7           0       -1.790271    3.082582   -1.745205
     20          6           0       -0.560856    2.534575   -1.468985
     21          6           0       -2.139255    4.510646   -1.605392
     22          7           0        2.728053    2.902230   -0.415597
     23          1           0        3.527217    2.318420   -0.275078
     24          1           0        2.836996    3.876345   -0.215735
     25          7           0        0.526144    3.203241   -1.027003
     26          6           0        1.562249    2.402224   -0.852389
     27          7           0        1.537776    1.049590   -1.091730
     28          1           0        2.377629    0.515171   -0.930481
     29          6           0        0.430470    0.340568   -1.546749
     30          8           0        0.513956   -0.880019   -1.730933
     31          6           0       -0.690388    1.187684   -1.738982
     32          7           0       -1.975262    0.895973   -2.175906
     33          6           0       -2.590272    2.047416   -2.163624
     34          1           0       -3.631315    2.198464   -2.451197
     35          1           0       -2.887099    4.610106   -0.949920
     36          1           0       -1.341731    5.016016   -1.278575
     37          1           0       -2.422769    4.874548   -2.491957
     38          1           0        6.677089   -1.673068    0.675442
     39          1           0        7.084627   -1.649283   -1.038613
     40          1           0        6.070610   -0.377380   -0.356417
     41          1           0        4.096489   -5.417199   -0.895735
     42          6           0        4.051630   -4.328073   -0.891283
     43          8           0        1.745213   -4.237284   -1.438399
     44          6           0        2.809704   -3.677283   -1.177528
     45          1           0        2.004605   -1.803048   -1.342946
     46          7           0        2.862806   -2.298366   -1.145768
     47          8           0        3.907614   -0.301038   -0.869630
     48          6           0        3.958951   -1.518412   -0.874323
     49          1           0        6.106063   -4.040708   -0.398826
     50          6           0        5.138054   -3.594449   -0.622787
     51          6           0        6.316617   -1.427939   -0.312502
     52          7           0        5.118926   -2.219031   -0.608249
     53          1           0        3.086574    4.578980    2.245438
     54          1           0        2.033500    4.308189    1.028971
     55          1           0        3.639885    4.245763    0.746692
     56          1           0        1.056080   -2.558222    2.191905
     57          1           0        2.616283   -2.045400    2.653307
     58          7           0        1.720373   -1.814949    2.271909
     59          6           0        1.425630   -0.571394    1.887375
     60          6           0        1.872878    1.739617    1.539580
     61          7           0        0.661671    2.019980    1.030876
     62          1           0       -1.097755    1.063681    0.594413
     63          6           0       -0.094557    0.924663    0.995080
     64          7           0        0.198824   -0.321756    1.379741
     65          1           0        4.898256    2.304628    2.529533
     66          6           0        3.935783    1.860949    2.273150
     67          7           0        3.629305    0.597712    2.440405
     68          6           0        2.323969    0.507253    1.979268
     69          6           0        2.919824    4.050864    1.412800
     70          7           0        2.919395    2.610048    1.732279
 ---------------------------------------------------------------------
 Rotational constants (GHZ):           0.1224249           0.0557628           0.0456592
 Leave Link  202 at Sat Jan 27 02:39:12 2018, MaxMem=  4294967296 cpu:               0.3 elap:               0.0
 (Enter /share/apps/g16/l301.exe)
 Standard basis: CC-pVDZ (5D, 7F)
 Ernie: Thresh=  0.10000D-02 Tol=  0.10000D-05 Strict=F.
 Ernie:  86 primitive shells out of 1081 were deleted.
 There are   780 symmetry adapted cartesian basis functions of A   symmetry.
 There are   737 symmetry adapted basis functions of A   symmetry.
   737 basis functions,  1608 primitive gaussians,   780 cartesian basis functions
   154 alpha electrons      154 beta electrons
       nuclear repulsion energy      5476.8949399730 Hartrees.
 IExCor= 4639 DFT=T Ex+Corr=wB97XD ExCW=0 ScaHFX=  1.000000
 ScaDFX=  1.000000  1.000000  1.000000  1.000000 ScalE2=  1.000000  1.000000
 IRadAn=      5 IRanWt=     -1 IRanGd=            0 ICorTp=0 IEmpDi=121
 HFx  wShort=  0.000000 wLong=  0.200000 cFull=  0.222036 cShort=  0.000000 cLong=  0.777964
 DFx  wShort=  0.000000 wLong=  0.200000 cFull=  0.000000 cShort=  0.000000 cLong=  1.000000
 NAtoms=   70 NActive=   70 NUniq=   70 SFac= 1.00D+00 NAtFMM=   60 NAOKFM=T Big=T
 Integral buffers will be    131072 words long.
 Raffenetti 2 integral format.
 Two-electron integral symmetry is turned on.
 R6Disp:  Grimme-D2 Dispersion energy=       -0.0681091076 Hartrees.
 Nuclear repulsion after empirical dispersion term =     5476.8268308655 Hartrees.
 Leave Link  301 at Sat Jan 27 02:39:12 2018, MaxMem=  4294967296 cpu:               2.2 elap:               0.1
 (Enter /share/apps/g16/l302.exe)
 NPDir=0 NMtPBC=     1 NCelOv=     1 NCel=       1 NClECP=     1 NCelD=      1
         NCelK=      1 NCelE2=     1 NClLst=     1 CellRange=     0.0.
 One-electron integrals computed using PRISM.
 One-electron integral symmetry used in STVInt
 NBasis=   737 RedAO= T EigKep=  6.67D-04  NBF=   737
 NBsUse=   737 1.00D-06 EigRej= -1.00D+00 NBFU=   737
 Precomputing XC quadrature grid using
 IXCGrd= 4 IRadAn=           5 IRanWt=          -1 IRanGd=           0 AccXCQ= 0.00D+00.
 Generated NRdTot=       0 NPtTot=           0 NUsed=           0 NTot=          32
 NSgBfM=   764   764   764   764   764 MxSgAt=    70 MxSgA2=    70.
 Leave Link  302 at Sat Jan 27 02:39:16 2018, MaxMem=  4294967296 cpu:             134.1 elap:               4.2
 (Enter /share/apps/g16/l303.exe)
 DipDrv:  MaxL=1.
 Leave Link  303 at Sat Jan 27 02:39:16 2018, MaxMem=  4294967296 cpu:              12.5 elap:               0.4
 (Enter /share/apps/g16/l401.exe)
 ExpMin= 1.22D-01 ExpMax= 1.17D+04 ExpMxC= 4.01D+02 IAcc=3 IRadAn=         5 AccDes= 0.00D+00
 Harris functional with IExCor= 4639 and IRadAn=       5 diagonalized for initial guess.
 HarFok:  IExCor= 4639 AccDes= 0.00D+00 IRadAn=         5 IDoV= 1 UseB2=F ITyADJ=14
 ICtDFT=  3500011 ScaDFX=  1.000000  1.000000  1.000000  1.000000
 FoFCou: FMM=F IPFlag=           0 FMFlag=      100000 FMFlg1=        2001
         NFxFlg=           0 DoJE=T BraDBF=F KetDBF=T FulRan=T
         wScrn=  0.000000 ICntrl=       500 IOpCl=  0 I1Cent=   200000004 NGrid=           0
         NMat0=    1 NMatS0=      1 NMatT0=    0 NMatD0=    1 NMtDS0=    0 NMtDT0=    0
 Petite list used in FoFCou.
 Harris En= -1963.68171933561    
 JPrj=0 DoOrth=F DoCkMO=F.
 Leave Link  401 at Sat Jan 27 02:39:29 2018, MaxMem=  4294967296 cpu:             393.1 elap:              12.3
 (Enter /share/apps/g16/l502.exe)
 Integral symmetry usage will be decided dynamically.
 Closed shell SCF:
 Using DIIS extrapolation, IDIIS=  1040.
 NGot=  4294967296 LenX=  4293717438 LenY=  4293108258
 Requested convergence on RMS density matrix=1.00D-08 within  20 cycles.
 Requested convergence on MAX density matrix=1.00D-06.
 Requested convergence on             energy=1.00D-06.
 No special actions if energy rises.
 Fock matrices will be formed incrementally for  20 cycles.
 Integral accuracy reduced to 1.0D-05 until final iterations.

 Cycle   1  Pass 0  IDiag  1:
 FoFJK:  IHMeth= 1 ICntrl=       0 DoSepK=T KAlg= 0 I1Cent=           0 FoldK=F
 IRaf=         1 NMat=       1 IRICut=       1 DoRegI=T DoRafI=F ISym2E= 0 IDoP0=0 IntGTp=1.
 FoFCou: FMM=T IPFlag=           0 FMFlag=      100000 FMFlg1=        2001
         NFxFlg=           0 DoJE=T BraDBF=F KetDBF=F FulRan=T
         wScrn=  0.000000 ICntrl=       500 IOpCl=  0 I1Cent=           0 NGrid=           0
         NMat0=    1 NMatS0=      1 NMatT0=    0 NMatD0=    1 NMtDS0=    0 NMtDT0=    0
 Symmetry not used in FoFCou.
 FMM levels:  10  Number of levels for PrismC:   9
 E= -2048.13813972427    
 DIIS: error= 2.54D-02 at cycle   1 NSaved=   1.
 NSaved= 1 IEnMin= 1 EnMin= -2048.13813972427     IErMin= 1 ErrMin= 2.54D-02
 ErrMax= 2.54D-02  0.00D+00 EMaxC= 1.00D-01 BMatC= 8.38D-01 BMatP= 8.38D-01
 IDIUse=3 WtCom= 7.46D-01 WtEn= 2.54D-01
 Coeff-Com:  0.100D+01
 Coeff-En:   0.100D+01
 Coeff:      0.100D+01
 Gap=     0.271 Goal=   None    Shift=    0.000
 GapD=    0.271 DampG=1.000 DampE=0.500 DampFc=0.5000 IDamp=-1.
 Damping current iteration by 5.00D-01
 RMSDP=1.65D-03 MaxDP=1.30D-01              OVMax= 2.13D-01

 Cycle   2  Pass 0  IDiag  1:
 RMSU=  8.22D-04    CP:  9.97D-01
 E= -2048.33706916982     Delta-E=       -0.198929445546 Rises=F Damp=T
 DIIS: error= 1.28D-02 at cycle   2 NSaved=   2.
 NSaved= 2 IEnMin= 2 EnMin= -2048.33706916982     IErMin= 2 ErrMin= 1.28D-02
 ErrMax= 1.28D-02  0.00D+00 EMaxC= 1.00D-01 BMatC= 1.46D-01 BMatP= 8.38D-01
 IDIUse=3 WtCom= 8.72D-01 WtEn= 1.28D-01
 Coeff-Com: -0.182D+00 0.118D+01
 Coeff-En:   0.000D+00 0.100D+01
 Coeff:     -0.158D+00 0.116D+01
 Gap=     0.349 Goal=   None    Shift=    0.000
 RMSDP=6.10D-04 MaxDP=3.31D-02 DE=-1.99D-01 OVMax= 1.59D-01

 Cycle   3  Pass 0  IDiag  1:
 RMSU=  6.00D-04    CP:  9.93D-01  1.12D+00
 E= -2048.52192483733     Delta-E=       -0.184855667510 Rises=F Damp=F
 DIIS: error= 9.99D-03 at cycle   3 NSaved=   3.
 NSaved= 3 IEnMin= 3 EnMin= -2048.52192483733     IErMin= 3 ErrMin= 9.99D-03
 ErrMax= 9.99D-03  0.00D+00 EMaxC= 1.00D-01 BMatC= 6.46D-02 BMatP= 1.46D-01
 IDIUse=3 WtCom= 9.00D-01 WtEn= 9.99D-02
 Coeff-Com: -0.228D+00 0.543D+00 0.685D+00
 Coeff-En:   0.000D+00 0.000D+00 0.100D+01
 Coeff:     -0.205D+00 0.489D+00 0.716D+00
 Gap=     0.273 Goal=   None    Shift=    0.000
 RMSDP=3.80D-04 MaxDP=3.36D-02 DE=-1.85D-01 OVMax= 6.44D-02

 Cycle   4  Pass 0  IDiag  1:
 RMSU=  2.16D-04    CP:  9.94D-01  1.41D+00  6.73D-01
 E= -2048.56955822600     Delta-E=       -0.047633388672 Rises=F Damp=F
 DIIS: error= 3.92D-03 at cycle   4 NSaved=   4.
 NSaved= 4 IEnMin= 4 EnMin= -2048.56955822600     IErMin= 4 ErrMin= 3.92D-03
 ErrMax= 3.92D-03  0.00D+00 EMaxC= 1.00D-01 BMatC= 1.08D-02 BMatP= 6.46D-02
 IDIUse=3 WtCom= 9.61D-01 WtEn= 3.92D-02
 Coeff-Com: -0.930D-01 0.180D+00 0.391D+00 0.521D+00
 Coeff-En:   0.000D+00 0.000D+00 0.998D-01 0.900D+00
 Coeff:     -0.894D-01 0.173D+00 0.380D+00 0.536D+00
 Gap=     0.272 Goal=   None    Shift=    0.000
 RMSDP=1.42D-04 MaxDP=1.24D-02 DE=-4.76D-02 OVMax= 1.61D-02

 Cycle   5  Pass 0  IDiag  1:
 RMSU=  6.56D-05    CP:  9.93D-01  1.37D+00  8.16D-01  6.01D-01
 E= -2048.57851692321     Delta-E=       -0.008958697212 Rises=F Damp=F
 DIIS: error= 6.03D-04 at cycle   5 NSaved=   5.
 NSaved= 5 IEnMin= 5 EnMin= -2048.57851692321     IErMin= 5 ErrMin= 6.03D-04
 ErrMax= 6.03D-04  0.00D+00 EMaxC= 1.00D-01 BMatC= 3.47D-04 BMatP= 1.08D-02
 IDIUse=3 WtCom= 9.94D-01 WtEn= 6.03D-03
 Coeff-Com: -0.240D-01 0.407D-01 0.128D+00 0.244D+00 0.611D+00
 Coeff-En:   0.000D+00 0.000D+00 0.000D+00 0.000D+00 0.100D+01
 Coeff:     -0.239D-01 0.404D-01 0.128D+00 0.242D+00 0.613D+00
 Gap=     0.273 Goal=   None    Shift=    0.000
 RMSDP=3.01D-05 MaxDP=1.93D-03 DE=-8.96D-03 OVMax= 4.87D-03

 Failed to achieve initial convergence to 1.0D-08 in  6 cycles.
 Switch to full accuracy anyway.
 Cycle   6  Pass 1  IDiag  1:
 E= -2048.57904869751     Delta-E=       -0.000531774300 Rises=F Damp=F
 DIIS: error= 2.01D-04 at cycle   1 NSaved=   1.
 NSaved= 1 IEnMin= 1 EnMin= -2048.57904869751     IErMin= 1 ErrMin= 2.01D-04
 ErrMax= 2.01D-04  0.00D+00 EMaxC= 1.00D-01 BMatC= 7.97D-05 BMatP= 7.97D-05
 IDIUse=3 WtCom= 9.98D-01 WtEn= 2.01D-03
 Coeff-Com:  0.100D+01
 Coeff-En:   0.100D+01
 Coeff:      0.100D+01
 Gap=     0.272 Goal=   None    Shift=    0.000
 RMSDP=3.01D-05 MaxDP=1.93D-03 DE=-5.32D-04 OVMax= 2.89D-03

 Cycle   7  Pass 1  IDiag  1:
 RMSU=  1.05D-04    CP:  1.00D+00
 E= -2048.57909800966     Delta-E=       -0.000049312154 Rises=F Damp=F
 DIIS: error= 1.90D-04 at cycle   2 NSaved=   2.
 NSaved= 2 IEnMin= 2 EnMin= -2048.57909800966     IErMin= 2 ErrMin= 1.90D-04
 ErrMax= 1.90D-04  0.00D+00 EMaxC= 1.00D-01 BMatC= 5.84D-05 BMatP= 7.97D-05
 IDIUse=3 WtCom= 9.98D-01 WtEn= 1.90D-03
 Coeff-Com:  0.449D+00 0.551D+00
 Coeff-En:   0.149D+00 0.851D+00
 Coeff:      0.449D+00 0.551D+00
 Gap=     0.273 Goal=   None    Shift=    0.000
 RMSDP=1.36D-05 MaxDP=1.15D-03 DE=-4.93D-05 OVMax= 2.19D-03

 Cycle   8  Pass 1  IDiag  1:
 RMSU=  1.35D-05    CP:  1.00D+00  1.02D+00
 E= -2048.57914378213     Delta-E=       -0.000045772468 Rises=F Damp=F
 DIIS: error= 7.56D-05 at cycle   3 NSaved=   3.
 NSaved= 3 IEnMin= 3 EnMin= -2048.57914378213     IErMin= 3 ErrMin= 7.56D-05
 ErrMax= 7.56D-05  0.00D+00 EMaxC= 1.00D-01 BMatC= 1.00D-05 BMatP= 5.84D-05
 IDIUse=1 WtCom= 1.00D+00 WtEn= 0.00D+00
 Coeff-Com: -0.187D-01 0.276D+00 0.742D+00
 Coeff:     -0.187D-01 0.276D+00 0.742D+00
 Gap=     0.273 Goal=   None    Shift=    0.000
 RMSDP=6.18D-06 MaxDP=3.43D-04 DE=-4.58D-05 OVMax= 8.32D-04

 Cycle   9  Pass 1  IDiag  1:
 RMSU=  4.32D-06    CP:  1.00D+00  1.05D+00  7.91D-01
 E= -2048.57915413884     Delta-E=       -0.000010356707 Rises=F Damp=F
 DIIS: error= 4.01D-05 at cycle   4 NSaved=   4.
 NSaved= 4 IEnMin= 4 EnMin= -2048.57915413884     IErMin= 4 ErrMin= 4.01D-05
 ErrMax= 4.01D-05  0.00D+00 EMaxC= 1.00D-01 BMatC= 6.60D-07 BMatP= 1.00D-05
 IDIUse=1 WtCom= 1.00D+00 WtEn= 0.00D+00
 Coeff-Com: -0.364D-01 0.769D-01 0.289D+00 0.670D+00
 Coeff:     -0.364D-01 0.769D-01 0.289D+00 0.670D+00
 Gap=     0.273 Goal=   None    Shift=    0.000
 RMSDP=1.72D-06 MaxDP=1.23D-04 DE=-1.04D-05 OVMax= 4.68D-04

 Cycle  10  Pass 1  IDiag  1:
 RMSU=  1.49D-06    CP:  1.00D+00  1.05D+00  8.32D-01  1.13D+00
 E= -2048.57915524117     Delta-E=       -0.000001102327 Rises=F Damp=F
 DIIS: error= 1.47D-05 at cycle   5 NSaved=   5.
 NSaved= 5 IEnMin= 5 EnMin= -2048.57915524117     IErMin= 5 ErrMin= 1.47D-05
 ErrMax= 1.47D-05  0.00D+00 EMaxC= 1.00D-01 BMatC= 1.41D-07 BMatP= 6.60D-07
 IDIUse=1 WtCom= 1.00D+00 WtEn= 0.00D+00
 Coeff-Com: -0.480D-02-0.484D-01-0.124D+00 0.196D+00 0.980D+00
 Coeff:     -0.480D-02-0.484D-01-0.124D+00 0.196D+00 0.980D+00
 Gap=     0.273 Goal=   None    Shift=    0.000
 RMSDP=1.41D-06 MaxDP=7.52D-05 DE=-1.10D-06 OVMax= 2.80D-04

 Cycle  11  Pass 1  IDiag  1:
 RMSU=  5.50D-07    CP:  1.00D+00  1.05D+00  8.40D-01  1.42D+00  1.21D+00
 E= -2048.57915557996     Delta-E=       -0.000000338790 Rises=F Damp=F
 DIIS: error= 9.73D-06 at cycle   6 NSaved=   6.
 NSaved= 6 IEnMin= 6 EnMin= -2048.57915557996     IErMin= 6 ErrMin= 9.73D-06
 ErrMax= 9.73D-06  0.00D+00 EMaxC= 1.00D-01 BMatC= 3.80D-08 BMatP= 1.41D-07
 IDIUse=1 WtCom= 1.00D+00 WtEn= 0.00D+00
 Coeff-Com:  0.500D-02-0.405D-01-0.125D+00-0.892D-02 0.535D+00 0.634D+00
 Coeff:      0.500D-02-0.405D-01-0.125D+00-0.892D-02 0.535D+00 0.634D+00
 Gap=     0.273 Goal=   None    Shift=    0.000
 RMSDP=4.69D-07 MaxDP=3.11D-05 DE=-3.39D-07 OVMax= 1.15D-04

 Cycle  12  Pass 1  IDiag  1:
 RMSU=  2.21D-07    CP:  1.00D+00  1.05D+00  8.43D-01  1.50D+00  1.35D+00
                    CP:  9.23D-01
 E= -2048.57915563503     Delta-E=       -0.000000055070 Rises=F Damp=F
 DIIS: error= 1.42D-06 at cycle   7 NSaved=   7.
 NSaved= 7 IEnMin= 7 EnMin= -2048.57915563503     IErMin= 7 ErrMin= 1.42D-06
 ErrMax= 1.42D-06  0.00D+00 EMaxC= 1.00D-01 BMatC= 1.04D-09 BMatP= 3.80D-08
 IDIUse=1 WtCom= 1.00D+00 WtEn= 0.00D+00
 Coeff-Com:  0.139D-02-0.764D-02-0.259D-01-0.985D-02 0.807D-01 0.149D+00
 Coeff-Com:  0.812D+00
 Coeff:      0.139D-02-0.764D-02-0.259D-01-0.985D-02 0.807D-01 0.149D+00
 Coeff:      0.812D+00
 Gap=     0.273 Goal=   None    Shift=    0.000
 RMSDP=1.05D-07 MaxDP=6.61D-06 DE=-5.51D-08 OVMax= 2.71D-05

 Cycle  13  Pass 1  IDiag  1:
 RMSU=  6.51D-08    CP:  1.00D+00  1.05D+00  8.42D-01  1.51D+00  1.37D+00
                    CP:  1.02D+00  1.14D+00
 E= -2048.57915563743     Delta-E=       -0.000000002402 Rises=F Damp=F
 DIIS: error= 1.14D-06 at cycle   8 NSaved=   8.
 NSaved= 8 IEnMin= 8 EnMin= -2048.57915563743     IErMin= 8 ErrMin= 1.14D-06
 ErrMax= 1.14D-06  0.00D+00 EMaxC= 1.00D-01 BMatC= 5.10D-10 BMatP= 1.04D-09
 IDIUse=1 WtCom= 1.00D+00 WtEn= 0.00D+00
 Coeff-Com: -0.755D-03 0.811D-02 0.233D-01-0.150D-02-0.117D+00-0.116D+00
 Coeff-Com:  0.418D+00 0.786D+00
 Coeff:     -0.755D-03 0.811D-02 0.233D-01-0.150D-02-0.117D+00-0.116D+00
 Coeff:      0.418D+00 0.786D+00
 Gap=     0.273 Goal=   None    Shift=    0.000
 RMSDP=7.04D-08 MaxDP=4.03D-06 DE=-2.40D-09 OVMax= 1.87D-05

 Cycle  14  Pass 1  IDiag  1:
 RMSU=  3.54D-08    CP:  1.00D+00  1.05D+00  8.42D-01  1.51D+00  1.38D+00
                    CP:  1.07D+00  1.34D+00  1.10D+00
 E= -2048.57915563833     Delta-E=       -0.000000000904 Rises=F Damp=F
 DIIS: error= 3.19D-07 at cycle   9 NSaved=   9.
 NSaved= 9 IEnMin= 9 EnMin= -2048.57915563833     IErMin= 9 ErrMin= 3.19D-07
 ErrMax= 3.19D-07  0.00D+00 EMaxC= 1.00D-01 BMatC= 6.45D-11 BMatP= 5.10D-10
 IDIUse=1 WtCom= 1.00D+00 WtEn= 0.00D+00
 Coeff-Com: -0.549D-03 0.502D-02 0.148D-01 0.101D-02-0.658D-01-0.757D-01
 Coeff-Com:  0.111D+00 0.369D+00 0.641D+00
 Coeff:     -0.549D-03 0.502D-02 0.148D-01 0.101D-02-0.658D-01-0.757D-01
 Coeff:      0.111D+00 0.369D+00 0.641D+00
 Gap=     0.273 Goal=   None    Shift=    0.000
 RMSDP=1.88D-08 MaxDP=1.13D-06 DE=-9.04D-10 OVMax= 3.90D-06

 Cycle  15  Pass 1  IDiag  1:
 RMSU=  1.18D-08    CP:  1.00D+00  1.05D+00  8.42D-01  1.51D+00  1.39D+00
                    CP:  1.08D+00  1.37D+00  1.26D+00  1.09D+00
 E= -2048.57915563842     Delta-E=       -0.000000000087 Rises=F Damp=F
 DIIS: error= 1.51D-07 at cycle  10 NSaved=  10.
 NSaved=10 IEnMin=10 EnMin= -2048.57915563842     IErMin=10 ErrMin= 1.51D-07
 ErrMax= 1.51D-07  0.00D+00 EMaxC= 1.00D-01 BMatC= 7.04D-12 BMatP= 6.45D-11
 IDIUse=1 WtCom= 1.00D+00 WtEn= 0.00D+00
 Coeff-Com: -0.109D-04-0.162D-03-0.438D-03 0.255D-03 0.398D-02 0.472D-04
 Coeff-Com: -0.538D-01-0.523D-01 0.192D+00 0.911D+00
 Coeff:     -0.109D-04-0.162D-03-0.438D-03 0.255D-03 0.398D-02 0.472D-04
 Coeff:     -0.538D-01-0.523D-01 0.192D+00 0.911D+00
 Gap=     0.273 Goal=   None    Shift=    0.000
 RMSDP=1.11D-08 MaxDP=5.15D-07 DE=-8.73D-11 OVMax= 3.29D-06

 Cycle  16  Pass 1  IDiag  1:
 RMSU=  4.61D-09    CP:  1.00D+00  1.05D+00  8.42D-01  1.51D+00  1.39D+00
                    CP:  1.08D+00  1.39D+00  1.34D+00  1.27D+00  1.13D+00
 E= -2048.57915563828     Delta-E=        0.000000000136 Rises=F Damp=F
 DIIS: error= 7.44D-08 at cycle  11 NSaved=  11.
 NSaved=11 IEnMin=10 EnMin= -2048.57915563842     IErMin=11 ErrMin= 7.44D-08
 ErrMax= 7.44D-08  0.00D+00 EMaxC= 1.00D-01 BMatC= 1.92D-12 BMatP= 7.04D-12
 IDIUse=1 WtCom= 1.00D+00 WtEn= 0.00D+00
 Coeff-Com:  0.696D-04-0.746D-03-0.221D-02-0.215D-04 0.109D-01 0.104D-01
 Coeff-Com: -0.398D-01-0.722D-01-0.147D-01 0.425D+00 0.683D+00
 Coeff:      0.696D-04-0.746D-03-0.221D-02-0.215D-04 0.109D-01 0.104D-01
 Coeff:     -0.398D-01-0.722D-01-0.147D-01 0.425D+00 0.683D+00
 Gap=     0.273 Goal=   None    Shift=    0.000
 RMSDP=3.45D-09 MaxDP=1.67D-07 DE= 1.36D-10 OVMax= 7.53D-07

 SCF Done:  E(RwB97XD) =  -2048.57915564     A.U. after   16 cycles
            NFock= 16  Conv=0.35D-08     -V/T= 2.0049
 KE= 2.038608146503D+03 PE=-1.573473472661D+04 EE= 6.170720593607D+03
 Leave Link  502 at Sat Jan 27 02:51:44 2018, MaxMem=  4294967296 cpu:           22727.7 elap:             734.8
 (Enter /share/apps/g16/l601.exe)
 Copying SCF densities to generalized density rwf, IOpCl= 0 IROHF=0.

 **********************************************************************

            Population analysis using the SCF density.

 **********************************************************************

 Orbital symmetries:
       Occupied  (A) (A) (A) (A) (A) (A) (A) (A) (A) (A) (A) (A)
                 (A) (A) (A) (A) (A) (A) (A) (A) (A) (A) (A) (A)
                 (A) (A) (A) (A) (A) (A) (A) (A) (A) (A) (A) (A)
                 (A) (A) (A) (A) (A) (A) (A) (A) (A) (A) (A) (A)
                 (A) (A) (A) (A) (A) (A) (A) (A) (A) (A) (A) (A)
                 (A) (A) (A) (A) (A) (A) (A) (A) (A) (A) (A) (A)
                 (A) (A) (A) (A) (A) (A) (A) (A) (A) (A) (A) (A)
                 (A) (A) (A) (A) (A) (A) (A) (A) (A) (A) (A) (A)
                 (A) (A) (A) (A) (A) (A) (A) (A) (A) (A) (A) (A)
                 (A) (A) (A) (A) (A) (A) (A) (A) (A) (A) (A) (A)
                 (A) (A) (A) (A) (A) (A) (A) (A) (A) (A) (A) (A)
                 (A) (A) (A) (A) (A) (A) (A) (A) (A) (A) (A) (A)
                 (A) (A) (A) (A) (A) (A) (A) (A) (A) (A)
       Virtual   (A) (A) (A) (A) (A) (A) (A) (A) (A) (A) (A) (A)
                 (A) (A) (A) (A) (A) (A) (A) (A) (A) (A) (A) (A)
                 (A) (A) (A) (A) (A) (A) (A) (A) (A) (A) (A) (A)
                 (A) (A) (A) (A) (A) (A) (A) (A) (A) (A) (A) (A)
                 (A) (A) (A) (A) (A) (A) (A) (A) (A) (A) (A) (A)
                 (A) (A) (A) (A) (A) (A) (A) (A) (A) (A) (A) (A)
                 (A) (A) (A) (A) (A) (A) (A) (A) (A) (A) (A) (A)
                 (A) (A) (A) (A) (A) (A) (A) (A) (A) (A) (A) (A)
                 (A) (A) (A) (A) (A) (A) (A) (A) (A) (A) (A) (A)
                 (A) (A) (A) (A) (A) (A) (A) (A) (A) (A) (A) (A)
                 (A) (A) (A) (A) (A) (A) (A) (A) (A) (A) (A) (A)
                 (A) (A) (A) (A) (A) (A) (A) (A) (A) (A) (A) (A)
                 (A) (A) (A) (A) (A) (A) (A) (A) (A) (A) (A) (A)
                 (A) (A) (A) (A) (A) (A) (A) (A) (A) (A) (A) (A)
                 (A) (A) (A) (A) (A) (A) (A) (A) (A) (A) (A) (A)
                 (A) (A) (A) (A) (A) (A) (A) (A) (A) (A) (A) (A)
                 (A) (A) (A) (A) (A) (A) (A) (A) (A) (A) (A) (A)
                 (A) (A) (A) (A) (A) (A) (A) (A) (A) (A) (A) (A)
                 (A) (A) (A) (A) (A) (A) (A) (A) (A) (A) (A) (A)
                 (A) (A) (A) (A) (A) (A) (A) (A) (A) (A) (A) (A)
                 (A) (A) (A) (A) (A) (A) (A) (A) (A) (A) (A) (A)
                 (A) (A) (A) (A) (A) (A) (A) (A) (A) (A) (A) (A)
                 (A) (A) (A) (A) (A) (A) (A) (A) (A) (A) (A) (A)
                 (A) (A) (A) (A) (A) (A) (A) (A) (A) (A) (A) (A)
                 (A) (A) (A) (A) (A) (A) (A) (A) (A) (A) (A) (A)
                 (A) (A) (A) (A) (A) (A) (A) (A) (A) (A) (A) (A)
                 (A) (A) (A) (A) (A) (A) (A) (A) (A) (A) (A) (A)
                 (A) (A) (A) (A) (A) (A) (A) (A) (A) (A) (A) (A)
                 (A) (A) (A) (A) (A) (A) (A) (A) (A) (A) (A) (A)
                 (A) (A) (A) (A) (A) (A) (A) (A) (A) (A) (A) (A)
                 (A) (A) (A) (A) (A) (A) (A) (A) (A) (A) (A) (A)
                 (A) (A) (A) (A) (A) (A) (A) (A) (A) (A) (A) (A)
                 (A) (A) (A) (A) (A) (A) (A) (A) (A) (A) (A) (A)
                 (A) (A) (A) (A) (A) (A) (A) (A) (A) (A) (A) (A)
                 (A) (A) (A) (A) (A) (A) (A) (A) (A) (A) (A) (A)
                 (A) (A) (A) (A) (A) (A) (A) (A) (A) (A) (A) (A)
                 (A) (A) (A) (A) (A) (A) (A) (A) (A) (A) (A) (A)
                 (A) (A) (A) (A) (A) (A) (A) (A) (A) (A) (A) (A)
                 (A) (A) (A) (A) (A) (A) (A) (A) (A) (A) (A) (A)
                 (A) (A) (A) (A) (A) (A) (A) (A) (A) (A) (A) (A)
                 (A) (A) (A) (A) (A) (A) (A) (A) (A) (A) (A) (A)
                 (A) (A) (A) (A) (A) (A) (A) (A) (A) (A) (A) (A)
                 (A) (A) (A) (A) (A) (A) (A) (A) (A) (A) (A) (A)
                 (A) (A) (A) (A) (A) (A) (A) (A) (A) (A) (A) (A)
                 (A) (A) (A) (A) (A) (A) (A) (A) (A) (A) (A) (A)
                 (A) (A) (A) (A) (A) (A) (A) (A) (A) (A) (A) (A)
                 (A) (A) (A) (A) (A) (A) (A) (A) (A) (A) (A) (A)
                 (A) (A) (A) (A) (A) (A) (A) (A) (A) (A) (A) (A)
                 (A) (A) (A) (A) (A) (A) (A)
 The electronic state is 1-A.
 Alpha  occ. eigenvalues --  -19.25874 -19.21996 -19.20473 -14.52500 -14.51923
 Alpha  occ. eigenvalues --  -14.48948 -14.48775 -14.47913 -14.47620 -14.46015
 Alpha  occ. eigenvalues --  -14.45306 -14.44735 -14.43408 -14.42565 -14.42497
 Alpha  occ. eigenvalues --  -14.41664 -14.41423 -14.41078 -14.40830 -14.40320
 Alpha  occ. eigenvalues --  -10.45521 -10.41129 -10.40124 -10.39203 -10.38061
 Alpha  occ. eigenvalues --  -10.37861 -10.37469 -10.36181 -10.35639 -10.35282
 Alpha  occ. eigenvalues --  -10.34732 -10.34468 -10.34315 -10.34252 -10.33564
 Alpha  occ. eigenvalues --  -10.33410 -10.33276 -10.32046 -10.31170 -10.31042
 Alpha  occ. eigenvalues --  -10.30997 -10.28768 -10.28260  -1.19469  -1.15938
 Alpha  occ. eigenvalues --   -1.13162  -1.13021  -1.11549  -1.10616  -1.09378
 Alpha  occ. eigenvalues --   -1.09189  -1.08702  -1.05176  -1.04042  -1.03010
 Alpha  occ. eigenvalues --   -1.02511  -1.00666  -0.98825  -0.98455  -0.97181
 Alpha  occ. eigenvalues --   -0.96642  -0.96251  -0.92830  -0.91111  -0.88753
 Alpha  occ. eigenvalues --   -0.86363  -0.84210  -0.84119  -0.83699  -0.82631
 Alpha  occ. eigenvalues --   -0.82485  -0.78938  -0.76648  -0.74895  -0.74560
 Alpha  occ. eigenvalues --   -0.74111  -0.73405  -0.73121  -0.71260  -0.70438
 Alpha  occ. eigenvalues --   -0.67952  -0.66964  -0.66549  -0.66528  -0.65099
 Alpha  occ. eigenvalues --   -0.64459  -0.64028  -0.63785  -0.62921  -0.62733
 Alpha  occ. eigenvalues --   -0.60746  -0.60427  -0.60043  -0.59930  -0.59551
 Alpha  occ. eigenvalues --   -0.59521  -0.59071  -0.56900  -0.56594  -0.56507
 Alpha  occ. eigenvalues --   -0.56038  -0.55827  -0.55624  -0.54508  -0.54057
 Alpha  occ. eigenvalues --   -0.53911  -0.53483  -0.53368  -0.52979  -0.52723
 Alpha  occ. eigenvalues --   -0.52459  -0.51921  -0.51341  -0.50889  -0.50371
 Alpha  occ. eigenvalues --   -0.50151  -0.49508  -0.49429  -0.49000  -0.48846
 Alpha  occ. eigenvalues --   -0.48499  -0.48358  -0.48173  -0.47638  -0.47269
 Alpha  occ. eigenvalues --   -0.47127  -0.45679  -0.45278  -0.44039  -0.42209
 Alpha  occ. eigenvalues --   -0.41381  -0.39945  -0.39462  -0.38693  -0.37377
 Alpha  occ. eigenvalues --   -0.37214  -0.36909  -0.36136  -0.35493  -0.34310
 Alpha  occ. eigenvalues --   -0.33790  -0.33686  -0.33310  -0.33146  -0.32670
 Alpha  occ. eigenvalues --   -0.32604  -0.32017  -0.31895  -0.31696  -0.31043
 Alpha  occ. eigenvalues --   -0.30545  -0.28930  -0.26019  -0.24258
 Alpha virt. eigenvalues --    0.03044   0.03776   0.06940   0.07749   0.08373
 Alpha virt. eigenvalues --    0.09225   0.10024   0.10682   0.11487   0.12436
 Alpha virt. eigenvalues --    0.13397   0.13865   0.14013   0.14578   0.15099
 Alpha virt. eigenvalues --    0.15492   0.16085   0.16813   0.17206   0.17849
 Alpha virt. eigenvalues --    0.18884   0.19413   0.19847   0.19911   0.20367
 Alpha virt. eigenvalues --    0.20405   0.20591   0.20988   0.21239   0.21828
 Alpha virt. eigenvalues --    0.22342   0.23242   0.23385   0.23681   0.23807
 Alpha virt. eigenvalues --    0.23963   0.24251   0.24388   0.25281   0.25495
 Alpha virt. eigenvalues --    0.25920   0.26736   0.27766   0.28005   0.28167
 Alpha virt. eigenvalues --    0.28828   0.29449   0.29831   0.30585   0.30947
 Alpha virt. eigenvalues --    0.31519   0.31821   0.32735   0.33399   0.34035
 Alpha virt. eigenvalues --    0.34500   0.34878   0.35580   0.36159   0.36879
 Alpha virt. eigenvalues --    0.37583   0.37782   0.38217   0.39444   0.39951
 Alpha virt. eigenvalues --    0.40071   0.40475   0.40861   0.41416   0.41969
 Alpha virt. eigenvalues --    0.42582   0.42705   0.43738   0.44226   0.44663
 Alpha virt. eigenvalues --    0.45038   0.45383   0.46164   0.46684   0.47115
 Alpha virt. eigenvalues --    0.47869   0.48235   0.48790   0.49180   0.49731
 Alpha virt. eigenvalues --    0.49985   0.50330   0.50792   0.51184   0.51687
 Alpha virt. eigenvalues --    0.52131   0.52279   0.52992   0.53537   0.53840
 Alpha virt. eigenvalues --    0.54192   0.54437   0.54816   0.55532   0.55895
 Alpha virt. eigenvalues --    0.56303   0.56679   0.57208   0.57659   0.58223
 Alpha virt. eigenvalues --    0.58652   0.58758   0.59233   0.59619   0.59716
 Alpha virt. eigenvalues --    0.60255   0.60674   0.61069   0.61341   0.61753
 Alpha virt. eigenvalues --    0.62049   0.62398   0.62649   0.63407   0.63652
 Alpha virt. eigenvalues --    0.64136   0.64278   0.64707   0.65206   0.65828
 Alpha virt. eigenvalues --    0.66079   0.66441   0.66852   0.67202   0.67444
 Alpha virt. eigenvalues --    0.67654   0.67852   0.68441   0.68651   0.69041
 Alpha virt. eigenvalues --    0.69283   0.69693   0.70172   0.70550   0.70753
 Alpha virt. eigenvalues --    0.71987   0.72393   0.72787   0.73326   0.73742
 Alpha virt. eigenvalues --    0.74113   0.74470   0.75101   0.75267   0.75552
 Alpha virt. eigenvalues --    0.75623   0.76249   0.76304   0.76717   0.77000
 Alpha virt. eigenvalues --    0.77122   0.77826   0.78445   0.78574   0.78929
 Alpha virt. eigenvalues --    0.79284   0.79637   0.80038   0.80392   0.80489
 Alpha virt. eigenvalues --    0.81179   0.81814   0.82187   0.82380   0.83001
 Alpha virt. eigenvalues --    0.83467   0.83721   0.84357   0.84562   0.84622
 Alpha virt. eigenvalues --    0.85609   0.85913   0.86472   0.87098   0.87800
 Alpha virt. eigenvalues --    0.88327   0.88870   0.89257   0.89498   0.90146
 Alpha virt. eigenvalues --    0.90365   0.90690   0.91115   0.91338   0.92745
 Alpha virt. eigenvalues --    0.92898   0.93144   0.93663   0.94222   0.94745
 Alpha virt. eigenvalues --    0.95036   0.95265   0.95741   0.96137   0.96645
 Alpha virt. eigenvalues --    0.96815   0.97231   0.98043   0.98080   0.98951
 Alpha virt. eigenvalues --    0.99479   1.00037   1.00403   1.01333   1.01424
 Alpha virt. eigenvalues --    1.01864   1.02296   1.02723   1.02816   1.03549
 Alpha virt. eigenvalues --    1.04233   1.04886   1.05450   1.05780   1.06182
 Alpha virt. eigenvalues --    1.06418   1.06752   1.07858   1.08125   1.08936
 Alpha virt. eigenvalues --    1.09115   1.09836   1.10612   1.11204   1.11443
 Alpha virt. eigenvalues --    1.12265   1.13290   1.13450   1.13955   1.14230
 Alpha virt. eigenvalues --    1.14645   1.14991   1.15526   1.15906   1.16530
 Alpha virt. eigenvalues --    1.16969   1.17526   1.17803   1.18321   1.18751
 Alpha virt. eigenvalues --    1.18918   1.18990   1.19712   1.20003   1.20479
 Alpha virt. eigenvalues --    1.20894   1.21317   1.21738   1.22255   1.22416
 Alpha virt. eigenvalues --    1.22611   1.22969   1.23293   1.23687   1.23837
 Alpha virt. eigenvalues --    1.24431   1.25158   1.25592   1.26029   1.27141
 Alpha virt. eigenvalues --    1.27454   1.28167   1.28511   1.29237   1.30013
 Alpha virt. eigenvalues --    1.30633   1.30951   1.31472   1.31871   1.32953
 Alpha virt. eigenvalues --    1.33395   1.33874   1.34459   1.35098   1.35332
 Alpha virt. eigenvalues --    1.36384   1.37128   1.37602   1.38441   1.38784
 Alpha virt. eigenvalues --    1.39191   1.40384   1.40856   1.41660   1.42989
 Alpha virt. eigenvalues --    1.44237   1.44668   1.45648   1.46078   1.46625
 Alpha virt. eigenvalues --    1.47272   1.47745   1.48193   1.48806   1.49133
 Alpha virt. eigenvalues --    1.49459   1.50133   1.50362   1.51276   1.51657
 Alpha virt. eigenvalues --    1.52781   1.54005   1.55554   1.55867   1.56046
 Alpha virt. eigenvalues --    1.56120   1.57787   1.58345   1.58856   1.58947
 Alpha virt. eigenvalues --    1.59467   1.60259   1.60791   1.61516   1.62305
 Alpha virt. eigenvalues --    1.62720   1.62934   1.63695   1.64206   1.64882
 Alpha virt. eigenvalues --    1.65509   1.65823   1.66477   1.66802   1.67057
 Alpha virt. eigenvalues --    1.67271   1.68165   1.68542   1.68913   1.68988
 Alpha virt. eigenvalues --    1.69426   1.69780   1.70356   1.70535   1.71437
 Alpha virt. eigenvalues --    1.72062   1.72463   1.72741   1.73256   1.73391
 Alpha virt. eigenvalues --    1.73872   1.74585   1.75063   1.75249   1.75592
 Alpha virt. eigenvalues --    1.75715   1.76283   1.76719   1.76998   1.77971
 Alpha virt. eigenvalues --    1.78375   1.78936   1.79450   1.79516   1.79883
 Alpha virt. eigenvalues --    1.80018   1.80174   1.80437   1.80832   1.81059
 Alpha virt. eigenvalues --    1.81838   1.82427   1.82784   1.83247   1.83436
 Alpha virt. eigenvalues --    1.83894   1.84165   1.85469   1.86141   1.86635
 Alpha virt. eigenvalues --    1.86831   1.87280   1.87769   1.87952   1.88164
 Alpha virt. eigenvalues --    1.88496   1.88841   1.89374   1.90083   1.90336
 Alpha virt. eigenvalues --    1.90793   1.91576   1.92139   1.93024   1.93547
 Alpha virt. eigenvalues --    1.93895   1.93970   1.94530   1.95659   1.96044
 Alpha virt. eigenvalues --    1.97029   1.97771   1.98304   1.98766   1.99323
 Alpha virt. eigenvalues --    2.00165   2.00502   2.01584   2.01734   2.02366
 Alpha virt. eigenvalues --    2.02474   2.03451   2.03945   2.04816   2.05917
 Alpha virt. eigenvalues --    2.06459   2.06614   2.07171   2.07309   2.07801
 Alpha virt. eigenvalues --    2.08576   2.09109   2.10101   2.10359   2.11206
 Alpha virt. eigenvalues --    2.11364   2.12349   2.13118   2.13351   2.15511
 Alpha virt. eigenvalues --    2.15920   2.16651   2.17844   2.18545   2.19368
 Alpha virt. eigenvalues --    2.19727   2.20787   2.20848   2.21748   2.22119
 Alpha virt. eigenvalues --    2.22321   2.23848   2.24475   2.25054   2.25608
 Alpha virt. eigenvalues --    2.25764   2.26663   2.26847   2.28131   2.28763
 Alpha virt. eigenvalues --    2.29467   2.29622   2.29906   2.30225   2.31477
 Alpha virt. eigenvalues --    2.32110   2.33063   2.33136   2.33489   2.34436
 Alpha virt. eigenvalues --    2.34681   2.35257   2.35707   2.36143   2.36686
 Alpha virt. eigenvalues --    2.36954   2.37738   2.38848   2.39431   2.40107
 Alpha virt. eigenvalues --    2.41147   2.41219   2.41463   2.42183   2.42237
 Alpha virt. eigenvalues --    2.43216   2.43570   2.44172   2.44696   2.45041
 Alpha virt. eigenvalues --    2.45977   2.46899   2.47004   2.48869   2.49528
 Alpha virt. eigenvalues --    2.49779   2.50308   2.51321   2.52470   2.53402
 Alpha virt. eigenvalues --    2.54359   2.54821   2.55495   2.56682   2.56749
 Alpha virt. eigenvalues --    2.57527   2.59235   2.59397   2.59776   2.60419
 Alpha virt. eigenvalues --    2.61211   2.61481   2.62252   2.63929   2.64782
 Alpha virt. eigenvalues --    2.64941   2.65421   2.66622   2.66881   2.67156
 Alpha virt. eigenvalues --    2.68247   2.68748   2.68948   2.69546   2.69962
 Alpha virt. eigenvalues --    2.70590   2.71477   2.72930   2.73935   2.74045
 Alpha virt. eigenvalues --    2.74434   2.74751   2.75486   2.76155   2.77321
 Alpha virt. eigenvalues --    2.78867   2.79381   2.79893   2.79926   2.80094
 Alpha virt. eigenvalues --    2.80328   2.80822   2.81368   2.81587   2.82767
 Alpha virt. eigenvalues --    2.83285   2.83953   2.84338   2.84886   2.85767
 Alpha virt. eigenvalues --    2.86321   2.87220   2.87433   2.87596   2.89082
 Alpha virt. eigenvalues --    2.89366   2.90803   2.91486   2.93665   2.95209
 Alpha virt. eigenvalues --    2.98046   2.98232   2.98818   2.99761   3.01296
 Alpha virt. eigenvalues --    3.02935   3.03261   3.05086   3.05992   3.07275
 Alpha virt. eigenvalues --    3.09865   3.10960   3.14456   3.14513   3.15226
 Alpha virt. eigenvalues --    3.15510   3.16073   3.16914   3.19600   3.21953
 Alpha virt. eigenvalues --    3.22876   3.23638   3.23811   3.26629   3.39329
 Alpha virt. eigenvalues --    3.46139   3.47246   3.49697   3.50167   3.52722
 Alpha virt. eigenvalues --    3.53455   3.53907   3.56606   3.60282   3.61831
 Alpha virt. eigenvalues --    3.62543   3.71270   3.74480
          Condensed to atoms (all electrons):
 Mulliken charges:
               1
     1  N   -0.311391
     2  C    0.181186
     3  C    0.030403
     4  N   -0.260427
     5  C    0.134727
     6  H    0.027250
     7  N   -0.290102
     8  C    0.138459
     9  H    0.005143
    10  N   -0.288667
    11  C    0.246367
    12  C    0.126007
    13  N   -0.060423
    14  H    0.107387
    15  H    0.088231
    16  H    0.025222
    17  H    0.035120
    18  H    0.027125
    19  N   -0.312508
    20  C    0.230205
    21  C    0.182860
    22  N   -0.090100
    23  H    0.112014
    24  H    0.102270
    25  N   -0.241481
    26  C    0.120353
    27  N   -0.087307
    28  H    0.116038
    29  C    0.136759
    30  O   -0.316837
    31  C   -0.002009
    32  N   -0.216659
    33  C    0.126841
    34  H    0.030959
    35  H    0.027928
    36  H    0.025658
    37  H    0.024988
    38  H    0.060736
    39  H    0.059003
    40  H    0.075427
    41  H    0.032291
    42  C   -0.112267
    43  O   -0.263277
    44  C    0.176148
    45  H    0.134572
    46  N   -0.139866
    47  O   -0.345151
    48  C    0.359266
    49  H    0.047919
    50  C    0.168851
    51  C    0.043992
    52  N   -0.298376
    53  H    0.014263
    54  H    0.030196
    55  H   -0.008284
    56  H    0.122286
    57  H    0.115055
    58  N   -0.070318
    59  C    0.097451
    60  C    0.196496
    61  N   -0.249306
    62  H    0.070167
    63  C    0.152440
    64  N   -0.293659
    65  H    0.030526
    66  C    0.110313
    67  N   -0.261975
    68  C    0.055465
    69  C    0.271239
    70  N   -0.313210
 Sum of Mulliken charges =  -0.00000
 Mulliken charges with hydrogens summed into heavy atoms:
               1
     1  N   -0.311391
     2  C    0.268653
     3  C    0.030403
     4  N   -0.260427
     5  C    0.161976
     7  N   -0.290102
     8  C    0.143601
    10  N   -0.288667
    11  C    0.246367
    12  C    0.126007
    13  N    0.135195
    19  N   -0.312508
    20  C    0.230205
    21  C    0.261434
    22  N    0.124183
    25  N   -0.241481
    26  C    0.120353
    27  N    0.028731
    29  C    0.136759
    30  O   -0.316837
    31  C   -0.002009
    32  N   -0.216659
    33  C    0.157800
    42  C   -0.079976
    43  O   -0.263277
    44  C    0.176148
    46  N   -0.005294
    47  O   -0.345151
    48  C    0.359266
    50  C    0.216770
    51  C    0.239159
    52  N   -0.298376
    58  N    0.167023
    59  C    0.097451
    60  C    0.196496
    61  N   -0.249306
    63  C    0.222607
    64  N   -0.293659
    66  C    0.140839
    67  N   -0.261975
    68  C    0.055465
    69  C    0.307415
    70  N   -0.313210
 Electronic spatial extent (au):  <R**2>=          23736.4823
 Charge=             -0.0000 electrons
 Dipole moment (field-independent basis, Debye):
    X=              8.3895    Y=              4.6924    Z=              3.6422  Tot=             10.2795
 Quadrupole moment (field-independent basis, Debye-Ang):
   XX=           -154.9868   YY=           -212.2065   ZZ=           -253.9221
   XY=             -2.1329   XZ=             11.1547   YZ=            -12.0287
 Traceless Quadrupole moment (field-independent basis, Debye-Ang):
   XX=             52.0516   YY=             -5.1680   ZZ=            -46.8836
   XY=             -2.1329   XZ=             11.1547   YZ=            -12.0287
 Octapole moment (field-independent basis, Debye-Ang**2):
  XXX=             -1.0699  YYY=            145.0365  ZZZ=              2.3598  XYY=            103.0120
  XXY=           -134.0235  XXZ=            -45.1633  XZZ=              9.1592  YZZ=             13.5882
  YYZ=             45.2059  XYZ=             35.0300
 Hexadecapole moment (field-independent basis, Debye-Ang**3):
 XXXX=         -14923.6762 YYYY=          -7373.2759 ZZZZ=          -2942.2249 XXXY=            465.7457
 XXXZ=            167.1640 YYYX=           -141.2058 YYYZ=           -131.1800 ZZZX=             15.5637
 ZZZY=            -55.5043 XXYY=          -3740.7503 XXZZ=          -3945.2521 YYZZ=          -1752.6616
 XXYZ=             97.9923 YYXZ=            244.4578 ZZXY=            -35.1023
 N-N= 5.476826830865D+03 E-N=-1.573473473371D+04  KE= 2.038608146503D+03
 No NMR shielding tensors so no spin-rotation constants.
 Leave Link  601 at Sat Jan 27 02:51:45 2018, MaxMem=  4294967296 cpu:              46.4 elap:               1.6
 (Enter /share/apps/g16/l9999.exe)
 1\1\GINC-COMPUTE-0-3\SP\RwB97XD\CC-pVDZ\C23H27N17O3\SATYA\27-Jan-2018\
 0\\#p wb97xd/cc-pvdz sp scf=(maxcycles=20)\\Base pair stacking\\0,1\N,
 0,7.04699,0.91076,-8.53621\C,0,8.46355,1.21105,-8.82116\C,0,4.93328,1.
 08219,-7.95298\N,0,5.12384,-0.23692,-8.33814\C,0,6.38964,-0.28741,-8.6
 741\H,0,6.90077,-1.18136,-9.03262\N,0,3.95281,3.08749,-7.19114\C,0,5.1
 5537,3.64836,-7.35499\H,0,5.21395,4.70568,-7.1002\N,0,6.2911,3.10183,-
 7.7843\C,0,6.10975,1.80179,-8.06967\C,0,3.80289,1.77788,-7.48698\N,0,2
 .60324,1.21621,-7.32408\H,0,2.44642,0.24978,-7.5306\H,0,1.82077,1.7419
 8,-6.99023\H,0,8.65728,1.02741,-9.78496\H,0,8.64754,2.17327,-8.62264\H
 ,0,9.04968,0.63659,-8.2498\N,0,3.97573,5.27361,-3.63563\C,0,2.68535,4.
 85036,-3.42623\C,0,4.41889,6.68206,-3.65972\N,0,-0.65588,5.57453,-2.81
 51\H,0,-1.50842,5.06899,-2.6853\H,0,-0.70845,6.5724,-2.76814\N,0,1.614
 11,5.64365,-3.20905\C,0,0.50614,4.94356,-3.04199\N,0,0.44946,3.57151,-
 3.08403\H,0,-0.44171,3.12033,-2.94543\C,0,1.53903,2.73519,-3.30604\O,0
 ,1.37992,1.50838,-3.32469\C,0,2.73646,3.47288,-3.4873\N,0,4.03283,3.04
 005,-3.73016\C,0,4.73133,4.13998,-3.81055\H,0,5.80509,4.1815,-3.99656\
 H,0,4.81992,6.89185,-4.55077\H,0,3.63382,7.27905,-3.49997\H,0,5.10058,
 6.83102,-2.94424\H,0,-5.26475,1.51536,-2.82261\H,0,-4.89189,1.17992,-1
 .1335\H,0,-4.1075,2.5276,-1.95803\H,0,-2.78675,-2.58471,-3.26482\C,0,-
 2.6028,-1.52383,-3.09475\O,0,-0.29507,-1.64986,-3.6292\C,0,-1.28319,-1
 .00309,-3.28264\H,0,-0.24198,0.75474,-3.16339\N,0,-1.1597,0.3503,-3.04
 113\O,0,-1.9444,2.4008,-2.46071\C,0,-2.1512,1.21511,-2.65052\H,0,-4.61
 131,-1.05147,-2.55758\C,0,-3.59055,-0.70523,-2.71415\C,0,-4.48677,1.52
 317,-2.07378\N,0,-3.3956,0.63801,-2.49043\H,0,-1.89127,7.8066,-4.68935
 \H,0,-0.46549,7.23297,-4.14146\H,0,-1.78866,7.17627,-3.18749\H,0,-1.00
 884,0.7537,-6.82086\H,0,-2.53217,1.41875,-6.43708\N,0,-1.53732,1.52309
 ,-6.46185\C,0,-0.94282,2.63907,-6.03485\C,0,-0.88433,4.83419,-5.11845\
 N,0,0.4535,4.94636,-5.16356\H,0,2.08485,3.84626,-5.7372\C,0,0.9981,3.8
 3968,-5.66511\N,0,0.40438,2.72088,-6.09334\H,0,-3.93646,5.72604,-4.534
 27\C,0,-3.02587,5.19784,-4.81847\N,0,-2.99264,3.9904,-5.32705\C,0,-1.6
 4068,3.74762,-5.52197\C,0,-1.45641,7.10257,-4.12789\N,0,-1.78565,5.767
 92,-4.66485\\Version=EM64L-G16RevA.03\State=1-A\HF=-2048.5791556\RMSD=
 3.453e-09\Dipole=-3.3164006,2.2490791,0.5469853\Quadrupole=32.2035703,
 -9.0541814,-23.1493889,4.4213394,-21.8259682,13.8408713\PG=C01 [X(C23H
 27N17O3)]\\@


 YE HAVE SOWN MUCH, AND BRING IN LITTLE.
 YE EAT, BUT YE HAVE NOT ENOUGH.
 YE DRINK, BUT YE ARE NOT FILLED WITH DRINK.
 YE CLOTHE YOU, BUT THERE IS NONE WARM.
 AND HE THAT EARNETH WAGES EARNETH WAGES TO PUT
 IT INTO A BAG WITH HOLES.
                                     HAGGAI I,6
 Job cpu time:       0 days  6 hours 28 minutes 49.2 seconds.
 Elapsed time:       0 days  0 hours 12 minutes 34.0 seconds.
 File lengths (MBytes):  RWF=    298 Int=      0 D2E=      0 Chk=     33 Scr=      1
 Normal termination of Gaussian 16 at Sat Jan 27 02:51:46 2018.
