 Entering Gaussian System, Link 0=g16
 Input=str60.10.0.5.com
 Output=str60.10.0.5.log
 Initial command:
 /share/apps/g16/l1.exe "/state/partition1/scr/Gau-11220.inp" -scrdir="/state/partition1/scr/"
 Entering Link 1 = /share/apps/g16/l1.exe PID=     11221.
  
 Copyright (c) 1988,1990,1992,1993,1995,1998,2003,2009,2016,
            Gaussian, Inc.  All Rights Reserved.
  
 This is part of the Gaussian(R) 16 program.  It is based on
 the Gaussian(R) 09 system (copyright 2009, Gaussian, Inc.),
 the Gaussian(R) 03 system (copyright 2003, Gaussian, Inc.),
 the Gaussian(R) 98 system (copyright 1998, Gaussian, Inc.),
 the Gaussian(R) 94 system (copyright 1995, Gaussian, Inc.),
 the Gaussian 92(TM) system (copyright 1992, Gaussian, Inc.),
 the Gaussian 90(TM) system (copyright 1990, Gaussian, Inc.),
 the Gaussian 88(TM) system (copyright 1988, Gaussian, Inc.),
 the Gaussian 86(TM) system (copyright 1986, Carnegie Mellon
 University), and the Gaussian 82(TM) system (copyright 1983,
 Carnegie Mellon University). Gaussian is a federally registered
 trademark of Gaussian, Inc.
  
 This software contains proprietary and confidential information,
 including trade secrets, belonging to Gaussian, Inc.
  
 This software is provided under written license and may be
 used, copied, transmitted, or stored only in accord with that
 written license.
  
 The following legend is applicable only to US Government
 contracts under FAR:
  
                    RESTRICTED RIGHTS LEGEND
  
 Use, reproduction and disclosure by the US Government is
 subject to restrictions as set forth in subparagraphs (a)
 and (c) of the Commercial Computer Software - Restricted
 Rights clause in FAR 52.227-19.
  
 Gaussian, Inc.
 340 Quinnipiac St., Bldg. 40, Wallingford CT 06492
  
  
 ---------------------------------------------------------------
 Warning -- This program may not be used in any manner that
 competes with the business of Gaussian, Inc. or will provide
 assistance to any competitor of Gaussian, Inc.  The licensee
 of this program is prohibited from giving any competitor of
 Gaussian, Inc. access to this program.  By using this program,
 the user acknowledges that Gaussian, Inc. is engaged in the
 business of creating and licensing software in the field of
 computational chemistry and represents and warrants to the
 licensee that it is not a competitor of Gaussian, Inc. and that
 it will not use this program in any manner prohibited above.
 ---------------------------------------------------------------
  

 Cite this work as:
 Gaussian 16, Revision A.03,
 M. J. Frisch, G. W. Trucks, H. B. Schlegel, G. E. Scuseria, 
 M. A. Robb, J. R. Cheeseman, G. Scalmani, V. Barone, 
 G. A. Petersson, H. Nakatsuji, X. Li, M. Caricato, A. V. Marenich, 
 J. Bloino, B. G. Janesko, R. Gomperts, B. Mennucci, H. P. Hratchian, 
 J. V. Ortiz, A. F. Izmaylov, J. L. Sonnenberg, D. Williams-Young, 
 F. Ding, F. Lipparini, F. Egidi, J. Goings, B. Peng, A. Petrone, 
 T. Henderson, D. Ranasinghe, V. G. Zakrzewski, J. Gao, N. Rega, 
 G. Zheng, W. Liang, M. Hada, M. Ehara, K. Toyota, R. Fukuda, 
 J. Hasegawa, M. Ishida, T. Nakajima, Y. Honda, O. Kitao, H. Nakai, 
 T. Vreven, K. Throssell, J. A. Montgomery, Jr., J. E. Peralta, 
 F. Ogliaro, M. J. Bearpark, J. J. Heyd, E. N. Brothers, K. N. Kudin, 
 V. N. Staroverov, T. A. Keith, R. Kobayashi, J. Normand, 
 K. Raghavachari, A. P. Rendell, J. C. Burant, S. S. Iyengar, 
 J. Tomasi, M. Cossi, J. M. Millam, M. Klene, C. Adamo, R. Cammi, 
 J. W. Ochterski, R. L. Martin, K. Morokuma, O. Farkas, 
 J. B. Foresman, and D. J. Fox, Gaussian, Inc., Wallingford CT, 2016.
 
 ******************************************
 Gaussian 16:  EM64L-G16RevA.03 25-Dec-2016
                26-Jan-2018 
 ******************************************
 %nprocshared=32
 Will use up to   32 processors via shared memory.
 %mem=32GB
 %chk=allatoms_t.chk
 ---------------------------------------
 #p wb97xd/cc-pvdz sp scf=(maxcycles=20)
 ---------------------------------------
 1/38=1,172=1/1;
 2/12=2,17=6,18=5,40=1/2;
 3/5=16,11=2,25=1,30=1,74=-58/1,2,3;
 4//1;
 5/5=2,7=20,38=5/2;
 6/7=2,8=2,9=2,10=2,28=1/1;
 99/5=1,9=1/99;
 Leave Link    1 at Fri Jan 26 21:01:49 2018, MaxMem=  4294967296 cpu:               2.7 elap:               0.1
 (Enter /share/apps/g16/l101.exe)
 ------------------
 Base pair stacking
 ------------------
 Symbolic Z-matrix:
 Charge =  0 Multiplicity = 1
 N                     5.61798  -2.58131  -5.37039 
 C                     7.07139  -2.32652  -5.3444 
 C                     3.44374  -2.35572  -5.6135 
 N                     3.65141  -3.65086  -5.16161 
 C                     4.953    -3.73494  -5.03323 
 H                     5.48638  -4.62313  -4.69328 
 N                     2.41797  -0.36792  -6.36142 
 C                     3.64909   0.14757  -6.44027 
 H                     3.69984   1.17987  -6.78382 
 N                     4.82141  -0.41802  -6.15976 
 C                     4.64661  -1.68431  -5.74699 
 C                     2.27557  -1.64443  -5.94272 
 N                     1.04746  -2.16078  -5.86335 
 H                     0.89491  -3.10151  -5.55845 
 H                     0.23846  -1.62518  -6.10583 
 H                     7.53461  -2.96787  -5.95619 
 H                     7.25191  -1.39064  -5.64552 
 H                     7.41659  -2.44787  -4.41376 
 N                     3.46687   3.11062  -3.09277 
 C                     2.16642   2.68884  -3.23061 
 C                     3.93183   4.5049   -3.23584 
 N                    -1.17447   3.39716  -3.86188 
 H                    -2.03694   2.89504  -3.9189 
 H                    -1.2127    4.38412  -4.02052 
 N                     1.10343   3.47098  -3.51759 
 C                    -0.01807   2.7758   -3.58519 
 N                    -0.09485   1.41844  -3.38721 
 H                    -0.99529   0.97     -3.45846 
 C                     0.98589   0.59378  -3.09089 
 O                     0.80848  -0.62015  -2.93081 
 C                     2.19768   1.32637  -3.01497 
 N                     3.49171   0.90133  -2.74715 
 C                     4.20831   1.99105  -2.80381 
 H                     5.28593   2.0347   -2.64228 
 H                     4.6019    4.56036  -3.97526 
 H                     3.15304   5.09356  -3.44851 
 H                     4.35299   4.80692  -2.38131 
 H                    -5.64582  -0.75086  -4.5827 
 H                    -5.84108  -0.75558  -2.83155 
 H                    -4.79884   0.44308  -3.59857 
 H                    -3.26643  -4.77372  -3.44179 
 C                    -3.11827  -3.69395  -3.42235 
 O                    -0.76494  -3.83644  -3.16033 
 C                    -1.79441  -3.17144  -3.27333 
 H                    -0.79943  -1.3868   -3.15757 
 N                    -1.71855  -1.79327  -3.26115 
 O                    -2.59267   0.30069  -3.35296 
 C                    -2.75949  -0.90611  -3.37482 
 H                    -5.17983  -3.20043  -3.65089 
 C                    -4.15369  -2.85389  -3.53554 
 C                    -5.14786  -0.57799  -3.64024 
 N                    -4.00474  -1.4865   -3.51523 
 H                    -3.57281   4.30505  -8.58768 
 H                    -2.42219   4.26179  -7.43169 
 H                    -3.97259   4.5745   -7.02852 
 H                    -2.57033  -2.67224  -6.26862 
 H                    -4.08927  -2.07205  -6.76126 
 N                    -3.12886  -1.89073  -6.5469 
 C                    -2.61669  -0.66104  -6.62883 
 C                    -2.68852   1.67927  -7.05255 
 N                    -1.39534   1.89315  -6.75868 
 H                     0.25405   0.83759  -6.15379 
 C                    -0.80138   0.75382  -6.40936 
 N                    -1.31263  -0.47881  -6.32669 
 H                    -5.70605   2.41283  -7.95176 
 C                    -4.79042   1.91502  -7.63123 
 N                    -4.68737   0.63233  -7.3827 
 C                    -3.35966   0.46944  -7.01474 
 C                    -3.37727   4.05301  -7.63992 
 N                    -3.61892   2.60934  -7.45171 
 
 ITRead=  0  0  0  0  0  0  0  0  0  0  0  0  0  0  0  0  0  0  0  0
 ITRead=  0  0  0  0  0  0  0  0  0  0  0  0  0  0  0  0  0  0  0  0
 ITRead=  0  0  0  0  0  0  0  0  0  0  0  0  0  0  0  0  0  0  0  0
 ITRead=  0  0  0  0  0  0  0  0  0  0
 MicOpt= -1 -1 -1 -1 -1 -1 -1 -1 -1 -1 -1 -1 -1 -1 -1 -1 -1 -1 -1 -1
 MicOpt= -1 -1 -1 -1 -1 -1 -1 -1 -1 -1 -1 -1 -1 -1 -1 -1 -1 -1 -1 -1
 MicOpt= -1 -1 -1 -1 -1 -1 -1 -1 -1 -1 -1 -1 -1 -1 -1 -1 -1 -1 -1 -1
 MicOpt= -1 -1 -1 -1 -1 -1 -1 -1 -1 -1
 NAtoms=     70 NQM=       70 NQMF=       0 NMMI=      0 NMMIF=      0
                NMic=       0 NMicF=      0.
                    Isotopes and Nuclear Properties:
 (Nuclear quadrupole moments (NQMom) in fm**2, nuclear magnetic moments (NMagM)
  in nuclear magnetons)

  Atom         1           2           3           4           5           6           7           8           9          10
 IAtWgt=          14          12          12          14          12           1          14          12           1          14
 AtmWgt=  14.0030740  12.0000000  12.0000000  14.0030740  12.0000000   1.0078250  14.0030740  12.0000000   1.0078250  14.0030740
 NucSpn=           2           0           0           2           0           1           2           0           1           2
 AtZEff=  -0.0000000  -0.0000000  -0.0000000  -0.0000000  -0.0000000  -0.0000000  -0.0000000  -0.0000000  -0.0000000  -0.0000000
 NQMom=    2.0440000   0.0000000   0.0000000   2.0440000   0.0000000   0.0000000   2.0440000   0.0000000   0.0000000   2.0440000
 NMagM=    0.4037610   0.0000000   0.0000000   0.4037610   0.0000000   2.7928460   0.4037610   0.0000000   2.7928460   0.4037610
 AtZNuc=   7.0000000   6.0000000   6.0000000   7.0000000   6.0000000   1.0000000   7.0000000   6.0000000   1.0000000   7.0000000

  Atom        11          12          13          14          15          16          17          18          19          20
 IAtWgt=          12          12          14           1           1           1           1           1          14          12
 AtmWgt=  12.0000000  12.0000000  14.0030740   1.0078250   1.0078250   1.0078250   1.0078250   1.0078250  14.0030740  12.0000000
 NucSpn=           0           0           2           1           1           1           1           1           2           0
 AtZEff=  -0.0000000  -0.0000000  -0.0000000  -0.0000000  -0.0000000  -0.0000000  -0.0000000  -0.0000000  -0.0000000  -0.0000000
 NQMom=    0.0000000   0.0000000   2.0440000   0.0000000   0.0000000   0.0000000   0.0000000   0.0000000   2.0440000   0.0000000
 NMagM=    0.0000000   0.0000000   0.4037610   2.7928460   2.7928460   2.7928460   2.7928460   2.7928460   0.4037610   0.0000000
 AtZNuc=   6.0000000   6.0000000   7.0000000   1.0000000   1.0000000   1.0000000   1.0000000   1.0000000   7.0000000   6.0000000

  Atom        21          22          23          24          25          26          27          28          29          30
 IAtWgt=          12          14           1           1          14          12          14           1          12          16
 AtmWgt=  12.0000000  14.0030740   1.0078250   1.0078250  14.0030740  12.0000000  14.0030740   1.0078250  12.0000000  15.9949146
 NucSpn=           0           2           1           1           2           0           2           1           0           0
 AtZEff=  -0.0000000  -0.0000000  -0.0000000  -0.0000000  -0.0000000  -0.0000000  -0.0000000  -0.0000000  -0.0000000  -0.0000000
 NQMom=    0.0000000   2.0440000   0.0000000   0.0000000   2.0440000   0.0000000   2.0440000   0.0000000   0.0000000   0.0000000
 NMagM=    0.0000000   0.4037610   2.7928460   2.7928460   0.4037610   0.0000000   0.4037610   2.7928460   0.0000000   0.0000000
 AtZNuc=   6.0000000   7.0000000   1.0000000   1.0000000   7.0000000   6.0000000   7.0000000   1.0000000   6.0000000   8.0000000

  Atom        31          32          33          34          35          36          37          38          39          40
 IAtWgt=          12          14          12           1           1           1           1           1           1           1
 AtmWgt=  12.0000000  14.0030740  12.0000000   1.0078250   1.0078250   1.0078250   1.0078250   1.0078250   1.0078250   1.0078250
 NucSpn=           0           2           0           1           1           1           1           1           1           1
 AtZEff=  -0.0000000  -0.0000000  -0.0000000  -0.0000000  -0.0000000  -0.0000000  -0.0000000  -0.0000000  -0.0000000  -0.0000000
 NQMom=    0.0000000   2.0440000   0.0000000   0.0000000   0.0000000   0.0000000   0.0000000   0.0000000   0.0000000   0.0000000
 NMagM=    0.0000000   0.4037610   0.0000000   2.7928460   2.7928460   2.7928460   2.7928460   2.7928460   2.7928460   2.7928460
 AtZNuc=   6.0000000   7.0000000   6.0000000   1.0000000   1.0000000   1.0000000   1.0000000   1.0000000   1.0000000   1.0000000

  Atom        41          42          43          44          45          46          47          48          49          50
 IAtWgt=           1          12          16          12           1          14          16          12           1          12
 AtmWgt=   1.0078250  12.0000000  15.9949146  12.0000000   1.0078250  14.0030740  15.9949146  12.0000000   1.0078250  12.0000000
 NucSpn=           1           0           0           0           1           2           0           0           1           0
 AtZEff=  -0.0000000  -0.0000000  -0.0000000  -0.0000000  -0.0000000  -0.0000000  -0.0000000  -0.0000000  -0.0000000  -0.0000000
 NQMom=    0.0000000   0.0000000   0.0000000   0.0000000   0.0000000   2.0440000   0.0000000   0.0000000   0.0000000   0.0000000
 NMagM=    2.7928460   0.0000000   0.0000000   0.0000000   2.7928460   0.4037610   0.0000000   0.0000000   2.7928460   0.0000000
 AtZNuc=   1.0000000   6.0000000   8.0000000   6.0000000   1.0000000   7.0000000   8.0000000   6.0000000   1.0000000   6.0000000

  Atom        51          52          53          54          55          56          57          58          59          60
 IAtWgt=          12          14           1           1           1           1           1          14          12          12
 AtmWgt=  12.0000000  14.0030740   1.0078250   1.0078250   1.0078250   1.0078250   1.0078250  14.0030740  12.0000000  12.0000000
 NucSpn=           0           2           1           1           1           1           1           2           0           0
 AtZEff=  -0.0000000  -0.0000000  -0.0000000  -0.0000000  -0.0000000  -0.0000000  -0.0000000  -0.0000000  -0.0000000  -0.0000000
 NQMom=    0.0000000   2.0440000   0.0000000   0.0000000   0.0000000   0.0000000   0.0000000   2.0440000   0.0000000   0.0000000
 NMagM=    0.0000000   0.4037610   2.7928460   2.7928460   2.7928460   2.7928460   2.7928460   0.4037610   0.0000000   0.0000000
 AtZNuc=   6.0000000   7.0000000   1.0000000   1.0000000   1.0000000   1.0000000   1.0000000   7.0000000   6.0000000   6.0000000

  Atom        61          62          63          64          65          66          67          68          69          70
 IAtWgt=          14           1          12          14           1          12          14          12          12          14
 AtmWgt=  14.0030740   1.0078250  12.0000000  14.0030740   1.0078250  12.0000000  14.0030740  12.0000000  12.0000000  14.0030740
 NucSpn=           2           1           0           2           1           0           2           0           0           2
 AtZEff=  -0.0000000  -0.0000000  -0.0000000  -0.0000000  -0.0000000  -0.0000000  -0.0000000  -0.0000000  -0.0000000  -0.0000000
 NQMom=    2.0440000   0.0000000   0.0000000   2.0440000   0.0000000   0.0000000   2.0440000   0.0000000   0.0000000   2.0440000
 NMagM=    0.4037610   2.7928460   0.0000000   0.4037610   2.7928460   0.0000000   0.4037610   0.0000000   0.0000000   0.4037610
 AtZNuc=   7.0000000   1.0000000   6.0000000   7.0000000   1.0000000   6.0000000   7.0000000   6.0000000   6.0000000   7.0000000
 Leave Link  101 at Fri Jan 26 21:01:50 2018, MaxMem=  4294967296 cpu:               7.7 elap:               0.3
 (Enter /share/apps/g16/l202.exe)
 Stoichiometry    C23H27N17O3
 Framework group  C1[X(C23H27N17O3)]
 Deg. of freedom   204
 Full point group                 C1      NOp   1
 Largest Abelian subgroup         C1      NOp   1
 Largest concise Abelian subgroup C1      NOp   1
                         Standard orientation:                         
 ---------------------------------------------------------------------
 Center     Atomic      Atomic             Coordinates (Angstroms)
 Number     Number       Type             X           Y           Z
 ---------------------------------------------------------------------
      1          7           0       -5.659966   -1.888719    1.169589
      2          6           0       -7.068680   -1.466344    1.292534
      3          6           0       -3.460741   -1.915406    1.173244
      4          7           0       -3.863586   -3.183141    0.779185
      5          6           0       -5.172417   -3.116330    0.792754
      6          1           0       -5.837996   -3.940469    0.534408
      7          7           0       -2.138396   -0.051514    1.756550
      8          6           0       -3.286294    0.605152    1.953330
      9          1           0       -3.180568    1.640645    2.273989
     10          7           0       -4.539289    0.176739    1.814118
     11          6           0       -4.556908   -1.106496    1.417354
     12          6           0       -2.189826   -1.341192    1.357612
     13          7           0       -1.045054   -1.998367    1.160659
     14          1           0       -1.035548   -2.954312    0.865215
     15          1           0       -0.158388   -1.557809    1.301643
     16          1           0       -7.532893   -2.041316    1.966405
     17          1           0       -7.106772   -0.511998    1.587331
     18          1           0       -7.524930   -1.558507    0.407479
     19          7           0       -3.131634    3.483419   -1.468699
     20          6           0       -1.880904    2.914504   -1.459887
     21          6           0       -3.415252    4.924170   -1.312262
     22          7           0        1.567954    3.235988   -1.207308
     23          1           0        2.368197    2.637384   -1.230001
     24          1           0        1.736176    4.213691   -1.078795
     25          7           0       -0.710324    3.570815   -1.308068
     26          6           0        0.324700    2.750382   -1.343007
     27          7           0        0.223275    1.390910   -1.513495
     28          1           0        1.068717    0.841364   -1.527464
     29          6           0       -0.970725    0.694326   -1.671621
     30          8           0       -0.952208   -0.533971   -1.818832
     31          6           0       -2.091519    1.562344   -1.636257
     32          7           0       -3.447189    1.287881   -1.753427
     33          6           0       -4.023624    2.454448   -1.648258
     34          1           0       -5.100275    2.621531   -1.694809
     35          1           0       -3.989888    5.066973   -0.507145
     36          1           0       -2.555582    5.420565   -1.199028
     37          1           0       -3.889657    5.262292   -2.124312
     38          1           0        5.585916   -1.396084   -0.863055
     39          1           0        5.587216   -1.446062   -2.624355
     40          1           0        4.779200   -0.124166   -1.781104
     41          1           0        2.650791   -5.127966   -1.640662
     42          6           0        2.626195   -4.038622   -1.671600
     43          8           0        0.257604   -3.908744   -1.677032
     44          6           0        1.362681   -3.367084   -1.691583
     45          1           0        0.572259   -1.480122   -1.745716
     46          7           0        1.444484   -1.989753   -1.730612
     47          8           0        2.557716   -0.011159   -1.785948
     48          6           0        2.586434   -1.228801   -1.751369
     49          1           0        4.743294   -3.786265   -1.677200
     50          6           0        3.757242   -3.323806   -1.691047
     51          6           0        5.011281   -1.178381   -1.751018
     52          7           0        3.764753   -1.948751   -1.730075
     53          1           0        4.555520    3.918297    3.210653
     54          1           0        3.288379    3.994820    2.185661
     55          1           0        4.811138    4.119180    1.611368
     56          1           0        2.512697   -2.923451    1.190025
     57          1           0        4.135044   -2.498421    1.502180
     58          7           0        3.184152   -2.208983    1.387099
     59          6           0        2.828378   -0.926957    1.491991
     60          6           0        3.213872    1.394211    1.845998
     61          7           0        1.929465    1.753812    1.686607
     62          1           0        0.113854    0.890351    1.288388
     63          6           0        1.174249    0.687225    1.431801
     64          7           0        1.528697   -0.597623    1.326346
     65          1           0        6.375556    1.781954    2.398796
     66          6           0        5.379425    1.390370    2.190663
     67          7           0        5.103486    0.125397    1.987243
     68          6           0        3.733701    0.113915    1.767473
     69          6           0        4.230192    3.678656    2.295917
     70          7           0        4.282727    2.214349    2.119722
 ---------------------------------------------------------------------
 Rotational constants (GHZ):           0.1079981           0.0617362           0.0515786
 Leave Link  202 at Fri Jan 26 21:01:50 2018, MaxMem=  4294967296 cpu:               0.4 elap:               0.0
 (Enter /share/apps/g16/l301.exe)
 Standard basis: CC-pVDZ (5D, 7F)
 Ernie: Thresh=  0.10000D-02 Tol=  0.10000D-05 Strict=F.
 Ernie:  86 primitive shells out of 1081 were deleted.
 There are   780 symmetry adapted cartesian basis functions of A   symmetry.
 There are   737 symmetry adapted basis functions of A   symmetry.
   737 basis functions,  1608 primitive gaussians,   780 cartesian basis functions
   154 alpha electrons      154 beta electrons
       nuclear repulsion energy      5431.2577678126 Hartrees.
 IExCor= 4639 DFT=T Ex+Corr=wB97XD ExCW=0 ScaHFX=  1.000000
 ScaDFX=  1.000000  1.000000  1.000000  1.000000 ScalE2=  1.000000  1.000000
 IRadAn=      5 IRanWt=     -1 IRanGd=            0 ICorTp=0 IEmpDi=121
 HFx  wShort=  0.000000 wLong=  0.200000 cFull=  0.222036 cShort=  0.000000 cLong=  0.777964
 DFx  wShort=  0.000000 wLong=  0.200000 cFull=  0.000000 cShort=  0.000000 cLong=  1.000000
 NAtoms=   70 NActive=   70 NUniq=   70 SFac= 1.00D+00 NAtFMM=   60 NAOKFM=T Big=T
 Integral buffers will be    131072 words long.
 Raffenetti 2 integral format.
 Two-electron integral symmetry is turned on.
 R6Disp:  Grimme-D2 Dispersion energy=       -0.0649168209 Hartrees.
 Nuclear repulsion after empirical dispersion term =     5431.1928509917 Hartrees.
 Leave Link  301 at Fri Jan 26 21:01:50 2018, MaxMem=  4294967296 cpu:               3.0 elap:               0.1
 (Enter /share/apps/g16/l302.exe)
 NPDir=0 NMtPBC=     1 NCelOv=     1 NCel=       1 NClECP=     1 NCelD=      1
         NCelK=      1 NCelE2=     1 NClLst=     1 CellRange=     0.0.
 One-electron integrals computed using PRISM.
 One-electron integral symmetry used in STVInt
 NBasis=   737 RedAO= T EigKep=  7.25D-04  NBF=   737
 NBsUse=   737 1.00D-06 EigRej= -1.00D+00 NBFU=   737
 Precomputing XC quadrature grid using
 IXCGrd= 4 IRadAn=           5 IRanWt=          -1 IRanGd=           0 AccXCQ= 0.00D+00.
 Generated NRdTot=       0 NPtTot=           0 NUsed=           0 NTot=          32
 NSgBfM=   761   761   761   761   761 MxSgAt=    70 MxSgA2=    70.
 Leave Link  302 at Fri Jan 26 21:01:54 2018, MaxMem=  4294967296 cpu:             139.2 elap:               4.4
 (Enter /share/apps/g16/l303.exe)
 DipDrv:  MaxL=1.
 Leave Link  303 at Fri Jan 26 21:01:55 2018, MaxMem=  4294967296 cpu:              12.4 elap:               0.4
 (Enter /share/apps/g16/l401.exe)
 ExpMin= 1.22D-01 ExpMax= 1.17D+04 ExpMxC= 4.01D+02 IAcc=3 IRadAn=         5 AccDes= 0.00D+00
 Harris functional with IExCor= 4639 and IRadAn=       5 diagonalized for initial guess.
 HarFok:  IExCor= 4639 AccDes= 0.00D+00 IRadAn=         5 IDoV= 1 UseB2=F ITyADJ=14
 ICtDFT=  3500011 ScaDFX=  1.000000  1.000000  1.000000  1.000000
 FoFCou: FMM=F IPFlag=           0 FMFlag=      100000 FMFlg1=        2001
         NFxFlg=           0 DoJE=T BraDBF=F KetDBF=T FulRan=T
         wScrn=  0.000000 ICntrl=       500 IOpCl=  0 I1Cent=   200000004 NGrid=           0
         NMat0=    1 NMatS0=      1 NMatT0=    0 NMatD0=    1 NMtDS0=    0 NMtDT0=    0
 Petite list used in FoFCou.
 Harris En= -1963.88710831092    
 JPrj=0 DoOrth=F DoCkMO=F.
 Leave Link  401 at Fri Jan 26 21:02:07 2018, MaxMem=  4294967296 cpu:             392.0 elap:              12.3
 (Enter /share/apps/g16/l502.exe)
 Integral symmetry usage will be decided dynamically.
 Closed shell SCF:
 Using DIIS extrapolation, IDIIS=  1040.
 NGot=  4294967296 LenX=  4293717438 LenY=  4293108258
 Requested convergence on RMS density matrix=1.00D-08 within  20 cycles.
 Requested convergence on MAX density matrix=1.00D-06.
 Requested convergence on             energy=1.00D-06.
 No special actions if energy rises.
 Fock matrices will be formed incrementally for  20 cycles.
 Integral accuracy reduced to 1.0D-05 until final iterations.

 Cycle   1  Pass 0  IDiag  1:
 FoFJK:  IHMeth= 1 ICntrl=       0 DoSepK=T KAlg= 0 I1Cent=           0 FoldK=F
 IRaf=         1 NMat=       1 IRICut=       1 DoRegI=T DoRafI=F ISym2E= 0 IDoP0=0 IntGTp=1.
 FoFCou: FMM=T IPFlag=           0 FMFlag=      100000 FMFlg1=        2001
         NFxFlg=           0 DoJE=T BraDBF=F KetDBF=F FulRan=T
         wScrn=  0.000000 ICntrl=       500 IOpCl=  0 I1Cent=           0 NGrid=           0
         NMat0=    1 NMatS0=      1 NMatT0=    0 NMatD0=    1 NMtDS0=    0 NMtDT0=    0
 Symmetry not used in FoFCou.
 FMM levels:  10  Number of levels for PrismC:   9
 E= -2048.30959325450    
 DIIS: error= 2.58D-02 at cycle   1 NSaved=   1.
 NSaved= 1 IEnMin= 1 EnMin= -2048.30959325450     IErMin= 1 ErrMin= 2.58D-02
 ErrMax= 2.58D-02  0.00D+00 EMaxC= 1.00D-01 BMatC= 8.33D-01 BMatP= 8.33D-01
 IDIUse=3 WtCom= 7.42D-01 WtEn= 2.58D-01
 Coeff-Com:  0.100D+01
 Coeff-En:   0.100D+01
 Coeff:      0.100D+01
 Gap=     0.246 Goal=   None    Shift=    0.000
 GapD=    0.246 DampG=1.000 DampE=0.500 DampFc=0.5000 IDamp=-1.
 Damping current iteration by 5.00D-01
 RMSDP=1.56D-03 MaxDP=1.33D-01              OVMax= 2.01D-01

 Cycle   2  Pass 0  IDiag  1:
 RMSU=  7.80D-04    CP:  9.98D-01
 E= -2048.50860324847     Delta-E=       -0.199009993962 Rises=F Damp=T
 DIIS: error= 1.45D-02 at cycle   2 NSaved=   2.
 NSaved= 2 IEnMin= 2 EnMin= -2048.50860324847     IErMin= 2 ErrMin= 1.45D-02
 ErrMax= 1.45D-02  0.00D+00 EMaxC= 1.00D-01 BMatC= 1.45D-01 BMatP= 8.33D-01
 IDIUse=3 WtCom= 8.55D-01 WtEn= 1.45D-01
 Coeff-Com: -0.201D+00 0.120D+01
 Coeff-En:   0.000D+00 0.100D+01
 Coeff:     -0.172D+00 0.117D+01
 Gap=     0.339 Goal=   None    Shift=    0.000
 RMSDP=5.75D-04 MaxDP=3.57D-02 DE=-1.99D-01 OVMax= 1.61D-01

 Cycle   3  Pass 0  IDiag  1:
 RMSU=  5.61D-04    CP:  9.94D-01  1.15D+00
 E= -2048.69156214670     Delta-E=       -0.182958898232 Rises=F Damp=F
 DIIS: error= 1.01D-02 at cycle   3 NSaved=   3.
 NSaved= 3 IEnMin= 3 EnMin= -2048.69156214670     IErMin= 3 ErrMin= 1.01D-02
 ErrMax= 1.01D-02  0.00D+00 EMaxC= 1.00D-01 BMatC= 5.98D-02 BMatP= 1.45D-01
 IDIUse=3 WtCom= 8.99D-01 WtEn= 1.01D-01
 Coeff-Com: -0.228D+00 0.541D+00 0.687D+00
 Coeff-En:   0.000D+00 0.000D+00 0.100D+01
 Coeff:     -0.205D+00 0.486D+00 0.719D+00
 Gap=     0.268 Goal=   None    Shift=    0.000
 RMSDP=3.46D-04 MaxDP=3.58D-02 DE=-1.83D-01 OVMax= 7.35D-02

 Cycle   4  Pass 0  IDiag  1:
 RMSU=  1.99D-04    CP:  9.95D-01  1.43D+00  6.75D-01
 E= -2048.73546821527     Delta-E=       -0.043906068575 Rises=F Damp=F
 DIIS: error= 4.36D-03 at cycle   4 NSaved=   4.
 NSaved= 4 IEnMin= 4 EnMin= -2048.73546821527     IErMin= 4 ErrMin= 4.36D-03
 ErrMax= 4.36D-03  0.00D+00 EMaxC= 1.00D-01 BMatC= 9.81D-03 BMatP= 5.98D-02
 IDIUse=3 WtCom= 9.56D-01 WtEn= 4.36D-02
 Coeff-Com: -0.912D-01 0.177D+00 0.388D+00 0.527D+00
 Coeff-En:   0.000D+00 0.000D+00 0.874D-01 0.913D+00
 Coeff:     -0.872D-01 0.169D+00 0.375D+00 0.544D+00
 Gap=     0.275 Goal=   None    Shift=    0.000
 RMSDP=1.29D-04 MaxDP=1.38D-02 DE=-4.39D-02 OVMax= 1.63D-02

 Cycle   5  Pass 0  IDiag  1:
 RMSU=  6.24D-05    CP:  9.94D-01  1.40D+00  8.15D-01  6.11D-01
 E= -2048.74329225296     Delta-E=       -0.007824037687 Rises=F Damp=F
 DIIS: error= 7.89D-04 at cycle   5 NSaved=   5.
 NSaved= 5 IEnMin= 5 EnMin= -2048.74329225296     IErMin= 5 ErrMin= 7.89D-04
 ErrMax= 7.89D-04  0.00D+00 EMaxC= 1.00D-01 BMatC= 3.30D-04 BMatP= 9.81D-03
 IDIUse=3 WtCom= 9.92D-01 WtEn= 7.89D-03
 Coeff-Com: -0.230D-01 0.390D-01 0.126D+00 0.249D+00 0.610D+00
 Coeff-En:   0.000D+00 0.000D+00 0.000D+00 0.000D+00 0.100D+01
 Coeff:     -0.228D-01 0.387D-01 0.125D+00 0.247D+00 0.613D+00
 Gap=     0.274 Goal=   None    Shift=    0.000
 RMSDP=2.56D-05 MaxDP=2.70D-03 DE=-7.82D-03 OVMax= 3.84D-03

 Failed to achieve initial convergence to 1.0D-08 in  6 cycles.
 Switch to full accuracy anyway.
 Cycle   6  Pass 1  IDiag  1:
 E= -2048.74373659010     Delta-E=       -0.000444337138 Rises=F Damp=F
 DIIS: error= 2.47D-04 at cycle   1 NSaved=   1.
 NSaved= 1 IEnMin= 1 EnMin= -2048.74373659010     IErMin= 1 ErrMin= 2.47D-04
 ErrMax= 2.47D-04  0.00D+00 EMaxC= 1.00D-01 BMatC= 7.67D-05 BMatP= 7.67D-05
 IDIUse=3 WtCom= 9.98D-01 WtEn= 2.47D-03
 Coeff-Com:  0.100D+01
 Coeff-En:   0.100D+01
 Coeff:      0.100D+01
 Gap=     0.275 Goal=   None    Shift=    0.000
 RMSDP=2.56D-05 MaxDP=2.70D-03 DE=-4.44D-04 OVMax= 2.09D-03

 Cycle   7  Pass 1  IDiag  1:
 RMSU=  1.14D-04    CP:  1.00D+00
 E= -2048.74379197229     Delta-E=       -0.000055382192 Rises=F Damp=F
 DIIS: error= 3.32D-04 at cycle   2 NSaved=   2.
 NSaved= 2 IEnMin= 2 EnMin= -2048.74379197229     IErMin= 1 ErrMin= 2.47D-04
 ErrMax= 3.32D-04  0.00D+00 EMaxC= 1.00D-01 BMatC= 4.69D-05 BMatP= 7.67D-05
 IDIUse=3 WtCom= 9.97D-01 WtEn= 3.32D-03
 Coeff-Com:  0.418D+00 0.582D+00
 Coeff-En:   0.000D+00 0.100D+01
 Coeff:      0.416D+00 0.584D+00
 Gap=     0.275 Goal=   None    Shift=    0.000
 RMSDP=1.09D-05 MaxDP=1.52D-03 DE=-5.54D-05 OVMax= 1.84D-03

 Cycle   8  Pass 1  IDiag  1:
 RMSU=  1.05D-05    CP:  1.00D+00  1.02D+00
 E= -2048.74382419796     Delta-E=       -0.000032225676 Rises=F Damp=F
 DIIS: error= 1.42D-04 at cycle   3 NSaved=   3.
 NSaved= 3 IEnMin= 3 EnMin= -2048.74382419796     IErMin= 3 ErrMin= 1.42D-04
 ErrMax= 1.42D-04  0.00D+00 EMaxC= 1.00D-01 BMatC= 1.07D-05 BMatP= 4.69D-05
 IDIUse=3 WtCom= 9.99D-01 WtEn= 1.42D-03
 Coeff-Com: -0.191D-01 0.311D+00 0.708D+00
 Coeff-En:   0.000D+00 0.132D+00 0.868D+00
 Coeff:     -0.191D-01 0.311D+00 0.709D+00
 Gap=     0.275 Goal=   None    Shift=    0.000
 RMSDP=5.58D-06 MaxDP=5.56D-04 DE=-3.22D-05 OVMax= 6.19D-04

 Cycle   9  Pass 1  IDiag  1:
 RMSU=  3.77D-06    CP:  1.00D+00  1.05D+00  7.63D-01
 E= -2048.74383354353     Delta-E=       -0.000009345561 Rises=F Damp=F
 DIIS: error= 3.92D-05 at cycle   4 NSaved=   4.
 NSaved= 4 IEnMin= 4 EnMin= -2048.74383354353     IErMin= 4 ErrMin= 3.92D-05
 ErrMax= 3.92D-05  0.00D+00 EMaxC= 1.00D-01 BMatC= 4.88D-07 BMatP= 1.07D-05
 IDIUse=1 WtCom= 1.00D+00 WtEn= 0.00D+00
 Coeff-Com: -0.303D-01 0.875D-01 0.260D+00 0.683D+00
 Coeff:     -0.303D-01 0.875D-01 0.260D+00 0.683D+00
 Gap=     0.275 Goal=   None    Shift=    0.000
 RMSDP=1.40D-06 MaxDP=1.46D-04 DE=-9.35D-06 OVMax= 4.72D-04

 Cycle  10  Pass 1  IDiag  1:
 RMSU=  1.25D-06    CP:  1.00D+00  1.06D+00  7.94D-01  1.10D+00
 E= -2048.74383434106     Delta-E=       -0.000000797539 Rises=F Damp=F
 DIIS: error= 1.53D-05 at cycle   5 NSaved=   5.
 NSaved= 5 IEnMin= 5 EnMin= -2048.74383434106     IErMin= 5 ErrMin= 1.53D-05
 ErrMax= 1.53D-05  0.00D+00 EMaxC= 1.00D-01 BMatC= 1.13D-07 BMatP= 4.88D-07
 IDIUse=1 WtCom= 1.00D+00 WtEn= 0.00D+00
 Coeff-Com: -0.269D-02-0.530D-01-0.121D+00 0.197D+00 0.979D+00
 Coeff:     -0.269D-02-0.530D-01-0.121D+00 0.197D+00 0.979D+00
 Gap=     0.275 Goal=   None    Shift=    0.000
 RMSDP=1.17D-06 MaxDP=7.59D-05 DE=-7.98D-07 OVMax= 2.26D-04

 Cycle  11  Pass 1  IDiag  1:
 RMSU=  4.82D-07    CP:  1.00D+00  1.06D+00  8.02D-01  1.38D+00  1.17D+00
 E= -2048.74383458448     Delta-E=       -0.000000243418 Rises=F Damp=F
 DIIS: error= 1.07D-05 at cycle   6 NSaved=   6.
 NSaved= 6 IEnMin= 6 EnMin= -2048.74383458448     IErMin= 6 ErrMin= 1.07D-05
 ErrMax= 1.07D-05  0.00D+00 EMaxC= 1.00D-01 BMatC= 2.67D-08 BMatP= 1.13D-07
 IDIUse=1 WtCom= 1.00D+00 WtEn= 0.00D+00
 Coeff-Com:  0.463D-02-0.435D-01-0.113D+00-0.582D-02 0.518D+00 0.640D+00
 Coeff:      0.463D-02-0.435D-01-0.113D+00-0.582D-02 0.518D+00 0.640D+00
 Gap=     0.275 Goal=   None    Shift=    0.000
 RMSDP=3.64D-07 MaxDP=3.75D-05 DE=-2.43D-07 OVMax= 1.17D-04

 Cycle  12  Pass 1  IDiag  1:
 RMSU=  1.82D-07    CP:  1.00D+00  1.06D+00  8.02D-01  1.45D+00  1.30D+00
                    CP:  9.22D-01
 E= -2048.74383462325     Delta-E=       -0.000000038769 Rises=F Damp=F
 DIIS: error= 1.44D-06 at cycle   7 NSaved=   7.
 NSaved= 7 IEnMin= 7 EnMin= -2048.74383462325     IErMin= 7 ErrMin= 1.44D-06
 ErrMax= 1.44D-06  0.00D+00 EMaxC= 1.00D-01 BMatC= 8.13D-10 BMatP= 2.67D-08
 IDIUse=1 WtCom= 1.00D+00 WtEn= 0.00D+00
 Coeff-Com:  0.114D-02-0.752D-02-0.215D-01-0.759D-02 0.627D-01 0.150D+00
 Coeff-Com:  0.823D+00
 Coeff:      0.114D-02-0.752D-02-0.215D-01-0.759D-02 0.627D-01 0.150D+00
 Coeff:      0.823D+00
 Gap=     0.275 Goal=   None    Shift=    0.000
 RMSDP=7.95D-08 MaxDP=5.34D-06 DE=-3.88D-08 OVMax= 2.11D-05

 Cycle  13  Pass 1  IDiag  1:
 RMSU=  4.93D-08    CP:  1.00D+00  1.06D+00  8.02D-01  1.46D+00  1.32D+00
                    CP:  1.01D+00  1.12D+00
 E= -2048.74383462510     Delta-E=       -0.000000001853 Rises=F Damp=F
 DIIS: error= 6.15D-07 at cycle   8 NSaved=   8.
 NSaved= 8 IEnMin= 8 EnMin= -2048.74383462510     IErMin= 8 ErrMin= 6.15D-07
 ErrMax= 6.15D-07  0.00D+00 EMaxC= 1.00D-01 BMatC= 3.15D-10 BMatP= 8.13D-10
 IDIUse=1 WtCom= 1.00D+00 WtEn= 0.00D+00
 Coeff-Com: -0.682D-03 0.812D-02 0.197D-01-0.503D-03-0.111D+00-0.946D-01
 Coeff-Com:  0.411D+00 0.767D+00
 Coeff:     -0.682D-03 0.812D-02 0.197D-01-0.503D-03-0.111D+00-0.946D-01
 Coeff:      0.411D+00 0.767D+00
 Gap=     0.275 Goal=   None    Shift=    0.000
 RMSDP=4.73D-08 MaxDP=2.88D-06 DE=-1.85D-09 OVMax= 1.08D-05

 Cycle  14  Pass 1  IDiag  1:
 RMSU=  2.72D-08    CP:  1.00D+00  1.06D+00  8.01D-01  1.46D+00  1.33D+00
                    CP:  1.05D+00  1.27D+00  1.07D+00
 E= -2048.74383462558     Delta-E=       -0.000000000477 Rises=F Damp=F
 DIIS: error= 2.19D-07 at cycle   9 NSaved=   9.
 NSaved= 9 IEnMin= 9 EnMin= -2048.74383462558     IErMin= 9 ErrMin= 2.19D-07
 ErrMax= 2.19D-07  0.00D+00 EMaxC= 1.00D-01 BMatC= 3.29D-11 BMatP= 3.15D-10
 IDIUse=1 WtCom= 1.00D+00 WtEn= 0.00D+00
 Coeff-Com: -0.436D-03 0.453D-02 0.113D-01 0.113D-02-0.557D-01-0.587D-01
 Coeff-Com:  0.882D-01 0.322D+00 0.687D+00
 Coeff:     -0.436D-03 0.453D-02 0.113D-01 0.113D-02-0.557D-01-0.587D-01
 Coeff:      0.882D-01 0.322D+00 0.687D+00
 Gap=     0.275 Goal=   None    Shift=    0.000
 RMSDP=1.32D-08 MaxDP=8.10D-07 DE=-4.77D-10 OVMax= 3.27D-06

 Cycle  15  Pass 1  IDiag  1:
 RMSU=  9.12D-09    CP:  1.00D+00  1.06D+00  8.01D-01  1.46D+00  1.33D+00
                    CP:  1.06D+00  1.30D+00  1.22D+00  1.10D+00
 E= -2048.74383462549     Delta-E=        0.000000000086 Rises=F Damp=F
 DIIS: error= 7.33D-08 at cycle  10 NSaved=  10.
 NSaved=10 IEnMin= 9 EnMin= -2048.74383462558     IErMin=10 ErrMin= 7.33D-08
 ErrMax= 7.33D-08  0.00D+00 EMaxC= 1.00D-01 BMatC= 4.94D-12 BMatP= 3.29D-11
 IDIUse=1 WtCom= 1.00D+00 WtEn= 0.00D+00
 Coeff-Com:  0.117D-05-0.256D-03-0.490D-03 0.105D-03 0.470D-02 0.590D-03
 Coeff-Com: -0.544D-01-0.581D-01 0.249D+00 0.859D+00
 Coeff:      0.117D-05-0.256D-03-0.490D-03 0.105D-03 0.470D-02 0.590D-03
 Coeff:     -0.544D-01-0.581D-01 0.249D+00 0.859D+00
 Gap=     0.275 Goal=   None    Shift=    0.000
 RMSDP=6.89D-09 MaxDP=4.06D-07 DE= 8.64D-11 OVMax= 1.57D-06

 SCF Done:  E(RwB97XD) =  -2048.74383463     A.U. after   15 cycles
            NFock= 15  Conv=0.69D-08     -V/T= 2.0054
 KE= 2.037673099114D+03 PE=-1.564328520984D+04 EE= 6.125675425110D+03
 Leave Link  502 at Fri Jan 26 21:12:48 2018, MaxMem=  4294967296 cpu:           19781.6 elap:             640.3
 (Enter /share/apps/g16/l601.exe)
 Copying SCF densities to generalized density rwf, IOpCl= 0 IROHF=0.

 **********************************************************************

            Population analysis using the SCF density.

 **********************************************************************

 Orbital symmetries:
       Occupied  (A) (A) (A) (A) (A) (A) (A) (A) (A) (A) (A) (A)
                 (A) (A) (A) (A) (A) (A) (A) (A) (A) (A) (A) (A)
                 (A) (A) (A) (A) (A) (A) (A) (A) (A) (A) (A) (A)
                 (A) (A) (A) (A) (A) (A) (A) (A) (A) (A) (A) (A)
                 (A) (A) (A) (A) (A) (A) (A) (A) (A) (A) (A) (A)
                 (A) (A) (A) (A) (A) (A) (A) (A) (A) (A) (A) (A)
                 (A) (A) (A) (A) (A) (A) (A) (A) (A) (A) (A) (A)
                 (A) (A) (A) (A) (A) (A) (A) (A) (A) (A) (A) (A)
                 (A) (A) (A) (A) (A) (A) (A) (A) (A) (A) (A) (A)
                 (A) (A) (A) (A) (A) (A) (A) (A) (A) (A) (A) (A)
                 (A) (A) (A) (A) (A) (A) (A) (A) (A) (A) (A) (A)
                 (A) (A) (A) (A) (A) (A) (A) (A) (A) (A) (A) (A)
                 (A) (A) (A) (A) (A) (A) (A) (A) (A) (A)
       Virtual   (A) (A) (A) (A) (A) (A) (A) (A) (A) (A) (A) (A)
                 (A) (A) (A) (A) (A) (A) (A) (A) (A) (A) (A) (A)
                 (A) (A) (A) (A) (A) (A) (A) (A) (A) (A) (A) (A)
                 (A) (A) (A) (A) (A) (A) (A) (A) (A) (A) (A) (A)
                 (A) (A) (A) (A) (A) (A) (A) (A) (A) (A) (A) (A)
                 (A) (A) (A) (A) (A) (A) (A) (A) (A) (A) (A) (A)
                 (A) (A) (A) (A) (A) (A) (A) (A) (A) (A) (A) (A)
                 (A) (A) (A) (A) (A) (A) (A) (A) (A) (A) (A) (A)
                 (A) (A) (A) (A) (A) (A) (A) (A) (A) (A) (A) (A)
                 (A) (A) (A) (A) (A) (A) (A) (A) (A) (A) (A) (A)
                 (A) (A) (A) (A) (A) (A) (A) (A) (A) (A) (A) (A)
                 (A) (A) (A) (A) (A) (A) (A) (A) (A) (A) (A) (A)
                 (A) (A) (A) (A) (A) (A) (A) (A) (A) (A) (A) (A)
                 (A) (A) (A) (A) (A) (A) (A) (A) (A) (A) (A) (A)
                 (A) (A) (A) (A) (A) (A) (A) (A) (A) (A) (A) (A)
                 (A) (A) (A) (A) (A) (A) (A) (A) (A) (A) (A) (A)
                 (A) (A) (A) (A) (A) (A) (A) (A) (A) (A) (A) (A)
                 (A) (A) (A) (A) (A) (A) (A) (A) (A) (A) (A) (A)
                 (A) (A) (A) (A) (A) (A) (A) (A) (A) (A) (A) (A)
                 (A) (A) (A) (A) (A) (A) (A) (A) (A) (A) (A) (A)
                 (A) (A) (A) (A) (A) (A) (A) (A) (A) (A) (A) (A)
                 (A) (A) (A) (A) (A) (A) (A) (A) (A) (A) (A) (A)
                 (A) (A) (A) (A) (A) (A) (A) (A) (A) (A) (A) (A)
                 (A) (A) (A) (A) (A) (A) (A) (A) (A) (A) (A) (A)
                 (A) (A) (A) (A) (A) (A) (A) (A) (A) (A) (A) (A)
                 (A) (A) (A) (A) (A) (A) (A) (A) (A) (A) (A) (A)
                 (A) (A) (A) (A) (A) (A) (A) (A) (A) (A) (A) (A)
                 (A) (A) (A) (A) (A) (A) (A) (A) (A) (A) (A) (A)
                 (A) (A) (A) (A) (A) (A) (A) (A) (A) (A) (A) (A)
                 (A) (A) (A) (A) (A) (A) (A) (A) (A) (A) (A) (A)
                 (A) (A) (A) (A) (A) (A) (A) (A) (A) (A) (A) (A)
                 (A) (A) (A) (A) (A) (A) (A) (A) (A) (A) (A) (A)
                 (A) (A) (A) (A) (A) (A) (A) (A) (A) (A) (A) (A)
                 (A) (A) (A) (A) (A) (A) (A) (A) (A) (A) (A) (A)
                 (A) (A) (A) (A) (A) (A) (A) (A) (A) (A) (A) (A)
                 (A) (A) (A) (A) (A) (A) (A) (A) (A) (A) (A) (A)
                 (A) (A) (A) (A) (A) (A) (A) (A) (A) (A) (A) (A)
                 (A) (A) (A) (A) (A) (A) (A) (A) (A) (A) (A) (A)
                 (A) (A) (A) (A) (A) (A) (A) (A) (A) (A) (A) (A)
                 (A) (A) (A) (A) (A) (A) (A) (A) (A) (A) (A) (A)
                 (A) (A) (A) (A) (A) (A) (A) (A) (A) (A) (A) (A)
                 (A) (A) (A) (A) (A) (A) (A) (A) (A) (A) (A) (A)
                 (A) (A) (A) (A) (A) (A) (A) (A) (A) (A) (A) (A)
                 (A) (A) (A) (A) (A) (A) (A) (A) (A) (A) (A) (A)
                 (A) (A) (A) (A) (A) (A) (A) (A) (A) (A) (A) (A)
                 (A) (A) (A) (A) (A) (A) (A) (A) (A) (A) (A) (A)
                 (A) (A) (A) (A) (A) (A) (A) (A) (A) (A) (A) (A)
                 (A) (A) (A) (A) (A) (A) (A) (A) (A) (A) (A) (A)
                 (A) (A) (A) (A) (A) (A) (A)
 The electronic state is 1-A.
 Alpha  occ. eigenvalues --  -19.25950 -19.22271 -19.20640 -14.52595 -14.52235
 Alpha  occ. eigenvalues --  -14.48847 -14.48396 -14.47998 -14.47987 -14.46994
 Alpha  occ. eigenvalues --  -14.46717 -14.45264 -14.44171 -14.44083 -14.42077
 Alpha  occ. eigenvalues --  -14.41728 -14.40869 -14.40622 -14.40169 -14.39626
 Alpha  occ. eigenvalues --  -10.45606 -10.41271 -10.40391 -10.39843 -10.38253
 Alpha  occ. eigenvalues --  -10.38195 -10.37803 -10.36970 -10.35479 -10.35213
 Alpha  occ. eigenvalues --  -10.34803 -10.34382 -10.33758 -10.33330 -10.33318
 Alpha  occ. eigenvalues --  -10.32599 -10.32493 -10.32400 -10.31508 -10.31021
 Alpha  occ. eigenvalues --  -10.30280 -10.28135 -10.27785  -1.19546  -1.14976
 Alpha  occ. eigenvalues --   -1.13275  -1.13241  -1.10635  -1.10567  -1.09522
 Alpha  occ. eigenvalues --   -1.09189  -1.08595  -1.04761  -1.04338  -1.02648
 Alpha  occ. eigenvalues --   -1.00810  -0.99796  -0.99780  -0.98597  -0.96727
 Alpha  occ. eigenvalues --   -0.96644  -0.96202  -0.92017  -0.91387  -0.87421
 Alpha  occ. eigenvalues --   -0.85736  -0.84162  -0.83729  -0.83204  -0.82574
 Alpha  occ. eigenvalues --   -0.81617  -0.79137  -0.76894  -0.74719  -0.74603
 Alpha  occ. eigenvalues --   -0.73718  -0.73518  -0.72250  -0.70400  -0.70263
 Alpha  occ. eigenvalues --   -0.67437  -0.66750  -0.66710  -0.65652  -0.64617
 Alpha  occ. eigenvalues --   -0.64161  -0.63886  -0.62752  -0.62054  -0.61794
 Alpha  occ. eigenvalues --   -0.60461  -0.60055  -0.60043  -0.59723  -0.59411
 Alpha  occ. eigenvalues --   -0.59158  -0.58427  -0.56705  -0.56092  -0.55976
 Alpha  occ. eigenvalues --   -0.55640  -0.55149  -0.54831  -0.54592  -0.54358
 Alpha  occ. eigenvalues --   -0.53763  -0.53693  -0.53409  -0.53212  -0.53051
 Alpha  occ. eigenvalues --   -0.52608  -0.52536  -0.51107  -0.50266  -0.50008
 Alpha  occ. eigenvalues --   -0.49717  -0.49611  -0.49437  -0.49183  -0.48961
 Alpha  occ. eigenvalues --   -0.48405  -0.48288  -0.48194  -0.47785  -0.47421
 Alpha  occ. eigenvalues --   -0.46257  -0.45708  -0.45120  -0.44257  -0.44082
 Alpha  occ. eigenvalues --   -0.40502  -0.40420  -0.39526  -0.37648  -0.37433
 Alpha  occ. eigenvalues --   -0.37327  -0.37216  -0.36413  -0.35969  -0.34811
 Alpha  occ. eigenvalues --   -0.34251  -0.33757  -0.33381  -0.32851  -0.32787
 Alpha  occ. eigenvalues --   -0.32710  -0.32406  -0.32247  -0.31882  -0.30216
 Alpha  occ. eigenvalues --   -0.29966  -0.29747  -0.25605  -0.24985
 Alpha virt. eigenvalues --    0.02510   0.04265   0.07246   0.08235   0.08731
 Alpha virt. eigenvalues --    0.09208   0.09700   0.10762   0.11238   0.11755
 Alpha virt. eigenvalues --    0.12448   0.14128   0.14472   0.14966   0.15054
 Alpha virt. eigenvalues --    0.15522   0.16644   0.16988   0.17503   0.17736
 Alpha virt. eigenvalues --    0.17992   0.20034   0.20061   0.20306   0.20545
 Alpha virt. eigenvalues --    0.20774   0.20965   0.21210   0.21662   0.21983
 Alpha virt. eigenvalues --    0.22377   0.22726   0.23525   0.23539   0.23846
 Alpha virt. eigenvalues --    0.24258   0.24543   0.24751   0.24866   0.25089
 Alpha virt. eigenvalues --    0.25316   0.25738   0.26987   0.27455   0.28172
 Alpha virt. eigenvalues --    0.29053   0.29371   0.29668   0.30434   0.30920
 Alpha virt. eigenvalues --    0.31410   0.31759   0.32451   0.33197   0.33486
 Alpha virt. eigenvalues --    0.34192   0.34332   0.34978   0.35810   0.36357
 Alpha virt. eigenvalues --    0.36760   0.37264   0.37748   0.39072   0.39259
 Alpha virt. eigenvalues --    0.39832   0.40480   0.40951   0.41281   0.41543
 Alpha virt. eigenvalues --    0.42159   0.42958   0.43273   0.43920   0.44506
 Alpha virt. eigenvalues --    0.44773   0.45367   0.46273   0.46786   0.46974
 Alpha virt. eigenvalues --    0.47467   0.47631   0.48560   0.48841   0.49405
 Alpha virt. eigenvalues --    0.49657   0.50231   0.50353   0.50631   0.50891
 Alpha virt. eigenvalues --    0.51613   0.51956   0.52187   0.52674   0.53493
 Alpha virt. eigenvalues --    0.53778   0.54317   0.54414   0.54988   0.55500
 Alpha virt. eigenvalues --    0.55953   0.56458   0.56650   0.56840   0.57509
 Alpha virt. eigenvalues --    0.57544   0.57906   0.58099   0.59181   0.59455
 Alpha virt. eigenvalues --    0.59613   0.59986   0.60706   0.60851   0.61081
 Alpha virt. eigenvalues --    0.61467   0.61811   0.62199   0.62934   0.63320
 Alpha virt. eigenvalues --    0.63427   0.64029   0.64492   0.64843   0.65362
 Alpha virt. eigenvalues --    0.65798   0.66068   0.66297   0.66630   0.67225
 Alpha virt. eigenvalues --    0.67551   0.67932   0.68057   0.68443   0.68577
 Alpha virt. eigenvalues --    0.69457   0.69569   0.70029   0.70545   0.70858
 Alpha virt. eigenvalues --    0.71240   0.71563   0.72169   0.72887   0.73088
 Alpha virt. eigenvalues --    0.73824   0.73993   0.74265   0.74781   0.75193
 Alpha virt. eigenvalues --    0.75697   0.75727   0.76067   0.76330   0.76725
 Alpha virt. eigenvalues --    0.77031   0.77593   0.77917   0.78210   0.78441
 Alpha virt. eigenvalues --    0.78817   0.78860   0.79876   0.80415   0.80681
 Alpha virt. eigenvalues --    0.81040   0.81592   0.81911   0.82057   0.82430
 Alpha virt. eigenvalues --    0.82851   0.83459   0.84060   0.84199   0.84532
 Alpha virt. eigenvalues --    0.84718   0.85451   0.86099   0.86523   0.87461
 Alpha virt. eigenvalues --    0.87859   0.88016   0.88433   0.89052   0.89826
 Alpha virt. eigenvalues --    0.90287   0.90708   0.91379   0.91589   0.91996
 Alpha virt. eigenvalues --    0.92133   0.92502   0.93091   0.93300   0.94166
 Alpha virt. eigenvalues --    0.94797   0.95222   0.95644   0.95873   0.96826
 Alpha virt. eigenvalues --    0.97078   0.97503   0.97730   0.98330   0.98387
 Alpha virt. eigenvalues --    0.98750   0.98918   0.99485   0.99614   0.99740
 Alpha virt. eigenvalues --    1.00320   1.01023   1.01549   1.01828   1.02656
 Alpha virt. eigenvalues --    1.03003   1.03380   1.03743   1.04320   1.04813
 Alpha virt. eigenvalues --    1.05242   1.05527   1.06463   1.06677   1.07272
 Alpha virt. eigenvalues --    1.07808   1.07935   1.08574   1.09584   1.10573
 Alpha virt. eigenvalues --    1.11235   1.11821   1.11967   1.12465   1.13141
 Alpha virt. eigenvalues --    1.13459   1.14133   1.14236   1.14416   1.14972
 Alpha virt. eigenvalues --    1.15228   1.15571   1.16207   1.16394   1.17082
 Alpha virt. eigenvalues --    1.17290   1.17778   1.17900   1.18806   1.19104
 Alpha virt. eigenvalues --    1.19770   1.19931   1.20217   1.20365   1.20880
 Alpha virt. eigenvalues --    1.21322   1.22043   1.22398   1.22722   1.22951
 Alpha virt. eigenvalues --    1.23178   1.23601   1.23864   1.24111   1.24467
 Alpha virt. eigenvalues --    1.24857   1.25182   1.25250   1.25706   1.26716
 Alpha virt. eigenvalues --    1.27750   1.28162   1.28863   1.29630   1.30228
 Alpha virt. eigenvalues --    1.30534   1.31259   1.32126   1.32945   1.33394
 Alpha virt. eigenvalues --    1.34137   1.34593   1.34839   1.35133   1.36288
 Alpha virt. eigenvalues --    1.36661   1.37272   1.38220   1.39134   1.39784
 Alpha virt. eigenvalues --    1.39976   1.40760   1.41735   1.42156   1.42763
 Alpha virt. eigenvalues --    1.45176   1.45523   1.46044   1.46457   1.47038
 Alpha virt. eigenvalues --    1.47654   1.48540   1.49319   1.49566   1.50081
 Alpha virt. eigenvalues --    1.51016   1.51686   1.52501   1.53313   1.53382
 Alpha virt. eigenvalues --    1.53732   1.54702   1.56019   1.56479   1.56773
 Alpha virt. eigenvalues --    1.57030   1.58692   1.59107   1.59555   1.59839
 Alpha virt. eigenvalues --    1.60148   1.61240   1.62497   1.62569   1.62905
 Alpha virt. eigenvalues --    1.63297   1.64402   1.64703   1.65384   1.66311
 Alpha virt. eigenvalues --    1.66482   1.67381   1.67526   1.68288   1.68607
 Alpha virt. eigenvalues --    1.68925   1.69495   1.70086   1.70519   1.70736
 Alpha virt. eigenvalues --    1.71219   1.72022   1.72413   1.72549   1.72898
 Alpha virt. eigenvalues --    1.73165   1.73994   1.74205   1.74460   1.75109
 Alpha virt. eigenvalues --    1.75302   1.75665   1.76064   1.76403   1.76477
 Alpha virt. eigenvalues --    1.76701   1.77209   1.77399   1.77904   1.78160
 Alpha virt. eigenvalues --    1.78692   1.79011   1.79282   1.79652   1.80302
 Alpha virt. eigenvalues --    1.80432   1.80876   1.80970   1.81021   1.81352
 Alpha virt. eigenvalues --    1.81627   1.81970   1.82600   1.83315   1.83989
 Alpha virt. eigenvalues --    1.84267   1.84838   1.85025   1.85496   1.85890
 Alpha virt. eigenvalues --    1.86730   1.86977   1.87730   1.88280   1.88690
 Alpha virt. eigenvalues --    1.89011   1.89615   1.90137   1.90293   1.90613
 Alpha virt. eigenvalues --    1.90958   1.91448   1.91692   1.93166   1.93291
 Alpha virt. eigenvalues --    1.94036   1.94285   1.95099   1.95336   1.97114
 Alpha virt. eigenvalues --    1.97722   1.97764   1.98445   1.99680   2.00297
 Alpha virt. eigenvalues --    2.00759   2.01468   2.01759   2.01968   2.02627
 Alpha virt. eigenvalues --    2.03054   2.03971   2.05696   2.06041   2.06416
 Alpha virt. eigenvalues --    2.07220   2.07465   2.07945   2.08424   2.08755
 Alpha virt. eigenvalues --    2.09513   2.09631   2.10470   2.11421   2.11864
 Alpha virt. eigenvalues --    2.12113   2.13083   2.14423   2.15582   2.16119
 Alpha virt. eigenvalues --    2.17356   2.18569   2.19210   2.20268   2.20345
 Alpha virt. eigenvalues --    2.21562   2.21753   2.22263   2.22682   2.23366
 Alpha virt. eigenvalues --    2.23883   2.24388   2.25028   2.26038   2.26254
 Alpha virt. eigenvalues --    2.26773   2.27077   2.28232   2.28639   2.29062
 Alpha virt. eigenvalues --    2.30118   2.30193   2.30831   2.31199   2.32026
 Alpha virt. eigenvalues --    2.32115   2.33221   2.33559   2.33767   2.34219
 Alpha virt. eigenvalues --    2.35084   2.35403   2.35727   2.36227   2.36789
 Alpha virt. eigenvalues --    2.37289   2.37619   2.38506   2.39497   2.40851
 Alpha virt. eigenvalues --    2.41078   2.42316   2.42974   2.43641   2.43827
 Alpha virt. eigenvalues --    2.44688   2.44937   2.45021   2.45171   2.46424
 Alpha virt. eigenvalues --    2.47121   2.47685   2.49311   2.50744   2.51193
 Alpha virt. eigenvalues --    2.51557   2.52216   2.54356   2.54469   2.54986
 Alpha virt. eigenvalues --    2.56113   2.56843   2.56957   2.58019   2.59244
 Alpha virt. eigenvalues --    2.60491   2.60853   2.61706   2.62361   2.62969
 Alpha virt. eigenvalues --    2.63143   2.64060   2.64964   2.65154   2.65527
 Alpha virt. eigenvalues --    2.65845   2.67210   2.67728   2.68025   2.68214
 Alpha virt. eigenvalues --    2.69034   2.69663   2.69850   2.70853   2.71264
 Alpha virt. eigenvalues --    2.72511   2.73527   2.74855   2.75036   2.76345
 Alpha virt. eigenvalues --    2.77092   2.77494   2.78357   2.78831   2.79252
 Alpha virt. eigenvalues --    2.79350   2.80158   2.80546   2.80739   2.80978
 Alpha virt. eigenvalues --    2.81510   2.81847   2.82310   2.83505   2.83936
 Alpha virt. eigenvalues --    2.84363   2.85037   2.85950   2.86271   2.86759
 Alpha virt. eigenvalues --    2.87319   2.87387   2.88464   2.91013   2.92121
 Alpha virt. eigenvalues --    2.93714   2.94718   2.95223   2.97077   2.98511
 Alpha virt. eigenvalues --    2.99999   3.00644   3.01237   3.04007   3.04345
 Alpha virt. eigenvalues --    3.05512   3.09238   3.10955   3.12717   3.14751
 Alpha virt. eigenvalues --    3.15451   3.15913   3.16463   3.16983   3.20204
 Alpha virt. eigenvalues --    3.20838   3.22161   3.23212   3.24652   3.25191
 Alpha virt. eigenvalues --    3.44461   3.46973   3.47547   3.49306   3.50017
 Alpha virt. eigenvalues --    3.53366   3.54255   3.56100   3.57533   3.59727
 Alpha virt. eigenvalues --    3.63111   3.70456   3.74447
          Condensed to atoms (all electrons):
 Mulliken charges:
               1
     1  N   -0.312704
     2  C    0.182000
     3  C    0.041225
     4  N   -0.257156
     5  C    0.135400
     6  H    0.024513
     7  N   -0.300233
     8  C    0.142172
     9  H    0.007252
    10  N   -0.290162
    11  C    0.256118
    12  C    0.118243
    13  N   -0.061852
    14  H    0.112299
    15  H    0.081439
    16  H    0.022590
    17  H    0.032847
    18  H    0.026628
    19  N   -0.312268
    20  C    0.247735
    21  C    0.180928
    22  N   -0.111665
    23  H    0.113934
    24  H    0.114313
    25  N   -0.309729
    26  C    0.239419
    27  N   -0.148240
    28  H    0.121952
    29  C    0.190147
    30  O   -0.320540
    31  C   -0.008797
    32  N   -0.225181
    33  C    0.129730
    34  H    0.025518
    35  H    0.028274
    36  H    0.028605
    37  H    0.024924
    38  H    0.058194
    39  H    0.060287
    40  H    0.076393
    41  H    0.032436
    42  C   -0.115314
    43  O   -0.261504
    44  C    0.166284
    45  H    0.132889
    46  N   -0.120876
    47  O   -0.345017
    48  C    0.341727
    49  H    0.046382
    50  C    0.156051
    51  C    0.040379
    52  N   -0.278623
    53  H    0.034669
    54  H    0.042548
    55  H    0.026259
    56  H    0.119540
    57  H    0.115402
    58  N   -0.063967
    59  C    0.091886
    60  C    0.239492
    61  N   -0.266825
    62  H    0.041716
    63  C    0.165848
    64  N   -0.308579
    65  H    0.036786
    66  C    0.138500
    67  N   -0.269921
    68  C    0.032856
    69  C    0.177774
    70  N   -0.313349
 Sum of Mulliken charges =  -0.00000
 Mulliken charges with hydrogens summed into heavy atoms:
               1
     1  N   -0.312704
     2  C    0.264065
     3  C    0.041225
     4  N   -0.257156
     5  C    0.159913
     7  N   -0.300233
     8  C    0.149424
    10  N   -0.290162
    11  C    0.256118
    12  C    0.118243
    13  N    0.131886
    19  N   -0.312268
    20  C    0.247735
    21  C    0.262731
    22  N    0.116582
    25  N   -0.309729
    26  C    0.239419
    27  N   -0.026288
    29  C    0.190147
    30  O   -0.320540
    31  C   -0.008797
    32  N   -0.225181
    33  C    0.155248
    42  C   -0.082878
    43  O   -0.261504
    44  C    0.166284
    46  N    0.012013
    47  O   -0.345017
    48  C    0.341727
    50  C    0.202433
    51  C    0.235253
    52  N   -0.278623
    58  N    0.170975
    59  C    0.091886
    60  C    0.239492
    61  N   -0.266825
    63  C    0.207563
    64  N   -0.308579
    66  C    0.175285
    67  N   -0.269921
    68  C    0.032856
    69  C    0.281249
    70  N   -0.313349
 Electronic spatial extent (au):  <R**2>=          22218.0230
 Charge=             -0.0000 electrons
 Dipole moment (field-independent basis, Debye):
    X=              9.6901    Y=              5.0057    Z=              0.8332  Tot=             10.9385
 Quadrupole moment (field-independent basis, Debye-Ang):
   XX=           -166.7965   YY=           -207.2684   ZZ=           -251.1119
   XY=             -7.5850   XZ=             -4.4358   YZ=             -2.5870
 Traceless Quadrupole moment (field-independent basis, Debye-Ang):
   XX=             41.5958   YY=              1.1239   ZZ=            -42.7197
   XY=             -7.5850   XZ=             -4.4358   YZ=             -2.5870
 Octapole moment (field-independent basis, Debye-Ang**2):
  XXX=            -59.4558  YYY=            145.0270  ZZZ=             -8.8984  XYY=             92.6608
  XXY=              3.7826  XXZ=             -9.8900  XZZ=             58.6044  YZZ=             26.7716
  YYZ=             19.3974  XYZ=             89.5206
 Hexadecapole moment (field-independent basis, Debye-Ang**3):
 XXXX=         -13745.5204 YYYY=          -7419.2538 ZZZZ=          -4099.7024 XXXY=            578.7893
 XXXZ=           -197.5181 YYYX=           -316.0940 YYYZ=            -52.4851 ZZZX=             15.5880
 ZZZY=             72.7015 XXYY=          -3033.0034 XXZZ=          -3398.4622 YYZZ=          -1961.3333
 XXYZ=            123.0081 YYXZ=            159.1439 ZZXY=             46.2366
 N-N= 5.431192850992D+03 E-N=-1.564328520720D+04  KE= 2.037673099114D+03
 No NMR shielding tensors so no spin-rotation constants.
 Leave Link  601 at Fri Jan 26 21:12:50 2018, MaxMem=  4294967296 cpu:              49.0 elap:               1.7
 (Enter /share/apps/g16/l9999.exe)
 1\1\GINC-COMPUTE-0-3\SP\RwB97XD\CC-pVDZ\C23H27N17O3\SATYA\26-Jan-2018\
 0\\#p wb97xd/cc-pvdz sp scf=(maxcycles=20)\\Base pair stacking\\0,1\N,
 0,5.61798,-2.58131,-5.37039\C,0,7.07139,-2.32652,-5.3444\C,0,3.44374,-
 2.35572,-5.6135\N,0,3.65141,-3.65086,-5.16161\C,0,4.953,-3.73494,-5.03
 323\H,0,5.48638,-4.62313,-4.69328\N,0,2.41797,-0.36792,-6.36142\C,0,3.
 64909,0.14757,-6.44027\H,0,3.69984,1.17987,-6.78382\N,0,4.82141,-0.418
 02,-6.15976\C,0,4.64661,-1.68431,-5.74699\C,0,2.27557,-1.64443,-5.9427
 2\N,0,1.04746,-2.16078,-5.86335\H,0,0.89491,-3.10151,-5.55845\H,0,0.23
 846,-1.62518,-6.10583\H,0,7.53461,-2.96787,-5.95619\H,0,7.25191,-1.390
 64,-5.64552\H,0,7.41659,-2.44787,-4.41376\N,0,3.46687,3.11062,-3.09277
 \C,0,2.16642,2.68884,-3.23061\C,0,3.93183,4.5049,-3.23584\N,0,-1.17447
 ,3.39716,-3.86188\H,0,-2.03694,2.89504,-3.9189\H,0,-1.2127,4.38412,-4.
 02052\N,0,1.10343,3.47098,-3.51759\C,0,-0.01807,2.7758,-3.58519\N,0,-0
 .09485,1.41844,-3.38721\H,0,-0.99529,0.97,-3.45846\C,0,0.98589,0.59378
 ,-3.09089\O,0,0.80848,-0.62015,-2.93081\C,0,2.19768,1.32637,-3.01497\N
 ,0,3.49171,0.90133,-2.74715\C,0,4.20831,1.99105,-2.80381\H,0,5.28593,2
 .0347,-2.64228\H,0,4.6019,4.56036,-3.97526\H,0,3.15304,5.09356,-3.4485
 1\H,0,4.35299,4.80692,-2.38131\H,0,-5.64582,-0.75086,-4.5827\H,0,-5.84
 108,-0.75558,-2.83155\H,0,-4.79884,0.44308,-3.59857\H,0,-3.26643,-4.77
 372,-3.44179\C,0,-3.11827,-3.69395,-3.42235\O,0,-0.76494,-3.83644,-3.1
 6033\C,0,-1.79441,-3.17144,-3.27333\H,0,-0.79943,-1.3868,-3.15757\N,0,
 -1.71855,-1.79327,-3.26115\O,0,-2.59267,0.30069,-3.35296\C,0,-2.75949,
 -0.90611,-3.37482\H,0,-5.17983,-3.20043,-3.65089\C,0,-4.15369,-2.85389
 ,-3.53554\C,0,-5.14786,-0.57799,-3.64024\N,0,-4.00474,-1.4865,-3.51523
 \H,0,-3.57281,4.30505,-8.58768\H,0,-2.42219,4.26179,-7.43169\H,0,-3.97
 259,4.5745,-7.02852\H,0,-2.57033,-2.67224,-6.26862\H,0,-4.08927,-2.072
 05,-6.76126\N,0,-3.12886,-1.89073,-6.5469\C,0,-2.61669,-0.66104,-6.628
 83\C,0,-2.68852,1.67927,-7.05255\N,0,-1.39534,1.89315,-6.75868\H,0,0.2
 5405,0.83759,-6.15379\C,0,-0.80138,0.75382,-6.40936\N,0,-1.31263,-0.47
 881,-6.32669\H,0,-5.70605,2.41283,-7.95176\C,0,-4.79042,1.91502,-7.631
 23\N,0,-4.68737,0.63233,-7.3827\C,0,-3.35966,0.46944,-7.01474\C,0,-3.3
 7727,4.05301,-7.63992\N,0,-3.61892,2.60934,-7.45171\\Version=EM64L-G16
 RevA.03\State=1-A\HF=-2048.7438346\RMSD=6.891e-09\Dipole=-3.4994033,2.
 3846138,-0.7668706\Quadrupole=31.7479108,0.0421235,-31.7900343,1.81426
 36,3.7286206,1.6839838\PG=C01 [X(C23H27N17O3)]\\@


 ... SUBJECTS WHICH DISCLOSE THEIR FULL POWER, MEANING AND BEAUTY AS SOON
 AS THEY ARE PRESENTED TO THE MIND HAVE VERY LITTLE OF THOSE QUALITIES
 TO DISCLOSE.
                           -- CHARLES DUTTON (1882)
 Job cpu time:       0 days  5 hours 39 minutes 50.4 seconds.
 Elapsed time:       0 days  0 hours 10 minutes 59.8 seconds.
 File lengths (MBytes):  RWF=    298 Int=      0 D2E=      0 Chk=     33 Scr=      1
 Normal termination of Gaussian 16 at Fri Jan 26 21:12:50 2018.
