 Entering Gaussian System, Link 0=g16
 Input=str60.10.-1.5.com
 Output=str60.10.-1.5.log
 Initial command:
 /share/apps/g16/l1.exe "/state/partition1/scr/Gau-18377.inp" -scrdir="/state/partition1/scr/"
 Entering Link 1 = /share/apps/g16/l1.exe PID=     18378.
  
 Copyright (c) 1988,1990,1992,1993,1995,1998,2003,2009,2016,
            Gaussian, Inc.  All Rights Reserved.
  
 This is part of the Gaussian(R) 16 program.  It is based on
 the Gaussian(R) 09 system (copyright 2009, Gaussian, Inc.),
 the Gaussian(R) 03 system (copyright 2003, Gaussian, Inc.),
 the Gaussian(R) 98 system (copyright 1998, Gaussian, Inc.),
 the Gaussian(R) 94 system (copyright 1995, Gaussian, Inc.),
 the Gaussian 92(TM) system (copyright 1992, Gaussian, Inc.),
 the Gaussian 90(TM) system (copyright 1990, Gaussian, Inc.),
 the Gaussian 88(TM) system (copyright 1988, Gaussian, Inc.),
 the Gaussian 86(TM) system (copyright 1986, Carnegie Mellon
 University), and the Gaussian 82(TM) system (copyright 1983,
 Carnegie Mellon University). Gaussian is a federally registered
 trademark of Gaussian, Inc.
  
 This software contains proprietary and confidential information,
 including trade secrets, belonging to Gaussian, Inc.
  
 This software is provided under written license and may be
 used, copied, transmitted, or stored only in accord with that
 written license.
  
 The following legend is applicable only to US Government
 contracts under FAR:
  
                    RESTRICTED RIGHTS LEGEND
  
 Use, reproduction and disclosure by the US Government is
 subject to restrictions as set forth in subparagraphs (a)
 and (c) of the Commercial Computer Software - Restricted
 Rights clause in FAR 52.227-19.
  
 Gaussian, Inc.
 340 Quinnipiac St., Bldg. 40, Wallingford CT 06492
  
  
 ---------------------------------------------------------------
 Warning -- This program may not be used in any manner that
 competes with the business of Gaussian, Inc. or will provide
 assistance to any competitor of Gaussian, Inc.  The licensee
 of this program is prohibited from giving any competitor of
 Gaussian, Inc. access to this program.  By using this program,
 the user acknowledges that Gaussian, Inc. is engaged in the
 business of creating and licensing software in the field of
 computational chemistry and represents and warrants to the
 licensee that it is not a competitor of Gaussian, Inc. and that
 it will not use this program in any manner prohibited above.
 ---------------------------------------------------------------
  

 Cite this work as:
 Gaussian 16, Revision A.03,
 M. J. Frisch, G. W. Trucks, H. B. Schlegel, G. E. Scuseria, 
 M. A. Robb, J. R. Cheeseman, G. Scalmani, V. Barone, 
 G. A. Petersson, H. Nakatsuji, X. Li, M. Caricato, A. V. Marenich, 
 J. Bloino, B. G. Janesko, R. Gomperts, B. Mennucci, H. P. Hratchian, 
 J. V. Ortiz, A. F. Izmaylov, J. L. Sonnenberg, D. Williams-Young, 
 F. Ding, F. Lipparini, F. Egidi, J. Goings, B. Peng, A. Petrone, 
 T. Henderson, D. Ranasinghe, V. G. Zakrzewski, J. Gao, N. Rega, 
 G. Zheng, W. Liang, M. Hada, M. Ehara, K. Toyota, R. Fukuda, 
 J. Hasegawa, M. Ishida, T. Nakajima, Y. Honda, O. Kitao, H. Nakai, 
 T. Vreven, K. Throssell, J. A. Montgomery, Jr., J. E. Peralta, 
 F. Ogliaro, M. J. Bearpark, J. J. Heyd, E. N. Brothers, K. N. Kudin, 
 V. N. Staroverov, T. A. Keith, R. Kobayashi, J. Normand, 
 K. Raghavachari, A. P. Rendell, J. C. Burant, S. S. Iyengar, 
 J. Tomasi, M. Cossi, J. M. Millam, M. Klene, C. Adamo, R. Cammi, 
 J. W. Ochterski, R. L. Martin, K. Morokuma, O. Farkas, 
 J. B. Foresman, and D. J. Fox, Gaussian, Inc., Wallingford CT, 2016.
 
 ******************************************
 Gaussian 16:  EM64L-G16RevA.03 25-Dec-2016
                26-Jan-2018 
 ******************************************
 %nprocshared=32
 Will use up to   32 processors via shared memory.
 %mem=32GB
 %chk=allatoms_t.chk
 ---------------------------------------
 #p wb97xd/cc-pvdz sp scf=(maxcycles=20)
 ---------------------------------------
 1/38=1,172=1/1;
 2/12=2,17=6,18=5,40=1/2;
 3/5=16,11=2,25=1,30=1,74=-58/1,2,3;
 4//1;
 5/5=2,7=20,38=5/2;
 6/7=2,8=2,9=2,10=2,28=1/1;
 99/5=1,9=1/99;
 Leave Link    1 at Fri Jan 26 22:21:01 2018, MaxMem=  4294967296 cpu:               2.7 elap:               0.1
 (Enter /share/apps/g16/l101.exe)
 ------------------
 Base pair stacking
 ------------------
 Symbolic Z-matrix:
 Charge =  0 Multiplicity = 1
 N                     8.57298  -0.84299  -4.93826 
 C                     10.02639  -0.58819  -4.91227 
 C                     6.39874  -0.61739  -5.18137 
 N                     6.60641  -1.91253  -4.72948 
 C                     7.908    -1.99661  -4.6011 
 H                     8.44138  -2.8848   -4.26115 
 N                     5.37297   1.37041  -5.92929 
 C                     6.60409   1.8859   -6.00814 
 H                     6.65484   2.9182   -6.35169 
 N                     7.77641   1.32031  -5.72763 
 C                     7.60161   0.05402  -5.31486 
 C                     5.23057   0.0939   -5.51059 
 N                     4.00246  -0.42245  -5.43122 
 H                     3.84991  -1.36318  -5.12632 
 H                     3.19346   0.11315  -5.6737 
 H                     10.48961  -1.22954  -5.52406 
 H                     10.20691   0.34769  -5.21339 
 H                     10.37159  -0.70954  -3.98162 
 N                     4.45948   4.83619  -3.006 
 C                     3.15903   4.41442  -3.14384 
 C                     4.92444   6.23048  -3.14906 
 N                    -0.18186   5.12273  -3.77511 
 H                    -1.04433   4.62061  -3.83213 
 H                    -0.2201    6.10969  -3.93375 
 N                     2.09604   5.19656  -3.43082 
 C                     0.97454   4.50137  -3.49841 
 N                     0.89776   3.14402  -3.30044 
 H                    -0.00268   2.69557  -3.37169 
 C                     1.9785    2.31936  -3.00411 
 O                     1.80109   1.10542  -2.84404 
 C                     3.19029   3.05195  -2.9282 
 N                     4.48432   2.62691  -2.66038 
 C                     5.20092   3.71663  -2.71704 
 H                     6.27854   3.76028  -2.55551 
 H                     5.59451   6.28593  -3.88848 
 H                     4.14565   6.81913  -3.36174 
 H                     5.3456    6.53249  -2.29453 
 H                    -4.65321   0.97472  -4.49592 
 H                    -4.84847   0.96999  -2.74478 
 H                    -3.80623   2.16865  -3.51179 
 H                    -2.27382  -3.04814  -3.35501 
 C                    -2.12566  -1.96837  -3.33558 
 O                     0.22767  -2.11086  -3.07356 
 C                    -0.8018   -1.44587  -3.18655 
 H                     0.19318   0.33878  -3.07079 
 N                    -0.72594  -0.0677   -3.17437 
 O                    -1.60006   2.02626  -3.26619 
 C                    -1.76688   0.81947  -3.28805 
 H                    -4.18722  -1.47485  -3.56412 
 C                    -3.16108  -1.12832  -3.44876 
 C                    -4.15525   1.14759  -3.55347 
 N                    -3.01213   0.23908  -3.42846 
 H                    -0.61781   6.04338  -8.15555 
 H                     0.53281   6.00012  -6.99956 
 H                    -1.01759   6.31283  -6.59639 
 H                     0.38467  -0.93391  -5.83649 
 H                    -1.13427  -0.33372  -6.32913 
 N                    -0.17386  -0.1524   -6.11477 
 C                     0.33831   1.07729  -6.19669 
 C                     0.26647   3.41759  -6.62042 
 N                     1.55966   3.63148  -6.32655 
 H                     3.20905   2.57592  -5.72166 
 C                     2.15362   2.49215  -5.97723 
 N                     1.64237   1.25952  -5.89456 
 H                    -2.75105   4.15116  -7.51963 
 C                    -1.83542   3.65335  -7.1991 
 N                    -1.73237   2.37066  -6.95057 
 C                    -0.40466   2.20777  -6.58261 
 C                    -0.42227   5.79134  -7.20779 
 N                    -0.66392   4.34767  -7.01958 
 
 ITRead=  0  0  0  0  0  0  0  0  0  0  0  0  0  0  0  0  0  0  0  0
 ITRead=  0  0  0  0  0  0  0  0  0  0  0  0  0  0  0  0  0  0  0  0
 ITRead=  0  0  0  0  0  0  0  0  0  0  0  0  0  0  0  0  0  0  0  0
 ITRead=  0  0  0  0  0  0  0  0  0  0
 MicOpt= -1 -1 -1 -1 -1 -1 -1 -1 -1 -1 -1 -1 -1 -1 -1 -1 -1 -1 -1 -1
 MicOpt= -1 -1 -1 -1 -1 -1 -1 -1 -1 -1 -1 -1 -1 -1 -1 -1 -1 -1 -1 -1
 MicOpt= -1 -1 -1 -1 -1 -1 -1 -1 -1 -1 -1 -1 -1 -1 -1 -1 -1 -1 -1 -1
 MicOpt= -1 -1 -1 -1 -1 -1 -1 -1 -1 -1
 NAtoms=     70 NQM=       70 NQMF=       0 NMMI=      0 NMMIF=      0
                NMic=       0 NMicF=      0.
                    Isotopes and Nuclear Properties:
 (Nuclear quadrupole moments (NQMom) in fm**2, nuclear magnetic moments (NMagM)
  in nuclear magnetons)

  Atom         1           2           3           4           5           6           7           8           9          10
 IAtWgt=          14          12          12          14          12           1          14          12           1          14
 AtmWgt=  14.0030740  12.0000000  12.0000000  14.0030740  12.0000000   1.0078250  14.0030740  12.0000000   1.0078250  14.0030740
 NucSpn=           2           0           0           2           0           1           2           0           1           2
 AtZEff=  -0.0000000  -0.0000000  -0.0000000  -0.0000000  -0.0000000  -0.0000000  -0.0000000  -0.0000000  -0.0000000  -0.0000000
 NQMom=    2.0440000   0.0000000   0.0000000   2.0440000   0.0000000   0.0000000   2.0440000   0.0000000   0.0000000   2.0440000
 NMagM=    0.4037610   0.0000000   0.0000000   0.4037610   0.0000000   2.7928460   0.4037610   0.0000000   2.7928460   0.4037610
 AtZNuc=   7.0000000   6.0000000   6.0000000   7.0000000   6.0000000   1.0000000   7.0000000   6.0000000   1.0000000   7.0000000

  Atom        11          12          13          14          15          16          17          18          19          20
 IAtWgt=          12          12          14           1           1           1           1           1          14          12
 AtmWgt=  12.0000000  12.0000000  14.0030740   1.0078250   1.0078250   1.0078250   1.0078250   1.0078250  14.0030740  12.0000000
 NucSpn=           0           0           2           1           1           1           1           1           2           0
 AtZEff=  -0.0000000  -0.0000000  -0.0000000  -0.0000000  -0.0000000  -0.0000000  -0.0000000  -0.0000000  -0.0000000  -0.0000000
 NQMom=    0.0000000   0.0000000   2.0440000   0.0000000   0.0000000   0.0000000   0.0000000   0.0000000   2.0440000   0.0000000
 NMagM=    0.0000000   0.0000000   0.4037610   2.7928460   2.7928460   2.7928460   2.7928460   2.7928460   0.4037610   0.0000000
 AtZNuc=   6.0000000   6.0000000   7.0000000   1.0000000   1.0000000   1.0000000   1.0000000   1.0000000   7.0000000   6.0000000

  Atom        21          22          23          24          25          26          27          28          29          30
 IAtWgt=          12          14           1           1          14          12          14           1          12          16
 AtmWgt=  12.0000000  14.0030740   1.0078250   1.0078250  14.0030740  12.0000000  14.0030740   1.0078250  12.0000000  15.9949146
 NucSpn=           0           2           1           1           2           0           2           1           0           0
 AtZEff=  -0.0000000  -0.0000000  -0.0000000  -0.0000000  -0.0000000  -0.0000000  -0.0000000  -0.0000000  -0.0000000  -0.0000000
 NQMom=    0.0000000   2.0440000   0.0000000   0.0000000   2.0440000   0.0000000   2.0440000   0.0000000   0.0000000   0.0000000
 NMagM=    0.0000000   0.4037610   2.7928460   2.7928460   0.4037610   0.0000000   0.4037610   2.7928460   0.0000000   0.0000000
 AtZNuc=   6.0000000   7.0000000   1.0000000   1.0000000   7.0000000   6.0000000   7.0000000   1.0000000   6.0000000   8.0000000

  Atom        31          32          33          34          35          36          37          38          39          40
 IAtWgt=          12          14          12           1           1           1           1           1           1           1
 AtmWgt=  12.0000000  14.0030740  12.0000000   1.0078250   1.0078250   1.0078250   1.0078250   1.0078250   1.0078250   1.0078250
 NucSpn=           0           2           0           1           1           1           1           1           1           1
 AtZEff=  -0.0000000  -0.0000000  -0.0000000  -0.0000000  -0.0000000  -0.0000000  -0.0000000  -0.0000000  -0.0000000  -0.0000000
 NQMom=    0.0000000   2.0440000   0.0000000   0.0000000   0.0000000   0.0000000   0.0000000   0.0000000   0.0000000   0.0000000
 NMagM=    0.0000000   0.4037610   0.0000000   2.7928460   2.7928460   2.7928460   2.7928460   2.7928460   2.7928460   2.7928460
 AtZNuc=   6.0000000   7.0000000   6.0000000   1.0000000   1.0000000   1.0000000   1.0000000   1.0000000   1.0000000   1.0000000

  Atom        41          42          43          44          45          46          47          48          49          50
 IAtWgt=           1          12          16          12           1          14          16          12           1          12
 AtmWgt=   1.0078250  12.0000000  15.9949146  12.0000000   1.0078250  14.0030740  15.9949146  12.0000000   1.0078250  12.0000000
 NucSpn=           1           0           0           0           1           2           0           0           1           0
 AtZEff=  -0.0000000  -0.0000000  -0.0000000  -0.0000000  -0.0000000  -0.0000000  -0.0000000  -0.0000000  -0.0000000  -0.0000000
 NQMom=    0.0000000   0.0000000   0.0000000   0.0000000   0.0000000   2.0440000   0.0000000   0.0000000   0.0000000   0.0000000
 NMagM=    2.7928460   0.0000000   0.0000000   0.0000000   2.7928460   0.4037610   0.0000000   0.0000000   2.7928460   0.0000000
 AtZNuc=   1.0000000   6.0000000   8.0000000   6.0000000   1.0000000   7.0000000   8.0000000   6.0000000   1.0000000   6.0000000

  Atom        51          52          53          54          55          56          57          58          59          60
 IAtWgt=          12          14           1           1           1           1           1          14          12          12
 AtmWgt=  12.0000000  14.0030740   1.0078250   1.0078250   1.0078250   1.0078250   1.0078250  14.0030740  12.0000000  12.0000000
 NucSpn=           0           2           1           1           1           1           1           2           0           0
 AtZEff=  -0.0000000  -0.0000000  -0.0000000  -0.0000000  -0.0000000  -0.0000000  -0.0000000  -0.0000000  -0.0000000  -0.0000000
 NQMom=    0.0000000   2.0440000   0.0000000   0.0000000   0.0000000   0.0000000   0.0000000   2.0440000   0.0000000   0.0000000
 NMagM=    0.0000000   0.4037610   2.7928460   2.7928460   2.7928460   2.7928460   2.7928460   0.4037610   0.0000000   0.0000000
 AtZNuc=   6.0000000   7.0000000   1.0000000   1.0000000   1.0000000   1.0000000   1.0000000   7.0000000   6.0000000   6.0000000

  Atom        61          62          63          64          65          66          67          68          69          70
 IAtWgt=          14           1          12          14           1          12          14          12          12          14
 AtmWgt=  14.0030740   1.0078250  12.0000000  14.0030740   1.0078250  12.0000000  14.0030740  12.0000000  12.0000000  14.0030740
 NucSpn=           2           1           0           2           1           0           2           0           0           2
 AtZEff=  -0.0000000  -0.0000000  -0.0000000  -0.0000000  -0.0000000  -0.0000000  -0.0000000  -0.0000000  -0.0000000  -0.0000000
 NQMom=    2.0440000   0.0000000   0.0000000   2.0440000   0.0000000   0.0000000   2.0440000   0.0000000   0.0000000   2.0440000
 NMagM=    0.4037610   2.7928460   0.0000000   0.4037610   2.7928460   0.0000000   0.4037610   0.0000000   0.0000000   0.4037610
 AtZNuc=   7.0000000   1.0000000   6.0000000   7.0000000   1.0000000   6.0000000   7.0000000   6.0000000   6.0000000   7.0000000
 Leave Link  101 at Fri Jan 26 22:21:01 2018, MaxMem=  4294967296 cpu:               7.7 elap:               0.3
 (Enter /share/apps/g16/l202.exe)
 Stoichiometry    C23H27N17O3
 Framework group  C1[X(C23H27N17O3)]
 Deg. of freedom   204
 Full point group                 C1      NOp   1
 Largest Abelian subgroup         C1      NOp   1
 Largest concise Abelian subgroup C1      NOp   1
                         Standard orientation:                         
 ---------------------------------------------------------------------
 Center     Atomic      Atomic             Coordinates (Angstroms)
 Number     Number       Type             X           Y           Z
 ---------------------------------------------------------------------
      1          7           0       -6.756160   -1.616552    0.329126
      2          6           0       -8.159939   -1.171192    0.233956
      3          6           0       -4.577690   -1.666861    0.627547
      4          7           0       -4.950481   -2.954874    0.271503
      5          6           0       -6.248011   -2.873014    0.105964
      6          1           0       -6.890143   -3.706090   -0.181424
      7          7           0       -3.306602    0.219170    1.252175
      8          6           0       -4.456926    0.900599    1.248631
      9          1           0       -4.373583    1.955002    1.508503
     10          7           0       -5.688944    0.477073    0.973549
     11          6           0       -5.679922   -0.830789    0.667214
     12          6           0       -3.330930   -1.094903    0.939630
     13          7           0       -2.183693   -1.776818    0.942621
     14          1           0       -2.154560   -2.751347    0.717556
     15          1           0       -1.314705   -1.337061    1.169818
     16          1           0       -8.720643   -1.691863    0.877929
     17          1           0       -8.217348   -0.197994    0.454684
     18          1           0       -8.497021   -1.320880   -0.695543
     19          7           0       -1.859690    3.278482   -1.900408
     20          6           0       -0.632845    2.698040   -1.685935
     21          6           0       -2.132307    4.729710   -1.882661
     22          7           0        2.758192    2.999015   -0.998887
     23          1           0        3.542152    2.391625   -0.873531
     24          1           0        2.927698    3.981476   -0.916685
     25          7           0        0.520438    3.350669   -1.425049
     26          6           0        1.534207    2.518585   -1.265272
     27          7           0        1.428739    1.151644   -1.353798
     28          1           0        2.257330    0.593303   -1.217171
     29          6           0        0.252264    0.458653   -1.621278
     30          8           0        0.265235   -0.777126   -1.679837
     31          6           0       -0.845600    1.339155   -1.795335
     32          7           0       -2.179173    1.071863   -2.072894
     33          6           0       -2.740750    2.249161   -2.125968
     34          1           0       -3.798213    2.424244   -2.326916
     35          1           0       -2.805277    4.935463   -1.173022
     36          1           0       -1.285279    5.223479   -1.690329
     37          1           0       -2.488332    5.014563   -2.771994
     38          1           0        6.600988   -1.640496    0.195425
     39          1           0        6.833973   -1.815208   -1.542342
     40          1           0        5.948515   -0.428145   -0.907225
     41          1           0        3.719504   -5.385909   -0.707629
     42          6           0        3.721236   -4.301294   -0.816435
     43          8           0        1.377241   -4.146331   -1.146276
     44          6           0        2.485273   -3.619147   -1.050727
     45          1           0        1.747239   -1.732258   -1.339375
     46          7           0        2.599339   -2.249020   -1.173183
     47          8           0        3.749888   -0.291569   -1.215717
     48          6           0        3.749168   -1.503928   -1.093926
     49          1           0        5.825179   -4.073049   -0.557303
     50          6           0        4.859151   -3.602029   -0.734180
     51          6           0        6.153229   -1.480031   -0.774019
     52          7           0        4.899547   -2.233353   -0.866366
     53          1           0        3.215374    4.208898    3.308440
     54          1           0        2.096575    4.226379    2.120967
     55          1           0        3.684063    4.293124    1.747465
     56          1           0        1.319556   -2.736200    1.509255
     57          1           0        2.894695   -2.307813    2.004760
     58          7           0        1.973390   -2.016918    1.744391
     59          6           0        1.632864   -0.726883    1.712485
     60          6           0        2.015054    1.609191    1.954150
     61          7           0        0.770492    1.970573    1.600714
     62          1           0       -0.993667    1.100890    1.024537
     63          6           0        0.034159    0.896899    1.321567
     64          7           0        0.373388   -0.395977    1.352924
     65          1           0        5.083161    2.000683    2.895207
     66          6           0        4.115552    1.606207    2.583669
     67          7           0        3.843396    0.333079    2.432823
     68          6           0        2.514706    0.320973    2.033850
     69          6           0        3.008979    3.908583    2.377194
     70          7           0        3.054724    2.434984    2.310739
 ---------------------------------------------------------------------
 Rotational constants (GHZ):           0.1148612           0.0564277           0.0468653
 Leave Link  202 at Fri Jan 26 22:21:01 2018, MaxMem=  4294967296 cpu:               0.4 elap:               0.0
 (Enter /share/apps/g16/l301.exe)
 Standard basis: CC-pVDZ (5D, 7F)
 Ernie: Thresh=  0.10000D-02 Tol=  0.10000D-05 Strict=F.
 Ernie:  86 primitive shells out of 1081 were deleted.
 There are   780 symmetry adapted cartesian basis functions of A   symmetry.
 There are   737 symmetry adapted basis functions of A   symmetry.
   737 basis functions,  1608 primitive gaussians,   780 cartesian basis functions
   154 alpha electrons      154 beta electrons
       nuclear repulsion energy      5405.6200248785 Hartrees.
 IExCor= 4639 DFT=T Ex+Corr=wB97XD ExCW=0 ScaHFX=  1.000000
 ScaDFX=  1.000000  1.000000  1.000000  1.000000 ScalE2=  1.000000  1.000000
 IRadAn=      5 IRanWt=     -1 IRanGd=            0 ICorTp=0 IEmpDi=121
 HFx  wShort=  0.000000 wLong=  0.200000 cFull=  0.222036 cShort=  0.000000 cLong=  0.777964
 DFx  wShort=  0.000000 wLong=  0.200000 cFull=  0.000000 cShort=  0.000000 cLong=  1.000000
 NAtoms=   70 NActive=   70 NUniq=   70 SFac= 1.00D+00 NAtFMM=   60 NAOKFM=T Big=T
 Integral buffers will be    131072 words long.
 Raffenetti 2 integral format.
 Two-electron integral symmetry is turned on.
 R6Disp:  Grimme-D2 Dispersion energy=       -0.0659771270 Hartrees.
 Nuclear repulsion after empirical dispersion term =     5405.5540477515 Hartrees.
 Leave Link  301 at Fri Jan 26 22:21:01 2018, MaxMem=  4294967296 cpu:               3.0 elap:               0.1
 (Enter /share/apps/g16/l302.exe)
 NPDir=0 NMtPBC=     1 NCelOv=     1 NCel=       1 NClECP=     1 NCelD=      1
         NCelK=      1 NCelE2=     1 NClLst=     1 CellRange=     0.0.
 One-electron integrals computed using PRISM.
 One-electron integral symmetry used in STVInt
 NBasis=   737 RedAO= T EigKep=  7.18D-04  NBF=   737
 NBsUse=   737 1.00D-06 EigRej= -1.00D+00 NBFU=   737
 Precomputing XC quadrature grid using
 IXCGrd= 4 IRadAn=           5 IRanWt=          -1 IRanGd=           0 AccXCQ= 0.00D+00.
 Generated NRdTot=       0 NPtTot=           0 NUsed=           0 NTot=          32
 NSgBfM=   767   767   767   767   767 MxSgAt=    70 MxSgA2=    70.
 Leave Link  302 at Fri Jan 26 22:21:06 2018, MaxMem=  4294967296 cpu:             137.7 elap:               4.3
 (Enter /share/apps/g16/l303.exe)
 DipDrv:  MaxL=1.
 Leave Link  303 at Fri Jan 26 22:21:07 2018, MaxMem=  4294967296 cpu:              12.2 elap:               0.4
 (Enter /share/apps/g16/l401.exe)
 ExpMin= 1.22D-01 ExpMax= 1.17D+04 ExpMxC= 4.01D+02 IAcc=3 IRadAn=         5 AccDes= 0.00D+00
 Harris functional with IExCor= 4639 and IRadAn=       5 diagonalized for initial guess.
 HarFok:  IExCor= 4639 AccDes= 0.00D+00 IRadAn=         5 IDoV= 1 UseB2=F ITyADJ=14
 ICtDFT=  3500011 ScaDFX=  1.000000  1.000000  1.000000  1.000000
 FoFCou: FMM=F IPFlag=           0 FMFlag=      100000 FMFlg1=        2001
         NFxFlg=           0 DoJE=T BraDBF=F KetDBF=T FulRan=T
         wScrn=  0.000000 ICntrl=       500 IOpCl=  0 I1Cent=   200000004 NGrid=           0
         NMat0=    1 NMatS0=      1 NMatT0=    0 NMatD0=    1 NMtDS0=    0 NMtDT0=    0
 Petite list used in FoFCou.
 Harris En= -1963.88109128104    
 JPrj=0 DoOrth=F DoCkMO=F.
 Leave Link  401 at Fri Jan 26 22:21:19 2018, MaxMem=  4294967296 cpu:             388.7 elap:              12.2
 (Enter /share/apps/g16/l502.exe)
 Integral symmetry usage will be decided dynamically.
 Closed shell SCF:
 Using DIIS extrapolation, IDIIS=  1040.
 NGot=  4294967296 LenX=  4293717438 LenY=  4293108258
 Requested convergence on RMS density matrix=1.00D-08 within  20 cycles.
 Requested convergence on MAX density matrix=1.00D-06.
 Requested convergence on             energy=1.00D-06.
 No special actions if energy rises.
 Fock matrices will be formed incrementally for  20 cycles.
 Integral accuracy reduced to 1.0D-05 until final iterations.

 Cycle   1  Pass 0  IDiag  1:
 FoFJK:  IHMeth= 1 ICntrl=       0 DoSepK=T KAlg= 0 I1Cent=           0 FoldK=F
 IRaf=         1 NMat=       1 IRICut=       1 DoRegI=T DoRafI=F ISym2E= 0 IDoP0=0 IntGTp=1.
 FoFCou: FMM=T IPFlag=           0 FMFlag=      100000 FMFlg1=        2001
         NFxFlg=           0 DoJE=T BraDBF=F KetDBF=F FulRan=T
         wScrn=  0.000000 ICntrl=       500 IOpCl=  0 I1Cent=           0 NGrid=           0
         NMat0=    1 NMatS0=      1 NMatT0=    0 NMatD0=    1 NMtDS0=    0 NMtDT0=    0
 Symmetry not used in FoFCou.
 FMM levels:  10  Number of levels for PrismC:   9
 E= -2048.30602614094    
 DIIS: error= 2.52D-02 at cycle   1 NSaved=   1.
 NSaved= 1 IEnMin= 1 EnMin= -2048.30602614094     IErMin= 1 ErrMin= 2.52D-02
 ErrMax= 2.52D-02  0.00D+00 EMaxC= 1.00D-01 BMatC= 8.33D-01 BMatP= 8.33D-01
 IDIUse=3 WtCom= 7.48D-01 WtEn= 2.52D-01
 Coeff-Com:  0.100D+01
 Coeff-En:   0.100D+01
 Coeff:      0.100D+01
 Gap=     0.252 Goal=   None    Shift=    0.000
 GapD=    0.252 DampG=1.000 DampE=0.500 DampFc=0.5000 IDamp=-1.
 Damping current iteration by 5.00D-01
 RMSDP=1.58D-03 MaxDP=1.31D-01              OVMax= 2.07D-01

 Cycle   2  Pass 0  IDiag  1:
 RMSU=  7.89D-04    CP:  9.98D-01
 E= -2048.50477005766     Delta-E=       -0.198743916718 Rises=F Damp=T
 DIIS: error= 1.39D-02 at cycle   2 NSaved=   2.
 NSaved= 2 IEnMin= 2 EnMin= -2048.50477005766     IErMin= 2 ErrMin= 1.39D-02
 ErrMax= 1.39D-02  0.00D+00 EMaxC= 1.00D-01 BMatC= 1.45D-01 BMatP= 8.33D-01
 IDIUse=3 WtCom= 8.61D-01 WtEn= 1.39D-01
 Coeff-Com: -0.197D+00 0.120D+01
 Coeff-En:   0.000D+00 0.100D+01
 Coeff:     -0.170D+00 0.117D+01
 Gap=     0.359 Goal=   None    Shift=    0.000
 RMSDP=5.85D-04 MaxDP=3.46D-02 DE=-1.99D-01 OVMax= 1.48D-01

 Cycle   3  Pass 0  IDiag  1:
 RMSU=  5.72D-04    CP:  9.94D-01  1.14D+00
 E= -2048.68732089451     Delta-E=       -0.182550836856 Rises=F Damp=F
 DIIS: error= 8.65D-03 at cycle   3 NSaved=   3.
 NSaved= 3 IEnMin= 3 EnMin= -2048.68732089451     IErMin= 3 ErrMin= 8.65D-03
 ErrMax= 8.65D-03  0.00D+00 EMaxC= 1.00D-01 BMatC= 6.08D-02 BMatP= 1.45D-01
 IDIUse=3 WtCom= 9.14D-01 WtEn= 8.65D-02
 Coeff-Com: -0.229D+00 0.542D+00 0.686D+00
 Coeff-En:   0.000D+00 0.000D+00 0.100D+01
 Coeff:     -0.209D+00 0.495D+00 0.714D+00
 Gap=     0.274 Goal=   None    Shift=    0.000
 RMSDP=3.50D-04 MaxDP=3.36D-02 DE=-1.83D-01 OVMax= 7.16D-02

 Cycle   4  Pass 0  IDiag  1:
 RMSU=  2.02D-04    CP:  9.94D-01  1.42D+00  6.76D-01
 E= -2048.73285689264     Delta-E=       -0.045535998130 Rises=F Damp=F
 DIIS: error= 3.41D-03 at cycle   4 NSaved=   4.
 NSaved= 4 IEnMin= 4 EnMin= -2048.73285689264     IErMin= 4 ErrMin= 3.41D-03
 ErrMax= 3.41D-03  0.00D+00 EMaxC= 1.00D-01 BMatC= 9.37D-03 BMatP= 6.08D-02
 IDIUse=3 WtCom= 9.66D-01 WtEn= 3.41D-02
 Coeff-Com: -0.934D-01 0.181D+00 0.384D+00 0.529D+00
 Coeff-En:   0.000D+00 0.000D+00 0.755D-01 0.924D+00
 Coeff:     -0.903D-01 0.175D+00 0.373D+00 0.542D+00
 Gap=     0.280 Goal=   None    Shift=    0.000
 RMSDP=1.28D-04 MaxDP=1.27D-02 DE=-4.55D-02 OVMax= 1.41D-02

 Cycle   5  Pass 0  IDiag  1:
 RMSU=  6.15D-05    CP:  9.94D-01  1.39D+00  8.12D-01  6.12D-01
 E= -2048.74049250443     Delta-E=       -0.007635611784 Rises=F Damp=F
 DIIS: error= 7.66D-04 at cycle   5 NSaved=   5.
 NSaved= 5 IEnMin= 5 EnMin= -2048.74049250443     IErMin= 5 ErrMin= 7.66D-04
 ErrMax= 7.66D-04  0.00D+00 EMaxC= 1.00D-01 BMatC= 3.17D-04 BMatP= 9.37D-03
 IDIUse=3 WtCom= 9.92D-01 WtEn= 7.66D-03
 Coeff-Com: -0.245D-01 0.419D-01 0.126D+00 0.246D+00 0.610D+00
 Coeff-En:   0.000D+00 0.000D+00 0.000D+00 0.000D+00 0.100D+01
 Coeff:     -0.243D-01 0.416D-01 0.125D+00 0.244D+00 0.613D+00
 Gap=     0.279 Goal=   None    Shift=    0.000
 RMSDP=2.63D-05 MaxDP=2.13D-03 DE=-7.64D-03 OVMax= 3.29D-03

 Failed to achieve initial convergence to 1.0D-08 in  6 cycles.
 Switch to full accuracy anyway.
 Cycle   6  Pass 1  IDiag  1:
 E= -2048.74088841997     Delta-E=       -0.000395915538 Rises=F Damp=F
 DIIS: error= 2.27D-04 at cycle   1 NSaved=   1.
 NSaved= 1 IEnMin= 1 EnMin= -2048.74088841997     IErMin= 1 ErrMin= 2.27D-04
 ErrMax= 2.27D-04  0.00D+00 EMaxC= 1.00D-01 BMatC= 6.77D-05 BMatP= 6.77D-05
 IDIUse=3 WtCom= 9.98D-01 WtEn= 2.27D-03
 Coeff-Com:  0.100D+01
 Coeff-En:   0.100D+01
 Coeff:      0.100D+01
 Gap=     0.280 Goal=   None    Shift=    0.000
 RMSDP=2.63D-05 MaxDP=2.13D-03 DE=-3.96D-04 OVMax= 2.26D-03

 Cycle   7  Pass 1  IDiag  1:
 RMSU=  1.05D-04    CP:  1.00D+00
 E= -2048.74093869222     Delta-E=       -0.000050272248 Rises=F Damp=F
 DIIS: error= 2.89D-04 at cycle   2 NSaved=   2.
 NSaved= 2 IEnMin= 2 EnMin= -2048.74093869222     IErMin= 1 ErrMin= 2.27D-04
 ErrMax= 2.89D-04  0.00D+00 EMaxC= 1.00D-01 BMatC= 4.15D-05 BMatP= 6.77D-05
 IDIUse=3 WtCom= 9.97D-01 WtEn= 2.89D-03
 Coeff-Com:  0.419D+00 0.581D+00
 Coeff-En:   0.000D+00 0.100D+01
 Coeff:      0.417D+00 0.583D+00
 Gap=     0.280 Goal=   None    Shift=    0.000
 RMSDP=1.07D-05 MaxDP=1.16D-03 DE=-5.03D-05 OVMax= 1.32D-03

 Cycle   8  Pass 1  IDiag  1:
 RMSU=  1.04D-05    CP:  1.00D+00  1.02D+00
 E= -2048.74096892544     Delta-E=       -0.000030233227 Rises=F Damp=F
 DIIS: error= 1.17D-04 at cycle   3 NSaved=   3.
 NSaved= 3 IEnMin= 3 EnMin= -2048.74096892544     IErMin= 3 ErrMin= 1.17D-04
 ErrMax= 1.17D-04  0.00D+00 EMaxC= 1.00D-01 BMatC= 8.87D-06 BMatP= 4.15D-05
 IDIUse=3 WtCom= 9.99D-01 WtEn= 1.17D-03
 Coeff-Com: -0.194D-01 0.301D+00 0.718D+00
 Coeff-En:   0.000D+00 0.110D+00 0.890D+00
 Coeff:     -0.194D-01 0.301D+00 0.719D+00
 Gap=     0.280 Goal=   None    Shift=    0.000
 RMSDP=5.36D-06 MaxDP=4.67D-04 DE=-3.02D-05 OVMax= 5.24D-04

 Cycle   9  Pass 1  IDiag  1:
 RMSU=  3.74D-06    CP:  1.00D+00  1.05D+00  7.77D-01
 E= -2048.74097719728     Delta-E=       -0.000008271842 Rises=F Damp=F
 DIIS: error= 3.64D-05 at cycle   4 NSaved=   4.
 NSaved= 4 IEnMin= 4 EnMin= -2048.74097719728     IErMin= 4 ErrMin= 3.64D-05
 ErrMax= 3.64D-05  0.00D+00 EMaxC= 1.00D-01 BMatC= 4.84D-07 BMatP= 8.87D-06
 IDIUse=1 WtCom= 1.00D+00 WtEn= 0.00D+00
 Coeff-Com: -0.334D-01 0.801D-01 0.267D+00 0.686D+00
 Coeff:     -0.334D-01 0.801D-01 0.267D+00 0.686D+00
 Gap=     0.280 Goal=   None    Shift=    0.000
 RMSDP=1.41D-06 MaxDP=1.40D-04 DE=-8.27D-06 OVMax= 4.74D-04

 Cycle  10  Pass 1  IDiag  1:
 RMSU=  1.25D-06    CP:  1.00D+00  1.06D+00  8.13D-01  1.10D+00
 E= -2048.74097800060     Delta-E=       -0.000000803316 Rises=F Damp=F
 DIIS: error= 1.67D-05 at cycle   5 NSaved=   5.
 NSaved= 5 IEnMin= 5 EnMin= -2048.74097800060     IErMin= 5 ErrMin= 1.67D-05
 ErrMax= 1.67D-05  0.00D+00 EMaxC= 1.00D-01 BMatC= 1.13D-07 BMatP= 4.84D-07
 IDIUse=1 WtCom= 1.00D+00 WtEn= 0.00D+00
 Coeff-Com: -0.372D-02-0.528D-01-0.120D+00 0.204D+00 0.972D+00
 Coeff:     -0.372D-02-0.528D-01-0.120D+00 0.204D+00 0.972D+00
 Gap=     0.280 Goal=   None    Shift=    0.000
 RMSDP=1.16D-06 MaxDP=7.30D-05 DE=-8.03D-07 OVMax= 2.23D-04

 Cycle  11  Pass 1  IDiag  1:
 RMSU=  4.71D-07    CP:  1.00D+00  1.06D+00  8.24D-01  1.38D+00  1.17D+00
 E= -2048.74097823823     Delta-E=       -0.000000237625 Rises=F Damp=F
 DIIS: error= 1.01D-05 at cycle   6 NSaved=   6.
 NSaved= 6 IEnMin= 6 EnMin= -2048.74097823823     IErMin= 6 ErrMin= 1.01D-05
 ErrMax= 1.01D-05  0.00D+00 EMaxC= 1.00D-01 BMatC= 2.53D-08 BMatP= 1.13D-07
 IDIUse=1 WtCom= 1.00D+00 WtEn= 0.00D+00
 Coeff-Com:  0.466D-02-0.414D-01-0.112D+00-0.210D-03 0.510D+00 0.639D+00
 Coeff:      0.466D-02-0.414D-01-0.112D+00-0.210D-03 0.510D+00 0.639D+00
 Gap=     0.280 Goal=   None    Shift=    0.000
 RMSDP=3.41D-07 MaxDP=3.48D-05 DE=-2.38D-07 OVMax= 1.14D-04

 Cycle  12  Pass 1  IDiag  1:
 RMSU=  1.73D-07    CP:  1.00D+00  1.06D+00  8.25D-01  1.44D+00  1.29D+00
                    CP:  9.30D-01
 E= -2048.74097827436     Delta-E=       -0.000000036136 Rises=F Damp=F
 DIIS: error= 9.87D-07 at cycle   7 NSaved=   7.
 NSaved= 7 IEnMin= 7 EnMin= -2048.74097827436     IErMin= 7 ErrMin= 9.87D-07
 ErrMax= 9.87D-07  0.00D+00 EMaxC= 1.00D-01 BMatC= 6.86D-10 BMatP= 2.53D-08
 IDIUse=1 WtCom= 1.00D+00 WtEn= 0.00D+00
 Coeff-Com:  0.982D-03-0.533D-02-0.163D-01-0.721D-02 0.370D-01 0.120D+00
 Coeff-Com:  0.871D+00
 Coeff:      0.982D-03-0.533D-02-0.163D-01-0.721D-02 0.370D-01 0.120D+00
 Coeff:      0.871D+00
 Gap=     0.280 Goal=   None    Shift=    0.000
 RMSDP=8.20D-08 MaxDP=5.20D-06 DE=-3.61D-08 OVMax= 2.13D-05

 Cycle  13  Pass 1  IDiag  1:
 RMSU=  4.69D-08    CP:  1.00D+00  1.06D+00  8.25D-01  1.45D+00  1.31D+00
                    CP:  1.02D+00  1.16D+00
 E= -2048.74097827619     Delta-E=       -0.000000001824 Rises=F Damp=F
 DIIS: error= 6.20D-07 at cycle   8 NSaved=   8.
 NSaved= 8 IEnMin= 8 EnMin= -2048.74097827619     IErMin= 8 ErrMin= 6.20D-07
 ErrMax= 6.20D-07  0.00D+00 EMaxC= 1.00D-01 BMatC= 2.66D-10 BMatP= 6.86D-10
 IDIUse=1 WtCom= 1.00D+00 WtEn= 0.00D+00
 Coeff-Com: -0.702D-03 0.799D-02 0.204D-01-0.129D-02-0.111D+00-0.987D-01
 Coeff-Com:  0.422D+00 0.761D+00
 Coeff:     -0.702D-03 0.799D-02 0.204D-01-0.129D-02-0.111D+00-0.987D-01
 Coeff:      0.422D+00 0.761D+00
 Gap=     0.280 Goal=   None    Shift=    0.000
 RMSDP=4.17D-08 MaxDP=2.45D-06 DE=-1.82D-09 OVMax= 9.67D-06

 Cycle  14  Pass 1  IDiag  1:
 RMSU=  2.47D-08    CP:  1.00D+00  1.06D+00  8.24D-01  1.45D+00  1.31D+00
                    CP:  1.06D+00  1.30D+00  1.09D+00
 E= -2048.74097827632     Delta-E=       -0.000000000129 Rises=F Damp=F
 DIIS: error= 1.76D-07 at cycle   9 NSaved=   9.
 NSaved= 9 IEnMin= 9 EnMin= -2048.74097827632     IErMin= 9 ErrMin= 1.76D-07
 ErrMax= 1.76D-07  0.00D+00 EMaxC= 1.00D-01 BMatC= 2.60D-11 BMatP= 2.66D-10
 IDIUse=1 WtCom= 1.00D+00 WtEn= 0.00D+00
 Coeff-Com: -0.406D-03 0.403D-02 0.106D-01 0.362D-03-0.512D-01-0.553D-01
 Coeff-Com:  0.882D-01 0.306D+00 0.698D+00
 Coeff:     -0.406D-03 0.403D-02 0.106D-01 0.362D-03-0.512D-01-0.553D-01
 Coeff:      0.882D-01 0.306D+00 0.698D+00
 Gap=     0.280 Goal=   None    Shift=    0.000
 RMSDP=1.23D-08 MaxDP=8.66D-07 DE=-1.29D-10 OVMax= 3.07D-06

 Cycle  15  Pass 1  IDiag  1:
 RMSU=  8.52D-09    CP:  1.00D+00  1.06D+00  8.24D-01  1.45D+00  1.31D+00
                    CP:  1.07D+00  1.32D+00  1.22D+00  1.10D+00
 E= -2048.74097827649     Delta-E=       -0.000000000179 Rises=F Damp=F
 DIIS: error= 8.31D-08 at cycle  10 NSaved=  10.
 NSaved=10 IEnMin=10 EnMin= -2048.74097827649     IErMin=10 ErrMin= 8.31D-08
 ErrMax= 8.31D-08  0.00D+00 EMaxC= 1.00D-01 BMatC= 5.24D-12 BMatP= 2.60D-11
 IDIUse=1 WtCom= 1.00D+00 WtEn= 0.00D+00
 Coeff-Com:  0.303D-05-0.280D-03-0.596D-03 0.135D-03 0.517D-02 0.122D-02
 Coeff-Com: -0.553D-01-0.577D-01 0.293D+00 0.815D+00
 Coeff:      0.303D-05-0.280D-03-0.596D-03 0.135D-03 0.517D-02 0.122D-02
 Coeff:     -0.553D-01-0.577D-01 0.293D+00 0.815D+00
 Gap=     0.280 Goal=   None    Shift=    0.000
 RMSDP=6.22D-09 MaxDP=3.68D-07 DE=-1.79D-10 OVMax= 1.34D-06

 SCF Done:  E(RwB97XD) =  -2048.74097828     A.U. after   15 cycles
            NFock= 15  Conv=0.62D-08     -V/T= 2.0054
 KE= 2.037713719655D+03 PE=-1.559207048403D+04 EE= 6.100061738350D+03
 Leave Link  502 at Fri Jan 26 22:31:59 2018, MaxMem=  4294967296 cpu:           19800.2 elap:             640.3
 (Enter /share/apps/g16/l601.exe)
 Copying SCF densities to generalized density rwf, IOpCl= 0 IROHF=0.

 **********************************************************************

            Population analysis using the SCF density.

 **********************************************************************

 Orbital symmetries:
       Occupied  (A) (A) (A) (A) (A) (A) (A) (A) (A) (A) (A) (A)
                 (A) (A) (A) (A) (A) (A) (A) (A) (A) (A) (A) (A)
                 (A) (A) (A) (A) (A) (A) (A) (A) (A) (A) (A) (A)
                 (A) (A) (A) (A) (A) (A) (A) (A) (A) (A) (A) (A)
                 (A) (A) (A) (A) (A) (A) (A) (A) (A) (A) (A) (A)
                 (A) (A) (A) (A) (A) (A) (A) (A) (A) (A) (A) (A)
                 (A) (A) (A) (A) (A) (A) (A) (A) (A) (A) (A) (A)
                 (A) (A) (A) (A) (A) (A) (A) (A) (A) (A) (A) (A)
                 (A) (A) (A) (A) (A) (A) (A) (A) (A) (A) (A) (A)
                 (A) (A) (A) (A) (A) (A) (A) (A) (A) (A) (A) (A)
                 (A) (A) (A) (A) (A) (A) (A) (A) (A) (A) (A) (A)
                 (A) (A) (A) (A) (A) (A) (A) (A) (A) (A) (A) (A)
                 (A) (A) (A) (A) (A) (A) (A) (A) (A) (A)
       Virtual   (A) (A) (A) (A) (A) (A) (A) (A) (A) (A) (A) (A)
                 (A) (A) (A) (A) (A) (A) (A) (A) (A) (A) (A) (A)
                 (A) (A) (A) (A) (A) (A) (A) (A) (A) (A) (A) (A)
                 (A) (A) (A) (A) (A) (A) (A) (A) (A) (A) (A) (A)
                 (A) (A) (A) (A) (A) (A) (A) (A) (A) (A) (A) (A)
                 (A) (A) (A) (A) (A) (A) (A) (A) (A) (A) (A) (A)
                 (A) (A) (A) (A) (A) (A) (A) (A) (A) (A) (A) (A)
                 (A) (A) (A) (A) (A) (A) (A) (A) (A) (A) (A) (A)
                 (A) (A) (A) (A) (A) (A) (A) (A) (A) (A) (A) (A)
                 (A) (A) (A) (A) (A) (A) (A) (A) (A) (A) (A) (A)
                 (A) (A) (A) (A) (A) (A) (A) (A) (A) (A) (A) (A)
                 (A) (A) (A) (A) (A) (A) (A) (A) (A) (A) (A) (A)
                 (A) (A) (A) (A) (A) (A) (A) (A) (A) (A) (A) (A)
                 (A) (A) (A) (A) (A) (A) (A) (A) (A) (A) (A) (A)
                 (A) (A) (A) (A) (A) (A) (A) (A) (A) (A) (A) (A)
                 (A) (A) (A) (A) (A) (A) (A) (A) (A) (A) (A) (A)
                 (A) (A) (A) (A) (A) (A) (A) (A) (A) (A) (A) (A)
                 (A) (A) (A) (A) (A) (A) (A) (A) (A) (A) (A) (A)
                 (A) (A) (A) (A) (A) (A) (A) (A) (A) (A) (A) (A)
                 (A) (A) (A) (A) (A) (A) (A) (A) (A) (A) (A) (A)
                 (A) (A) (A) (A) (A) (A) (A) (A) (A) (A) (A) (A)
                 (A) (A) (A) (A) (A) (A) (A) (A) (A) (A) (A) (A)
                 (A) (A) (A) (A) (A) (A) (A) (A) (A) (A) (A) (A)
                 (A) (A) (A) (A) (A) (A) (A) (A) (A) (A) (A) (A)
                 (A) (A) (A) (A) (A) (A) (A) (A) (A) (A) (A) (A)
                 (A) (A) (A) (A) (A) (A) (A) (A) (A) (A) (A) (A)
                 (A) (A) (A) (A) (A) (A) (A) (A) (A) (A) (A) (A)
                 (A) (A) (A) (A) (A) (A) (A) (A) (A) (A) (A) (A)
                 (A) (A) (A) (A) (A) (A) (A) (A) (A) (A) (A) (A)
                 (A) (A) (A) (A) (A) (A) (A) (A) (A) (A) (A) (A)
                 (A) (A) (A) (A) (A) (A) (A) (A) (A) (A) (A) (A)
                 (A) (A) (A) (A) (A) (A) (A) (A) (A) (A) (A) (A)
                 (A) (A) (A) (A) (A) (A) (A) (A) (A) (A) (A) (A)
                 (A) (A) (A) (A) (A) (A) (A) (A) (A) (A) (A) (A)
                 (A) (A) (A) (A) (A) (A) (A) (A) (A) (A) (A) (A)
                 (A) (A) (A) (A) (A) (A) (A) (A) (A) (A) (A) (A)
                 (A) (A) (A) (A) (A) (A) (A) (A) (A) (A) (A) (A)
                 (A) (A) (A) (A) (A) (A) (A) (A) (A) (A) (A) (A)
                 (A) (A) (A) (A) (A) (A) (A) (A) (A) (A) (A) (A)
                 (A) (A) (A) (A) (A) (A) (A) (A) (A) (A) (A) (A)
                 (A) (A) (A) (A) (A) (A) (A) (A) (A) (A) (A) (A)
                 (A) (A) (A) (A) (A) (A) (A) (A) (A) (A) (A) (A)
                 (A) (A) (A) (A) (A) (A) (A) (A) (A) (A) (A) (A)
                 (A) (A) (A) (A) (A) (A) (A) (A) (A) (A) (A) (A)
                 (A) (A) (A) (A) (A) (A) (A) (A) (A) (A) (A) (A)
                 (A) (A) (A) (A) (A) (A) (A) (A) (A) (A) (A) (A)
                 (A) (A) (A) (A) (A) (A) (A) (A) (A) (A) (A) (A)
                 (A) (A) (A) (A) (A) (A) (A) (A) (A) (A) (A) (A)
                 (A) (A) (A) (A) (A) (A) (A)
 The electronic state is 1-A.
 Alpha  occ. eigenvalues --  -19.26212 -19.22617 -19.20852 -14.52883 -14.51443
 Alpha  occ. eigenvalues --  -14.48983 -14.48524 -14.48211 -14.47422 -14.47199
 Alpha  occ. eigenvalues --  -14.47121 -14.44496 -14.43021 -14.42997 -14.42337
 Alpha  occ. eigenvalues --  -14.41845 -14.41201 -14.40983 -14.40576 -14.39817
 Alpha  occ. eigenvalues --  -10.45851 -10.41616 -10.40657 -10.38776 -10.38481
 Alpha  occ. eigenvalues --  -10.38320 -10.37067 -10.36035 -10.35490 -10.35090
 Alpha  occ. eigenvalues --  -10.34595 -10.34424 -10.33862 -10.33439 -10.33179
 Alpha  occ. eigenvalues --  -10.33091 -10.32766 -10.31611 -10.31605 -10.31094
 Alpha  occ. eigenvalues --  -10.30735 -10.28383 -10.28262  -1.19805  -1.14171
 Alpha  occ. eigenvalues --   -1.13597  -1.13496  -1.11101  -1.10813  -1.09763
 Alpha  occ. eigenvalues --   -1.08947  -1.08109  -1.04657  -1.03709  -1.02912
 Alpha  occ. eigenvalues --   -1.00329  -1.00112  -0.99947  -0.98799  -0.96796
 Alpha  occ. eigenvalues --   -0.96715  -0.95630  -0.92299  -0.91531  -0.86591
 Alpha  occ. eigenvalues --   -0.85000  -0.84373  -0.83988  -0.83682  -0.82740
 Alpha  occ. eigenvalues --   -0.82064  -0.79339  -0.75986  -0.74910  -0.74075
 Alpha  occ. eigenvalues --   -0.73772  -0.73650  -0.72617  -0.70760  -0.69392
 Alpha  occ. eigenvalues --   -0.67773  -0.66966  -0.66021  -0.65752  -0.64824
 Alpha  occ. eigenvalues --   -0.64085  -0.63237  -0.62986  -0.62393  -0.62186
 Alpha  occ. eigenvalues --   -0.60023  -0.59959  -0.59922  -0.59531  -0.59013
 Alpha  occ. eigenvalues --   -0.58932  -0.58569  -0.56881  -0.56305  -0.56260
 Alpha  occ. eigenvalues --   -0.56152  -0.55109  -0.54871  -0.54754  -0.54281
 Alpha  occ. eigenvalues --   -0.53967  -0.53744  -0.53247  -0.52779  -0.52745
 Alpha  occ. eigenvalues --   -0.52475  -0.51806  -0.51501  -0.50459  -0.50444
 Alpha  occ. eigenvalues --   -0.49915  -0.49804  -0.49215  -0.49078  -0.48825
 Alpha  occ. eigenvalues --   -0.48560  -0.48478  -0.48292  -0.47892  -0.47680
 Alpha  occ. eigenvalues --   -0.46671  -0.45674  -0.44801  -0.44534  -0.43451
 Alpha  occ. eigenvalues --   -0.40847  -0.39785  -0.39608  -0.37761  -0.37522
 Alpha  occ. eigenvalues --   -0.37149  -0.36885  -0.36437  -0.35667  -0.34670
 Alpha  occ. eigenvalues --   -0.33723  -0.33583  -0.33270  -0.33161  -0.33005
 Alpha  occ. eigenvalues --   -0.32881  -0.32603  -0.32461  -0.32033  -0.30613
 Alpha  occ. eigenvalues --   -0.30057  -0.28924  -0.25755  -0.25457
 Alpha virt. eigenvalues --    0.02536   0.04984   0.07745   0.08210   0.08263
 Alpha virt. eigenvalues --    0.09284   0.09332   0.11193   0.11477   0.11993
 Alpha virt. eigenvalues --    0.12490   0.14140   0.14346   0.14688   0.14999
 Alpha virt. eigenvalues --    0.16115   0.16409   0.17022   0.17082   0.17855
 Alpha virt. eigenvalues --    0.19012   0.19170   0.20112   0.20174   0.20217
 Alpha virt. eigenvalues --    0.20852   0.20879   0.21272   0.21770   0.22497
 Alpha virt. eigenvalues --    0.22572   0.22878   0.23102   0.23499   0.23800
 Alpha virt. eigenvalues --    0.24143   0.24277   0.24640   0.24738   0.25092
 Alpha virt. eigenvalues --    0.25936   0.26107   0.26621   0.27526   0.27773
 Alpha virt. eigenvalues --    0.29173   0.29398   0.29947   0.30550   0.30895
 Alpha virt. eigenvalues --    0.31027   0.31556   0.32602   0.33456   0.33755
 Alpha virt. eigenvalues --    0.33998   0.34606   0.35679   0.35804   0.36800
 Alpha virt. eigenvalues --    0.37286   0.37430   0.38235   0.39423   0.39897
 Alpha virt. eigenvalues --    0.40105   0.40184   0.40850   0.41214   0.41741
 Alpha virt. eigenvalues --    0.42573   0.42610   0.43802   0.43947   0.44235
 Alpha virt. eigenvalues --    0.44965   0.45248   0.46170   0.46442   0.47165
 Alpha virt. eigenvalues --    0.47275   0.47974   0.48384   0.48574   0.49738
 Alpha virt. eigenvalues --    0.50092   0.50263   0.50336   0.50926   0.51248
 Alpha virt. eigenvalues --    0.51441   0.52242   0.52253   0.52970   0.52980
 Alpha virt. eigenvalues --    0.53729   0.53998   0.54222   0.55001   0.55474
 Alpha virt. eigenvalues --    0.55594   0.56169   0.56455   0.57207   0.57555
 Alpha virt. eigenvalues --    0.57759   0.58255   0.58648   0.59026   0.59308
 Alpha virt. eigenvalues --    0.59707   0.60120   0.60560   0.60997   0.61157
 Alpha virt. eigenvalues --    0.61679   0.61829   0.62428   0.62550   0.63356
 Alpha virt. eigenvalues --    0.63604   0.64194   0.64744   0.64977   0.65095
 Alpha virt. eigenvalues --    0.65457   0.66105   0.66383   0.66581   0.67300
 Alpha virt. eigenvalues --    0.67502   0.67787   0.68222   0.68560   0.68840
 Alpha virt. eigenvalues --    0.69039   0.69785   0.69943   0.70188   0.70809
 Alpha virt. eigenvalues --    0.71189   0.71731   0.72228   0.72553   0.73275
 Alpha virt. eigenvalues --    0.73579   0.73981   0.74507   0.75196   0.75458
 Alpha virt. eigenvalues --    0.75536   0.75725   0.76019   0.76463   0.76799
 Alpha virt. eigenvalues --    0.77145   0.77560   0.77700   0.77984   0.78368
 Alpha virt. eigenvalues --    0.78752   0.79075   0.79447   0.79695   0.80440
 Alpha virt. eigenvalues --    0.80702   0.81329   0.81801   0.82169   0.82730
 Alpha virt. eigenvalues --    0.82894   0.83403   0.83792   0.84420   0.84609
 Alpha virt. eigenvalues --    0.85161   0.85715   0.85879   0.86746   0.87776
 Alpha virt. eigenvalues --    0.87965   0.88483   0.88695   0.89055   0.89271
 Alpha virt. eigenvalues --    0.90256   0.90886   0.91194   0.91404   0.91741
 Alpha virt. eigenvalues --    0.92254   0.93018   0.93376   0.93957   0.94704
 Alpha virt. eigenvalues --    0.94800   0.95049   0.95603   0.95827   0.96288
 Alpha virt. eigenvalues --    0.96663   0.97313   0.97554   0.97937   0.98902
 Alpha virt. eigenvalues --    0.99047   0.99399   0.99917   1.00109   1.01035
 Alpha virt. eigenvalues --    1.01416   1.02202   1.02626   1.02683   1.02863
 Alpha virt. eigenvalues --    1.03373   1.03426   1.03937   1.04356   1.05444
 Alpha virt. eigenvalues --    1.05843   1.06082   1.06598   1.06768   1.07110
 Alpha virt. eigenvalues --    1.08585   1.08608   1.09168   1.09444   1.10238
 Alpha virt. eigenvalues --    1.11030   1.11218   1.11760   1.12924   1.13400
 Alpha virt. eigenvalues --    1.13758   1.14189   1.14697   1.14789   1.14990
 Alpha virt. eigenvalues --    1.15895   1.16110   1.16299   1.16672   1.17629
 Alpha virt. eigenvalues --    1.17746   1.17934   1.18375   1.19119   1.19315
 Alpha virt. eigenvalues --    1.19828   1.20045   1.20571   1.20995   1.21204
 Alpha virt. eigenvalues --    1.21347   1.22340   1.22499   1.22999   1.23076
 Alpha virt. eigenvalues --    1.23340   1.23661   1.23888   1.24137   1.24473
 Alpha virt. eigenvalues --    1.25165   1.25501   1.26672   1.27367   1.27420
 Alpha virt. eigenvalues --    1.27866   1.28708   1.29632   1.30528   1.31080
 Alpha virt. eigenvalues --    1.31785   1.32041   1.32817   1.33374   1.33994
 Alpha virt. eigenvalues --    1.34768   1.35174   1.35370   1.36094   1.36913
 Alpha virt. eigenvalues --    1.37369   1.37943   1.39081   1.39472   1.39712
 Alpha virt. eigenvalues --    1.40643   1.41258   1.41928   1.43875   1.44200
 Alpha virt. eigenvalues --    1.44733   1.45098   1.46725   1.47571   1.47981
 Alpha virt. eigenvalues --    1.48059   1.48300   1.48527   1.49308   1.49504
 Alpha virt. eigenvalues --    1.49890   1.50897   1.51432   1.52510   1.54263
 Alpha virt. eigenvalues --    1.54561   1.55624   1.55989   1.56326   1.56495
 Alpha virt. eigenvalues --    1.57706   1.58596   1.59455   1.60005   1.60870
 Alpha virt. eigenvalues --    1.61635   1.61780   1.62374   1.62528   1.63223
 Alpha virt. eigenvalues --    1.64062   1.64572   1.65301   1.65791   1.66259
 Alpha virt. eigenvalues --    1.66912   1.67349   1.67828   1.68189   1.68479
 Alpha virt. eigenvalues --    1.69419   1.69469   1.69876   1.70207   1.70446
 Alpha virt. eigenvalues --    1.71250   1.71775   1.72182   1.72838   1.72972
 Alpha virt. eigenvalues --    1.73267   1.73668   1.74292   1.74710   1.75054
 Alpha virt. eigenvalues --    1.75340   1.75465   1.75802   1.76208   1.76385
 Alpha virt. eigenvalues --    1.76850   1.77517   1.78007   1.78267   1.78621
 Alpha virt. eigenvalues --    1.79503   1.80002   1.80151   1.80288   1.80489
 Alpha virt. eigenvalues --    1.80500   1.80622   1.81106   1.81399   1.82294
 Alpha virt. eigenvalues --    1.82443   1.82693   1.83599   1.83949   1.83980
 Alpha virt. eigenvalues --    1.84829   1.85583   1.85729   1.86305   1.87008
 Alpha virt. eigenvalues --    1.87174   1.87731   1.87968   1.88459   1.88874
 Alpha virt. eigenvalues --    1.89265   1.89368   1.89907   1.90349   1.91066
 Alpha virt. eigenvalues --    1.91753   1.91981   1.92935   1.93347   1.93567
 Alpha virt. eigenvalues --    1.93668   1.94979   1.95132   1.95624   1.96402
 Alpha virt. eigenvalues --    1.97910   1.98571   1.99311   2.00573   2.00988
 Alpha virt. eigenvalues --    2.01211   2.01673   2.01809   2.03130   2.03554
 Alpha virt. eigenvalues --    2.03609   2.05159   2.06238   2.06426   2.07046
 Alpha virt. eigenvalues --    2.07198   2.08133   2.08267   2.08963   2.09679
 Alpha virt. eigenvalues --    2.10140   2.10706   2.10835   2.11544   2.12399
 Alpha virt. eigenvalues --    2.12752   2.13802   2.14136   2.16322   2.17032
 Alpha virt. eigenvalues --    2.17510   2.19549   2.19915   2.20273   2.20790
 Alpha virt. eigenvalues --    2.21386   2.21628   2.22603   2.23024   2.23594
 Alpha virt. eigenvalues --    2.24095   2.24555   2.25139   2.25498   2.26380
 Alpha virt. eigenvalues --    2.27113   2.27844   2.28525   2.29316   2.29707
 Alpha virt. eigenvalues --    2.30011   2.30439   2.31164   2.31627   2.32395
 Alpha virt. eigenvalues --    2.32779   2.33290   2.33590   2.34294   2.34466
 Alpha virt. eigenvalues --    2.35213   2.35820   2.36132   2.36689   2.37555
 Alpha virt. eigenvalues --    2.37965   2.39199   2.39422   2.40381   2.40839
 Alpha virt. eigenvalues --    2.41969   2.42357   2.42969   2.43554   2.44090
 Alpha virt. eigenvalues --    2.44403   2.44895   2.45959   2.46228   2.46976
 Alpha virt. eigenvalues --    2.47387   2.47884   2.48665   2.50695   2.51114
 Alpha virt. eigenvalues --    2.51442   2.53071   2.54163   2.54350   2.55470
 Alpha virt. eigenvalues --    2.56060   2.56791   2.56955   2.57948   2.59188
 Alpha virt. eigenvalues --    2.60125   2.61301   2.61752   2.62064   2.62772
 Alpha virt. eigenvalues --    2.64245   2.64439   2.65075   2.65174   2.65528
 Alpha virt. eigenvalues --    2.66790   2.67312   2.68261   2.68665   2.69289
 Alpha virt. eigenvalues --    2.69731   2.70226   2.70689   2.70816   2.71697
 Alpha virt. eigenvalues --    2.73346   2.73619   2.73787   2.75217   2.75955
 Alpha virt. eigenvalues --    2.77654   2.78198   2.78812   2.79171   2.79244
 Alpha virt. eigenvalues --    2.79780   2.80279   2.80466   2.80743   2.81039
 Alpha virt. eigenvalues --    2.81943   2.82035   2.83055   2.83484   2.84319
 Alpha virt. eigenvalues --    2.84516   2.85029   2.85733   2.86814   2.86912
 Alpha virt. eigenvalues --    2.87265   2.88114   2.88801   2.90656   2.91192
 Alpha virt. eigenvalues --    2.93888   2.95455   2.96658   2.97592   2.99370
 Alpha virt. eigenvalues --    3.00094   3.00761   3.02173   3.04170   3.05668
 Alpha virt. eigenvalues --    3.06117   3.09949   3.10387   3.13515   3.14952
 Alpha virt. eigenvalues --    3.15108   3.15437   3.15719   3.17095   3.19256
 Alpha virt. eigenvalues --    3.21886   3.22091   3.23407   3.24055   3.25547
 Alpha virt. eigenvalues --    3.45864   3.47076   3.47704   3.49636   3.49940
 Alpha virt. eigenvalues --    3.53476   3.53892   3.55763   3.57572   3.59548
 Alpha virt. eigenvalues --    3.61900   3.70623   3.73946
          Condensed to atoms (all electrons):
 Mulliken charges:
               1
     1  N   -0.311160
     2  C    0.181224
     3  C    0.031100
     4  N   -0.258693
     5  C    0.133059
     6  H    0.025590
     7  N   -0.294193
     8  C    0.137368
     9  H    0.007573
    10  N   -0.291408
    11  C    0.244197
    12  C    0.126596
    13  N   -0.055843
    14  H    0.110724
    15  H    0.090366
    16  H    0.024615
    17  H    0.034437
    18  H    0.025722
    19  N   -0.312445
    20  C    0.247780
    21  C    0.181964
    22  N   -0.118875
    23  H    0.116884
    24  H    0.116926
    25  N   -0.297439
    26  C    0.226345
    27  N   -0.125450
    28  H    0.114446
    29  C    0.157152
    30  O   -0.316898
    31  C    0.000731
    32  N   -0.220346
    33  C    0.129310
    34  H    0.030469
    35  H    0.029173
    36  H    0.027725
    37  H    0.025269
    38  H    0.063368
    39  H    0.059622
    40  H    0.076528
    41  H    0.033255
    42  C   -0.109699
    43  O   -0.266521
    44  C    0.153704
    45  H    0.134628
    46  N   -0.124355
    47  O   -0.346064
    48  C    0.353481
    49  H    0.050213
    50  C    0.167711
    51  C    0.043640
    52  N   -0.294505
    53  H    0.032545
    54  H    0.046600
    55  H    0.012929
    56  H    0.129103
    57  H    0.111941
    58  N   -0.068714
    59  C    0.089946
    60  C    0.232203
    61  N   -0.257412
    62  H    0.053494
    63  C    0.153431
    64  N   -0.297671
    65  H    0.030370
    66  C    0.128045
    67  N   -0.267543
    68  C    0.031365
    69  C    0.177117
    70  N   -0.306748
 Sum of Mulliken charges =  -0.00000
 Mulliken charges with hydrogens summed into heavy atoms:
               1
     1  N   -0.311160
     2  C    0.265997
     3  C    0.031100
     4  N   -0.258693
     5  C    0.158649
     7  N   -0.294193
     8  C    0.144941
    10  N   -0.291408
    11  C    0.244197
    12  C    0.126596
    13  N    0.145246
    19  N   -0.312445
    20  C    0.247780
    21  C    0.264132
    22  N    0.114934
    25  N   -0.297439
    26  C    0.226345
    27  N   -0.011004
    29  C    0.157152
    30  O   -0.316898
    31  C    0.000731
    32  N   -0.220346
    33  C    0.159779
    42  C   -0.076444
    43  O   -0.266521
    44  C    0.153704
    46  N    0.010273
    47  O   -0.346064
    48  C    0.353481
    50  C    0.217924
    51  C    0.243158
    52  N   -0.294505
    58  N    0.172329
    59  C    0.089946
    60  C    0.232203
    61  N   -0.257412
    63  C    0.206925
    64  N   -0.297671
    66  C    0.158415
    67  N   -0.267543
    68  C    0.031365
    69  C    0.269191
    70  N   -0.306748
 Electronic spatial extent (au):  <R**2>=          23631.2227
 Charge=             -0.0000 electrons
 Dipole moment (field-independent basis, Debye):
    X=              9.4820    Y=              4.6761    Z=              1.5811  Tot=             10.6899
 Quadrupole moment (field-independent basis, Debye-Ang):
   XX=           -156.7946   YY=           -209.3899   ZZ=           -250.1251
   XY=             -4.7670   XZ=              8.9045   YZ=             -6.8785
 Traceless Quadrupole moment (field-independent basis, Debye-Ang):
   XX=             48.6419   YY=             -3.9534   ZZ=            -44.6886
   XY=             -4.7670   XZ=              8.9045   YZ=             -6.8785
 Octapole moment (field-independent basis, Debye-Ang**2):
  XXX=              7.9798  YYY=            141.3584  ZZZ=             -1.2795  XYY=            110.4297
  XXY=           -110.0949  XXZ=            -62.3804  XZZ=             27.2528  YZZ=             38.4762
  YYZ=             26.0304  XYZ=             58.2872
 Hexadecapole moment (field-independent basis, Debye-Ang**3):
 XXXX=         -14532.5076 YYYY=          -7393.2664 ZZZZ=          -3479.8381 XXXY=            452.3687
 XXXZ=            111.6777 YYYX=           -228.9374 YYYZ=           -107.7042 ZZZX=             52.0994
 ZZZY=             45.0993 XXYY=          -3608.9562 XXZZ=          -3838.5825 YYZZ=          -1791.7724
 XXYZ=            122.1567 YYXZ=            235.7207 ZZXY=             33.9751
 N-N= 5.405554047751D+03 E-N=-1.559207048259D+04  KE= 2.037713719655D+03
 No NMR shielding tensors so no spin-rotation constants.
 Leave Link  601 at Fri Jan 26 22:32:01 2018, MaxMem=  4294967296 cpu:              47.4 elap:               1.7
 (Enter /share/apps/g16/l9999.exe)
 1\1\GINC-COMPUTE-0-3\SP\RwB97XD\CC-pVDZ\C23H27N17O3\SATYA\26-Jan-2018\
 0\\#p wb97xd/cc-pvdz sp scf=(maxcycles=20)\\Base pair stacking\\0,1\N,
 0,8.57298,-0.84299,-4.93826\C,0,10.02639,-0.58819,-4.91227\C,0,6.39874
 ,-0.61739,-5.18137\N,0,6.60641,-1.91253,-4.72948\C,0,7.908,-1.99661,-4
 .6011\H,0,8.44138,-2.8848,-4.26115\N,0,5.37297,1.37041,-5.92929\C,0,6.
 60409,1.8859,-6.00814\H,0,6.65484,2.9182,-6.35169\N,0,7.77641,1.32031,
 -5.72763\C,0,7.60161,0.05402,-5.31486\C,0,5.23057,0.0939,-5.51059\N,0,
 4.00246,-0.42245,-5.43122\H,0,3.84991,-1.36318,-5.12632\H,0,3.19346,0.
 11315,-5.6737\H,0,10.48961,-1.22954,-5.52406\H,0,10.20691,0.34769,-5.2
 1339\H,0,10.37159,-0.70954,-3.98162\N,0,4.45948,4.83619,-3.006\C,0,3.1
 5903,4.41442,-3.14384\C,0,4.92444,6.23048,-3.14906\N,0,-0.18186,5.1227
 3,-3.77511\H,0,-1.04433,4.62061,-3.83213\H,0,-0.2201,6.10969,-3.93375\
 N,0,2.09604,5.19656,-3.43082\C,0,0.97454,4.50137,-3.49841\N,0,0.89776,
 3.14402,-3.30044\H,0,-0.00268,2.69557,-3.37169\C,0,1.9785,2.31936,-3.0
 0411\O,0,1.80109,1.10542,-2.84404\C,0,3.19029,3.05195,-2.9282\N,0,4.48
 432,2.62691,-2.66038\C,0,5.20092,3.71663,-2.71704\H,0,6.27854,3.76028,
 -2.55551\H,0,5.59451,6.28593,-3.88848\H,0,4.14565,6.81913,-3.36174\H,0
 ,5.3456,6.53249,-2.29453\H,0,-4.65321,0.97472,-4.49592\H,0,-4.84847,0.
 96999,-2.74478\H,0,-3.80623,2.16865,-3.51179\H,0,-2.27382,-3.04814,-3.
 35501\C,0,-2.12566,-1.96837,-3.33558\O,0,0.22767,-2.11086,-3.07356\C,0
 ,-0.8018,-1.44587,-3.18655\H,0,0.19318,0.33878,-3.07079\N,0,-0.72594,-
 0.0677,-3.17437\O,0,-1.60006,2.02626,-3.26619\C,0,-1.76688,0.81947,-3.
 28805\H,0,-4.18722,-1.47485,-3.56412\C,0,-3.16108,-1.12832,-3.44876\C,
 0,-4.15525,1.14759,-3.55347\N,0,-3.01213,0.23908,-3.42846\H,0,-0.61781
 ,6.04338,-8.15555\H,0,0.53281,6.00012,-6.99956\H,0,-1.01759,6.31283,-6
 .59639\H,0,0.38467,-0.93391,-5.83649\H,0,-1.13427,-0.33372,-6.32913\N,
 0,-0.17386,-0.1524,-6.11477\C,0,0.33831,1.07729,-6.19669\C,0,0.26647,3
 .41759,-6.62042\N,0,1.55966,3.63148,-6.32655\H,0,3.20905,2.57592,-5.72
 166\C,0,2.15362,2.49215,-5.97723\N,0,1.64237,1.25952,-5.89456\H,0,-2.7
 5105,4.15116,-7.51963\C,0,-1.83542,3.65335,-7.1991\N,0,-1.73237,2.3706
 6,-6.95057\C,0,-0.40466,2.20777,-6.58261\C,0,-0.42227,5.79134,-7.20779
 \N,0,-0.66392,4.34767,-7.01958\\Version=EM64L-G16RevA.03\State=1-A\HF=
 -2048.7409783\RMSD=6.217e-09\Dipole=-3.4674873,2.2793829,-0.6849837\Qu
 adrupole=36.811898,-2.7013499,-34.110548,-1.2810148,4.9852644,1.806240
 7\PG=C01 [X(C23H27N17O3)]\\@


 KNOWLEDGE IS CHIMERA - FOR BEYOND IT LIES OTHER KNOWLEDGE,
 AND THE INCOMPLETENESS OF WHAT IS KNOWN RENDERS THE KNOWING FALSE.
     -- THE THOMAS COVENANT CHRONICLES
 Job cpu time:       0 days  5 hours 40 minutes  2.5 seconds.
 Elapsed time:       0 days  0 hours 10 minutes 59.6 seconds.
 File lengths (MBytes):  RWF=    298 Int=      0 D2E=      0 Chk=     33 Scr=      1
 Normal termination of Gaussian 16 at Fri Jan 26 22:32:02 2018.
