 Entering Gaussian System, Link 0=g16
 Input=str60.0.-1.5.com
 Output=str60.0.-1.5.log
 Initial command:
 /share/apps/g16/l1.exe "/state/partition1/scr/Gau-729.inp" -scrdir="/state/partition1/scr/"
 Entering Link 1 = /share/apps/g16/l1.exe PID=       730.
  
 Copyright (c) 1988,1990,1992,1993,1995,1998,2003,2009,2016,
            Gaussian, Inc.  All Rights Reserved.
  
 This is part of the Gaussian(R) 16 program.  It is based on
 the Gaussian(R) 09 system (copyright 2009, Gaussian, Inc.),
 the Gaussian(R) 03 system (copyright 2003, Gaussian, Inc.),
 the Gaussian(R) 98 system (copyright 1998, Gaussian, Inc.),
 the Gaussian(R) 94 system (copyright 1995, Gaussian, Inc.),
 the Gaussian 92(TM) system (copyright 1992, Gaussian, Inc.),
 the Gaussian 90(TM) system (copyright 1990, Gaussian, Inc.),
 the Gaussian 88(TM) system (copyright 1988, Gaussian, Inc.),
 the Gaussian 86(TM) system (copyright 1986, Carnegie Mellon
 University), and the Gaussian 82(TM) system (copyright 1983,
 Carnegie Mellon University). Gaussian is a federally registered
 trademark of Gaussian, Inc.
  
 This software contains proprietary and confidential information,
 including trade secrets, belonging to Gaussian, Inc.
  
 This software is provided under written license and may be
 used, copied, transmitted, or stored only in accord with that
 written license.
  
 The following legend is applicable only to US Government
 contracts under FAR:
  
                    RESTRICTED RIGHTS LEGEND
  
 Use, reproduction and disclosure by the US Government is
 subject to restrictions as set forth in subparagraphs (a)
 and (c) of the Commercial Computer Software - Restricted
 Rights clause in FAR 52.227-19.
  
 Gaussian, Inc.
 340 Quinnipiac St., Bldg. 40, Wallingford CT 06492
  
  
 ---------------------------------------------------------------
 Warning -- This program may not be used in any manner that
 competes with the business of Gaussian, Inc. or will provide
 assistance to any competitor of Gaussian, Inc.  The licensee
 of this program is prohibited from giving any competitor of
 Gaussian, Inc. access to this program.  By using this program,
 the user acknowledges that Gaussian, Inc. is engaged in the
 business of creating and licensing software in the field of
 computational chemistry and represents and warrants to the
 licensee that it is not a competitor of Gaussian, Inc. and that
 it will not use this program in any manner prohibited above.
 ---------------------------------------------------------------
  

 Cite this work as:
 Gaussian 16, Revision A.03,
 M. J. Frisch, G. W. Trucks, H. B. Schlegel, G. E. Scuseria, 
 M. A. Robb, J. R. Cheeseman, G. Scalmani, V. Barone, 
 G. A. Petersson, H. Nakatsuji, X. Li, M. Caricato, A. V. Marenich, 
 J. Bloino, B. G. Janesko, R. Gomperts, B. Mennucci, H. P. Hratchian, 
 J. V. Ortiz, A. F. Izmaylov, J. L. Sonnenberg, D. Williams-Young, 
 F. Ding, F. Lipparini, F. Egidi, J. Goings, B. Peng, A. Petrone, 
 T. Henderson, D. Ranasinghe, V. G. Zakrzewski, J. Gao, N. Rega, 
 G. Zheng, W. Liang, M. Hada, M. Ehara, K. Toyota, R. Fukuda, 
 J. Hasegawa, M. Ishida, T. Nakajima, Y. Honda, O. Kitao, H. Nakai, 
 T. Vreven, K. Throssell, J. A. Montgomery, Jr., J. E. Peralta, 
 F. Ogliaro, M. J. Bearpark, J. J. Heyd, E. N. Brothers, K. N. Kudin, 
 V. N. Staroverov, T. A. Keith, R. Kobayashi, J. Normand, 
 K. Raghavachari, A. P. Rendell, J. C. Burant, S. S. Iyengar, 
 J. Tomasi, M. Cossi, J. M. Millam, M. Klene, C. Adamo, R. Cammi, 
 J. W. Ochterski, R. L. Martin, K. Morokuma, O. Farkas, 
 J. B. Foresman, and D. J. Fox, Gaussian, Inc., Wallingford CT, 2016.
 
 ******************************************
 Gaussian 16:  EM64L-G16RevA.03 25-Dec-2016
                26-Jan-2018 
 ******************************************
 %nprocshared=32
 Will use up to   32 processors via shared memory.
 %mem=32GB
 %chk=allatoms_t.chk
 ---------------------------------------
 #p wb97xd/cc-pvdz sp scf=(maxcycles=20)
 ---------------------------------------
 1/38=1,172=1/1;
 2/12=2,17=6,18=5,40=1/2;
 3/5=16,11=2,25=1,30=1,74=-58/1,2,3;
 4//1;
 5/5=2,7=20,38=5/2;
 6/7=2,8=2,9=2,10=2,28=1/1;
 99/5=1,9=1/99;
 Leave Link    1 at Fri Jan 26 19:09:36 2018, MaxMem=  4294967296 cpu:               2.7 elap:               0.1
 (Enter /share/apps/g16/l101.exe)
 ------------------
 Base pair stacking
 ------------------
 Symbolic Z-matrix:
 Charge =  0 Multiplicity = 1
 N                     7.86796  -0.37226  -6.47105 
 C                     9.31185  -0.08472  -6.57363 
 C                     5.68025  -0.1657   -6.3785 
 N                     5.9474   -1.52187  -6.25948 
 C                     7.25473  -1.59203  -6.32 
 H                     7.82947  -2.51664  -6.25909 
 N                     4.56217   1.90595  -6.52372 
 C                     5.77152   2.46396  -6.6407 
 H                     5.77518   3.5479   -6.74702 
 N                     6.97139   1.88673  -6.64602 
 C                     6.8542    0.55553  -6.50964 
 C                     4.47789   0.56447  -6.38803 
 N                     3.27158   0.00561  -6.27112 
 H                     3.16179  -0.98366  -6.1686 
 H                     2.43693   0.55641  -6.28203 
 H                     9.69199  -0.55911  -7.36775 
 H                     9.44987   0.89984  -6.67715 
 H                     9.77615  -0.39945  -5.74576 
 N                     4.17618   4.85355  -3.26456 
 C                     2.86817   4.43264  -3.26328 
 C                     4.6208    6.25842  -3.36129 
 N                    -0.52535   5.15886  -3.39872 
 H                    -1.38872   4.65536  -3.38065 
 H                    -0.58234   6.15459  -3.47605 
 N                     1.77811   5.22535  -3.34948 
 C                     0.65624   4.52801  -3.32272 
 N                     0.60371   3.15903  -3.21948 
 H                    -0.29907   2.70982  -3.20649 
 C                     1.71251   2.32337  -3.12957 
 O                     1.55551   1.09942  -3.03986 
 C                     2.92505   3.05813  -3.15705 
 N                     4.24226   2.62484  -3.09292 
 C                     4.94714   3.72159  -3.16 
 H                     6.0367    3.76185  -3.13738 
 H                     5.18873   6.37473  -4.17537 
 H                     3.82188   6.85496  -3.42565 
 H                     5.15037   6.49888  -2.54855 
 H                    -5.05938   1.04004  -3.84208 
 H                    -5.02444   0.90226  -2.08582 
 H                    -4.08924   2.16365  -2.88935 
 H                    -2.55809  -3.03742  -3.32784 
 C                    -2.40688  -1.96098  -3.2464 
 O                    -0.03972  -2.10338  -3.30466 
 C                    -1.07403  -1.44027  -3.23206 
 H                    -0.06951   0.33877  -3.11248 
 N                    -0.99495  -0.06632  -3.12585 
 O                    -1.87012   2.02137  -2.94466 
 C                    -2.04036   0.81828  -3.03565 
 H                    -4.47981  -1.46866  -3.16654 
 C                    -3.44683  -1.12333  -3.16 
 C                    -4.4424    1.14576  -2.96218 
 N                    -3.29424   0.23985  -3.05609 
 H                    -1.6761    6.76929  -6.86174 
 H                    -0.38393   6.50545  -5.90113 
 H                    -1.86867   6.67235  -5.24405 
 H                    -0.3673   -0.51467  -6.31721 
 H                    -1.93864   0.13276  -6.46493 
 N                    -0.95872   0.29148  -6.33931 
 C                    -0.46367   1.52382  -6.20724 
 C                    -0.59415   3.89635  -6.08142 
 N                     0.72603   4.07942  -5.91402 
 H                     2.44214   2.96732  -5.77681 
 C                     1.36246   2.90988  -5.90822 
 N                     0.86843   1.67454  -6.04035 
 H                    -3.70463   4.71781  -6.40123 
 C                    -2.75411   4.18975  -6.32 
 N                    -2.61733   2.88775  -6.38132 
 C                    -1.25261   2.68826  -6.23142 
 C                    -1.35772   6.31877  -6.02768 
 N                    -1.5703    4.86265  -6.13959 
 
 ITRead=  0  0  0  0  0  0  0  0  0  0  0  0  0  0  0  0  0  0  0  0
 ITRead=  0  0  0  0  0  0  0  0  0  0  0  0  0  0  0  0  0  0  0  0
 ITRead=  0  0  0  0  0  0  0  0  0  0  0  0  0  0  0  0  0  0  0  0
 ITRead=  0  0  0  0  0  0  0  0  0  0
 MicOpt= -1 -1 -1 -1 -1 -1 -1 -1 -1 -1 -1 -1 -1 -1 -1 -1 -1 -1 -1 -1
 MicOpt= -1 -1 -1 -1 -1 -1 -1 -1 -1 -1 -1 -1 -1 -1 -1 -1 -1 -1 -1 -1
 MicOpt= -1 -1 -1 -1 -1 -1 -1 -1 -1 -1 -1 -1 -1 -1 -1 -1 -1 -1 -1 -1
 MicOpt= -1 -1 -1 -1 -1 -1 -1 -1 -1 -1
 NAtoms=     70 NQM=       70 NQMF=       0 NMMI=      0 NMMIF=      0
                NMic=       0 NMicF=      0.
                    Isotopes and Nuclear Properties:
 (Nuclear quadrupole moments (NQMom) in fm**2, nuclear magnetic moments (NMagM)
  in nuclear magnetons)

  Atom         1           2           3           4           5           6           7           8           9          10
 IAtWgt=          14          12          12          14          12           1          14          12           1          14
 AtmWgt=  14.0030740  12.0000000  12.0000000  14.0030740  12.0000000   1.0078250  14.0030740  12.0000000   1.0078250  14.0030740
 NucSpn=           2           0           0           2           0           1           2           0           1           2
 AtZEff=  -0.0000000  -0.0000000  -0.0000000  -0.0000000  -0.0000000  -0.0000000  -0.0000000  -0.0000000  -0.0000000  -0.0000000
 NQMom=    2.0440000   0.0000000   0.0000000   2.0440000   0.0000000   0.0000000   2.0440000   0.0000000   0.0000000   2.0440000
 NMagM=    0.4037610   0.0000000   0.0000000   0.4037610   0.0000000   2.7928460   0.4037610   0.0000000   2.7928460   0.4037610
 AtZNuc=   7.0000000   6.0000000   6.0000000   7.0000000   6.0000000   1.0000000   7.0000000   6.0000000   1.0000000   7.0000000

  Atom        11          12          13          14          15          16          17          18          19          20
 IAtWgt=          12          12          14           1           1           1           1           1          14          12
 AtmWgt=  12.0000000  12.0000000  14.0030740   1.0078250   1.0078250   1.0078250   1.0078250   1.0078250  14.0030740  12.0000000
 NucSpn=           0           0           2           1           1           1           1           1           2           0
 AtZEff=  -0.0000000  -0.0000000  -0.0000000  -0.0000000  -0.0000000  -0.0000000  -0.0000000  -0.0000000  -0.0000000  -0.0000000
 NQMom=    0.0000000   0.0000000   2.0440000   0.0000000   0.0000000   0.0000000   0.0000000   0.0000000   2.0440000   0.0000000
 NMagM=    0.0000000   0.0000000   0.4037610   2.7928460   2.7928460   2.7928460   2.7928460   2.7928460   0.4037610   0.0000000
 AtZNuc=   6.0000000   6.0000000   7.0000000   1.0000000   1.0000000   1.0000000   1.0000000   1.0000000   7.0000000   6.0000000

  Atom        21          22          23          24          25          26          27          28          29          30
 IAtWgt=          12          14           1           1          14          12          14           1          12          16
 AtmWgt=  12.0000000  14.0030740   1.0078250   1.0078250  14.0030740  12.0000000  14.0030740   1.0078250  12.0000000  15.9949146
 NucSpn=           0           2           1           1           2           0           2           1           0           0
 AtZEff=  -0.0000000  -0.0000000  -0.0000000  -0.0000000  -0.0000000  -0.0000000  -0.0000000  -0.0000000  -0.0000000  -0.0000000
 NQMom=    0.0000000   2.0440000   0.0000000   0.0000000   2.0440000   0.0000000   2.0440000   0.0000000   0.0000000   0.0000000
 NMagM=    0.0000000   0.4037610   2.7928460   2.7928460   0.4037610   0.0000000   0.4037610   2.7928460   0.0000000   0.0000000
 AtZNuc=   6.0000000   7.0000000   1.0000000   1.0000000   7.0000000   6.0000000   7.0000000   1.0000000   6.0000000   8.0000000

  Atom        31          32          33          34          35          36          37          38          39          40
 IAtWgt=          12          14          12           1           1           1           1           1           1           1
 AtmWgt=  12.0000000  14.0030740  12.0000000   1.0078250   1.0078250   1.0078250   1.0078250   1.0078250   1.0078250   1.0078250
 NucSpn=           0           2           0           1           1           1           1           1           1           1
 AtZEff=  -0.0000000  -0.0000000  -0.0000000  -0.0000000  -0.0000000  -0.0000000  -0.0000000  -0.0000000  -0.0000000  -0.0000000
 NQMom=    0.0000000   2.0440000   0.0000000   0.0000000   0.0000000   0.0000000   0.0000000   0.0000000   0.0000000   0.0000000
 NMagM=    0.0000000   0.4037610   0.0000000   2.7928460   2.7928460   2.7928460   2.7928460   2.7928460   2.7928460   2.7928460
 AtZNuc=   6.0000000   7.0000000   6.0000000   1.0000000   1.0000000   1.0000000   1.0000000   1.0000000   1.0000000   1.0000000

  Atom        41          42          43          44          45          46          47          48          49          50
 IAtWgt=           1          12          16          12           1          14          16          12           1          12
 AtmWgt=   1.0078250  12.0000000  15.9949146  12.0000000   1.0078250  14.0030740  15.9949146  12.0000000   1.0078250  12.0000000
 NucSpn=           1           0           0           0           1           2           0           0           1           0
 AtZEff=  -0.0000000  -0.0000000  -0.0000000  -0.0000000  -0.0000000  -0.0000000  -0.0000000  -0.0000000  -0.0000000  -0.0000000
 NQMom=    0.0000000   0.0000000   0.0000000   0.0000000   0.0000000   2.0440000   0.0000000   0.0000000   0.0000000   0.0000000
 NMagM=    2.7928460   0.0000000   0.0000000   0.0000000   2.7928460   0.4037610   0.0000000   0.0000000   2.7928460   0.0000000
 AtZNuc=   1.0000000   6.0000000   8.0000000   6.0000000   1.0000000   7.0000000   8.0000000   6.0000000   1.0000000   6.0000000

  Atom        51          52          53          54          55          56          57          58          59          60
 IAtWgt=          12          14           1           1           1           1           1          14          12          12
 AtmWgt=  12.0000000  14.0030740   1.0078250   1.0078250   1.0078250   1.0078250   1.0078250  14.0030740  12.0000000  12.0000000
 NucSpn=           0           2           1           1           1           1           1           2           0           0
 AtZEff=  -0.0000000  -0.0000000  -0.0000000  -0.0000000  -0.0000000  -0.0000000  -0.0000000  -0.0000000  -0.0000000  -0.0000000
 NQMom=    0.0000000   2.0440000   0.0000000   0.0000000   0.0000000   0.0000000   0.0000000   2.0440000   0.0000000   0.0000000
 NMagM=    0.0000000   0.4037610   2.7928460   2.7928460   2.7928460   2.7928460   2.7928460   0.4037610   0.0000000   0.0000000
 AtZNuc=   6.0000000   7.0000000   1.0000000   1.0000000   1.0000000   1.0000000   1.0000000   7.0000000   6.0000000   6.0000000

  Atom        61          62          63          64          65          66          67          68          69          70
 IAtWgt=          14           1          12          14           1          12          14          12          12          14
 AtmWgt=  14.0030740   1.0078250  12.0000000  14.0030740   1.0078250  12.0000000  14.0030740  12.0000000  12.0000000  14.0030740
 NucSpn=           2           1           0           2           1           0           2           0           0           2
 AtZEff=  -0.0000000  -0.0000000  -0.0000000  -0.0000000  -0.0000000  -0.0000000  -0.0000000  -0.0000000  -0.0000000  -0.0000000
 NQMom=    2.0440000   0.0000000   0.0000000   2.0440000   0.0000000   0.0000000   2.0440000   0.0000000   0.0000000   2.0440000
 NMagM=    0.4037610   2.7928460   0.0000000   0.4037610   2.7928460   0.0000000   0.4037610   0.0000000   0.0000000   0.4037610
 AtZNuc=   7.0000000   1.0000000   6.0000000   7.0000000   1.0000000   6.0000000   7.0000000   6.0000000   6.0000000   7.0000000
 Leave Link  101 at Fri Jan 26 19:09:36 2018, MaxMem=  4294967296 cpu:               7.8 elap:               0.3
 (Enter /share/apps/g16/l202.exe)
 Stoichiometry    C23H27N17O3
 Framework group  C1[X(C23H27N17O3)]
 Deg. of freedom   204
 Full point group                 C1      NOp   1
 Largest Abelian subgroup         C1      NOp   1
 Largest concise Abelian subgroup C1      NOp   1
                         Standard orientation:                         
 ---------------------------------------------------------------------
 Center     Atomic      Atomic             Coordinates (Angstroms)
 Number     Number       Type             X           Y           Z
 ---------------------------------------------------------------------
      1          7           0       -6.724264   -1.623919    0.377202
      2          6           0       -8.120842   -1.174756    0.216445
      3          6           0       -4.550818   -1.668108    0.711099
      4          7           0       -4.935220   -2.981497    0.483113
      5          6           0       -6.229262   -2.902301    0.291074
      6          1           0       -6.878068   -3.753083    0.080929
      7          7           0       -3.264251    0.257425    1.158303
      8          6           0       -4.405619    0.947906    1.068279
      9          1           0       -4.312313    2.022358    1.220233
     10          7           0       -5.639142    0.512441    0.819880
     11          6           0       -5.642723   -0.819926    0.648969
     12          6           0       -3.301169   -1.081385    0.981361
     13          7           0       -2.162872   -1.772362    1.070838
     14          1           0       -2.143172   -2.765082    0.946990
     15          1           0       -1.291466   -1.321540    1.264620
     16          1           0       -8.696749   -1.620395    0.901949
     17          1           0       -8.168773   -0.183492    0.335702
     18          1           0       -8.447291   -1.414967   -0.697737
     19          7           0       -1.937075    3.215085   -1.833404
     20          6           0       -0.707065    2.646766   -1.605048
     21          6           0       -2.237090    4.659158   -1.760273
     22          7           0        2.654260    2.974835   -0.795365
     23          1           0        3.445025    2.375986   -0.671601
     24          1           0        2.802758    3.955379   -0.664263
     25          7           0        0.425011    3.306748   -1.278124
     26          6           0        1.448503    2.485884   -1.122444
     27          7           0        1.371361    1.122668   -1.274817
     28          1           0        2.205452    0.573089   -1.136163
     29          6           0        0.217077    0.422272   -1.610855
     30          8           0        0.254894   -0.809231   -1.723646
     31          6           0       -0.890908    1.290703   -1.781378
     32          7           0       -2.209790    1.013266   -2.113753
     33          6           0       -2.791221    2.181936   -2.132876
     34          1           0       -3.844853    2.347668   -2.360175
     35          1           0       -2.935952    4.821274   -1.064494
     36          1           0       -1.405920    5.158285   -1.518812
     37          1           0       -2.569943    4.977465   -2.647235
     38          1           0        6.542914   -1.646893    0.316694
     39          1           0        6.834141   -1.739433   -1.418609
     40          1           0        5.903312   -0.397674   -0.751822
     41          1           0        3.761755   -5.396969   -0.844627
     42          6           0        3.746752   -4.308700   -0.905180
     43          8           0        1.411929   -4.179381   -1.303923
     44          6           0        2.506363   -3.638056   -1.149119
     45          1           0        1.742871   -1.753079   -1.377771
     46          7           0        2.598732   -2.262051   -1.206992
     47          8           0        3.713420   -0.285183   -1.125340
     48          6           0        3.731402   -1.501635   -1.057458
     49          1           0        5.836792   -4.056198   -0.567882
     50          6           0        4.868275   -3.594370   -0.755051
     51          6           0        6.123240   -1.450810   -0.658750
     52          7           0        4.887354   -2.220664   -0.825109
     53          1           0        3.279964    4.362488    2.891521
     54          1           0        2.177530    4.271013    1.692206
     55          1           0        3.770607    4.281180    1.337153
     56          1           0        1.319912   -2.708355    1.783856
     57          1           0        2.893599   -2.249379    2.256031
     58          7           0        1.979662   -1.976243    1.953819
     59          6           0        1.656101   -0.692468    1.785269
     60          6           0        2.064820    1.651599    1.792520
     61          7           0        0.829845    1.988983    1.385801
     62          1           0       -0.937393    1.084939    0.875706
     63          6           0        0.083669    0.900786    1.207061
     64          7           0        0.405899   -0.385853    1.375342
     65          1           0        5.124771    2.102554    2.733532
     66          6           0        4.156473    1.689246    2.449791
     67          7           0        3.870123    0.410535    2.425856
     68          6           0        2.546869    0.372714    2.010770
     69          6           0        3.082279    3.970794    1.992919
     70          7           0        3.110070    2.497709    2.078068
 ---------------------------------------------------------------------
 Rotational constants (GHZ):           0.1172107           0.0571210           0.0470239
 Leave Link  202 at Fri Jan 26 19:09:36 2018, MaxMem=  4294967296 cpu:               0.4 elap:               0.0
 (Enter /share/apps/g16/l301.exe)
 Standard basis: CC-pVDZ (5D, 7F)
 Ernie: Thresh=  0.10000D-02 Tol=  0.10000D-05 Strict=F.
 Ernie:  86 primitive shells out of 1081 were deleted.
 There are   780 symmetry adapted cartesian basis functions of A   symmetry.
 There are   737 symmetry adapted basis functions of A   symmetry.
   737 basis functions,  1608 primitive gaussians,   780 cartesian basis functions
   154 alpha electrons      154 beta electrons
       nuclear repulsion energy      5437.1475785089 Hartrees.
 IExCor= 4639 DFT=T Ex+Corr=wB97XD ExCW=0 ScaHFX=  1.000000
 ScaDFX=  1.000000  1.000000  1.000000  1.000000 ScalE2=  1.000000  1.000000
 IRadAn=      5 IRanWt=     -1 IRanGd=            0 ICorTp=0 IEmpDi=121
 HFx  wShort=  0.000000 wLong=  0.200000 cFull=  0.222036 cShort=  0.000000 cLong=  0.777964
 DFx  wShort=  0.000000 wLong=  0.200000 cFull=  0.000000 cShort=  0.000000 cLong=  1.000000
 NAtoms=   70 NActive=   70 NUniq=   70 SFac= 1.00D+00 NAtFMM=   60 NAOKFM=T Big=T
 Integral buffers will be    131072 words long.
 Raffenetti 2 integral format.
 Two-electron integral symmetry is turned on.
 R6Disp:  Grimme-D2 Dispersion energy=       -0.0677224460 Hartrees.
 Nuclear repulsion after empirical dispersion term =     5437.0798560629 Hartrees.
 Leave Link  301 at Fri Jan 26 19:09:36 2018, MaxMem=  4294967296 cpu:               2.1 elap:               0.1
 (Enter /share/apps/g16/l302.exe)
 NPDir=0 NMtPBC=     1 NCelOv=     1 NCel=       1 NClECP=     1 NCelD=      1
         NCelK=      1 NCelE2=     1 NClLst=     1 CellRange=     0.0.
 One-electron integrals computed using PRISM.
 One-electron integral symmetry used in STVInt
 NBasis=   737 RedAO= T EigKep=  7.10D-04  NBF=   737
 NBsUse=   737 1.00D-06 EigRej= -1.00D+00 NBFU=   737
 Precomputing XC quadrature grid using
 IXCGrd= 4 IRadAn=           5 IRanWt=          -1 IRanGd=           0 AccXCQ= 0.00D+00.
 Generated NRdTot=       0 NPtTot=           0 NUsed=           0 NTot=          32
 NSgBfM=   767   767   767   767   767 MxSgAt=    70 MxSgA2=    70.
 Leave Link  302 at Fri Jan 26 19:09:41 2018, MaxMem=  4294967296 cpu:             134.8 elap:               4.3
 (Enter /share/apps/g16/l303.exe)
 DipDrv:  MaxL=1.
 Leave Link  303 at Fri Jan 26 19:09:41 2018, MaxMem=  4294967296 cpu:              12.3 elap:               0.4
 (Enter /share/apps/g16/l401.exe)
 ExpMin= 1.22D-01 ExpMax= 1.17D+04 ExpMxC= 4.01D+02 IAcc=3 IRadAn=         5 AccDes= 0.00D+00
 Harris functional with IExCor= 4639 and IRadAn=       5 diagonalized for initial guess.
 HarFok:  IExCor= 4639 AccDes= 0.00D+00 IRadAn=         5 IDoV= 1 UseB2=F ITyADJ=14
 ICtDFT=  3500011 ScaDFX=  1.000000  1.000000  1.000000  1.000000
 FoFCou: FMM=F IPFlag=           0 FMFlag=      100000 FMFlg1=        2001
         NFxFlg=           0 DoJE=T BraDBF=F KetDBF=T FulRan=T
         wScrn=  0.000000 ICntrl=       500 IOpCl=  0 I1Cent=   200000004 NGrid=           0
         NMat0=    1 NMatS0=      1 NMatT0=    0 NMatD0=    1 NMtDS0=    0 NMtDT0=    0
 Petite list used in FoFCou.
 Harris En= -1963.86720046625    
 JPrj=0 DoOrth=F DoCkMO=F.
 Leave Link  401 at Fri Jan 26 19:09:53 2018, MaxMem=  4294967296 cpu:             389.6 elap:              12.2
 (Enter /share/apps/g16/l502.exe)
 Integral symmetry usage will be decided dynamically.
 Closed shell SCF:
 Using DIIS extrapolation, IDIIS=  1040.
 NGot=  4294967296 LenX=  4293717438 LenY=  4293108258
 Requested convergence on RMS density matrix=1.00D-08 within  20 cycles.
 Requested convergence on MAX density matrix=1.00D-06.
 Requested convergence on             energy=1.00D-06.
 No special actions if energy rises.
 Fock matrices will be formed incrementally for  20 cycles.
 Integral accuracy reduced to 1.0D-05 until final iterations.

 Cycle   1  Pass 0  IDiag  1:
 FoFJK:  IHMeth= 1 ICntrl=       0 DoSepK=T KAlg= 0 I1Cent=           0 FoldK=F
 IRaf=         1 NMat=       1 IRICut=       1 DoRegI=T DoRafI=F ISym2E= 0 IDoP0=0 IntGTp=1.
 FoFCou: FMM=T IPFlag=           0 FMFlag=      100000 FMFlg1=        2001
         NFxFlg=           0 DoJE=T BraDBF=F KetDBF=F FulRan=T
         wScrn=  0.000000 ICntrl=       500 IOpCl=  0 I1Cent=           0 NGrid=           0
         NMat0=    1 NMatS0=      1 NMatT0=    0 NMatD0=    1 NMtDS0=    0 NMtDT0=    0
 Symmetry not used in FoFCou.
 FMM levels:  10  Number of levels for PrismC:   9
 E= -2048.29497016782    
 DIIS: error= 2.32D-02 at cycle   1 NSaved=   1.
 NSaved= 1 IEnMin= 1 EnMin= -2048.29497016782     IErMin= 1 ErrMin= 2.32D-02
 ErrMax= 2.32D-02  0.00D+00 EMaxC= 1.00D-01 BMatC= 8.33D-01 BMatP= 8.33D-01
 IDIUse=3 WtCom= 7.68D-01 WtEn= 2.32D-01
 Coeff-Com:  0.100D+01
 Coeff-En:   0.100D+01
 Coeff:      0.100D+01
 Gap=     0.257 Goal=   None    Shift=    0.000
 GapD=    0.257 DampG=1.000 DampE=0.500 DampFc=0.5000 IDamp=-1.
 Damping current iteration by 5.00D-01
 RMSDP=1.59D-03 MaxDP=1.31D-01              OVMax= 2.10D-01

 Cycle   2  Pass 0  IDiag  1:
 RMSU=  7.93D-04    CP:  9.98D-01
 E= -2048.49361346355     Delta-E=       -0.198643295730 Rises=F Damp=T
 DIIS: error= 1.28D-02 at cycle   2 NSaved=   2.
 NSaved= 2 IEnMin= 2 EnMin= -2048.49361346355     IErMin= 2 ErrMin= 1.28D-02
 ErrMax= 1.28D-02  0.00D+00 EMaxC= 1.00D-01 BMatC= 1.45D-01 BMatP= 8.33D-01
 IDIUse=3 WtCom= 8.72D-01 WtEn= 1.28D-01
 Coeff-Com: -0.196D+00 0.120D+01
 Coeff-En:   0.000D+00 0.100D+01
 Coeff:     -0.171D+00 0.117D+01
 Gap=     0.363 Goal=   None    Shift=    0.000
 RMSDP=5.89D-04 MaxDP=3.47D-02 DE=-1.99D-01 OVMax= 1.46D-01

 Cycle   3  Pass 0  IDiag  1:
 RMSU=  5.77D-04    CP:  9.94D-01  1.14D+00
 E= -2048.67585963574     Delta-E=       -0.182246172186 Rises=F Damp=F
 DIIS: error= 9.95D-03 at cycle   3 NSaved=   3.
 NSaved= 3 IEnMin= 3 EnMin= -2048.67585963574     IErMin= 3 ErrMin= 9.95D-03
 ErrMax= 9.95D-03  0.00D+00 EMaxC= 1.00D-01 BMatC= 6.16D-02 BMatP= 1.45D-01
 IDIUse=3 WtCom= 9.00D-01 WtEn= 9.95D-02
 Coeff-Com: -0.230D+00 0.544D+00 0.686D+00
 Coeff-En:   0.000D+00 0.000D+00 0.100D+01
 Coeff:     -0.207D+00 0.490D+00 0.717D+00
 Gap=     0.278 Goal=   None    Shift=    0.000
 RMSDP=3.56D-04 MaxDP=3.48D-02 DE=-1.82D-01 OVMax= 7.66D-02

 Cycle   4  Pass 0  IDiag  1:
 RMSU=  2.04D-04    CP:  9.94D-01  1.42D+00  6.73D-01
 E= -2048.72150481515     Delta-E=       -0.045645179414 Rises=F Damp=F
 DIIS: error= 4.06D-03 at cycle   4 NSaved=   4.
 NSaved= 4 IEnMin= 4 EnMin= -2048.72150481515     IErMin= 4 ErrMin= 4.06D-03
 ErrMax= 4.06D-03  0.00D+00 EMaxC= 1.00D-01 BMatC= 9.95D-03 BMatP= 6.16D-02
 IDIUse=3 WtCom= 9.59D-01 WtEn= 4.06D-02
 Coeff-Com: -0.927D-01 0.180D+00 0.388D+00 0.525D+00
 Coeff-En:   0.000D+00 0.000D+00 0.877D-01 0.912D+00
 Coeff:     -0.890D-01 0.172D+00 0.376D+00 0.541D+00
 Gap=     0.283 Goal=   None    Shift=    0.000
 RMSDP=1.33D-04 MaxDP=1.33D-02 DE=-4.56D-02 OVMax= 1.49D-02

 Cycle   5  Pass 0  IDiag  1:
 RMSU=  6.23D-05    CP:  9.94D-01  1.39D+00  8.13D-01  6.05D-01
 E= -2048.72960940667     Delta-E=       -0.008104591512 Rises=F Damp=F
 DIIS: error= 7.17D-04 at cycle   5 NSaved=   5.
 NSaved= 5 IEnMin= 5 EnMin= -2048.72960940667     IErMin= 5 ErrMin= 7.17D-04
 ErrMax= 7.17D-04  0.00D+00 EMaxC= 1.00D-01 BMatC= 3.27D-04 BMatP= 9.95D-03
 IDIUse=3 WtCom= 9.93D-01 WtEn= 7.17D-03
 Coeff-Com: -0.237D-01 0.403D-01 0.126D+00 0.246D+00 0.611D+00
 Coeff-En:   0.000D+00 0.000D+00 0.000D+00 0.000D+00 0.100D+01
 Coeff:     -0.235D-01 0.400D-01 0.125D+00 0.244D+00 0.614D+00
 Gap=     0.283 Goal=   None    Shift=    0.000
 RMSDP=2.68D-05 MaxDP=2.24D-03 DE=-8.10D-03 OVMax= 3.46D-03

 Failed to achieve initial convergence to 1.0D-08 in  6 cycles.
 Switch to full accuracy anyway.
 Cycle   6  Pass 1  IDiag  1:
 E= -2048.73004161647     Delta-E=       -0.000432209801 Rises=F Damp=F
 DIIS: error= 2.11D-04 at cycle   1 NSaved=   1.
 NSaved= 1 IEnMin= 1 EnMin= -2048.73004161647     IErMin= 1 ErrMin= 2.11D-04
 ErrMax= 2.11D-04  0.00D+00 EMaxC= 1.00D-01 BMatC= 7.05D-05 BMatP= 7.05D-05
 IDIUse=3 WtCom= 9.98D-01 WtEn= 2.11D-03
 Coeff-Com:  0.100D+01
 Coeff-En:   0.100D+01
 Coeff:      0.100D+01
 Gap=     0.283 Goal=   None    Shift=    0.000
 RMSDP=2.68D-05 MaxDP=2.24D-03 DE=-4.32D-04 OVMax= 2.42D-03

 Cycle   7  Pass 1  IDiag  1:
 RMSU=  1.08D-04    CP:  1.00D+00
 E= -2048.73009278120     Delta-E=       -0.000051164732 Rises=F Damp=F
 DIIS: error= 2.60D-04 at cycle   2 NSaved=   2.
 NSaved= 2 IEnMin= 2 EnMin= -2048.73009278120     IErMin= 1 ErrMin= 2.11D-04
 ErrMax= 2.60D-04  0.00D+00 EMaxC= 1.00D-01 BMatC= 4.34D-05 BMatP= 7.05D-05
 IDIUse=3 WtCom= 9.97D-01 WtEn= 2.60D-03
 Coeff-Com:  0.419D+00 0.581D+00
 Coeff-En:   0.000D+00 0.100D+01
 Coeff:      0.418D+00 0.582D+00
 Gap=     0.283 Goal=   None    Shift=    0.000
 RMSDP=1.10D-05 MaxDP=1.18D-03 DE=-5.12D-05 OVMax= 1.31D-03

 Cycle   8  Pass 1  IDiag  1:
 RMSU=  1.07D-05    CP:  1.00D+00  1.02D+00
 E= -2048.73012436989     Delta-E=       -0.000031588695 Rises=F Damp=F
 DIIS: error= 1.13D-04 at cycle   3 NSaved=   3.
 NSaved= 3 IEnMin= 3 EnMin= -2048.73012436989     IErMin= 3 ErrMin= 1.13D-04
 ErrMax= 1.13D-04  0.00D+00 EMaxC= 1.00D-01 BMatC= 9.26D-06 BMatP= 4.34D-05
 IDIUse=3 WtCom= 9.99D-01 WtEn= 1.13D-03
 Coeff-Com: -0.193D-01 0.301D+00 0.718D+00
 Coeff-En:   0.000D+00 0.112D+00 0.888D+00
 Coeff:     -0.193D-01 0.301D+00 0.719D+00
 Gap=     0.283 Goal=   None    Shift=    0.000
 RMSDP=5.48D-06 MaxDP=4.76D-04 DE=-3.16D-05 OVMax= 5.13D-04

 Cycle   9  Pass 1  IDiag  1:
 RMSU=  3.79D-06    CP:  1.00D+00  1.05D+00  7.76D-01
 E= -2048.73013296883     Delta-E=       -0.000008598937 Rises=F Damp=F
 DIIS: error= 4.59D-05 at cycle   4 NSaved=   4.
 NSaved= 4 IEnMin= 4 EnMin= -2048.73013296883     IErMin= 4 ErrMin= 4.59D-05
 ErrMax= 4.59D-05  0.00D+00 EMaxC= 1.00D-01 BMatC= 4.97D-07 BMatP= 9.26D-06
 IDIUse=1 WtCom= 1.00D+00 WtEn= 0.00D+00
 Coeff-Com: -0.327D-01 0.816D-01 0.268D+00 0.683D+00
 Coeff:     -0.327D-01 0.816D-01 0.268D+00 0.683D+00
 Gap=     0.283 Goal=   None    Shift=    0.000
 RMSDP=1.41D-06 MaxDP=1.39D-04 DE=-8.60D-06 OVMax= 4.99D-04

 Cycle  10  Pass 1  IDiag  1:
 RMSU=  1.27D-06    CP:  1.00D+00  1.06D+00  8.10D-01  1.10D+00
 E= -2048.73013378454     Delta-E=       -0.000000815713 Rises=F Damp=F
 DIIS: error= 1.58D-05 at cycle   5 NSaved=   5.
 NSaved= 5 IEnMin= 5 EnMin= -2048.73013378454     IErMin= 5 ErrMin= 1.58D-05
 ErrMax= 1.58D-05  0.00D+00 EMaxC= 1.00D-01 BMatC= 1.14D-07 BMatP= 4.97D-07
 IDIUse=1 WtCom= 1.00D+00 WtEn= 0.00D+00
 Coeff-Com: -0.347D-02-0.527D-01-0.121D+00 0.201D+00 0.976D+00
 Coeff:     -0.347D-02-0.527D-01-0.121D+00 0.201D+00 0.976D+00
 Gap=     0.283 Goal=   None    Shift=    0.000
 RMSDP=1.17D-06 MaxDP=7.30D-05 DE=-8.16D-07 OVMax= 2.35D-04

 Cycle  11  Pass 1  IDiag  1:
 RMSU=  4.78D-07    CP:  1.00D+00  1.06D+00  8.20D-01  1.37D+00  1.17D+00
 E= -2048.73013402676     Delta-E=       -0.000000242214 Rises=F Damp=F
 DIIS: error= 1.07D-05 at cycle   6 NSaved=   6.
 NSaved= 6 IEnMin= 6 EnMin= -2048.73013402676     IErMin= 6 ErrMin= 1.07D-05
 ErrMax= 1.07D-05  0.00D+00 EMaxC= 1.00D-01 BMatC= 2.58D-08 BMatP= 1.14D-07
 IDIUse=1 WtCom= 1.00D+00 WtEn= 0.00D+00
 Coeff-Com:  0.464D-02-0.416D-01-0.113D+00-0.116D-02 0.513D+00 0.638D+00
 Coeff:      0.464D-02-0.416D-01-0.113D+00-0.116D-02 0.513D+00 0.638D+00
 Gap=     0.283 Goal=   None    Shift=    0.000
 RMSDP=3.46D-07 MaxDP=3.48D-05 DE=-2.42D-07 OVMax= 1.21D-04

 Cycle  12  Pass 1  IDiag  1:
 RMSU=  1.74D-07    CP:  1.00D+00  1.06D+00  8.21D-01  1.44D+00  1.29D+00
                    CP:  9.29D-01
 E= -2048.73013406358     Delta-E=       -0.000000036819 Rises=F Damp=F
 DIIS: error= 1.03D-06 at cycle   7 NSaved=   7.
 NSaved= 7 IEnMin= 7 EnMin= -2048.73013406358     IErMin= 7 ErrMin= 1.03D-06
 ErrMax= 1.03D-06  0.00D+00 EMaxC= 1.00D-01 BMatC= 6.77D-10 BMatP= 2.58D-08
 IDIUse=1 WtCom= 1.00D+00 WtEn= 0.00D+00
 Coeff-Com:  0.933D-03-0.504D-02-0.154D-01-0.743D-02 0.330D-01 0.114D+00
 Coeff-Com:  0.880D+00
 Coeff:      0.933D-03-0.504D-02-0.154D-01-0.743D-02 0.330D-01 0.114D+00
 Coeff:      0.880D+00
 Gap=     0.283 Goal=   None    Shift=    0.000
 RMSDP=8.32D-08 MaxDP=5.28D-06 DE=-3.68D-08 OVMax= 2.26D-05

 Cycle  13  Pass 1  IDiag  1:
 RMSU=  4.70D-08    CP:  1.00D+00  1.06D+00  8.20D-01  1.45D+00  1.31D+00
                    CP:  1.02D+00  1.16D+00
 E= -2048.73013406546     Delta-E=       -0.000000001882 Rises=F Damp=F
 DIIS: error= 6.14D-07 at cycle   8 NSaved=   8.
 NSaved= 8 IEnMin= 8 EnMin= -2048.73013406546     IErMin= 8 ErrMin= 6.14D-07
 ErrMax= 6.14D-07  0.00D+00 EMaxC= 1.00D-01 BMatC= 2.58D-10 BMatP= 6.77D-10
 IDIUse=1 WtCom= 1.00D+00 WtEn= 0.00D+00
 Coeff-Com: -0.702D-03 0.801D-02 0.205D-01-0.111D-02-0.110D+00-0.991D-01
 Coeff-Com:  0.418D+00 0.765D+00
 Coeff:     -0.702D-03 0.801D-02 0.205D-01-0.111D-02-0.110D+00-0.991D-01
 Coeff:      0.418D+00 0.765D+00
 Gap=     0.283 Goal=   None    Shift=    0.000
 RMSDP=4.15D-08 MaxDP=2.37D-06 DE=-1.88D-09 OVMax= 9.90D-06

 Cycle  14  Pass 1  IDiag  1:
 RMSU=  2.46D-08    CP:  1.00D+00  1.06D+00  8.20D-01  1.45D+00  1.32D+00
                    CP:  1.06D+00  1.30D+00  1.11D+00
 E= -2048.73013406599     Delta-E=       -0.000000000528 Rises=F Damp=F
 DIIS: error= 1.81D-07 at cycle   9 NSaved=   9.
 NSaved= 9 IEnMin= 9 EnMin= -2048.73013406599     IErMin= 9 ErrMin= 1.81D-07
 ErrMax= 1.81D-07  0.00D+00 EMaxC= 1.00D-01 BMatC= 2.40D-11 BMatP= 2.58D-10
 IDIUse=1 WtCom= 1.00D+00 WtEn= 0.00D+00
 Coeff-Com: -0.386D-03 0.384D-02 0.101D-01 0.435D-03-0.486D-01-0.529D-01
 Coeff-Com:  0.808D-01 0.293D+00 0.714D+00
 Coeff:     -0.386D-03 0.384D-02 0.101D-01 0.435D-03-0.486D-01-0.529D-01
 Coeff:      0.808D-01 0.293D+00 0.714D+00
 Gap=     0.283 Goal=   None    Shift=    0.000
 RMSDP=1.23D-08 MaxDP=8.49D-07 DE=-5.28D-10 OVMax= 3.24D-06

 Cycle  15  Pass 1  IDiag  1:
 RMSU=  8.41D-09    CP:  1.00D+00  1.06D+00  8.20D-01  1.45D+00  1.32D+00
                    CP:  1.07D+00  1.32D+00  1.24D+00  1.11D+00
 E= -2048.73013406600     Delta-E=       -0.000000000015 Rises=F Damp=F
 DIIS: error= 8.02D-08 at cycle  10 NSaved=  10.
 NSaved=10 IEnMin=10 EnMin= -2048.73013406600     IErMin=10 ErrMin= 8.02D-08
 ErrMax= 8.02D-08  0.00D+00 EMaxC= 1.00D-01 BMatC= 5.51D-12 BMatP= 2.40D-11
 IDIUse=1 WtCom= 1.00D+00 WtEn= 0.00D+00
 Coeff-Com:  0.636D-05-0.311D-03-0.688D-03 0.142D-03 0.560D-02 0.156D-02
 Coeff-Com: -0.566D-01-0.615D-01 0.310D+00 0.802D+00
 Coeff:      0.636D-05-0.311D-03-0.688D-03 0.142D-03 0.560D-02 0.156D-02
 Coeff:     -0.566D-01-0.615D-01 0.310D+00 0.802D+00
 Gap=     0.283 Goal=   None    Shift=    0.000
 RMSDP=6.25D-09 MaxDP=3.53D-07 DE=-1.55D-11 OVMax= 1.30D-06

 SCF Done:  E(RwB97XD) =  -2048.73013407     A.U. after   15 cycles
            NFock= 15  Conv=0.62D-08     -V/T= 2.0054
 KE= 2.037799294033D+03 PE=-1.565507620063D+04 EE= 6.131466916472D+03
 Leave Link  502 at Fri Jan 26 19:20:49 2018, MaxMem=  4294967296 cpu:           20303.5 elap:             656.1
 (Enter /share/apps/g16/l601.exe)
 Copying SCF densities to generalized density rwf, IOpCl= 0 IROHF=0.

 **********************************************************************

            Population analysis using the SCF density.

 **********************************************************************

 Orbital symmetries:
       Occupied  (A) (A) (A) (A) (A) (A) (A) (A) (A) (A) (A) (A)
                 (A) (A) (A) (A) (A) (A) (A) (A) (A) (A) (A) (A)
                 (A) (A) (A) (A) (A) (A) (A) (A) (A) (A) (A) (A)
                 (A) (A) (A) (A) (A) (A) (A) (A) (A) (A) (A) (A)
                 (A) (A) (A) (A) (A) (A) (A) (A) (A) (A) (A) (A)
                 (A) (A) (A) (A) (A) (A) (A) (A) (A) (A) (A) (A)
                 (A) (A) (A) (A) (A) (A) (A) (A) (A) (A) (A) (A)
                 (A) (A) (A) (A) (A) (A) (A) (A) (A) (A) (A) (A)
                 (A) (A) (A) (A) (A) (A) (A) (A) (A) (A) (A) (A)
                 (A) (A) (A) (A) (A) (A) (A) (A) (A) (A) (A) (A)
                 (A) (A) (A) (A) (A) (A) (A) (A) (A) (A) (A) (A)
                 (A) (A) (A) (A) (A) (A) (A) (A) (A) (A) (A) (A)
                 (A) (A) (A) (A) (A) (A) (A) (A) (A) (A)
       Virtual   (A) (A) (A) (A) (A) (A) (A) (A) (A) (A) (A) (A)
                 (A) (A) (A) (A) (A) (A) (A) (A) (A) (A) (A) (A)
                 (A) (A) (A) (A) (A) (A) (A) (A) (A) (A) (A) (A)
                 (A) (A) (A) (A) (A) (A) (A) (A) (A) (A) (A) (A)
                 (A) (A) (A) (A) (A) (A) (A) (A) (A) (A) (A) (A)
                 (A) (A) (A) (A) (A) (A) (A) (A) (A) (A) (A) (A)
                 (A) (A) (A) (A) (A) (A) (A) (A) (A) (A) (A) (A)
                 (A) (A) (A) (A) (A) (A) (A) (A) (A) (A) (A) (A)
                 (A) (A) (A) (A) (A) (A) (A) (A) (A) (A) (A) (A)
                 (A) (A) (A) (A) (A) (A) (A) (A) (A) (A) (A) (A)
                 (A) (A) (A) (A) (A) (A) (A) (A) (A) (A) (A) (A)
                 (A) (A) (A) (A) (A) (A) (A) (A) (A) (A) (A) (A)
                 (A) (A) (A) (A) (A) (A) (A) (A) (A) (A) (A) (A)
                 (A) (A) (A) (A) (A) (A) (A) (A) (A) (A) (A) (A)
                 (A) (A) (A) (A) (A) (A) (A) (A) (A) (A) (A) (A)
                 (A) (A) (A) (A) (A) (A) (A) (A) (A) (A) (A) (A)
                 (A) (A) (A) (A) (A) (A) (A) (A) (A) (A) (A) (A)
                 (A) (A) (A) (A) (A) (A) (A) (A) (A) (A) (A) (A)
                 (A) (A) (A) (A) (A) (A) (A) (A) (A) (A) (A) (A)
                 (A) (A) (A) (A) (A) (A) (A) (A) (A) (A) (A) (A)
                 (A) (A) (A) (A) (A) (A) (A) (A) (A) (A) (A) (A)
                 (A) (A) (A) (A) (A) (A) (A) (A) (A) (A) (A) (A)
                 (A) (A) (A) (A) (A) (A) (A) (A) (A) (A) (A) (A)
                 (A) (A) (A) (A) (A) (A) (A) (A) (A) (A) (A) (A)
                 (A) (A) (A) (A) (A) (A) (A) (A) (A) (A) (A) (A)
                 (A) (A) (A) (A) (A) (A) (A) (A) (A) (A) (A) (A)
                 (A) (A) (A) (A) (A) (A) (A) (A) (A) (A) (A) (A)
                 (A) (A) (A) (A) (A) (A) (A) (A) (A) (A) (A) (A)
                 (A) (A) (A) (A) (A) (A) (A) (A) (A) (A) (A) (A)
                 (A) (A) (A) (A) (A) (A) (A) (A) (A) (A) (A) (A)
                 (A) (A) (A) (A) (A) (A) (A) (A) (A) (A) (A) (A)
                 (A) (A) (A) (A) (A) (A) (A) (A) (A) (A) (A) (A)
                 (A) (A) (A) (A) (A) (A) (A) (A) (A) (A) (A) (A)
                 (A) (A) (A) (A) (A) (A) (A) (A) (A) (A) (A) (A)
                 (A) (A) (A) (A) (A) (A) (A) (A) (A) (A) (A) (A)
                 (A) (A) (A) (A) (A) (A) (A) (A) (A) (A) (A) (A)
                 (A) (A) (A) (A) (A) (A) (A) (A) (A) (A) (A) (A)
                 (A) (A) (A) (A) (A) (A) (A) (A) (A) (A) (A) (A)
                 (A) (A) (A) (A) (A) (A) (A) (A) (A) (A) (A) (A)
                 (A) (A) (A) (A) (A) (A) (A) (A) (A) (A) (A) (A)
                 (A) (A) (A) (A) (A) (A) (A) (A) (A) (A) (A) (A)
                 (A) (A) (A) (A) (A) (A) (A) (A) (A) (A) (A) (A)
                 (A) (A) (A) (A) (A) (A) (A) (A) (A) (A) (A) (A)
                 (A) (A) (A) (A) (A) (A) (A) (A) (A) (A) (A) (A)
                 (A) (A) (A) (A) (A) (A) (A) (A) (A) (A) (A) (A)
                 (A) (A) (A) (A) (A) (A) (A) (A) (A) (A) (A) (A)
                 (A) (A) (A) (A) (A) (A) (A) (A) (A) (A) (A) (A)
                 (A) (A) (A) (A) (A) (A) (A) (A) (A) (A) (A) (A)
                 (A) (A) (A) (A) (A) (A) (A)
 The electronic state is 1-A.
 Alpha  occ. eigenvalues --  -19.26078 -19.22309 -19.20767 -14.52701 -14.51656
 Alpha  occ. eigenvalues --  -14.48914 -14.48647 -14.48082 -14.47448 -14.47191
 Alpha  occ. eigenvalues --  -14.46926 -14.44682 -14.43240 -14.42955 -14.42131
 Alpha  occ. eigenvalues --  -14.42085 -14.41337 -14.40914 -14.40731 -14.39981
 Alpha  occ. eigenvalues --  -10.45712 -10.41466 -10.40401 -10.39029 -10.38374
 Alpha  occ. eigenvalues --  -10.38109 -10.37283 -10.36173 -10.35362 -10.35271
 Alpha  occ. eigenvalues --  -10.34556 -10.34503 -10.33995 -10.33571 -10.33378
 Alpha  occ. eigenvalues --  -10.33232 -10.32924 -10.31818 -10.31410 -10.31047
 Alpha  occ. eigenvalues --  -10.30824 -10.28415 -10.28308  -1.19660  -1.14447
 Alpha  occ. eigenvalues --   -1.13404  -1.13312  -1.11231  -1.10740  -1.09584
 Alpha  occ. eigenvalues --   -1.08886  -1.08334  -1.04821  -1.03901  -1.02743
 Alpha  occ. eigenvalues --   -1.00558  -1.00294  -0.99929  -0.98672  -0.96859
 Alpha  occ. eigenvalues --   -0.96715  -0.95865  -0.92471  -0.91335  -0.86863
 Alpha  occ. eigenvalues --   -0.85340  -0.84309  -0.83835  -0.83811  -0.82689
 Alpha  occ. eigenvalues --   -0.82192  -0.79152  -0.76224  -0.74843  -0.74016
 Alpha  occ. eigenvalues --   -0.73876  -0.73599  -0.72776  -0.70915  -0.69648
 Alpha  occ. eigenvalues --   -0.67694  -0.66796  -0.66185  -0.66009  -0.64680
 Alpha  occ. eigenvalues --   -0.63983  -0.63516  -0.62898  -0.62563  -0.62267
 Alpha  occ. eigenvalues --   -0.60152  -0.59893  -0.59829  -0.59742  -0.59392
 Alpha  occ. eigenvalues --   -0.58997  -0.58752  -0.56920  -0.56417  -0.56253
 Alpha  occ. eigenvalues --   -0.56170  -0.55301  -0.55212  -0.54625  -0.54501
 Alpha  occ. eigenvalues --   -0.53861  -0.53595  -0.53149  -0.53015  -0.52610
 Alpha  occ. eigenvalues --   -0.52464  -0.52001  -0.51627  -0.50580  -0.50340
 Alpha  occ. eigenvalues --   -0.50058  -0.49639  -0.49238  -0.49027  -0.48682
 Alpha  occ. eigenvalues --   -0.48611  -0.48545  -0.48371  -0.47961  -0.47563
 Alpha  occ. eigenvalues --   -0.46813  -0.45715  -0.44945  -0.44296  -0.43230
 Alpha  occ. eigenvalues --   -0.41014  -0.39796  -0.39598  -0.37948  -0.37398
 Alpha  occ. eigenvalues --   -0.37036  -0.36956  -0.36590  -0.35709  -0.34529
 Alpha  occ. eigenvalues --   -0.33723  -0.33462  -0.33448  -0.33302  -0.33168
 Alpha  occ. eigenvalues --   -0.32805  -0.32488  -0.32245  -0.31955  -0.30728
 Alpha  occ. eigenvalues --   -0.30210  -0.29088  -0.25682  -0.25516
 Alpha virt. eigenvalues --    0.02771   0.04651   0.07684   0.08088   0.08231
 Alpha virt. eigenvalues --    0.09346   0.09390   0.10971   0.11387   0.12075
 Alpha virt. eigenvalues --    0.12650   0.14080   0.14088   0.14637   0.14957
 Alpha virt. eigenvalues --    0.16039   0.16116   0.16960   0.17008   0.17872
 Alpha virt. eigenvalues --    0.19011   0.19545   0.20052   0.20205   0.20295
 Alpha virt. eigenvalues --    0.20602   0.20911   0.20942   0.21339   0.22223
 Alpha virt. eigenvalues --    0.22645   0.22957   0.23120   0.23539   0.23905
 Alpha virt. eigenvalues --    0.24052   0.24170   0.24572   0.24919   0.25260
 Alpha virt. eigenvalues --    0.25857   0.26529   0.26658   0.27618   0.27922
 Alpha virt. eigenvalues --    0.29087   0.29411   0.29861   0.30744   0.30865
 Alpha virt. eigenvalues --    0.31216   0.31611   0.32571   0.33623   0.33892
 Alpha virt. eigenvalues --    0.34051   0.34605   0.35597   0.35938   0.36796
 Alpha virt. eigenvalues --    0.37341   0.37441   0.38258   0.39764   0.39907
 Alpha virt. eigenvalues --    0.40056   0.40212   0.40730   0.41326   0.41792
 Alpha virt. eigenvalues --    0.42531   0.42645   0.43800   0.43998   0.44752
 Alpha virt. eigenvalues --    0.44918   0.45363   0.46249   0.46792   0.47446
 Alpha virt. eigenvalues --    0.47518   0.48116   0.48623   0.49719   0.49787
 Alpha virt. eigenvalues --    0.50121   0.50249   0.50524   0.51029   0.51252
 Alpha virt. eigenvalues --    0.51640   0.52122   0.52511   0.52984   0.53100
 Alpha virt. eigenvalues --    0.53742   0.54190   0.54559   0.55330   0.55510
 Alpha virt. eigenvalues --    0.56074   0.56565   0.56596   0.57148   0.57930
 Alpha virt. eigenvalues --    0.58130   0.58608   0.59005   0.59292   0.59629
 Alpha virt. eigenvalues --    0.59742   0.60013   0.60769   0.60981   0.61178
 Alpha virt. eigenvalues --    0.61880   0.62088   0.62395   0.62751   0.63249
 Alpha virt. eigenvalues --    0.63486   0.64056   0.64613   0.64923   0.65259
 Alpha virt. eigenvalues --    0.65391   0.65868   0.66345   0.66482   0.67364
 Alpha virt. eigenvalues --    0.67582   0.67748   0.68276   0.68668   0.68995
 Alpha virt. eigenvalues --    0.69290   0.69660   0.70143   0.70196   0.70805
 Alpha virt. eigenvalues --    0.71339   0.71707   0.72562   0.72949   0.73599
 Alpha virt. eigenvalues --    0.73766   0.74127   0.74600   0.75157   0.75318
 Alpha virt. eigenvalues --    0.75630   0.75820   0.76215   0.76307   0.76852
 Alpha virt. eigenvalues --    0.77323   0.77675   0.77763   0.78164   0.78537
 Alpha virt. eigenvalues --    0.78943   0.79343   0.79403   0.79816   0.80495
 Alpha virt. eigenvalues --    0.80802   0.81282   0.81755   0.82172   0.82758
 Alpha virt. eigenvalues --    0.82995   0.83579   0.83792   0.84501   0.84643
 Alpha virt. eigenvalues --    0.85166   0.85421   0.85770   0.86675   0.87537
 Alpha virt. eigenvalues --    0.88044   0.88498   0.88942   0.89356   0.89662
 Alpha virt. eigenvalues --    0.90291   0.91060   0.91180   0.91394   0.91738
 Alpha virt. eigenvalues --    0.91947   0.93005   0.93663   0.93753   0.94687
 Alpha virt. eigenvalues --    0.95080   0.95253   0.95709   0.96046   0.96205
 Alpha virt. eigenvalues --    0.96694   0.97282   0.98105   0.98131   0.98647
 Alpha virt. eigenvalues --    0.99014   0.99641   1.00176   1.00334   1.00857
 Alpha virt. eigenvalues --    1.01839   1.01924   1.02165   1.02753   1.02856
 Alpha virt. eigenvalues --    1.03493   1.04052   1.04388   1.05325   1.05756
 Alpha virt. eigenvalues --    1.06066   1.06472   1.06837   1.08019   1.08544
 Alpha virt. eigenvalues --    1.08894   1.09388   1.09504   1.10178   1.10752
 Alpha virt. eigenvalues --    1.11396   1.11871   1.12147   1.13560   1.13608
 Alpha virt. eigenvalues --    1.14186   1.14785   1.14892   1.15136   1.15672
 Alpha virt. eigenvalues --    1.15740   1.16197   1.16535   1.16905   1.17621
 Alpha virt. eigenvalues --    1.18134   1.18406   1.19144   1.19674   1.19856
 Alpha virt. eigenvalues --    1.20144   1.20703   1.20753   1.21198   1.21409
 Alpha virt. eigenvalues --    1.21803   1.22174   1.22626   1.22988   1.23299
 Alpha virt. eigenvalues --    1.23729   1.24105   1.24285   1.24560   1.25275
 Alpha virt. eigenvalues --    1.25497   1.26457   1.27156   1.27977   1.28564
 Alpha virt. eigenvalues --    1.29261   1.29455   1.30276   1.30784   1.31750
 Alpha virt. eigenvalues --    1.32184   1.33625   1.34078   1.34474   1.35022
 Alpha virt. eigenvalues --    1.35225   1.36016   1.36636   1.37201   1.37644
 Alpha virt. eigenvalues --    1.38032   1.38625   1.38965   1.39315   1.40511
 Alpha virt. eigenvalues --    1.41934   1.42536   1.43215   1.44404   1.44612
 Alpha virt. eigenvalues --    1.44774   1.46674   1.47462   1.47750   1.48166
 Alpha virt. eigenvalues --    1.48234   1.48410   1.49172   1.49427   1.49970
 Alpha virt. eigenvalues --    1.50350   1.51299   1.51505   1.53031   1.54231
 Alpha virt. eigenvalues --    1.54997   1.56004   1.56184   1.56256   1.57378
 Alpha virt. eigenvalues --    1.58478   1.58672   1.59330   1.59884   1.61372
 Alpha virt. eigenvalues --    1.61665   1.62130   1.62508   1.63370   1.63613
 Alpha virt. eigenvalues --    1.64589   1.65151   1.66065   1.66184   1.66633
 Alpha virt. eigenvalues --    1.66884   1.67854   1.68150   1.68263   1.68835
 Alpha virt. eigenvalues --    1.69240   1.69659   1.70204   1.70486   1.70690
 Alpha virt. eigenvalues --    1.70849   1.72297   1.72518   1.72840   1.73146
 Alpha virt. eigenvalues --    1.73674   1.74282   1.74601   1.74927   1.75177
 Alpha virt. eigenvalues --    1.75311   1.75777   1.76004   1.76668   1.77081
 Alpha virt. eigenvalues --    1.77367   1.77700   1.78456   1.78941   1.79138
 Alpha virt. eigenvalues --    1.79694   1.80026   1.80267   1.80408   1.80524
 Alpha virt. eigenvalues --    1.80734   1.81192   1.81294   1.81760   1.82214
 Alpha virt. eigenvalues --    1.82533   1.83467   1.83865   1.84001   1.84547
 Alpha virt. eigenvalues --    1.84868   1.86168   1.86615   1.87155   1.87517
 Alpha virt. eigenvalues --    1.87673   1.88037   1.88211   1.88908   1.89246
 Alpha virt. eigenvalues --    1.89355   1.89546   1.90394   1.91098   1.91677
 Alpha virt. eigenvalues --    1.92135   1.92377   1.93357   1.93776   1.94175
 Alpha virt. eigenvalues --    1.94767   1.95043   1.95688   1.95928   1.96572
 Alpha virt. eigenvalues --    1.97904   1.98763   1.99372   2.00767   2.00975
 Alpha virt. eigenvalues --    2.01634   2.01779   2.02966   2.03128   2.03936
 Alpha virt. eigenvalues --    2.04746   2.05234   2.06180   2.06820   2.07308
 Alpha virt. eigenvalues --    2.07802   2.08234   2.08835   2.09351   2.09940
 Alpha virt. eigenvalues --    2.10184   2.10687   2.11731   2.12254   2.13291
 Alpha virt. eigenvalues --    2.13789   2.14618   2.15957   2.16425   2.17365
 Alpha virt. eigenvalues --    2.18292   2.19934   2.20242   2.20351   2.21170
 Alpha virt. eigenvalues --    2.21580   2.22041   2.22690   2.23642   2.24199
 Alpha virt. eigenvalues --    2.24394   2.25476   2.25928   2.26151   2.26798
 Alpha virt. eigenvalues --    2.27741   2.28667   2.29160   2.29390   2.29708
 Alpha virt. eigenvalues --    2.30196   2.30809   2.31494   2.31988   2.32377
 Alpha virt. eigenvalues --    2.32883   2.33975   2.34058   2.34695   2.35042
 Alpha virt. eigenvalues --    2.35413   2.35773   2.36385   2.37243   2.37926
 Alpha virt. eigenvalues --    2.38465   2.39589   2.40201   2.41179   2.41798
 Alpha virt. eigenvalues --    2.41931   2.42514   2.43157   2.43526   2.44349
 Alpha virt. eigenvalues --    2.45299   2.45801   2.45928   2.46503   2.47403
 Alpha virt. eigenvalues --    2.47789   2.48802   2.50306   2.50845   2.51589
 Alpha virt. eigenvalues --    2.52385   2.53227   2.54424   2.54559   2.56203
 Alpha virt. eigenvalues --    2.56615   2.56994   2.57411   2.58154   2.59103
 Alpha virt. eigenvalues --    2.60307   2.61455   2.61771   2.62121   2.63371
 Alpha virt. eigenvalues --    2.64394   2.65010   2.65177   2.65689   2.66419
 Alpha virt. eigenvalues --    2.67052   2.67598   2.68400   2.68684   2.69295
 Alpha virt. eigenvalues --    2.70140   2.70369   2.71033   2.71444   2.72905
 Alpha virt. eigenvalues --    2.73258   2.73812   2.73930   2.75595   2.75881
 Alpha virt. eigenvalues --    2.78226   2.78611   2.79022   2.79336   2.79599
 Alpha virt. eigenvalues --    2.80182   2.80376   2.80671   2.80948   2.81197
 Alpha virt. eigenvalues --    2.81891   2.82184   2.82993   2.83634   2.84362
 Alpha virt. eigenvalues --    2.84717   2.85570   2.86027   2.86898   2.87389
 Alpha virt. eigenvalues --    2.87530   2.88704   2.89192   2.91250   2.91954
 Alpha virt. eigenvalues --    2.94233   2.95727   2.97496   2.98375   2.99270
 Alpha virt. eigenvalues --    3.00138   3.02039   3.03481   3.04552   3.06057
 Alpha virt. eigenvalues --    3.07990   3.10137   3.10245   3.13691   3.14702
 Alpha virt. eigenvalues --    3.15267   3.15555   3.15971   3.17948   3.20051
 Alpha virt. eigenvalues --    3.21941   3.22222   3.23751   3.23962   3.26112
 Alpha virt. eigenvalues --    3.45764   3.47204   3.47995   3.49623   3.50003
 Alpha virt. eigenvalues --    3.53354   3.53826   3.56058   3.57973   3.59752
 Alpha virt. eigenvalues --    3.62266   3.70722   3.74125
          Condensed to atoms (all electrons):
 Mulliken charges:
               1
     1  N   -0.311337
     2  C    0.181248
     3  C    0.031578
     4  N   -0.259451
     5  C    0.133782
     6  H    0.026128
     7  N   -0.293254
     8  C    0.139064
     9  H    0.006439
    10  N   -0.290881
    11  C    0.245787
    12  C    0.126860
    13  N   -0.057700
    14  H    0.109411
    15  H    0.088857
    16  H    0.024731
    17  H    0.034490
    18  H    0.026296
    19  N   -0.312791
    20  C    0.240426
    21  C    0.182098
    22  N   -0.106581
    23  H    0.117272
    24  H    0.113950
    25  N   -0.285680
    26  C    0.206475
    27  N   -0.114120
    28  H    0.113652
    29  C    0.145545
    30  O   -0.314974
    31  C    0.005138
    32  N   -0.219763
    33  C    0.128100
    34  H    0.030371
    35  H    0.028704
    36  H    0.027390
    37  H    0.025124
    38  H    0.062431
    39  H    0.058999
    40  H    0.076102
    41  H    0.032720
    42  C   -0.112325
    43  O   -0.265005
    44  C    0.165839
    45  H    0.134607
    46  N   -0.131869
    47  O   -0.346010
    48  C    0.356044
    49  H    0.049067
    50  C    0.167903
    51  C    0.043937
    52  N   -0.295809
    53  H    0.034966
    54  H    0.047927
    55  H    0.011187
    56  H    0.126570
    57  H    0.113405
    58  N   -0.070081
    59  C    0.090635
    60  C    0.216542
    61  N   -0.254203
    62  H    0.060393
    63  C    0.152484
    64  N   -0.297674
    65  H    0.030971
    66  C    0.125917
    67  N   -0.266008
    68  C    0.041244
    69  C    0.168424
    70  N   -0.301717
 Sum of Mulliken charges =  -0.00000
 Mulliken charges with hydrogens summed into heavy atoms:
               1
     1  N   -0.311337
     2  C    0.266766
     3  C    0.031578
     4  N   -0.259451
     5  C    0.159911
     7  N   -0.293254
     8  C    0.145503
    10  N   -0.290881
    11  C    0.245787
    12  C    0.126860
    13  N    0.140569
    19  N   -0.312791
    20  C    0.240426
    21  C    0.263315
    22  N    0.124641
    25  N   -0.285680
    26  C    0.206475
    27  N   -0.000467
    29  C    0.145545
    30  O   -0.314974
    31  C    0.005138
    32  N   -0.219763
    33  C    0.158471
    42  C   -0.079606
    43  O   -0.265005
    44  C    0.165839
    46  N    0.002738
    47  O   -0.346010
    48  C    0.356044
    50  C    0.216971
    51  C    0.241469
    52  N   -0.295809
    58  N    0.169894
    59  C    0.090635
    60  C    0.216542
    61  N   -0.254203
    63  C    0.212877
    64  N   -0.297674
    66  C    0.156887
    67  N   -0.266008
    68  C    0.041244
    69  C    0.262505
    70  N   -0.301717
 Electronic spatial extent (au):  <R**2>=          23407.3960
 Charge=             -0.0000 electrons
 Dipole moment (field-independent basis, Debye):
    X=              9.0843    Y=              4.6540    Z=              2.3204  Tot=             10.4675
 Quadrupole moment (field-independent basis, Debye-Ang):
   XX=           -157.0297   YY=           -210.3135   ZZ=           -251.8532
   XY=             -4.3278   XZ=              8.7208   YZ=             -8.9461
 Traceless Quadrupole moment (field-independent basis, Debye-Ang):
   XX=             49.3691   YY=             -3.9147   ZZ=            -45.4544
   XY=             -4.3278   XZ=              8.7208   YZ=             -8.9461
 Octapole moment (field-independent basis, Debye-Ang**2):
  XXX=             -5.6005  YYY=            142.2606  ZZZ=             -1.3275  XYY=            108.2784
  XXY=           -109.8802  XXZ=            -53.5127  XZZ=             21.4884  YZZ=             29.0636
  YYZ=             34.4206  XYZ=             52.6290
 Hexadecapole moment (field-independent basis, Debye-Ang**3):
 XXXX=         -14502.7423 YYYY=          -7405.4693 ZZZZ=          -3294.4790 XXXY=            466.0673
 XXXZ=             91.4777 YYYX=           -206.2772 YYYZ=           -115.8370 ZZZX=             31.0796
 ZZZY=              7.8971 XXYY=          -3594.9214 XXZZ=          -3814.7031 YYZZ=          -1784.2578
 XXYZ=            111.2001 YYXZ=            242.1043 ZZXY=              4.7701
 N-N= 5.437079856063D+03 E-N=-1.565507619960D+04  KE= 2.037799294033D+03
 No NMR shielding tensors so no spin-rotation constants.
 Leave Link  601 at Fri Jan 26 19:20:51 2018, MaxMem=  4294967296 cpu:              48.7 elap:               1.7
 (Enter /share/apps/g16/l9999.exe)
 1\1\GINC-COMPUTE-0-3\SP\RwB97XD\CC-pVDZ\C23H27N17O3\SATYA\26-Jan-2018\
 0\\#p wb97xd/cc-pvdz sp scf=(maxcycles=20)\\Base pair stacking\\0,1\N,
 0,7.86796,-0.37226,-6.47105\C,0,9.31185,-0.08472,-6.57363\C,0,5.68025,
 -0.1657,-6.3785\N,0,5.9474,-1.52187,-6.25948\C,0,7.25473,-1.59203,-6.3
 2\H,0,7.82947,-2.51664,-6.25909\N,0,4.56217,1.90595,-6.52372\C,0,5.771
 52,2.46396,-6.6407\H,0,5.77518,3.5479,-6.74702\N,0,6.97139,1.88673,-6.
 64602\C,0,6.8542,0.55553,-6.50964\C,0,4.47789,0.56447,-6.38803\N,0,3.2
 7158,0.00561,-6.27112\H,0,3.16179,-0.98366,-6.1686\H,0,2.43693,0.55641
 ,-6.28203\H,0,9.69199,-0.55911,-7.36775\H,0,9.44987,0.89984,-6.67715\H
 ,0,9.77615,-0.39945,-5.74576\N,0,4.17618,4.85355,-3.26456\C,0,2.86817,
 4.43264,-3.26328\C,0,4.6208,6.25842,-3.36129\N,0,-0.52535,5.15886,-3.3
 9872\H,0,-1.38872,4.65536,-3.38065\H,0,-0.58234,6.15459,-3.47605\N,0,1
 .77811,5.22535,-3.34948\C,0,0.65624,4.52801,-3.32272\N,0,0.60371,3.159
 03,-3.21948\H,0,-0.29907,2.70982,-3.20649\C,0,1.71251,2.32337,-3.12957
 \O,0,1.55551,1.09942,-3.03986\C,0,2.92505,3.05813,-3.15705\N,0,4.24226
 ,2.62484,-3.09292\C,0,4.94714,3.72159,-3.16\H,0,6.0367,3.76185,-3.1373
 8\H,0,5.18873,6.37473,-4.17537\H,0,3.82188,6.85496,-3.42565\H,0,5.1503
 7,6.49888,-2.54855\H,0,-5.05938,1.04004,-3.84208\H,0,-5.02444,0.90226,
 -2.08582\H,0,-4.08924,2.16365,-2.88935\H,0,-2.55809,-3.03742,-3.32784\
 C,0,-2.40688,-1.96098,-3.2464\O,0,-0.03972,-2.10338,-3.30466\C,0,-1.07
 403,-1.44027,-3.23206\H,0,-0.06951,0.33877,-3.11248\N,0,-0.99495,-0.06
 632,-3.12585\O,0,-1.87012,2.02137,-2.94466\C,0,-2.04036,0.81828,-3.035
 65\H,0,-4.47981,-1.46866,-3.16654\C,0,-3.44683,-1.12333,-3.16\C,0,-4.4
 424,1.14576,-2.96218\N,0,-3.29424,0.23985,-3.05609\H,0,-1.6761,6.76929
 ,-6.86174\H,0,-0.38393,6.50545,-5.90113\H,0,-1.86867,6.67235,-5.24405\
 H,0,-0.3673,-0.51467,-6.31721\H,0,-1.93864,0.13276,-6.46493\N,0,-0.958
 72,0.29148,-6.33931\C,0,-0.46367,1.52382,-6.20724\C,0,-0.59415,3.89635
 ,-6.08142\N,0,0.72603,4.07942,-5.91402\H,0,2.44214,2.96732,-5.77681\C,
 0,1.36246,2.90988,-5.90822\N,0,0.86843,1.67454,-6.04035\H,0,-3.70463,4
 .71781,-6.40123\C,0,-2.75411,4.18975,-6.32\N,0,-2.61733,2.88775,-6.381
 32\C,0,-1.25261,2.68826,-6.23142\C,0,-1.35772,6.31877,-6.02768\N,0,-1.
 5703,4.86265,-6.13959\\Version=EM64L-G16RevA.03\State=1-A\HF=-2048.730
 1341\RMSD=6.249e-09\Dipole=-3.4477893,2.246459,-0.1610185\Quadrupole=3
 7.0516072,-3.7261173,-33.3254899,-0.0440686,-6.4940952,7.3949611\PG=C0
 1 [X(C23H27N17O3)]\\@


 THE HURRIEDER I GO, THE BEHINDER I GET.
 Job cpu time:       0 days  5 hours 48 minutes 25.4 seconds.
 Elapsed time:       0 days  0 hours 11 minutes 15.3 seconds.
 File lengths (MBytes):  RWF=    298 Int=      0 D2E=      0 Chk=     33 Scr=      1
 Normal termination of Gaussian 16 at Fri Jan 26 19:20:52 2018.
