 Entering Gaussian System, Link 0=g16
 Input=str35.15.0.0.com
 Output=str35.15.0.0.log
 Initial command:
 /share/apps/g16/l1.exe "/state/partition1/scr/Gau-16056.inp" -scrdir="/state/partition1/scr/"
 Entering Link 1 = /share/apps/g16/l1.exe PID=     16057.
  
 Copyright (c) 1988,1990,1992,1993,1995,1998,2003,2009,2016,
            Gaussian, Inc.  All Rights Reserved.
  
 This is part of the Gaussian(R) 16 program.  It is based on
 the Gaussian(R) 09 system (copyright 2009, Gaussian, Inc.),
 the Gaussian(R) 03 system (copyright 2003, Gaussian, Inc.),
 the Gaussian(R) 98 system (copyright 1998, Gaussian, Inc.),
 the Gaussian(R) 94 system (copyright 1995, Gaussian, Inc.),
 the Gaussian 92(TM) system (copyright 1992, Gaussian, Inc.),
 the Gaussian 90(TM) system (copyright 1990, Gaussian, Inc.),
 the Gaussian 88(TM) system (copyright 1988, Gaussian, Inc.),
 the Gaussian 86(TM) system (copyright 1986, Carnegie Mellon
 University), and the Gaussian 82(TM) system (copyright 1983,
 Carnegie Mellon University). Gaussian is a federally registered
 trademark of Gaussian, Inc.
  
 This software contains proprietary and confidential information,
 including trade secrets, belonging to Gaussian, Inc.
  
 This software is provided under written license and may be
 used, copied, transmitted, or stored only in accord with that
 written license.
  
 The following legend is applicable only to US Government
 contracts under FAR:
  
                    RESTRICTED RIGHTS LEGEND
  
 Use, reproduction and disclosure by the US Government is
 subject to restrictions as set forth in subparagraphs (a)
 and (c) of the Commercial Computer Software - Restricted
 Rights clause in FAR 52.227-19.
  
 Gaussian, Inc.
 340 Quinnipiac St., Bldg. 40, Wallingford CT 06492
  
  
 ---------------------------------------------------------------
 Warning -- This program may not be used in any manner that
 competes with the business of Gaussian, Inc. or will provide
 assistance to any competitor of Gaussian, Inc.  The licensee
 of this program is prohibited from giving any competitor of
 Gaussian, Inc. access to this program.  By using this program,
 the user acknowledges that Gaussian, Inc. is engaged in the
 business of creating and licensing software in the field of
 computational chemistry and represents and warrants to the
 licensee that it is not a competitor of Gaussian, Inc. and that
 it will not use this program in any manner prohibited above.
 ---------------------------------------------------------------
  

 Cite this work as:
 Gaussian 16, Revision A.03,
 M. J. Frisch, G. W. Trucks, H. B. Schlegel, G. E. Scuseria, 
 M. A. Robb, J. R. Cheeseman, G. Scalmani, V. Barone, 
 G. A. Petersson, H. Nakatsuji, X. Li, M. Caricato, A. V. Marenich, 
 J. Bloino, B. G. Janesko, R. Gomperts, B. Mennucci, H. P. Hratchian, 
 J. V. Ortiz, A. F. Izmaylov, J. L. Sonnenberg, D. Williams-Young, 
 F. Ding, F. Lipparini, F. Egidi, J. Goings, B. Peng, A. Petrone, 
 T. Henderson, D. Ranasinghe, V. G. Zakrzewski, J. Gao, N. Rega, 
 G. Zheng, W. Liang, M. Hada, M. Ehara, K. Toyota, R. Fukuda, 
 J. Hasegawa, M. Ishida, T. Nakajima, Y. Honda, O. Kitao, H. Nakai, 
 T. Vreven, K. Throssell, J. A. Montgomery, Jr., J. E. Peralta, 
 F. Ogliaro, M. J. Bearpark, J. J. Heyd, E. N. Brothers, K. N. Kudin, 
 V. N. Staroverov, T. A. Keith, R. Kobayashi, J. Normand, 
 K. Raghavachari, A. P. Rendell, J. C. Burant, S. S. Iyengar, 
 J. Tomasi, M. Cossi, J. M. Millam, M. Klene, C. Adamo, R. Cammi, 
 J. W. Ochterski, R. L. Martin, K. Morokuma, O. Farkas, 
 J. B. Foresman, and D. J. Fox, Gaussian, Inc., Wallingford CT, 2016.
 
 ******************************************
 Gaussian 16:  EM64L-G16RevA.03 25-Dec-2016
                22-Jan-2018 
 ******************************************
 %nprocshared=32
 Will use up to   32 processors via shared memory.
 %mem=32GB
 %chk=allatoms_t.chk
 ---------------------------------------
 #p wb97xd/cc-pvdz sp scf=(maxcycles=20)
 ---------------------------------------
 1/38=1,172=1/1;
 2/12=2,17=6,18=5,40=1/2;
 3/5=16,11=2,25=1,30=1,74=-58/1,2,3;
 4//1;
 5/5=2,7=20,38=5/2;
 6/7=2,8=2,9=2,10=2,28=1/1;
 99/5=1,9=1/99;
 Leave Link    1 at Mon Jan 22 05:06:20 2018, MaxMem=  4294967296 cpu:               2.7 elap:               0.1
 (Enter /share/apps/g16/l101.exe)
 ------------------
 Base pair stacking
 ------------------
 Symbolic Z-matrix:
 Charge =  0 Multiplicity = 1
 N                     6.31141   2.72523  -5.18464 
 C                     7.10598   3.95913  -5.34003 
 C                     4.70819   1.22382  -5.29768 
 N                     5.7315    0.64423  -4.56171 
 C                     6.65642   1.57197  -4.52307 
 H                     7.61875   1.4675   -4.02113 
 N                     2.66639   1.58351  -6.42223 
 C                     3.1347    2.7988   -6.72447 
 H                     2.46321   3.42286  -7.31261 
 N                     4.30245   3.35631  -6.41075 
 C                     5.05114   2.50646  -5.6885 
 C                     3.44365   0.75213  -5.69439 
 N                     2.97793  -0.46139  -5.39168 
 H                     3.51901  -1.10977  -4.85496 
 H                     2.07281  -0.76365  -5.69091 
 H                     7.96204   3.74869  -5.81233 
 H                     6.58687   4.62571  -5.87419 
 H                     7.30983   4.34246  -4.4392 
 N                     2.05879   4.6549   -3.20063 
 C                     1.0666    3.7192   -3.36818 
 C                     1.91617   6.10389  -3.44717 
 N                    -2.19907   2.92126  -4.2402 
 H                    -2.76815   2.10137  -4.29652 
 H                    -2.62797   3.78939  -4.49141 
 N                    -0.19515   3.9643   -3.78285 
 C                    -0.91824   2.86031  -3.84566 
 N                    -0.44386   1.61088  -3.52719 
 H                    -1.0683    0.82283  -3.60465 
 C                     0.85074   1.33529  -3.09834 
 O                     1.17792   0.17125  -2.83621 
 C                     1.63947   2.51153  -3.02589 
 N                     2.96463   2.68555  -2.651 
 C                     3.16847   3.9695   -2.76994 
 H                     4.11299   4.47076  -2.55573 
 H                     2.56509   6.38929  -4.15163 
 H                     0.98551   6.29747  -3.75482 
 H                     2.0984    6.60685  -2.60298 
 H                    -4.47348  -2.75491  -4.81184 
 H                    -4.80136  -2.73276  -3.08075 
 H                    -4.28543  -1.25755  -3.89865 
 H                    -0.75321  -5.33079  -3.17749 
 C                    -1.0671   -4.28943  -3.25027 
 O                     1.10181  -3.41579  -2.85065 
 C                    -0.09631  -3.25198  -3.07968 
 H                     0.05743  -1.21122  -3.07667 
 N                    -0.59847  -1.9711   -3.19118 
 O                    -2.2485   -0.44652  -3.52322 
 C                    -1.8988   -1.6109   -3.44208 
 H                    -3.11963  -4.72074  -3.63352 
 C                    -2.34298  -3.96957  -3.49603 
 C                    -4.17592  -2.33131  -3.86416 
 N                    -2.77515  -2.6673   -3.59455 
 H                    -4.49472  -0.29672  -9.22679 
 H                    -3.83142   0.77708  -8.19282 
 H                    -5.15773  -0.06665  -7.75339 
 H                     0.95405  -3.53017  -5.36398 
 H                    -0.44639  -4.36678  -5.86293 
 N                     0.04434  -3.4989   -5.77823 
 C                    -0.49148  -2.35139  -6.1993 
 C                    -2.18507  -0.99384  -7.17427 
 N                    -1.50301   0.15647  -7.04777 
 H                     0.30196   0.8209   -6.33979 
 C                    -0.31861  -0.06306  -6.4804 
 N                     0.21986  -1.21161  -6.05797 
 H                    -4.64425  -2.9331   -7.97669 
 C                    -3.70431  -2.51097  -7.61995 
 N                    -2.73508  -3.20475  -7.07502 
 C                    -1.76559  -2.25486  -6.78774 
 C                    -4.29939  -0.10319  -8.26534 
 N                    -3.43877  -1.1664   -7.71134 
 
 ITRead=  0  0  0  0  0  0  0  0  0  0  0  0  0  0  0  0  0  0  0  0
 ITRead=  0  0  0  0  0  0  0  0  0  0  0  0  0  0  0  0  0  0  0  0
 ITRead=  0  0  0  0  0  0  0  0  0  0  0  0  0  0  0  0  0  0  0  0
 ITRead=  0  0  0  0  0  0  0  0  0  0
 MicOpt= -1 -1 -1 -1 -1 -1 -1 -1 -1 -1 -1 -1 -1 -1 -1 -1 -1 -1 -1 -1
 MicOpt= -1 -1 -1 -1 -1 -1 -1 -1 -1 -1 -1 -1 -1 -1 -1 -1 -1 -1 -1 -1
 MicOpt= -1 -1 -1 -1 -1 -1 -1 -1 -1 -1 -1 -1 -1 -1 -1 -1 -1 -1 -1 -1
 MicOpt= -1 -1 -1 -1 -1 -1 -1 -1 -1 -1
 NAtoms=     70 NQM=       70 NQMF=       0 NMMI=      0 NMMIF=      0
                NMic=       0 NMicF=      0.
                    Isotopes and Nuclear Properties:
 (Nuclear quadrupole moments (NQMom) in fm**2, nuclear magnetic moments (NMagM)
  in nuclear magnetons)

  Atom         1           2           3           4           5           6           7           8           9          10
 IAtWgt=          14          12          12          14          12           1          14          12           1          14
 AtmWgt=  14.0030740  12.0000000  12.0000000  14.0030740  12.0000000   1.0078250  14.0030740  12.0000000   1.0078250  14.0030740
 NucSpn=           2           0           0           2           0           1           2           0           1           2
 AtZEff=  -0.0000000  -0.0000000  -0.0000000  -0.0000000  -0.0000000  -0.0000000  -0.0000000  -0.0000000  -0.0000000  -0.0000000
 NQMom=    2.0440000   0.0000000   0.0000000   2.0440000   0.0000000   0.0000000   2.0440000   0.0000000   0.0000000   2.0440000
 NMagM=    0.4037610   0.0000000   0.0000000   0.4037610   0.0000000   2.7928460   0.4037610   0.0000000   2.7928460   0.4037610
 AtZNuc=   7.0000000   6.0000000   6.0000000   7.0000000   6.0000000   1.0000000   7.0000000   6.0000000   1.0000000   7.0000000

  Atom        11          12          13          14          15          16          17          18          19          20
 IAtWgt=          12          12          14           1           1           1           1           1          14          12
 AtmWgt=  12.0000000  12.0000000  14.0030740   1.0078250   1.0078250   1.0078250   1.0078250   1.0078250  14.0030740  12.0000000
 NucSpn=           0           0           2           1           1           1           1           1           2           0
 AtZEff=  -0.0000000  -0.0000000  -0.0000000  -0.0000000  -0.0000000  -0.0000000  -0.0000000  -0.0000000  -0.0000000  -0.0000000
 NQMom=    0.0000000   0.0000000   2.0440000   0.0000000   0.0000000   0.0000000   0.0000000   0.0000000   2.0440000   0.0000000
 NMagM=    0.0000000   0.0000000   0.4037610   2.7928460   2.7928460   2.7928460   2.7928460   2.7928460   0.4037610   0.0000000
 AtZNuc=   6.0000000   6.0000000   7.0000000   1.0000000   1.0000000   1.0000000   1.0000000   1.0000000   7.0000000   6.0000000

  Atom        21          22          23          24          25          26          27          28          29          30
 IAtWgt=          12          14           1           1          14          12          14           1          12          16
 AtmWgt=  12.0000000  14.0030740   1.0078250   1.0078250  14.0030740  12.0000000  14.0030740   1.0078250  12.0000000  15.9949146
 NucSpn=           0           2           1           1           2           0           2           1           0           0
 AtZEff=  -0.0000000  -0.0000000  -0.0000000  -0.0000000  -0.0000000  -0.0000000  -0.0000000  -0.0000000  -0.0000000  -0.0000000
 NQMom=    0.0000000   2.0440000   0.0000000   0.0000000   2.0440000   0.0000000   2.0440000   0.0000000   0.0000000   0.0000000
 NMagM=    0.0000000   0.4037610   2.7928460   2.7928460   0.4037610   0.0000000   0.4037610   2.7928460   0.0000000   0.0000000
 AtZNuc=   6.0000000   7.0000000   1.0000000   1.0000000   7.0000000   6.0000000   7.0000000   1.0000000   6.0000000   8.0000000

  Atom        31          32          33          34          35          36          37          38          39          40
 IAtWgt=          12          14          12           1           1           1           1           1           1           1
 AtmWgt=  12.0000000  14.0030740  12.0000000   1.0078250   1.0078250   1.0078250   1.0078250   1.0078250   1.0078250   1.0078250
 NucSpn=           0           2           0           1           1           1           1           1           1           1
 AtZEff=  -0.0000000  -0.0000000  -0.0000000  -0.0000000  -0.0000000  -0.0000000  -0.0000000  -0.0000000  -0.0000000  -0.0000000
 NQMom=    0.0000000   2.0440000   0.0000000   0.0000000   0.0000000   0.0000000   0.0000000   0.0000000   0.0000000   0.0000000
 NMagM=    0.0000000   0.4037610   0.0000000   2.7928460   2.7928460   2.7928460   2.7928460   2.7928460   2.7928460   2.7928460
 AtZNuc=   6.0000000   7.0000000   6.0000000   1.0000000   1.0000000   1.0000000   1.0000000   1.0000000   1.0000000   1.0000000

  Atom        41          42          43          44          45          46          47          48          49          50
 IAtWgt=           1          12          16          12           1          14          16          12           1          12
 AtmWgt=   1.0078250  12.0000000  15.9949146  12.0000000   1.0078250  14.0030740  15.9949146  12.0000000   1.0078250  12.0000000
 NucSpn=           1           0           0           0           1           2           0           0           1           0
 AtZEff=  -0.0000000  -0.0000000  -0.0000000  -0.0000000  -0.0000000  -0.0000000  -0.0000000  -0.0000000  -0.0000000  -0.0000000
 NQMom=    0.0000000   0.0000000   0.0000000   0.0000000   0.0000000   2.0440000   0.0000000   0.0000000   0.0000000   0.0000000
 NMagM=    2.7928460   0.0000000   0.0000000   0.0000000   2.7928460   0.4037610   0.0000000   0.0000000   2.7928460   0.0000000
 AtZNuc=   1.0000000   6.0000000   8.0000000   6.0000000   1.0000000   7.0000000   8.0000000   6.0000000   1.0000000   6.0000000

  Atom        51          52          53          54          55          56          57          58          59          60
 IAtWgt=          12          14           1           1           1           1           1          14          12          12
 AtmWgt=  12.0000000  14.0030740   1.0078250   1.0078250   1.0078250   1.0078250   1.0078250  14.0030740  12.0000000  12.0000000
 NucSpn=           0           2           1           1           1           1           1           2           0           0
 AtZEff=  -0.0000000  -0.0000000  -0.0000000  -0.0000000  -0.0000000  -0.0000000  -0.0000000  -0.0000000  -0.0000000  -0.0000000
 NQMom=    0.0000000   2.0440000   0.0000000   0.0000000   0.0000000   0.0000000   0.0000000   2.0440000   0.0000000   0.0000000
 NMagM=    0.0000000   0.4037610   2.7928460   2.7928460   2.7928460   2.7928460   2.7928460   0.4037610   0.0000000   0.0000000
 AtZNuc=   6.0000000   7.0000000   1.0000000   1.0000000   1.0000000   1.0000000   1.0000000   7.0000000   6.0000000   6.0000000

  Atom        61          62          63          64          65          66          67          68          69          70
 IAtWgt=          14           1          12          14           1          12          14          12          12          14
 AtmWgt=  14.0030740   1.0078250  12.0000000  14.0030740   1.0078250  12.0000000  14.0030740  12.0000000  12.0000000  14.0030740
 NucSpn=           2           1           0           2           1           0           2           0           0           2
 AtZEff=  -0.0000000  -0.0000000  -0.0000000  -0.0000000  -0.0000000  -0.0000000  -0.0000000  -0.0000000  -0.0000000  -0.0000000
 NQMom=    2.0440000   0.0000000   0.0000000   2.0440000   0.0000000   0.0000000   2.0440000   0.0000000   0.0000000   2.0440000
 NMagM=    0.4037610   2.7928460   0.0000000   0.4037610   2.7928460   0.0000000   0.4037610   0.0000000   0.0000000   0.4037610
 AtZNuc=   7.0000000   1.0000000   6.0000000   7.0000000   1.0000000   6.0000000   7.0000000   6.0000000   6.0000000   7.0000000
 Leave Link  101 at Mon Jan 22 05:06:20 2018, MaxMem=  4294967296 cpu:               6.3 elap:               0.2
 (Enter /share/apps/g16/l202.exe)
 Stoichiometry    C23H27N17O3
 Framework group  C1[X(C23H27N17O3)]
 Deg. of freedom   204
 Full point group                 C1      NOp   1
 Largest Abelian subgroup         C1      NOp   1
 Largest concise Abelian subgroup C1      NOp   1
                         Standard orientation:                         
 ---------------------------------------------------------------------
 Center     Atomic      Atomic             Coordinates (Angstroms)
 Number     Number       Type             X           Y           Z
 ---------------------------------------------------------------------
      1          7           0       -5.841407   -1.757292    0.856384
      2          6           0       -7.211505   -1.302159    1.162463
      3          6           0       -3.650780   -1.923833    0.752735
      4          7           0       -4.156005   -2.987462    0.019127
      5          6           0       -5.455551   -2.844555    0.110939
      6          1           0       -6.186500   -3.509641   -0.349834
      7          7           0       -2.180060   -0.407699    1.802142
      8          6           0       -3.270970    0.231817    2.236338
      9          1           0       -3.080975    1.115181    2.844474
     10          7           0       -4.555287   -0.054690    2.033061
     11          6           0       -4.677678   -1.156796    1.274899
     12          6           0       -2.336677   -1.513141    1.041519
     13          7           0       -1.248926   -2.152887    0.607145
     14          1           0       -1.317523   -2.975392    0.041449
     15          1           0       -0.328862   -1.832025    0.832251
     16          1           0       -7.700759   -2.021499    1.655790
     17          1           0       -7.171546   -0.479179    1.728359
     18          1           0       -7.694521   -1.096292    0.311402
     19          7           0       -3.926286    2.489605   -1.153809
     20          6           0       -2.557176    2.377612   -1.121477
     21          6           0       -4.693069    3.696322   -0.784253
     22          7           0        0.560559    3.771070   -0.489239
     23          1           0        1.518164    3.488132   -0.535953
     24          1           0        0.377986    4.705404   -0.181995
     25          7           0       -1.689336    3.343349   -0.749667
     26          6           0       -0.434718    2.935797   -0.823371
     27          7           0       -0.056772    1.679024   -1.229837
     28          1           0        0.926077    1.454742   -1.255394
     29          6           0       -0.932536    0.669526   -1.616880
     30          8           0       -0.487909   -0.430721   -1.966897
     31          6           0       -2.284028    1.092478   -1.542940
     32          7           0       -3.458019    0.411375   -1.834003
     33          6           0       -4.403624    1.277437   -1.589072
     34          1           0       -5.469946    1.083279   -1.709598
     35          1           0       -5.307520    3.483401   -0.025353
     36          1           0       -4.060741    4.418526   -0.507065
     37          1           0       -5.228269    4.006559   -1.569204
     38          1           0        5.913215    0.760400   -0.548908
     39          1           0        5.988670    1.051707   -2.285029
     40          1           0        4.748418    1.843136   -1.311991
     41          1           0        4.467617   -3.512191   -2.222789
     42          6           0        4.070850   -2.508217   -2.071572
     43          8           0        1.803608   -3.173473   -2.281727
     44          6           0        2.654797   -2.303541   -2.098763
     45          1           0        1.265760   -0.812601   -1.908969
     46          7           0        2.259083   -0.996703   -1.896687
     47          8           0        2.625004    1.211018   -1.510341
     48          6           0        3.069654    0.089229   -1.679248
     49          1           0        5.970966   -1.571285   -1.831775
     50          6           0        4.887017   -1.468796   -1.861687
     51          6           0        5.327841    0.940656   -1.438246
     52          7           0        4.422362   -0.188712   -1.667093
     53          1           0        4.823162    2.511203    4.064270
     54          1           0        3.540889    2.971153    3.166312
     55          1           0        5.054408    3.164268    2.586618
     56          1           0        2.230006   -3.269057    0.200368
     57          1           0        3.886473   -3.060982    0.550967
     58          7           0        2.957198   -2.690448    0.569903
     59          6           0        2.700208   -1.478460    1.066111
     60          6           0        3.265370    0.601269    2.074612
     61          7           0        2.007738    1.073102    2.087126
     62          1           0        0.123969    0.485610    1.533156
     63          6           0        1.169503    0.181808    1.561902
     64          7           0        1.424950   -1.032598    1.064378
     65          1           0        6.459506    0.603876    2.574272
     66          6           0        5.432326    0.356677    2.304575
     67          7           0        5.058427   -0.769391    1.747927
     68          6           0        3.686681   -0.627390    1.596665
     69          6           0        4.459016    2.577187    3.135271
     70          7           0        4.398429    1.232273    2.530678
 ---------------------------------------------------------------------
 Rotational constants (GHZ):           0.1375055           0.0545108           0.0511577
 Leave Link  202 at Mon Jan 22 05:06:20 2018, MaxMem=  4294967296 cpu:               0.4 elap:               0.0
 (Enter /share/apps/g16/l301.exe)
 Standard basis: CC-pVDZ (5D, 7F)
 Ernie: Thresh=  0.10000D-02 Tol=  0.10000D-05 Strict=F.
 Ernie:  86 primitive shells out of 1081 were deleted.
 There are   780 symmetry adapted cartesian basis functions of A   symmetry.
 There are   737 symmetry adapted basis functions of A   symmetry.
   737 basis functions,  1608 primitive gaussians,   780 cartesian basis functions
   154 alpha electrons      154 beta electrons
       nuclear repulsion energy      5487.7539841664 Hartrees.
 IExCor= 4639 DFT=T Ex+Corr=wB97XD ExCW=0 ScaHFX=  1.000000
 ScaDFX=  1.000000  1.000000  1.000000  1.000000 ScalE2=  1.000000  1.000000
 IRadAn=      5 IRanWt=     -1 IRanGd=            0 ICorTp=0 IEmpDi=121
 HFx  wShort=  0.000000 wLong=  0.200000 cFull=  0.222036 cShort=  0.000000 cLong=  0.777964
 DFx  wShort=  0.000000 wLong=  0.200000 cFull=  0.000000 cShort=  0.000000 cLong=  1.000000
 NAtoms=   70 NActive=   70 NUniq=   70 SFac= 1.00D+00 NAtFMM=   60 NAOKFM=T Big=T
 Integral buffers will be    131072 words long.
 Raffenetti 2 integral format.
 Two-electron integral symmetry is turned on.
 R6Disp:  Grimme-D2 Dispersion energy=       -0.0688704158 Hartrees.
 Nuclear repulsion after empirical dispersion term =     5487.6851137506 Hartrees.
 Leave Link  301 at Mon Jan 22 05:06:20 2018, MaxMem=  4294967296 cpu:               2.5 elap:               0.1
 (Enter /share/apps/g16/l302.exe)
 NPDir=0 NMtPBC=     1 NCelOv=     1 NCel=       1 NClECP=     1 NCelD=      1
         NCelK=      1 NCelE2=     1 NClLst=     1 CellRange=     0.0.
 One-electron integrals computed using PRISM.
 One-electron integral symmetry used in STVInt
 NBasis=   737 RedAO= T EigKep=  6.89D-04  NBF=   737
 NBsUse=   737 1.00D-06 EigRej= -1.00D+00 NBFU=   737
 Precomputing XC quadrature grid using
 IXCGrd= 4 IRadAn=           5 IRanWt=          -1 IRanGd=           0 AccXCQ= 0.00D+00.
 Generated NRdTot=       0 NPtTot=           0 NUsed=           0 NTot=          32
 NSgBfM=   769   767   767   769   769 MxSgAt=    70 MxSgA2=    70.
 Leave Link  302 at Mon Jan 22 05:06:24 2018, MaxMem=  4294967296 cpu:             136.8 elap:               4.3
 (Enter /share/apps/g16/l303.exe)
 DipDrv:  MaxL=1.
 Leave Link  303 at Mon Jan 22 05:06:25 2018, MaxMem=  4294967296 cpu:              12.5 elap:               0.4
 (Enter /share/apps/g16/l401.exe)
 ExpMin= 1.22D-01 ExpMax= 1.17D+04 ExpMxC= 4.01D+02 IAcc=3 IRadAn=         5 AccDes= 0.00D+00
 Harris functional with IExCor= 4639 and IRadAn=       5 diagonalized for initial guess.
 HarFok:  IExCor= 4639 AccDes= 0.00D+00 IRadAn=         5 IDoV= 1 UseB2=F ITyADJ=14
 ICtDFT=  3500011 ScaDFX=  1.000000  1.000000  1.000000  1.000000
 FoFCou: FMM=F IPFlag=           0 FMFlag=      100000 FMFlg1=        2001
         NFxFlg=           0 DoJE=T BraDBF=F KetDBF=T FulRan=T
         wScrn=  0.000000 ICntrl=       500 IOpCl=  0 I1Cent=   200000004 NGrid=           0
         NMat0=    1 NMatS0=      1 NMatT0=    0 NMatD0=    1 NMtDS0=    0 NMtDT0=    0
 Petite list used in FoFCou.
 Harris En= -1963.88213292891    
 JPrj=0 DoOrth=F DoCkMO=F.
 Leave Link  401 at Mon Jan 22 05:06:37 2018, MaxMem=  4294967296 cpu:             397.2 elap:              12.5
 (Enter /share/apps/g16/l502.exe)
 Integral symmetry usage will be decided dynamically.
 Closed shell SCF:
 Using DIIS extrapolation, IDIIS=  1040.
 NGot=  4294967296 LenX=  4293717438 LenY=  4293108258
 Requested convergence on RMS density matrix=1.00D-08 within  20 cycles.
 Requested convergence on MAX density matrix=1.00D-06.
 Requested convergence on             energy=1.00D-06.
 No special actions if energy rises.
 Fock matrices will be formed incrementally for  20 cycles.
 Integral accuracy reduced to 1.0D-05 until final iterations.

 Cycle   1  Pass 0  IDiag  1:
 FoFJK:  IHMeth= 1 ICntrl=       0 DoSepK=T KAlg= 0 I1Cent=           0 FoldK=F
 IRaf=         1 NMat=       1 IRICut=       1 DoRegI=T DoRafI=F ISym2E= 0 IDoP0=0 IntGTp=1.
 FoFCou: FMM=T IPFlag=           0 FMFlag=      100000 FMFlg1=        2001
         NFxFlg=           0 DoJE=T BraDBF=F KetDBF=F FulRan=T
         wScrn=  0.000000 ICntrl=       500 IOpCl=  0 I1Cent=           0 NGrid=           0
         NMat0=    1 NMatS0=      1 NMatT0=    0 NMatD0=    1 NMtDS0=    0 NMtDT0=    0
 Symmetry not used in FoFCou.
 FMM levels:  10  Number of levels for PrismC:   9
 E= -2048.31600966323    
 DIIS: error= 2.65D-02 at cycle   1 NSaved=   1.
 NSaved= 1 IEnMin= 1 EnMin= -2048.31600966323     IErMin= 1 ErrMin= 2.65D-02
 ErrMax= 2.65D-02  0.00D+00 EMaxC= 1.00D-01 BMatC= 8.31D-01 BMatP= 8.31D-01
 IDIUse=3 WtCom= 7.35D-01 WtEn= 2.65D-01
 Coeff-Com:  0.100D+01
 Coeff-En:   0.100D+01
 Coeff:      0.100D+01
 Gap=     0.255 Goal=   None    Shift=    0.000
 GapD=    0.255 DampG=1.000 DampE=0.500 DampFc=0.5000 IDamp=-1.
 Damping current iteration by 5.00D-01
 RMSDP=1.56D-03 MaxDP=1.29D-01              OVMax= 1.58D-01

 Cycle   2  Pass 0  IDiag  1:
 RMSU=  7.77D-04    CP:  9.98D-01
 E= -2048.51291376677     Delta-E=       -0.196904103539 Rises=F Damp=T
 DIIS: error= 1.48D-02 at cycle   2 NSaved=   2.
 NSaved= 2 IEnMin= 2 EnMin= -2048.51291376677     IErMin= 2 ErrMin= 1.48D-02
 ErrMax= 1.48D-02  0.00D+00 EMaxC= 1.00D-01 BMatC= 1.44D-01 BMatP= 8.31D-01
 IDIUse=3 WtCom= 8.52D-01 WtEn= 1.48D-01
 Coeff-Com: -0.201D+00 0.120D+01
 Coeff-En:   0.000D+00 0.100D+01
 Coeff:     -0.171D+00 0.117D+01
 Gap=     0.354 Goal=   None    Shift=    0.000
 RMSDP=5.77D-04 MaxDP=3.38D-02 DE=-1.97D-01 OVMax= 1.37D-01

 Cycle   3  Pass 0  IDiag  1:
 RMSU=  5.65D-04    CP:  9.94D-01  1.14D+00
 E= -2048.69313812026     Delta-E=       -0.180224353492 Rises=F Damp=F
 DIIS: error= 5.91D-03 at cycle   3 NSaved=   3.
 NSaved= 3 IEnMin= 3 EnMin= -2048.69313812026     IErMin= 3 ErrMin= 5.91D-03
 ErrMax= 5.91D-03  0.00D+00 EMaxC= 1.00D-01 BMatC= 6.01D-02 BMatP= 1.44D-01
 IDIUse=3 WtCom= 9.41D-01 WtEn= 5.91D-02
 Coeff-Com: -0.229D+00 0.543D+00 0.687D+00
 Coeff-En:   0.000D+00 0.000D+00 0.100D+01
 Coeff:     -0.216D+00 0.511D+00 0.705D+00
 Gap=     0.275 Goal=   None    Shift=    0.000
 RMSDP=3.43D-04 MaxDP=3.24D-02 DE=-1.80D-01 OVMax= 6.78D-02

 Cycle   4  Pass 0  IDiag  1:
 RMSU=  1.99D-04    CP:  9.95D-01  1.42D+00  6.81D-01
 E= -2048.73895317772     Delta-E=       -0.045815057460 Rises=F Damp=F
 DIIS: error= 2.56D-03 at cycle   4 NSaved=   4.
 NSaved= 4 IEnMin= 4 EnMin= -2048.73895317772     IErMin= 4 ErrMin= 2.56D-03
 ErrMax= 2.56D-03  0.00D+00 EMaxC= 1.00D-01 BMatC= 8.26D-03 BMatP= 6.01D-02
 IDIUse=3 WtCom= 9.74D-01 WtEn= 2.56D-02
 Coeff-Com: -0.960D-01 0.186D+00 0.374D+00 0.536D+00
 Coeff-En:   0.000D+00 0.000D+00 0.496D-01 0.950D+00
 Coeff:     -0.935D-01 0.181D+00 0.366D+00 0.547D+00
 Gap=     0.280 Goal=   None    Shift=    0.000
 RMSDP=1.21D-04 MaxDP=1.08D-02 DE=-4.58D-02 OVMax= 1.40D-02

 Cycle   5  Pass 0  IDiag  1:
 RMSU=  6.09D-05    CP:  9.94D-01  1.40D+00  8.07D-01  6.25D-01
 E= -2048.74577967450     Delta-E=       -0.006826496779 Rises=F Damp=F
 DIIS: error= 5.21D-04 at cycle   5 NSaved=   5.
 NSaved= 5 IEnMin= 5 EnMin= -2048.74577967450     IErMin= 5 ErrMin= 5.21D-04
 ErrMax= 5.21D-04  0.00D+00 EMaxC= 1.00D-01 BMatC= 2.79D-04 BMatP= 8.26D-03
 IDIUse=3 WtCom= 9.95D-01 WtEn= 5.21D-03
 Coeff-Com: -0.249D-01 0.427D-01 0.119D+00 0.239D+00 0.624D+00
 Coeff-En:   0.000D+00 0.000D+00 0.000D+00 0.000D+00 0.100D+01
 Coeff:     -0.247D-01 0.425D-01 0.118D+00 0.238D+00 0.626D+00
 Gap=     0.280 Goal=   None    Shift=    0.000
 RMSDP=2.58D-05 MaxDP=1.60D-03 DE=-6.83D-03 OVMax= 3.04D-03

 Failed to achieve initial convergence to 1.0D-08 in  6 cycles.
 Switch to full accuracy anyway.
 Cycle   6  Pass 1  IDiag  1:
 E= -2048.74611317375     Delta-E=       -0.000333499252 Rises=F Damp=F
 DIIS: error= 2.84D-04 at cycle   1 NSaved=   1.
 NSaved= 1 IEnMin= 1 EnMin= -2048.74611317375     IErMin= 1 ErrMin= 2.84D-04
 ErrMax= 2.84D-04  0.00D+00 EMaxC= 1.00D-01 BMatC= 7.33D-05 BMatP= 7.33D-05
 IDIUse=3 WtCom= 9.97D-01 WtEn= 2.84D-03
 Coeff-Com:  0.100D+01
 Coeff-En:   0.100D+01
 Coeff:      0.100D+01
 Gap=     0.280 Goal=   None    Shift=    0.000
 RMSDP=2.58D-05 MaxDP=1.60D-03 DE=-3.33D-04 OVMax= 2.26D-03

 Cycle   7  Pass 1  IDiag  1:
 RMSU=  1.09D-04    CP:  1.00D+00
 E= -2048.74616800116     Delta-E=       -0.000054827412 Rises=F Damp=F
 DIIS: error= 2.34D-04 at cycle   2 NSaved=   2.
 NSaved= 2 IEnMin= 2 EnMin= -2048.74616800116     IErMin= 2 ErrMin= 2.34D-04
 ErrMax= 2.34D-04  0.00D+00 EMaxC= 1.00D-01 BMatC= 4.17D-05 BMatP= 7.33D-05
 IDIUse=3 WtCom= 9.98D-01 WtEn= 2.34D-03
 Coeff-Com:  0.405D+00 0.595D+00
 Coeff-En:   0.000D+00 0.100D+01
 Coeff:      0.404D+00 0.596D+00
 Gap=     0.280 Goal=   None    Shift=    0.000
 RMSDP=1.11D-05 MaxDP=9.67D-04 DE=-5.48D-05 OVMax= 1.39D-03

 Cycle   8  Pass 1  IDiag  1:
 RMSU=  1.08D-05    CP:  1.00D+00  1.02D+00
 E= -2048.74619831006     Delta-E=       -0.000030308902 Rises=F Damp=F
 DIIS: error= 9.39D-05 at cycle   3 NSaved=   3.
 NSaved= 3 IEnMin= 3 EnMin= -2048.74619831006     IErMin= 3 ErrMin= 9.39D-05
 ErrMax= 9.39D-05  0.00D+00 EMaxC= 1.00D-01 BMatC= 9.90D-06 BMatP= 4.17D-05
 IDIUse=1 WtCom= 1.00D+00 WtEn= 0.00D+00
 Coeff-Com: -0.197D-01 0.314D+00 0.706D+00
 Coeff:     -0.197D-01 0.314D+00 0.706D+00
 Gap=     0.280 Goal=   None    Shift=    0.000
 RMSDP=5.52D-06 MaxDP=4.47D-04 DE=-3.03D-05 OVMax= 5.07D-04

 Cycle   9  Pass 1  IDiag  1:
 RMSU=  3.82D-06    CP:  1.00D+00  1.05D+00  7.64D-01
 E= -2048.74620769980     Delta-E=       -0.000009389739 Rises=F Damp=F
 DIIS: error= 2.52D-05 at cycle   4 NSaved=   4.
 NSaved= 4 IEnMin= 4 EnMin= -2048.74620769980     IErMin= 4 ErrMin= 2.52D-05
 ErrMax= 2.52D-05  0.00D+00 EMaxC= 1.00D-01 BMatC= 4.86D-07 BMatP= 9.90D-06
 IDIUse=1 WtCom= 1.00D+00 WtEn= 0.00D+00
 Coeff-Com: -0.306D-01 0.843D-01 0.258D+00 0.688D+00
 Coeff:     -0.306D-01 0.843D-01 0.258D+00 0.688D+00
 Gap=     0.280 Goal=   None    Shift=    0.000
 RMSDP=1.45D-06 MaxDP=1.33D-04 DE=-9.39D-06 OVMax= 4.35D-04

 Cycle  10  Pass 1  IDiag  1:
 RMSU=  1.28D-06    CP:  1.00D+00  1.06D+00  8.01D-01  1.11D+00
 E= -2048.74620853865     Delta-E=       -0.000000838846 Rises=F Damp=F
 DIIS: error= 1.61D-05 at cycle   5 NSaved=   5.
 NSaved= 5 IEnMin= 5 EnMin= -2048.74620853865     IErMin= 5 ErrMin= 1.61D-05
 ErrMax= 1.61D-05  0.00D+00 EMaxC= 1.00D-01 BMatC= 1.20D-07 BMatP= 4.86D-07
 IDIUse=1 WtCom= 1.00D+00 WtEn= 0.00D+00
 Coeff-Com: -0.268D-02-0.592D-01-0.126D+00 0.206D+00 0.982D+00
 Coeff:     -0.268D-02-0.592D-01-0.126D+00 0.206D+00 0.982D+00
 Gap=     0.280 Goal=   None    Shift=    0.000
 RMSDP=1.24D-06 MaxDP=7.95D-05 DE=-8.39D-07 OVMax= 2.19D-04

 Cycle  11  Pass 1  IDiag  1:
 RMSU=  5.04D-07    CP:  1.00D+00  1.06D+00  8.13D-01  1.40D+00  1.18D+00
 E= -2048.74620880714     Delta-E=       -0.000000268490 Rises=F Damp=F
 DIIS: error= 6.46D-06 at cycle   6 NSaved=   6.
 NSaved= 6 IEnMin= 6 EnMin= -2048.74620880714     IErMin= 6 ErrMin= 6.46D-06
 ErrMax= 6.46D-06  0.00D+00 EMaxC= 1.00D-01 BMatC= 2.83D-08 BMatP= 1.20D-07
 IDIUse=1 WtCom= 1.00D+00 WtEn= 0.00D+00
 Coeff-Com:  0.473D-02-0.466D-01-0.116D+00-0.263D-03 0.525D+00 0.634D+00
 Coeff:      0.473D-02-0.466D-01-0.116D+00-0.263D-03 0.525D+00 0.634D+00
 Gap=     0.280 Goal=   None    Shift=    0.000
 RMSDP=3.76D-07 MaxDP=3.79D-05 DE=-2.68D-07 OVMax= 1.12D-04

 Cycle  12  Pass 1  IDiag  1:
 RMSU=  1.88D-07    CP:  1.00D+00  1.06D+00  8.15D-01  1.47D+00  1.31D+00
                    CP:  9.31D-01
 E= -2048.74620884888     Delta-E=       -0.000000041745 Rises=F Damp=F
 DIIS: error= 1.18D-06 at cycle   7 NSaved=   7.
 NSaved= 7 IEnMin= 7 EnMin= -2048.74620884888     IErMin= 7 ErrMin= 1.18D-06
 ErrMax= 1.18D-06  0.00D+00 EMaxC= 1.00D-01 BMatC= 8.84D-10 BMatP= 2.83D-08
 IDIUse=1 WtCom= 1.00D+00 WtEn= 0.00D+00
 Coeff-Com:  0.112D-02-0.726D-02-0.196D-01-0.789D-02 0.534D-01 0.140D+00
 Coeff-Com:  0.841D+00
 Coeff:      0.112D-02-0.726D-02-0.196D-01-0.789D-02 0.534D-01 0.140D+00
 Coeff:      0.841D+00
 Gap=     0.280 Goal=   None    Shift=    0.000
 RMSDP=9.06D-08 MaxDP=5.45D-06 DE=-4.17D-08 OVMax= 1.93D-05

 Cycle  13  Pass 1  IDiag  1:
 RMSU=  5.27D-08    CP:  1.00D+00  1.06D+00  8.15D-01  1.48D+00  1.33D+00
                    CP:  1.03D+00  1.15D+00
 E= -2048.74620885081     Delta-E=       -0.000000001930 Rises=F Damp=F
 DIIS: error= 7.67D-07 at cycle   8 NSaved=   8.
 NSaved= 8 IEnMin= 8 EnMin= -2048.74620885081     IErMin= 8 ErrMin= 7.67D-07
 ErrMax= 7.67D-07  0.00D+00 EMaxC= 1.00D-01 BMatC= 3.66D-10 BMatP= 8.84D-10
 IDIUse=1 WtCom= 1.00D+00 WtEn= 0.00D+00
 Coeff-Com: -0.734D-03 0.916D-02 0.219D-01-0.249D-02-0.118D+00-0.973D-01
 Coeff-Com:  0.437D+00 0.751D+00
 Coeff:     -0.734D-03 0.916D-02 0.219D-01-0.249D-02-0.118D+00-0.973D-01
 Coeff:      0.437D+00 0.751D+00
 Gap=     0.280 Goal=   None    Shift=    0.000
 RMSDP=5.04D-08 MaxDP=2.94D-06 DE=-1.93D-09 OVMax= 1.11D-05

 Cycle  14  Pass 1  IDiag  1:
 RMSU=  2.88D-08    CP:  1.00D+00  1.06D+00  8.15D-01  1.48D+00  1.34D+00
                    CP:  1.07D+00  1.30D+00  1.07D+00
 E= -2048.74620885147     Delta-E=       -0.000000000659 Rises=F Damp=F
 DIIS: error= 1.85D-07 at cycle   9 NSaved=   9.
 NSaved= 9 IEnMin= 9 EnMin= -2048.74620885147     IErMin= 9 ErrMin= 1.85D-07
 ErrMax= 1.85D-07  0.00D+00 EMaxC= 1.00D-01 BMatC= 3.92D-11 BMatP= 3.66D-10
 IDIUse=1 WtCom= 1.00D+00 WtEn= 0.00D+00
 Coeff-Com: -0.461D-03 0.503D-02 0.123D-01 0.932D-04-0.591D-01-0.601D-01
 Coeff-Com:  0.942D-01 0.322D+00 0.687D+00
 Coeff:     -0.461D-03 0.503D-02 0.123D-01 0.932D-04-0.591D-01-0.601D-01
 Coeff:      0.942D-01 0.322D+00 0.687D+00
 Gap=     0.280 Goal=   None    Shift=    0.000
 RMSDP=1.47D-08 MaxDP=8.85D-07 DE=-6.59D-10 OVMax= 2.98D-06

 Cycle  15  Pass 1  IDiag  1:
 RMSU=  9.78D-09    CP:  1.00D+00  1.06D+00  8.15D-01  1.48D+00  1.34D+00
                    CP:  1.08D+00  1.33D+00  1.21D+00  1.09D+00
 E= -2048.74620885161     Delta-E=       -0.000000000140 Rises=F Damp=F
 DIIS: error= 9.14D-08 at cycle  10 NSaved=  10.
 NSaved=10 IEnMin=10 EnMin= -2048.74620885161     IErMin=10 ErrMin= 9.14D-08
 ErrMax= 9.14D-08  0.00D+00 EMaxC= 1.00D-01 BMatC= 5.69D-12 BMatP= 3.92D-11
 IDIUse=1 WtCom= 1.00D+00 WtEn= 0.00D+00
 Coeff-Com: -0.867D-06-0.254D-03-0.485D-03 0.181D-03 0.472D-02 0.368D-03
 Coeff-Com: -0.546D-01-0.485D-01 0.254D+00 0.845D+00
 Coeff:     -0.867D-06-0.254D-03-0.485D-03 0.181D-03 0.472D-02 0.368D-03
 Coeff:     -0.546D-01-0.485D-01 0.254D+00 0.845D+00
 Gap=     0.280 Goal=   None    Shift=    0.000
 RMSDP=7.16D-09 MaxDP=4.23D-07 DE=-1.40D-10 OVMax= 1.68D-06

 SCF Done:  E(RwB97XD) =  -2048.74620885     A.U. after   15 cycles
            NFock= 15  Conv=0.72D-08     -V/T= 2.0054
 KE= 2.037727608856D+03 PE=-1.575619803983D+04 EE= 6.182039108371D+03
 Leave Link  502 at Mon Jan 22 05:17:42 2018, MaxMem=  4294967296 cpu:           20534.0 elap:             664.6
 (Enter /share/apps/g16/l601.exe)
 Copying SCF densities to generalized density rwf, IOpCl= 0 IROHF=0.

 **********************************************************************

            Population analysis using the SCF density.

 **********************************************************************

 Orbital symmetries:
       Occupied  (A) (A) (A) (A) (A) (A) (A) (A) (A) (A) (A) (A)
                 (A) (A) (A) (A) (A) (A) (A) (A) (A) (A) (A) (A)
                 (A) (A) (A) (A) (A) (A) (A) (A) (A) (A) (A) (A)
                 (A) (A) (A) (A) (A) (A) (A) (A) (A) (A) (A) (A)
                 (A) (A) (A) (A) (A) (A) (A) (A) (A) (A) (A) (A)
                 (A) (A) (A) (A) (A) (A) (A) (A) (A) (A) (A) (A)
                 (A) (A) (A) (A) (A) (A) (A) (A) (A) (A) (A) (A)
                 (A) (A) (A) (A) (A) (A) (A) (A) (A) (A) (A) (A)
                 (A) (A) (A) (A) (A) (A) (A) (A) (A) (A) (A) (A)
                 (A) (A) (A) (A) (A) (A) (A) (A) (A) (A) (A) (A)
                 (A) (A) (A) (A) (A) (A) (A) (A) (A) (A) (A) (A)
                 (A) (A) (A) (A) (A) (A) (A) (A) (A) (A) (A) (A)
                 (A) (A) (A) (A) (A) (A) (A) (A) (A) (A)
       Virtual   (A) (A) (A) (A) (A) (A) (A) (A) (A) (A) (A) (A)
                 (A) (A) (A) (A) (A) (A) (A) (A) (A) (A) (A) (A)
                 (A) (A) (A) (A) (A) (A) (A) (A) (A) (A) (A) (A)
                 (A) (A) (A) (A) (A) (A) (A) (A) (A) (A) (A) (A)
                 (A) (A) (A) (A) (A) (A) (A) (A) (A) (A) (A) (A)
                 (A) (A) (A) (A) (A) (A) (A) (A) (A) (A) (A) (A)
                 (A) (A) (A) (A) (A) (A) (A) (A) (A) (A) (A) (A)
                 (A) (A) (A) (A) (A) (A) (A) (A) (A) (A) (A) (A)
                 (A) (A) (A) (A) (A) (A) (A) (A) (A) (A) (A) (A)
                 (A) (A) (A) (A) (A) (A) (A) (A) (A) (A) (A) (A)
                 (A) (A) (A) (A) (A) (A) (A) (A) (A) (A) (A) (A)
                 (A) (A) (A) (A) (A) (A) (A) (A) (A) (A) (A) (A)
                 (A) (A) (A) (A) (A) (A) (A) (A) (A) (A) (A) (A)
                 (A) (A) (A) (A) (A) (A) (A) (A) (A) (A) (A) (A)
                 (A) (A) (A) (A) (A) (A) (A) (A) (A) (A) (A) (A)
                 (A) (A) (A) (A) (A) (A) (A) (A) (A) (A) (A) (A)
                 (A) (A) (A) (A) (A) (A) (A) (A) (A) (A) (A) (A)
                 (A) (A) (A) (A) (A) (A) (A) (A) (A) (A) (A) (A)
                 (A) (A) (A) (A) (A) (A) (A) (A) (A) (A) (A) (A)
                 (A) (A) (A) (A) (A) (A) (A) (A) (A) (A) (A) (A)
                 (A) (A) (A) (A) (A) (A) (A) (A) (A) (A) (A) (A)
                 (A) (A) (A) (A) (A) (A) (A) (A) (A) (A) (A) (A)
                 (A) (A) (A) (A) (A) (A) (A) (A) (A) (A) (A) (A)
                 (A) (A) (A) (A) (A) (A) (A) (A) (A) (A) (A) (A)
                 (A) (A) (A) (A) (A) (A) (A) (A) (A) (A) (A) (A)
                 (A) (A) (A) (A) (A) (A) (A) (A) (A) (A) (A) (A)
                 (A) (A) (A) (A) (A) (A) (A) (A) (A) (A) (A) (A)
                 (A) (A) (A) (A) (A) (A) (A) (A) (A) (A) (A) (A)
                 (A) (A) (A) (A) (A) (A) (A) (A) (A) (A) (A) (A)
                 (A) (A) (A) (A) (A) (A) (A) (A) (A) (A) (A) (A)
                 (A) (A) (A) (A) (A) (A) (A) (A) (A) (A) (A) (A)
                 (A) (A) (A) (A) (A) (A) (A) (A) (A) (A) (A) (A)
                 (A) (A) (A) (A) (A) (A) (A) (A) (A) (A) (A) (A)
                 (A) (A) (A) (A) (A) (A) (A) (A) (A) (A) (A) (A)
                 (A) (A) (A) (A) (A) (A) (A) (A) (A) (A) (A) (A)
                 (A) (A) (A) (A) (A) (A) (A) (A) (A) (A) (A) (A)
                 (A) (A) (A) (A) (A) (A) (A) (A) (A) (A) (A) (A)
                 (A) (A) (A) (A) (A) (A) (A) (A) (A) (A) (A) (A)
                 (A) (A) (A) (A) (A) (A) (A) (A) (A) (A) (A) (A)
                 (A) (A) (A) (A) (A) (A) (A) (A) (A) (A) (A) (A)
                 (A) (A) (A) (A) (A) (A) (A) (A) (A) (A) (A) (A)
                 (A) (A) (A) (A) (A) (A) (A) (A) (A) (A) (A) (A)
                 (A) (A) (A) (A) (A) (A) (A) (A) (A) (A) (A) (A)
                 (A) (A) (A) (A) (A) (A) (A) (A) (A) (A) (A) (A)
                 (A) (A) (A) (A) (A) (A) (A) (A) (A) (A) (A) (A)
                 (A) (A) (A) (A) (A) (A) (A) (A) (A) (A) (A) (A)
                 (A) (A) (A) (A) (A) (A) (A) (A) (A) (A) (A) (A)
                 (A) (A) (A) (A) (A) (A) (A) (A) (A) (A) (A) (A)
                 (A) (A) (A) (A) (A) (A) (A)
 The electronic state is 1-A.
 Alpha  occ. eigenvalues --  -19.25976 -19.22414 -19.20734 -14.52433 -14.52149
 Alpha  occ. eigenvalues --  -14.48825 -14.48460 -14.47895 -14.47367 -14.47057
 Alpha  occ. eigenvalues --  -14.46785 -14.45266 -14.43851 -14.43823 -14.42116
 Alpha  occ. eigenvalues --  -14.41880 -14.40977 -14.40961 -14.40695 -14.39993
 Alpha  occ. eigenvalues --  -10.45553 -10.41347 -10.40529 -10.39421 -10.38342
 Alpha  occ. eigenvalues --  -10.37759 -10.37743 -10.36820 -10.35336 -10.35105
 Alpha  occ. eigenvalues --  -10.35100 -10.34411 -10.33697 -10.33686 -10.33411
 Alpha  occ. eigenvalues --  -10.33014 -10.32860 -10.32316 -10.31182 -10.30895
 Alpha  occ. eigenvalues --  -10.30895 -10.28181 -10.28141  -1.19524  -1.14883
 Alpha  occ. eigenvalues --   -1.13490  -1.13306  -1.10994  -1.10660  -1.09368
 Alpha  occ. eigenvalues --   -1.08813  -1.08673  -1.04734  -1.04353  -1.02642
 Alpha  occ. eigenvalues --   -1.00671  -1.00119  -0.99858  -0.98644  -0.96670
 Alpha  occ. eigenvalues --   -0.96648  -0.96331  -0.92395  -0.91132  -0.87288
 Alpha  occ. eigenvalues --   -0.85616  -0.84176  -0.83663  -0.83627  -0.82541
 Alpha  occ. eigenvalues --   -0.82068  -0.78943  -0.76643  -0.74715  -0.74404
 Alpha  occ. eigenvalues --   -0.73757  -0.73491  -0.72599  -0.70766  -0.70015
 Alpha  occ. eigenvalues --   -0.67488  -0.66615  -0.66385  -0.65995  -0.64588
 Alpha  occ. eigenvalues --   -0.63953  -0.63732  -0.62757  -0.62417  -0.61857
 Alpha  occ. eigenvalues --   -0.60465  -0.60155  -0.60035  -0.59482  -0.59097
 Alpha  occ. eigenvalues --   -0.58996  -0.58478  -0.56677  -0.56305  -0.56181
 Alpha  occ. eigenvalues --   -0.56082  -0.55203  -0.54936  -0.54510  -0.54410
 Alpha  occ. eigenvalues --   -0.53763  -0.53620  -0.53280  -0.53186  -0.53060
 Alpha  occ. eigenvalues --   -0.52494  -0.52442  -0.51563  -0.50531  -0.50295
 Alpha  occ. eigenvalues --   -0.50006  -0.49606  -0.49542  -0.49221  -0.49028
 Alpha  occ. eigenvalues --   -0.48605  -0.48476  -0.48054  -0.47678  -0.47510
 Alpha  occ. eigenvalues --   -0.46693  -0.45800  -0.44656  -0.44440  -0.43795
 Alpha  occ. eigenvalues --   -0.40818  -0.40373  -0.39534  -0.37440  -0.37374
 Alpha  occ. eigenvalues --   -0.37356  -0.37122  -0.36855  -0.36263  -0.34466
 Alpha  occ. eigenvalues --   -0.34153  -0.33908  -0.33599  -0.33171  -0.33150
 Alpha  occ. eigenvalues --   -0.32695  -0.32504  -0.32331  -0.31982  -0.30636
 Alpha  occ. eigenvalues --   -0.30185  -0.29253  -0.25627  -0.25248
 Alpha virt. eigenvalues --    0.02768   0.04475   0.07382   0.08160   0.08369
 Alpha virt. eigenvalues --    0.09170   0.09695   0.10764   0.11342   0.12147
 Alpha virt. eigenvalues --    0.13062   0.14354   0.14588   0.14638   0.15443
 Alpha virt. eigenvalues --    0.15478   0.16063   0.16907   0.17529   0.18448
 Alpha virt. eigenvalues --    0.18825   0.19336   0.19537   0.20366   0.20631
 Alpha virt. eigenvalues --    0.20653   0.20868   0.21126   0.21456   0.21987
 Alpha virt. eigenvalues --    0.22609   0.22913   0.23254   0.23483   0.23732
 Alpha virt. eigenvalues --    0.23928   0.24197   0.24511   0.25051   0.25393
 Alpha virt. eigenvalues --    0.25576   0.25808   0.27021   0.27399   0.28019
 Alpha virt. eigenvalues --    0.28820   0.29040   0.29714   0.30519   0.30834
 Alpha virt. eigenvalues --    0.31272   0.31629   0.32314   0.32574   0.33439
 Alpha virt. eigenvalues --    0.33975   0.34030   0.35041   0.35993   0.36329
 Alpha virt. eigenvalues --    0.36719   0.37038   0.37932   0.39029   0.39251
 Alpha virt. eigenvalues --    0.39983   0.40227   0.41386   0.41488   0.41727
 Alpha virt. eigenvalues --    0.42011   0.42701   0.42972   0.43627   0.44313
 Alpha virt. eigenvalues --    0.44684   0.44956   0.46223   0.46726   0.46960
 Alpha virt. eigenvalues --    0.47747   0.47909   0.48322   0.48545   0.49255
 Alpha virt. eigenvalues --    0.49771   0.50127   0.50619   0.50895   0.51073
 Alpha virt. eigenvalues --    0.51554   0.51641   0.52370   0.52810   0.53119
 Alpha virt. eigenvalues --    0.53745   0.54136   0.54380   0.54965   0.55321
 Alpha virt. eigenvalues --    0.55733   0.55990   0.56351   0.56952   0.57394
 Alpha virt. eigenvalues --    0.57489   0.57893   0.58458   0.58568   0.59792
 Alpha virt. eigenvalues --    0.59937   0.60336   0.60600   0.61371   0.61510
 Alpha virt. eigenvalues --    0.61768   0.61985   0.62435   0.62981   0.63024
 Alpha virt. eigenvalues --    0.63557   0.64268   0.64917   0.64927   0.65424
 Alpha virt. eigenvalues --    0.65688   0.66188   0.66368   0.67036   0.67360
 Alpha virt. eigenvalues --    0.67803   0.68070   0.68312   0.68757   0.69191
 Alpha virt. eigenvalues --    0.70025   0.70619   0.70956   0.71316   0.71621
 Alpha virt. eigenvalues --    0.72382   0.72438   0.72552   0.73255   0.73493
 Alpha virt. eigenvalues --    0.74097   0.74405   0.74553   0.74889   0.75077
 Alpha virt. eigenvalues --    0.75736   0.76025   0.76300   0.76569   0.76756
 Alpha virt. eigenvalues --    0.77173   0.77900   0.78048   0.78574   0.78833
 Alpha virt. eigenvalues --    0.79198   0.79485   0.79952   0.80190   0.80887
 Alpha virt. eigenvalues --    0.81102   0.81666   0.82164   0.82777   0.82932
 Alpha virt. eigenvalues --    0.83449   0.83723   0.84059   0.84566   0.85098
 Alpha virt. eigenvalues --    0.85398   0.86095   0.86286   0.86687   0.87546
 Alpha virt. eigenvalues --    0.88039   0.88628   0.88969   0.89503   0.89877
 Alpha virt. eigenvalues --    0.90513   0.90676   0.91243   0.91818   0.92235
 Alpha virt. eigenvalues --    0.92312   0.92978   0.93274   0.93456   0.94226
 Alpha virt. eigenvalues --    0.94676   0.95206   0.95395   0.95672   0.95991
 Alpha virt. eigenvalues --    0.96607   0.97292   0.97420   0.97754   0.98229
 Alpha virt. eigenvalues --    0.98488   0.99383   0.99788   1.00552   1.00933
 Alpha virt. eigenvalues --    1.01102   1.01293   1.01764   1.02183   1.02860
 Alpha virt. eigenvalues --    1.03300   1.03600   1.03876   1.04482   1.05024
 Alpha virt. eigenvalues --    1.05755   1.05883   1.06801   1.07023   1.07242
 Alpha virt. eigenvalues --    1.07415   1.07707   1.09322   1.10363   1.10541
 Alpha virt. eigenvalues --    1.11113   1.11245   1.12097   1.12543   1.13150
 Alpha virt. eigenvalues --    1.13474   1.14198   1.14364   1.15190   1.15267
 Alpha virt. eigenvalues --    1.15511   1.16255   1.16988   1.17406   1.17657
 Alpha virt. eigenvalues --    1.18352   1.18644   1.18753   1.19471   1.19597
 Alpha virt. eigenvalues --    1.20197   1.20548   1.20733   1.20780   1.21251
 Alpha virt. eigenvalues --    1.21595   1.22157   1.22265   1.22982   1.23141
 Alpha virt. eigenvalues --    1.23310   1.23836   1.24158   1.24611   1.24788
 Alpha virt. eigenvalues --    1.24927   1.25824   1.26353   1.27003   1.27657
 Alpha virt. eigenvalues --    1.27850   1.29125   1.29829   1.30203   1.30854
 Alpha virt. eigenvalues --    1.31314   1.32343   1.32423   1.33605   1.34070
 Alpha virt. eigenvalues --    1.34390   1.34676   1.36236   1.36756   1.37083
 Alpha virt. eigenvalues --    1.37496   1.37718   1.38424   1.39546   1.39846
 Alpha virt. eigenvalues --    1.40711   1.41456   1.42064   1.42162   1.43214
 Alpha virt. eigenvalues --    1.45517   1.45682   1.46307   1.47138   1.47375
 Alpha virt. eigenvalues --    1.47959   1.49186   1.49487   1.50005   1.50090
 Alpha virt. eigenvalues --    1.50869   1.51818   1.53143   1.53420   1.53526
 Alpha virt. eigenvalues --    1.54271   1.56122   1.56176   1.56206   1.57363
 Alpha virt. eigenvalues --    1.57828   1.58812   1.58975   1.59707   1.60246
 Alpha virt. eigenvalues --    1.61227   1.61465   1.62095   1.62516   1.63417
 Alpha virt. eigenvalues --    1.64222   1.64337   1.65085   1.65464   1.65637
 Alpha virt. eigenvalues --    1.66826   1.67512   1.68493   1.68949   1.69487
 Alpha virt. eigenvalues --    1.69911   1.70092   1.70407   1.71202   1.71763
 Alpha virt. eigenvalues --    1.72000   1.72257   1.72933   1.73348   1.73715
 Alpha virt. eigenvalues --    1.74133   1.74353   1.74596   1.75042   1.75497
 Alpha virt. eigenvalues --    1.75895   1.76130   1.76191   1.76551   1.76746
 Alpha virt. eigenvalues --    1.77414   1.78048   1.78252   1.78526   1.78965
 Alpha virt. eigenvalues --    1.79301   1.79575   1.79786   1.79979   1.80540
 Alpha virt. eigenvalues --    1.80786   1.80859   1.81060   1.81448   1.81937
 Alpha virt. eigenvalues --    1.82360   1.83235   1.83508   1.83879   1.84174
 Alpha virt. eigenvalues --    1.84908   1.85790   1.85956   1.86387   1.87129
 Alpha virt. eigenvalues --    1.87441   1.87584   1.87985   1.88690   1.89037
 Alpha virt. eigenvalues --    1.89837   1.89871   1.90486   1.90645   1.91081
 Alpha virt. eigenvalues --    1.91805   1.92410   1.93264   1.93611   1.94378
 Alpha virt. eigenvalues --    1.94492   1.95456   1.96223   1.97163   1.97810
 Alpha virt. eigenvalues --    1.98282   1.98764   1.99428   2.00443   2.01076
 Alpha virt. eigenvalues --    2.01429   2.01774   2.02252   2.02685   2.03408
 Alpha virt. eigenvalues --    2.04008   2.05368   2.06328   2.06812   2.07667
 Alpha virt. eigenvalues --    2.07727   2.08189   2.08616   2.08931   2.09498
 Alpha virt. eigenvalues --    2.09966   2.10817   2.11137   2.11712   2.12163
 Alpha virt. eigenvalues --    2.14181   2.15516   2.16294   2.17317   2.18380
 Alpha virt. eigenvalues --    2.18634   2.19259   2.19854   2.20924   2.21454
 Alpha virt. eigenvalues --    2.21715   2.22312   2.22673   2.22857   2.24150
 Alpha virt. eigenvalues --    2.24653   2.25021   2.25426   2.25878   2.26233
 Alpha virt. eigenvalues --    2.27550   2.27645   2.29082   2.29164   2.29886
 Alpha virt. eigenvalues --    2.30078   2.30647   2.30796   2.31514   2.32329
 Alpha virt. eigenvalues --    2.32650   2.33022   2.33659   2.33941   2.34526
 Alpha virt. eigenvalues --    2.34793   2.34919   2.35643   2.36301   2.37084
 Alpha virt. eigenvalues --    2.38062   2.39013   2.39500   2.40451   2.40996
 Alpha virt. eigenvalues --    2.41929   2.42353   2.43360   2.43776   2.43930
 Alpha virt. eigenvalues --    2.44344   2.44672   2.45643   2.46346   2.47382
 Alpha virt. eigenvalues --    2.47547   2.50266   2.50381   2.50729   2.51471
 Alpha virt. eigenvalues --    2.52671   2.53482   2.54818   2.55173   2.55263
 Alpha virt. eigenvalues --    2.56728   2.56915   2.57844   2.58476   2.59235
 Alpha virt. eigenvalues --    2.60655   2.61009   2.61984   2.62513   2.62960
 Alpha virt. eigenvalues --    2.64004   2.65065   2.65253   2.65766   2.65863
 Alpha virt. eigenvalues --    2.66368   2.67326   2.68179   2.68496   2.69308
 Alpha virt. eigenvalues --    2.69611   2.70284   2.70668   2.70951   2.72387
 Alpha virt. eigenvalues --    2.73185   2.74191   2.75213   2.75787   2.76033
 Alpha virt. eigenvalues --    2.77098   2.77421   2.78929   2.79107   2.79376
 Alpha virt. eigenvalues --    2.79461   2.80213   2.80275   2.80678   2.81314
 Alpha virt. eigenvalues --    2.81828   2.82557   2.82636   2.83167   2.84260
 Alpha virt. eigenvalues --    2.84729   2.85016   2.86005   2.86063   2.86809
 Alpha virt. eigenvalues --    2.87486   2.87913   2.88766   2.90988   2.93165
 Alpha virt. eigenvalues --    2.93819   2.95165   2.96258   2.97654   2.98194
 Alpha virt. eigenvalues --    2.99878   3.00873   3.01478   3.04548   3.05792
 Alpha virt. eigenvalues --    3.06326   3.10065   3.11254   3.13011   3.14618
 Alpha virt. eigenvalues --    3.15546   3.15944   3.16582   3.17631   3.20323
 Alpha virt. eigenvalues --    3.21525   3.22750   3.23509   3.24332   3.25735
 Alpha virt. eigenvalues --    3.45135   3.47269   3.47601   3.49707   3.50150
 Alpha virt. eigenvalues --    3.53474   3.54526   3.55854   3.57477   3.59709
 Alpha virt. eigenvalues --    3.62496   3.70472   3.74797
          Condensed to atoms (all electrons):
 Mulliken charges:
               1
     1  N   -0.312634
     2  C    0.180363
     3  C    0.061362
     4  N   -0.255992
     5  C    0.134190
     6  H    0.024984
     7  N   -0.295410
     8  C    0.134303
     9  H    0.010316
    10  N   -0.292289
    11  C    0.239216
    12  C    0.103283
    13  N   -0.047980
    14  H    0.113424
    15  H    0.086770
    16  H    0.025571
    17  H    0.031962
    18  H    0.022740
    19  N   -0.309558
    20  C    0.254997
    21  C    0.180534
    22  N   -0.120644
    23  H    0.114835
    24  H    0.117657
    25  N   -0.310434
    26  C    0.244726
    27  N   -0.149332
    28  H    0.122111
    29  C    0.189871
    30  O   -0.324092
    31  C   -0.013533
    32  N   -0.224022
    33  C    0.131811
    34  H    0.020982
    35  H    0.030911
    36  H    0.028753
    37  H    0.023508
    38  H    0.060040
    39  H    0.059602
    40  H    0.071776
    41  H    0.025179
    42  C   -0.117459
    43  O   -0.273778
    44  C    0.149590
    45  H    0.133251
    46  N   -0.108206
    47  O   -0.342487
    48  C    0.335145
    49  H    0.048217
    50  C    0.179984
    51  C    0.039065
    52  N   -0.278822
    53  H    0.033730
    54  H    0.041520
    55  H    0.025474
    56  H    0.127766
    57  H    0.116191
    58  N   -0.049020
    59  C    0.080538
    60  C    0.249504
    61  N   -0.273571
    62  H    0.037370
    63  C    0.162474
    64  N   -0.302223
    65  H    0.035537
    66  C    0.129194
    67  N   -0.264221
    68  C    0.024517
    69  C    0.180678
    70  N   -0.309813
 Sum of Mulliken charges =  -0.00000
 Mulliken charges with hydrogens summed into heavy atoms:
               1
     1  N   -0.312634
     2  C    0.260636
     3  C    0.061362
     4  N   -0.255992
     5  C    0.159173
     7  N   -0.295410
     8  C    0.144619
    10  N   -0.292289
    11  C    0.239216
    12  C    0.103283
    13  N    0.152214
    19  N   -0.309558
    20  C    0.254997
    21  C    0.263707
    22  N    0.111849
    25  N   -0.310434
    26  C    0.244726
    27  N   -0.027221
    29  C    0.189871
    30  O   -0.324092
    31  C   -0.013533
    32  N   -0.224022
    33  C    0.152792
    42  C   -0.092281
    43  O   -0.273778
    44  C    0.149590
    46  N    0.025045
    47  O   -0.342487
    48  C    0.335145
    50  C    0.228201
    51  C    0.230482
    52  N   -0.278822
    58  N    0.194938
    59  C    0.080538
    60  C    0.249504
    61  N   -0.273571
    63  C    0.199844
    64  N   -0.302223
    66  C    0.164731
    67  N   -0.264221
    68  C    0.024517
    69  C    0.281402
    70  N   -0.309813
 Electronic spatial extent (au):  <R**2>=          22375.5456
 Charge=             -0.0000 electrons
 Dipole moment (field-independent basis, Debye):
    X=              7.4205    Y=              6.6957    Z=              2.3255  Tot=             10.2618
 Quadrupole moment (field-independent basis, Debye-Ang):
   XX=           -149.4013   YY=           -222.4040   ZZ=           -253.9743
   XY=              4.1728   XZ=              2.8841   YZ=             -1.9020
 Traceless Quadrupole moment (field-independent basis, Debye-Ang):
   XX=             59.1919   YY=            -13.8108   ZZ=            -45.3811
   XY=              4.1728   XZ=              2.8841   YZ=             -1.9020
 Octapole moment (field-independent basis, Debye-Ang**2):
  XXX=            -64.5376  YYY=            101.7702  ZZZ=             26.3798  XYY=             38.8669
  XXY=             54.0728  XXZ=            -14.6392  XZZ=             81.9834  YZZ=             53.2453
  YYZ=             36.3206  XYZ=             64.8637
 Hexadecapole moment (field-independent basis, Debye-Ang**3):
 XXXX=         -15255.7779 YYYY=          -5140.5233 ZZZZ=          -4058.6543 XXXY=            518.1546
 XXXZ=              1.1910 YYYX=            -86.5576 YYYZ=              1.4938 ZZZX=            146.4860
 ZZZY=             68.0515 XXYY=          -3583.6212 XXZZ=          -3752.3621 YYZZ=          -1638.8999
 XXYZ=            156.0723 YYXZ=            107.8764 ZZXY=            140.6324
 N-N= 5.487685113751D+03 E-N=-1.575619804398D+04  KE= 2.037727608856D+03
 No NMR shielding tensors so no spin-rotation constants.
 Leave Link  601 at Mon Jan 22 05:17:44 2018, MaxMem=  4294967296 cpu:              46.1 elap:               1.6
 (Enter /share/apps/g16/l9999.exe)
 1\1\GINC-COMPUTE-0-3\SP\RwB97XD\CC-pVDZ\C23H27N17O3\SATYA\22-Jan-2018\
 0\\#p wb97xd/cc-pvdz sp scf=(maxcycles=20)\\Base pair stacking\\0,1\N,
 0,6.31141,2.72523,-5.18464\C,0,7.10598,3.95913,-5.34003\C,0,4.70819,1.
 22382,-5.29768\N,0,5.7315,0.64423,-4.56171\C,0,6.65642,1.57197,-4.5230
 7\H,0,7.61875,1.4675,-4.02113\N,0,2.66639,1.58351,-6.42223\C,0,3.1347,
 2.7988,-6.72447\H,0,2.46321,3.42286,-7.31261\N,0,4.30245,3.35631,-6.41
 075\C,0,5.05114,2.50646,-5.6885\C,0,3.44365,0.75213,-5.69439\N,0,2.977
 93,-0.46139,-5.39168\H,0,3.51901,-1.10977,-4.85496\H,0,2.07281,-0.7636
 5,-5.69091\H,0,7.96204,3.74869,-5.81233\H,0,6.58687,4.62571,-5.87419\H
 ,0,7.30983,4.34246,-4.4392\N,0,2.05879,4.6549,-3.20063\C,0,1.0666,3.71
 92,-3.36818\C,0,1.91617,6.10389,-3.44717\N,0,-2.19907,2.92126,-4.2402\
 H,0,-2.76815,2.10137,-4.29652\H,0,-2.62797,3.78939,-4.49141\N,0,-0.195
 15,3.9643,-3.78285\C,0,-0.91824,2.86031,-3.84566\N,0,-0.44386,1.61088,
 -3.52719\H,0,-1.0683,0.82283,-3.60465\C,0,0.85074,1.33529,-3.09834\O,0
 ,1.17792,0.17125,-2.83621\C,0,1.63947,2.51153,-3.02589\N,0,2.96463,2.6
 8555,-2.651\C,0,3.16847,3.9695,-2.76994\H,0,4.11299,4.47076,-2.55573\H
 ,0,2.56509,6.38929,-4.15163\H,0,0.98551,6.29747,-3.75482\H,0,2.0984,6.
 60685,-2.60298\H,0,-4.47348,-2.75491,-4.81184\H,0,-4.80136,-2.73276,-3
 .08075\H,0,-4.28543,-1.25755,-3.89865\H,0,-0.75321,-5.33079,-3.17749\C
 ,0,-1.0671,-4.28943,-3.25027\O,0,1.10181,-3.41579,-2.85065\C,0,-0.0963
 1,-3.25198,-3.07968\H,0,0.05743,-1.21122,-3.07667\N,0,-0.59847,-1.9711
 ,-3.19118\O,0,-2.2485,-0.44652,-3.52322\C,0,-1.8988,-1.6109,-3.44208\H
 ,0,-3.11963,-4.72074,-3.63352\C,0,-2.34298,-3.96957,-3.49603\C,0,-4.17
 592,-2.33131,-3.86416\N,0,-2.77515,-2.6673,-3.59455\H,0,-4.49472,-0.29
 672,-9.22679\H,0,-3.83142,0.77708,-8.19282\H,0,-5.15773,-0.06665,-7.75
 339\H,0,0.95405,-3.53017,-5.36398\H,0,-0.44639,-4.36678,-5.86293\N,0,0
 .04434,-3.4989,-5.77823\C,0,-0.49148,-2.35139,-6.1993\C,0,-2.18507,-0.
 99384,-7.17427\N,0,-1.50301,0.15647,-7.04777\H,0,0.30196,0.8209,-6.339
 79\C,0,-0.31861,-0.06306,-6.4804\N,0,0.21986,-1.21161,-6.05797\H,0,-4.
 64425,-2.9331,-7.97669\C,0,-3.70431,-2.51097,-7.61995\N,0,-2.73508,-3.
 20475,-7.07502\C,0,-1.76559,-2.25486,-6.78774\C,0,-4.29939,-0.10319,-8
 .26534\N,0,-3.43877,-1.1664,-7.71134\\Version=EM64L-G16RevA.03\State=1
 -A\HF=-2048.7462089\RMSD=7.165e-09\Dipole=-3.8758493,0.3161047,-1.0851
 705\Quadrupole=25.4046069,7.0912913,-32.4958982,25.2726288,6.0514246,7
 .4366712\PG=C01 [X(C23H27N17O3)]\\@


 In the race for quality, there is no finish line.
                               -- David T. Kearns
 Job cpu time:       0 days  5 hours 52 minutes 21.1 seconds.
 Elapsed time:       0 days  0 hours 11 minutes 24.0 seconds.
 File lengths (MBytes):  RWF=    298 Int=      0 D2E=      0 Chk=     33 Scr=      1
 Normal termination of Gaussian 16 at Mon Jan 22 05:17:44 2018.
