 Entering Gaussian System, Link 0=g16
 Input=str35.0.1.5.com
 Output=str35.0.1.5.log
 Initial command:
 /share/apps/g16/l1.exe "/state/partition1/scr/Gau-16833.inp" -scrdir="/state/partition1/scr/"
 Entering Link 1 = /share/apps/g16/l1.exe PID=     16834.
  
 Copyright (c) 1988,1990,1992,1993,1995,1998,2003,2009,2016,
            Gaussian, Inc.  All Rights Reserved.
  
 This is part of the Gaussian(R) 16 program.  It is based on
 the Gaussian(R) 09 system (copyright 2009, Gaussian, Inc.),
 the Gaussian(R) 03 system (copyright 2003, Gaussian, Inc.),
 the Gaussian(R) 98 system (copyright 1998, Gaussian, Inc.),
 the Gaussian(R) 94 system (copyright 1995, Gaussian, Inc.),
 the Gaussian 92(TM) system (copyright 1992, Gaussian, Inc.),
 the Gaussian 90(TM) system (copyright 1990, Gaussian, Inc.),
 the Gaussian 88(TM) system (copyright 1988, Gaussian, Inc.),
 the Gaussian 86(TM) system (copyright 1986, Carnegie Mellon
 University), and the Gaussian 82(TM) system (copyright 1983,
 Carnegie Mellon University). Gaussian is a federally registered
 trademark of Gaussian, Inc.
  
 This software contains proprietary and confidential information,
 including trade secrets, belonging to Gaussian, Inc.
  
 This software is provided under written license and may be
 used, copied, transmitted, or stored only in accord with that
 written license.
  
 The following legend is applicable only to US Government
 contracts under FAR:
  
                    RESTRICTED RIGHTS LEGEND
  
 Use, reproduction and disclosure by the US Government is
 subject to restrictions as set forth in subparagraphs (a)
 and (c) of the Commercial Computer Software - Restricted
 Rights clause in FAR 52.227-19.
  
 Gaussian, Inc.
 340 Quinnipiac St., Bldg. 40, Wallingford CT 06492
  
  
 ---------------------------------------------------------------
 Warning -- This program may not be used in any manner that
 competes with the business of Gaussian, Inc. or will provide
 assistance to any competitor of Gaussian, Inc.  The licensee
 of this program is prohibited from giving any competitor of
 Gaussian, Inc. access to this program.  By using this program,
 the user acknowledges that Gaussian, Inc. is engaged in the
 business of creating and licensing software in the field of
 computational chemistry and represents and warrants to the
 licensee that it is not a competitor of Gaussian, Inc. and that
 it will not use this program in any manner prohibited above.
 ---------------------------------------------------------------
  

 Cite this work as:
 Gaussian 16, Revision A.03,
 M. J. Frisch, G. W. Trucks, H. B. Schlegel, G. E. Scuseria, 
 M. A. Robb, J. R. Cheeseman, G. Scalmani, V. Barone, 
 G. A. Petersson, H. Nakatsuji, X. Li, M. Caricato, A. V. Marenich, 
 J. Bloino, B. G. Janesko, R. Gomperts, B. Mennucci, H. P. Hratchian, 
 J. V. Ortiz, A. F. Izmaylov, J. L. Sonnenberg, D. Williams-Young, 
 F. Ding, F. Lipparini, F. Egidi, J. Goings, B. Peng, A. Petrone, 
 T. Henderson, D. Ranasinghe, V. G. Zakrzewski, J. Gao, N. Rega, 
 G. Zheng, W. Liang, M. Hada, M. Ehara, K. Toyota, R. Fukuda, 
 J. Hasegawa, M. Ishida, T. Nakajima, Y. Honda, O. Kitao, H. Nakai, 
 T. Vreven, K. Throssell, J. A. Montgomery, Jr., J. E. Peralta, 
 F. Ogliaro, M. J. Bearpark, J. J. Heyd, E. N. Brothers, K. N. Kudin, 
 V. N. Staroverov, T. A. Keith, R. Kobayashi, J. Normand, 
 K. Raghavachari, A. P. Rendell, J. C. Burant, S. S. Iyengar, 
 J. Tomasi, M. Cossi, J. M. Millam, M. Klene, C. Adamo, R. Cammi, 
 J. W. Ochterski, R. L. Martin, K. Morokuma, O. Farkas, 
 J. B. Foresman, and D. J. Fox, Gaussian, Inc., Wallingford CT, 2016.
 
 ******************************************
 Gaussian 16:  EM64L-G16RevA.03 25-Dec-2016
                21-Jan-2018 
 ******************************************
 %nprocshared=32
 Will use up to   32 processors via shared memory.
 %mem=32GB
 %chk=allatoms_t.chk
 ---------------------------------------
 #p wb97xd/cc-pvdz sp scf=(maxcycles=20)
 ---------------------------------------
 1/38=1,172=1/1;
 2/12=2,17=6,18=5,40=1/2;
 3/5=16,11=2,25=1,30=1,74=-58/1,2,3;
 4//1;
 5/5=2,7=20,38=5/2;
 6/7=2,8=2,9=2,10=2,28=1/1;
 99/5=1,9=1/99;
 Leave Link    1 at Sun Jan 21 23:38:57 2018, MaxMem=  4294967296 cpu:               2.7 elap:               0.1
 (Enter /share/apps/g16/l101.exe)
 ------------------
 Base pair stacking
 ------------------
 Symbolic Z-matrix:
 Charge =  0 Multiplicity = 1
 N                     3.24937   0.88585  -6.47105 
 C                     3.95709   2.17683  -6.57363 
 C                     1.68506  -0.65742  -6.37851 
 N                     2.89573  -1.32438  -6.25948 
 C                     3.78972  -0.36792  -6.32 
 H                     4.86746  -0.52186  -6.25909 
 N                    -0.62066  -0.18252  -6.52372 
 C                    -0.27088   1.10261  -6.6407 
 H                    -1.09895   1.80208  -6.74702 
 N                     0.9425    1.65085  -6.64603 
 C                     1.88703   0.7055   -6.50964 
 C                     0.35289  -1.10927  -6.38803 
 N                     0.00574  -2.39262  -6.27112 
 H                     0.69306  -3.11255  -6.1686 
 H                    -0.95268  -2.67805  -6.28203 
 H                     4.56484   2.16316  -7.36775 
 H                     3.29152   2.91535  -6.67715 
 H                     4.49662   2.33025  -5.74576 
 N                     1.15148   3.23866  -3.26456 
 C                     0.14395   2.30435  -3.26328 
 C                     0.96064   4.6998   -3.36129 
 N                    -3.2385    1.52819  -3.39872 
 H                    -3.80815   0.70697  -3.38065 
 H                    -3.71101   2.40653  -3.47605 
 N                    -1.179     2.56205  -3.34948 
 C                    -1.901     1.45588  -3.32272 
 N                    -1.36999   0.19299  -3.21948 
 H                    -1.9983   -0.5957   -3.20649 
 C                    -0.01189  -0.09571  -3.12957 
 O                     0.36313  -1.27131  -3.03986 
 C                     0.77646   1.08269  -3.15705 
 N                     2.15337   1.24674  -3.09292 
 C                     2.32863   2.53864  -3.16 
 H                     3.29907   3.03564  -3.13738 
 H                     1.42619   5.04526  -4.17537 
 H                    -0.01554   4.90276  -3.42565 
 H                     1.33895   5.14156  -2.54856 
 H                    -5.60675  -4.121    -3.84208 
 H                    -5.51686  -4.2311   -2.08582 
 H                    -5.20244  -2.69265  -2.88935 
 H                    -1.61648  -6.75915  -3.32784 
 C                    -1.93441  -5.71967  -3.2464 
 O                     0.27111  -4.84822  -3.30466 
 C                    -0.94655  -4.68441  -3.23206 
 H                    -0.7881   -2.64752  -3.11248 
 N                    -1.4556   -3.4058   -3.12585 
 O                    -3.13114  -1.88366  -2.94466 
 C                    -2.77693  -3.04595  -3.03565 
 H                    -4.02117  -6.14964  -3.16654 
 C                    -3.23094  -5.40007  -3.16 
 C                    -5.09228  -3.76442  -2.96218 
 N                    -3.66882  -4.10014  -3.05609 
 H                    -8.35591  -1.83598  -6.86174 
 H                    -7.32328  -1.01561  -5.90113 
 H                    -8.40541  -2.04582  -5.24405 
 H                    -1.93442  -5.51478  -6.31721 
 H                    -3.44034  -6.30249  -6.46493 
 N                    -2.93213  -5.44975  -6.33931 
 C                    -3.55807  -4.27846  -6.20724 
 C                    -5.45954  -2.85357  -6.08142 
 N                    -4.7513   -1.7245   -5.91402 
 H                    -2.79635  -1.12454  -5.77681 
 C                    -3.44626  -1.9886   -5.90822 
 N                    -2.81738  -3.16105  -6.04035 
 H                    -8.08801  -4.70857  -6.40123 
 C                    -7.07255  -4.31975  -6.32 
 N                    -5.98716  -5.05178  -6.38132 
 C                    -4.95721  -4.13446  -6.23142 
 C                    -7.80613  -1.88162  -6.02768 
 N                    -6.82722  -2.98035  -6.1396 
 
 ITRead=  0  0  0  0  0  0  0  0  0  0  0  0  0  0  0  0  0  0  0  0
 ITRead=  0  0  0  0  0  0  0  0  0  0  0  0  0  0  0  0  0  0  0  0
 ITRead=  0  0  0  0  0  0  0  0  0  0  0  0  0  0  0  0  0  0  0  0
 ITRead=  0  0  0  0  0  0  0  0  0  0
 MicOpt= -1 -1 -1 -1 -1 -1 -1 -1 -1 -1 -1 -1 -1 -1 -1 -1 -1 -1 -1 -1
 MicOpt= -1 -1 -1 -1 -1 -1 -1 -1 -1 -1 -1 -1 -1 -1 -1 -1 -1 -1 -1 -1
 MicOpt= -1 -1 -1 -1 -1 -1 -1 -1 -1 -1 -1 -1 -1 -1 -1 -1 -1 -1 -1 -1
 MicOpt= -1 -1 -1 -1 -1 -1 -1 -1 -1 -1
 NAtoms=     70 NQM=       70 NQMF=       0 NMMI=      0 NMMIF=      0
                NMic=       0 NMicF=      0.
                    Isotopes and Nuclear Properties:
 (Nuclear quadrupole moments (NQMom) in fm**2, nuclear magnetic moments (NMagM)
  in nuclear magnetons)

  Atom         1           2           3           4           5           6           7           8           9          10
 IAtWgt=          14          12          12          14          12           1          14          12           1          14
 AtmWgt=  14.0030740  12.0000000  12.0000000  14.0030740  12.0000000   1.0078250  14.0030740  12.0000000   1.0078250  14.0030740
 NucSpn=           2           0           0           2           0           1           2           0           1           2
 AtZEff=  -0.0000000  -0.0000000  -0.0000000  -0.0000000  -0.0000000  -0.0000000  -0.0000000  -0.0000000  -0.0000000  -0.0000000
 NQMom=    2.0440000   0.0000000   0.0000000   2.0440000   0.0000000   0.0000000   2.0440000   0.0000000   0.0000000   2.0440000
 NMagM=    0.4037610   0.0000000   0.0000000   0.4037610   0.0000000   2.7928460   0.4037610   0.0000000   2.7928460   0.4037610
 AtZNuc=   7.0000000   6.0000000   6.0000000   7.0000000   6.0000000   1.0000000   7.0000000   6.0000000   1.0000000   7.0000000

  Atom        11          12          13          14          15          16          17          18          19          20
 IAtWgt=          12          12          14           1           1           1           1           1          14          12
 AtmWgt=  12.0000000  12.0000000  14.0030740   1.0078250   1.0078250   1.0078250   1.0078250   1.0078250  14.0030740  12.0000000
 NucSpn=           0           0           2           1           1           1           1           1           2           0
 AtZEff=  -0.0000000  -0.0000000  -0.0000000  -0.0000000  -0.0000000  -0.0000000  -0.0000000  -0.0000000  -0.0000000  -0.0000000
 NQMom=    0.0000000   0.0000000   2.0440000   0.0000000   0.0000000   0.0000000   0.0000000   0.0000000   2.0440000   0.0000000
 NMagM=    0.0000000   0.0000000   0.4037610   2.7928460   2.7928460   2.7928460   2.7928460   2.7928460   0.4037610   0.0000000
 AtZNuc=   6.0000000   6.0000000   7.0000000   1.0000000   1.0000000   1.0000000   1.0000000   1.0000000   7.0000000   6.0000000

  Atom        21          22          23          24          25          26          27          28          29          30
 IAtWgt=          12          14           1           1          14          12          14           1          12          16
 AtmWgt=  12.0000000  14.0030740   1.0078250   1.0078250  14.0030740  12.0000000  14.0030740   1.0078250  12.0000000  15.9949146
 NucSpn=           0           2           1           1           2           0           2           1           0           0
 AtZEff=  -0.0000000  -0.0000000  -0.0000000  -0.0000000  -0.0000000  -0.0000000  -0.0000000  -0.0000000  -0.0000000  -0.0000000
 NQMom=    0.0000000   2.0440000   0.0000000   0.0000000   2.0440000   0.0000000   2.0440000   0.0000000   0.0000000   0.0000000
 NMagM=    0.0000000   0.4037610   2.7928460   2.7928460   0.4037610   0.0000000   0.4037610   2.7928460   0.0000000   0.0000000
 AtZNuc=   6.0000000   7.0000000   1.0000000   1.0000000   7.0000000   6.0000000   7.0000000   1.0000000   6.0000000   8.0000000

  Atom        31          32          33          34          35          36          37          38          39          40
 IAtWgt=          12          14          12           1           1           1           1           1           1           1
 AtmWgt=  12.0000000  14.0030740  12.0000000   1.0078250   1.0078250   1.0078250   1.0078250   1.0078250   1.0078250   1.0078250
 NucSpn=           0           2           0           1           1           1           1           1           1           1
 AtZEff=  -0.0000000  -0.0000000  -0.0000000  -0.0000000  -0.0000000  -0.0000000  -0.0000000  -0.0000000  -0.0000000  -0.0000000
 NQMom=    0.0000000   2.0440000   0.0000000   0.0000000   0.0000000   0.0000000   0.0000000   0.0000000   0.0000000   0.0000000
 NMagM=    0.0000000   0.4037610   0.0000000   2.7928460   2.7928460   2.7928460   2.7928460   2.7928460   2.7928460   2.7928460
 AtZNuc=   6.0000000   7.0000000   6.0000000   1.0000000   1.0000000   1.0000000   1.0000000   1.0000000   1.0000000   1.0000000

  Atom        41          42          43          44          45          46          47          48          49          50
 IAtWgt=           1          12          16          12           1          14          16          12           1          12
 AtmWgt=   1.0078250  12.0000000  15.9949146  12.0000000   1.0078250  14.0030740  15.9949146  12.0000000   1.0078250  12.0000000
 NucSpn=           1           0           0           0           1           2           0           0           1           0
 AtZEff=  -0.0000000  -0.0000000  -0.0000000  -0.0000000  -0.0000000  -0.0000000  -0.0000000  -0.0000000  -0.0000000  -0.0000000
 NQMom=    0.0000000   0.0000000   0.0000000   0.0000000   0.0000000   2.0440000   0.0000000   0.0000000   0.0000000   0.0000000
 NMagM=    2.7928460   0.0000000   0.0000000   0.0000000   2.7928460   0.4037610   0.0000000   0.0000000   2.7928460   0.0000000
 AtZNuc=   1.0000000   6.0000000   8.0000000   6.0000000   1.0000000   7.0000000   8.0000000   6.0000000   1.0000000   6.0000000

  Atom        51          52          53          54          55          56          57          58          59          60
 IAtWgt=          12          14           1           1           1           1           1          14          12          12
 AtmWgt=  12.0000000  14.0030740   1.0078250   1.0078250   1.0078250   1.0078250   1.0078250  14.0030740  12.0000000  12.0000000
 NucSpn=           0           2           1           1           1           1           1           2           0           0
 AtZEff=  -0.0000000  -0.0000000  -0.0000000  -0.0000000  -0.0000000  -0.0000000  -0.0000000  -0.0000000  -0.0000000  -0.0000000
 NQMom=    0.0000000   2.0440000   0.0000000   0.0000000   0.0000000   0.0000000   0.0000000   2.0440000   0.0000000   0.0000000
 NMagM=    0.0000000   0.4037610   2.7928460   2.7928460   2.7928460   2.7928460   2.7928460   0.4037610   0.0000000   0.0000000
 AtZNuc=   6.0000000   7.0000000   1.0000000   1.0000000   1.0000000   1.0000000   1.0000000   7.0000000   6.0000000   6.0000000

  Atom        61          62          63          64          65          66          67          68          69          70
 IAtWgt=          14           1          12          14           1          12          14          12          12          14
 AtmWgt=  14.0030740   1.0078250  12.0000000  14.0030740   1.0078250  12.0000000  14.0030740  12.0000000  12.0000000  14.0030740
 NucSpn=           2           1           0           2           1           0           2           0           0           2
 AtZEff=  -0.0000000  -0.0000000  -0.0000000  -0.0000000  -0.0000000  -0.0000000  -0.0000000  -0.0000000  -0.0000000  -0.0000000
 NQMom=    2.0440000   0.0000000   0.0000000   2.0440000   0.0000000   0.0000000   2.0440000   0.0000000   0.0000000   2.0440000
 NMagM=    0.4037610   2.7928460   0.0000000   0.4037610   2.7928460   0.0000000   0.4037610   0.0000000   0.0000000   0.4037610
 AtZNuc=   7.0000000   1.0000000   6.0000000   7.0000000   1.0000000   6.0000000   7.0000000   6.0000000   6.0000000   7.0000000
 Leave Link  101 at Sun Jan 21 23:38:57 2018, MaxMem=  4294967296 cpu:               7.1 elap:               0.3
 (Enter /share/apps/g16/l202.exe)
 Stoichiometry    C23H27N17O3
 Framework group  C1[X(C23H27N17O3)]
 Deg. of freedom   204
 Full point group                 C1      NOp   1
 Largest Abelian subgroup         C1      NOp   1
 Largest concise Abelian subgroup C1      NOp   1
                         Standard orientation:                         
 ---------------------------------------------------------------------
 Center     Atomic      Atomic             Coordinates (Angstroms)
 Number     Number       Type             X           Y           Z
 ---------------------------------------------------------------------
      1          7           0        4.884242   -1.701520   -1.606993
      2          6           0        6.252675   -1.209537   -1.858715
      3          6           0        2.698596   -1.836452   -1.401914
      4          7           0        3.198148   -3.085179   -1.061542
      5          6           0        4.494932   -2.953912   -1.198721
      6          1           0        5.221271   -3.745815   -1.013648
      7          7           0        1.237880   -0.036430   -1.836878
      8          6           0        2.328593    0.677138   -2.134796
      9          1           0        2.142709    1.708103   -2.432823
     10          7           0        3.608423    0.310122   -2.119904
     11          6           0        3.725989   -0.973071   -1.740402
     12          6           0        1.389570   -1.324413   -1.458502
     13          7           0        0.302010   -2.038346   -1.160708
     14          1           0        0.367059   -2.995380   -0.875974
     15          1           0       -0.614368   -1.641138   -1.212051
     16          1           0        6.677757   -1.756858   -2.579770
     17          1           0        6.216177   -0.252714   -2.145538
     18          1           0        6.795235   -1.284489   -1.022050
     19          7           0        4.920184    1.995419    0.952263
     20          6           0        3.548686    1.942101    1.017103
     21          6           0        5.712138    3.189465    0.594816
     22          7           0        0.459858    3.498249    0.702012
     23          1           0       -0.503674    3.252749    0.804800
     24          1           0        0.661910    4.440988    0.435283
     25          7           0        2.700939    2.963326    0.767182
     26          6           0        1.437777    2.604152    0.912193
     27          7           0        1.033631    1.341957    1.274205
     28          1           0        0.046059    1.157250    1.361139
     29          6           0        1.888395    0.275843    1.536208
     30          8           0        1.420827   -0.824109    1.855910
     31          6           0        3.248747    0.646394    1.384509
     32          7           0        4.408601   -0.098736    1.547064
     33          6           0        5.372280    0.740722    1.280879
     34          1           0        6.434601    0.495901    1.309366
     35          1           0        6.259231    2.997215   -0.219146
     36          1           0        5.094825    3.952423    0.407517
     37          1           0        6.316756    3.429815    1.353413
     38          1           0       -5.005764    0.712636    0.995033
     39          1           0       -4.940985    0.902345    2.745594
     40          1           0       -3.740280    1.698801    1.728090
     41          1           0       -3.638054   -3.708455    2.310273
     42          6           0       -3.208047   -2.714453    2.186643
     43          8           0       -0.964179   -3.483996    2.186998
     44          6           0       -1.785935   -2.570315    2.118399
     45          1           0       -0.347970   -1.129224    1.909013
     46          7           0       -1.346890   -1.271148    1.961360
     47          8           0       -1.639062    0.968944    1.729420
     48          6           0       -2.120850   -0.141662    1.867609
     49          1           0       -5.075932   -1.687300    2.144459
     50          6           0       -3.989142   -1.631556    2.098197
     51          6           0       -4.349461    0.815042    1.846404
     52          7           0       -3.482088   -0.362375    1.941897
     53          1           0       -5.748674    3.607665   -2.605583
     54          1           0       -4.394690    3.740275   -1.704893
     55          1           0       -5.859918    3.786011   -0.987183
     56          1           0       -3.193292   -3.137315   -0.861771
     57          1           0       -4.856703   -2.790809   -1.013754
     58          7           0       -3.914305   -2.455601   -0.986461
     59          6           0       -3.632703   -1.156997   -1.110921
     60          6           0       -4.162216    1.144471   -1.401765
     61          7           0       -2.887397    1.565927   -1.361312
     62          1           0       -1.002377    0.790516   -1.146726
     63          6           0       -2.060523    0.536293   -1.190886
     64          7           0       -2.340629   -0.765067   -1.066019
     65          1           0       -7.377279    1.379402   -1.647405
     66          6           0       -6.348034    1.036090   -1.539104
     67          7           0       -5.992983   -0.214978   -1.376409
     68          6           0       -4.609534   -0.160314   -1.287945
     69          6           0       -5.326303    3.378791   -1.728534
     70          7           0       -5.290781    1.912632   -1.563874
 ---------------------------------------------------------------------
 Rotational constants (GHZ):           0.1446445           0.0544521           0.0508709
 Leave Link  202 at Sun Jan 21 23:38:57 2018, MaxMem=  4294967296 cpu:               0.3 elap:               0.0
 (Enter /share/apps/g16/l301.exe)
 Standard basis: CC-pVDZ (5D, 7F)
 Ernie: Thresh=  0.10000D-02 Tol=  0.10000D-05 Strict=F.
 Ernie:  86 primitive shells out of 1081 were deleted.
 There are   780 symmetry adapted cartesian basis functions of A   symmetry.
 There are   737 symmetry adapted basis functions of A   symmetry.
   737 basis functions,  1608 primitive gaussians,   780 cartesian basis functions
   154 alpha electrons      154 beta electrons
       nuclear repulsion energy      5517.0655567134 Hartrees.
 IExCor= 4639 DFT=T Ex+Corr=wB97XD ExCW=0 ScaHFX=  1.000000
 ScaDFX=  1.000000  1.000000  1.000000  1.000000 ScalE2=  1.000000  1.000000
 IRadAn=      5 IRanWt=     -1 IRanGd=            0 ICorTp=0 IEmpDi=121
 HFx  wShort=  0.000000 wLong=  0.200000 cFull=  0.222036 cShort=  0.000000 cLong=  0.777964
 DFx  wShort=  0.000000 wLong=  0.200000 cFull=  0.000000 cShort=  0.000000 cLong=  1.000000
 NAtoms=   70 NActive=   70 NUniq=   70 SFac= 1.00D+00 NAtFMM=   60 NAOKFM=T Big=T
 Integral buffers will be    131072 words long.
 Raffenetti 2 integral format.
 Two-electron integral symmetry is turned on.
 R6Disp:  Grimme-D2 Dispersion energy=       -0.0721964228 Hartrees.
 Nuclear repulsion after empirical dispersion term =     5516.9933602906 Hartrees.
 Leave Link  301 at Sun Jan 21 23:38:57 2018, MaxMem=  4294967296 cpu:               2.1 elap:               0.1
 (Enter /share/apps/g16/l302.exe)
 NPDir=0 NMtPBC=     1 NCelOv=     1 NCel=       1 NClECP=     1 NCelD=      1
         NCelK=      1 NCelE2=     1 NClLst=     1 CellRange=     0.0.
 One-electron integrals computed using PRISM.
 One-electron integral symmetry used in STVInt
 NBasis=   737 RedAO= T EigKep=  6.99D-04  NBF=   737
 NBsUse=   737 1.00D-06 EigRej= -1.00D+00 NBFU=   737
 Precomputing XC quadrature grid using
 IXCGrd= 4 IRadAn=           5 IRanWt=          -1 IRanGd=           0 AccXCQ= 0.00D+00.
 Generated NRdTot=       0 NPtTot=           0 NUsed=           0 NTot=          32
 NSgBfM=   766   765   765   766   766 MxSgAt=    70 MxSgA2=    70.
 Leave Link  302 at Sun Jan 21 23:39:01 2018, MaxMem=  4294967296 cpu:             135.5 elap:               4.3
 (Enter /share/apps/g16/l303.exe)
 DipDrv:  MaxL=1.
 Leave Link  303 at Sun Jan 21 23:39:02 2018, MaxMem=  4294967296 cpu:              12.8 elap:               0.5
 (Enter /share/apps/g16/l401.exe)
 ExpMin= 1.22D-01 ExpMax= 1.17D+04 ExpMxC= 4.01D+02 IAcc=3 IRadAn=         5 AccDes= 0.00D+00
 Harris functional with IExCor= 4639 and IRadAn=       5 diagonalized for initial guess.
 HarFok:  IExCor= 4639 AccDes= 0.00D+00 IRadAn=         5 IDoV= 1 UseB2=F ITyADJ=14
 ICtDFT=  3500011 ScaDFX=  1.000000  1.000000  1.000000  1.000000
 FoFCou: FMM=F IPFlag=           0 FMFlag=      100000 FMFlg1=        2001
         NFxFlg=           0 DoJE=T BraDBF=F KetDBF=T FulRan=T
         wScrn=  0.000000 ICntrl=       500 IOpCl=  0 I1Cent=   200000004 NGrid=           0
         NMat0=    1 NMatS0=      1 NMatT0=    0 NMatD0=    1 NMtDS0=    0 NMtDT0=    0
 Petite list used in FoFCou.
 Harris En= -1963.88937915032    
 JPrj=0 DoOrth=F DoCkMO=F.
 Leave Link  401 at Sun Jan 21 23:39:14 2018, MaxMem=  4294967296 cpu:             401.8 elap:              12.6
 (Enter /share/apps/g16/l502.exe)
 Integral symmetry usage will be decided dynamically.
 Closed shell SCF:
 Using DIIS extrapolation, IDIIS=  1040.
 NGot=  4294967296 LenX=  4293717438 LenY=  4293108258
 Requested convergence on RMS density matrix=1.00D-08 within  20 cycles.
 Requested convergence on MAX density matrix=1.00D-06.
 Requested convergence on             energy=1.00D-06.
 No special actions if energy rises.
 Fock matrices will be formed incrementally for  20 cycles.
 Integral accuracy reduced to 1.0D-05 until final iterations.

 Cycle   1  Pass 0  IDiag  1:
 FoFJK:  IHMeth= 1 ICntrl=       0 DoSepK=T KAlg= 0 I1Cent=           0 FoldK=F
 IRaf=         1 NMat=       1 IRICut=       1 DoRegI=T DoRafI=F ISym2E= 0 IDoP0=0 IntGTp=1.
 FoFCou: FMM=T IPFlag=           0 FMFlag=      100000 FMFlg1=        2001
         NFxFlg=           0 DoJE=T BraDBF=F KetDBF=F FulRan=T
         wScrn=  0.000000 ICntrl=       500 IOpCl=  0 I1Cent=           0 NGrid=           0
         NMat0=    1 NMatS0=      1 NMatT0=    0 NMatD0=    1 NMtDS0=    0 NMtDT0=    0
 Symmetry not used in FoFCou.
 FMM levels:  10  Number of levels for PrismC:   9
 E= -2048.32129912341    
 DIIS: error= 2.13D-02 at cycle   1 NSaved=   1.
 NSaved= 1 IEnMin= 1 EnMin= -2048.32129912341     IErMin= 1 ErrMin= 2.13D-02
 ErrMax= 2.13D-02  0.00D+00 EMaxC= 1.00D-01 BMatC= 8.30D-01 BMatP= 8.30D-01
 IDIUse=3 WtCom= 7.87D-01 WtEn= 2.13D-01
 Coeff-Com:  0.100D+01
 Coeff-En:   0.100D+01
 Coeff:      0.100D+01
 Gap=     0.262 Goal=   None    Shift=    0.000
 GapD=    0.262 DampG=1.000 DampE=0.500 DampFc=0.5000 IDamp=-1.
 Damping current iteration by 5.00D-01
 RMSDP=1.55D-03 MaxDP=1.32D-01              OVMax= 2.05D-01

 Cycle   2  Pass 0  IDiag  1:
 RMSU=  7.74D-04    CP:  9.98D-01
 E= -2048.51835003026     Delta-E=       -0.197050906848 Rises=F Damp=T
 DIIS: error= 1.17D-02 at cycle   2 NSaved=   2.
 NSaved= 2 IEnMin= 2 EnMin= -2048.51835003026     IErMin= 2 ErrMin= 1.17D-02
 ErrMax= 1.17D-02  0.00D+00 EMaxC= 1.00D-01 BMatC= 1.44D-01 BMatP= 8.30D-01
 IDIUse=3 WtCom= 8.83D-01 WtEn= 1.17D-01
 Coeff-Com: -0.204D+00 0.120D+01
 Coeff-En:   0.000D+00 0.100D+01
 Coeff:     -0.180D+00 0.118D+01
 Gap=     0.318 Goal=   None    Shift=    0.000
 RMSDP=5.81D-04 MaxDP=3.62D-02 DE=-1.97D-01 OVMax= 1.26D-01

 Cycle   3  Pass 0  IDiag  1:
 RMSU=  5.67D-04    CP:  9.94D-01  1.15D+00
 E= -2048.69697061892     Delta-E=       -0.178620588661 Rises=F Damp=F
 DIIS: error= 9.13D-03 at cycle   3 NSaved=   3.
 NSaved= 3 IEnMin= 3 EnMin= -2048.69697061892     IErMin= 3 ErrMin= 9.13D-03
 ErrMax= 9.13D-03  0.00D+00 EMaxC= 1.00D-01 BMatC= 6.18D-02 BMatP= 1.44D-01
 IDIUse=3 WtCom= 9.09D-01 WtEn= 9.13D-02
 Coeff-Com: -0.233D+00 0.550D+00 0.683D+00
 Coeff-En:   0.000D+00 0.000D+00 0.100D+01
 Coeff:     -0.212D+00 0.500D+00 0.712D+00
 Gap=     0.284 Goal=   None    Shift=    0.000
 RMSDP=3.53D-04 MaxDP=3.60D-02 DE=-1.79D-01 OVMax= 6.90D-02

 Cycle   4  Pass 0  IDiag  1:
 RMSU=  2.00D-04    CP:  9.95D-01  1.44D+00  6.68D-01
 E= -2048.74273016583     Delta-E=       -0.045759546912 Rises=F Damp=F
 DIIS: error= 3.69D-03 at cycle   4 NSaved=   4.
 NSaved= 4 IEnMin= 4 EnMin= -2048.74273016583     IErMin= 4 ErrMin= 3.69D-03
 ErrMax= 3.69D-03  0.00D+00 EMaxC= 1.00D-01 BMatC= 9.58D-03 BMatP= 6.18D-02
 IDIUse=3 WtCom= 9.63D-01 WtEn= 3.69D-02
 Coeff-Com: -0.943D-01 0.182D+00 0.384D+00 0.528D+00
 Coeff-En:   0.000D+00 0.000D+00 0.771D-01 0.923D+00
 Coeff:     -0.909D-01 0.176D+00 0.372D+00 0.543D+00
 Gap=     0.289 Goal=   None    Shift=    0.000
 RMSDP=1.28D-04 MaxDP=1.29D-02 DE=-4.58D-02 OVMax= 1.40D-02

 Cycle   5  Pass 0  IDiag  1:
 RMSU=  6.19D-05    CP:  9.94D-01  1.41D+00  8.06D-01  6.17D-01
 E= -2048.75043866025     Delta-E=       -0.007708494419 Rises=F Damp=F
 DIIS: error= 7.32D-04 at cycle   5 NSaved=   5.
 NSaved= 5 IEnMin= 5 EnMin= -2048.75043866025     IErMin= 5 ErrMin= 7.32D-04
 ErrMax= 7.32D-04  0.00D+00 EMaxC= 1.00D-01 BMatC= 3.08D-04 BMatP= 9.58D-03
 IDIUse=3 WtCom= 9.93D-01 WtEn= 7.32D-03
 Coeff-Com: -0.242D-01 0.413D-01 0.124D+00 0.244D+00 0.614D+00
 Coeff-En:   0.000D+00 0.000D+00 0.000D+00 0.000D+00 0.100D+01
 Coeff:     -0.240D-01 0.410D-01 0.124D+00 0.242D+00 0.617D+00
 Gap=     0.288 Goal=   None    Shift=    0.000
 RMSDP=2.59D-05 MaxDP=2.36D-03 DE=-7.71D-03 OVMax= 3.25D-03

 Failed to achieve initial convergence to 1.0D-08 in  6 cycles.
 Switch to full accuracy anyway.
 Cycle   6  Pass 1  IDiag  1:
 E= -2048.75086412285     Delta-E=       -0.000425462602 Rises=F Damp=F
 DIIS: error= 2.27D-04 at cycle   1 NSaved=   1.
 NSaved= 1 IEnMin= 1 EnMin= -2048.75086412285     IErMin= 1 ErrMin= 2.27D-04
 ErrMax= 2.27D-04  0.00D+00 EMaxC= 1.00D-01 BMatC= 7.62D-05 BMatP= 7.62D-05
 IDIUse=3 WtCom= 9.98D-01 WtEn= 2.27D-03
 Coeff-Com:  0.100D+01
 Coeff-En:   0.100D+01
 Coeff:      0.100D+01
 Gap=     0.288 Goal=   None    Shift=    0.000
 RMSDP=2.59D-05 MaxDP=2.36D-03 DE=-4.25D-04 OVMax= 1.94D-03

 Cycle   7  Pass 1  IDiag  1:
 RMSU=  1.14D-04    CP:  1.00D+00
 E= -2048.75091809305     Delta-E=       -0.000053970198 Rises=F Damp=F
 DIIS: error= 3.06D-04 at cycle   2 NSaved=   2.
 NSaved= 2 IEnMin= 2 EnMin= -2048.75091809305     IErMin= 1 ErrMin= 2.27D-04
 ErrMax= 3.06D-04  0.00D+00 EMaxC= 1.00D-01 BMatC= 4.75D-05 BMatP= 7.62D-05
 IDIUse=3 WtCom= 9.97D-01 WtEn= 3.06D-03
 Coeff-Com:  0.421D+00 0.579D+00
 Coeff-En:   0.000D+00 0.100D+01
 Coeff:      0.420D+00 0.580D+00
 Gap=     0.288 Goal=   None    Shift=    0.000
 RMSDP=1.13D-05 MaxDP=1.35D-03 DE=-5.40D-05 OVMax= 1.46D-03

 Cycle   8  Pass 1  IDiag  1:
 RMSU=  1.10D-05    CP:  1.00D+00  1.02D+00
 E= -2048.75095167562     Delta-E=       -0.000033582571 Rises=F Damp=F
 DIIS: error= 1.19D-04 at cycle   3 NSaved=   3.
 NSaved= 3 IEnMin= 3 EnMin= -2048.75095167562     IErMin= 3 ErrMin= 1.19D-04
 ErrMax= 1.19D-04  0.00D+00 EMaxC= 1.00D-01 BMatC= 1.04D-05 BMatP= 4.75D-05
 IDIUse=3 WtCom= 9.99D-01 WtEn= 1.19D-03
 Coeff-Com: -0.189D-01 0.305D+00 0.714D+00
 Coeff-En:   0.000D+00 0.123D+00 0.877D+00
 Coeff:     -0.189D-01 0.305D+00 0.714D+00
 Gap=     0.288 Goal=   None    Shift=    0.000
 RMSDP=5.62D-06 MaxDP=5.33D-04 DE=-3.36D-05 OVMax= 4.95D-04

 Cycle   9  Pass 1  IDiag  1:
 RMSU=  3.81D-06    CP:  1.00D+00  1.05D+00  7.70D-01
 E= -2048.75096101798     Delta-E=       -0.000009342360 Rises=F Damp=F
 DIIS: error= 3.68D-05 at cycle   4 NSaved=   4.
 NSaved= 4 IEnMin= 4 EnMin= -2048.75096101798     IErMin= 4 ErrMin= 3.68D-05
 ErrMax= 3.68D-05  0.00D+00 EMaxC= 1.00D-01 BMatC= 4.96D-07 BMatP= 1.04D-05
 IDIUse=1 WtCom= 1.00D+00 WtEn= 0.00D+00
 Coeff-Com: -0.310D-01 0.843D-01 0.262D+00 0.685D+00
 Coeff:     -0.310D-01 0.843D-01 0.262D+00 0.685D+00
 Gap=     0.288 Goal=   None    Shift=    0.000
 RMSDP=1.42D-06 MaxDP=1.40D-04 DE=-9.34D-06 OVMax= 4.45D-04

 Cycle  10  Pass 1  IDiag  1:
 RMSU=  1.27D-06    CP:  1.00D+00  1.06D+00  8.00D-01  1.11D+00
 E= -2048.75096183836     Delta-E=       -0.000000820383 Rises=F Damp=F
 DIIS: error= 1.25D-05 at cycle   5 NSaved=   5.
 NSaved= 5 IEnMin= 5 EnMin= -2048.75096183836     IErMin= 5 ErrMin= 1.25D-05
 ErrMax= 1.25D-05  0.00D+00 EMaxC= 1.00D-01 BMatC= 1.14D-07 BMatP= 4.96D-07
 IDIUse=1 WtCom= 1.00D+00 WtEn= 0.00D+00
 Coeff-Com: -0.299D-02-0.523D-01-0.120D+00 0.195D+00 0.980D+00
 Coeff:     -0.299D-02-0.523D-01-0.120D+00 0.195D+00 0.980D+00
 Gap=     0.288 Goal=   None    Shift=    0.000
 RMSDP=1.19D-06 MaxDP=7.69D-05 DE=-8.20D-07 OVMax= 2.10D-04

 Cycle  11  Pass 1  IDiag  1:
 RMSU=  5.05D-07    CP:  1.00D+00  1.06D+00  8.09D-01  1.38D+00  1.17D+00
 E= -2048.75096208725     Delta-E=       -0.000000248890 Rises=F Damp=F
 DIIS: error= 8.45D-06 at cycle   6 NSaved=   6.
 NSaved= 6 IEnMin= 6 EnMin= -2048.75096208725     IErMin= 6 ErrMin= 8.45D-06
 ErrMax= 8.45D-06  0.00D+00 EMaxC= 1.00D-01 BMatC= 2.92D-08 BMatP= 1.14D-07
 IDIUse=1 WtCom= 1.00D+00 WtEn= 0.00D+00
 Coeff-Com:  0.472D-02-0.434D-01-0.115D+00-0.838D-02 0.530D+00 0.633D+00
 Coeff:      0.472D-02-0.434D-01-0.115D+00-0.838D-02 0.530D+00 0.633D+00
 Gap=     0.288 Goal=   None    Shift=    0.000
 RMSDP=3.75D-07 MaxDP=3.73D-05 DE=-2.49D-07 OVMax= 1.14D-04

 Cycle  12  Pass 1  IDiag  1:
 RMSU=  1.89D-07    CP:  1.00D+00  1.06D+00  8.10D-01  1.45D+00  1.31D+00
                    CP:  9.09D-01
 E= -2048.75096212939     Delta-E=       -0.000000042142 Rises=F Damp=F
 DIIS: error= 9.84D-07 at cycle   7 NSaved=   7.
 NSaved= 7 IEnMin= 7 EnMin= -2048.75096212939     IErMin= 7 ErrMin= 9.84D-07
 ErrMax= 9.84D-07  0.00D+00 EMaxC= 1.00D-01 BMatC= 8.90D-10 BMatP= 2.92D-08
 IDIUse=1 WtCom= 1.00D+00 WtEn= 0.00D+00
 Coeff-Com:  0.121D-02-0.766D-02-0.221D-01-0.846D-02 0.668D-01 0.151D+00
 Coeff-Com:  0.819D+00
 Coeff:      0.121D-02-0.766D-02-0.221D-01-0.846D-02 0.668D-01 0.151D+00
 Coeff:      0.819D+00
 Gap=     0.288 Goal=   None    Shift=    0.000
 RMSDP=8.40D-08 MaxDP=5.40D-06 DE=-4.21D-08 OVMax= 2.00D-05

 Cycle  13  Pass 1  IDiag  1:
 RMSU=  5.23D-08    CP:  1.00D+00  1.06D+00  8.10D-01  1.46D+00  1.33D+00
                    CP:  9.98D-01  1.12D+00
 E= -2048.75096213130     Delta-E=       -0.000000001911 Rises=F Damp=F
 DIIS: error= 7.32D-07 at cycle   8 NSaved=   8.
 NSaved= 8 IEnMin= 8 EnMin= -2048.75096213130     IErMin= 8 ErrMin= 7.32D-07
 ErrMax= 7.32D-07  0.00D+00 EMaxC= 1.00D-01 BMatC= 3.55D-10 BMatP= 8.90D-10
 IDIUse=1 WtCom= 1.00D+00 WtEn= 0.00D+00
 Coeff-Com: -0.704D-03 0.826D-02 0.207D-01-0.641D-03-0.116D+00-0.953D-01
 Coeff-Com:  0.418D+00 0.765D+00
 Coeff:     -0.704D-03 0.826D-02 0.207D-01-0.641D-03-0.116D+00-0.953D-01
 Coeff:      0.418D+00 0.765D+00
 Gap=     0.288 Goal=   None    Shift=    0.000
 RMSDP=5.11D-08 MaxDP=3.02D-06 DE=-1.91D-09 OVMax= 1.14D-05

 Cycle  14  Pass 1  IDiag  1:
 RMSU=  2.91D-08    CP:  1.00D+00  1.06D+00  8.09D-01  1.46D+00  1.33D+00
                    CP:  1.04D+00  1.28D+00  1.07D+00
 E= -2048.75096213155     Delta-E=       -0.000000000248 Rises=F Damp=F
 DIIS: error= 1.78D-07 at cycle   9 NSaved=   9.
 NSaved= 9 IEnMin= 9 EnMin= -2048.75096213155     IErMin= 9 ErrMin= 1.78D-07
 ErrMax= 1.78D-07  0.00D+00 EMaxC= 1.00D-01 BMatC= 3.99D-11 BMatP= 3.55D-10
 IDIUse=1 WtCom= 1.00D+00 WtEn= 0.00D+00
 Coeff-Com: -0.466D-03 0.474D-02 0.122D-01 0.122D-02-0.600D-01-0.610D-01
 Coeff-Com:  0.910D-01 0.334D+00 0.679D+00
 Coeff:     -0.466D-03 0.474D-02 0.122D-01 0.122D-02-0.600D-01-0.610D-01
 Coeff:      0.910D-01 0.334D+00 0.679D+00
 Gap=     0.288 Goal=   None    Shift=    0.000
 RMSDP=1.44D-08 MaxDP=8.65D-07 DE=-2.48D-10 OVMax= 3.14D-06

 Cycle  15  Pass 1  IDiag  1:
 RMSU=  9.71D-09    CP:  1.00D+00  1.06D+00  8.09D-01  1.46D+00  1.34D+00
                    CP:  1.05D+00  1.31D+00  1.22D+00  1.09D+00
 E= -2048.75096213189     Delta-E=       -0.000000000334 Rises=F Damp=F
 DIIS: error= 7.91D-08 at cycle  10 NSaved=  10.
 NSaved=10 IEnMin=10 EnMin= -2048.75096213189     IErMin=10 ErrMin= 7.91D-08
 ErrMax= 7.91D-08  0.00D+00 EMaxC= 1.00D-01 BMatC= 5.29D-12 BMatP= 3.99D-11
 IDIUse=1 WtCom= 1.00D+00 WtEn= 0.00D+00
 Coeff-Com: -0.206D-05-0.232D-03-0.441D-03 0.141D-03 0.461D-02 0.305D-03
 Coeff-Com: -0.538D-01-0.528D-01 0.234D+00 0.869D+00
 Coeff:     -0.206D-05-0.232D-03-0.441D-03 0.141D-03 0.461D-02 0.305D-03
 Coeff:     -0.538D-01-0.528D-01 0.234D+00 0.869D+00
 Gap=     0.288 Goal=   None    Shift=    0.000
 RMSDP=7.30D-09 MaxDP=4.27D-07 DE=-3.34D-10 OVMax= 1.49D-06

 SCF Done:  E(RwB97XD) =  -2048.75096213     A.U. after   15 cycles
            NFock= 15  Conv=0.73D-08     -V/T= 2.0054
 KE= 2.037705367845D+03 PE=-1.581456869429D+04 EE= 6.211119004023D+03
 Leave Link  502 at Sun Jan 21 23:50:35 2018, MaxMem=  4294967296 cpu:           21073.9 elap:             680.6
 (Enter /share/apps/g16/l601.exe)
 Copying SCF densities to generalized density rwf, IOpCl= 0 IROHF=0.

 **********************************************************************

            Population analysis using the SCF density.

 **********************************************************************

 Orbital symmetries:
       Occupied  (A) (A) (A) (A) (A) (A) (A) (A) (A) (A) (A) (A)
                 (A) (A) (A) (A) (A) (A) (A) (A) (A) (A) (A) (A)
                 (A) (A) (A) (A) (A) (A) (A) (A) (A) (A) (A) (A)
                 (A) (A) (A) (A) (A) (A) (A) (A) (A) (A) (A) (A)
                 (A) (A) (A) (A) (A) (A) (A) (A) (A) (A) (A) (A)
                 (A) (A) (A) (A) (A) (A) (A) (A) (A) (A) (A) (A)
                 (A) (A) (A) (A) (A) (A) (A) (A) (A) (A) (A) (A)
                 (A) (A) (A) (A) (A) (A) (A) (A) (A) (A) (A) (A)
                 (A) (A) (A) (A) (A) (A) (A) (A) (A) (A) (A) (A)
                 (A) (A) (A) (A) (A) (A) (A) (A) (A) (A) (A) (A)
                 (A) (A) (A) (A) (A) (A) (A) (A) (A) (A) (A) (A)
                 (A) (A) (A) (A) (A) (A) (A) (A) (A) (A) (A) (A)
                 (A) (A) (A) (A) (A) (A) (A) (A) (A) (A)
       Virtual   (A) (A) (A) (A) (A) (A) (A) (A) (A) (A) (A) (A)
                 (A) (A) (A) (A) (A) (A) (A) (A) (A) (A) (A) (A)
                 (A) (A) (A) (A) (A) (A) (A) (A) (A) (A) (A) (A)
                 (A) (A) (A) (A) (A) (A) (A) (A) (A) (A) (A) (A)
                 (A) (A) (A) (A) (A) (A) (A) (A) (A) (A) (A) (A)
                 (A) (A) (A) (A) (A) (A) (A) (A) (A) (A) (A) (A)
                 (A) (A) (A) (A) (A) (A) (A) (A) (A) (A) (A) (A)
                 (A) (A) (A) (A) (A) (A) (A) (A) (A) (A) (A) (A)
                 (A) (A) (A) (A) (A) (A) (A) (A) (A) (A) (A) (A)
                 (A) (A) (A) (A) (A) (A) (A) (A) (A) (A) (A) (A)
                 (A) (A) (A) (A) (A) (A) (A) (A) (A) (A) (A) (A)
                 (A) (A) (A) (A) (A) (A) (A) (A) (A) (A) (A) (A)
                 (A) (A) (A) (A) (A) (A) (A) (A) (A) (A) (A) (A)
                 (A) (A) (A) (A) (A) (A) (A) (A) (A) (A) (A) (A)
                 (A) (A) (A) (A) (A) (A) (A) (A) (A) (A) (A) (A)
                 (A) (A) (A) (A) (A) (A) (A) (A) (A) (A) (A) (A)
                 (A) (A) (A) (A) (A) (A) (A) (A) (A) (A) (A) (A)
                 (A) (A) (A) (A) (A) (A) (A) (A) (A) (A) (A) (A)
                 (A) (A) (A) (A) (A) (A) (A) (A) (A) (A) (A) (A)
                 (A) (A) (A) (A) (A) (A) (A) (A) (A) (A) (A) (A)
                 (A) (A) (A) (A) (A) (A) (A) (A) (A) (A) (A) (A)
                 (A) (A) (A) (A) (A) (A) (A) (A) (A) (A) (A) (A)
                 (A) (A) (A) (A) (A) (A) (A) (A) (A) (A) (A) (A)
                 (A) (A) (A) (A) (A) (A) (A) (A) (A) (A) (A) (A)
                 (A) (A) (A) (A) (A) (A) (A) (A) (A) (A) (A) (A)
                 (A) (A) (A) (A) (A) (A) (A) (A) (A) (A) (A) (A)
                 (A) (A) (A) (A) (A) (A) (A) (A) (A) (A) (A) (A)
                 (A) (A) (A) (A) (A) (A) (A) (A) (A) (A) (A) (A)
                 (A) (A) (A) (A) (A) (A) (A) (A) (A) (A) (A) (A)
                 (A) (A) (A) (A) (A) (A) (A) (A) (A) (A) (A) (A)
                 (A) (A) (A) (A) (A) (A) (A) (A) (A) (A) (A) (A)
                 (A) (A) (A) (A) (A) (A) (A) (A) (A) (A) (A) (A)
                 (A) (A) (A) (A) (A) (A) (A) (A) (A) (A) (A) (A)
                 (A) (A) (A) (A) (A) (A) (A) (A) (A) (A) (A) (A)
                 (A) (A) (A) (A) (A) (A) (A) (A) (A) (A) (A) (A)
                 (A) (A) (A) (A) (A) (A) (A) (A) (A) (A) (A) (A)
                 (A) (A) (A) (A) (A) (A) (A) (A) (A) (A) (A) (A)
                 (A) (A) (A) (A) (A) (A) (A) (A) (A) (A) (A) (A)
                 (A) (A) (A) (A) (A) (A) (A) (A) (A) (A) (A) (A)
                 (A) (A) (A) (A) (A) (A) (A) (A) (A) (A) (A) (A)
                 (A) (A) (A) (A) (A) (A) (A) (A) (A) (A) (A) (A)
                 (A) (A) (A) (A) (A) (A) (A) (A) (A) (A) (A) (A)
                 (A) (A) (A) (A) (A) (A) (A) (A) (A) (A) (A) (A)
                 (A) (A) (A) (A) (A) (A) (A) (A) (A) (A) (A) (A)
                 (A) (A) (A) (A) (A) (A) (A) (A) (A) (A) (A) (A)
                 (A) (A) (A) (A) (A) (A) (A) (A) (A) (A) (A) (A)
                 (A) (A) (A) (A) (A) (A) (A) (A) (A) (A) (A) (A)
                 (A) (A) (A) (A) (A) (A) (A) (A) (A) (A) (A) (A)
                 (A) (A) (A) (A) (A) (A) (A)
 The electronic state is 1-A.
 Alpha  occ. eigenvalues --  -19.25467 -19.21710 -19.20543 -14.52684 -14.52072
 Alpha  occ. eigenvalues --  -14.48911 -14.48446 -14.48295 -14.47404 -14.46770
 Alpha  occ. eigenvalues --  -14.46614 -14.45651 -14.44611 -14.44530 -14.42506
 Alpha  occ. eigenvalues --  -14.42011 -14.41179 -14.40902 -14.40884 -14.40410
 Alpha  occ. eigenvalues --  -10.45074 -10.41208 -10.40258 -10.39798 -10.38194
 Alpha  occ. eigenvalues --  -10.38183 -10.37470 -10.37444 -10.36123 -10.35490
 Alpha  occ. eigenvalues --  -10.34583 -10.34432 -10.34039 -10.33646 -10.33608
 Alpha  occ. eigenvalues --  -10.33108 -10.33049 -10.32886 -10.31024 -10.30742
 Alpha  occ. eigenvalues --  -10.30699 -10.28305 -10.28187  -1.19063  -1.15447
 Alpha  occ. eigenvalues --   -1.13166  -1.12710  -1.10915  -1.10661  -1.09623
 Alpha  occ. eigenvalues --   -1.08929  -1.08521  -1.05100  -1.05028  -1.02074
 Alpha  occ. eigenvalues --   -1.01190  -1.00457  -0.99690  -0.98551  -0.97163
 Alpha  occ. eigenvalues --   -0.96702  -0.96585  -0.92747  -0.90706  -0.87871
 Alpha  occ. eigenvalues --   -0.86092  -0.84212  -0.83656  -0.83198  -0.82587
 Alpha  occ. eigenvalues --   -0.82072  -0.78533  -0.77287  -0.75084  -0.74677
 Alpha  occ. eigenvalues --   -0.73605  -0.72973  -0.72772  -0.70938  -0.70632
 Alpha  occ. eigenvalues --   -0.67391  -0.67051  -0.66199  -0.66164  -0.64475
 Alpha  occ. eigenvalues --   -0.64347  -0.63638  -0.62631  -0.62612  -0.61796
 Alpha  occ. eigenvalues --   -0.60916  -0.60654  -0.60449  -0.59605  -0.59212
 Alpha  occ. eigenvalues --   -0.58964  -0.58333  -0.56865  -0.56468  -0.55902
 Alpha  occ. eigenvalues --   -0.55765  -0.55595  -0.55361  -0.54430  -0.54088
 Alpha  occ. eigenvalues --   -0.53838  -0.53618  -0.53491  -0.53051  -0.52986
 Alpha  occ. eigenvalues --   -0.52803  -0.52042  -0.51555  -0.50475  -0.50286
 Alpha  occ. eigenvalues --   -0.50153  -0.49939  -0.49347  -0.49184  -0.48821
 Alpha  occ. eigenvalues --   -0.48776  -0.48361  -0.48247  -0.47809  -0.47202
 Alpha  occ. eigenvalues --   -0.46779  -0.45808  -0.45413  -0.44585  -0.42987
 Alpha  occ. eigenvalues --   -0.41058  -0.40938  -0.39124  -0.38001  -0.37853
 Alpha  occ. eigenvalues --   -0.37354  -0.37295  -0.36952  -0.35745  -0.34986
 Alpha  occ. eigenvalues --   -0.34555  -0.34051  -0.33345  -0.33228  -0.32916
 Alpha  occ. eigenvalues --   -0.32673  -0.32551  -0.31962  -0.31886  -0.30660
 Alpha  occ. eigenvalues --   -0.30400  -0.29870  -0.25713  -0.25570
 Alpha virt. eigenvalues --    0.03246   0.03778   0.06492   0.08088   0.08987
 Alpha virt. eigenvalues --    0.09258   0.09722   0.10300   0.11053   0.12110
 Alpha virt. eigenvalues --    0.12983   0.14040   0.14504   0.14581   0.14668
 Alpha virt. eigenvalues --    0.15391   0.16119   0.17189   0.17588   0.17786
 Alpha virt. eigenvalues --    0.18689   0.19239   0.19344   0.20399   0.20527
 Alpha virt. eigenvalues --    0.20809   0.20858   0.21181   0.21334   0.21875
 Alpha virt. eigenvalues --    0.22180   0.22392   0.22779   0.23491   0.23731
 Alpha virt. eigenvalues --    0.23900   0.24199   0.24330   0.24999   0.25798
 Alpha virt. eigenvalues --    0.25980   0.27093   0.27709   0.27952   0.28088
 Alpha virt. eigenvalues --    0.28852   0.29121   0.29494   0.30518   0.30994
 Alpha virt. eigenvalues --    0.31718   0.31828   0.32177   0.32989   0.33148
 Alpha virt. eigenvalues --    0.33742   0.34422   0.35138   0.36019   0.36450
 Alpha virt. eigenvalues --    0.36844   0.37599   0.37781   0.38649   0.39207
 Alpha virt. eigenvalues --    0.39591   0.40050   0.40557   0.40858   0.41219
 Alpha virt. eigenvalues --    0.42153   0.42308   0.42655   0.43919   0.44420
 Alpha virt. eigenvalues --    0.45211   0.45616   0.46020   0.46298   0.46830
 Alpha virt. eigenvalues --    0.47134   0.47543   0.48019   0.48685   0.48903
 Alpha virt. eigenvalues --    0.49320   0.50282   0.50441   0.51145   0.51427
 Alpha virt. eigenvalues --    0.51789   0.51915   0.52357   0.52591   0.52917
 Alpha virt. eigenvalues --    0.53492   0.54200   0.54402   0.55084   0.55271
 Alpha virt. eigenvalues --    0.55731   0.56149   0.56692   0.57027   0.57188
 Alpha virt. eigenvalues --    0.57517   0.58272   0.58716   0.59071   0.59498
 Alpha virt. eigenvalues --    0.59913   0.60268   0.60662   0.60953   0.61140
 Alpha virt. eigenvalues --    0.61667   0.61829   0.62210   0.62630   0.63129
 Alpha virt. eigenvalues --    0.63564   0.63857   0.64710   0.64963   0.65520
 Alpha virt. eigenvalues --    0.66105   0.66335   0.66607   0.66842   0.67316
 Alpha virt. eigenvalues --    0.67884   0.68372   0.69036   0.69273   0.70334
 Alpha virt. eigenvalues --    0.70393   0.70998   0.71176   0.71823   0.71997
 Alpha virt. eigenvalues --    0.72311   0.72578   0.73145   0.73479   0.73796
 Alpha virt. eigenvalues --    0.74440   0.74608   0.75078   0.75598   0.75926
 Alpha virt. eigenvalues --    0.76379   0.76459   0.76925   0.77048   0.77319
 Alpha virt. eigenvalues --    0.77496   0.77594   0.78392   0.78863   0.79459
 Alpha virt. eigenvalues --    0.79767   0.79941   0.80628   0.80683   0.81012
 Alpha virt. eigenvalues --    0.81495   0.81747   0.82266   0.82676   0.83283
 Alpha virt. eigenvalues --    0.83634   0.84309   0.84498   0.84938   0.85211
 Alpha virt. eigenvalues --    0.85328   0.86684   0.86961   0.87109   0.87741
 Alpha virt. eigenvalues --    0.88223   0.88352   0.88919   0.89752   0.90109
 Alpha virt. eigenvalues --    0.90680   0.90880   0.91572   0.91999   0.92499
 Alpha virt. eigenvalues --    0.93102   0.93287   0.93530   0.93997   0.94267
 Alpha virt. eigenvalues --    0.95206   0.95576   0.95864   0.96361   0.96687
 Alpha virt. eigenvalues --    0.97326   0.97768   0.97941   0.98751   0.98928
 Alpha virt. eigenvalues --    0.99226   0.99844   1.00030   1.00364   1.00508
 Alpha virt. eigenvalues --    1.01095   1.01607   1.02042   1.02640   1.02795
 Alpha virt. eigenvalues --    1.03307   1.03583   1.04335   1.04854   1.05338
 Alpha virt. eigenvalues --    1.05662   1.05933   1.06051   1.07016   1.07480
 Alpha virt. eigenvalues --    1.08110   1.08591   1.09196   1.09410   1.10655
 Alpha virt. eigenvalues --    1.11375   1.11772   1.12506   1.12938   1.13315
 Alpha virt. eigenvalues --    1.13541   1.13971   1.14909   1.15281   1.15642
 Alpha virt. eigenvalues --    1.15990   1.16473   1.16891   1.17028   1.17375
 Alpha virt. eigenvalues --    1.17944   1.18378   1.18632   1.19067   1.19333
 Alpha virt. eigenvalues --    1.19657   1.20446   1.20766   1.21113   1.21561
 Alpha virt. eigenvalues --    1.22016   1.22054   1.22752   1.22864   1.23115
 Alpha virt. eigenvalues --    1.23274   1.24270   1.24455   1.24770   1.24812
 Alpha virt. eigenvalues --    1.25445   1.25808   1.26750   1.27310   1.27894
 Alpha virt. eigenvalues --    1.28383   1.28606   1.29725   1.29772   1.30589
 Alpha virt. eigenvalues --    1.31760   1.32068   1.33570   1.33768   1.34003
 Alpha virt. eigenvalues --    1.34419   1.34827   1.35475   1.35541   1.36612
 Alpha virt. eigenvalues --    1.37013   1.37833   1.38743   1.39492   1.39682
 Alpha virt. eigenvalues --    1.41058   1.41315   1.42540   1.43009   1.43457
 Alpha virt. eigenvalues --    1.45293   1.45634   1.46004   1.47065   1.47586
 Alpha virt. eigenvalues --    1.48022   1.48842   1.49523   1.50555   1.51370
 Alpha virt. eigenvalues --    1.52404   1.53217   1.53720   1.54467   1.55279
 Alpha virt. eigenvalues --    1.55680   1.56036   1.56414   1.56697   1.57359
 Alpha virt. eigenvalues --    1.58424   1.59271   1.59400   1.61008   1.61674
 Alpha virt. eigenvalues --    1.62148   1.62563   1.62965   1.62996   1.63236
 Alpha virt. eigenvalues --    1.64048   1.64307   1.64764   1.65394   1.66292
 Alpha virt. eigenvalues --    1.66722   1.67085   1.68596   1.68662   1.69334
 Alpha virt. eigenvalues --    1.69863   1.70098   1.70595   1.70908   1.71371
 Alpha virt. eigenvalues --    1.72401   1.72889   1.73241   1.73505   1.73789
 Alpha virt. eigenvalues --    1.73939   1.74700   1.75098   1.75400   1.75822
 Alpha virt. eigenvalues --    1.76023   1.76194   1.76396   1.76905   1.77190
 Alpha virt. eigenvalues --    1.77484   1.77971   1.78189   1.78462   1.78642
 Alpha virt. eigenvalues --    1.78926   1.79716   1.80014   1.80238   1.80431
 Alpha virt. eigenvalues --    1.80583   1.81494   1.81641   1.82177   1.82375
 Alpha virt. eigenvalues --    1.82642   1.83884   1.84286   1.84484   1.85045
 Alpha virt. eigenvalues --    1.85095   1.85215   1.85557   1.86074   1.86973
 Alpha virt. eigenvalues --    1.87424   1.88336   1.88512   1.88611   1.89313
 Alpha virt. eigenvalues --    1.90164   1.90457   1.90701   1.91304   1.91424
 Alpha virt. eigenvalues --    1.92343   1.92475   1.93397   1.93544   1.94487
 Alpha virt. eigenvalues --    1.95639   1.95982   1.96530   1.97379   1.97523
 Alpha virt. eigenvalues --    1.98313   1.99120   2.00348   2.01068   2.01513
 Alpha virt. eigenvalues --    2.02095   2.02216   2.02924   2.03716   2.04016
 Alpha virt. eigenvalues --    2.04278   2.05498   2.05743   2.07217   2.07317
 Alpha virt. eigenvalues --    2.08021   2.08479   2.09514   2.10181   2.10606
 Alpha virt. eigenvalues --    2.11502   2.12061   2.12311   2.13031   2.13682
 Alpha virt. eigenvalues --    2.14303   2.14788   2.16578   2.17106   2.17722
 Alpha virt. eigenvalues --    2.17902   2.19615   2.20201   2.20857   2.21745
 Alpha virt. eigenvalues --    2.22108   2.22591   2.23046   2.23547   2.24179
 Alpha virt. eigenvalues --    2.24951   2.25509   2.26085   2.26478   2.26644
 Alpha virt. eigenvalues --    2.27277   2.28594   2.28925   2.29747   2.30012
 Alpha virt. eigenvalues --    2.30519   2.30766   2.31251   2.31795   2.32629
 Alpha virt. eigenvalues --    2.33046   2.33389   2.33779   2.34139   2.34368
 Alpha virt. eigenvalues --    2.34978   2.35436   2.36100   2.37120   2.37358
 Alpha virt. eigenvalues --    2.38014   2.38390   2.39160   2.40506   2.41430
 Alpha virt. eigenvalues --    2.41664   2.41978   2.43161   2.43513   2.44412
 Alpha virt. eigenvalues --    2.44563   2.44867   2.45365   2.46008   2.46314
 Alpha virt. eigenvalues --    2.47504   2.48726   2.50237   2.50597   2.51468
 Alpha virt. eigenvalues --    2.53323   2.54069   2.55130   2.55210   2.56357
 Alpha virt. eigenvalues --    2.56770   2.57191   2.58556   2.58617   2.61075
 Alpha virt. eigenvalues --    2.61271   2.62185   2.63008   2.63243   2.63744
 Alpha virt. eigenvalues --    2.65065   2.65211   2.65437   2.66850   2.66993
 Alpha virt. eigenvalues --    2.67638   2.67768   2.68493   2.68855   2.69729
 Alpha virt. eigenvalues --    2.69870   2.70927   2.71458   2.71869   2.72874
 Alpha virt. eigenvalues --    2.73809   2.75354   2.75587   2.76171   2.76541
 Alpha virt. eigenvalues --    2.77070   2.77752   2.78180   2.79286   2.79351
 Alpha virt. eigenvalues --    2.79798   2.79904   2.80340   2.80962   2.81582
 Alpha virt. eigenvalues --    2.81933   2.82625   2.82720   2.83802   2.84056
 Alpha virt. eigenvalues --    2.84747   2.85456   2.86612   2.86804   2.86957
 Alpha virt. eigenvalues --    2.87052   2.88620   2.88918   2.92072   2.94065
 Alpha virt. eigenvalues --    2.94703   2.96187   2.96725   2.96992   2.99333
 Alpha virt. eigenvalues --    3.00042   3.01213   3.02029   3.04005   3.05624
 Alpha virt. eigenvalues --    3.06037   3.09764   3.10723   3.12395   3.14901
 Alpha virt. eigenvalues --    3.15715   3.16406   3.16620   3.17654   3.20361
 Alpha virt. eigenvalues --    3.21081   3.22684   3.23728   3.24643   3.25832
 Alpha virt. eigenvalues --    3.44462   3.47060   3.47596   3.48940   3.50713
 Alpha virt. eigenvalues --    3.53243   3.54367   3.56370   3.57940   3.60203
 Alpha virt. eigenvalues --    3.63467   3.71125   3.75200
          Condensed to atoms (all electrons):
 Mulliken charges:
               1
     1  N   -0.308075
     2  C    0.180018
     3  C    0.059645
     4  N   -0.258122
     5  C    0.145913
     6  H    0.026728
     7  N   -0.291816
     8  C    0.129207
     9  H    0.011685
    10  N   -0.282591
    11  C    0.247338
    12  C    0.086381
    13  N   -0.057911
    14  H    0.114286
    15  H    0.083762
    16  H    0.025027
    17  H    0.028947
    18  H    0.024712
    19  N   -0.306143
    20  C    0.263906
    21  C    0.182732
    22  N   -0.122968
    23  H    0.119962
    24  H    0.117643
    25  N   -0.309853
    26  C    0.244146
    27  N   -0.137094
    28  H    0.116200
    29  C    0.184880
    30  O   -0.321613
    31  C   -0.016787
    32  N   -0.225281
    33  C    0.115455
    34  H    0.020568
    35  H    0.026625
    36  H    0.030183
    37  H    0.023697
    38  H    0.064228
    39  H    0.058124
    40  H    0.074962
    41  H    0.023017
    42  C   -0.110163
    43  O   -0.267645
    44  C    0.170037
    45  H    0.130719
    46  N   -0.121140
    47  O   -0.345208
    48  C    0.344889
    49  H    0.044120
    50  C    0.164518
    51  C    0.042152
    52  N   -0.276484
    53  H    0.034858
    54  H    0.040289
    55  H    0.028583
    56  H    0.123154
    57  H    0.116222
    58  N   -0.054608
    59  C    0.093930
    60  C    0.225009
    61  N   -0.266904
    62  H    0.026686
    63  C    0.173869
    64  N   -0.312302
    65  H    0.037839
    66  C    0.128304
    67  N   -0.253700
    68  C    0.009823
    69  C    0.181863
    70  N   -0.300435
 Sum of Mulliken charges =  -0.00000
 Mulliken charges with hydrogens summed into heavy atoms:
               1
     1  N   -0.308075
     2  C    0.258704
     3  C    0.059645
     4  N   -0.258122
     5  C    0.172641
     7  N   -0.291816
     8  C    0.140892
    10  N   -0.282591
    11  C    0.247338
    12  C    0.086381
    13  N    0.140138
    19  N   -0.306143
    20  C    0.263906
    21  C    0.263236
    22  N    0.114637
    25  N   -0.309853
    26  C    0.244146
    27  N   -0.020893
    29  C    0.184880
    30  O   -0.321613
    31  C   -0.016787
    32  N   -0.225281
    33  C    0.136023
    42  C   -0.087147
    43  O   -0.267645
    44  C    0.170037
    46  N    0.009579
    47  O   -0.345208
    48  C    0.344889
    50  C    0.208638
    51  C    0.239466
    52  N   -0.276484
    58  N    0.184769
    59  C    0.093930
    60  C    0.225009
    61  N   -0.266904
    63  C    0.200554
    64  N   -0.312302
    66  C    0.166143
    67  N   -0.253700
    68  C    0.009823
    69  C    0.285594
    70  N   -0.300435
 Electronic spatial extent (au):  <R**2>=          22235.8508
 Charge=             -0.0000 electrons
 Dipole moment (field-independent basis, Debye):
    X=             -7.2350    Y=              7.0970    Z=             -1.7920  Tot=             10.2919
 Quadrupole moment (field-independent basis, Debye-Ang):
   XX=           -154.3550   YY=           -223.2274   ZZ=           -254.8787
   XY=             -0.9077   XZ=            -10.5367   YZ=              9.2066
 Traceless Quadrupole moment (field-independent basis, Debye-Ang):
   XX=             56.4653   YY=            -12.4070   ZZ=            -44.0583
   XY=             -0.9077   XZ=            -10.5367   YZ=              9.2066
 Octapole moment (field-independent basis, Debye-Ang**2):
  XXX=             91.6528  YYY=            121.0821  ZZZ=              9.4821  XYY=            -87.9036
  XXY=            100.3828  XXZ=            -30.7466  XZZ=            -48.6612  YZZ=             29.7187
  YYZ=            -50.8895  XYZ=             63.7513
 Hexadecapole moment (field-independent basis, Debye-Ang**3):
 XXXX=         -16092.1907 YYYY=          -5029.5597 ZZZZ=          -3836.8101 XXXY=           -534.7051
 XXXZ=           -204.5983 YYYX=             31.5344 YYYZ=             67.6696 ZZZX=            -48.0526
 ZZZY=              3.8151 XXYY=          -3329.8533 XXZZ=          -3838.8251 YYZZ=          -1578.8626
 XXYZ=            -64.3079 YYXZ=            108.6789 ZZXY=            -70.4417
 N-N= 5.516993360291D+03 E-N=-1.581456869341D+04  KE= 2.037705367845D+03
 No NMR shielding tensors so no spin-rotation constants.
 Leave Link  601 at Sun Jan 21 23:50:37 2018, MaxMem=  4294967296 cpu:              46.7 elap:               1.6
 (Enter /share/apps/g16/l9999.exe)
 1\1\GINC-COMPUTE-0-3\SP\RwB97XD\CC-pVDZ\C23H27N17O3\SATYA\21-Jan-2018\
 0\\#p wb97xd/cc-pvdz sp scf=(maxcycles=20)\\Base pair stacking\\0,1\N,
 0,3.24937,0.88585,-6.47105\C,0,3.95709,2.17683,-6.57363\C,0,1.68506,-0
 .65742,-6.37851\N,0,2.89573,-1.32438,-6.25948\C,0,3.78972,-0.36792,-6.
 32\H,0,4.86746,-0.52186,-6.25909\N,0,-0.62066,-0.18252,-6.52372\C,0,-0
 .27088,1.10261,-6.6407\H,0,-1.09895,1.80208,-6.74702\N,0,0.9425,1.6508
 5,-6.64603\C,0,1.88703,0.7055,-6.50964\C,0,0.35289,-1.10927,-6.38803\N
 ,0,0.00574,-2.39262,-6.27112\H,0,0.69306,-3.11255,-6.1686\H,0,-0.95268
 ,-2.67805,-6.28203\H,0,4.56484,2.16316,-7.36775\H,0,3.29152,2.91535,-6
 .67715\H,0,4.49662,2.33025,-5.74576\N,0,1.15148,3.23866,-3.26456\C,0,0
 .14395,2.30435,-3.26328\C,0,0.96064,4.6998,-3.36129\N,0,-3.2385,1.5281
 9,-3.39872\H,0,-3.80815,0.70697,-3.38065\H,0,-3.71101,2.40653,-3.47605
 \N,0,-1.179,2.56205,-3.34948\C,0,-1.901,1.45588,-3.32272\N,0,-1.36999,
 0.19299,-3.21948\H,0,-1.9983,-0.5957,-3.20649\C,0,-0.01189,-0.09571,-3
 .12957\O,0,0.36313,-1.27131,-3.03986\C,0,0.77646,1.08269,-3.15705\N,0,
 2.15337,1.24674,-3.09292\C,0,2.32863,2.53864,-3.16\H,0,3.29907,3.03564
 ,-3.13738\H,0,1.42619,5.04526,-4.17537\H,0,-0.01554,4.90276,-3.42565\H
 ,0,1.33895,5.14156,-2.54856\H,0,-5.60675,-4.121,-3.84208\H,0,-5.51686,
 -4.2311,-2.08582\H,0,-5.20244,-2.69265,-2.88935\H,0,-1.61648,-6.75915,
 -3.32784\C,0,-1.93441,-5.71967,-3.2464\O,0,0.27111,-4.84822,-3.30466\C
 ,0,-0.94655,-4.68441,-3.23206\H,0,-0.7881,-2.64752,-3.11248\N,0,-1.455
 6,-3.4058,-3.12585\O,0,-3.13114,-1.88366,-2.94466\C,0,-2.77693,-3.0459
 5,-3.03565\H,0,-4.02117,-6.14964,-3.16654\C,0,-3.23094,-5.40007,-3.16\
 C,0,-5.09228,-3.76442,-2.96218\N,0,-3.66882,-4.10014,-3.05609\H,0,-8.3
 5591,-1.83598,-6.86174\H,0,-7.32328,-1.01561,-5.90113\H,0,-8.40541,-2.
 04582,-5.24405\H,0,-1.93442,-5.51478,-6.31721\H,0,-3.44034,-6.30249,-6
 .46493\N,0,-2.93213,-5.44975,-6.33931\C,0,-3.55807,-4.27846,-6.20724\C
 ,0,-5.45954,-2.85357,-6.08142\N,0,-4.7513,-1.7245,-5.91402\H,0,-2.7963
 5,-1.12454,-5.77681\C,0,-3.44626,-1.9886,-5.90822\N,0,-2.81738,-3.1610
 5,-6.04035\H,0,-8.08801,-4.70857,-6.40123\C,0,-7.07255,-4.31975,-6.32\
 N,0,-5.98716,-5.05178,-6.38132\C,0,-4.95721,-4.13446,-6.23142\C,0,-7.8
 0613,-1.88162,-6.02768\N,0,-6.82722,-2.98035,-6.1396\\Version=EM64L-G1
 6RevA.03\State=1-A\HF=-2048.7509621\RMSD=7.297e-09\Dipole=-4.0228786,0
 .3676404,-0.2771851\Quadrupole=19.1955806,10.7020184,-29.897599,27.197
 85,-10.7928586,4.9241241\PG=C01 [X(C23H27N17O3)]\\@


 IT'S WHAT YOU LEARN AFTER YOU KNOW IT ALL
 THAT COUNTS.
 Job cpu time:       0 days  6 hours  1 minutes 25.3 seconds.
 Elapsed time:       0 days  0 hours 11 minutes 40.1 seconds.
 File lengths (MBytes):  RWF=    298 Int=      0 D2E=      0 Chk=     33 Scr=      1
 Normal termination of Gaussian 16 at Sun Jan 21 23:50:37 2018.
