 Entering Gaussian System, Link 0=g16
 Input=str35.-5.-1.0.com
 Output=str35.-5.-1.0.log
 Initial command:
 /share/apps/g16/l1.exe "/state/partition1/scr/Gau-3510.inp" -scrdir="/state/partition1/scr/"
 Entering Link 1 = /share/apps/g16/l1.exe PID=      3511.
  
 Copyright (c) 1988,1990,1992,1993,1995,1998,2003,2009,2016,
            Gaussian, Inc.  All Rights Reserved.
  
 This is part of the Gaussian(R) 16 program.  It is based on
 the Gaussian(R) 09 system (copyright 2009, Gaussian, Inc.),
 the Gaussian(R) 03 system (copyright 2003, Gaussian, Inc.),
 the Gaussian(R) 98 system (copyright 1998, Gaussian, Inc.),
 the Gaussian(R) 94 system (copyright 1995, Gaussian, Inc.),
 the Gaussian 92(TM) system (copyright 1992, Gaussian, Inc.),
 the Gaussian 90(TM) system (copyright 1990, Gaussian, Inc.),
 the Gaussian 88(TM) system (copyright 1988, Gaussian, Inc.),
 the Gaussian 86(TM) system (copyright 1986, Carnegie Mellon
 University), and the Gaussian 82(TM) system (copyright 1983,
 Carnegie Mellon University). Gaussian is a federally registered
 trademark of Gaussian, Inc.
  
 This software contains proprietary and confidential information,
 including trade secrets, belonging to Gaussian, Inc.
  
 This software is provided under written license and may be
 used, copied, transmitted, or stored only in accord with that
 written license.
  
 The following legend is applicable only to US Government
 contracts under FAR:
  
                    RESTRICTED RIGHTS LEGEND
  
 Use, reproduction and disclosure by the US Government is
 subject to restrictions as set forth in subparagraphs (a)
 and (c) of the Commercial Computer Software - Restricted
 Rights clause in FAR 52.227-19.
  
 Gaussian, Inc.
 340 Quinnipiac St., Bldg. 40, Wallingford CT 06492
  
  
 ---------------------------------------------------------------
 Warning -- This program may not be used in any manner that
 competes with the business of Gaussian, Inc. or will provide
 assistance to any competitor of Gaussian, Inc.  The licensee
 of this program is prohibited from giving any competitor of
 Gaussian, Inc. access to this program.  By using this program,
 the user acknowledges that Gaussian, Inc. is engaged in the
 business of creating and licensing software in the field of
 computational chemistry and represents and warrants to the
 licensee that it is not a competitor of Gaussian, Inc. and that
 it will not use this program in any manner prohibited above.
 ---------------------------------------------------------------
  

 Cite this work as:
 Gaussian 16, Revision A.03,
 M. J. Frisch, G. W. Trucks, H. B. Schlegel, G. E. Scuseria, 
 M. A. Robb, J. R. Cheeseman, G. Scalmani, V. Barone, 
 G. A. Petersson, H. Nakatsuji, X. Li, M. Caricato, A. V. Marenich, 
 J. Bloino, B. G. Janesko, R. Gomperts, B. Mennucci, H. P. Hratchian, 
 J. V. Ortiz, A. F. Izmaylov, J. L. Sonnenberg, D. Williams-Young, 
 F. Ding, F. Lipparini, F. Egidi, J. Goings, B. Peng, A. Petrone, 
 T. Henderson, D. Ranasinghe, V. G. Zakrzewski, J. Gao, N. Rega, 
 G. Zheng, W. Liang, M. Hada, M. Ehara, K. Toyota, R. Fukuda, 
 J. Hasegawa, M. Ishida, T. Nakajima, Y. Honda, O. Kitao, H. Nakai, 
 T. Vreven, K. Throssell, J. A. Montgomery, Jr., J. E. Peralta, 
 F. Ogliaro, M. J. Bearpark, J. J. Heyd, E. N. Brothers, K. N. Kudin, 
 V. N. Staroverov, T. A. Keith, R. Kobayashi, J. Normand, 
 K. Raghavachari, A. P. Rendell, J. C. Burant, S. S. Iyengar, 
 J. Tomasi, M. Cossi, J. M. Millam, M. Klene, C. Adamo, R. Cammi, 
 J. W. Ochterski, R. L. Martin, K. Morokuma, O. Farkas, 
 J. B. Foresman, and D. J. Fox, Gaussian, Inc., Wallingford CT, 2016.
 
 ******************************************
 Gaussian 16:  EM64L-G16RevA.03 25-Dec-2016
                22-Jan-2018 
 ******************************************
 %nprocshared=32
 Will use up to   32 processors via shared memory.
 %mem=32GB
 %chk=allatoms_t.chk
 ---------------------------------------
 #p wb97xd/cc-pvdz sp scf=(maxcycles=20)
 ---------------------------------------
 1/38=1,172=1/1;
 2/12=2,17=6,18=5,40=1/2;
 3/5=16,11=2,25=1,30=1,74=-58/1,2,3;
 4//1;
 5/5=2,7=20,38=5/2;
 6/7=2,8=2,9=2,10=2,28=1/1;
 99/5=1,9=1/99;
 Leave Link    1 at Mon Jan 22 14:43:02 2018, MaxMem=  4294967296 cpu:               2.7 elap:               0.1
 (Enter /share/apps/g16/l101.exe)
 ------------------
 Base pair stacking
 ------------------
 Symbolic Z-matrix:
 Charge =  0 Multiplicity = 1
 N                     5.4503    4.96281  -6.85581 
 C                     6.15045   6.25972  -6.93212 
 C                     3.89717   3.4132   -6.70146 
 N                     5.10704   2.74154  -6.80058 
 C                     5.99431   3.702    -6.88961 
 H                     7.06949   3.54615  -6.98266 
 N                     1.59635   3.89295  -6.50398 
 C                     1.93965   5.18435  -6.54877 
 H                     1.11111   5.88829  -6.48363 
 N                     3.1471    5.73416  -6.66141 
 C                     4.09279   4.78294  -6.7341 
 C                     2.5709    2.9604   -6.57943 
 N                     2.23019   1.67079  -6.53489 
 H                     2.91849   0.94643  -6.58744 
 H                     1.27585   1.38488  -6.44753 
 H                     6.65055   6.31974  -7.79611 
 H                     5.48375   7.00275  -6.88169 
 H                     6.79361   6.33898  -6.17051 
 N                     1.7594    5.6241   -3.28468 
 C                     0.75367   4.68963  -3.22701 
 C                     1.5638    7.08712  -3.32959 
 N                    -2.63011   3.91571  -3.11384 
 H                    -3.19783   3.09405  -3.07125 
 H                    -3.10588   4.79551  -3.13166 
 N                    -0.57155   4.94886  -3.20187 
 C                    -1.2909    3.84207  -3.14566 
 N                    -0.75537   2.57722  -3.11623 
 H                    -1.38191   1.78819  -3.07324 
 C                     0.60513   2.28692  -3.14121 
 O                     0.98424   1.1096   -3.11075 
 C                     1.39069   3.46596  -3.20158 
 N                     2.76861   3.62893  -3.24247 
 C                     2.94004   4.92217  -3.291 
 H                     3.91      5.41885  -3.33282 
 H                     1.96407   7.45298  -4.16908 
 H                     0.58591   7.29122  -3.31148 
 H                     2.00587   7.50862  -2.53856 
 H                    -5.03483  -1.72164  -3.50912 
 H                    -4.80654  -1.8755   -1.76876 
 H                    -4.55422  -0.31734  -2.55606 
 H                    -1.02052  -4.37016  -3.37789 
 C                    -1.32939  -3.33316  -3.2457 
 O                     0.86597  -2.45962  -3.45646 
 C                    -0.34187  -2.29818  -3.28374 
 H                    -0.17128  -0.26484  -3.12636 
 N                    -0.83893  -1.02283  -3.10579 
 O                    -2.49252   0.49363  -2.75481 
 C                    -2.14843  -0.66588  -2.90246 
 H                    -3.40397  -3.76585  -3.01182 
 C                    -2.61453  -3.01636  -3.04911 
 C                    -4.45184  -1.38691  -2.66405 
 N                    -3.0408   -1.7196   -2.87855 
 H                    -6.13244   2.2556   -5.9871 
 H                    -4.97722   2.98839  -5.09796 
 H                    -5.97478   1.8999   -4.40216 
 H                     0.2723   -1.43969  -6.61129 
 H                    -1.24712  -2.21492  -6.63357 
 N                    -0.71931  -1.37568  -6.49828 
 C                    -1.31242  -0.2229   -6.18129 
 C                    -3.16889   1.17948  -5.68271 
 N                    -2.43485   2.29068  -5.50709 
 H                    -0.47322   2.88112  -5.57017 
 C                    -1.14239   2.03074  -5.69388 
 N                    -0.54638   0.87683  -6.01142 
 H                    -5.83323  -0.64615  -5.82613 
 C                    -4.81232  -0.26349  -5.84209 
 N                    -3.75053  -0.98396  -6.10898 
 C                    -2.70165  -0.08116  -6.01132 
 C                    -5.48012   2.13608  -5.23864 
 N                    -4.53374   1.05472  -5.57481 
 
 ITRead=  0  0  0  0  0  0  0  0  0  0  0  0  0  0  0  0  0  0  0  0
 ITRead=  0  0  0  0  0  0  0  0  0  0  0  0  0  0  0  0  0  0  0  0
 ITRead=  0  0  0  0  0  0  0  0  0  0  0  0  0  0  0  0  0  0  0  0
 ITRead=  0  0  0  0  0  0  0  0  0  0
 MicOpt= -1 -1 -1 -1 -1 -1 -1 -1 -1 -1 -1 -1 -1 -1 -1 -1 -1 -1 -1 -1
 MicOpt= -1 -1 -1 -1 -1 -1 -1 -1 -1 -1 -1 -1 -1 -1 -1 -1 -1 -1 -1 -1
 MicOpt= -1 -1 -1 -1 -1 -1 -1 -1 -1 -1 -1 -1 -1 -1 -1 -1 -1 -1 -1 -1
 MicOpt= -1 -1 -1 -1 -1 -1 -1 -1 -1 -1
 NAtoms=     70 NQM=       70 NQMF=       0 NMMI=      0 NMMIF=      0
                NMic=       0 NMicF=      0.
                    Isotopes and Nuclear Properties:
 (Nuclear quadrupole moments (NQMom) in fm**2, nuclear magnetic moments (NMagM)
  in nuclear magnetons)

  Atom         1           2           3           4           5           6           7           8           9          10
 IAtWgt=          14          12          12          14          12           1          14          12           1          14
 AtmWgt=  14.0030740  12.0000000  12.0000000  14.0030740  12.0000000   1.0078250  14.0030740  12.0000000   1.0078250  14.0030740
 NucSpn=           2           0           0           2           0           1           2           0           1           2
 AtZEff=  -0.0000000  -0.0000000  -0.0000000  -0.0000000  -0.0000000  -0.0000000  -0.0000000  -0.0000000  -0.0000000  -0.0000000
 NQMom=    2.0440000   0.0000000   0.0000000   2.0440000   0.0000000   0.0000000   2.0440000   0.0000000   0.0000000   2.0440000
 NMagM=    0.4037610   0.0000000   0.0000000   0.4037610   0.0000000   2.7928460   0.4037610   0.0000000   2.7928460   0.4037610
 AtZNuc=   7.0000000   6.0000000   6.0000000   7.0000000   6.0000000   1.0000000   7.0000000   6.0000000   1.0000000   7.0000000

  Atom        11          12          13          14          15          16          17          18          19          20
 IAtWgt=          12          12          14           1           1           1           1           1          14          12
 AtmWgt=  12.0000000  12.0000000  14.0030740   1.0078250   1.0078250   1.0078250   1.0078250   1.0078250  14.0030740  12.0000000
 NucSpn=           0           0           2           1           1           1           1           1           2           0
 AtZEff=  -0.0000000  -0.0000000  -0.0000000  -0.0000000  -0.0000000  -0.0000000  -0.0000000  -0.0000000  -0.0000000  -0.0000000
 NQMom=    0.0000000   0.0000000   2.0440000   0.0000000   0.0000000   0.0000000   0.0000000   0.0000000   2.0440000   0.0000000
 NMagM=    0.0000000   0.0000000   0.4037610   2.7928460   2.7928460   2.7928460   2.7928460   2.7928460   0.4037610   0.0000000
 AtZNuc=   6.0000000   6.0000000   7.0000000   1.0000000   1.0000000   1.0000000   1.0000000   1.0000000   7.0000000   6.0000000

  Atom        21          22          23          24          25          26          27          28          29          30
 IAtWgt=          12          14           1           1          14          12          14           1          12          16
 AtmWgt=  12.0000000  14.0030740   1.0078250   1.0078250  14.0030740  12.0000000  14.0030740   1.0078250  12.0000000  15.9949146
 NucSpn=           0           2           1           1           2           0           2           1           0           0
 AtZEff=  -0.0000000  -0.0000000  -0.0000000  -0.0000000  -0.0000000  -0.0000000  -0.0000000  -0.0000000  -0.0000000  -0.0000000
 NQMom=    0.0000000   2.0440000   0.0000000   0.0000000   2.0440000   0.0000000   2.0440000   0.0000000   0.0000000   0.0000000
 NMagM=    0.0000000   0.4037610   2.7928460   2.7928460   0.4037610   0.0000000   0.4037610   2.7928460   0.0000000   0.0000000
 AtZNuc=   6.0000000   7.0000000   1.0000000   1.0000000   7.0000000   6.0000000   7.0000000   1.0000000   6.0000000   8.0000000

  Atom        31          32          33          34          35          36          37          38          39          40
 IAtWgt=          12          14          12           1           1           1           1           1           1           1
 AtmWgt=  12.0000000  14.0030740  12.0000000   1.0078250   1.0078250   1.0078250   1.0078250   1.0078250   1.0078250   1.0078250
 NucSpn=           0           2           0           1           1           1           1           1           1           1
 AtZEff=  -0.0000000  -0.0000000  -0.0000000  -0.0000000  -0.0000000  -0.0000000  -0.0000000  -0.0000000  -0.0000000  -0.0000000
 NQMom=    0.0000000   2.0440000   0.0000000   0.0000000   0.0000000   0.0000000   0.0000000   0.0000000   0.0000000   0.0000000
 NMagM=    0.0000000   0.4037610   0.0000000   2.7928460   2.7928460   2.7928460   2.7928460   2.7928460   2.7928460   2.7928460
 AtZNuc=   6.0000000   7.0000000   6.0000000   1.0000000   1.0000000   1.0000000   1.0000000   1.0000000   1.0000000   1.0000000

  Atom        41          42          43          44          45          46          47          48          49          50
 IAtWgt=           1          12          16          12           1          14          16          12           1          12
 AtmWgt=   1.0078250  12.0000000  15.9949146  12.0000000   1.0078250  14.0030740  15.9949146  12.0000000   1.0078250  12.0000000
 NucSpn=           1           0           0           0           1           2           0           0           1           0
 AtZEff=  -0.0000000  -0.0000000  -0.0000000  -0.0000000  -0.0000000  -0.0000000  -0.0000000  -0.0000000  -0.0000000  -0.0000000
 NQMom=    0.0000000   0.0000000   0.0000000   0.0000000   0.0000000   2.0440000   0.0000000   0.0000000   0.0000000   0.0000000
 NMagM=    2.7928460   0.0000000   0.0000000   0.0000000   2.7928460   0.4037610   0.0000000   0.0000000   2.7928460   0.0000000
 AtZNuc=   1.0000000   6.0000000   8.0000000   6.0000000   1.0000000   7.0000000   8.0000000   6.0000000   1.0000000   6.0000000

  Atom        51          52          53          54          55          56          57          58          59          60
 IAtWgt=          12          14           1           1           1           1           1          14          12          12
 AtmWgt=  12.0000000  14.0030740   1.0078250   1.0078250   1.0078250   1.0078250   1.0078250  14.0030740  12.0000000  12.0000000
 NucSpn=           0           2           1           1           1           1           1           2           0           0
 AtZEff=  -0.0000000  -0.0000000  -0.0000000  -0.0000000  -0.0000000  -0.0000000  -0.0000000  -0.0000000  -0.0000000  -0.0000000
 NQMom=    0.0000000   2.0440000   0.0000000   0.0000000   0.0000000   0.0000000   0.0000000   2.0440000   0.0000000   0.0000000
 NMagM=    0.0000000   0.4037610   2.7928460   2.7928460   2.7928460   2.7928460   2.7928460   0.4037610   0.0000000   0.0000000
 AtZNuc=   6.0000000   7.0000000   1.0000000   1.0000000   1.0000000   1.0000000   1.0000000   7.0000000   6.0000000   6.0000000

  Atom        61          62          63          64          65          66          67          68          69          70
 IAtWgt=          14           1          12          14           1          12          14          12          12          14
 AtmWgt=  14.0030740   1.0078250  12.0000000  14.0030740   1.0078250  12.0000000  14.0030740  12.0000000  12.0000000  14.0030740
 NucSpn=           2           1           0           2           1           0           2           0           0           2
 AtZEff=  -0.0000000  -0.0000000  -0.0000000  -0.0000000  -0.0000000  -0.0000000  -0.0000000  -0.0000000  -0.0000000  -0.0000000
 NQMom=    2.0440000   0.0000000   0.0000000   2.0440000   0.0000000   0.0000000   2.0440000   0.0000000   0.0000000   2.0440000
 NMagM=    0.4037610   2.7928460   0.0000000   0.4037610   2.7928460   0.0000000   0.4037610   0.0000000   0.0000000   0.4037610
 AtZNuc=   7.0000000   1.0000000   6.0000000   7.0000000   1.0000000   6.0000000   7.0000000   6.0000000   6.0000000   7.0000000
 Leave Link  101 at Mon Jan 22 14:43:02 2018, MaxMem=  4294967296 cpu:               6.4 elap:               0.2
 (Enter /share/apps/g16/l202.exe)
 Stoichiometry    C23H27N17O3
 Framework group  C1[X(C23H27N17O3)]
 Deg. of freedom   204
 Full point group                 C1      NOp   1
 Largest Abelian subgroup         C1      NOp   1
 Largest concise Abelian subgroup C1      NOp   1
                         Standard orientation:                         
 ---------------------------------------------------------------------
 Center     Atomic      Atomic             Coordinates (Angstroms)
 Number     Number       Type             X           Y           Z
 ---------------------------------------------------------------------
      1          7           0       -6.374612   -1.397987    0.644174
      2          6           0       -7.733089   -0.821460    0.631350
      3          6           0       -4.197703   -1.657052    0.821041
      4          7           0       -4.709322   -2.898817    0.473187
      5          6           0       -6.000342   -2.693040    0.380563
      6          1           0       -6.732984   -3.457695    0.120756
      7          7           0       -2.722067    0.091627    1.393361
      8          6           0       -3.801308    0.877962    1.460373
      9          1           0       -3.604716    1.915805    1.725866
     10          7           0       -5.080929    0.576168    1.249648
     11          6           0       -5.212196   -0.721941    0.930095
     12          6           0       -2.887404   -1.209449    1.069396
     13          7           0       -1.811293   -1.995963    1.002001
     14          1           0       -1.886642   -2.965379    0.765844
     15          1           0       -0.893600   -1.643218    1.185172
     16          1           0       -8.304797   -1.296996    1.300077
     17          1           0       -7.686200    0.149344    0.864731
     18          1           0       -8.132650   -0.924651   -0.279523
     19          7           0       -3.353799    2.204284   -1.526391
     20          6           0       -1.995087    2.078297   -1.364896
     21          6           0       -4.132986    3.433354   -1.275477
     22          7           0        1.072710    3.460820   -0.505255
     23          1           0        2.026302    3.165500   -0.453350
     24          1           0        0.876874    4.408692   -0.252453
     25          7           0       -1.150358    3.048333   -0.953188
     26          6           0        0.099591    2.624082   -0.896188
     27          7           0        0.494194    1.347907   -1.217387
     28          1           0        1.471879    1.111743   -1.144394
     29          6           0       -0.357690    0.333628   -1.643286
     30          8           0        0.100504   -0.784658   -1.908297
     31          6           0       -1.703893    0.774352   -1.709488
     32          7           0       -2.856597    0.095385   -2.079856
     33          6           0       -3.807577    0.981116   -1.956044
     34          1           0       -4.861317    0.794285   -2.165780
     35          1           0       -4.816871    3.257869   -0.568144
     36          1           0       -3.517783    4.158915   -0.969961
     37          1           0       -4.590063    3.717945   -2.117443
     38          1           0        6.363455    0.390233    0.040778
     39          1           0        6.600492    0.611015   -1.691189
     40          1           0        5.288909    1.454599   -0.866880
     41          1           0        5.012566   -3.929363   -1.591018
     42          6           0        4.618633   -2.915760   -1.515719
     43          8           0        2.370213   -3.563371   -1.905979
     44          6           0        3.214090   -2.696440   -1.679984
     45          1           0        1.835822   -1.183594   -1.675760
     46          7           0        2.821088   -1.378203   -1.565727
     47          8           0        3.183129    0.838954   -1.233553
     48          6           0        3.624589   -0.293621   -1.317504
     49          1           0        6.502826   -1.991386   -1.140015
     50          6           0        5.427708   -1.878004   -1.272707
     51          6           0        5.863953    0.541349   -0.904593
     52          7           0        4.966344   -0.586023   -1.171156
     53          1           0        4.249605    3.419870    3.125662
     54          1           0        3.074823    3.560396    2.002175
     55          1           0        4.638944    3.483575    1.542068
     56          1           0        1.611092   -3.288395    1.364155
     57          1           0        3.244190   -3.017320    1.776011
     58          7           0        2.341770   -2.637317    1.569984
     59          6           0        2.123494   -1.320685    1.570008
     60          6           0        2.737328    0.965262    1.813704
     61          7           0        1.515206    1.447188    1.533367
     62          1           0       -0.351867    0.755776    1.046977
     63          6           0        0.666631    0.451730    1.284580
     64          7           0        0.883323   -0.867593    1.284066
     65          1           0        5.875150    1.052702    2.587413
     66          6           0        4.859134    0.755570    2.325949
     67          7           0        4.460074   -0.483960    2.177551
     68          6           0        3.116549   -0.365222    1.852627
     69          6           0        3.965630    3.154506    2.204284
     70          7           0        3.868191    1.684310    2.120529
 ---------------------------------------------------------------------
 Rotational constants (GHZ):           0.1511497           0.0538714           0.0496166
 Leave Link  202 at Mon Jan 22 14:43:02 2018, MaxMem=  4294967296 cpu:               0.3 elap:               0.0
 (Enter /share/apps/g16/l301.exe)
 Standard basis: CC-pVDZ (5D, 7F)
 Ernie: Thresh=  0.10000D-02 Tol=  0.10000D-05 Strict=F.
 Ernie:  86 primitive shells out of 1081 were deleted.
 There are   780 symmetry adapted cartesian basis functions of A   symmetry.
 There are   737 symmetry adapted basis functions of A   symmetry.
   737 basis functions,  1608 primitive gaussians,   780 cartesian basis functions
   154 alpha electrons      154 beta electrons
       nuclear repulsion energy      5536.4592019693 Hartrees.
 IExCor= 4639 DFT=T Ex+Corr=wB97XD ExCW=0 ScaHFX=  1.000000
 ScaDFX=  1.000000  1.000000  1.000000  1.000000 ScalE2=  1.000000  1.000000
 IRadAn=      5 IRanWt=     -1 IRanGd=            0 ICorTp=0 IEmpDi=121
 HFx  wShort=  0.000000 wLong=  0.200000 cFull=  0.222036 cShort=  0.000000 cLong=  0.777964
 DFx  wShort=  0.000000 wLong=  0.200000 cFull=  0.000000 cShort=  0.000000 cLong=  1.000000
 NAtoms=   70 NActive=   70 NUniq=   70 SFac= 1.00D+00 NAtFMM=   60 NAOKFM=T Big=T
 Integral buffers will be    131072 words long.
 Raffenetti 2 integral format.
 Two-electron integral symmetry is turned on.
 R6Disp:  Grimme-D2 Dispersion energy=       -0.0737595021 Hartrees.
 Nuclear repulsion after empirical dispersion term =     5536.3854424672 Hartrees.
 Leave Link  301 at Mon Jan 22 14:43:03 2018, MaxMem=  4294967296 cpu:               2.1 elap:               0.1
 (Enter /share/apps/g16/l302.exe)
 NPDir=0 NMtPBC=     1 NCelOv=     1 NCel=       1 NClECP=     1 NCelD=      1
         NCelK=      1 NCelE2=     1 NClLst=     1 CellRange=     0.0.
 One-electron integrals computed using PRISM.
 One-electron integral symmetry used in STVInt
 NBasis=   737 RedAO= T EigKep=  7.13D-04  NBF=   737
 NBsUse=   737 1.00D-06 EigRej= -1.00D+00 NBFU=   737
 Precomputing XC quadrature grid using
 IXCGrd= 4 IRadAn=           5 IRanWt=          -1 IRanGd=           0 AccXCQ= 0.00D+00.
 Generated NRdTot=       0 NPtTot=           0 NUsed=           0 NTot=          32
 NSgBfM=   768   768   768   768   768 MxSgAt=    70 MxSgA2=    70.
 Leave Link  302 at Mon Jan 22 14:43:07 2018, MaxMem=  4294967296 cpu:             134.9 elap:               4.2
 (Enter /share/apps/g16/l303.exe)
 DipDrv:  MaxL=1.
 Leave Link  303 at Mon Jan 22 14:43:07 2018, MaxMem=  4294967296 cpu:              13.2 elap:               0.5
 (Enter /share/apps/g16/l401.exe)
 ExpMin= 1.22D-01 ExpMax= 1.17D+04 ExpMxC= 4.01D+02 IAcc=3 IRadAn=         5 AccDes= 0.00D+00
 Harris functional with IExCor= 4639 and IRadAn=       5 diagonalized for initial guess.
 HarFok:  IExCor= 4639 AccDes= 0.00D+00 IRadAn=         5 IDoV= 1 UseB2=F ITyADJ=14
 ICtDFT=  3500011 ScaDFX=  1.000000  1.000000  1.000000  1.000000
 FoFCou: FMM=F IPFlag=           0 FMFlag=      100000 FMFlg1=        2001
         NFxFlg=           0 DoJE=T BraDBF=F KetDBF=T FulRan=T
         wScrn=  0.000000 ICntrl=       500 IOpCl=  0 I1Cent=   200000004 NGrid=           0
         NMat0=    1 NMatS0=      1 NMatT0=    0 NMatD0=    1 NMtDS0=    0 NMtDT0=    0
 Petite list used in FoFCou.
 Harris En= -1963.88129068912    
 JPrj=0 DoOrth=F DoCkMO=F.
 Leave Link  401 at Mon Jan 22 14:43:20 2018, MaxMem=  4294967296 cpu:             404.4 elap:              12.9
 (Enter /share/apps/g16/l502.exe)
 Integral symmetry usage will be decided dynamically.
 Closed shell SCF:
 Using DIIS extrapolation, IDIIS=  1040.
 NGot=  4294967296 LenX=  4293717438 LenY=  4293108258
 Requested convergence on RMS density matrix=1.00D-08 within  20 cycles.
 Requested convergence on MAX density matrix=1.00D-06.
 Requested convergence on             energy=1.00D-06.
 No special actions if energy rises.
 Fock matrices will be formed incrementally for  20 cycles.
 Integral accuracy reduced to 1.0D-05 until final iterations.

 Cycle   1  Pass 0  IDiag  1:
 FoFJK:  IHMeth= 1 ICntrl=       0 DoSepK=T KAlg= 0 I1Cent=           0 FoldK=F
 IRaf=         1 NMat=       1 IRICut=       1 DoRegI=T DoRafI=F ISym2E= 0 IDoP0=0 IntGTp=1.
 FoFCou: FMM=T IPFlag=           0 FMFlag=      100000 FMFlg1=        2001
         NFxFlg=           0 DoJE=T BraDBF=F KetDBF=F FulRan=T
         wScrn=  0.000000 ICntrl=       500 IOpCl=  0 I1Cent=           0 NGrid=           0
         NMat0=    1 NMatS0=      1 NMatT0=    0 NMatD0=    1 NMtDS0=    0 NMtDT0=    0
 Symmetry not used in FoFCou.
 FMM levels:  10  Number of levels for PrismC:   9
 E= -2048.31555362328    
 DIIS: error= 2.32D-02 at cycle   1 NSaved=   1.
 NSaved= 1 IEnMin= 1 EnMin= -2048.31555362328     IErMin= 1 ErrMin= 2.32D-02
 ErrMax= 2.32D-02  0.00D+00 EMaxC= 1.00D-01 BMatC= 8.30D-01 BMatP= 8.30D-01
 IDIUse=3 WtCom= 7.68D-01 WtEn= 2.32D-01
 Coeff-Com:  0.100D+01
 Coeff-En:   0.100D+01
 Coeff:      0.100D+01
 Gap=     0.253 Goal=   None    Shift=    0.000
 GapD=    0.253 DampG=1.000 DampE=0.500 DampFc=0.5000 IDamp=-1.
 Damping current iteration by 5.00D-01
 RMSDP=1.56D-03 MaxDP=1.30D-01              OVMax= 1.63D-01

 Cycle   2  Pass 0  IDiag  1:
 RMSU=  7.80D-04    CP:  9.98D-01
 E= -2048.51200210681     Delta-E=       -0.196448483529 Rises=F Damp=T
 DIIS: error= 1.12D-02 at cycle   2 NSaved=   2.
 NSaved= 2 IEnMin= 2 EnMin= -2048.51200210681     IErMin= 2 ErrMin= 1.12D-02
 ErrMax= 1.12D-02  0.00D+00 EMaxC= 1.00D-01 BMatC= 1.45D-01 BMatP= 8.30D-01
 IDIUse=3 WtCom= 8.88D-01 WtEn= 1.12D-01
 Coeff-Com: -0.200D+00 0.120D+01
 Coeff-En:   0.000D+00 0.100D+01
 Coeff:     -0.178D+00 0.118D+01
 Gap=     0.359 Goal=   None    Shift=    0.000
 RMSDP=5.83D-04 MaxDP=3.43D-02 DE=-1.96D-01 OVMax= 1.53D-01

 Cycle   3  Pass 0  IDiag  1:
 RMSU=  5.72D-04    CP:  9.94D-01  1.13D+00
 E= -2048.68990903180     Delta-E=       -0.177906924984 Rises=F Damp=F
 DIIS: error= 8.38D-03 at cycle   3 NSaved=   3.
 NSaved= 3 IEnMin= 3 EnMin= -2048.68990903180     IErMin= 3 ErrMin= 8.38D-03
 ErrMax= 8.38D-03  0.00D+00 EMaxC= 1.00D-01 BMatC= 6.28D-02 BMatP= 1.45D-01
 IDIUse=3 WtCom= 9.16D-01 WtEn= 8.38D-02
 Coeff-Com: -0.234D+00 0.551D+00 0.682D+00
 Coeff-En:   0.000D+00 0.000D+00 0.100D+01
 Coeff:     -0.214D+00 0.505D+00 0.709D+00
 Gap=     0.278 Goal=   None    Shift=    0.000
 RMSDP=3.59D-04 MaxDP=3.38D-02 DE=-1.78D-01 OVMax= 7.15D-02

 Cycle   4  Pass 0  IDiag  1:
 RMSU=  2.03D-04    CP:  9.94D-01  1.42D+00  6.66D-01
 E= -2048.73722754602     Delta-E=       -0.047318514220 Rises=F Damp=F
 DIIS: error= 3.20D-03 at cycle   4 NSaved=   4.
 NSaved= 4 IEnMin= 4 EnMin= -2048.73722754602     IErMin= 4 ErrMin= 3.20D-03
 ErrMax= 3.20D-03  0.00D+00 EMaxC= 1.00D-01 BMatC= 9.42D-03 BMatP= 6.28D-02
 IDIUse=3 WtCom= 9.68D-01 WtEn= 3.20D-02
 Coeff-Com: -0.959D-01 0.186D+00 0.382D+00 0.528D+00
 Coeff-En:   0.000D+00 0.000D+00 0.737D-01 0.926D+00
 Coeff:     -0.928D-01 0.180D+00 0.372D+00 0.541D+00
 Gap=     0.282 Goal=   None    Shift=    0.000
 RMSDP=1.29D-04 MaxDP=1.21D-02 DE=-4.73D-02 OVMax= 1.52D-02

 Cycle   5  Pass 0  IDiag  1:
 RMSU=  6.14D-05    CP:  9.94D-01  1.39D+00  8.03D-01  6.11D-01
 E= -2048.74503393644     Delta-E=       -0.007806390423 Rises=F Damp=F
 DIIS: error= 6.18D-04 at cycle   5 NSaved=   5.
 NSaved= 5 IEnMin= 5 EnMin= -2048.74503393644     IErMin= 5 ErrMin= 6.18D-04
 ErrMax= 6.18D-04  0.00D+00 EMaxC= 1.00D-01 BMatC= 2.94D-04 BMatP= 9.42D-03
 IDIUse=3 WtCom= 9.94D-01 WtEn= 6.18D-03
 Coeff-Com: -0.242D-01 0.414D-01 0.122D+00 0.239D+00 0.622D+00
 Coeff-En:   0.000D+00 0.000D+00 0.000D+00 0.000D+00 0.100D+01
 Coeff:     -0.241D-01 0.412D-01 0.121D+00 0.237D+00 0.625D+00
 Gap=     0.282 Goal=   None    Shift=    0.000
 RMSDP=2.62D-05 MaxDP=1.94D-03 DE=-7.81D-03 OVMax= 3.29D-03

 Failed to achieve initial convergence to 1.0D-08 in  6 cycles.
 Switch to full accuracy anyway.
 Cycle   6  Pass 1  IDiag  1:
 E= -2048.74532084413     Delta-E=       -0.000286907692 Rises=F Damp=F
 DIIS: error= 2.77D-04 at cycle   1 NSaved=   1.
 NSaved= 1 IEnMin= 1 EnMin= -2048.74532084413     IErMin= 1 ErrMin= 2.77D-04
 ErrMax= 2.77D-04  0.00D+00 EMaxC= 1.00D-01 BMatC= 7.30D-05 BMatP= 7.30D-05
 IDIUse=3 WtCom= 9.97D-01 WtEn= 2.77D-03
 Coeff-Com:  0.100D+01
 Coeff-En:   0.100D+01
 Coeff:      0.100D+01
 Gap=     0.282 Goal=   None    Shift=    0.000
 RMSDP=2.62D-05 MaxDP=1.94D-03 DE=-2.87D-04 OVMax= 2.69D-03

 Cycle   7  Pass 1  IDiag  1:
 RMSU=  1.06D-04    CP:  1.00D+00
 E= -2048.74537369866     Delta-E=       -0.000052854528 Rises=F Damp=F
 DIIS: error= 2.67D-04 at cycle   2 NSaved=   2.
 NSaved= 2 IEnMin= 2 EnMin= -2048.74537369866     IErMin= 2 ErrMin= 2.67D-04
 ErrMax= 2.67D-04  0.00D+00 EMaxC= 1.00D-01 BMatC= 4.19D-05 BMatP= 7.30D-05
 IDIUse=3 WtCom= 9.97D-01 WtEn= 2.67D-03
 Coeff-Com:  0.407D+00 0.593D+00
 Coeff-En:   0.000D+00 0.100D+01
 Coeff:      0.406D+00 0.594D+00
 Gap=     0.282 Goal=   None    Shift=    0.000
 RMSDP=1.11D-05 MaxDP=1.09D-03 DE=-5.29D-05 OVMax= 1.50D-03

 Cycle   8  Pass 1  IDiag  1:
 RMSU=  1.08D-05    CP:  1.00D+00  1.02D+00
 E= -2048.74540415381     Delta-E=       -0.000030455148 Rises=F Damp=F
 DIIS: error= 1.13D-04 at cycle   3 NSaved=   3.
 NSaved= 3 IEnMin= 3 EnMin= -2048.74540415381     IErMin= 3 ErrMin= 1.13D-04
 ErrMax= 1.13D-04  0.00D+00 EMaxC= 1.00D-01 BMatC= 9.80D-06 BMatP= 4.19D-05
 IDIUse=3 WtCom= 9.99D-01 WtEn= 1.13D-03
 Coeff-Com: -0.189D-01 0.313D+00 0.706D+00
 Coeff-En:   0.000D+00 0.132D+00 0.868D+00
 Coeff:     -0.189D-01 0.312D+00 0.707D+00
 Gap=     0.282 Goal=   None    Shift=    0.000
 RMSDP=5.46D-06 MaxDP=4.49D-04 DE=-3.05D-05 OVMax= 5.59D-04

 Cycle   9  Pass 1  IDiag  1:
 RMSU=  3.76D-06    CP:  1.00D+00  1.05D+00  7.65D-01
 E= -2048.74541335924     Delta-E=       -0.000009205431 Rises=F Damp=F
 DIIS: error= 4.26D-05 at cycle   4 NSaved=   4.
 NSaved= 4 IEnMin= 4 EnMin= -2048.74541335924     IErMin= 4 ErrMin= 4.26D-05
 ErrMax= 4.26D-05  0.00D+00 EMaxC= 1.00D-01 BMatC= 4.90D-07 BMatP= 9.80D-06
 IDIUse=1 WtCom= 1.00D+00 WtEn= 0.00D+00
 Coeff-Com: -0.307D-01 0.851D-01 0.262D+00 0.684D+00
 Coeff:     -0.307D-01 0.851D-01 0.262D+00 0.684D+00
 Gap=     0.282 Goal=   None    Shift=    0.000
 RMSDP=1.41D-06 MaxDP=1.41D-04 DE=-9.21D-06 OVMax= 5.22D-04

 Cycle  10  Pass 1  IDiag  1:
 RMSU=  1.27D-06    CP:  1.00D+00  1.06D+00  7.99D-01  1.10D+00
 E= -2048.74541417446     Delta-E=       -0.000000815227 Rises=F Damp=F
 DIIS: error= 1.67D-05 at cycle   5 NSaved=   5.
 NSaved= 5 IEnMin= 5 EnMin= -2048.74541417446     IErMin= 5 ErrMin= 1.67D-05
 ErrMax= 1.67D-05  0.00D+00 EMaxC= 1.00D-01 BMatC= 1.18D-07 BMatP= 4.90D-07
 IDIUse=1 WtCom= 1.00D+00 WtEn= 0.00D+00
 Coeff-Com: -0.327D-02-0.557D-01-0.119D+00 0.209D+00 0.969D+00
 Coeff:     -0.327D-02-0.557D-01-0.119D+00 0.209D+00 0.969D+00
 Gap=     0.282 Goal=   None    Shift=    0.000
 RMSDP=1.18D-06 MaxDP=7.54D-05 DE=-8.15D-07 OVMax= 2.47D-04

 Cycle  11  Pass 1  IDiag  1:
 RMSU=  4.88D-07    CP:  1.00D+00  1.06D+00  8.11D-01  1.37D+00  1.17D+00
 E= -2048.74541442507     Delta-E=       -0.000000250608 Rises=F Damp=F
 DIIS: error= 1.11D-05 at cycle   6 NSaved=   6.
 NSaved= 6 IEnMin= 6 EnMin= -2048.74541442507     IErMin= 6 ErrMin= 1.11D-05
 ErrMax= 1.11D-05  0.00D+00 EMaxC= 1.00D-01 BMatC= 2.73D-08 BMatP= 1.18D-07
 IDIUse=1 WtCom= 1.00D+00 WtEn= 0.00D+00
 Coeff-Com:  0.453D-02-0.450D-01-0.114D+00 0.928D-04 0.516D+00 0.638D+00
 Coeff:      0.453D-02-0.450D-01-0.114D+00 0.928D-04 0.516D+00 0.638D+00
 Gap=     0.282 Goal=   None    Shift=    0.000
 RMSDP=3.60D-07 MaxDP=3.77D-05 DE=-2.51D-07 OVMax= 1.34D-04

 Cycle  12  Pass 1  IDiag  1:
 RMSU=  1.80D-07    CP:  1.00D+00  1.06D+00  8.12D-01  1.44D+00  1.29D+00
                    CP:  9.32D-01
 E= -2048.74541446523     Delta-E=       -0.000000040157 Rises=F Damp=F
 DIIS: error= 1.45D-06 at cycle   7 NSaved=   7.
 NSaved= 7 IEnMin= 7 EnMin= -2048.74541446523     IErMin= 7 ErrMin= 1.45D-06
 ErrMax= 1.45D-06  0.00D+00 EMaxC= 1.00D-01 BMatC= 8.48D-10 BMatP= 2.73D-08
 IDIUse=1 WtCom= 1.00D+00 WtEn= 0.00D+00
 Coeff-Com:  0.119D-02-0.823D-02-0.223D-01-0.761D-02 0.663D-01 0.153D+00
 Coeff-Com:  0.817D+00
 Coeff:      0.119D-02-0.823D-02-0.223D-01-0.761D-02 0.663D-01 0.153D+00
 Coeff:      0.817D+00
 Gap=     0.282 Goal=   None    Shift=    0.000
 RMSDP=8.27D-08 MaxDP=5.07D-06 DE=-4.02D-08 OVMax= 2.27D-05

 Cycle  13  Pass 1  IDiag  1:
 RMSU=  5.01D-08    CP:  1.00D+00  1.06D+00  8.12D-01  1.45D+00  1.31D+00
                    CP:  1.02D+00  1.13D+00
 E= -2048.74541446665     Delta-E=       -0.000000001418 Rises=F Damp=F
 DIIS: error= 1.06D-06 at cycle   8 NSaved=   8.
 NSaved= 8 IEnMin= 8 EnMin= -2048.74541446665     IErMin= 8 ErrMin= 1.06D-06
 ErrMax= 1.06D-06  0.00D+00 EMaxC= 1.00D-01 BMatC= 3.39D-10 BMatP= 8.48D-10
 IDIUse=1 WtCom= 1.00D+00 WtEn= 0.00D+00
 Coeff-Com: -0.648D-03 0.830D-02 0.200D-01-0.232D-02-0.109D+00-0.929D-01
 Coeff-Com:  0.423D+00 0.754D+00
 Coeff:     -0.648D-03 0.830D-02 0.200D-01-0.232D-02-0.109D+00-0.929D-01
 Coeff:      0.423D+00 0.754D+00
 Gap=     0.282 Goal=   None    Shift=    0.000
 RMSDP=4.69D-08 MaxDP=2.90D-06 DE=-1.42D-09 OVMax= 1.18D-05

 Cycle  14  Pass 1  IDiag  1:
 RMSU=  2.76D-08    CP:  1.00D+00  1.06D+00  8.12D-01  1.46D+00  1.32D+00
                    CP:  1.06D+00  1.28D+00  1.06D+00
 E= -2048.74541446710     Delta-E=       -0.000000000450 Rises=F Damp=F
 DIIS: error= 2.67D-07 at cycle   9 NSaved=   9.
 NSaved= 9 IEnMin= 9 EnMin= -2048.74541446710     IErMin= 9 ErrMin= 2.67D-07
 ErrMax= 2.67D-07  0.00D+00 EMaxC= 1.00D-01 BMatC= 3.70D-11 BMatP= 3.39D-10
 IDIUse=1 WtCom= 1.00D+00 WtEn= 0.00D+00
 Coeff-Com: -0.436D-03 0.481D-02 0.119D-01 0.197D-03-0.572D-01-0.605D-01
 Coeff-Com:  0.910D-01 0.324D+00 0.686D+00
 Coeff:     -0.436D-03 0.481D-02 0.119D-01 0.197D-03-0.572D-01-0.605D-01
 Coeff:      0.910D-01 0.324D+00 0.686D+00
 Gap=     0.282 Goal=   None    Shift=    0.000
 RMSDP=1.41D-08 MaxDP=7.95D-07 DE=-4.50D-10 OVMax= 3.61D-06

 Cycle  15  Pass 1  IDiag  1:
 RMSU=  9.54D-09    CP:  1.00D+00  1.06D+00  8.12D-01  1.46D+00  1.32D+00
                    CP:  1.07D+00  1.31D+00  1.20D+00  1.09D+00
 E= -2048.74541446711     Delta-E=       -0.000000000013 Rises=F Damp=F
 DIIS: error= 8.25D-08 at cycle  10 NSaved=  10.
 NSaved=10 IEnMin=10 EnMin= -2048.74541446711     IErMin=10 ErrMin= 8.25D-08
 ErrMax= 8.25D-08  0.00D+00 EMaxC= 1.00D-01 BMatC= 5.31D-12 BMatP= 3.70D-11
 IDIUse=1 WtCom= 1.00D+00 WtEn= 0.00D+00
 Coeff-Com: -0.101D-04-0.150D-03-0.258D-03 0.188D-03 0.352D-02-0.781D-03
 Coeff-Com: -0.518D-01-0.480D-01 0.251D+00 0.846D+00
 Coeff:     -0.101D-04-0.150D-03-0.258D-03 0.188D-03 0.352D-02-0.781D-03
 Coeff:     -0.518D-01-0.480D-01 0.251D+00 0.846D+00
 Gap=     0.282 Goal=   None    Shift=    0.000
 RMSDP=6.92D-09 MaxDP=4.11D-07 DE=-1.27D-11 OVMax= 1.57D-06

 SCF Done:  E(RwB97XD) =  -2048.74541447     A.U. after   15 cycles
            NFock= 15  Conv=0.69D-08     -V/T= 2.0054
 KE= 2.037756808885D+03 PE=-1.585359142592D+04 EE= 6.230703760102D+03
 Leave Link  502 at Mon Jan 22 14:54:56 2018, MaxMem=  4294967296 cpu:           21581.0 elap:             696.2
 (Enter /share/apps/g16/l601.exe)
 Copying SCF densities to generalized density rwf, IOpCl= 0 IROHF=0.

 **********************************************************************

            Population analysis using the SCF density.

 **********************************************************************

 Orbital symmetries:
       Occupied  (A) (A) (A) (A) (A) (A) (A) (A) (A) (A) (A) (A)
                 (A) (A) (A) (A) (A) (A) (A) (A) (A) (A) (A) (A)
                 (A) (A) (A) (A) (A) (A) (A) (A) (A) (A) (A) (A)
                 (A) (A) (A) (A) (A) (A) (A) (A) (A) (A) (A) (A)
                 (A) (A) (A) (A) (A) (A) (A) (A) (A) (A) (A) (A)
                 (A) (A) (A) (A) (A) (A) (A) (A) (A) (A) (A) (A)
                 (A) (A) (A) (A) (A) (A) (A) (A) (A) (A) (A) (A)
                 (A) (A) (A) (A) (A) (A) (A) (A) (A) (A) (A) (A)
                 (A) (A) (A) (A) (A) (A) (A) (A) (A) (A) (A) (A)
                 (A) (A) (A) (A) (A) (A) (A) (A) (A) (A) (A) (A)
                 (A) (A) (A) (A) (A) (A) (A) (A) (A) (A) (A) (A)
                 (A) (A) (A) (A) (A) (A) (A) (A) (A) (A) (A) (A)
                 (A) (A) (A) (A) (A) (A) (A) (A) (A) (A)
       Virtual   (A) (A) (A) (A) (A) (A) (A) (A) (A) (A) (A) (A)
                 (A) (A) (A) (A) (A) (A) (A) (A) (A) (A) (A) (A)
                 (A) (A) (A) (A) (A) (A) (A) (A) (A) (A) (A) (A)
                 (A) (A) (A) (A) (A) (A) (A) (A) (A) (A) (A) (A)
                 (A) (A) (A) (A) (A) (A) (A) (A) (A) (A) (A) (A)
                 (A) (A) (A) (A) (A) (A) (A) (A) (A) (A) (A) (A)
                 (A) (A) (A) (A) (A) (A) (A) (A) (A) (A) (A) (A)
                 (A) (A) (A) (A) (A) (A) (A) (A) (A) (A) (A) (A)
                 (A) (A) (A) (A) (A) (A) (A) (A) (A) (A) (A) (A)
                 (A) (A) (A) (A) (A) (A) (A) (A) (A) (A) (A) (A)
                 (A) (A) (A) (A) (A) (A) (A) (A) (A) (A) (A) (A)
                 (A) (A) (A) (A) (A) (A) (A) (A) (A) (A) (A) (A)
                 (A) (A) (A) (A) (A) (A) (A) (A) (A) (A) (A) (A)
                 (A) (A) (A) (A) (A) (A) (A) (A) (A) (A) (A) (A)
                 (A) (A) (A) (A) (A) (A) (A) (A) (A) (A) (A) (A)
                 (A) (A) (A) (A) (A) (A) (A) (A) (A) (A) (A) (A)
                 (A) (A) (A) (A) (A) (A) (A) (A) (A) (A) (A) (A)
                 (A) (A) (A) (A) (A) (A) (A) (A) (A) (A) (A) (A)
                 (A) (A) (A) (A) (A) (A) (A) (A) (A) (A) (A) (A)
                 (A) (A) (A) (A) (A) (A) (A) (A) (A) (A) (A) (A)
                 (A) (A) (A) (A) (A) (A) (A) (A) (A) (A) (A) (A)
                 (A) (A) (A) (A) (A) (A) (A) (A) (A) (A) (A) (A)
                 (A) (A) (A) (A) (A) (A) (A) (A) (A) (A) (A) (A)
                 (A) (A) (A) (A) (A) (A) (A) (A) (A) (A) (A) (A)
                 (A) (A) (A) (A) (A) (A) (A) (A) (A) (A) (A) (A)
                 (A) (A) (A) (A) (A) (A) (A) (A) (A) (A) (A) (A)
                 (A) (A) (A) (A) (A) (A) (A) (A) (A) (A) (A) (A)
                 (A) (A) (A) (A) (A) (A) (A) (A) (A) (A) (A) (A)
                 (A) (A) (A) (A) (A) (A) (A) (A) (A) (A) (A) (A)
                 (A) (A) (A) (A) (A) (A) (A) (A) (A) (A) (A) (A)
                 (A) (A) (A) (A) (A) (A) (A) (A) (A) (A) (A) (A)
                 (A) (A) (A) (A) (A) (A) (A) (A) (A) (A) (A) (A)
                 (A) (A) (A) (A) (A) (A) (A) (A) (A) (A) (A) (A)
                 (A) (A) (A) (A) (A) (A) (A) (A) (A) (A) (A) (A)
                 (A) (A) (A) (A) (A) (A) (A) (A) (A) (A) (A) (A)
                 (A) (A) (A) (A) (A) (A) (A) (A) (A) (A) (A) (A)
                 (A) (A) (A) (A) (A) (A) (A) (A) (A) (A) (A) (A)
                 (A) (A) (A) (A) (A) (A) (A) (A) (A) (A) (A) (A)
                 (A) (A) (A) (A) (A) (A) (A) (A) (A) (A) (A) (A)
                 (A) (A) (A) (A) (A) (A) (A) (A) (A) (A) (A) (A)
                 (A) (A) (A) (A) (A) (A) (A) (A) (A) (A) (A) (A)
                 (A) (A) (A) (A) (A) (A) (A) (A) (A) (A) (A) (A)
                 (A) (A) (A) (A) (A) (A) (A) (A) (A) (A) (A) (A)
                 (A) (A) (A) (A) (A) (A) (A) (A) (A) (A) (A) (A)
                 (A) (A) (A) (A) (A) (A) (A) (A) (A) (A) (A) (A)
                 (A) (A) (A) (A) (A) (A) (A) (A) (A) (A) (A) (A)
                 (A) (A) (A) (A) (A) (A) (A) (A) (A) (A) (A) (A)
                 (A) (A) (A) (A) (A) (A) (A) (A) (A) (A) (A) (A)
                 (A) (A) (A) (A) (A) (A) (A)
 The electronic state is 1-A.
 Alpha  occ. eigenvalues --  -19.25867 -19.21973 -19.20524 -14.52377 -14.52030
 Alpha  occ. eigenvalues --  -14.49102 -14.48504 -14.47824 -14.47430 -14.46650
 Alpha  occ. eigenvalues --  -14.46265 -14.45060 -14.43608 -14.43427 -14.42570
 Alpha  occ. eigenvalues --  -14.41891 -14.41696 -14.41373 -14.40650 -14.40530
 Alpha  occ. eigenvalues --  -10.45475 -10.40918 -10.40103 -10.39298 -10.38048
 Alpha  occ. eigenvalues --  -10.37729 -10.37591 -10.36650 -10.35761 -10.35288
 Alpha  occ. eigenvalues --  -10.35244 -10.34359 -10.34125 -10.33972 -10.33683
 Alpha  occ. eigenvalues --  -10.33482 -10.33115 -10.31982 -10.31336 -10.31011
 Alpha  occ. eigenvalues --  -10.30459 -10.28825 -10.27888  -1.19450  -1.14723
 Alpha  occ. eigenvalues --   -1.13080  -1.12999  -1.11665  -1.10392  -1.09265
 Alpha  occ. eigenvalues --   -1.08637  -1.08341  -1.05346  -1.04165  -1.02465
 Alpha  occ. eigenvalues --   -1.00797  -1.00554  -0.99481  -0.98392  -0.97284
 Alpha  occ. eigenvalues --   -0.96347  -0.96171  -0.93015  -0.90985  -0.87206
 Alpha  occ. eigenvalues --   -0.85670  -0.84275  -0.83853  -0.83653  -0.82648
 Alpha  occ. eigenvalues --   -0.82191  -0.78807  -0.76522  -0.74421  -0.74299
 Alpha  occ. eigenvalues --   -0.73472  -0.73307  -0.73227  -0.71412  -0.69925
 Alpha  occ. eigenvalues --   -0.67166  -0.66641  -0.66502  -0.66258  -0.64380
 Alpha  occ. eigenvalues --   -0.63801  -0.63597  -0.63044  -0.62600  -0.61504
 Alpha  occ. eigenvalues --   -0.60602  -0.60463  -0.60057  -0.59439  -0.59103
 Alpha  occ. eigenvalues --   -0.58884  -0.58111  -0.56972  -0.56803  -0.56387
 Alpha  occ. eigenvalues --   -0.55930  -0.55731  -0.55069  -0.54657  -0.54291
 Alpha  occ. eigenvalues --   -0.53890  -0.53476  -0.53072  -0.52781  -0.52734
 Alpha  occ. eigenvalues --   -0.52468  -0.52260  -0.52096  -0.51121  -0.50542
 Alpha  occ. eigenvalues --   -0.49983  -0.49560  -0.49392  -0.48933  -0.48825
 Alpha  occ. eigenvalues --   -0.48662  -0.48245  -0.48046  -0.47502  -0.47287
 Alpha  occ. eigenvalues --   -0.47278  -0.45529  -0.45169  -0.44082  -0.43851
 Alpha  occ. eigenvalues --   -0.41529  -0.40397  -0.39440  -0.37558  -0.37404
 Alpha  occ. eigenvalues --   -0.37240  -0.37123  -0.36741  -0.35858  -0.34355
 Alpha  occ. eigenvalues --   -0.33973  -0.33896  -0.33718  -0.33172  -0.33107
 Alpha  occ. eigenvalues --   -0.32556  -0.32205  -0.31896  -0.31717  -0.31290
 Alpha  occ. eigenvalues --   -0.30759  -0.29234  -0.26063  -0.25147
 Alpha virt. eigenvalues --    0.03068   0.04647   0.07342   0.07693   0.08754
 Alpha virt. eigenvalues --    0.09350   0.09866   0.10595   0.10887   0.11269
 Alpha virt. eigenvalues --    0.13019   0.13930   0.14379   0.14710   0.14869
 Alpha virt. eigenvalues --    0.15628   0.16077   0.16891   0.17293   0.18194
 Alpha virt. eigenvalues --    0.18610   0.19182   0.19619   0.20147   0.20378
 Alpha virt. eigenvalues --    0.20687   0.21287   0.21587   0.21781   0.21914
 Alpha virt. eigenvalues --    0.22559   0.23122   0.23660   0.23761   0.23977
 Alpha virt. eigenvalues --    0.24033   0.24379   0.24529   0.24952   0.25614
 Alpha virt. eigenvalues --    0.25799   0.26675   0.27048   0.27186   0.28257
 Alpha virt. eigenvalues --    0.28624   0.29184   0.29687   0.30304   0.30803
 Alpha virt. eigenvalues --    0.31173   0.32117   0.32736   0.32974   0.33727
 Alpha virt. eigenvalues --    0.33778   0.34169   0.34879   0.35976   0.36384
 Alpha virt. eigenvalues --    0.37017   0.37478   0.37836   0.39308   0.39450
 Alpha virt. eigenvalues --    0.40011   0.40297   0.41206   0.41386   0.41796
 Alpha virt. eigenvalues --    0.42259   0.42281   0.43095   0.44318   0.44584
 Alpha virt. eigenvalues --    0.44959   0.45312   0.46038   0.46580   0.47211
 Alpha virt. eigenvalues --    0.47899   0.48140   0.48951   0.49284   0.49548
 Alpha virt. eigenvalues --    0.49918   0.50252   0.50599   0.51048   0.51189
 Alpha virt. eigenvalues --    0.51468   0.51720   0.52198   0.53247   0.54107
 Alpha virt. eigenvalues --    0.54249   0.54760   0.54803   0.54841   0.55530
 Alpha virt. eigenvalues --    0.55875   0.56328   0.56659   0.56920   0.57332
 Alpha virt. eigenvalues --    0.57717   0.58484   0.59003   0.59151   0.59694
 Alpha virt. eigenvalues --    0.60076   0.60476   0.60791   0.61084   0.61440
 Alpha virt. eigenvalues --    0.62064   0.62089   0.62961   0.63692   0.63710
 Alpha virt. eigenvalues --    0.64197   0.64783   0.65004   0.65013   0.65497
 Alpha virt. eigenvalues --    0.65837   0.66196   0.66590   0.67071   0.67299
 Alpha virt. eigenvalues --    0.67846   0.68499   0.68805   0.69250   0.69753
 Alpha virt. eigenvalues --    0.70154   0.70677   0.71513   0.71667   0.72392
 Alpha virt. eigenvalues --    0.72424   0.72737   0.73372   0.73563   0.73892
 Alpha virt. eigenvalues --    0.74501   0.74672   0.74886   0.75246   0.75584
 Alpha virt. eigenvalues --    0.75799   0.76456   0.76748   0.76842   0.77203
 Alpha virt. eigenvalues --    0.77546   0.77714   0.78055   0.78620   0.78884
 Alpha virt. eigenvalues --    0.79538   0.79605   0.79909   0.80441   0.80513
 Alpha virt. eigenvalues --    0.81140   0.82078   0.82437   0.83292   0.83571
 Alpha virt. eigenvalues --    0.84079   0.84204   0.84552   0.84729   0.85594
 Alpha virt. eigenvalues --    0.86209   0.86386   0.86523   0.87249   0.87338
 Alpha virt. eigenvalues --    0.88104   0.88998   0.89401   0.89573   0.90017
 Alpha virt. eigenvalues --    0.90217   0.91160   0.91475   0.91914   0.92335
 Alpha virt. eigenvalues --    0.92574   0.93166   0.93426   0.94019   0.94398
 Alpha virt. eigenvalues --    0.95198   0.95346   0.95847   0.96064   0.96747
 Alpha virt. eigenvalues --    0.97005   0.97744   0.98149   0.98948   0.99410
 Alpha virt. eigenvalues --    0.99620   1.00044   1.00481   1.00682   1.01453
 Alpha virt. eigenvalues --    1.02088   1.02501   1.02726   1.03279   1.03586
 Alpha virt. eigenvalues --    1.03726   1.04270   1.04828   1.05587   1.05890
 Alpha virt. eigenvalues --    1.06207   1.06607   1.07164   1.07776   1.08572
 Alpha virt. eigenvalues --    1.09015   1.09460   1.10467   1.10841   1.11566
 Alpha virt. eigenvalues --    1.11966   1.12719   1.12800   1.13030   1.13230
 Alpha virt. eigenvalues --    1.13604   1.14035   1.15252   1.15460   1.15726
 Alpha virt. eigenvalues --    1.16438   1.17031   1.17356   1.18429   1.18838
 Alpha virt. eigenvalues --    1.19019   1.19432   1.19657   1.20069   1.20431
 Alpha virt. eigenvalues --    1.20603   1.20966   1.21431   1.21447   1.22013
 Alpha virt. eigenvalues --    1.22337   1.22652   1.23076   1.23096   1.23805
 Alpha virt. eigenvalues --    1.24096   1.24494   1.24863   1.24989   1.25737
 Alpha virt. eigenvalues --    1.26392   1.27035   1.27467   1.27780   1.28976
 Alpha virt. eigenvalues --    1.29067   1.29858   1.30603   1.31472   1.31709
 Alpha virt. eigenvalues --    1.31779   1.32824   1.33332   1.33508   1.34021
 Alpha virt. eigenvalues --    1.35405   1.35665   1.36334   1.37779   1.38201
 Alpha virt. eigenvalues --    1.38599   1.39177   1.39701   1.39867   1.40553
 Alpha virt. eigenvalues --    1.41239   1.42294   1.42919   1.43633   1.44743
 Alpha virt. eigenvalues --    1.45433   1.46943   1.47112   1.48098   1.48650
 Alpha virt. eigenvalues --    1.49250   1.49971   1.50518   1.50539   1.50749
 Alpha virt. eigenvalues --    1.51528   1.52662   1.53193   1.53339   1.54444
 Alpha virt. eigenvalues --    1.55476   1.55708   1.56100   1.56739   1.57662
 Alpha virt. eigenvalues --    1.58146   1.59456   1.59873   1.60343   1.61713
 Alpha virt. eigenvalues --    1.61896   1.62519   1.62867   1.63468   1.63655
 Alpha virt. eigenvalues --    1.65221   1.65488   1.65900   1.66974   1.67470
 Alpha virt. eigenvalues --    1.67517   1.67812   1.68726   1.69131   1.69371
 Alpha virt. eigenvalues --    1.70278   1.70748   1.71137   1.71417   1.71948
 Alpha virt. eigenvalues --    1.72162   1.73132   1.73395   1.73945   1.74112
 Alpha virt. eigenvalues --    1.74481   1.74635   1.75007   1.75266   1.75484
 Alpha virt. eigenvalues --    1.76050   1.76287   1.76692   1.77332   1.77833
 Alpha virt. eigenvalues --    1.77904   1.78538   1.78633   1.78919   1.79296
 Alpha virt. eigenvalues --    1.79638   1.79896   1.80194   1.80365   1.80565
 Alpha virt. eigenvalues --    1.81267   1.81652   1.82100   1.82185   1.82721
 Alpha virt. eigenvalues --    1.83442   1.83851   1.84199   1.84544   1.84761
 Alpha virt. eigenvalues --    1.85476   1.86826   1.87079   1.87322   1.87565
 Alpha virt. eigenvalues --    1.87784   1.88037   1.88657   1.89293   1.89484
 Alpha virt. eigenvalues --    1.89712   1.90744   1.91235   1.92242   1.92525
 Alpha virt. eigenvalues --    1.92923   1.93076   1.93387   1.93993   1.94409
 Alpha virt. eigenvalues --    1.95340   1.95626   1.95870   1.97648   1.98016
 Alpha virt. eigenvalues --    1.99036   1.99804   2.00909   2.01169   2.01799
 Alpha virt. eigenvalues --    2.02036   2.02589   2.03589   2.04269   2.04898
 Alpha virt. eigenvalues --    2.05215   2.05842   2.05933   2.07030   2.07690
 Alpha virt. eigenvalues --    2.07970   2.08761   2.09360   2.09848   2.09960
 Alpha virt. eigenvalues --    2.10582   2.11194   2.11926   2.13003   2.13618
 Alpha virt. eigenvalues --    2.14465   2.14514   2.15285   2.17061   2.17807
 Alpha virt. eigenvalues --    2.19662   2.19837   2.20027   2.21005   2.21208
 Alpha virt. eigenvalues --    2.21519   2.21782   2.22869   2.23383   2.24027
 Alpha virt. eigenvalues --    2.24441   2.25284   2.26459   2.26478   2.27183
 Alpha virt. eigenvalues --    2.27509   2.28001   2.28773   2.29267   2.29631
 Alpha virt. eigenvalues --    2.30456   2.31035   2.31194   2.32073   2.32975
 Alpha virt. eigenvalues --    2.33418   2.33622   2.33844   2.34609   2.34912
 Alpha virt. eigenvalues --    2.35294   2.35544   2.36618   2.37126   2.37744
 Alpha virt. eigenvalues --    2.38396   2.39089   2.39708   2.40699   2.41409
 Alpha virt. eigenvalues --    2.41832   2.42209   2.43064   2.43206   2.43746
 Alpha virt. eigenvalues --    2.45003   2.45419   2.46107   2.46378   2.46940
 Alpha virt. eigenvalues --    2.47252   2.48081   2.49685   2.50216   2.51984
 Alpha virt. eigenvalues --    2.52270   2.53874   2.55325   2.55578   2.56015
 Alpha virt. eigenvalues --    2.56556   2.57386   2.57999   2.59299   2.60298
 Alpha virt. eigenvalues --    2.61597   2.62139   2.62424   2.62990   2.63803
 Alpha virt. eigenvalues --    2.64617   2.65091   2.65685   2.65722   2.66056
 Alpha virt. eigenvalues --    2.67496   2.68085   2.68740   2.69220   2.69860
 Alpha virt. eigenvalues --    2.70395   2.71363   2.71497   2.72094   2.72499
 Alpha virt. eigenvalues --    2.73293   2.74547   2.74857   2.75398   2.75637
 Alpha virt. eigenvalues --    2.77678   2.78431   2.79271   2.79735   2.80040
 Alpha virt. eigenvalues --    2.80116   2.80280   2.80611   2.81294   2.81601
 Alpha virt. eigenvalues --    2.82472   2.82827   2.82932   2.84155   2.84423
 Alpha virt. eigenvalues --    2.84834   2.85295   2.86560   2.86915   2.87123
 Alpha virt. eigenvalues --    2.88633   2.88966   2.89165   2.92300   2.94046
 Alpha virt. eigenvalues --    2.95140   2.96159   2.97575   2.98069   2.99165
 Alpha virt. eigenvalues --    3.00303   3.01181   3.01838   3.04959   3.06399
 Alpha virt. eigenvalues --    3.07131   3.10041   3.10931   3.13587   3.14752
 Alpha virt. eigenvalues --    3.15121   3.15949   3.16877   3.18426   3.20615
 Alpha virt. eigenvalues --    3.22144   3.23378   3.23689   3.24193   3.27192
 Alpha virt. eigenvalues --    3.45371   3.47437   3.48044   3.49469   3.50487
 Alpha virt. eigenvalues --    3.53347   3.54455   3.56452   3.58076   3.60290
 Alpha virt. eigenvalues --    3.63617   3.70683   3.74900
          Condensed to atoms (all electrons):
 Mulliken charges:
               1
     1  N   -0.312353
     2  C    0.180287
     3  C    0.054725
     4  N   -0.258762
     5  C    0.133920
     6  H    0.027324
     7  N   -0.282999
     8  C    0.132320
     9  H    0.012374
    10  N   -0.290553
    11  C    0.233406
    12  C    0.110105
    13  N   -0.050050
    14  H    0.109288
    15  H    0.088781
    16  H    0.026780
    17  H    0.032426
    18  H    0.025716
    19  N   -0.300977
    20  C    0.247844
    21  C    0.178714
    22  N   -0.094123
    23  H    0.110872
    24  H    0.112968
    25  N   -0.301436
    26  C    0.217977
    27  N   -0.135204
    28  H    0.120331
    29  C    0.155470
    30  O   -0.321962
    31  C    0.010902
    32  N   -0.223851
    33  C    0.124874
    34  H    0.021792
    35  H    0.029860
    36  H    0.026463
    37  H    0.022466
    38  H    0.057176
    39  H    0.061428
    40  H    0.068808
    41  H    0.029020
    42  C   -0.116769
    43  O   -0.268301
    44  C    0.172179
    45  H    0.134179
    46  N   -0.127820
    47  O   -0.344498
    48  C    0.349665
    49  H    0.047279
    50  C    0.180101
    51  C    0.041837
    52  N   -0.284998
    53  H    0.035723
    54  H    0.033973
    55  H    0.023694
    56  H    0.124995
    57  H    0.117021
    58  N   -0.060859
    59  C    0.107156
    60  C    0.247843
    61  N   -0.279684
    62  H    0.036451
    63  C    0.170356
    64  N   -0.301883
    65  H    0.034347
    66  C    0.117880
    67  N   -0.256650
    68  C    0.002939
    69  C    0.177652
    70  N   -0.305961
 Sum of Mulliken charges =  -0.00000
 Mulliken charges with hydrogens summed into heavy atoms:
               1
     1  N   -0.312353
     2  C    0.265210
     3  C    0.054725
     4  N   -0.258762
     5  C    0.161244
     7  N   -0.282999
     8  C    0.144694
    10  N   -0.290553
    11  C    0.233406
    12  C    0.110105
    13  N    0.148019
    19  N   -0.300977
    20  C    0.247844
    21  C    0.257504
    22  N    0.129717
    25  N   -0.301436
    26  C    0.217977
    27  N   -0.014872
    29  C    0.155470
    30  O   -0.321962
    31  C    0.010902
    32  N   -0.223851
    33  C    0.146667
    42  C   -0.087749
    43  O   -0.268301
    44  C    0.172179
    46  N    0.006359
    47  O   -0.344498
    48  C    0.349665
    50  C    0.227380
    51  C    0.229249
    52  N   -0.284998
    58  N    0.181157
    59  C    0.107156
    60  C    0.247843
    61  N   -0.279684
    63  C    0.206807
    64  N   -0.301883
    66  C    0.152228
    67  N   -0.256650
    68  C    0.002939
    69  C    0.271042
    70  N   -0.305961
 Electronic spatial extent (au):  <R**2>=          22454.4631
 Charge=             -0.0000 electrons
 Dipole moment (field-independent basis, Debye):
    X=              6.9172    Y=              6.1526    Z=              3.0962  Tot=              9.7616
 Quadrupole moment (field-independent basis, Debye-Ang):
   XX=           -145.9782   YY=           -224.5199   ZZ=           -255.9221
   XY=              7.7878   XZ=              7.6282   YZ=             -9.0191
 Traceless Quadrupole moment (field-independent basis, Debye-Ang):
   XX=             62.8285   YY=            -15.7132   ZZ=            -47.1154
   XY=              7.7878   XZ=              7.6282   YZ=             -9.0191
 Octapole moment (field-independent basis, Debye-Ang**2):
  XXX=            -36.9194  YYY=             99.8792  ZZZ=              9.5580  XYY=             62.0059
  XXY=             17.2326  XXZ=            -46.3965  XZZ=             32.6981  YZZ=             38.4972
  YYZ=             59.2453  XYZ=             47.7929
 Hexadecapole moment (field-independent basis, Debye-Ang**3):
 XXXX=         -15362.0375 YYYY=          -5044.8192 ZZZZ=          -3456.6866 XXXY=            510.7188
 XXXZ=            -15.4831 YYYX=             24.0013 YYYZ=            -96.4611 ZZZX=             41.8021
 ZZZY=             15.2560 XXYY=          -3801.8780 XXZZ=          -3969.5697 YYZZ=          -1475.1792
 XXYZ=             90.0714 YYXZ=            209.3355 ZZXY=             69.1517
 N-N= 5.536385442467D+03 E-N=-1.585359142272D+04  KE= 2.037756808885D+03
 No NMR shielding tensors so no spin-rotation constants.
 Leave Link  601 at Mon Jan 22 14:54:58 2018, MaxMem=  4294967296 cpu:              46.0 elap:               1.6
 (Enter /share/apps/g16/l9999.exe)
 1\1\GINC-COMPUTE-0-3\SP\RwB97XD\CC-pVDZ\C23H27N17O3\SATYA\22-Jan-2018\
 0\\#p wb97xd/cc-pvdz sp scf=(maxcycles=20)\\Base pair stacking\\0,1\N,
 0,5.4503,4.96281,-6.85581\C,0,6.15045,6.25972,-6.93212\C,0,3.89717,3.4
 132,-6.70146\N,0,5.10704,2.74154,-6.80058\C,0,5.99431,3.702,-6.88961\H
 ,0,7.06949,3.54615,-6.98266\N,0,1.59635,3.89295,-6.50398\C,0,1.93965,5
 .18435,-6.54877\H,0,1.11111,5.88829,-6.48363\N,0,3.1471,5.73416,-6.661
 41\C,0,4.09279,4.78294,-6.7341\C,0,2.5709,2.9604,-6.57943\N,0,2.23019,
 1.67079,-6.53489\H,0,2.91849,0.94643,-6.58744\H,0,1.27585,1.38488,-6.4
 4753\H,0,6.65055,6.31974,-7.79611\H,0,5.48375,7.00275,-6.88169\H,0,6.7
 9361,6.33898,-6.17051\N,0,1.7594,5.6241,-3.28468\C,0,0.75367,4.68963,-
 3.22701\C,0,1.5638,7.08712,-3.32959\N,0,-2.63011,3.91571,-3.11384\H,0,
 -3.19783,3.09405,-3.07125\H,0,-3.10588,4.79551,-3.13166\N,0,-0.57155,4
 .94886,-3.20187\C,0,-1.2909,3.84207,-3.14566\N,0,-0.75537,2.57722,-3.1
 1623\H,0,-1.38191,1.78819,-3.07324\C,0,0.60513,2.28692,-3.14121\O,0,0.
 98424,1.1096,-3.11075\C,0,1.39069,3.46596,-3.20158\N,0,2.76861,3.62893
 ,-3.24247\C,0,2.94004,4.92217,-3.291\H,0,3.91,5.41885,-3.33282\H,0,1.9
 6407,7.45298,-4.16908\H,0,0.58591,7.29122,-3.31148\H,0,2.00587,7.50862
 ,-2.53856\H,0,-5.03483,-1.72164,-3.50912\H,0,-4.80654,-1.8755,-1.76876
 \H,0,-4.55422,-0.31734,-2.55606\H,0,-1.02052,-4.37016,-3.37789\C,0,-1.
 32939,-3.33316,-3.2457\O,0,0.86597,-2.45962,-3.45646\C,0,-0.34187,-2.2
 9818,-3.28374\H,0,-0.17128,-0.26484,-3.12636\N,0,-0.83893,-1.02283,-3.
 10579\O,0,-2.49252,0.49363,-2.75481\C,0,-2.14843,-0.66588,-2.90246\H,0
 ,-3.40397,-3.76585,-3.01182\C,0,-2.61453,-3.01636,-3.04911\C,0,-4.4518
 4,-1.38691,-2.66405\N,0,-3.0408,-1.7196,-2.87855\H,0,-6.13244,2.2556,-
 5.9871\H,0,-4.97722,2.98839,-5.09796\H,0,-5.97478,1.8999,-4.40216\H,0,
 0.2723,-1.43969,-6.61129\H,0,-1.24712,-2.21492,-6.63357\N,0,-0.71931,-
 1.37568,-6.49828\C,0,-1.31242,-0.2229,-6.18129\C,0,-3.16889,1.17948,-5
 .68271\N,0,-2.43485,2.29068,-5.50709\H,0,-0.47322,2.88112,-5.57017\C,0
 ,-1.14239,2.03074,-5.69388\N,0,-0.54638,0.87683,-6.01142\H,0,-5.83323,
 -0.64615,-5.82613\C,0,-4.81232,-0.26349,-5.84209\N,0,-3.75053,-0.98396
 ,-6.10898\C,0,-2.70165,-0.08116,-6.01132\C,0,-5.48012,2.13608,-5.23864
 \N,0,-4.53374,1.05472,-5.57481\\Version=EM64L-G16RevA.03\State=1-A\HF=
 -2048.7454145\RMSD=6.916e-09\Dipole=-3.8302397,0.2807377,-0.007267\Qua
 drupole=24.8597246,3.7472901,-28.6070147,29.8664776,-15.9054162,3.6331
 568\PG=C01 [X(C23H27N17O3)]\\@


 MARY HAD A LITTLE LAMB
      HIS FEET WERE BLACK AS SOOT,
           AND EVERYWHERE THAT MARY WENT
                HIS SOOTY FOOT HE PUT.

                    -- NONAME
 Job cpu time:       0 days  6 hours  9 minutes 54.9 seconds.
 Elapsed time:       0 days  0 hours 11 minutes 56.0 seconds.
 File lengths (MBytes):  RWF=    298 Int=      0 D2E=      0 Chk=     33 Scr=      1
 Normal termination of Gaussian 16 at Mon Jan 22 14:54:59 2018.
