 Entering Gaussian System, Link 0=g16
 Input=str35.5.-2.5.com
 Output=str35.5.-2.5.log
 Initial command:
 /share/apps/g16/l1.exe "/state/partition1/scr/Gau-18203.inp" -scrdir="/state/partition1/scr/"
 Entering Link 1 = /share/apps/g16/l1.exe PID=     18204.
  
 Copyright (c) 1988,1990,1992,1993,1995,1998,2003,2009,2016,
            Gaussian, Inc.  All Rights Reserved.
  
 This is part of the Gaussian(R) 16 program.  It is based on
 the Gaussian(R) 09 system (copyright 2009, Gaussian, Inc.),
 the Gaussian(R) 03 system (copyright 2003, Gaussian, Inc.),
 the Gaussian(R) 98 system (copyright 1998, Gaussian, Inc.),
 the Gaussian(R) 94 system (copyright 1995, Gaussian, Inc.),
 the Gaussian 92(TM) system (copyright 1992, Gaussian, Inc.),
 the Gaussian 90(TM) system (copyright 1990, Gaussian, Inc.),
 the Gaussian 88(TM) system (copyright 1988, Gaussian, Inc.),
 the Gaussian 86(TM) system (copyright 1986, Carnegie Mellon
 University), and the Gaussian 82(TM) system (copyright 1983,
 Carnegie Mellon University). Gaussian is a federally registered
 trademark of Gaussian, Inc.
  
 This software contains proprietary and confidential information,
 including trade secrets, belonging to Gaussian, Inc.
  
 This software is provided under written license and may be
 used, copied, transmitted, or stored only in accord with that
 written license.
  
 The following legend is applicable only to US Government
 contracts under FAR:
  
                    RESTRICTED RIGHTS LEGEND
  
 Use, reproduction and disclosure by the US Government is
 subject to restrictions as set forth in subparagraphs (a)
 and (c) of the Commercial Computer Software - Restricted
 Rights clause in FAR 52.227-19.
  
 Gaussian, Inc.
 340 Quinnipiac St., Bldg. 40, Wallingford CT 06492
  
  
 ---------------------------------------------------------------
 Warning -- This program may not be used in any manner that
 competes with the business of Gaussian, Inc. or will provide
 assistance to any competitor of Gaussian, Inc.  The licensee
 of this program is prohibited from giving any competitor of
 Gaussian, Inc. access to this program.  By using this program,
 the user acknowledges that Gaussian, Inc. is engaged in the
 business of creating and licensing software in the field of
 computational chemistry and represents and warrants to the
 licensee that it is not a competitor of Gaussian, Inc. and that
 it will not use this program in any manner prohibited above.
 ---------------------------------------------------------------
  

 Cite this work as:
 Gaussian 16, Revision A.03,
 M. J. Frisch, G. W. Trucks, H. B. Schlegel, G. E. Scuseria, 
 M. A. Robb, J. R. Cheeseman, G. Scalmani, V. Barone, 
 G. A. Petersson, H. Nakatsuji, X. Li, M. Caricato, A. V. Marenich, 
 J. Bloino, B. G. Janesko, R. Gomperts, B. Mennucci, H. P. Hratchian, 
 J. V. Ortiz, A. F. Izmaylov, J. L. Sonnenberg, D. Williams-Young, 
 F. Ding, F. Lipparini, F. Egidi, J. Goings, B. Peng, A. Petrone, 
 T. Henderson, D. Ranasinghe, V. G. Zakrzewski, J. Gao, N. Rega, 
 G. Zheng, W. Liang, M. Hada, M. Ehara, K. Toyota, R. Fukuda, 
 J. Hasegawa, M. Ishida, T. Nakajima, Y. Honda, O. Kitao, H. Nakai, 
 T. Vreven, K. Throssell, J. A. Montgomery, Jr., J. E. Peralta, 
 F. Ogliaro, M. J. Bearpark, J. J. Heyd, E. N. Brothers, K. N. Kudin, 
 V. N. Staroverov, T. A. Keith, R. Kobayashi, J. Normand, 
 K. Raghavachari, A. P. Rendell, J. C. Burant, S. S. Iyengar, 
 J. Tomasi, M. Cossi, J. M. Millam, M. Klene, C. Adamo, R. Cammi, 
 J. W. Ochterski, R. L. Martin, K. Morokuma, O. Farkas, 
 J. B. Foresman, and D. J. Fox, Gaussian, Inc., Wallingford CT, 2016.
 
 ******************************************
 Gaussian 16:  EM64L-G16RevA.03 25-Dec-2016
                22-Jan-2018 
 ******************************************
 %nprocshared=32
 Will use up to   32 processors via shared memory.
 %mem=32GB
 %chk=allatoms_t.chk
 ---------------------------------------
 #p wb97xd/cc-pvdz sp scf=(maxcycles=20)
 ---------------------------------------
 1/38=1,172=1/1;
 2/12=2,17=6,18=5,40=1/2;
 3/5=16,11=2,25=1,30=1,74=-58/1,2,3;
 4//1;
 5/5=2,7=20,38=5/2;
 6/7=2,8=2,9=2,10=2,28=1/1;
 99/5=1,9=1/99;
 Leave Link    1 at Mon Jan 22 17:26:43 2018, MaxMem=  4294967296 cpu:               2.7 elap:               0.1
 (Enter /share/apps/g16/l101.exe)
 ------------------
 Base pair stacking
 ------------------
 Symbolic Z-matrix:
 Charge =  0 Multiplicity = 1
 N                     8.12292   6.96279  -5.91681 
 C                     8.84953   8.2411   -6.04311 
 C                     6.54592   5.42995  -5.88839 
 N                     7.72509   4.77986  -5.5542 
 C                     8.62797   5.72936  -5.5847 
 H                     9.68743   5.58454  -5.37136 
 N                     4.28256   5.88338  -6.37266 
 C                     4.65603   7.15358  -6.55891 
 H                     3.85492   7.83825  -6.83404 
 N                     5.86485   7.70242  -6.4568 
 C                     6.77536   6.77592  -6.11474 
 C                     5.2221    4.97543  -6.02921 
 N                     4.85124   3.707    -5.84286 
 H                     5.5131    3.00122  -5.58782 
 H                     3.89971   3.41911  -5.95176 
 H                     9.55447   8.1572   -6.74752 
 H                     8.20954   8.96537  -6.29799 
 H                     9.27915   8.47041  -5.1697 
 N                     2.5012    7.04822  -3.21822 
 C                     1.49527   6.11382  -3.27334 
 C                     2.32089   8.50641  -3.3661 
 N                    -1.8671    5.33313  -3.65644 
 H                    -2.43768   4.51238  -3.66302 
 H                    -2.33064   6.20907  -3.79275 
 N                     0.18367   6.36874  -3.47027 
 C                    -0.53991   5.26328  -3.47313 
 N                    -0.0207    4.00359  -3.2968 
 H                    -0.6493    3.21521  -3.31389 
 C                     1.32559   3.71778  -3.09261 
 O                     1.69051   2.54493  -2.94428 
 C                     2.11548   4.89545  -3.08702 
 N                     3.48327   5.06162  -2.91832 
 C                     3.6653    6.35151  -3.00349 
 H                     4.63169   6.84932  -2.9166 
 H                     2.84989   8.83164  -4.14918 
 H                     1.35318   8.7073   -3.51249 
 H                     2.63446   8.96847  -2.53725 
 H                    -4.20172  -0.32634  -4.14481 
 H                    -4.25112  -0.39254  -2.38475 
 H                    -3.87176   1.12551  -3.19897 
 H                    -0.26872  -2.9492   -3.25109 
 C                    -0.59047  -1.90814  -3.22096 
 O                     1.61411  -1.0375   -3.12633 
 C                     0.39478  -0.87243  -3.15435 
 H                     0.54647   1.16687  -3.07339 
 N                    -0.11907   0.40822  -3.12061 
 O                    -1.80131   1.93372  -3.11045 
 C                    -1.44283   0.76966  -3.14417 
 H                    -2.67767  -2.33684  -3.29568 
 C                    -1.88927  -1.58702  -3.24535 
 C                    -3.75786   0.0523   -3.23614 
 N                    -2.33196  -0.28508  -3.2088 
 H                    -3.35905   4.18477  -7.55709 
 H                    -2.45161   5.09166  -6.54903 
 H                    -3.61866   4.12226  -5.94709 
 H                     2.90523   0.58817  -5.85746 
 H                     1.42392  -0.21384  -6.12691 
 N                     1.91933   0.64818  -6.01411 
 C                     1.29215   1.82489  -6.07027 
 C                    -0.59678   3.25007  -6.32035 
 N                     0.09408   4.39161  -6.16536 
 H                     2.02032   5.00693  -5.83131 
 C                     1.38504   4.13272  -5.96713 
 N                     2.01514   2.95487  -5.91054 
 H                    -3.17862   1.36648  -6.80855 
 C                    -2.17867   1.76386  -6.63216 
 N                    -1.10106   1.03229  -6.48638 
 C                    -0.09084   1.96225  -6.28799 
 C                    -2.92187   4.21642  -6.65828 
 N                    -1.94662   3.11477  -6.54314 
 
 ITRead=  0  0  0  0  0  0  0  0  0  0  0  0  0  0  0  0  0  0  0  0
 ITRead=  0  0  0  0  0  0  0  0  0  0  0  0  0  0  0  0  0  0  0  0
 ITRead=  0  0  0  0  0  0  0  0  0  0  0  0  0  0  0  0  0  0  0  0
 ITRead=  0  0  0  0  0  0  0  0  0  0
 MicOpt= -1 -1 -1 -1 -1 -1 -1 -1 -1 -1 -1 -1 -1 -1 -1 -1 -1 -1 -1 -1
 MicOpt= -1 -1 -1 -1 -1 -1 -1 -1 -1 -1 -1 -1 -1 -1 -1 -1 -1 -1 -1 -1
 MicOpt= -1 -1 -1 -1 -1 -1 -1 -1 -1 -1 -1 -1 -1 -1 -1 -1 -1 -1 -1 -1
 MicOpt= -1 -1 -1 -1 -1 -1 -1 -1 -1 -1
 NAtoms=     70 NQM=       70 NQMF=       0 NMMI=      0 NMMIF=      0
                NMic=       0 NMicF=      0.
                    Isotopes and Nuclear Properties:
 (Nuclear quadrupole moments (NQMom) in fm**2, nuclear magnetic moments (NMagM)
  in nuclear magnetons)

  Atom         1           2           3           4           5           6           7           8           9          10
 IAtWgt=          14          12          12          14          12           1          14          12           1          14
 AtmWgt=  14.0030740  12.0000000  12.0000000  14.0030740  12.0000000   1.0078250  14.0030740  12.0000000   1.0078250  14.0030740
 NucSpn=           2           0           0           2           0           1           2           0           1           2
 AtZEff=  -0.0000000  -0.0000000  -0.0000000  -0.0000000  -0.0000000  -0.0000000  -0.0000000  -0.0000000  -0.0000000  -0.0000000
 NQMom=    2.0440000   0.0000000   0.0000000   2.0440000   0.0000000   0.0000000   2.0440000   0.0000000   0.0000000   2.0440000
 NMagM=    0.4037610   0.0000000   0.0000000   0.4037610   0.0000000   2.7928460   0.4037610   0.0000000   2.7928460   0.4037610
 AtZNuc=   7.0000000   6.0000000   6.0000000   7.0000000   6.0000000   1.0000000   7.0000000   6.0000000   1.0000000   7.0000000

  Atom        11          12          13          14          15          16          17          18          19          20
 IAtWgt=          12          12          14           1           1           1           1           1          14          12
 AtmWgt=  12.0000000  12.0000000  14.0030740   1.0078250   1.0078250   1.0078250   1.0078250   1.0078250  14.0030740  12.0000000
 NucSpn=           0           0           2           1           1           1           1           1           2           0
 AtZEff=  -0.0000000  -0.0000000  -0.0000000  -0.0000000  -0.0000000  -0.0000000  -0.0000000  -0.0000000  -0.0000000  -0.0000000
 NQMom=    0.0000000   0.0000000   2.0440000   0.0000000   0.0000000   0.0000000   0.0000000   0.0000000   2.0440000   0.0000000
 NMagM=    0.0000000   0.0000000   0.4037610   2.7928460   2.7928460   2.7928460   2.7928460   2.7928460   0.4037610   0.0000000
 AtZNuc=   6.0000000   6.0000000   7.0000000   1.0000000   1.0000000   1.0000000   1.0000000   1.0000000   7.0000000   6.0000000

  Atom        21          22          23          24          25          26          27          28          29          30
 IAtWgt=          12          14           1           1          14          12          14           1          12          16
 AtmWgt=  12.0000000  14.0030740   1.0078250   1.0078250  14.0030740  12.0000000  14.0030740   1.0078250  12.0000000  15.9949146
 NucSpn=           0           2           1           1           2           0           2           1           0           0
 AtZEff=  -0.0000000  -0.0000000  -0.0000000  -0.0000000  -0.0000000  -0.0000000  -0.0000000  -0.0000000  -0.0000000  -0.0000000
 NQMom=    0.0000000   2.0440000   0.0000000   0.0000000   2.0440000   0.0000000   2.0440000   0.0000000   0.0000000   0.0000000
 NMagM=    0.0000000   0.4037610   2.7928460   2.7928460   0.4037610   0.0000000   0.4037610   2.7928460   0.0000000   0.0000000
 AtZNuc=   6.0000000   7.0000000   1.0000000   1.0000000   7.0000000   6.0000000   7.0000000   1.0000000   6.0000000   8.0000000

  Atom        31          32          33          34          35          36          37          38          39          40
 IAtWgt=          12          14          12           1           1           1           1           1           1           1
 AtmWgt=  12.0000000  14.0030740  12.0000000   1.0078250   1.0078250   1.0078250   1.0078250   1.0078250   1.0078250   1.0078250
 NucSpn=           0           2           0           1           1           1           1           1           1           1
 AtZEff=  -0.0000000  -0.0000000  -0.0000000  -0.0000000  -0.0000000  -0.0000000  -0.0000000  -0.0000000  -0.0000000  -0.0000000
 NQMom=    0.0000000   2.0440000   0.0000000   0.0000000   0.0000000   0.0000000   0.0000000   0.0000000   0.0000000   0.0000000
 NMagM=    0.0000000   0.4037610   0.0000000   2.7928460   2.7928460   2.7928460   2.7928460   2.7928460   2.7928460   2.7928460
 AtZNuc=   6.0000000   7.0000000   6.0000000   1.0000000   1.0000000   1.0000000   1.0000000   1.0000000   1.0000000   1.0000000

  Atom        41          42          43          44          45          46          47          48          49          50
 IAtWgt=           1          12          16          12           1          14          16          12           1          12
 AtmWgt=   1.0078250  12.0000000  15.9949146  12.0000000   1.0078250  14.0030740  15.9949146  12.0000000   1.0078250  12.0000000
 NucSpn=           1           0           0           0           1           2           0           0           1           0
 AtZEff=  -0.0000000  -0.0000000  -0.0000000  -0.0000000  -0.0000000  -0.0000000  -0.0000000  -0.0000000  -0.0000000  -0.0000000
 NQMom=    0.0000000   0.0000000   0.0000000   0.0000000   0.0000000   2.0440000   0.0000000   0.0000000   0.0000000   0.0000000
 NMagM=    2.7928460   0.0000000   0.0000000   0.0000000   2.7928460   0.4037610   0.0000000   0.0000000   2.7928460   0.0000000
 AtZNuc=   1.0000000   6.0000000   8.0000000   6.0000000   1.0000000   7.0000000   8.0000000   6.0000000   1.0000000   6.0000000

  Atom        51          52          53          54          55          56          57          58          59          60
 IAtWgt=          12          14           1           1           1           1           1          14          12          12
 AtmWgt=  12.0000000  14.0030740   1.0078250   1.0078250   1.0078250   1.0078250   1.0078250  14.0030740  12.0000000  12.0000000
 NucSpn=           0           2           1           1           1           1           1           2           0           0
 AtZEff=  -0.0000000  -0.0000000  -0.0000000  -0.0000000  -0.0000000  -0.0000000  -0.0000000  -0.0000000  -0.0000000  -0.0000000
 NQMom=    0.0000000   2.0440000   0.0000000   0.0000000   0.0000000   0.0000000   0.0000000   2.0440000   0.0000000   0.0000000
 NMagM=    0.0000000   0.4037610   2.7928460   2.7928460   2.7928460   2.7928460   2.7928460   0.4037610   0.0000000   0.0000000
 AtZNuc=   6.0000000   7.0000000   1.0000000   1.0000000   1.0000000   1.0000000   1.0000000   7.0000000   6.0000000   6.0000000

  Atom        61          62          63          64          65          66          67          68          69          70
 IAtWgt=          14           1          12          14           1          12          14          12          12          14
 AtmWgt=  14.0030740   1.0078250  12.0000000  14.0030740   1.0078250  12.0000000  14.0030740  12.0000000  12.0000000  14.0030740
 NucSpn=           2           1           0           2           1           0           2           0           0           2
 AtZEff=  -0.0000000  -0.0000000  -0.0000000  -0.0000000  -0.0000000  -0.0000000  -0.0000000  -0.0000000  -0.0000000  -0.0000000
 NQMom=    2.0440000   0.0000000   0.0000000   2.0440000   0.0000000   0.0000000   2.0440000   0.0000000   0.0000000   2.0440000
 NMagM=    0.4037610   2.7928460   0.0000000   0.4037610   2.7928460   0.0000000   0.4037610   0.0000000   0.0000000   0.4037610
 AtZNuc=   7.0000000   1.0000000   6.0000000   7.0000000   1.0000000   6.0000000   7.0000000   6.0000000   6.0000000   7.0000000
 Leave Link  101 at Mon Jan 22 17:26:43 2018, MaxMem=  4294967296 cpu:               7.5 elap:               0.3
 (Enter /share/apps/g16/l202.exe)
 Stoichiometry    C23H27N17O3
 Framework group  C1[X(C23H27N17O3)]
 Deg. of freedom   204
 Full point group                 C1      NOp   1
 Largest Abelian subgroup         C1      NOp   1
 Largest concise Abelian subgroup C1      NOp   1
                         Standard orientation:                         
 ---------------------------------------------------------------------
 Center     Atomic      Atomic             Coordinates (Angstroms)
 Number     Number       Type             X           Y           Z
 ---------------------------------------------------------------------
      1          7           0       -7.189412   -1.227447    0.125065
      2          6           0       -8.540001   -0.632903    0.104677
      3          6           0       -5.026465   -1.534329    0.379665
      4          7           0       -5.532195   -2.727757   -0.115015
      5          6           0       -6.815043   -2.495100   -0.248599
      6          1           0       -7.541266   -3.219401   -0.618640
      7          7           0       -3.564151    0.127126    1.194600
      8          6           0       -4.637784    0.918432    1.288000
      9          1           0       -4.444581    1.921729    1.665246
     10          7           0       -5.908282    0.657677    0.986770
     11          6           0       -6.036076   -0.600131    0.532871
     12          6           0       -3.725779   -1.132690    0.734376
     13          7           0       -2.655252   -1.924097    0.640430
     14          1           0       -2.728161   -2.863995    0.305013
     15          1           0       -1.744366   -1.604667    0.901966
     16          1           0       -9.148550   -1.164316    0.694119
     17          1           0       -8.495375    0.309060    0.436089
     18          1           0       -8.895111   -0.639095   -0.830128
     19          7           0       -2.398156    2.334695   -1.677278
     20          6           0       -1.054312    2.168743   -1.443654
     21          6           0       -3.137694    3.605650   -1.541427
     22          7           0        2.024778    3.488340   -0.527334
     23          1           0        2.962371    3.161587   -0.411630
     24          1           0        1.856093    4.457210   -0.344151
     25          7           0       -0.190611    3.131111   -1.053875
     26          6           0        1.037371    2.665032   -0.910879
     27          7           0        1.394305    1.356934   -1.132169
     28          1           0        2.357383    1.089629   -0.997995
     29          6           0        0.522323    0.349792   -1.533654
     30          8           0        0.946571   -0.799610   -1.705798
     31          6           0       -0.800646    0.835304   -1.691434
     32          7           0       -1.961887    0.177359   -2.072944
     33          6           0       -2.881002    1.104142   -2.050428
     34          1           0       -3.930875    0.943641   -2.297978
     35          1           0       -3.859348    3.501878   -0.857850
     36          1           0       -2.508172    4.325941   -1.253098
     37          1           0       -3.544443    3.852131   -2.420415
     38          1           0        7.157380    0.263969    0.461802
     39          1           0        7.481087    0.363420   -1.267348
     40          1           0        6.168704    1.306885   -0.561039
     41          1           0        5.708530   -4.098526   -0.958087
     42          6           0        5.352786   -3.068173   -0.965428
     43          8           0        3.099997   -3.655199   -1.420932
     44          6           0        3.967071   -2.807598   -1.209856
     45          1           0        2.652124   -1.247228   -1.366278
     46          7           0        3.622767   -1.470981   -1.197432
     47          8           0        4.058522    0.747924   -0.988235
     48          6           0        4.457313   -0.403412   -0.979799
     49          1           0        7.253812   -2.192488   -0.559167
     50          6           0        6.191229   -2.047830   -0.749768
     51          6           0        6.707582    0.372260   -0.513912
     52          7           0        5.778202   -0.735670   -0.751627
     53          1           0        3.345190    3.165069    3.585052
     54          1           0        2.228672    3.433741    2.426050
     55          1           0        3.812780    3.380466    2.036385
     56          1           0        0.732539   -3.295578    1.035626
     57          1           0        2.345852   -3.090541    1.550682
     58          7           0        1.458375   -2.678879    1.340557
     59          6           0        1.253019   -1.365771    1.461932
     60          6           0        1.875999    0.875424    1.962606
     61          7           0        0.673881    1.400513    1.673443
     62          1           0       -1.173479    0.788080    1.030950
     63          6           0       -0.170897    0.447165    1.285661
     64          7           0        0.032873   -0.868547    1.163442
     65          1           0        4.972515    0.839954    2.891305
     66          6           0        3.967837    0.585075    2.552803
     67          7           0        3.564696   -0.627603    2.261978
     68          6           0        2.240039   -0.457675    1.886296
     69          6           0        3.104482    2.996893    2.629142
     70          7           0        2.997190    1.543901    2.393976
 ---------------------------------------------------------------------
 Rotational constants (GHZ):           0.1556183           0.0483376           0.0443245
 Leave Link  202 at Mon Jan 22 17:26:43 2018, MaxMem=  4294967296 cpu:               0.3 elap:               0.0
 (Enter /share/apps/g16/l301.exe)
 Standard basis: CC-pVDZ (5D, 7F)
 Ernie: Thresh=  0.10000D-02 Tol=  0.10000D-05 Strict=F.
 Ernie:  86 primitive shells out of 1081 were deleted.
 There are   780 symmetry adapted cartesian basis functions of A   symmetry.
 There are   737 symmetry adapted basis functions of A   symmetry.
   737 basis functions,  1608 primitive gaussians,   780 cartesian basis functions
   154 alpha electrons      154 beta electrons
       nuclear repulsion energy      5436.1201340381 Hartrees.
 IExCor= 4639 DFT=T Ex+Corr=wB97XD ExCW=0 ScaHFX=  1.000000
 ScaDFX=  1.000000  1.000000  1.000000  1.000000 ScalE2=  1.000000  1.000000
 IRadAn=      5 IRanWt=     -1 IRanGd=            0 ICorTp=0 IEmpDi=121
 HFx  wShort=  0.000000 wLong=  0.200000 cFull=  0.222036 cShort=  0.000000 cLong=  0.777964
 DFx  wShort=  0.000000 wLong=  0.200000 cFull=  0.000000 cShort=  0.000000 cLong=  1.000000
 NAtoms=   70 NActive=   70 NUniq=   70 SFac= 1.00D+00 NAtFMM=   60 NAOKFM=T Big=T
 Integral buffers will be    131072 words long.
 Raffenetti 2 integral format.
 Two-electron integral symmetry is turned on.
 R6Disp:  Grimme-D2 Dispersion energy=       -0.0692314814 Hartrees.
 Nuclear repulsion after empirical dispersion term =     5436.0509025567 Hartrees.
 Leave Link  301 at Mon Jan 22 17:26:44 2018, MaxMem=  4294967296 cpu:               3.0 elap:               0.1
 (Enter /share/apps/g16/l302.exe)
 NPDir=0 NMtPBC=     1 NCelOv=     1 NCel=       1 NClECP=     1 NCelD=      1
         NCelK=      1 NCelE2=     1 NClLst=     1 CellRange=     0.0.
 One-electron integrals computed using PRISM.
 One-electron integral symmetry used in STVInt
 NBasis=   737 RedAO= T EigKep=  7.05D-04  NBF=   737
 NBsUse=   737 1.00D-06 EigRej= -1.00D+00 NBFU=   737
 Precomputing XC quadrature grid using
 IXCGrd= 4 IRadAn=           5 IRanWt=          -1 IRanGd=           0 AccXCQ= 0.00D+00.
 Generated NRdTot=       0 NPtTot=           0 NUsed=           0 NTot=          32
 NSgBfM=   756   755   756   756   756 MxSgAt=    70 MxSgA2=    70.
 Leave Link  302 at Mon Jan 22 17:26:48 2018, MaxMem=  4294967296 cpu:             133.4 elap:               4.2
 (Enter /share/apps/g16/l303.exe)
 DipDrv:  MaxL=1.
 Leave Link  303 at Mon Jan 22 17:26:48 2018, MaxMem=  4294967296 cpu:              12.5 elap:               0.4
 (Enter /share/apps/g16/l401.exe)
 ExpMin= 1.22D-01 ExpMax= 1.17D+04 ExpMxC= 4.01D+02 IAcc=3 IRadAn=         5 AccDes= 0.00D+00
 Harris functional with IExCor= 4639 and IRadAn=       5 diagonalized for initial guess.
 HarFok:  IExCor= 4639 AccDes= 0.00D+00 IRadAn=         5 IDoV= 1 UseB2=F ITyADJ=14
 ICtDFT=  3500011 ScaDFX=  1.000000  1.000000  1.000000  1.000000
 FoFCou: FMM=F IPFlag=           0 FMFlag=      100000 FMFlg1=        2001
         NFxFlg=           0 DoJE=T BraDBF=F KetDBF=T FulRan=T
         wScrn=  0.000000 ICntrl=       500 IOpCl=  0 I1Cent=   200000004 NGrid=           0
         NMat0=    1 NMatS0=      1 NMatT0=    0 NMatD0=    1 NMtDS0=    0 NMtDT0=    0
 Petite list used in FoFCou.
 Harris En= -1963.88250836921    
 JPrj=0 DoOrth=F DoCkMO=F.
 Leave Link  401 at Mon Jan 22 17:27:01 2018, MaxMem=  4294967296 cpu:             393.4 elap:              12.3
 (Enter /share/apps/g16/l502.exe)
 Integral symmetry usage will be decided dynamically.
 Closed shell SCF:
 Using DIIS extrapolation, IDIIS=  1040.
 NGot=  4294967296 LenX=  4293717438 LenY=  4293108258
 Requested convergence on RMS density matrix=1.00D-08 within  20 cycles.
 Requested convergence on MAX density matrix=1.00D-06.
 Requested convergence on             energy=1.00D-06.
 No special actions if energy rises.
 Fock matrices will be formed incrementally for  20 cycles.
 Integral accuracy reduced to 1.0D-05 until final iterations.

 Cycle   1  Pass 0  IDiag  1:
 FoFJK:  IHMeth= 1 ICntrl=       0 DoSepK=T KAlg= 0 I1Cent=           0 FoldK=F
 IRaf=         1 NMat=       1 IRICut=       1 DoRegI=T DoRafI=F ISym2E= 0 IDoP0=0 IntGTp=1.
 FoFCou: FMM=T IPFlag=           0 FMFlag=      100000 FMFlg1=        2001
         NFxFlg=           0 DoJE=T BraDBF=F KetDBF=F FulRan=T
         wScrn=  0.000000 ICntrl=       500 IOpCl=  0 I1Cent=           0 NGrid=           0
         NMat0=    1 NMatS0=      1 NMatT0=    0 NMatD0=    1 NMtDS0=    0 NMtDT0=    0
 Symmetry not used in FoFCou.
 FMM levels:  10  Number of levels for PrismC:   9
 E= -2048.31343234354    
 DIIS: error= 2.41D-02 at cycle   1 NSaved=   1.
 NSaved= 1 IEnMin= 1 EnMin= -2048.31343234354     IErMin= 1 ErrMin= 2.41D-02
 ErrMax= 2.41D-02  0.00D+00 EMaxC= 1.00D-01 BMatC= 8.31D-01 BMatP= 8.31D-01
 IDIUse=3 WtCom= 7.59D-01 WtEn= 2.41D-01
 Coeff-Com:  0.100D+01
 Coeff-En:   0.100D+01
 Coeff:      0.100D+01
 Gap=     0.255 Goal=   None    Shift=    0.000
 GapD=    0.255 DampG=1.000 DampE=0.500 DampFc=0.5000 IDamp=-1.
 Damping current iteration by 5.00D-01
 RMSDP=1.57D-03 MaxDP=1.30D-01              OVMax= 2.04D-01

 Cycle   2  Pass 0  IDiag  1:
 RMSU=  7.83D-04    CP:  9.98D-01
 E= -2048.51029899847     Delta-E=       -0.196866654936 Rises=F Damp=T
 DIIS: error= 1.21D-02 at cycle   2 NSaved=   2.
 NSaved= 2 IEnMin= 2 EnMin= -2048.51029899847     IErMin= 2 ErrMin= 1.21D-02
 ErrMax= 1.21D-02  0.00D+00 EMaxC= 1.00D-01 BMatC= 1.45D-01 BMatP= 8.31D-01
 IDIUse=3 WtCom= 8.79D-01 WtEn= 1.21D-01
 Coeff-Com: -0.197D+00 0.120D+01
 Coeff-En:   0.000D+00 0.100D+01
 Coeff:     -0.173D+00 0.117D+01
 Gap=     0.365 Goal=   None    Shift=    0.000
 RMSDP=5.88D-04 MaxDP=3.35D-02 DE=-1.97D-01 OVMax= 1.43D-01

 Cycle   3  Pass 0  IDiag  1:
 RMSU=  5.78D-04    CP:  9.94D-01  1.13D+00
 E= -2048.68962906519     Delta-E=       -0.179330066714 Rises=F Damp=F
 DIIS: error= 6.60D-03 at cycle   3 NSaved=   3.
 NSaved= 3 IEnMin= 3 EnMin= -2048.68962906519     IErMin= 3 ErrMin= 6.60D-03
 ErrMax= 6.60D-03  0.00D+00 EMaxC= 1.00D-01 BMatC= 6.27D-02 BMatP= 1.45D-01
 IDIUse=3 WtCom= 9.34D-01 WtEn= 6.60D-02
 Coeff-Com: -0.232D+00 0.548D+00 0.684D+00
 Coeff-En:   0.000D+00 0.000D+00 0.100D+01
 Coeff:     -0.217D+00 0.512D+00 0.705D+00
 Gap=     0.281 Goal=   None    Shift=    0.000
 RMSDP=3.54D-04 MaxDP=3.22D-02 DE=-1.79D-01 OVMax= 6.12D-02

 Cycle   4  Pass 0  IDiag  1:
 RMSU=  2.02D-04    CP:  9.94D-01  1.41D+00  6.74D-01
 E= -2048.73779200910     Delta-E=       -0.048162943917 Rises=F Damp=F
 DIIS: error= 2.35D-03 at cycle   4 NSaved=   4.
 NSaved= 4 IEnMin= 4 EnMin= -2048.73779200910     IErMin= 4 ErrMin= 2.35D-03
 ErrMax= 2.35D-03  0.00D+00 EMaxC= 1.00D-01 BMatC= 8.56D-03 BMatP= 6.27D-02
 IDIUse=3 WtCom= 9.77D-01 WtEn= 2.35D-02
 Coeff-Com: -0.972D-01 0.188D+00 0.375D+00 0.533D+00
 Coeff-En:   0.000D+00 0.000D+00 0.512D-01 0.949D+00
 Coeff:     -0.949D-01 0.184D+00 0.368D+00 0.543D+00
 Gap=     0.286 Goal=   None    Shift=    0.000
 RMSDP=1.25D-04 MaxDP=1.15D-02 DE=-4.82D-02 OVMax= 1.29D-02

 Cycle   5  Pass 0  IDiag  1:
 RMSU=  6.09D-05    CP:  9.94D-01  1.39D+00  8.04D-01  6.18D-01
 E= -2048.74491606367     Delta-E=       -0.007124054567 Rises=F Damp=F
 DIIS: error= 5.85D-04 at cycle   5 NSaved=   5.
 NSaved= 5 IEnMin= 5 EnMin= -2048.74491606367     IErMin= 5 ErrMin= 5.85D-04
 ErrMax= 5.85D-04  0.00D+00 EMaxC= 1.00D-01 BMatC= 2.90D-04 BMatP= 8.56D-03
 IDIUse=3 WtCom= 9.94D-01 WtEn= 5.85D-03
 Coeff-Com: -0.256D-01 0.442D-01 0.122D+00 0.241D+00 0.619D+00
 Coeff-En:   0.000D+00 0.000D+00 0.000D+00 0.000D+00 0.100D+01
 Coeff:     -0.255D-01 0.439D-01 0.121D+00 0.239D+00 0.621D+00
 Gap=     0.286 Goal=   None    Shift=    0.000
 RMSDP=2.65D-05 MaxDP=1.84D-03 DE=-7.12D-03 OVMax= 3.22D-03

 Failed to achieve initial convergence to 1.0D-08 in  6 cycles.
 Switch to full accuracy anyway.
 Cycle   6  Pass 1  IDiag  1:
 E= -2048.74507258181     Delta-E=       -0.000156518137 Rises=F Damp=F
 DIIS: error= 2.30D-04 at cycle   1 NSaved=   1.
 NSaved= 1 IEnMin= 1 EnMin= -2048.74507258181     IErMin= 1 ErrMin= 2.30D-04
 ErrMax= 2.30D-04  0.00D+00 EMaxC= 1.00D-01 BMatC= 7.05D-05 BMatP= 7.05D-05
 IDIUse=3 WtCom= 9.98D-01 WtEn= 2.30D-03
 Coeff-Com:  0.100D+01
 Coeff-En:   0.100D+01
 Coeff:      0.100D+01
 Gap=     0.286 Goal=   None    Shift=    0.000
 RMSDP=2.65D-05 MaxDP=1.84D-03 DE=-1.57D-04 OVMax= 2.56D-03

 Cycle   7  Pass 1  IDiag  1:
 RMSU=  1.02D-04    CP:  1.00D+00
 E= -2048.74512289198     Delta-E=       -0.000050310170 Rises=F Damp=F
 DIIS: error= 2.39D-04 at cycle   2 NSaved=   2.
 NSaved= 2 IEnMin= 2 EnMin= -2048.74512289198     IErMin= 1 ErrMin= 2.30D-04
 ErrMax= 2.39D-04  0.00D+00 EMaxC= 1.00D-01 BMatC= 4.28D-05 BMatP= 7.05D-05
 IDIUse=3 WtCom= 9.98D-01 WtEn= 2.39D-03
 Coeff-Com:  0.417D+00 0.583D+00
 Coeff-En:   0.000D+00 0.100D+01
 Coeff:      0.416D+00 0.584D+00
 Gap=     0.286 Goal=   None    Shift=    0.000
 RMSDP=1.14D-05 MaxDP=1.01D-03 DE=-5.03D-05 OVMax= 1.50D-03

 Cycle   8  Pass 1  IDiag  1:
 RMSU=  1.11D-05    CP:  1.00D+00  1.02D+00
 E= -2048.74515442566     Delta-E=       -0.000031533685 Rises=F Damp=F
 DIIS: error= 9.54D-05 at cycle   3 NSaved=   3.
 NSaved= 3 IEnMin= 3 EnMin= -2048.74515442566     IErMin= 3 ErrMin= 9.54D-05
 ErrMax= 9.54D-05  0.00D+00 EMaxC= 1.00D-01 BMatC= 9.34D-06 BMatP= 4.28D-05
 IDIUse=1 WtCom= 1.00D+00 WtEn= 0.00D+00
 Coeff-Com: -0.192D-01 0.304D+00 0.715D+00
 Coeff:     -0.192D-01 0.304D+00 0.715D+00
 Gap=     0.286 Goal=   None    Shift=    0.000
 RMSDP=5.49D-06 MaxDP=4.12D-04 DE=-3.15D-05 OVMax= 5.48D-04

 Cycle   9  Pass 1  IDiag  1:
 RMSU=  3.77D-06    CP:  1.00D+00  1.05D+00  7.69D-01
 E= -2048.74516334498     Delta-E=       -0.000008919318 Rises=F Damp=F
 DIIS: error= 3.68D-05 at cycle   4 NSaved=   4.
 NSaved= 4 IEnMin= 4 EnMin= -2048.74516334498     IErMin= 4 ErrMin= 3.68D-05
 ErrMax= 3.68D-05  0.00D+00 EMaxC= 1.00D-01 BMatC= 4.88D-07 BMatP= 9.34D-06
 IDIUse=1 WtCom= 1.00D+00 WtEn= 0.00D+00
 Coeff-Com: -0.324D-01 0.803D-01 0.263D+00 0.689D+00
 Coeff:     -0.324D-01 0.803D-01 0.263D+00 0.689D+00
 Gap=     0.286 Goal=   None    Shift=    0.000
 RMSDP=1.43D-06 MaxDP=1.22D-04 DE=-8.92D-06 OVMax= 4.87D-04

 Cycle  10  Pass 1  IDiag  1:
 RMSU=  1.27D-06    CP:  1.00D+00  1.06D+00  8.04D-01  1.11D+00
 E= -2048.74516417326     Delta-E=       -0.000000828284 Rises=F Damp=F
 DIIS: error= 1.62D-05 at cycle   5 NSaved=   5.
 NSaved= 5 IEnMin= 5 EnMin= -2048.74516417326     IErMin= 5 ErrMin= 1.62D-05
 ErrMax= 1.62D-05  0.00D+00 EMaxC= 1.00D-01 BMatC= 1.13D-07 BMatP= 4.88D-07
 IDIUse=1 WtCom= 1.00D+00 WtEn= 0.00D+00
 Coeff-Com: -0.334D-02-0.554D-01-0.123D+00 0.200D+00 0.982D+00
 Coeff:     -0.334D-02-0.554D-01-0.123D+00 0.200D+00 0.982D+00
 Gap=     0.286 Goal=   None    Shift=    0.000
 RMSDP=1.18D-06 MaxDP=7.65D-05 DE=-8.28D-07 OVMax= 2.45D-04

 Cycle  11  Pass 1  IDiag  1:
 RMSU=  4.75D-07    CP:  1.00D+00  1.06D+00  8.13D-01  1.38D+00  1.17D+00
 E= -2048.74516442152     Delta-E=       -0.000000248253 Rises=F Damp=F
 DIIS: error= 8.92D-06 at cycle   6 NSaved=   6.
 NSaved= 6 IEnMin= 6 EnMin= -2048.74516442152     IErMin= 6 ErrMin= 8.92D-06
 ErrMax= 8.92D-06  0.00D+00 EMaxC= 1.00D-01 BMatC= 2.72D-08 BMatP= 1.13D-07
 IDIUse=1 WtCom= 1.00D+00 WtEn= 0.00D+00
 Coeff-Com:  0.455D-02-0.431D-01-0.113D+00-0.877D-03 0.523D+00 0.629D+00
 Coeff:      0.455D-02-0.431D-01-0.113D+00-0.877D-03 0.523D+00 0.629D+00
 Gap=     0.286 Goal=   None    Shift=    0.000
 RMSDP=3.45D-07 MaxDP=3.49D-05 DE=-2.48D-07 OVMax= 1.19D-04

 Cycle  12  Pass 1  IDiag  1:
 RMSU=  1.75D-07    CP:  1.00D+00  1.06D+00  8.15D-01  1.45D+00  1.29D+00
                    CP:  9.28D-01
 E= -2048.74516446013     Delta-E=       -0.000000038614 Rises=F Damp=F
 DIIS: error= 9.67D-07 at cycle   7 NSaved=   7.
 NSaved= 7 IEnMin= 7 EnMin= -2048.74516446013     IErMin= 7 ErrMin= 9.67D-07
 ErrMax= 9.67D-07  0.00D+00 EMaxC= 1.00D-01 BMatC= 6.63D-10 BMatP= 2.72D-08
 IDIUse=1 WtCom= 1.00D+00 WtEn= 0.00D+00
 Coeff-Com:  0.904D-03-0.503D-02-0.148D-01-0.802D-02 0.333D-01 0.110D+00
 Coeff-Com:  0.883D+00
 Coeff:      0.904D-03-0.503D-02-0.148D-01-0.802D-02 0.333D-01 0.110D+00
 Coeff:      0.883D+00
 Gap=     0.286 Goal=   None    Shift=    0.000
 RMSDP=8.34D-08 MaxDP=5.25D-06 DE=-3.86D-08 OVMax= 2.31D-05

 Cycle  13  Pass 1  IDiag  1:
 RMSU=  4.81D-08    CP:  1.00D+00  1.06D+00  8.15D-01  1.46D+00  1.31D+00
                    CP:  1.02D+00  1.15D+00
 E= -2048.74516446170     Delta-E=       -0.000000001566 Rises=F Damp=F
 DIIS: error= 4.69D-07 at cycle   8 NSaved=   8.
 NSaved= 8 IEnMin= 8 EnMin= -2048.74516446170     IErMin= 8 ErrMin= 4.69D-07
 ErrMax= 4.69D-07  0.00D+00 EMaxC= 1.00D-01 BMatC= 2.69D-10 BMatP= 6.63D-10
 IDIUse=1 WtCom= 1.00D+00 WtEn= 0.00D+00
 Coeff-Com: -0.698D-03 0.839D-02 0.211D-01-0.177D-02-0.113D+00-0.101D+00
 Coeff-Com:  0.424D+00 0.762D+00
 Coeff:     -0.698D-03 0.839D-02 0.211D-01-0.177D-02-0.113D+00-0.101D+00
 Coeff:      0.424D+00 0.762D+00
 Gap=     0.286 Goal=   None    Shift=    0.000
 RMSDP=4.22D-08 MaxDP=2.38D-06 DE=-1.57D-09 OVMax= 9.70D-06

 Cycle  14  Pass 1  IDiag  1:
 RMSU=  2.48D-08    CP:  1.00D+00  1.06D+00  8.14D-01  1.46D+00  1.32D+00
                    CP:  1.06D+00  1.29D+00  1.09D+00
 E= -2048.74516446226     Delta-E=       -0.000000000567 Rises=F Damp=F
 DIIS: error= 1.86D-07 at cycle   9 NSaved=   9.
 NSaved= 9 IEnMin= 9 EnMin= -2048.74516446226     IErMin= 9 ErrMin= 1.86D-07
 ErrMax= 1.86D-07  0.00D+00 EMaxC= 1.00D-01 BMatC= 1.97D-11 BMatP= 2.69D-10
 IDIUse=1 WtCom= 1.00D+00 WtEn= 0.00D+00
 Coeff-Com: -0.344D-03 0.356D-02 0.915D-02 0.258D-03-0.440D-01-0.475D-01
 Coeff-Com:  0.692D-01 0.257D+00 0.753D+00
 Coeff:     -0.344D-03 0.356D-02 0.915D-02 0.258D-03-0.440D-01-0.475D-01
 Coeff:      0.692D-01 0.257D+00 0.753D+00
 Gap=     0.286 Goal=   None    Shift=    0.000
 RMSDP=1.20D-08 MaxDP=6.91D-07 DE=-5.67D-10 OVMax= 3.16D-06

 Cycle  15  Pass 1  IDiag  1:
 RMSU=  8.11D-09    CP:  1.00D+00  1.06D+00  8.14D-01  1.46D+00  1.32D+00
                    CP:  1.06D+00  1.32D+00  1.22D+00  1.11D+00
 E= -2048.74516446215     Delta-E=        0.000000000118 Rises=F Damp=F
 DIIS: error= 7.38D-08 at cycle  10 NSaved=  10.
 NSaved=10 IEnMin= 9 EnMin= -2048.74516446226     IErMin=10 ErrMin= 7.38D-08
 ErrMax= 7.38D-08  0.00D+00 EMaxC= 1.00D-01 BMatC= 4.57D-12 BMatP= 1.97D-11
 IDIUse=1 WtCom= 1.00D+00 WtEn= 0.00D+00
 Coeff-Com:  0.270D-04-0.544D-03-0.127D-02 0.178D-03 0.846D-02 0.433D-02
 Coeff-Com: -0.633D-01-0.806D-01 0.294D+00 0.839D+00
 Coeff:      0.270D-04-0.544D-03-0.127D-02 0.178D-03 0.846D-02 0.433D-02
 Coeff:     -0.633D-01-0.806D-01 0.294D+00 0.839D+00
 Gap=     0.286 Goal=   None    Shift=    0.000
 RMSDP=6.16D-09 MaxDP=3.60D-07 DE= 1.18D-10 OVMax= 1.25D-06

 SCF Done:  E(RwB97XD) =  -2048.74516446     A.U. after   15 cycles
            NFock= 15  Conv=0.62D-08     -V/T= 2.0054
 KE= 2.037717032257D+03 PE=-1.565306939517D+04 EE= 6.130556295891D+03
 Leave Link  502 at Mon Jan 22 17:38:00 2018, MaxMem=  4294967296 cpu:           20458.7 elap:             659.7
 (Enter /share/apps/g16/l601.exe)
 Copying SCF densities to generalized density rwf, IOpCl= 0 IROHF=0.

 **********************************************************************

            Population analysis using the SCF density.

 **********************************************************************

 Orbital symmetries:
       Occupied  (A) (A) (A) (A) (A) (A) (A) (A) (A) (A) (A) (A)
                 (A) (A) (A) (A) (A) (A) (A) (A) (A) (A) (A) (A)
                 (A) (A) (A) (A) (A) (A) (A) (A) (A) (A) (A) (A)
                 (A) (A) (A) (A) (A) (A) (A) (A) (A) (A) (A) (A)
                 (A) (A) (A) (A) (A) (A) (A) (A) (A) (A) (A) (A)
                 (A) (A) (A) (A) (A) (A) (A) (A) (A) (A) (A) (A)
                 (A) (A) (A) (A) (A) (A) (A) (A) (A) (A) (A) (A)
                 (A) (A) (A) (A) (A) (A) (A) (A) (A) (A) (A) (A)
                 (A) (A) (A) (A) (A) (A) (A) (A) (A) (A) (A) (A)
                 (A) (A) (A) (A) (A) (A) (A) (A) (A) (A) (A) (A)
                 (A) (A) (A) (A) (A) (A) (A) (A) (A) (A) (A) (A)
                 (A) (A) (A) (A) (A) (A) (A) (A) (A) (A) (A) (A)
                 (A) (A) (A) (A) (A) (A) (A) (A) (A) (A)
       Virtual   (A) (A) (A) (A) (A) (A) (A) (A) (A) (A) (A) (A)
                 (A) (A) (A) (A) (A) (A) (A) (A) (A) (A) (A) (A)
                 (A) (A) (A) (A) (A) (A) (A) (A) (A) (A) (A) (A)
                 (A) (A) (A) (A) (A) (A) (A) (A) (A) (A) (A) (A)
                 (A) (A) (A) (A) (A) (A) (A) (A) (A) (A) (A) (A)
                 (A) (A) (A) (A) (A) (A) (A) (A) (A) (A) (A) (A)
                 (A) (A) (A) (A) (A) (A) (A) (A) (A) (A) (A) (A)
                 (A) (A) (A) (A) (A) (A) (A) (A) (A) (A) (A) (A)
                 (A) (A) (A) (A) (A) (A) (A) (A) (A) (A) (A) (A)
                 (A) (A) (A) (A) (A) (A) (A) (A) (A) (A) (A) (A)
                 (A) (A) (A) (A) (A) (A) (A) (A) (A) (A) (A) (A)
                 (A) (A) (A) (A) (A) (A) (A) (A) (A) (A) (A) (A)
                 (A) (A) (A) (A) (A) (A) (A) (A) (A) (A) (A) (A)
                 (A) (A) (A) (A) (A) (A) (A) (A) (A) (A) (A) (A)
                 (A) (A) (A) (A) (A) (A) (A) (A) (A) (A) (A) (A)
                 (A) (A) (A) (A) (A) (A) (A) (A) (A) (A) (A) (A)
                 (A) (A) (A) (A) (A) (A) (A) (A) (A) (A) (A) (A)
                 (A) (A) (A) (A) (A) (A) (A) (A) (A) (A) (A) (A)
                 (A) (A) (A) (A) (A) (A) (A) (A) (A) (A) (A) (A)
                 (A) (A) (A) (A) (A) (A) (A) (A) (A) (A) (A) (A)
                 (A) (A) (A) (A) (A) (A) (A) (A) (A) (A) (A) (A)
                 (A) (A) (A) (A) (A) (A) (A) (A) (A) (A) (A) (A)
                 (A) (A) (A) (A) (A) (A) (A) (A) (A) (A) (A) (A)
                 (A) (A) (A) (A) (A) (A) (A) (A) (A) (A) (A) (A)
                 (A) (A) (A) (A) (A) (A) (A) (A) (A) (A) (A) (A)
                 (A) (A) (A) (A) (A) (A) (A) (A) (A) (A) (A) (A)
                 (A) (A) (A) (A) (A) (A) (A) (A) (A) (A) (A) (A)
                 (A) (A) (A) (A) (A) (A) (A) (A) (A) (A) (A) (A)
                 (A) (A) (A) (A) (A) (A) (A) (A) (A) (A) (A) (A)
                 (A) (A) (A) (A) (A) (A) (A) (A) (A) (A) (A) (A)
                 (A) (A) (A) (A) (A) (A) (A) (A) (A) (A) (A) (A)
                 (A) (A) (A) (A) (A) (A) (A) (A) (A) (A) (A) (A)
                 (A) (A) (A) (A) (A) (A) (A) (A) (A) (A) (A) (A)
                 (A) (A) (A) (A) (A) (A) (A) (A) (A) (A) (A) (A)
                 (A) (A) (A) (A) (A) (A) (A) (A) (A) (A) (A) (A)
                 (A) (A) (A) (A) (A) (A) (A) (A) (A) (A) (A) (A)
                 (A) (A) (A) (A) (A) (A) (A) (A) (A) (A) (A) (A)
                 (A) (A) (A) (A) (A) (A) (A) (A) (A) (A) (A) (A)
                 (A) (A) (A) (A) (A) (A) (A) (A) (A) (A) (A) (A)
                 (A) (A) (A) (A) (A) (A) (A) (A) (A) (A) (A) (A)
                 (A) (A) (A) (A) (A) (A) (A) (A) (A) (A) (A) (A)
                 (A) (A) (A) (A) (A) (A) (A) (A) (A) (A) (A) (A)
                 (A) (A) (A) (A) (A) (A) (A) (A) (A) (A) (A) (A)
                 (A) (A) (A) (A) (A) (A) (A) (A) (A) (A) (A) (A)
                 (A) (A) (A) (A) (A) (A) (A) (A) (A) (A) (A) (A)
                 (A) (A) (A) (A) (A) (A) (A) (A) (A) (A) (A) (A)
                 (A) (A) (A) (A) (A) (A) (A) (A) (A) (A) (A) (A)
                 (A) (A) (A) (A) (A) (A) (A) (A) (A) (A) (A) (A)
                 (A) (A) (A) (A) (A) (A) (A)
 The electronic state is 1-A.
 Alpha  occ. eigenvalues --  -19.26009 -19.22162 -19.20724 -14.52510 -14.51237
 Alpha  occ. eigenvalues --  -14.49401 -14.48745 -14.47944 -14.47201 -14.46908
 Alpha  occ. eigenvalues --  -14.46216 -14.44215 -14.42587 -14.42551 -14.42525
 Alpha  occ. eigenvalues --  -14.42141 -14.42077 -14.41548 -14.40811 -14.40746
 Alpha  occ. eigenvalues --  -10.45610 -10.41397 -10.40246 -10.38355 -10.38206
 Alpha  occ. eigenvalues --  -10.37815 -10.36806 -10.35974 -10.35690 -10.35600
 Alpha  occ. eigenvalues --  -10.34727 -10.34418 -10.34129 -10.34033 -10.33711
 Alpha  occ. eigenvalues --  -10.33294 -10.33185 -10.31466 -10.31167 -10.31102
 Alpha  occ. eigenvalues --  -10.30718 -10.29208 -10.28223  -1.19538  -1.13898
 Alpha  occ. eigenvalues --   -1.13325  -1.13167  -1.12003  -1.10633  -1.09410
 Alpha  occ. eigenvalues --   -1.08772  -1.07521  -1.05581  -1.03090  -1.02586
 Alpha  occ. eigenvalues --   -1.00976  -1.00128  -0.99628  -0.98608  -0.97552
 Alpha  occ. eigenvalues --   -0.96575  -0.95134  -0.93209  -0.91095  -0.86321
 Alpha  occ. eigenvalues --   -0.84799  -0.84550  -0.84171  -0.83863  -0.82894
 Alpha  occ. eigenvalues --   -0.82469  -0.78942  -0.75548  -0.74703  -0.73879
 Alpha  occ. eigenvalues --   -0.73485  -0.73455  -0.73239  -0.71669  -0.68940
 Alpha  occ. eigenvalues --   -0.67578  -0.66864  -0.66637  -0.65267  -0.64550
 Alpha  occ. eigenvalues --   -0.63847  -0.63300  -0.62831  -0.62694  -0.61973
 Alpha  occ. eigenvalues --   -0.60702  -0.59811  -0.59592  -0.59133  -0.58995
 Alpha  occ. eigenvalues --   -0.58537  -0.58207  -0.56993  -0.56973  -0.56675
 Alpha  occ. eigenvalues --   -0.56101  -0.55863  -0.54693  -0.54484  -0.54111
 Alpha  occ. eigenvalues --   -0.53722  -0.53523  -0.53007  -0.52677  -0.52604
 Alpha  occ. eigenvalues --   -0.52239  -0.52102  -0.51509  -0.51356  -0.50734
 Alpha  occ. eigenvalues --   -0.50226  -0.49614  -0.49548  -0.48930  -0.48707
 Alpha  occ. eigenvalues --   -0.48589  -0.48332  -0.47840  -0.47622  -0.47534
 Alpha  occ. eigenvalues --   -0.47423  -0.45652  -0.45214  -0.44105  -0.43028
 Alpha  occ. eigenvalues --   -0.41795  -0.39581  -0.39319  -0.37793  -0.37444
 Alpha  occ. eigenvalues --   -0.37325  -0.36386  -0.36130  -0.35796  -0.34796
 Alpha  occ. eigenvalues --   -0.34133  -0.34101  -0.33346  -0.32981  -0.32866
 Alpha  occ. eigenvalues --   -0.32561  -0.32205  -0.32044  -0.31922  -0.31582
 Alpha  occ. eigenvalues --   -0.30916  -0.28358  -0.26370  -0.25531
 Alpha virt. eigenvalues --    0.03073   0.05298   0.07345   0.08337   0.08361
 Alpha virt. eigenvalues --    0.09304   0.09599   0.10299   0.11164   0.12187
 Alpha virt. eigenvalues --    0.12677   0.13483   0.14460   0.14619   0.15443
 Alpha virt. eigenvalues --    0.16143   0.16532   0.16630   0.16977   0.18265
 Alpha virt. eigenvalues --    0.18774   0.19322   0.19558   0.19870   0.20514
 Alpha virt. eigenvalues --    0.20611   0.21125   0.21496   0.21617   0.22379
 Alpha virt. eigenvalues --    0.22951   0.23341   0.23373   0.23543   0.23589
 Alpha virt. eigenvalues --    0.23950   0.23987   0.24332   0.25274   0.25542
 Alpha virt. eigenvalues --    0.26332   0.26840   0.27019   0.27374   0.27932
 Alpha virt. eigenvalues --    0.28794   0.29312   0.29637   0.30796   0.31048
 Alpha virt. eigenvalues --    0.31169   0.31816   0.32895   0.33099   0.33617
 Alpha virt. eigenvalues --    0.34043   0.34769   0.34994   0.35947   0.36558
 Alpha virt. eigenvalues --    0.36735   0.37682   0.38338   0.39375   0.39834
 Alpha virt. eigenvalues --    0.40175   0.40958   0.41338   0.41513   0.41612
 Alpha virt. eigenvalues --    0.42180   0.42821   0.43501   0.43729   0.44712
 Alpha virt. eigenvalues --    0.45020   0.45589   0.45793   0.46184   0.46633
 Alpha virt. eigenvalues --    0.47490   0.47994   0.48864   0.49079   0.49507
 Alpha virt. eigenvalues --    0.49736   0.50058   0.50522   0.50808   0.51070
 Alpha virt. eigenvalues --    0.51794   0.51990   0.52457   0.52961   0.53396
 Alpha virt. eigenvalues --    0.53918   0.54284   0.54786   0.55146   0.55321
 Alpha virt. eigenvalues --    0.55530   0.56141   0.56753   0.56984   0.57302
 Alpha virt. eigenvalues --    0.57647   0.58483   0.58979   0.59371   0.59602
 Alpha virt. eigenvalues --    0.59924   0.60466   0.60836   0.60980   0.61664
 Alpha virt. eigenvalues --    0.61954   0.62019   0.62314   0.63012   0.63698
 Alpha virt. eigenvalues --    0.63870   0.64465   0.64918   0.65090   0.65270
 Alpha virt. eigenvalues --    0.65652   0.65755   0.66324   0.66701   0.67071
 Alpha virt. eigenvalues --    0.67211   0.68114   0.68382   0.68759   0.69023
 Alpha virt. eigenvalues --    0.69953   0.70085   0.70598   0.71051   0.71110
 Alpha virt. eigenvalues --    0.71831   0.72245   0.72655   0.73453   0.73608
 Alpha virt. eigenvalues --    0.73964   0.74069   0.74478   0.74986   0.75309
 Alpha virt. eigenvalues --    0.75747   0.76201   0.76358   0.76520   0.76889
 Alpha virt. eigenvalues --    0.77177   0.77717   0.78154   0.78314   0.78962
 Alpha virt. eigenvalues --    0.79365   0.79990   0.80217   0.80329   0.80613
 Alpha virt. eigenvalues --    0.81211   0.81905   0.82540   0.82685   0.83049
 Alpha virt. eigenvalues --    0.83212   0.83650   0.84396   0.84842   0.85316
 Alpha virt. eigenvalues --    0.85399   0.85891   0.86329   0.87113   0.87857
 Alpha virt. eigenvalues --    0.88192   0.88340   0.89006   0.89140   0.90240
 Alpha virt. eigenvalues --    0.90753   0.91045   0.91379   0.91870   0.92553
 Alpha virt. eigenvalues --    0.92668   0.92799   0.93042   0.93641   0.94215
 Alpha virt. eigenvalues --    0.94759   0.95349   0.95591   0.96230   0.96508
 Alpha virt. eigenvalues --    0.96817   0.97404   0.97523   0.97983   0.98296
 Alpha virt. eigenvalues --    0.98541   0.99775   1.00363   1.00554   1.01570
 Alpha virt. eigenvalues --    1.01806   1.02179   1.02340   1.02771   1.03512
 Alpha virt. eigenvalues --    1.03668   1.03911   1.04348   1.04709   1.05315
 Alpha virt. eigenvalues --    1.05691   1.05793   1.06227   1.06950   1.08112
 Alpha virt. eigenvalues --    1.08746   1.08924   1.09989   1.10376   1.11242
 Alpha virt. eigenvalues --    1.11530   1.12105   1.12234   1.12602   1.13502
 Alpha virt. eigenvalues --    1.13912   1.14517   1.14693   1.14893   1.15295
 Alpha virt. eigenvalues --    1.15992   1.16681   1.17062   1.17302   1.17860
 Alpha virt. eigenvalues --    1.18284   1.18540   1.18647   1.19452   1.19490
 Alpha virt. eigenvalues --    1.20100   1.20627   1.20912   1.21266   1.21626
 Alpha virt. eigenvalues --    1.21943   1.21997   1.22380   1.22645   1.22790
 Alpha virt. eigenvalues --    1.23532   1.23977   1.24180   1.25026   1.25312
 Alpha virt. eigenvalues --    1.25757   1.26148   1.26749   1.27276   1.28453
 Alpha virt. eigenvalues --    1.28632   1.29841   1.30181   1.30289   1.31078
 Alpha virt. eigenvalues --    1.32021   1.32365   1.33430   1.33984   1.34331
 Alpha virt. eigenvalues --    1.35243   1.35462   1.35573   1.36236   1.37163
 Alpha virt. eigenvalues --    1.37649   1.38258   1.38909   1.39083   1.40012
 Alpha virt. eigenvalues --    1.41013   1.42615   1.43608   1.44321   1.44855
 Alpha virt. eigenvalues --    1.45193   1.45685   1.47914   1.48094   1.48130
 Alpha virt. eigenvalues --    1.48619   1.48922   1.49408   1.50138   1.50808
 Alpha virt. eigenvalues --    1.51699   1.51971   1.52876   1.53308   1.54713
 Alpha virt. eigenvalues --    1.55626   1.55663   1.56403   1.57406   1.57668
 Alpha virt. eigenvalues --    1.58724   1.59165   1.59552   1.60525   1.61330
 Alpha virt. eigenvalues --    1.61936   1.62285   1.62500   1.62783   1.64008
 Alpha virt. eigenvalues --    1.64534   1.65359   1.65966   1.66827   1.66869
 Alpha virt. eigenvalues --    1.67355   1.67655   1.68195   1.68757   1.69158
 Alpha virt. eigenvalues --    1.69733   1.70045   1.70343   1.70721   1.71152
 Alpha virt. eigenvalues --    1.71862   1.71970   1.72448   1.72984   1.73261
 Alpha virt. eigenvalues --    1.74300   1.74408   1.74651   1.74949   1.75112
 Alpha virt. eigenvalues --    1.75584   1.75791   1.76022   1.76494   1.77173
 Alpha virt. eigenvalues --    1.77352   1.77859   1.78288   1.78857   1.79247
 Alpha virt. eigenvalues --    1.79456   1.79715   1.79994   1.80477   1.80564
 Alpha virt. eigenvalues --    1.80690   1.81337   1.81615   1.82081   1.82312
 Alpha virt. eigenvalues --    1.82410   1.83052   1.83359   1.84099   1.84991
 Alpha virt. eigenvalues --    1.85806   1.86023   1.86277   1.86537   1.87132
 Alpha virt. eigenvalues --    1.87741   1.87974   1.88283   1.88366   1.88607
 Alpha virt. eigenvalues --    1.88797   1.89268   1.90070   1.90682   1.91400
 Alpha virt. eigenvalues --    1.91913   1.92356   1.92787   1.93410   1.93703
 Alpha virt. eigenvalues --    1.93944   1.94519   1.95425   1.96581   1.97314
 Alpha virt. eigenvalues --    1.98684   1.99238   1.99538   2.00228   2.01478
 Alpha virt. eigenvalues --    2.01791   2.02257   2.02984   2.03956   2.04626
 Alpha virt. eigenvalues --    2.04754   2.05488   2.05881   2.06821   2.07285
 Alpha virt. eigenvalues --    2.07825   2.08073   2.08555   2.09007   2.09896
 Alpha virt. eigenvalues --    2.10280   2.10750   2.11217   2.12630   2.12901
 Alpha virt. eigenvalues --    2.13581   2.14161   2.14178   2.16765   2.17792
 Alpha virt. eigenvalues --    2.18850   2.19496   2.19935   2.20583   2.20921
 Alpha virt. eigenvalues --    2.21583   2.22135   2.22794   2.23373   2.23647
 Alpha virt. eigenvalues --    2.24407   2.25187   2.25806   2.26188   2.27498
 Alpha virt. eigenvalues --    2.27604   2.28100   2.28939   2.29046   2.29238
 Alpha virt. eigenvalues --    2.29825   2.30503   2.30801   2.32090   2.32585
 Alpha virt. eigenvalues --    2.33482   2.33668   2.34109   2.34653   2.35009
 Alpha virt. eigenvalues --    2.35109   2.35527   2.36636   2.36915   2.37481
 Alpha virt. eigenvalues --    2.38231   2.39876   2.40203   2.40990   2.41161
 Alpha virt. eigenvalues --    2.41780   2.42448   2.42844   2.43217   2.44096
 Alpha virt. eigenvalues --    2.45358   2.45650   2.45851   2.46163   2.46948
 Alpha virt. eigenvalues --    2.47595   2.48720   2.49079   2.50292   2.51636
 Alpha virt. eigenvalues --    2.52779   2.53251   2.54354   2.54398   2.56448
 Alpha virt. eigenvalues --    2.56490   2.57098   2.57229   2.58729   2.59756
 Alpha virt. eigenvalues --    2.60361   2.60763   2.61570   2.62397   2.63043
 Alpha virt. eigenvalues --    2.64378   2.64713   2.64970   2.65112   2.66238
 Alpha virt. eigenvalues --    2.67176   2.67791   2.68150   2.68390   2.69322
 Alpha virt. eigenvalues --    2.70611   2.70876   2.71149   2.71840   2.72594
 Alpha virt. eigenvalues --    2.73710   2.74126   2.74976   2.75057   2.75855
 Alpha virt. eigenvalues --    2.77651   2.79006   2.79447   2.79485   2.79630
 Alpha virt. eigenvalues --    2.79840   2.80198   2.80739   2.81500   2.81972
 Alpha virt. eigenvalues --    2.82263   2.82369   2.82508   2.83342   2.83758
 Alpha virt. eigenvalues --    2.84828   2.85983   2.86425   2.86911   2.87167
 Alpha virt. eigenvalues --    2.87553   2.88083   2.88995   2.90982   2.91719
 Alpha virt. eigenvalues --    2.94092   2.96360   2.96947   2.98026   2.98816
 Alpha virt. eigenvalues --    2.99577   3.01368   3.02533   3.04459   3.05638
 Alpha virt. eigenvalues --    3.06564   3.09378   3.10698   3.14149   3.14464
 Alpha virt. eigenvalues --    3.15060   3.15307   3.15893   3.17567   3.20372
 Alpha virt. eigenvalues --    3.22125   3.22933   3.23208   3.23910   3.26621
 Alpha virt. eigenvalues --    3.46397   3.46830   3.47761   3.49765   3.50892
 Alpha virt. eigenvalues --    3.52942   3.53863   3.56290   3.57847   3.59902
 Alpha virt. eigenvalues --    3.62708   3.71232   3.74462
          Condensed to atoms (all electrons):
 Mulliken charges:
               1
     1  N   -0.311047
     2  C    0.180719
     3  C    0.032414
     4  N   -0.257465
     5  C    0.133365
     6  H    0.028477
     7  N   -0.284622
     8  C    0.123384
     9  H    0.015315
    10  N   -0.288174
    11  C    0.236841
    12  C    0.112947
    13  N   -0.046666
    14  H    0.107833
    15  H    0.088981
    16  H    0.027087
    17  H    0.035404
    18  H    0.026114
    19  N   -0.305854
    20  C    0.237354
    21  C    0.181111
    22  N   -0.118245
    23  H    0.113807
    24  H    0.117497
    25  N   -0.294910
    26  C    0.232700
    27  N   -0.122396
    28  H    0.118799
    29  C    0.152663
    30  O   -0.322025
    31  C   -0.003850
    32  N   -0.222339
    33  C    0.130772
    34  H    0.029875
    35  H    0.030998
    36  H    0.027630
    37  H    0.023906
    38  H    0.058390
    39  H    0.062009
    40  H    0.070941
    41  H    0.031041
    42  C   -0.108311
    43  O   -0.273542
    44  C    0.172356
    45  H    0.135769
    46  N   -0.133290
    47  O   -0.354095
    48  C    0.364467
    49  H    0.047715
    50  C    0.178190
    51  C    0.040376
    52  N   -0.294183
    53  H    0.032588
    54  H    0.040266
    55  H    0.014861
    56  H    0.121002
    57  H    0.118478
    58  N   -0.050694
    59  C    0.116802
    60  C    0.233527
    61  N   -0.260319
    62  H    0.047629
    63  C    0.147333
    64  N   -0.299926
    65  H    0.025532
    66  C    0.128357
    67  N   -0.263201
    68  C    0.015726
    69  C    0.172750
    70  N   -0.306945
 Sum of Mulliken charges =  -0.00000
 Mulliken charges with hydrogens summed into heavy atoms:
               1
     1  N   -0.311047
     2  C    0.269324
     3  C    0.032414
     4  N   -0.257465
     5  C    0.161842
     7  N   -0.284622
     8  C    0.138699
    10  N   -0.288174
    11  C    0.236841
    12  C    0.112947
    13  N    0.150149
    19  N   -0.305854
    20  C    0.237354
    21  C    0.263646
    22  N    0.113060
    25  N   -0.294910
    26  C    0.232700
    27  N   -0.003597
    29  C    0.152663
    30  O   -0.322025
    31  C   -0.003850
    32  N   -0.222339
    33  C    0.160647
    42  C   -0.077270
    43  O   -0.273542
    44  C    0.172356
    46  N    0.002479
    47  O   -0.354095
    48  C    0.364467
    50  C    0.225905
    51  C    0.231715
    52  N   -0.294183
    58  N    0.188786
    59  C    0.116802
    60  C    0.233527
    61  N   -0.260319
    63  C    0.194963
    64  N   -0.299926
    66  C    0.153890
    67  N   -0.263201
    68  C    0.015726
    69  C    0.260465
    70  N   -0.306945
 Electronic spatial extent (au):  <R**2>=          24526.9043
 Charge=             -0.0000 electrons
 Dipole moment (field-independent basis, Debye):
    X=              6.8238    Y=              5.9619    Z=              2.5839  Tot=              9.4226
 Quadrupole moment (field-independent basis, Debye-Ang):
   XX=           -139.8384   YY=           -224.7847   ZZ=           -252.0986
   XY=             10.8965   XZ=             16.7872   YZ=             -6.8650
 Traceless Quadrupole moment (field-independent basis, Debye-Ang):
   XX=             65.7355   YY=            -19.2108   ZZ=            -46.5247
   XY=             10.8965   XZ=             16.7872   YZ=             -6.8650
 Octapole moment (field-independent basis, Debye-Ang**2):
  XXX=             45.4446  YYY=             99.0683  ZZZ=             11.0718  XYY=             48.6269
  XXY=            -20.7706  XXZ=            -65.0570  XZZ=             23.8187  YZZ=             43.4612
  YYZ=             44.6052  XYZ=             40.1899
 Hexadecapole moment (field-independent basis, Debye-Ang**3):
 XXXX=         -16409.8454 YYYY=          -5089.7762 ZZZZ=          -3125.1535 XXXY=            442.5614
 XXXZ=            309.2083 YYYX=             86.4690 YYYZ=            -92.5980 ZZZX=             87.1775
 ZZZY=             55.0140 XXYY=          -4442.2981 XXZZ=          -4443.9896 YYZZ=          -1411.9732
 XXYZ=             80.8093 YYXZ=            197.4102 ZZXY=             81.3267
 N-N= 5.436050902557D+03 E-N=-1.565306939170D+04  KE= 2.037717032257D+03
 No NMR shielding tensors so no spin-rotation constants.
 Leave Link  601 at Mon Jan 22 17:38:02 2018, MaxMem=  4294967296 cpu:              45.5 elap:               1.6
 (Enter /share/apps/g16/l9999.exe)
 1\1\GINC-COMPUTE-0-3\SP\RwB97XD\CC-pVDZ\C23H27N17O3\SATYA\22-Jan-2018\
 0\\#p wb97xd/cc-pvdz sp scf=(maxcycles=20)\\Base pair stacking\\0,1\N,
 0,8.12292,6.96279,-5.91681\C,0,8.84953,8.2411,-6.04311\C,0,6.54592,5.4
 2995,-5.88839\N,0,7.72509,4.77986,-5.5542\C,0,8.62797,5.72936,-5.5847\
 H,0,9.68743,5.58454,-5.37136\N,0,4.28256,5.88338,-6.37266\C,0,4.65603,
 7.15358,-6.55891\H,0,3.85492,7.83825,-6.83404\N,0,5.86485,7.70242,-6.4
 568\C,0,6.77536,6.77592,-6.11474\C,0,5.2221,4.97543,-6.02921\N,0,4.851
 24,3.707,-5.84286\H,0,5.5131,3.00122,-5.58782\H,0,3.89971,3.41911,-5.9
 5176\H,0,9.55447,8.1572,-6.74752\H,0,8.20954,8.96537,-6.29799\H,0,9.27
 915,8.47041,-5.1697\N,0,2.5012,7.04822,-3.21822\C,0,1.49527,6.11382,-3
 .27334\C,0,2.32089,8.50641,-3.3661\N,0,-1.8671,5.33313,-3.65644\H,0,-2
 .43768,4.51238,-3.66302\H,0,-2.33064,6.20907,-3.79275\N,0,0.18367,6.36
 874,-3.47027\C,0,-0.53991,5.26328,-3.47313\N,0,-0.0207,4.00359,-3.2968
 \H,0,-0.6493,3.21521,-3.31389\C,0,1.32559,3.71778,-3.09261\O,0,1.69051
 ,2.54493,-2.94428\C,0,2.11548,4.89545,-3.08702\N,0,3.48327,5.06162,-2.
 91832\C,0,3.6653,6.35151,-3.00349\H,0,4.63169,6.84932,-2.9166\H,0,2.84
 989,8.83164,-4.14918\H,0,1.35318,8.7073,-3.51249\H,0,2.63446,8.96847,-
 2.53725\H,0,-4.20172,-0.32634,-4.14481\H,0,-4.25112,-0.39254,-2.38475\
 H,0,-3.87176,1.12551,-3.19897\H,0,-0.26872,-2.9492,-3.25109\C,0,-0.590
 47,-1.90814,-3.22096\O,0,1.61411,-1.0375,-3.12633\C,0,0.39478,-0.87243
 ,-3.15435\H,0,0.54647,1.16687,-3.07339\N,0,-0.11907,0.40822,-3.12061\O
 ,0,-1.80131,1.93372,-3.11045\C,0,-1.44283,0.76966,-3.14417\H,0,-2.6776
 7,-2.33684,-3.29568\C,0,-1.88927,-1.58702,-3.24535\C,0,-3.75786,0.0523
 ,-3.23614\N,0,-2.33196,-0.28508,-3.2088\H,0,-3.35905,4.18477,-7.55709\
 H,0,-2.45161,5.09166,-6.54903\H,0,-3.61866,4.12226,-5.94709\H,0,2.9052
 3,0.58817,-5.85746\H,0,1.42392,-0.21384,-6.12691\N,0,1.91933,0.64818,-
 6.01411\C,0,1.29215,1.82489,-6.07027\C,0,-0.59678,3.25007,-6.32035\N,0
 ,0.09408,4.39161,-6.16536\H,0,2.02032,5.00693,-5.83131\C,0,1.38504,4.1
 3272,-5.96713\N,0,2.01514,2.95487,-5.91054\H,0,-3.17862,1.36648,-6.808
 55\C,0,-2.17867,1.76386,-6.63216\N,0,-1.10106,1.03229,-6.48638\C,0,-0.
 09084,1.96225,-6.28799\C,0,-2.92187,4.21642,-6.65828\N,0,-1.94662,3.11
 477,-6.54314\\Version=EM64L-G16RevA.03\State=1-A\HF=-2048.7451645\RMSD
 =6.158e-09\Dipole=-3.6674077,0.2769111,-0.4649585\Quadrupole=34.778866
 6,0.6578406,-35.4367072,29.1569662,-4.5787583,6.1628346\PG=C01 [X(C23H
 27N17O3)]\\@


 SCIENCE IS LONG AND LIFE IS SHORT.

                     DON MOSER IN THE FEBRUARY 1979 SMITHSONIAN
 Job cpu time:       0 days  5 hours 50 minutes 59.4 seconds.
 Elapsed time:       0 days  0 hours 11 minutes 18.9 seconds.
 File lengths (MBytes):  RWF=    298 Int=      0 D2E=      0 Chk=     33 Scr=      1
 Normal termination of Gaussian 16 at Mon Jan 22 17:38:02 2018.
