 Entering Gaussian System, Link 0=g16
 Input=str35.-15.0.0.com
 Output=str35.-15.0.0.log
 Initial command:
 /share/apps/g16/l1.exe "/state/partition1/scr/Gau-14938.inp" -scrdir="/state/partition1/scr/"
 Entering Link 1 = /share/apps/g16/l1.exe PID=     14939.
  
 Copyright (c) 1988,1990,1992,1993,1995,1998,2003,2009,2016,
            Gaussian, Inc.  All Rights Reserved.
  
 This is part of the Gaussian(R) 16 program.  It is based on
 the Gaussian(R) 09 system (copyright 2009, Gaussian, Inc.),
 the Gaussian(R) 03 system (copyright 2003, Gaussian, Inc.),
 the Gaussian(R) 98 system (copyright 1998, Gaussian, Inc.),
 the Gaussian(R) 94 system (copyright 1995, Gaussian, Inc.),
 the Gaussian 92(TM) system (copyright 1992, Gaussian, Inc.),
 the Gaussian 90(TM) system (copyright 1990, Gaussian, Inc.),
 the Gaussian 88(TM) system (copyright 1988, Gaussian, Inc.),
 the Gaussian 86(TM) system (copyright 1986, Carnegie Mellon
 University), and the Gaussian 82(TM) system (copyright 1983,
 Carnegie Mellon University). Gaussian is a federally registered
 trademark of Gaussian, Inc.
  
 This software contains proprietary and confidential information,
 including trade secrets, belonging to Gaussian, Inc.
  
 This software is provided under written license and may be
 used, copied, transmitted, or stored only in accord with that
 written license.
  
 The following legend is applicable only to US Government
 contracts under FAR:
  
                    RESTRICTED RIGHTS LEGEND
  
 Use, reproduction and disclosure by the US Government is
 subject to restrictions as set forth in subparagraphs (a)
 and (c) of the Commercial Computer Software - Restricted
 Rights clause in FAR 52.227-19.
  
 Gaussian, Inc.
 340 Quinnipiac St., Bldg. 40, Wallingford CT 06492
  
  
 ---------------------------------------------------------------
 Warning -- This program may not be used in any manner that
 competes with the business of Gaussian, Inc. or will provide
 assistance to any competitor of Gaussian, Inc.  The licensee
 of this program is prohibited from giving any competitor of
 Gaussian, Inc. access to this program.  By using this program,
 the user acknowledges that Gaussian, Inc. is engaged in the
 business of creating and licensing software in the field of
 computational chemistry and represents and warrants to the
 licensee that it is not a competitor of Gaussian, Inc. and that
 it will not use this program in any manner prohibited above.
 ---------------------------------------------------------------
  

 Cite this work as:
 Gaussian 16, Revision A.03,
 M. J. Frisch, G. W. Trucks, H. B. Schlegel, G. E. Scuseria, 
 M. A. Robb, J. R. Cheeseman, G. Scalmani, V. Barone, 
 G. A. Petersson, H. Nakatsuji, X. Li, M. Caricato, A. V. Marenich, 
 J. Bloino, B. G. Janesko, R. Gomperts, B. Mennucci, H. P. Hratchian, 
 J. V. Ortiz, A. F. Izmaylov, J. L. Sonnenberg, D. Williams-Young, 
 F. Ding, F. Lipparini, F. Egidi, J. Goings, B. Peng, A. Petrone, 
 T. Henderson, D. Ranasinghe, V. G. Zakrzewski, J. Gao, N. Rega, 
 G. Zheng, W. Liang, M. Hada, M. Ehara, K. Toyota, R. Fukuda, 
 J. Hasegawa, M. Ishida, T. Nakajima, Y. Honda, O. Kitao, H. Nakai, 
 T. Vreven, K. Throssell, J. A. Montgomery, Jr., J. E. Peralta, 
 F. Ogliaro, M. J. Bearpark, J. J. Heyd, E. N. Brothers, K. N. Kudin, 
 V. N. Staroverov, T. A. Keith, R. Kobayashi, J. Normand, 
 K. Raghavachari, A. P. Rendell, J. C. Burant, S. S. Iyengar, 
 J. Tomasi, M. Cossi, J. M. Millam, M. Klene, C. Adamo, R. Cammi, 
 J. W. Ochterski, R. L. Martin, K. Morokuma, O. Farkas, 
 J. B. Foresman, and D. J. Fox, Gaussian, Inc., Wallingford CT, 2016.
 
 ******************************************
 Gaussian 16:  EM64L-G16RevA.03 25-Dec-2016
                22-Jan-2018 
 ******************************************
 %nprocshared=32
 Will use up to   32 processors via shared memory.
 %mem=32GB
 %chk=allatoms_t.chk
 ---------------------------------------
 #p wb97xd/cc-pvdz sp scf=(maxcycles=20)
 ---------------------------------------
 1/38=1,172=1/1;
 2/12=2,17=6,18=5,40=1/2;
 3/5=16,11=2,25=1,30=1,74=-58/1,2,3;
 4//1;
 5/5=2,7=20,38=5/2;
 6/7=2,8=2,9=2,10=2,28=1/1;
 99/5=1,9=1/99;
 Leave Link    1 at Mon Jan 22 04:54:06 2018, MaxMem=  4294967296 cpu:               2.7 elap:               0.1
 (Enter /share/apps/g16/l101.exe)
 ------------------
 Base pair stacking
 ------------------
 Symbolic Z-matrix:
 Charge =  0 Multiplicity = 1
 N                     3.24711   3.74516  -7.22697 
 C                     3.96551   5.03403  -7.25398 
 C                     1.71262   2.19416  -6.94938 
 N                     2.82431   1.55078  -7.47373 
 C                     3.70429   2.51096  -7.61997 
 H                     4.71186   2.37385  -8.01362 
 N                    -0.43702   2.63166  -6.08303 
 C                    -0.05558   3.90963  -5.98877 
 H                    -0.80603   4.59067  -5.58968 
 N                     1.10821   4.47     -6.31198 
 C                     1.95819   3.54707  -6.79172 
 C                     0.44102   1.72757  -6.56959 
 N                     0.06211   0.4514   -6.66444 
 H                     0.67933  -0.25191  -7.01887 
 H                    -0.85111   0.15499  -6.38461 
 H                     4.23182   5.24912  -8.19366 
 H                     3.36951   5.75607  -6.90389 
 H                     4.78415   4.97374  -6.68286 
 N                     1.18404   4.67064  -3.26799 
 C                     0.19246   3.73474  -3.09796 
 C                     0.99585   6.13412  -3.20891 
 N                    -3.13702   2.95709  -2.48839 
 H                    -3.69759   2.1345   -2.39707 
 H                    -3.60236   3.83682  -2.38706 
 N                    -1.10991   3.99276  -2.85034 
 C                    -1.82038   2.88475  -2.73565 
 N                    -1.29737   1.61986  -2.85406 
 H                    -1.91569   0.82986  -2.75141 
 C                     0.0396    1.33079  -3.10866 
 O                     0.40904   0.15331  -3.19694 
 C                     0.81537   2.51115  -3.23437 
 N                     2.17075   2.67556  -3.48499 
 C                     2.34298   3.96956  -3.49604 
 H                     3.29816   4.46743  -3.66643 
 H                     1.26121   6.5415   -4.08209 
 H                     0.03486   6.33734  -3.02599 
 H                     1.561     6.5153   -2.47807 
 H                    -5.62032  -2.65264  -2.77595 
 H                    -5.12075  -2.89364  -1.10353 
 H                    -4.9834   -1.29804  -1.84282 
 H                    -1.65777  -5.30557  -3.41372 
 C                    -1.93328  -4.27642  -3.18312 
 O                     0.20817  -3.39405  -3.69565 
 C                    -0.95575  -3.24112  -3.32594 
 H                    -0.74567  -1.21828  -3.0972 
 N                    -1.40786  -1.97615  -3.0086 
 O                    -2.97253  -0.47872  -2.32543 
 C                    -2.6657   -1.62947  -2.58291 
 H                    -3.94819  -4.71969  -2.64511 
 C                    -3.16847  -3.9695   -2.76993 
 C                    -4.9082   -2.36088  -2.01844 
 N                    -3.55167  -2.6828   -2.47004 
 H                    -7.84915   0.93257  -3.87944 
 H                    -6.47246   1.49162  -3.20542 
 H                    -7.3108    0.29579  -2.47654 
 H                    -1.996    -2.59268  -6.77406 
 H                    -3.50613  -3.35014  -6.53775 
 N                    -2.92212  -2.54956  -6.39911 
 C                    -3.35986  -1.47283  -5.74322 
 C                    -4.96     -0.1827   -4.54454 
 N                    -4.15363   0.87791  -4.3734 
 H                    -2.24677   1.46882  -4.83743 
 C                    -2.96493   0.65527  -4.93046 
 N                    -2.52457  -0.42248  -5.58782 
 H                    -7.65668  -1.95058  -4.31073 
 C                    -6.65642  -1.57199  -4.52304 
 N                    -5.73273  -2.2329   -5.17701 
 C                    -4.65191  -1.36334  -5.19776 
 C                    -7.03441   0.67916  -3.35791 
 N                    -6.25691  -0.32409  -4.1109 
 
 ITRead=  0  0  0  0  0  0  0  0  0  0  0  0  0  0  0  0  0  0  0  0
 ITRead=  0  0  0  0  0  0  0  0  0  0  0  0  0  0  0  0  0  0  0  0
 ITRead=  0  0  0  0  0  0  0  0  0  0  0  0  0  0  0  0  0  0  0  0
 ITRead=  0  0  0  0  0  0  0  0  0  0
 MicOpt= -1 -1 -1 -1 -1 -1 -1 -1 -1 -1 -1 -1 -1 -1 -1 -1 -1 -1 -1 -1
 MicOpt= -1 -1 -1 -1 -1 -1 -1 -1 -1 -1 -1 -1 -1 -1 -1 -1 -1 -1 -1 -1
 MicOpt= -1 -1 -1 -1 -1 -1 -1 -1 -1 -1 -1 -1 -1 -1 -1 -1 -1 -1 -1 -1
 MicOpt= -1 -1 -1 -1 -1 -1 -1 -1 -1 -1
 NAtoms=     70 NQM=       70 NQMF=       0 NMMI=      0 NMMIF=      0
                NMic=       0 NMicF=      0.
                    Isotopes and Nuclear Properties:
 (Nuclear quadrupole moments (NQMom) in fm**2, nuclear magnetic moments (NMagM)
  in nuclear magnetons)

  Atom         1           2           3           4           5           6           7           8           9          10
 IAtWgt=          14          12          12          14          12           1          14          12           1          14
 AtmWgt=  14.0030740  12.0000000  12.0000000  14.0030740  12.0000000   1.0078250  14.0030740  12.0000000   1.0078250  14.0030740
 NucSpn=           2           0           0           2           0           1           2           0           1           2
 AtZEff=  -0.0000000  -0.0000000  -0.0000000  -0.0000000  -0.0000000  -0.0000000  -0.0000000  -0.0000000  -0.0000000  -0.0000000
 NQMom=    2.0440000   0.0000000   0.0000000   2.0440000   0.0000000   0.0000000   2.0440000   0.0000000   0.0000000   2.0440000
 NMagM=    0.4037610   0.0000000   0.0000000   0.4037610   0.0000000   2.7928460   0.4037610   0.0000000   2.7928460   0.4037610
 AtZNuc=   7.0000000   6.0000000   6.0000000   7.0000000   6.0000000   1.0000000   7.0000000   6.0000000   1.0000000   7.0000000

  Atom        11          12          13          14          15          16          17          18          19          20
 IAtWgt=          12          12          14           1           1           1           1           1          14          12
 AtmWgt=  12.0000000  12.0000000  14.0030740   1.0078250   1.0078250   1.0078250   1.0078250   1.0078250  14.0030740  12.0000000
 NucSpn=           0           0           2           1           1           1           1           1           2           0
 AtZEff=  -0.0000000  -0.0000000  -0.0000000  -0.0000000  -0.0000000  -0.0000000  -0.0000000  -0.0000000  -0.0000000  -0.0000000
 NQMom=    0.0000000   0.0000000   2.0440000   0.0000000   0.0000000   0.0000000   0.0000000   0.0000000   2.0440000   0.0000000
 NMagM=    0.0000000   0.0000000   0.4037610   2.7928460   2.7928460   2.7928460   2.7928460   2.7928460   0.4037610   0.0000000
 AtZNuc=   6.0000000   6.0000000   7.0000000   1.0000000   1.0000000   1.0000000   1.0000000   1.0000000   7.0000000   6.0000000

  Atom        21          22          23          24          25          26          27          28          29          30
 IAtWgt=          12          14           1           1          14          12          14           1          12          16
 AtmWgt=  12.0000000  14.0030740   1.0078250   1.0078250  14.0030740  12.0000000  14.0030740   1.0078250  12.0000000  15.9949146
 NucSpn=           0           2           1           1           2           0           2           1           0           0
 AtZEff=  -0.0000000  -0.0000000  -0.0000000  -0.0000000  -0.0000000  -0.0000000  -0.0000000  -0.0000000  -0.0000000  -0.0000000
 NQMom=    0.0000000   2.0440000   0.0000000   0.0000000   2.0440000   0.0000000   2.0440000   0.0000000   0.0000000   0.0000000
 NMagM=    0.0000000   0.4037610   2.7928460   2.7928460   0.4037610   0.0000000   0.4037610   2.7928460   0.0000000   0.0000000
 AtZNuc=   6.0000000   7.0000000   1.0000000   1.0000000   7.0000000   6.0000000   7.0000000   1.0000000   6.0000000   8.0000000

  Atom        31          32          33          34          35          36          37          38          39          40
 IAtWgt=          12          14          12           1           1           1           1           1           1           1
 AtmWgt=  12.0000000  14.0030740  12.0000000   1.0078250   1.0078250   1.0078250   1.0078250   1.0078250   1.0078250   1.0078250
 NucSpn=           0           2           0           1           1           1           1           1           1           1
 AtZEff=  -0.0000000  -0.0000000  -0.0000000  -0.0000000  -0.0000000  -0.0000000  -0.0000000  -0.0000000  -0.0000000  -0.0000000
 NQMom=    0.0000000   2.0440000   0.0000000   0.0000000   0.0000000   0.0000000   0.0000000   0.0000000   0.0000000   0.0000000
 NMagM=    0.0000000   0.4037610   0.0000000   2.7928460   2.7928460   2.7928460   2.7928460   2.7928460   2.7928460   2.7928460
 AtZNuc=   6.0000000   7.0000000   6.0000000   1.0000000   1.0000000   1.0000000   1.0000000   1.0000000   1.0000000   1.0000000

  Atom        41          42          43          44          45          46          47          48          49          50
 IAtWgt=           1          12          16          12           1          14          16          12           1          12
 AtmWgt=   1.0078250  12.0000000  15.9949146  12.0000000   1.0078250  14.0030740  15.9949146  12.0000000   1.0078250  12.0000000
 NucSpn=           1           0           0           0           1           2           0           0           1           0
 AtZEff=  -0.0000000  -0.0000000  -0.0000000  -0.0000000  -0.0000000  -0.0000000  -0.0000000  -0.0000000  -0.0000000  -0.0000000
 NQMom=    0.0000000   0.0000000   0.0000000   0.0000000   0.0000000   2.0440000   0.0000000   0.0000000   0.0000000   0.0000000
 NMagM=    2.7928460   0.0000000   0.0000000   0.0000000   2.7928460   0.4037610   0.0000000   0.0000000   2.7928460   0.0000000
 AtZNuc=   1.0000000   6.0000000   8.0000000   6.0000000   1.0000000   7.0000000   8.0000000   6.0000000   1.0000000   6.0000000

  Atom        51          52          53          54          55          56          57          58          59          60
 IAtWgt=          12          14           1           1           1           1           1          14          12          12
 AtmWgt=  12.0000000  14.0030740   1.0078250   1.0078250   1.0078250   1.0078250   1.0078250  14.0030740  12.0000000  12.0000000
 NucSpn=           0           2           1           1           1           1           1           2           0           0
 AtZEff=  -0.0000000  -0.0000000  -0.0000000  -0.0000000  -0.0000000  -0.0000000  -0.0000000  -0.0000000  -0.0000000  -0.0000000
 NQMom=    0.0000000   2.0440000   0.0000000   0.0000000   0.0000000   0.0000000   0.0000000   2.0440000   0.0000000   0.0000000
 NMagM=    0.0000000   0.4037610   2.7928460   2.7928460   2.7928460   2.7928460   2.7928460   0.4037610   0.0000000   0.0000000
 AtZNuc=   6.0000000   7.0000000   1.0000000   1.0000000   1.0000000   1.0000000   1.0000000   7.0000000   6.0000000   6.0000000

  Atom        61          62          63          64          65          66          67          68          69          70
 IAtWgt=          14           1          12          14           1          12          14          12          12          14
 AtmWgt=  14.0030740   1.0078250  12.0000000  14.0030740   1.0078250  12.0000000  14.0030740  12.0000000  12.0000000  14.0030740
 NucSpn=           2           1           0           2           1           0           2           0           0           2
 AtZEff=  -0.0000000  -0.0000000  -0.0000000  -0.0000000  -0.0000000  -0.0000000  -0.0000000  -0.0000000  -0.0000000  -0.0000000
 NQMom=    2.0440000   0.0000000   0.0000000   2.0440000   0.0000000   0.0000000   2.0440000   0.0000000   0.0000000   2.0440000
 NMagM=    0.4037610   2.7928460   0.0000000   0.4037610   2.7928460   0.0000000   0.4037610   0.0000000   0.0000000   0.4037610
 AtZNuc=   7.0000000   1.0000000   6.0000000   7.0000000   1.0000000   6.0000000   7.0000000   6.0000000   6.0000000   7.0000000
 Leave Link  101 at Mon Jan 22 04:54:07 2018, MaxMem=  4294967296 cpu:               7.4 elap:               0.3
 (Enter /share/apps/g16/l202.exe)
 Stoichiometry    C23H27N17O3
 Framework group  C1[X(C23H27N17O3)]
 Deg. of freedom   204
 Full point group                 C1      NOp   1
 Largest Abelian subgroup         C1      NOp   1
 Largest concise Abelian subgroup C1      NOp   1
                         Standard orientation:                         
 ---------------------------------------------------------------------
 Center     Atomic      Atomic             Coordinates (Angstroms)
 Number     Number       Type             X           Y           Z
 ---------------------------------------------------------------------
      1          7           0        5.785359   -1.445034   -1.049933
      2          6           0        7.150605   -0.885817   -1.012606
      3          6           0        3.600080   -1.661183   -1.173024
      4          7           0        4.108822   -2.942794   -1.020085
      5          6           0        5.405014   -2.761266   -0.952040
      6          1           0        6.137300   -3.559829   -0.829519
      7          7           0        2.125912    0.160533   -1.439668
      8          6           0        3.211751    0.940622   -1.441265
      9          1           0        3.018343    2.006585   -1.553416
     10          7           0        4.494598    0.603230   -1.325688
     11          6           0        4.621498   -0.727467   -1.193188
     12          6           0        2.286983   -1.173963   -1.304575
     13          7           0        1.204285   -1.954309   -1.302743
     14          1           0        1.276299   -2.947562   -1.205336
     15          1           0        0.284781   -1.572922   -1.398613
     16          1           0        7.689770   -1.268797   -1.762814
     17          1           0        7.107159    0.108211   -1.108217
     18          1           0        7.583862   -1.116572   -0.141385
     19          7           0        4.014263    2.010870    1.338840
     20          6           0        2.647187    1.916023    1.238054
     21          6           0        4.812452    3.211831    1.020614
     22          7           0       -0.419028    3.354112    0.468650
     23          1           0       -1.381026    3.082487    0.465157
     24          1           0       -0.210563    4.289265    0.180960
     25          7           0        1.810125    2.896139    0.834622
     26          6           0        0.548695    2.503271    0.842141
     27          7           0        0.136437    1.247115    1.215801
     28          1           0       -0.849050    1.034662    1.190568
     29          6           0        0.980145    0.222986    1.634356
     30          8           0        0.505910   -0.875272    1.950060
     31          6           0        2.338510    0.630061    1.631522
     32          7           0        3.488653   -0.068377    1.972478
     33          6           0        4.455286    0.788498    1.783773
     34          1           0        5.512023    0.580023    1.954423
     35          1           0        5.460993    2.999234    0.290536
     36          1           0        4.203073    3.944567    0.720589
     37          1           0        5.311942    3.507346    1.834248
     38          1           0       -5.803138    0.408936    0.232358
     39          1           0       -5.960600    0.683204    1.965742
     40          1           0       -4.664708    1.469348    1.063526
     41          1           0       -4.492079   -3.898136    1.928487
     42          6           0       -4.076567   -2.897613    1.807922
     43          8           0       -1.830415   -3.592782    2.121952
     44          6           0       -2.661276   -2.710624    1.906892
     45          1           0       -1.247149   -1.234971    1.801861
     46          7           0       -2.240746   -1.406725    1.738785
     47          8           0       -2.561220    0.809197    1.359056
     48          6           0       -3.026808   -0.308738    1.493649
     49          1           0       -5.951420   -1.934986    1.485305
     50          6           0       -4.869138   -1.846124    1.569547
     51          6           0       -5.260208    0.572798    1.151290
     52          7           0       -4.380437   -0.569907    1.412016
     53          1           0       -4.864446    3.747163   -2.416075
     54          1           0       -3.645218    3.722745   -1.332100
     55          1           0       -5.191160    3.594744   -0.824389
     56          1           0       -2.245895   -3.159191   -1.701206
     57          1           0       -3.890127   -2.821890   -2.005856
     58          7           0       -2.975581   -2.480581   -1.786011
     59          6           0       -2.740592   -1.178171   -1.613781
     60          6           0       -3.334017    1.124001   -1.515974
     61          7           0       -2.095850    1.553644   -1.221419
     62          1           0       -0.220324    0.788033   -0.910203
     63          6           0       -1.251116    0.527166   -1.146190
     64          7           0       -1.484533   -0.777999   -1.318363
     65          1           0       -6.498124    1.340425   -2.143463
     66          6           0       -5.476631    1.002590   -1.966414
     67          7           0       -5.088055   -0.248458   -2.006034
     68          6           0       -3.731513   -0.185581   -1.722174
     69          6           0       -4.548340    3.355186   -1.552106
     70          7           0       -4.466611    1.886799   -1.675285
 ---------------------------------------------------------------------
 Rotational constants (GHZ):           0.1528899           0.0559656           0.0516824
 Leave Link  202 at Mon Jan 22 04:54:07 2018, MaxMem=  4294967296 cpu:               0.4 elap:               0.0
 (Enter /share/apps/g16/l301.exe)
 Standard basis: CC-pVDZ (5D, 7F)
 Ernie: Thresh=  0.10000D-02 Tol=  0.10000D-05 Strict=F.
 Ernie:  86 primitive shells out of 1081 were deleted.
 There are   780 symmetry adapted cartesian basis functions of A   symmetry.
 There are   737 symmetry adapted basis functions of A   symmetry.
   737 basis functions,  1608 primitive gaussians,   780 cartesian basis functions
   154 alpha electrons      154 beta electrons
       nuclear repulsion energy      5595.9162506816 Hartrees.
 IExCor= 4639 DFT=T Ex+Corr=wB97XD ExCW=0 ScaHFX=  1.000000
 ScaDFX=  1.000000  1.000000  1.000000  1.000000 ScalE2=  1.000000  1.000000
 IRadAn=      5 IRanWt=     -1 IRanGd=            0 ICorTp=0 IEmpDi=121
 HFx  wShort=  0.000000 wLong=  0.200000 cFull=  0.222036 cShort=  0.000000 cLong=  0.777964
 DFx  wShort=  0.000000 wLong=  0.200000 cFull=  0.000000 cShort=  0.000000 cLong=  1.000000
 NAtoms=   70 NActive=   70 NUniq=   70 SFac= 1.00D+00 NAtFMM=   60 NAOKFM=T Big=T
 Integral buffers will be    131072 words long.
 Raffenetti 2 integral format.
 Two-electron integral symmetry is turned on.
 R6Disp:  Grimme-D2 Dispersion energy=       -0.0769932984 Hartrees.
 Nuclear repulsion after empirical dispersion term =     5595.8392573832 Hartrees.
 Leave Link  301 at Mon Jan 22 04:54:07 2018, MaxMem=  4294967296 cpu:               2.8 elap:               0.1
 (Enter /share/apps/g16/l302.exe)
 NPDir=0 NMtPBC=     1 NCelOv=     1 NCel=       1 NClECP=     1 NCelD=      1
         NCelK=      1 NCelE2=     1 NClLst=     1 CellRange=     0.0.
 One-electron integrals computed using PRISM.
 One-electron integral symmetry used in STVInt
 NBasis=   737 RedAO= T EigKep=  6.79D-04  NBF=   737
 NBsUse=   737 1.00D-06 EigRej= -1.00D+00 NBFU=   737
 Precomputing XC quadrature grid using
 IXCGrd= 4 IRadAn=           5 IRanWt=          -1 IRanGd=           0 AccXCQ= 0.00D+00.
 Generated NRdTot=       0 NPtTot=           0 NUsed=           0 NTot=          32
 NSgBfM=   770   770   770   770   770 MxSgAt=    70 MxSgA2=    70.
 Leave Link  302 at Mon Jan 22 04:54:11 2018, MaxMem=  4294967296 cpu:             139.5 elap:               4.4
 (Enter /share/apps/g16/l303.exe)
 DipDrv:  MaxL=1.
 Leave Link  303 at Mon Jan 22 04:54:12 2018, MaxMem=  4294967296 cpu:              12.5 elap:               0.4
 (Enter /share/apps/g16/l401.exe)
 ExpMin= 1.22D-01 ExpMax= 1.17D+04 ExpMxC= 4.01D+02 IAcc=3 IRadAn=         5 AccDes= 0.00D+00
 Harris functional with IExCor= 4639 and IRadAn=       5 diagonalized for initial guess.
 HarFok:  IExCor= 4639 AccDes= 0.00D+00 IRadAn=         5 IDoV= 1 UseB2=F ITyADJ=14
 ICtDFT=  3500011 ScaDFX=  1.000000  1.000000  1.000000  1.000000
 FoFCou: FMM=F IPFlag=           0 FMFlag=      100000 FMFlg1=        2001
         NFxFlg=           0 DoJE=T BraDBF=F KetDBF=T FulRan=T
         wScrn=  0.000000 ICntrl=       500 IOpCl=  0 I1Cent=   200000004 NGrid=           0
         NMat0=    1 NMatS0=      1 NMatT0=    0 NMatD0=    1 NMtDS0=    0 NMtDT0=    0
 Petite list used in FoFCou.
 Harris En= -1963.87080969642    
 JPrj=0 DoOrth=F DoCkMO=F.
 Leave Link  401 at Mon Jan 22 04:54:25 2018, MaxMem=  4294967296 cpu:             412.3 elap:              12.9
 (Enter /share/apps/g16/l502.exe)
 Integral symmetry usage will be decided dynamically.
 Closed shell SCF:
 Using DIIS extrapolation, IDIIS=  1040.
 NGot=  4294967296 LenX=  4293717438 LenY=  4293108258
 Requested convergence on RMS density matrix=1.00D-08 within  20 cycles.
 Requested convergence on MAX density matrix=1.00D-06.
 Requested convergence on             energy=1.00D-06.
 No special actions if energy rises.
 Fock matrices will be formed incrementally for  20 cycles.
 Integral accuracy reduced to 1.0D-05 until final iterations.

 Cycle   1  Pass 0  IDiag  1:
 FoFJK:  IHMeth= 1 ICntrl=       0 DoSepK=T KAlg= 0 I1Cent=           0 FoldK=F
 IRaf=         1 NMat=       1 IRICut=       1 DoRegI=T DoRafI=F ISym2E= 0 IDoP0=0 IntGTp=1.
 FoFCou: FMM=T IPFlag=           0 FMFlag=      100000 FMFlg1=        2001
         NFxFlg=           0 DoJE=T BraDBF=F KetDBF=F FulRan=T
         wScrn=  0.000000 ICntrl=       500 IOpCl=  0 I1Cent=           0 NGrid=           0
         NMat0=    1 NMatS0=      1 NMatT0=    0 NMatD0=    1 NMtDS0=    0 NMtDT0=    0
 Symmetry not used in FoFCou.
 FMM levels:  10  Number of levels for PrismC:   9
 E= -2048.31109314185    
 DIIS: error= 1.82D-02 at cycle   1 NSaved=   1.
 NSaved= 1 IEnMin= 1 EnMin= -2048.31109314185     IErMin= 1 ErrMin= 1.82D-02
 ErrMax= 1.82D-02  0.00D+00 EMaxC= 1.00D-01 BMatC= 8.29D-01 BMatP= 8.29D-01
 IDIUse=3 WtCom= 8.18D-01 WtEn= 1.82D-01
 Coeff-Com:  0.100D+01
 Coeff-En:   0.100D+01
 Coeff:      0.100D+01
 Gap=     0.251 Goal=   None    Shift=    0.000
 GapD=    0.251 DampG=1.000 DampE=0.500 DampFc=0.5000 IDamp=-1.
 Damping current iteration by 5.00D-01
 RMSDP=1.56D-03 MaxDP=1.32D-01              OVMax= 2.10D-01

 Cycle   2  Pass 0  IDiag  1:
 RMSU=  7.79D-04    CP:  9.98D-01
 E= -2048.50719437780     Delta-E=       -0.196101235952 Rises=F Damp=T
 DIIS: error= 9.61D-03 at cycle   2 NSaved=   2.
 NSaved= 2 IEnMin= 2 EnMin= -2048.50719437780     IErMin= 2 ErrMin= 9.61D-03
 ErrMax= 9.61D-03  0.00D+00 EMaxC= 1.00D-01 BMatC= 1.44D-01 BMatP= 8.29D-01
 IDIUse=3 WtCom= 9.04D-01 WtEn= 9.61D-02
 Coeff-Com: -0.201D+00 0.120D+01
 Coeff-En:   0.000D+00 0.100D+01
 Coeff:     -0.182D+00 0.118D+01
 Gap=     0.310 Goal=   None    Shift=    0.000
 RMSDP=5.86D-04 MaxDP=3.61D-02 DE=-1.96D-01 OVMax= 1.20D-01

 Cycle   3  Pass 0  IDiag  1:
 RMSU=  5.75D-04    CP:  9.94D-01  1.13D+00
 E= -2048.68359746456     Delta-E=       -0.176403086763 Rises=F Damp=F
 DIIS: error= 7.00D-03 at cycle   3 NSaved=   3.
 NSaved= 3 IEnMin= 3 EnMin= -2048.68359746456     IErMin= 3 ErrMin= 7.00D-03
 ErrMax= 7.00D-03  0.00D+00 EMaxC= 1.00D-01 BMatC= 6.41D-02 BMatP= 1.44D-01
 IDIUse=3 WtCom= 9.30D-01 WtEn= 7.00D-02
 Coeff-Com: -0.236D+00 0.556D+00 0.680D+00
 Coeff-En:   0.000D+00 0.000D+00 0.100D+01
 Coeff:     -0.219D+00 0.517D+00 0.702D+00
 Gap=     0.281 Goal=   None    Shift=    0.000
 RMSDP=3.59D-04 MaxDP=3.51D-02 DE=-1.76D-01 OVMax= 6.64D-02

 Cycle   4  Pass 0  IDiag  1:
 RMSU=  2.03D-04    CP:  9.95D-01  1.42D+00  6.67D-01
 E= -2048.73204759407     Delta-E=       -0.048450129510 Rises=F Damp=F
 DIIS: error= 2.77D-03 at cycle   4 NSaved=   4.
 NSaved= 4 IEnMin= 4 EnMin= -2048.73204759407     IErMin= 4 ErrMin= 2.77D-03
 ErrMax= 2.77D-03  0.00D+00 EMaxC= 1.00D-01 BMatC= 9.08D-03 BMatP= 6.41D-02
 IDIUse=3 WtCom= 9.72D-01 WtEn= 2.77D-02
 Coeff-Com: -0.987D-01 0.191D+00 0.378D+00 0.530D+00
 Coeff-En:   0.000D+00 0.000D+00 0.589D-01 0.941D+00
 Coeff:     -0.960D-01 0.186D+00 0.369D+00 0.541D+00
 Gap=     0.283 Goal=   None    Shift=    0.000
 RMSDP=1.27D-04 MaxDP=1.20D-02 DE=-4.85D-02 OVMax= 1.49D-02

 Cycle   5  Pass 0  IDiag  1:
 RMSU=  6.21D-05    CP:  9.94D-01  1.40D+00  7.99D-01  6.15D-01
 E= -2048.73950517607     Delta-E=       -0.007457581999 Rises=F Damp=F
 DIIS: error= 5.78D-04 at cycle   5 NSaved=   5.
 NSaved= 5 IEnMin= 5 EnMin= -2048.73950517607     IErMin= 5 ErrMin= 5.78D-04
 ErrMax= 5.78D-04  0.00D+00 EMaxC= 1.00D-01 BMatC= 2.95D-04 BMatP= 9.08D-03
 IDIUse=3 WtCom= 9.94D-01 WtEn= 5.78D-03
 Coeff-Com: -0.258D-01 0.445D-01 0.122D+00 0.240D+00 0.620D+00
 Coeff-En:   0.000D+00 0.000D+00 0.000D+00 0.000D+00 0.100D+01
 Coeff:     -0.256D-01 0.442D-01 0.121D+00 0.238D+00 0.622D+00
 Gap=     0.283 Goal=   None    Shift=    0.000
 RMSDP=2.64D-05 MaxDP=1.94D-03 DE=-7.46D-03 OVMax= 3.17D-03

 Failed to achieve initial convergence to 1.0D-08 in  6 cycles.
 Switch to full accuracy anyway.
 Cycle   6  Pass 1  IDiag  1:
 E= -2048.73973929294     Delta-E=       -0.000234116868 Rises=F Damp=F
 DIIS: error= 3.01D-04 at cycle   1 NSaved=   1.
 NSaved= 1 IEnMin= 1 EnMin= -2048.73973929294     IErMin= 1 ErrMin= 3.01D-04
 ErrMax= 3.01D-04  0.00D+00 EMaxC= 1.00D-01 BMatC= 7.92D-05 BMatP= 7.92D-05
 IDIUse=3 WtCom= 9.97D-01 WtEn= 3.01D-03
 Coeff-Com:  0.100D+01
 Coeff-En:   0.100D+01
 Coeff:      0.100D+01
 Gap=     0.283 Goal=   None    Shift=    0.000
 RMSDP=2.64D-05 MaxDP=1.94D-03 DE=-2.34D-04 OVMax= 2.05D-03

 Cycle   7  Pass 1  IDiag  1:
 RMSU=  1.18D-04    CP:  1.00D+00
 E= -2048.73979764666     Delta-E=       -0.000058353722 Rises=F Damp=F
 DIIS: error= 2.49D-04 at cycle   2 NSaved=   2.
 NSaved= 2 IEnMin= 2 EnMin= -2048.73979764666     IErMin= 2 ErrMin= 2.49D-04
 ErrMax= 2.49D-04  0.00D+00 EMaxC= 1.00D-01 BMatC= 4.47D-05 BMatP= 7.92D-05
 IDIUse=3 WtCom= 9.98D-01 WtEn= 2.49D-03
 Coeff-Com:  0.403D+00 0.597D+00
 Coeff-En:   0.000D+00 0.100D+01
 Coeff:      0.402D+00 0.598D+00
 Gap=     0.283 Goal=   None    Shift=    0.000
 RMSDP=1.16D-05 MaxDP=1.13D-03 DE=-5.84D-05 OVMax= 1.47D-03

 Cycle   8  Pass 1  IDiag  1:
 RMSU=  1.13D-05    CP:  1.00D+00  1.02D+00
 E= -2048.73982964508     Delta-E=       -0.000031998417 Rises=F Damp=F
 DIIS: error= 1.20D-04 at cycle   3 NSaved=   3.
 NSaved= 3 IEnMin= 3 EnMin= -2048.73982964508     IErMin= 3 ErrMin= 1.20D-04
 ErrMax= 1.20D-04  0.00D+00 EMaxC= 1.00D-01 BMatC= 1.11D-05 BMatP= 4.47D-05
 IDIUse=3 WtCom= 9.99D-01 WtEn= 1.20D-03
 Coeff-Com: -0.190D-01 0.321D+00 0.698D+00
 Coeff-En:   0.000D+00 0.150D+00 0.850D+00
 Coeff:     -0.190D-01 0.320D+00 0.699D+00
 Gap=     0.283 Goal=   None    Shift=    0.000
 RMSDP=5.74D-06 MaxDP=4.77D-04 DE=-3.20D-05 OVMax= 5.53D-04

 Cycle   9  Pass 1  IDiag  1:
 RMSU=  3.91D-06    CP:  1.00D+00  1.05D+00  7.55D-01
 E= -2048.73984001483     Delta-E=       -0.000010369748 Rises=F Damp=F
 DIIS: error= 2.13D-05 at cycle   4 NSaved=   4.
 NSaved= 4 IEnMin= 4 EnMin= -2048.73984001483     IErMin= 4 ErrMin= 2.13D-05
 ErrMax= 2.13D-05  0.00D+00 EMaxC= 1.00D-01 BMatC= 5.35D-07 BMatP= 1.11D-05
 IDIUse=1 WtCom= 1.00D+00 WtEn= 0.00D+00
 Coeff-Com: -0.298D-01 0.914D-01 0.264D+00 0.675D+00
 Coeff:     -0.298D-01 0.914D-01 0.264D+00 0.675D+00
 Gap=     0.283 Goal=   None    Shift=    0.000
 RMSDP=1.45D-06 MaxDP=1.40D-04 DE=-1.04D-05 OVMax= 4.29D-04

 Cycle  10  Pass 1  IDiag  1:
 RMSU=  1.30D-06    CP:  1.00D+00  1.05D+00  7.90D-01  1.10D+00
 E= -2048.73984088097     Delta-E=       -0.000000866141 Rises=F Damp=F
 DIIS: error= 1.19D-05 at cycle   5 NSaved=   5.
 NSaved= 5 IEnMin= 5 EnMin= -2048.73984088097     IErMin= 5 ErrMin= 1.19D-05
 ErrMax= 1.19D-05  0.00D+00 EMaxC= 1.00D-01 BMatC= 1.24D-07 BMatP= 5.35D-07
 IDIUse=1 WtCom= 1.00D+00 WtEn= 0.00D+00
 Coeff-Com: -0.289D-02-0.568D-01-0.118D+00 0.203D+00 0.975D+00
 Coeff:     -0.289D-02-0.568D-01-0.118D+00 0.203D+00 0.975D+00
 Gap=     0.283 Goal=   None    Shift=    0.000
 RMSDP=1.23D-06 MaxDP=7.90D-05 DE=-8.66D-07 OVMax= 2.04D-04

 Cycle  11  Pass 1  IDiag  1:
 RMSU=  5.08D-07    CP:  1.00D+00  1.05D+00  8.03D-01  1.37D+00  1.17D+00
 E= -2048.73984114904     Delta-E=       -0.000000268068 Rises=F Damp=F
 DIIS: error= 4.51D-06 at cycle   6 NSaved=   6.
 NSaved= 6 IEnMin= 6 EnMin= -2048.73984114904     IErMin= 6 ErrMin= 4.51D-06
 ErrMax= 4.51D-06  0.00D+00 EMaxC= 1.00D-01 BMatC= 3.03D-08 BMatP= 1.24D-07
 IDIUse=1 WtCom= 1.00D+00 WtEn= 0.00D+00
 Coeff-Com:  0.463D-02-0.474D-01-0.115D+00-0.348D-02 0.525D+00 0.636D+00
 Coeff:      0.463D-02-0.474D-01-0.115D+00-0.348D-02 0.525D+00 0.636D+00
 Gap=     0.283 Goal=   None    Shift=    0.000
 RMSDP=3.91D-07 MaxDP=3.94D-05 DE=-2.68D-07 OVMax= 1.11D-04

 Cycle  12  Pass 1  IDiag  1:
 RMSU=  1.94D-07    CP:  1.00D+00  1.05D+00  8.04D-01  1.45D+00  1.31D+00
                    CP:  9.24D-01
 E= -2048.73984119312     Delta-E=       -0.000000044080 Rises=F Damp=F
 DIIS: error= 1.61D-06 at cycle   7 NSaved=   7.
 NSaved= 7 IEnMin= 7 EnMin= -2048.73984119312     IErMin= 7 ErrMin= 1.61D-06
 ErrMax= 1.61D-06  0.00D+00 EMaxC= 1.00D-01 BMatC= 9.88D-10 BMatP= 3.03D-08
 IDIUse=1 WtCom= 1.00D+00 WtEn= 0.00D+00
 Coeff-Com:  0.133D-02-0.101D-01-0.258D-01-0.805D-02 0.848D-01 0.171D+00
 Coeff-Com:  0.787D+00
 Coeff:      0.133D-02-0.101D-01-0.258D-01-0.805D-02 0.848D-01 0.171D+00
 Coeff:      0.787D+00
 Gap=     0.283 Goal=   None    Shift=    0.000
 RMSDP=8.32D-08 MaxDP=5.19D-06 DE=-4.41D-08 OVMax= 1.87D-05

 Cycle  13  Pass 1  IDiag  1:
 RMSU=  5.26D-08    CP:  1.00D+00  1.05D+00  8.05D-01  1.46D+00  1.32D+00
                    CP:  1.01D+00  1.12D+00
 E= -2048.73984119502     Delta-E=       -0.000000001907 Rises=F Damp=F
 DIIS: error= 7.89D-07 at cycle   8 NSaved=   8.
 NSaved= 8 IEnMin= 8 EnMin= -2048.73984119502     IErMin= 8 ErrMin= 7.89D-07
 ErrMax= 7.89D-07  0.00D+00 EMaxC= 1.00D-01 BMatC= 3.82D-10 BMatP= 9.88D-10
 IDIUse=1 WtCom= 1.00D+00 WtEn= 0.00D+00
 Coeff-Com: -0.663D-03 0.861D-02 0.199D-01-0.189D-02-0.111D+00-0.920D-01
 Coeff-Com:  0.408D+00 0.769D+00
 Coeff:     -0.663D-03 0.861D-02 0.199D-01-0.189D-02-0.111D+00-0.920D-01
 Coeff:      0.408D+00 0.769D+00
 Gap=     0.283 Goal=   None    Shift=    0.000
 RMSDP=5.24D-08 MaxDP=3.12D-06 DE=-1.91D-09 OVMax= 1.14D-05

 Cycle  14  Pass 1  IDiag  1:
 RMSU=  3.03D-08    CP:  1.00D+00  1.05D+00  8.04D-01  1.46D+00  1.33D+00
                    CP:  1.05D+00  1.28D+00  1.05D+00
 E= -2048.73984119558     Delta-E=       -0.000000000552 Rises=F Damp=F
 DIIS: error= 1.97D-07 at cycle   9 NSaved=   9.
 NSaved= 9 IEnMin= 9 EnMin= -2048.73984119558     IErMin= 9 ErrMin= 1.97D-07
 ErrMax= 1.97D-07  0.00D+00 EMaxC= 1.00D-01 BMatC= 4.48D-11 BMatP= 3.82D-10
 IDIUse=1 WtCom= 1.00D+00 WtEn= 0.00D+00
 Coeff-Com: -0.470D-03 0.530D-02 0.125D-01 0.636D-03-0.609D-01-0.632D-01
 Coeff-Com:  0.907D-01 0.343D+00 0.673D+00
 Coeff:     -0.470D-03 0.530D-02 0.125D-01 0.636D-03-0.609D-01-0.632D-01
 Coeff:      0.907D-01 0.343D+00 0.673D+00
 Gap=     0.283 Goal=   None    Shift=    0.000
 RMSDP=1.51D-08 MaxDP=8.30D-07 DE=-5.52D-10 OVMax= 3.27D-06

 Cycle  15  Pass 1  IDiag  1:
 RMSU=  1.01D-08    CP:  1.00D+00  1.05D+00  8.04D-01  1.46D+00  1.33D+00
                    CP:  1.06D+00  1.30D+00  1.20D+00  1.08D+00
 E= -2048.73984119560     Delta-E=       -0.000000000025 Rises=F Damp=F
 DIIS: error= 7.32D-08 at cycle  10 NSaved=  10.
 NSaved=10 IEnMin=10 EnMin= -2048.73984119560     IErMin=10 ErrMin= 7.32D-08
 ErrMax= 7.32D-08  0.00D+00 EMaxC= 1.00D-01 BMatC= 5.32D-12 BMatP= 4.48D-11
 IDIUse=1 WtCom= 1.00D+00 WtEn= 0.00D+00
 Coeff-Com: -0.146D-04-0.822D-04-0.100D-03 0.209D-03 0.264D-02-0.144D-02
 Coeff-Com: -0.485D-01-0.438D-01 0.227D+00 0.864D+00
 Coeff:     -0.146D-04-0.822D-04-0.100D-03 0.209D-03 0.264D-02-0.144D-02
 Coeff:     -0.485D-01-0.438D-01 0.227D+00 0.864D+00
 Gap=     0.283 Goal=   None    Shift=    0.000
 RMSDP=7.29D-09 MaxDP=4.25D-07 DE=-2.46D-11 OVMax= 1.54D-06

 SCF Done:  E(RwB97XD) =  -2048.73984120     A.U. after   15 cycles
            NFock= 15  Conv=0.73D-08     -V/T= 2.0053
 KE= 2.037863671476D+03 PE=-1.597246268603D+04 EE= 6.290019915975D+03
 Leave Link  502 at Mon Jan 22 05:06:17 2018, MaxMem=  4294967296 cpu:           22059.2 elap:             712.5
 (Enter /share/apps/g16/l601.exe)
 Copying SCF densities to generalized density rwf, IOpCl= 0 IROHF=0.

 **********************************************************************

            Population analysis using the SCF density.

 **********************************************************************

 Orbital symmetries:
       Occupied  (A) (A) (A) (A) (A) (A) (A) (A) (A) (A) (A) (A)
                 (A) (A) (A) (A) (A) (A) (A) (A) (A) (A) (A) (A)
                 (A) (A) (A) (A) (A) (A) (A) (A) (A) (A) (A) (A)
                 (A) (A) (A) (A) (A) (A) (A) (A) (A) (A) (A) (A)
                 (A) (A) (A) (A) (A) (A) (A) (A) (A) (A) (A) (A)
                 (A) (A) (A) (A) (A) (A) (A) (A) (A) (A) (A) (A)
                 (A) (A) (A) (A) (A) (A) (A) (A) (A) (A) (A) (A)
                 (A) (A) (A) (A) (A) (A) (A) (A) (A) (A) (A) (A)
                 (A) (A) (A) (A) (A) (A) (A) (A) (A) (A) (A) (A)
                 (A) (A) (A) (A) (A) (A) (A) (A) (A) (A) (A) (A)
                 (A) (A) (A) (A) (A) (A) (A) (A) (A) (A) (A) (A)
                 (A) (A) (A) (A) (A) (A) (A) (A) (A) (A) (A) (A)
                 (A) (A) (A) (A) (A) (A) (A) (A) (A) (A)
       Virtual   (A) (A) (A) (A) (A) (A) (A) (A) (A) (A) (A) (A)
                 (A) (A) (A) (A) (A) (A) (A) (A) (A) (A) (A) (A)
                 (A) (A) (A) (A) (A) (A) (A) (A) (A) (A) (A) (A)
                 (A) (A) (A) (A) (A) (A) (A) (A) (A) (A) (A) (A)
                 (A) (A) (A) (A) (A) (A) (A) (A) (A) (A) (A) (A)
                 (A) (A) (A) (A) (A) (A) (A) (A) (A) (A) (A) (A)
                 (A) (A) (A) (A) (A) (A) (A) (A) (A) (A) (A) (A)
                 (A) (A) (A) (A) (A) (A) (A) (A) (A) (A) (A) (A)
                 (A) (A) (A) (A) (A) (A) (A) (A) (A) (A) (A) (A)
                 (A) (A) (A) (A) (A) (A) (A) (A) (A) (A) (A) (A)
                 (A) (A) (A) (A) (A) (A) (A) (A) (A) (A) (A) (A)
                 (A) (A) (A) (A) (A) (A) (A) (A) (A) (A) (A) (A)
                 (A) (A) (A) (A) (A) (A) (A) (A) (A) (A) (A) (A)
                 (A) (A) (A) (A) (A) (A) (A) (A) (A) (A) (A) (A)
                 (A) (A) (A) (A) (A) (A) (A) (A) (A) (A) (A) (A)
                 (A) (A) (A) (A) (A) (A) (A) (A) (A) (A) (A) (A)
                 (A) (A) (A) (A) (A) (A) (A) (A) (A) (A) (A) (A)
                 (A) (A) (A) (A) (A) (A) (A) (A) (A) (A) (A) (A)
                 (A) (A) (A) (A) (A) (A) (A) (A) (A) (A) (A) (A)
                 (A) (A) (A) (A) (A) (A) (A) (A) (A) (A) (A) (A)
                 (A) (A) (A) (A) (A) (A) (A) (A) (A) (A) (A) (A)
                 (A) (A) (A) (A) (A) (A) (A) (A) (A) (A) (A) (A)
                 (A) (A) (A) (A) (A) (A) (A) (A) (A) (A) (A) (A)
                 (A) (A) (A) (A) (A) (A) (A) (A) (A) (A) (A) (A)
                 (A) (A) (A) (A) (A) (A) (A) (A) (A) (A) (A) (A)
                 (A) (A) (A) (A) (A) (A) (A) (A) (A) (A) (A) (A)
                 (A) (A) (A) (A) (A) (A) (A) (A) (A) (A) (A) (A)
                 (A) (A) (A) (A) (A) (A) (A) (A) (A) (A) (A) (A)
                 (A) (A) (A) (A) (A) (A) (A) (A) (A) (A) (A) (A)
                 (A) (A) (A) (A) (A) (A) (A) (A) (A) (A) (A) (A)
                 (A) (A) (A) (A) (A) (A) (A) (A) (A) (A) (A) (A)
                 (A) (A) (A) (A) (A) (A) (A) (A) (A) (A) (A) (A)
                 (A) (A) (A) (A) (A) (A) (A) (A) (A) (A) (A) (A)
                 (A) (A) (A) (A) (A) (A) (A) (A) (A) (A) (A) (A)
                 (A) (A) (A) (A) (A) (A) (A) (A) (A) (A) (A) (A)
                 (A) (A) (A) (A) (A) (A) (A) (A) (A) (A) (A) (A)
                 (A) (A) (A) (A) (A) (A) (A) (A) (A) (A) (A) (A)
                 (A) (A) (A) (A) (A) (A) (A) (A) (A) (A) (A) (A)
                 (A) (A) (A) (A) (A) (A) (A) (A) (A) (A) (A) (A)
                 (A) (A) (A) (A) (A) (A) (A) (A) (A) (A) (A) (A)
                 (A) (A) (A) (A) (A) (A) (A) (A) (A) (A) (A) (A)
                 (A) (A) (A) (A) (A) (A) (A) (A) (A) (A) (A) (A)
                 (A) (A) (A) (A) (A) (A) (A) (A) (A) (A) (A) (A)
                 (A) (A) (A) (A) (A) (A) (A) (A) (A) (A) (A) (A)
                 (A) (A) (A) (A) (A) (A) (A) (A) (A) (A) (A) (A)
                 (A) (A) (A) (A) (A) (A) (A) (A) (A) (A) (A) (A)
                 (A) (A) (A) (A) (A) (A) (A) (A) (A) (A) (A) (A)
                 (A) (A) (A) (A) (A) (A) (A) (A) (A) (A) (A) (A)
                 (A) (A) (A) (A) (A) (A) (A)
 The electronic state is 1-A.
 Alpha  occ. eigenvalues --  -19.25446 -19.21600 -19.20402 -14.52731 -14.52017
 Alpha  occ. eigenvalues --  -14.48945 -14.48344 -14.48156 -14.47439 -14.46521
 Alpha  occ. eigenvalues --  -14.45829 -14.45742 -14.44427 -14.44372 -14.42712
 Alpha  occ. eigenvalues --  -14.41643 -14.41527 -14.41306 -14.40567 -14.40466
 Alpha  occ. eigenvalues --  -10.45018 -10.40790 -10.40132 -10.39723 -10.38241
 Alpha  occ. eigenvalues --  -10.37932 -10.37405 -10.37400 -10.35725 -10.35719
 Alpha  occ. eigenvalues --  -10.34613 -10.34408 -10.34199 -10.33827 -10.33560
 Alpha  occ. eigenvalues --  -10.33310 -10.32966 -10.32877 -10.31312 -10.30710
 Alpha  occ. eigenvalues --  -10.30247 -10.28663 -10.27680  -1.19152  -1.15497
 Alpha  occ. eigenvalues --   -1.12904  -1.12640  -1.11502  -1.10189  -1.09452
 Alpha  occ. eigenvalues --   -1.08930  -1.08172  -1.05328  -1.04959  -1.02097
 Alpha  occ. eigenvalues --   -1.01288  -1.00806  -0.99180  -0.98246  -0.97226
 Alpha  occ. eigenvalues --   -0.96926  -0.96158  -0.93024  -0.90662  -0.87940
 Alpha  occ. eigenvalues --   -0.86283  -0.84181  -0.83643  -0.83279  -0.82573
 Alpha  occ. eigenvalues --   -0.81988  -0.78483  -0.77275  -0.75160  -0.74198
 Alpha  occ. eigenvalues --   -0.73252  -0.73155  -0.72972  -0.71339  -0.70667
 Alpha  occ. eigenvalues --   -0.67080  -0.66888  -0.66609  -0.66149  -0.64541
 Alpha  occ. eigenvalues --   -0.64120  -0.63403  -0.63041  -0.62481  -0.61301
 Alpha  occ. eigenvalues --   -0.61102  -0.60830  -0.60672  -0.59735  -0.59181
 Alpha  occ. eigenvalues --   -0.58705  -0.57829  -0.57111  -0.56772  -0.56209
 Alpha  occ. eigenvalues --   -0.55844  -0.55760  -0.55531  -0.54385  -0.54194
 Alpha  occ. eigenvalues --   -0.53905  -0.53703  -0.53367  -0.53209  -0.52768
 Alpha  occ. eigenvalues --   -0.52504  -0.52144  -0.52083  -0.51080  -0.50434
 Alpha  occ. eigenvalues --   -0.49893  -0.49738  -0.49171  -0.49118  -0.48727
 Alpha  occ. eigenvalues --   -0.48382  -0.48357  -0.47983  -0.47209  -0.47088
 Alpha  occ. eigenvalues --   -0.47052  -0.45601  -0.44860  -0.44590  -0.43366
 Alpha  occ. eigenvalues --   -0.41244  -0.40978  -0.39252  -0.37924  -0.37869
 Alpha  occ. eigenvalues --   -0.37662  -0.36960  -0.36871  -0.36014  -0.34720
 Alpha  occ. eigenvalues --   -0.34550  -0.33780  -0.33726  -0.33140  -0.32824
 Alpha  occ. eigenvalues --   -0.32386  -0.32258  -0.31952  -0.31599  -0.31034
 Alpha  occ. eigenvalues --   -0.30739  -0.29630  -0.25910  -0.24827
 Alpha virt. eigenvalues --    0.03456   0.03612   0.06904   0.07346   0.08752
 Alpha virt. eigenvalues --    0.09215   0.09881   0.10437   0.11215   0.11957
 Alpha virt. eigenvalues --    0.12920   0.14018   0.14107   0.14596   0.15037
 Alpha virt. eigenvalues --    0.15259   0.16155   0.17212   0.17787   0.17845
 Alpha virt. eigenvalues --    0.19164   0.19256   0.19707   0.20027   0.20645
 Alpha virt. eigenvalues --    0.20739   0.21113   0.21197   0.21455   0.22055
 Alpha virt. eigenvalues --    0.22368   0.22718   0.23754   0.24073   0.24162
 Alpha virt. eigenvalues --    0.24268   0.24706   0.25276   0.25442   0.25690
 Alpha virt. eigenvalues --    0.25919   0.27342   0.27838   0.28062   0.28272
 Alpha virt. eigenvalues --    0.28857   0.29192   0.29967   0.30433   0.30734
 Alpha virt. eigenvalues --    0.31252   0.31965   0.32825   0.33187   0.33471
 Alpha virt. eigenvalues --    0.34092   0.34408   0.35352   0.36286   0.36490
 Alpha virt. eigenvalues --    0.36971   0.37859   0.38207   0.38784   0.39055
 Alpha virt. eigenvalues --    0.40076   0.40554   0.41251   0.41544   0.42082
 Alpha virt. eigenvalues --    0.42381   0.42657   0.42941   0.43513   0.44075
 Alpha virt. eigenvalues --    0.44783   0.45760   0.46014   0.46703   0.47100
 Alpha virt. eigenvalues --    0.47441   0.48404   0.48728   0.48929   0.49447
 Alpha virt. eigenvalues --    0.49690   0.50119   0.51088   0.51359   0.51577
 Alpha virt. eigenvalues --    0.52167   0.52373   0.52726   0.53342   0.53684
 Alpha virt. eigenvalues --    0.53776   0.54628   0.54819   0.55597   0.55845
 Alpha virt. eigenvalues --    0.56314   0.56445   0.57141   0.57602   0.57872
 Alpha virt. eigenvalues --    0.58056   0.58373   0.58720   0.59476   0.59731
 Alpha virt. eigenvalues --    0.59944   0.60295   0.60796   0.61429   0.62199
 Alpha virt. eigenvalues --    0.62483   0.62565   0.63280   0.63752   0.63828
 Alpha virt. eigenvalues --    0.64286   0.64524   0.65154   0.65395   0.65615
 Alpha virt. eigenvalues --    0.65774   0.66205   0.66528   0.66709   0.67685
 Alpha virt. eigenvalues --    0.68567   0.68714   0.69198   0.69353   0.70001
 Alpha virt. eigenvalues --    0.70653   0.70704   0.71068   0.71691   0.72521
 Alpha virt. eigenvalues --    0.73108   0.73327   0.73587   0.73801   0.74171
 Alpha virt. eigenvalues --    0.74258   0.75267   0.75393   0.75643   0.75757
 Alpha virt. eigenvalues --    0.76123   0.76721   0.77061   0.77346   0.77686
 Alpha virt. eigenvalues --    0.78223   0.78516   0.78765   0.79081   0.79120
 Alpha virt. eigenvalues --    0.79805   0.80044   0.80317   0.80912   0.81281
 Alpha virt. eigenvalues --    0.81731   0.81780   0.82411   0.83058   0.83670
 Alpha virt. eigenvalues --    0.83892   0.84278   0.84781   0.84996   0.85314
 Alpha virt. eigenvalues --    0.85626   0.86165   0.86699   0.86832   0.87345
 Alpha virt. eigenvalues --    0.88024   0.88540   0.89426   0.89973   0.90335
 Alpha virt. eigenvalues --    0.90850   0.91361   0.91569   0.91873   0.92383
 Alpha virt. eigenvalues --    0.92546   0.93222   0.93855   0.94112   0.94710
 Alpha virt. eigenvalues --    0.95008   0.95354   0.96107   0.96632   0.97204
 Alpha virt. eigenvalues --    0.97709   0.98243   0.99134   0.99284   0.99855
 Alpha virt. eigenvalues --    1.00430   1.00678   1.01172   1.01513   1.02047
 Alpha virt. eigenvalues --    1.02450   1.02769   1.03463   1.03850   1.04150
 Alpha virt. eigenvalues --    1.04720   1.05192   1.05346   1.05969   1.06271
 Alpha virt. eigenvalues --    1.06550   1.06842   1.07437   1.08001   1.08494
 Alpha virt. eigenvalues --    1.09196   1.09702   1.10604   1.11186   1.11789
 Alpha virt. eigenvalues --    1.11959   1.12522   1.13122   1.13656   1.14238
 Alpha virt. eigenvalues --    1.14625   1.15022   1.15495   1.15843   1.16192
 Alpha virt. eigenvalues --    1.16800   1.17151   1.17458   1.17798   1.18216
 Alpha virt. eigenvalues --    1.18620   1.19385   1.19680   1.19951   1.20273
 Alpha virt. eigenvalues --    1.20471   1.21146   1.21518   1.22081   1.22168
 Alpha virt. eigenvalues --    1.22275   1.22896   1.23555   1.24044   1.24139
 Alpha virt. eigenvalues --    1.24877   1.25353   1.25994   1.26193   1.26415
 Alpha virt. eigenvalues --    1.26751   1.27507   1.27878   1.29030   1.29362
 Alpha virt. eigenvalues --    1.30047   1.30791   1.31477   1.32560   1.33133
 Alpha virt. eigenvalues --    1.33477   1.34076   1.34385   1.34893   1.35067
 Alpha virt. eigenvalues --    1.36189   1.36409   1.37152   1.37818   1.38308
 Alpha virt. eigenvalues --    1.39192   1.39475   1.39857   1.40278   1.41894
 Alpha virt. eigenvalues --    1.42902   1.43502   1.44121   1.45722   1.45832
 Alpha virt. eigenvalues --    1.46472   1.47806   1.48131   1.48408   1.49569
 Alpha virt. eigenvalues --    1.50556   1.50843   1.51581   1.51873   1.52443
 Alpha virt. eigenvalues --    1.53115   1.53972   1.54037   1.55065   1.55763
 Alpha virt. eigenvalues --    1.56115   1.56282   1.56834   1.57855   1.58069
 Alpha virt. eigenvalues --    1.59341   1.59660   1.60686   1.61218   1.61237
 Alpha virt. eigenvalues --    1.62498   1.63112   1.63216   1.64045   1.65030
 Alpha virt. eigenvalues --    1.65281   1.65756   1.66601   1.66875   1.67414
 Alpha virt. eigenvalues --    1.67590   1.68032   1.68279   1.69496   1.70440
 Alpha virt. eigenvalues --    1.70835   1.71215   1.71709   1.71989   1.72472
 Alpha virt. eigenvalues --    1.73048   1.73332   1.73534   1.74186   1.74549
 Alpha virt. eigenvalues --    1.74930   1.75073   1.75554   1.76016   1.76051
 Alpha virt. eigenvalues --    1.76792   1.77260   1.77365   1.77419   1.77729
 Alpha virt. eigenvalues --    1.78037   1.78344   1.79451   1.79555   1.79838
 Alpha virt. eigenvalues --    1.79907   1.80216   1.80583   1.80762   1.80943
 Alpha virt. eigenvalues --    1.81430   1.81821   1.82053   1.82348   1.82971
 Alpha virt. eigenvalues --    1.83511   1.83645   1.84146   1.84739   1.85250
 Alpha virt. eigenvalues --    1.85865   1.86425   1.87196   1.87493   1.87537
 Alpha virt. eigenvalues --    1.88466   1.88567   1.89195   1.89535   1.89811
 Alpha virt. eigenvalues --    1.90596   1.91035   1.91518   1.92155   1.92777
 Alpha virt. eigenvalues --    1.93226   1.93440   1.93970   1.94591   1.95951
 Alpha virt. eigenvalues --    1.96492   1.97249   1.97545   1.98312   1.99412
 Alpha virt. eigenvalues --    2.00040   2.00467   2.01227   2.01349   2.02196
 Alpha virt. eigenvalues --    2.02534   2.03498   2.03564   2.03927   2.04961
 Alpha virt. eigenvalues --    2.05136   2.06438   2.06697   2.07328   2.07749
 Alpha virt. eigenvalues --    2.08259   2.08789   2.09411   2.10105   2.11121
 Alpha virt. eigenvalues --    2.11525   2.12436   2.13130   2.14081   2.14467
 Alpha virt. eigenvalues --    2.14876   2.15739   2.16659   2.17281   2.18369
 Alpha virt. eigenvalues --    2.19100   2.19374   2.20164   2.20660   2.21872
 Alpha virt. eigenvalues --    2.22493   2.22583   2.22992   2.24107   2.24307
 Alpha virt. eigenvalues --    2.25070   2.25998   2.26365   2.26627   2.28403
 Alpha virt. eigenvalues --    2.28516   2.29094   2.29589   2.30166   2.30699
 Alpha virt. eigenvalues --    2.30911   2.31565   2.32076   2.32820   2.33507
 Alpha virt. eigenvalues --    2.33780   2.34279   2.34555   2.34763   2.35137
 Alpha virt. eigenvalues --    2.35812   2.35921   2.36801   2.36967   2.38120
 Alpha virt. eigenvalues --    2.38661   2.39525   2.39820   2.41429   2.41762
 Alpha virt. eigenvalues --    2.42632   2.43127   2.43364   2.44221   2.44341
 Alpha virt. eigenvalues --    2.44838   2.45404   2.46009   2.46360   2.47330
 Alpha virt. eigenvalues --    2.48305   2.49303   2.50294   2.52007   2.52301
 Alpha virt. eigenvalues --    2.53140   2.54374   2.54768   2.56707   2.57565
 Alpha virt. eigenvalues --    2.58230   2.59234   2.59524   2.59823   2.60918
 Alpha virt. eigenvalues --    2.61502   2.62977   2.63509   2.63770   2.64462
 Alpha virt. eigenvalues --    2.64698   2.65893   2.66261   2.66470   2.66829
 Alpha virt. eigenvalues --    2.67993   2.68707   2.69109   2.70067   2.70667
 Alpha virt. eigenvalues --    2.71385   2.71898   2.72130   2.72370   2.72851
 Alpha virt. eigenvalues --    2.73322   2.74894   2.75758   2.76454   2.76955
 Alpha virt. eigenvalues --    2.77790   2.79231   2.79466   2.79921   2.80005
 Alpha virt. eigenvalues --    2.80484   2.80867   2.81103   2.82032   2.82239
 Alpha virt. eigenvalues --    2.82522   2.82959   2.83420   2.84413   2.85483
 Alpha virt. eigenvalues --    2.85925   2.86392   2.86740   2.87331   2.87570
 Alpha virt. eigenvalues --    2.88640   2.88913   2.90333   2.93262   2.94542
 Alpha virt. eigenvalues --    2.95086   2.98233   2.98919   2.99254   2.99629
 Alpha virt. eigenvalues --    3.00974   3.02444   3.03636   3.06236   3.06822
 Alpha virt. eigenvalues --    3.09387   3.09848   3.10416   3.13752   3.15195
 Alpha virt. eigenvalues --    3.15581   3.16328   3.17069   3.19001   3.22327
 Alpha virt. eigenvalues --    3.22982   3.23668   3.23853   3.24297   3.27755
 Alpha virt. eigenvalues --    3.44883   3.47218   3.48761   3.49732   3.50880
 Alpha virt. eigenvalues --    3.53304   3.54609   3.56564   3.58152   3.60617
 Alpha virt. eigenvalues --    3.63900   3.71088   3.75234
          Condensed to atoms (all electrons):
 Mulliken charges:
               1
     1  N   -0.313622
     2  C    0.179085
     3  C    0.067021
     4  N   -0.260273
     5  C    0.136639
     6  H    0.026876
     7  N   -0.286820
     8  C    0.144599
     9  H    0.010829
    10  N   -0.286275
    11  C    0.243720
    12  C    0.097308
    13  N   -0.054198
    14  H    0.108736
    15  H    0.084119
    16  H    0.026887
    17  H    0.029958
    18  H    0.026875
    19  N   -0.278836
    20  C    0.207288
    21  C    0.181307
    22  N   -0.095219
    23  H    0.112500
    24  H    0.111440
    25  N   -0.295377
    26  C    0.207635
    27  N   -0.145301
    28  H    0.126164
    29  C    0.175013
    30  O   -0.323268
    31  C    0.003937
    32  N   -0.221286
    33  C    0.125328
    34  H    0.014846
    35  H    0.024071
    36  H    0.026116
    37  H    0.021522
    38  H    0.061260
    39  H    0.057623
    40  H    0.069285
    41  H    0.027185
    42  C   -0.111513
    43  O   -0.266737
    44  C    0.172575
    45  H    0.130998
    46  N   -0.121362
    47  O   -0.333841
    48  C    0.333041
    49  H    0.046419
    50  C    0.169786
    51  C    0.036354
    52  N   -0.280022
    53  H    0.036781
    54  H    0.035444
    55  H    0.027219
    56  H    0.124241
    57  H    0.118463
    58  N   -0.061342
    59  C    0.096541
    60  C    0.234531
    61  N   -0.272404
    62  H    0.054948
    63  C    0.139494
    64  N   -0.297157
    65  H    0.037995
    66  C    0.112777
    67  N   -0.253854
    68  C    0.027553
    69  C    0.182090
    70  N   -0.293711
 Sum of Mulliken charges =  -0.00000
 Mulliken charges with hydrogens summed into heavy atoms:
               1
     1  N   -0.313622
     2  C    0.262805
     3  C    0.067021
     4  N   -0.260273
     5  C    0.163515
     7  N   -0.286820
     8  C    0.155427
    10  N   -0.286275
    11  C    0.243720
    12  C    0.097308
    13  N    0.138657
    19  N   -0.278836
    20  C    0.207288
    21  C    0.253016
    22  N    0.128720
    25  N   -0.295377
    26  C    0.207635
    27  N   -0.019137
    29  C    0.175013
    30  O   -0.323268
    31  C    0.003937
    32  N   -0.221286
    33  C    0.140174
    42  C   -0.084328
    43  O   -0.266737
    44  C    0.172575
    46  N    0.009636
    47  O   -0.333841
    48  C    0.333041
    50  C    0.216205
    51  C    0.224521
    52  N   -0.280022
    58  N    0.181362
    59  C    0.096541
    60  C    0.234531
    61  N   -0.272404
    63  C    0.194442
    64  N   -0.297157
    66  C    0.150771
    67  N   -0.253854
    68  C    0.027553
    69  C    0.281533
    70  N   -0.293711
 Electronic spatial extent (au):  <R**2>=          21692.3509
 Charge=             -0.0000 electrons
 Dipole moment (field-independent basis, Debye):
    X=             -7.0534    Y=              6.3858    Z=             -3.5382  Tot=             10.1512
 Quadrupole moment (field-independent basis, Debye-Ang):
   XX=           -149.1976   YY=           -225.7743   ZZ=           -257.4261
   XY=             -5.8628   XZ=              0.1873   YZ=             12.2043
 Traceless Quadrupole moment (field-independent basis, Debye-Ang):
   XX=             61.6017   YY=            -14.9750   ZZ=            -46.6268
   XY=             -5.8628   XZ=              0.1873   YZ=             12.2043
 Octapole moment (field-independent basis, Debye-Ang**2):
  XXX=             77.0939  YYY=            109.0791  ZZZ=             -6.7065  XYY=            -80.8136
  XXY=             46.2670  XXZ=             18.2527  XZZ=            -35.0192  YZZ=             26.8624
  YYZ=            -67.8677  XYZ=             42.1600
 Hexadecapole moment (field-independent basis, Debye-Ang**3):
 XXXX=         -15281.3152 YYYY=          -4971.8438 ZZZZ=          -3496.8117 XXXY=           -552.2949
 XXXZ=           -178.2159 YYYX=            -35.8419 YYYZ=            116.7558 ZZZX=            -11.7542
 ZZZY=             31.9679 XXYY=          -3500.4976 XXZZ=          -3832.9878 YYZZ=          -1478.2487
 XXYZ=            -46.2333 YYXZ=            195.6747 ZZXY=            -20.1813
 N-N= 5.595839257383D+03 E-N=-1.597246268381D+04  KE= 2.037863671476D+03
 No NMR shielding tensors so no spin-rotation constants.
 Leave Link  601 at Mon Jan 22 05:06:19 2018, MaxMem=  4294967296 cpu:              48.3 elap:               1.7
 (Enter /share/apps/g16/l9999.exe)
 1\1\GINC-COMPUTE-0-3\SP\RwB97XD\CC-pVDZ\C23H27N17O3\SATYA\22-Jan-2018\
 0\\#p wb97xd/cc-pvdz sp scf=(maxcycles=20)\\Base pair stacking\\0,1\N,
 0,3.24711,3.74516,-7.22697\C,0,3.96551,5.03403,-7.25398\C,0,1.71262,2.
 19416,-6.94938\N,0,2.82431,1.55078,-7.47373\C,0,3.70429,2.51096,-7.619
 97\H,0,4.71186,2.37385,-8.01362\N,0,-0.43702,2.63166,-6.08303\C,0,-0.0
 5558,3.90963,-5.98877\H,0,-0.80603,4.59067,-5.58968\N,0,1.10821,4.47,-
 6.31198\C,0,1.95819,3.54707,-6.79172\C,0,0.44102,1.72757,-6.56959\N,0,
 0.06211,0.4514,-6.66444\H,0,0.67933,-0.25191,-7.01887\H,0,-0.85111,0.1
 5499,-6.38461\H,0,4.23182,5.24912,-8.19366\H,0,3.36951,5.75607,-6.9038
 9\H,0,4.78415,4.97374,-6.68286\N,0,1.18404,4.67064,-3.26799\C,0,0.1924
 6,3.73474,-3.09796\C,0,0.99585,6.13412,-3.20891\N,0,-3.13702,2.95709,-
 2.48839\H,0,-3.69759,2.1345,-2.39707\H,0,-3.60236,3.83682,-2.38706\N,0
 ,-1.10991,3.99276,-2.85034\C,0,-1.82038,2.88475,-2.73565\N,0,-1.29737,
 1.61986,-2.85406\H,0,-1.91569,0.82986,-2.75141\C,0,0.0396,1.33079,-3.1
 0866\O,0,0.40904,0.15331,-3.19694\C,0,0.81537,2.51115,-3.23437\N,0,2.1
 7075,2.67556,-3.48499\C,0,2.34298,3.96956,-3.49604\H,0,3.29816,4.46743
 ,-3.66643\H,0,1.26121,6.5415,-4.08209\H,0,0.03486,6.33734,-3.02599\H,0
 ,1.561,6.5153,-2.47807\H,0,-5.62032,-2.65264,-2.77595\H,0,-5.12075,-2.
 89364,-1.10353\H,0,-4.9834,-1.29804,-1.84282\H,0,-1.65777,-5.30557,-3.
 41372\C,0,-1.93328,-4.27642,-3.18312\O,0,0.20817,-3.39405,-3.69565\C,0
 ,-0.95575,-3.24112,-3.32594\H,0,-0.74567,-1.21828,-3.0972\N,0,-1.40786
 ,-1.97615,-3.0086\O,0,-2.97253,-0.47872,-2.32543\C,0,-2.6657,-1.62947,
 -2.58291\H,0,-3.94819,-4.71969,-2.64511\C,0,-3.16847,-3.9695,-2.76993\
 C,0,-4.9082,-2.36088,-2.01844\N,0,-3.55167,-2.6828,-2.47004\H,0,-7.849
 15,0.93257,-3.87944\H,0,-6.47246,1.49162,-3.20542\H,0,-7.3108,0.29579,
 -2.47654\H,0,-1.996,-2.59268,-6.77406\H,0,-3.50613,-3.35014,-6.53775\N
 ,0,-2.92212,-2.54956,-6.39911\C,0,-3.35986,-1.47283,-5.74322\C,0,-4.96
 ,-0.1827,-4.54454\N,0,-4.15363,0.87791,-4.3734\H,0,-2.24677,1.46882,-4
 .83743\C,0,-2.96493,0.65527,-4.93046\N,0,-2.52457,-0.42248,-5.58782\H,
 0,-7.65668,-1.95058,-4.31073\C,0,-6.65642,-1.57199,-4.52304\N,0,-5.732
 73,-2.2329,-5.17701\C,0,-4.65191,-1.36334,-5.19776\C,0,-7.03441,0.6791
 6,-3.35791\N,0,-6.25691,-0.32409,-4.1109\\Version=EM64L-G16RevA.03\Sta
 te=1-A\HF=-2048.7398412\RMSD=7.291e-09\Dipole=-3.9541734,0.3238997,0.4
 583362\Quadrupole=13.9172282,5.0493462,-18.9665744,31.9644654,-22.3908
 411,0.6668772\PG=C01 [X(C23H27N17O3)]\\@


 NATURE GIVES TO EVERY TIME AND SEASON SOME BEAUTY OF ITS OWN.

                                                    --DICKENS
 Job cpu time:       0 days  6 hours 18 minutes  7.4 seconds.
 Elapsed time:       0 days  0 hours 12 minutes 12.6 seconds.
 File lengths (MBytes):  RWF=    298 Int=      0 D2E=      0 Chk=     33 Scr=      1
 Normal termination of Gaussian 16 at Mon Jan 22 05:06:20 2018.
