 Entering Gaussian System, Link 0=g16
 Input=str35.0.-1.5.com
 Output=str35.0.-1.5.log
 Initial command:
 /share/apps/g16/l1.exe "/state/partition1/scr/Gau-15771.inp" -scrdir="/state/partition1/scr/"
 Entering Link 1 = /share/apps/g16/l1.exe PID=     15772.
  
 Copyright (c) 1988,1990,1992,1993,1995,1998,2003,2009,2016,
            Gaussian, Inc.  All Rights Reserved.
  
 This is part of the Gaussian(R) 16 program.  It is based on
 the Gaussian(R) 09 system (copyright 2009, Gaussian, Inc.),
 the Gaussian(R) 03 system (copyright 2003, Gaussian, Inc.),
 the Gaussian(R) 98 system (copyright 1998, Gaussian, Inc.),
 the Gaussian(R) 94 system (copyright 1995, Gaussian, Inc.),
 the Gaussian 92(TM) system (copyright 1992, Gaussian, Inc.),
 the Gaussian 90(TM) system (copyright 1990, Gaussian, Inc.),
 the Gaussian 88(TM) system (copyright 1988, Gaussian, Inc.),
 the Gaussian 86(TM) system (copyright 1986, Carnegie Mellon
 University), and the Gaussian 82(TM) system (copyright 1983,
 Carnegie Mellon University). Gaussian is a federally registered
 trademark of Gaussian, Inc.
  
 This software contains proprietary and confidential information,
 including trade secrets, belonging to Gaussian, Inc.
  
 This software is provided under written license and may be
 used, copied, transmitted, or stored only in accord with that
 written license.
  
 The following legend is applicable only to US Government
 contracts under FAR:
  
                    RESTRICTED RIGHTS LEGEND
  
 Use, reproduction and disclosure by the US Government is
 subject to restrictions as set forth in subparagraphs (a)
 and (c) of the Commercial Computer Software - Restricted
 Rights clause in FAR 52.227-19.
  
 Gaussian, Inc.
 340 Quinnipiac St., Bldg. 40, Wallingford CT 06492
  
  
 ---------------------------------------------------------------
 Warning -- This program may not be used in any manner that
 competes with the business of Gaussian, Inc. or will provide
 assistance to any competitor of Gaussian, Inc.  The licensee
 of this program is prohibited from giving any competitor of
 Gaussian, Inc. access to this program.  By using this program,
 the user acknowledges that Gaussian, Inc. is engaged in the
 business of creating and licensing software in the field of
 computational chemistry and represents and warrants to the
 licensee that it is not a competitor of Gaussian, Inc. and that
 it will not use this program in any manner prohibited above.
 ---------------------------------------------------------------
  

 Cite this work as:
 Gaussian 16, Revision A.03,
 M. J. Frisch, G. W. Trucks, H. B. Schlegel, G. E. Scuseria, 
 M. A. Robb, J. R. Cheeseman, G. Scalmani, V. Barone, 
 G. A. Petersson, H. Nakatsuji, X. Li, M. Caricato, A. V. Marenich, 
 J. Bloino, B. G. Janesko, R. Gomperts, B. Mennucci, H. P. Hratchian, 
 J. V. Ortiz, A. F. Izmaylov, J. L. Sonnenberg, D. Williams-Young, 
 F. Ding, F. Lipparini, F. Egidi, J. Goings, B. Peng, A. Petrone, 
 T. Henderson, D. Ranasinghe, V. G. Zakrzewski, J. Gao, N. Rega, 
 G. Zheng, W. Liang, M. Hada, M. Ehara, K. Toyota, R. Fukuda, 
 J. Hasegawa, M. Ishida, T. Nakajima, Y. Honda, O. Kitao, H. Nakai, 
 T. Vreven, K. Throssell, J. A. Montgomery, Jr., J. E. Peralta, 
 F. Ogliaro, M. J. Bearpark, J. J. Heyd, E. N. Brothers, K. N. Kudin, 
 V. N. Staroverov, T. A. Keith, R. Kobayashi, J. Normand, 
 K. Raghavachari, A. P. Rendell, J. C. Burant, S. S. Iyengar, 
 J. Tomasi, M. Cossi, J. M. Millam, M. Klene, C. Adamo, R. Cammi, 
 J. W. Ochterski, R. L. Martin, K. Morokuma, O. Farkas, 
 J. B. Foresman, and D. J. Fox, Gaussian, Inc., Wallingford CT, 2016.
 
 ******************************************
 Gaussian 16:  EM64L-G16RevA.03 25-Dec-2016
                21-Jan-2018 
 ******************************************
 %nprocshared=32
 Will use up to   32 processors via shared memory.
 %mem=32GB
 %chk=allatoms_t.chk
 ---------------------------------------
 #p wb97xd/cc-pvdz sp scf=(maxcycles=20)
 ---------------------------------------
 1/38=1,172=1/1;
 2/12=2,17=6,18=5,40=1/2;
 3/5=16,11=2,25=1,30=1,74=-58/1,2,3;
 4//1;
 5/5=2,7=20,38=5/2;
 6/7=2,8=2,9=2,10=2,28=1/1;
 99/5=1,9=1/99;
 Leave Link    1 at Sun Jan 21 23:27:15 2018, MaxMem=  4294967296 cpu:               2.7 elap:               0.1
 (Enter /share/apps/g16/l101.exe)
 ------------------
 Base pair stacking
 ------------------
 Symbolic Z-matrix:
 Charge =  0 Multiplicity = 1
 N                     6.5322    5.57352  -6.47105 
 C                     7.23992   6.8645   -6.57363 
 C                     4.96789   4.03025  -6.37851 
 N                     6.17856   3.36329  -6.25948 
 C                     7.07255   4.31975  -6.32 
 H                     8.15029   4.16581  -6.25909 
 N                     2.66217   4.50516  -6.52372 
 C                     3.01195   5.79028  -6.6407 
 H                     2.18388   6.48976  -6.74702 
 N                     4.22533   6.33852  -6.64603 
 C                     5.16986   5.39317  -6.50964 
 C                     3.63572   3.5784   -6.38803 
 N                     3.28857   2.29505  -6.27112 
 H                     3.97589   1.57513  -6.1686 
 H                     2.33015   2.00962  -6.28203 
 H                     7.84767   6.85083  -7.36775 
 H                     6.57435   7.60303  -6.67715 
 H                     7.77945   7.01793  -5.74576 
 N                     2.05379   6.1001   -3.26456 
 C                     1.04627   5.16578  -3.26328 
 C                     1.86296   7.56124  -3.36129 
 N                    -2.33619   4.38963  -3.39872 
 H                    -2.90583   3.5684   -3.38065 
 H                    -2.80869   5.26796  -3.47605 
 N                    -0.27669   5.42348  -3.34948 
 C                    -0.99869   4.31731  -3.32272 
 N                    -0.46768   3.05443  -3.21948 
 H                    -1.09598   2.26574  -3.20649 
 C                     0.89042   2.76573  -3.12957 
 O                     1.26545   1.59012  -3.03986 
 C                     1.67877   3.94413  -3.15705 
 N                     3.05568   4.10818  -3.09292 
 C                     3.23094   5.40007  -3.16 
 H                     4.20138   5.89707  -3.13738 
 H                     2.3285    7.9067   -4.17537 
 H                     0.88678   7.7642   -3.42565 
 H                     2.24127   8.003    -2.54856 
 H                    -4.70444  -1.25957  -3.84208 
 H                    -4.61454  -1.36967  -2.08582 
 H                    -4.30012   0.16879  -2.88935 
 H                    -0.71416  -3.89771  -3.32784 
 C                    -1.03209  -2.85823  -3.2464 
 O                     1.17342  -1.98678  -3.30466 
 C                    -0.04423  -1.82297  -3.23206 
 H                     0.11421   0.21392  -3.11248 
 N                    -0.55328  -0.54437  -3.12585 
 O                    -2.22883   0.97778  -2.94466 
 C                    -1.87462  -0.18451  -3.03565 
 H                    -3.11885  -3.28821  -3.16654 
 C                    -2.32863  -2.53864  -3.16 
 C                    -4.18996  -0.90298  -2.96218 
 N                    -2.76651  -1.2387   -3.05609 
 H                    -5.07308   2.85169  -6.86174 
 H                    -4.04045   3.67206  -5.90113 
 H                    -5.12258   2.64185  -5.24405 
 H                     1.34841  -0.82711  -6.31721 
 H                    -0.15751  -1.61482  -6.46493 
 N                     0.3507   -0.76208  -6.33931 
 C                    -0.27524   0.40922  -6.20724 
 C                    -2.17671   1.83411  -6.08142 
 N                    -1.46847   2.96317  -5.91402 
 H                     0.48648   3.56313  -5.77681 
 C                    -0.16343   2.69907  -5.90822 
 N                     0.46545   1.52663  -6.04035 
 H                    -4.80518  -0.0209   -6.40123 
 C                    -3.78972   0.36792  -6.32 
 N                    -2.70433  -0.36411  -6.38132 
 C                    -1.67439   0.55321  -6.23142 
 C                    -4.5233    2.80605  -6.02768 
 N                    -3.54439   1.70732  -6.1396 
 
 ITRead=  0  0  0  0  0  0  0  0  0  0  0  0  0  0  0  0  0  0  0  0
 ITRead=  0  0  0  0  0  0  0  0  0  0  0  0  0  0  0  0  0  0  0  0
 ITRead=  0  0  0  0  0  0  0  0  0  0  0  0  0  0  0  0  0  0  0  0
 ITRead=  0  0  0  0  0  0  0  0  0  0
 MicOpt= -1 -1 -1 -1 -1 -1 -1 -1 -1 -1 -1 -1 -1 -1 -1 -1 -1 -1 -1 -1
 MicOpt= -1 -1 -1 -1 -1 -1 -1 -1 -1 -1 -1 -1 -1 -1 -1 -1 -1 -1 -1 -1
 MicOpt= -1 -1 -1 -1 -1 -1 -1 -1 -1 -1 -1 -1 -1 -1 -1 -1 -1 -1 -1 -1
 MicOpt= -1 -1 -1 -1 -1 -1 -1 -1 -1 -1
 NAtoms=     70 NQM=       70 NQMF=       0 NMMI=      0 NMMIF=      0
                NMic=       0 NMicF=      0.
                    Isotopes and Nuclear Properties:
 (Nuclear quadrupole moments (NQMom) in fm**2, nuclear magnetic moments (NMagM)
  in nuclear magnetons)

  Atom         1           2           3           4           5           6           7           8           9          10
 IAtWgt=          14          12          12          14          12           1          14          12           1          14
 AtmWgt=  14.0030740  12.0000000  12.0000000  14.0030740  12.0000000   1.0078250  14.0030740  12.0000000   1.0078250  14.0030740
 NucSpn=           2           0           0           2           0           1           2           0           1           2
 AtZEff=  -0.0000000  -0.0000000  -0.0000000  -0.0000000  -0.0000000  -0.0000000  -0.0000000  -0.0000000  -0.0000000  -0.0000000
 NQMom=    2.0440000   0.0000000   0.0000000   2.0440000   0.0000000   0.0000000   2.0440000   0.0000000   0.0000000   2.0440000
 NMagM=    0.4037610   0.0000000   0.0000000   0.4037610   0.0000000   2.7928460   0.4037610   0.0000000   2.7928460   0.4037610
 AtZNuc=   7.0000000   6.0000000   6.0000000   7.0000000   6.0000000   1.0000000   7.0000000   6.0000000   1.0000000   7.0000000

  Atom        11          12          13          14          15          16          17          18          19          20
 IAtWgt=          12          12          14           1           1           1           1           1          14          12
 AtmWgt=  12.0000000  12.0000000  14.0030740   1.0078250   1.0078250   1.0078250   1.0078250   1.0078250  14.0030740  12.0000000
 NucSpn=           0           0           2           1           1           1           1           1           2           0
 AtZEff=  -0.0000000  -0.0000000  -0.0000000  -0.0000000  -0.0000000  -0.0000000  -0.0000000  -0.0000000  -0.0000000  -0.0000000
 NQMom=    0.0000000   0.0000000   2.0440000   0.0000000   0.0000000   0.0000000   0.0000000   0.0000000   2.0440000   0.0000000
 NMagM=    0.0000000   0.0000000   0.4037610   2.7928460   2.7928460   2.7928460   2.7928460   2.7928460   0.4037610   0.0000000
 AtZNuc=   6.0000000   6.0000000   7.0000000   1.0000000   1.0000000   1.0000000   1.0000000   1.0000000   7.0000000   6.0000000

  Atom        21          22          23          24          25          26          27          28          29          30
 IAtWgt=          12          14           1           1          14          12          14           1          12          16
 AtmWgt=  12.0000000  14.0030740   1.0078250   1.0078250  14.0030740  12.0000000  14.0030740   1.0078250  12.0000000  15.9949146
 NucSpn=           0           2           1           1           2           0           2           1           0           0
 AtZEff=  -0.0000000  -0.0000000  -0.0000000  -0.0000000  -0.0000000  -0.0000000  -0.0000000  -0.0000000  -0.0000000  -0.0000000
 NQMom=    0.0000000   2.0440000   0.0000000   0.0000000   2.0440000   0.0000000   2.0440000   0.0000000   0.0000000   0.0000000
 NMagM=    0.0000000   0.4037610   2.7928460   2.7928460   0.4037610   0.0000000   0.4037610   2.7928460   0.0000000   0.0000000
 AtZNuc=   6.0000000   7.0000000   1.0000000   1.0000000   7.0000000   6.0000000   7.0000000   1.0000000   6.0000000   8.0000000

  Atom        31          32          33          34          35          36          37          38          39          40
 IAtWgt=          12          14          12           1           1           1           1           1           1           1
 AtmWgt=  12.0000000  14.0030740  12.0000000   1.0078250   1.0078250   1.0078250   1.0078250   1.0078250   1.0078250   1.0078250
 NucSpn=           0           2           0           1           1           1           1           1           1           1
 AtZEff=  -0.0000000  -0.0000000  -0.0000000  -0.0000000  -0.0000000  -0.0000000  -0.0000000  -0.0000000  -0.0000000  -0.0000000
 NQMom=    0.0000000   2.0440000   0.0000000   0.0000000   0.0000000   0.0000000   0.0000000   0.0000000   0.0000000   0.0000000
 NMagM=    0.0000000   0.4037610   0.0000000   2.7928460   2.7928460   2.7928460   2.7928460   2.7928460   2.7928460   2.7928460
 AtZNuc=   6.0000000   7.0000000   6.0000000   1.0000000   1.0000000   1.0000000   1.0000000   1.0000000   1.0000000   1.0000000

  Atom        41          42          43          44          45          46          47          48          49          50
 IAtWgt=           1          12          16          12           1          14          16          12           1          12
 AtmWgt=   1.0078250  12.0000000  15.9949146  12.0000000   1.0078250  14.0030740  15.9949146  12.0000000   1.0078250  12.0000000
 NucSpn=           1           0           0           0           1           2           0           0           1           0
 AtZEff=  -0.0000000  -0.0000000  -0.0000000  -0.0000000  -0.0000000  -0.0000000  -0.0000000  -0.0000000  -0.0000000  -0.0000000
 NQMom=    0.0000000   0.0000000   0.0000000   0.0000000   0.0000000   2.0440000   0.0000000   0.0000000   0.0000000   0.0000000
 NMagM=    2.7928460   0.0000000   0.0000000   0.0000000   2.7928460   0.4037610   0.0000000   0.0000000   2.7928460   0.0000000
 AtZNuc=   1.0000000   6.0000000   8.0000000   6.0000000   1.0000000   7.0000000   8.0000000   6.0000000   1.0000000   6.0000000

  Atom        51          52          53          54          55          56          57          58          59          60
 IAtWgt=          12          14           1           1           1           1           1          14          12          12
 AtmWgt=  12.0000000  14.0030740   1.0078250   1.0078250   1.0078250   1.0078250   1.0078250  14.0030740  12.0000000  12.0000000
 NucSpn=           0           2           1           1           1           1           1           2           0           0
 AtZEff=  -0.0000000  -0.0000000  -0.0000000  -0.0000000  -0.0000000  -0.0000000  -0.0000000  -0.0000000  -0.0000000  -0.0000000
 NQMom=    0.0000000   2.0440000   0.0000000   0.0000000   0.0000000   0.0000000   0.0000000   2.0440000   0.0000000   0.0000000
 NMagM=    0.0000000   0.4037610   2.7928460   2.7928460   2.7928460   2.7928460   2.7928460   0.4037610   0.0000000   0.0000000
 AtZNuc=   6.0000000   7.0000000   1.0000000   1.0000000   1.0000000   1.0000000   1.0000000   7.0000000   6.0000000   6.0000000

  Atom        61          62          63          64          65          66          67          68          69          70
 IAtWgt=          14           1          12          14           1          12          14          12          12          14
 AtmWgt=  14.0030740   1.0078250  12.0000000  14.0030740   1.0078250  12.0000000  14.0030740  12.0000000  12.0000000  14.0030740
 NucSpn=           2           1           0           2           1           0           2           0           0           2
 AtZEff=  -0.0000000  -0.0000000  -0.0000000  -0.0000000  -0.0000000  -0.0000000  -0.0000000  -0.0000000  -0.0000000  -0.0000000
 NQMom=    2.0440000   0.0000000   0.0000000   2.0440000   0.0000000   0.0000000   2.0440000   0.0000000   0.0000000   2.0440000
 NMagM=    0.4037610   2.7928460   0.0000000   0.4037610   2.7928460   0.0000000   0.4037610   0.0000000   0.0000000   0.4037610
 AtZNuc=   7.0000000   1.0000000   6.0000000   7.0000000   1.0000000   6.0000000   7.0000000   6.0000000   6.0000000   7.0000000
 Leave Link  101 at Sun Jan 21 23:27:16 2018, MaxMem=  4294967296 cpu:               7.8 elap:               0.3
 (Enter /share/apps/g16/l202.exe)
 Stoichiometry    C23H27N17O3
 Framework group  C1[X(C23H27N17O3)]
 Deg. of freedom   204
 Full point group                 C1      NOp   1
 Largest Abelian subgroup         C1      NOp   1
 Largest concise Abelian subgroup C1      NOp   1
                         Standard orientation:                         
 ---------------------------------------------------------------------
 Center     Atomic      Atomic             Coordinates (Angstroms)
 Number     Number       Type             X           Y           Z
 ---------------------------------------------------------------------
      1          7           0       -6.659439   -1.347957    0.448226
      2          6           0       -8.015599   -0.765852    0.447052
      3          6           0       -4.486816   -1.626701    0.646529
      4          7           0       -4.996322   -2.842816    0.215027
      5          6           0       -6.284862   -2.626212    0.112830
      6          1           0       -7.015330   -3.370492   -0.205597
      7          7           0       -3.015705    0.077595    1.349506
      8          6           0       -4.093383    0.863053    1.445583
      9          1           0       -3.898076    1.882004    1.777048
     10          7           0       -5.370095    0.580158    1.194858
     11          6           0       -5.500002   -0.695559    0.794735
     12          6           0       -3.179597   -1.200675    0.944215
     13          7           0       -2.105053   -1.986298    0.847681
     14          1           0       -2.179435   -2.939236    0.551743
     15          1           0       -1.189549   -1.649295    1.067771
     16          1           0       -8.600466   -1.278655    1.075652
     17          1           0       -7.969633    0.188771    0.739812
     18          1           0       -8.399507   -0.811782   -0.475177
     19          7           0       -3.019911    2.285081   -1.593804
     20          6           0       -1.666224    2.141938   -1.406472
     21          6           0       -3.783967    3.530967   -1.382403
     22          7           0        1.407890    3.495805   -0.524054
     23          1           0        2.355757    3.187198   -0.449605
     24          1           0        1.222623    4.451749   -0.294823
     25          7           0       -0.813507    3.107640   -1.001061
     26          6           0        0.428554    2.665752   -0.913702
     27          7           0        0.808563    1.377116   -1.200945
     28          1           0        1.781087    1.127734   -1.106245
     29          6           0       -0.051757    0.366991   -1.619709
     30          8           0        0.393352   -0.763578   -1.853044
     31          6           0       -1.389631    0.826621   -1.718253
     32          7           0       -2.546395    0.157454   -2.093778
     33          6           0       -3.485405    1.060000   -2.005079
     34          1           0       -4.538265    0.884749   -2.228789
     35          1           0       -4.482254    3.381154   -0.683298
     36          1           0       -3.162747    4.253490   -1.081888
     37          1           0       -4.222377    3.804306   -2.237904
     38          1           0        6.640283    0.357553    0.177423
     39          1           0        6.909725    0.537423   -1.554541
     40          1           0        5.597804    1.418386   -0.770866
     41          1           0        5.249834   -3.975073   -1.385128
     42          6           0        4.870530   -2.954216   -1.338118
     43          8           0        2.619159   -3.575794   -1.752923
     44          6           0        3.472521   -2.717135   -1.530992
     45          1           0        2.118106   -1.183761   -1.582450
     46          7           0        3.098236   -1.390930   -1.451485
     47          8           0        3.489138    0.827100   -1.160320
     48          6           0        3.914259   -0.313599   -1.212655
     49          1           0        6.762332   -2.050746   -0.949978
     50          6           0        5.691483   -1.923896   -1.103396
     51          6           0        6.159111    0.495894   -0.779346
     52          7           0        5.248646   -0.623168   -1.037206
     53          1           0        3.935456    3.264286    3.401011
     54          1           0        2.780950    3.477869    2.268050
     55          1           0        4.352622    3.422377    1.831175
     56          1           0        1.306237   -3.313120    1.189551
     57          1           0        2.932758   -3.074631    1.645242
     58          7           0        2.035318   -2.678915    1.447170
     59          6           0        1.821385   -1.363775    1.523497
     60          6           0        2.438330    0.900469    1.916318
     61          7           0        1.222883    1.403810    1.644768
     62          1           0       -0.637655    0.751303    1.085087
     63          6           0        0.375541    0.428982    1.321297
     64          7           0        0.587888   -0.888797    1.244285
     65          1           0        5.562418    0.927177    2.747917
     66          6           0        4.550164    0.650868    2.451383
     67          7           0        4.149710   -0.575617    2.221016
     68          6           0        2.812468   -0.431555    1.880792
     69          6           0        3.666758    3.056608    2.460443
     70          7           0        3.565998    1.594645    2.285770
 ---------------------------------------------------------------------
 Rotational constants (GHZ):           0.1513679           0.0522224           0.0480451
 Leave Link  202 at Sun Jan 21 23:27:16 2018, MaxMem=  4294967296 cpu:               0.4 elap:               0.0
 (Enter /share/apps/g16/l301.exe)
 Standard basis: CC-pVDZ (5D, 7F)
 Ernie: Thresh=  0.10000D-02 Tol=  0.10000D-05 Strict=F.
 Ernie:  86 primitive shells out of 1081 were deleted.
 There are   780 symmetry adapted cartesian basis functions of A   symmetry.
 There are   737 symmetry adapted basis functions of A   symmetry.
   737 basis functions,  1608 primitive gaussians,   780 cartesian basis functions
   154 alpha electrons      154 beta electrons
       nuclear repulsion energy      5501.3496580035 Hartrees.
 IExCor= 4639 DFT=T Ex+Corr=wB97XD ExCW=0 ScaHFX=  1.000000
 ScaDFX=  1.000000  1.000000  1.000000  1.000000 ScalE2=  1.000000  1.000000
 IRadAn=      5 IRanWt=     -1 IRanGd=            0 ICorTp=0 IEmpDi=121
 HFx  wShort=  0.000000 wLong=  0.200000 cFull=  0.222036 cShort=  0.000000 cLong=  0.777964
 DFx  wShort=  0.000000 wLong=  0.200000 cFull=  0.000000 cShort=  0.000000 cLong=  1.000000
 NAtoms=   70 NActive=   70 NUniq=   70 SFac= 1.00D+00 NAtFMM=   60 NAOKFM=T Big=T
 Integral buffers will be    131072 words long.
 Raffenetti 2 integral format.
 Two-electron integral symmetry is turned on.
 R6Disp:  Grimme-D2 Dispersion energy=       -0.0718348610 Hartrees.
 Nuclear repulsion after empirical dispersion term =     5501.2778231424 Hartrees.
 Leave Link  301 at Sun Jan 21 23:27:16 2018, MaxMem=  4294967296 cpu:               3.0 elap:               0.1
 (Enter /share/apps/g16/l302.exe)
 NPDir=0 NMtPBC=     1 NCelOv=     1 NCel=       1 NClECP=     1 NCelD=      1
         NCelK=      1 NCelE2=     1 NClLst=     1 CellRange=     0.0.
 One-electron integrals computed using PRISM.
 One-electron integral symmetry used in STVInt
 NBasis=   737 RedAO= T EigKep=  7.08D-04  NBF=   737
 NBsUse=   737 1.00D-06 EigRej= -1.00D+00 NBFU=   737
 Precomputing XC quadrature grid using
 IXCGrd= 4 IRadAn=           5 IRanWt=          -1 IRanGd=           0 AccXCQ= 0.00D+00.
 Generated NRdTot=       0 NPtTot=           0 NUsed=           0 NTot=          32
 NSgBfM=   767   767   767   767   767 MxSgAt=    70 MxSgA2=    70.
 Leave Link  302 at Sun Jan 21 23:27:20 2018, MaxMem=  4294967296 cpu:             139.5 elap:               4.4
 (Enter /share/apps/g16/l303.exe)
 DipDrv:  MaxL=1.
 Leave Link  303 at Sun Jan 21 23:27:21 2018, MaxMem=  4294967296 cpu:              12.5 elap:               0.4
 (Enter /share/apps/g16/l401.exe)
 ExpMin= 1.22D-01 ExpMax= 1.17D+04 ExpMxC= 4.01D+02 IAcc=3 IRadAn=         5 AccDes= 0.00D+00
 Harris functional with IExCor= 4639 and IRadAn=       5 diagonalized for initial guess.
 HarFok:  IExCor= 4639 AccDes= 0.00D+00 IRadAn=         5 IDoV= 1 UseB2=F ITyADJ=14
 ICtDFT=  3500011 ScaDFX=  1.000000  1.000000  1.000000  1.000000
 FoFCou: FMM=F IPFlag=           0 FMFlag=      100000 FMFlg1=        2001
         NFxFlg=           0 DoJE=T BraDBF=F KetDBF=T FulRan=T
         wScrn=  0.000000 ICntrl=       500 IOpCl=  0 I1Cent=   200000004 NGrid=           0
         NMat0=    1 NMatS0=      1 NMatT0=    0 NMatD0=    1 NMtDS0=    0 NMtDT0=    0
 Petite list used in FoFCou.
 Harris En= -1963.88299222987    
 JPrj=0 DoOrth=F DoCkMO=F.
 Leave Link  401 at Sun Jan 21 23:27:33 2018, MaxMem=  4294967296 cpu:             400.3 elap:              12.6
 (Enter /share/apps/g16/l502.exe)
 Integral symmetry usage will be decided dynamically.
 Closed shell SCF:
 Using DIIS extrapolation, IDIIS=  1040.
 NGot=  4294967296 LenX=  4293717438 LenY=  4293108258
 Requested convergence on RMS density matrix=1.00D-08 within  20 cycles.
 Requested convergence on MAX density matrix=1.00D-06.
 Requested convergence on             energy=1.00D-06.
 No special actions if energy rises.
 Fock matrices will be formed incrementally for  20 cycles.
 Integral accuracy reduced to 1.0D-05 until final iterations.

 Cycle   1  Pass 0  IDiag  1:
 FoFJK:  IHMeth= 1 ICntrl=       0 DoSepK=T KAlg= 0 I1Cent=           0 FoldK=F
 IRaf=         1 NMat=       1 IRICut=       1 DoRegI=T DoRafI=F ISym2E= 0 IDoP0=0 IntGTp=1.
 FoFCou: FMM=T IPFlag=           0 FMFlag=      100000 FMFlg1=        2001
         NFxFlg=           0 DoJE=T BraDBF=F KetDBF=F FulRan=T
         wScrn=  0.000000 ICntrl=       500 IOpCl=  0 I1Cent=           0 NGrid=           0
         NMat0=    1 NMatS0=      1 NMatT0=    0 NMatD0=    1 NMtDS0=    0 NMtDT0=    0
 Symmetry not used in FoFCou.
 FMM levels:  10  Number of levels for PrismC:   9
 E= -2048.31544418472    
 DIIS: error= 2.59D-02 at cycle   1 NSaved=   1.
 NSaved= 1 IEnMin= 1 EnMin= -2048.31544418472     IErMin= 1 ErrMin= 2.59D-02
 ErrMax= 2.59D-02  0.00D+00 EMaxC= 1.00D-01 BMatC= 8.30D-01 BMatP= 8.30D-01
 IDIUse=3 WtCom= 7.41D-01 WtEn= 2.59D-01
 Coeff-Com:  0.100D+01
 Coeff-En:   0.100D+01
 Coeff:      0.100D+01
 Gap=     0.255 Goal=   None    Shift=    0.000
 GapD=    0.255 DampG=1.000 DampE=0.500 DampFc=0.5000 IDamp=-1.
 Damping current iteration by 5.00D-01
 RMSDP=1.57D-03 MaxDP=1.30D-01              OVMax= 1.44D-01

 Cycle   2  Pass 0  IDiag  1:
 RMSU=  7.83D-04    CP:  9.98D-01
 E= -2048.51204305388     Delta-E=       -0.196598869164 Rises=F Damp=T
 DIIS: error= 1.45D-02 at cycle   2 NSaved=   2.
 NSaved= 2 IEnMin= 2 EnMin= -2048.51204305388     IErMin= 2 ErrMin= 1.45D-02
 ErrMax= 1.45D-02  0.00D+00 EMaxC= 1.00D-01 BMatC= 1.45D-01 BMatP= 8.30D-01
 IDIUse=3 WtCom= 8.55D-01 WtEn= 1.45D-01
 Coeff-Com: -0.199D+00 0.120D+01
 Coeff-En:   0.000D+00 0.100D+01
 Coeff:     -0.170D+00 0.117D+01
 Gap=     0.360 Goal=   None    Shift=    0.000
 RMSDP=5.86D-04 MaxDP=3.33D-02 DE=-1.97D-01 OVMax= 1.37D-01

 Cycle   3  Pass 0  IDiag  1:
 RMSU=  5.74D-04    CP:  9.94D-01  1.14D+00
 E= -2048.69215720429     Delta-E=       -0.180114150411 Rises=F Damp=F
 DIIS: error= 8.32D-03 at cycle   3 NSaved=   3.
 NSaved= 3 IEnMin= 3 EnMin= -2048.69215720429     IErMin= 3 ErrMin= 8.32D-03
 ErrMax= 8.32D-03  0.00D+00 EMaxC= 1.00D-01 BMatC= 6.08D-02 BMatP= 1.45D-01
 IDIUse=3 WtCom= 9.17D-01 WtEn= 8.32D-02
 Coeff-Com: -0.230D+00 0.544D+00 0.686D+00
 Coeff-En:   0.000D+00 0.000D+00 0.100D+01
 Coeff:     -0.211D+00 0.498D+00 0.712D+00
 Gap=     0.279 Goal=   None    Shift=    0.000
 RMSDP=3.55D-04 MaxDP=3.29D-02 DE=-1.80D-01 OVMax= 7.44D-02

 Cycle   4  Pass 0  IDiag  1:
 RMSU=  2.03D-04    CP:  9.94D-01  1.42D+00  6.70D-01
 E= -2048.73793160699     Delta-E=       -0.045774402699 Rises=F Damp=F
 DIIS: error= 3.17D-03 at cycle   4 NSaved=   4.
 NSaved= 4 IEnMin= 4 EnMin= -2048.73793160699     IErMin= 4 ErrMin= 3.17D-03
 ErrMax= 3.17D-03  0.00D+00 EMaxC= 1.00D-01 BMatC= 9.28D-03 BMatP= 6.08D-02
 IDIUse=3 WtCom= 9.68D-01 WtEn= 3.17D-02
 Coeff-Com: -0.940D-01 0.182D+00 0.383D+00 0.529D+00
 Coeff-En:   0.000D+00 0.000D+00 0.765D-01 0.924D+00
 Coeff:     -0.910D-01 0.176D+00 0.373D+00 0.542D+00
 Gap=     0.284 Goal=   None    Shift=    0.000
 RMSDP=1.29D-04 MaxDP=1.20D-02 DE=-4.58D-02 OVMax= 1.45D-02

 Cycle   5  Pass 0  IDiag  1:
 RMSU=  6.12D-05    CP:  9.94D-01  1.39D+00  8.08D-01  6.12D-01
 E= -2048.74563395352     Delta-E=       -0.007702346530 Rises=F Damp=F
 DIIS: error= 6.01D-04 at cycle   5 NSaved=   5.
 NSaved= 5 IEnMin= 5 EnMin= -2048.74563395352     IErMin= 5 ErrMin= 6.01D-04
 ErrMax= 6.01D-04  0.00D+00 EMaxC= 1.00D-01 BMatC= 2.93D-04 BMatP= 9.28D-03
 IDIUse=3 WtCom= 9.94D-01 WtEn= 6.01D-03
 Coeff-Com: -0.238D-01 0.405D-01 0.122D+00 0.239D+00 0.622D+00
 Coeff-En:   0.000D+00 0.000D+00 0.000D+00 0.000D+00 0.100D+01
 Coeff:     -0.236D-01 0.403D-01 0.122D+00 0.238D+00 0.624D+00
 Gap=     0.284 Goal=   None    Shift=    0.000
 RMSDP=2.62D-05 MaxDP=1.95D-03 DE=-7.70D-03 OVMax= 3.22D-03

 Failed to achieve initial convergence to 1.0D-08 in  6 cycles.
 Switch to full accuracy anyway.
 Cycle   6  Pass 1  IDiag  1:
 E= -2048.74589526083     Delta-E=       -0.000261307304 Rises=F Damp=F
 DIIS: error= 2.69D-04 at cycle   1 NSaved=   1.
 NSaved= 1 IEnMin= 1 EnMin= -2048.74589526083     IErMin= 1 ErrMin= 2.69D-04
 ErrMax= 2.69D-04  0.00D+00 EMaxC= 1.00D-01 BMatC= 7.33D-05 BMatP= 7.33D-05
 IDIUse=3 WtCom= 9.97D-01 WtEn= 2.69D-03
 Coeff-Com:  0.100D+01
 Coeff-En:   0.100D+01
 Coeff:      0.100D+01
 Gap=     0.284 Goal=   None    Shift=    0.000
 RMSDP=2.62D-05 MaxDP=1.95D-03 DE=-2.61D-04 OVMax= 2.67D-03

 Cycle   7  Pass 1  IDiag  1:
 RMSU=  1.10D-04    CP:  1.00D+00
 E= -2048.74594947755     Delta-E=       -0.000054216728 Rises=F Damp=F
 DIIS: error= 2.27D-04 at cycle   2 NSaved=   2.
 NSaved= 2 IEnMin= 2 EnMin= -2048.74594947755     IErMin= 2 ErrMin= 2.27D-04
 ErrMax= 2.27D-04  0.00D+00 EMaxC= 1.00D-01 BMatC= 4.15D-05 BMatP= 7.33D-05
 IDIUse=3 WtCom= 9.98D-01 WtEn= 2.27D-03
 Coeff-Com:  0.405D+00 0.595D+00
 Coeff-En:   0.000D+00 0.100D+01
 Coeff:      0.404D+00 0.596D+00
 Gap=     0.284 Goal=   None    Shift=    0.000
 RMSDP=1.12D-05 MaxDP=1.10D-03 DE=-5.42D-05 OVMax= 1.48D-03

 Cycle   8  Pass 1  IDiag  1:
 RMSU=  1.09D-05    CP:  1.00D+00  1.03D+00
 E= -2048.74597951174     Delta-E=       -0.000030034188 Rises=F Damp=F
 DIIS: error= 9.56D-05 at cycle   3 NSaved=   3.
 NSaved= 3 IEnMin= 3 EnMin= -2048.74597951174     IErMin= 3 ErrMin= 9.56D-05
 ErrMax= 9.56D-05  0.00D+00 EMaxC= 1.00D-01 BMatC= 9.95D-06 BMatP= 4.15D-05
 IDIUse=1 WtCom= 1.00D+00 WtEn= 0.00D+00
 Coeff-Com: -0.196D-01 0.315D+00 0.704D+00
 Coeff:     -0.196D-01 0.315D+00 0.704D+00
 Gap=     0.284 Goal=   None    Shift=    0.000
 RMSDP=5.53D-06 MaxDP=4.54D-04 DE=-3.00D-05 OVMax= 5.52D-04

 Cycle   9  Pass 1  IDiag  1:
 RMSU=  3.77D-06    CP:  1.00D+00  1.05D+00  7.61D-01
 E= -2048.74598881035     Delta-E=       -0.000009298605 Rises=F Damp=F
 DIIS: error= 4.44D-05 at cycle   4 NSaved=   4.
 NSaved= 4 IEnMin= 4 EnMin= -2048.74598881035     IErMin= 4 ErrMin= 4.44D-05
 ErrMax= 4.44D-05  0.00D+00 EMaxC= 1.00D-01 BMatC= 4.82D-07 BMatP= 9.95D-06
 IDIUse=1 WtCom= 1.00D+00 WtEn= 0.00D+00
 Coeff-Com: -0.307D-01 0.854D-01 0.258D+00 0.688D+00
 Coeff:     -0.307D-01 0.854D-01 0.258D+00 0.688D+00
 Gap=     0.284 Goal=   None    Shift=    0.000
 RMSDP=1.42D-06 MaxDP=1.38D-04 DE=-9.30D-06 OVMax= 5.17D-04

 Cycle  10  Pass 1  IDiag  1:
 RMSU=  1.27D-06    CP:  1.00D+00  1.06D+00  7.95D-01  1.10D+00
 E= -2048.74598962386     Delta-E=       -0.000000813515 Rises=F Damp=F
 DIIS: error= 1.64D-05 at cycle   5 NSaved=   5.
 NSaved= 5 IEnMin= 5 EnMin= -2048.74598962386     IErMin= 5 ErrMin= 1.64D-05
 ErrMax= 1.64D-05  0.00D+00 EMaxC= 1.00D-01 BMatC= 1.17D-07 BMatP= 4.82D-07
 IDIUse=1 WtCom= 1.00D+00 WtEn= 0.00D+00
 Coeff-Com: -0.286D-02-0.574D-01-0.123D+00 0.206D+00 0.977D+00
 Coeff:     -0.286D-02-0.574D-01-0.123D+00 0.206D+00 0.977D+00
 Gap=     0.284 Goal=   None    Shift=    0.000
 RMSDP=1.19D-06 MaxDP=7.70D-05 DE=-8.14D-07 OVMax= 2.49D-04

 Cycle  11  Pass 1  IDiag  1:
 RMSU=  4.90D-07    CP:  1.00D+00  1.06D+00  8.05D-01  1.38D+00  1.17D+00
 E= -2048.74598987559     Delta-E=       -0.000000251731 Rises=F Damp=F
 DIIS: error= 1.10D-05 at cycle   6 NSaved=   6.
 NSaved= 6 IEnMin= 6 EnMin= -2048.74598987559     IErMin= 6 ErrMin= 1.10D-05
 ErrMax= 1.10D-05  0.00D+00 EMaxC= 1.00D-01 BMatC= 2.71D-08 BMatP= 1.17D-07
 IDIUse=1 WtCom= 1.00D+00 WtEn= 0.00D+00
 Coeff-Com:  0.455D-02-0.453D-01-0.113D+00 0.148D-02 0.519D+00 0.634D+00
 Coeff:      0.455D-02-0.453D-01-0.113D+00 0.148D-02 0.519D+00 0.634D+00
 Gap=     0.284 Goal=   None    Shift=    0.000
 RMSDP=3.51D-07 MaxDP=3.73D-05 DE=-2.52D-07 OVMax= 1.30D-04

 Cycle  12  Pass 1  IDiag  1:
 RMSU=  1.77D-07    CP:  1.00D+00  1.06D+00  8.06D-01  1.45D+00  1.29D+00
                    CP:  9.35D-01
 E= -2048.74598991456     Delta-E=       -0.000000038970 Rises=F Damp=F
 DIIS: error= 1.20D-06 at cycle   7 NSaved=   7.
 NSaved= 7 IEnMin= 7 EnMin= -2048.74598991456     IErMin= 7 ErrMin= 1.20D-06
 ErrMax= 1.20D-06  0.00D+00 EMaxC= 1.00D-01 BMatC= 7.85D-10 BMatP= 2.71D-08
 IDIUse=1 WtCom= 1.00D+00 WtEn= 0.00D+00
 Coeff-Com:  0.107D-02-0.709D-02-0.191D-01-0.761D-02 0.523D-01 0.137D+00
 Coeff-Com:  0.843D+00
 Coeff:      0.107D-02-0.709D-02-0.191D-01-0.761D-02 0.523D-01 0.137D+00
 Coeff:      0.843D+00
 Gap=     0.284 Goal=   None    Shift=    0.000
 RMSDP=8.43D-08 MaxDP=5.18D-06 DE=-3.90D-08 OVMax= 2.31D-05

 Cycle  13  Pass 1  IDiag  1:
 RMSU=  4.90D-08    CP:  1.00D+00  1.06D+00  8.06D-01  1.46D+00  1.31D+00
                    CP:  1.03D+00  1.14D+00
 E= -2048.74598991598     Delta-E=       -0.000000001416 Rises=F Damp=F
 DIIS: error= 7.34D-07 at cycle   8 NSaved=   8.
 NSaved= 8 IEnMin= 8 EnMin= -2048.74598991598     IErMin= 8 ErrMin= 7.34D-07
 ErrMax= 7.34D-07  0.00D+00 EMaxC= 1.00D-01 BMatC= 3.09D-10 BMatP= 7.85D-10
 IDIUse=1 WtCom= 1.00D+00 WtEn= 0.00D+00
 Coeff-Com: -0.671D-03 0.848D-02 0.202D-01-0.235D-02-0.110D+00-0.930D-01
 Coeff-Com:  0.425D+00 0.752D+00
 Coeff:     -0.671D-03 0.848D-02 0.202D-01-0.235D-02-0.110D+00-0.930D-01
 Coeff:      0.425D+00 0.752D+00
 Gap=     0.284 Goal=   None    Shift=    0.000
 RMSDP=4.40D-08 MaxDP=2.67D-06 DE=-1.42D-09 OVMax= 1.12D-05

 Cycle  14  Pass 1  IDiag  1:
 RMSU=  2.63D-08    CP:  1.00D+00  1.06D+00  8.06D-01  1.46D+00  1.31D+00
                    CP:  1.07D+00  1.28D+00  1.07D+00
 E= -2048.74598991622     Delta-E=       -0.000000000245 Rises=F Damp=F
 DIIS: error= 2.46D-07 at cycle   9 NSaved=   9.
 NSaved= 9 IEnMin= 9 EnMin= -2048.74598991622     IErMin= 9 ErrMin= 2.46D-07
 ErrMax= 2.46D-07  0.00D+00 EMaxC= 1.00D-01 BMatC= 3.15D-11 BMatP= 3.09D-10
 IDIUse=1 WtCom= 1.00D+00 WtEn= 0.00D+00
 Coeff-Com: -0.414D-03 0.455D-02 0.111D-01 0.649D-04-0.541D-01-0.564D-01
 Coeff-Com:  0.880D-01 0.310D+00 0.697D+00
 Coeff:     -0.414D-03 0.455D-02 0.111D-01 0.649D-04-0.541D-01-0.564D-01
 Coeff:      0.880D-01 0.310D+00 0.697D+00
 Gap=     0.284 Goal=   None    Shift=    0.000
 RMSDP=1.33D-08 MaxDP=9.02D-07 DE=-2.45D-10 OVMax= 3.52D-06

 Cycle  15  Pass 1  IDiag  1:
 RMSU=  9.07D-09    CP:  1.00D+00  1.06D+00  8.06D-01  1.46D+00  1.32D+00
                    CP:  1.07D+00  1.31D+00  1.21D+00  1.10D+00
 E= -2048.74598991654     Delta-E=       -0.000000000319 Rises=F Damp=F
 DIIS: error= 8.56D-08 at cycle  10 NSaved=  10.
 NSaved=10 IEnMin=10 EnMin= -2048.74598991654     IErMin=10 ErrMin= 8.56D-08
 ErrMax= 8.56D-08  0.00D+00 EMaxC= 1.00D-01 BMatC= 5.39D-12 BMatP= 3.15D-11
 IDIUse=1 WtCom= 1.00D+00 WtEn= 0.00D+00
 Coeff-Com: -0.185D-05-0.237D-03-0.462D-03 0.207D-03 0.450D-02 0.170D-03
 Coeff-Com: -0.540D-01-0.532D-01 0.274D+00 0.829D+00
 Coeff:     -0.185D-05-0.237D-03-0.462D-03 0.207D-03 0.450D-02 0.170D-03
 Coeff:     -0.540D-01-0.532D-01 0.274D+00 0.829D+00
 Gap=     0.284 Goal=   None    Shift=    0.000
 RMSDP=6.61D-09 MaxDP=4.04D-07 DE=-3.19D-10 OVMax= 1.50D-06

 SCF Done:  E(RwB97XD) =  -2048.74598992     A.U. after   15 cycles
            NFock= 15  Conv=0.66D-08     -V/T= 2.0054
 KE= 2.037729343192D+03 PE=-1.578342113253D+04 EE= 6.195667976283D+03
 Leave Link  502 at Sun Jan 21 23:38:54 2018, MaxMem=  4294967296 cpu:           21111.1 elap:             681.0
 (Enter /share/apps/g16/l601.exe)
 Copying SCF densities to generalized density rwf, IOpCl= 0 IROHF=0.

 **********************************************************************

            Population analysis using the SCF density.

 **********************************************************************

 Orbital symmetries:
       Occupied  (A) (A) (A) (A) (A) (A) (A) (A) (A) (A) (A) (A)
                 (A) (A) (A) (A) (A) (A) (A) (A) (A) (A) (A) (A)
                 (A) (A) (A) (A) (A) (A) (A) (A) (A) (A) (A) (A)
                 (A) (A) (A) (A) (A) (A) (A) (A) (A) (A) (A) (A)
                 (A) (A) (A) (A) (A) (A) (A) (A) (A) (A) (A) (A)
                 (A) (A) (A) (A) (A) (A) (A) (A) (A) (A) (A) (A)
                 (A) (A) (A) (A) (A) (A) (A) (A) (A) (A) (A) (A)
                 (A) (A) (A) (A) (A) (A) (A) (A) (A) (A) (A) (A)
                 (A) (A) (A) (A) (A) (A) (A) (A) (A) (A) (A) (A)
                 (A) (A) (A) (A) (A) (A) (A) (A) (A) (A) (A) (A)
                 (A) (A) (A) (A) (A) (A) (A) (A) (A) (A) (A) (A)
                 (A) (A) (A) (A) (A) (A) (A) (A) (A) (A) (A) (A)
                 (A) (A) (A) (A) (A) (A) (A) (A) (A) (A)
       Virtual   (A) (A) (A) (A) (A) (A) (A) (A) (A) (A) (A) (A)
                 (A) (A) (A) (A) (A) (A) (A) (A) (A) (A) (A) (A)
                 (A) (A) (A) (A) (A) (A) (A) (A) (A) (A) (A) (A)
                 (A) (A) (A) (A) (A) (A) (A) (A) (A) (A) (A) (A)
                 (A) (A) (A) (A) (A) (A) (A) (A) (A) (A) (A) (A)
                 (A) (A) (A) (A) (A) (A) (A) (A) (A) (A) (A) (A)
                 (A) (A) (A) (A) (A) (A) (A) (A) (A) (A) (A) (A)
                 (A) (A) (A) (A) (A) (A) (A) (A) (A) (A) (A) (A)
                 (A) (A) (A) (A) (A) (A) (A) (A) (A) (A) (A) (A)
                 (A) (A) (A) (A) (A) (A) (A) (A) (A) (A) (A) (A)
                 (A) (A) (A) (A) (A) (A) (A) (A) (A) (A) (A) (A)
                 (A) (A) (A) (A) (A) (A) (A) (A) (A) (A) (A) (A)
                 (A) (A) (A) (A) (A) (A) (A) (A) (A) (A) (A) (A)
                 (A) (A) (A) (A) (A) (A) (A) (A) (A) (A) (A) (A)
                 (A) (A) (A) (A) (A) (A) (A) (A) (A) (A) (A) (A)
                 (A) (A) (A) (A) (A) (A) (A) (A) (A) (A) (A) (A)
                 (A) (A) (A) (A) (A) (A) (A) (A) (A) (A) (A) (A)
                 (A) (A) (A) (A) (A) (A) (A) (A) (A) (A) (A) (A)
                 (A) (A) (A) (A) (A) (A) (A) (A) (A) (A) (A) (A)
                 (A) (A) (A) (A) (A) (A) (A) (A) (A) (A) (A) (A)
                 (A) (A) (A) (A) (A) (A) (A) (A) (A) (A) (A) (A)
                 (A) (A) (A) (A) (A) (A) (A) (A) (A) (A) (A) (A)
                 (A) (A) (A) (A) (A) (A) (A) (A) (A) (A) (A) (A)
                 (A) (A) (A) (A) (A) (A) (A) (A) (A) (A) (A) (A)
                 (A) (A) (A) (A) (A) (A) (A) (A) (A) (A) (A) (A)
                 (A) (A) (A) (A) (A) (A) (A) (A) (A) (A) (A) (A)
                 (A) (A) (A) (A) (A) (A) (A) (A) (A) (A) (A) (A)
                 (A) (A) (A) (A) (A) (A) (A) (A) (A) (A) (A) (A)
                 (A) (A) (A) (A) (A) (A) (A) (A) (A) (A) (A) (A)
                 (A) (A) (A) (A) (A) (A) (A) (A) (A) (A) (A) (A)
                 (A) (A) (A) (A) (A) (A) (A) (A) (A) (A) (A) (A)
                 (A) (A) (A) (A) (A) (A) (A) (A) (A) (A) (A) (A)
                 (A) (A) (A) (A) (A) (A) (A) (A) (A) (A) (A) (A)
                 (A) (A) (A) (A) (A) (A) (A) (A) (A) (A) (A) (A)
                 (A) (A) (A) (A) (A) (A) (A) (A) (A) (A) (A) (A)
                 (A) (A) (A) (A) (A) (A) (A) (A) (A) (A) (A) (A)
                 (A) (A) (A) (A) (A) (A) (A) (A) (A) (A) (A) (A)
                 (A) (A) (A) (A) (A) (A) (A) (A) (A) (A) (A) (A)
                 (A) (A) (A) (A) (A) (A) (A) (A) (A) (A) (A) (A)
                 (A) (A) (A) (A) (A) (A) (A) (A) (A) (A) (A) (A)
                 (A) (A) (A) (A) (A) (A) (A) (A) (A) (A) (A) (A)
                 (A) (A) (A) (A) (A) (A) (A) (A) (A) (A) (A) (A)
                 (A) (A) (A) (A) (A) (A) (A) (A) (A) (A) (A) (A)
                 (A) (A) (A) (A) (A) (A) (A) (A) (A) (A) (A) (A)
                 (A) (A) (A) (A) (A) (A) (A) (A) (A) (A) (A) (A)
                 (A) (A) (A) (A) (A) (A) (A) (A) (A) (A) (A) (A)
                 (A) (A) (A) (A) (A) (A) (A) (A) (A) (A) (A) (A)
                 (A) (A) (A) (A) (A) (A) (A) (A) (A) (A) (A) (A)
                 (A) (A) (A) (A) (A) (A) (A)
 The electronic state is 1-A.
 Alpha  occ. eigenvalues --  -19.25968 -19.22068 -19.20619 -14.52443 -14.51725
 Alpha  occ. eigenvalues --  -14.49182 -14.48623 -14.47928 -14.46943 -14.46770
 Alpha  occ. eigenvalues --  -14.46634 -14.44771 -14.43215 -14.43068 -14.42492
 Alpha  occ. eigenvalues --  -14.42042 -14.41802 -14.41393 -14.40716 -14.40527
 Alpha  occ. eigenvalues --  -10.45562 -10.41124 -10.40192 -10.38865 -10.38182
 Alpha  occ. eigenvalues --  -10.37797 -10.37322 -10.36288 -10.35776 -10.35464
 Alpha  occ. eigenvalues --  -10.34839 -10.34462 -10.34288 -10.33776 -10.33685
 Alpha  occ. eigenvalues --  -10.33517 -10.33165 -10.31681 -10.31357 -10.31066
 Alpha  occ. eigenvalues --  -10.30584 -10.28925 -10.28052  -1.19517  -1.14406
 Alpha  occ. eigenvalues --   -1.13199  -1.13095  -1.11758  -1.10493  -1.09338
 Alpha  occ. eigenvalues --   -1.08532  -1.08192  -1.05365  -1.03757  -1.02556
 Alpha  occ. eigenvalues --   -1.00801  -1.00234  -0.99721  -0.98500  -0.97342
 Alpha  occ. eigenvalues --   -0.96445  -0.95784  -0.93016  -0.91056  -0.86871
 Alpha  occ. eigenvalues --   -0.85350  -0.84340  -0.83998  -0.83765  -0.82700
 Alpha  occ. eigenvalues --   -0.82318  -0.78888  -0.76159  -0.74553  -0.73902
 Alpha  occ. eigenvalues --   -0.73633  -0.73408  -0.73268  -0.71455  -0.69556
 Alpha  occ. eigenvalues --   -0.67340  -0.66674  -0.66583  -0.65894  -0.64473
 Alpha  occ. eigenvalues --   -0.63717  -0.63444  -0.63035  -0.62673  -0.61688
 Alpha  occ. eigenvalues --   -0.60578  -0.60158  -0.59709  -0.59516  -0.58926
 Alpha  occ. eigenvalues --   -0.58769  -0.58318  -0.56930  -0.56835  -0.56506
 Alpha  occ. eigenvalues --   -0.56024  -0.55722  -0.54867  -0.54582  -0.54392
 Alpha  occ. eigenvalues --   -0.53647  -0.53596  -0.52953  -0.52853  -0.52583
 Alpha  occ. eigenvalues --   -0.52549  -0.52123  -0.52000  -0.51168  -0.50571
 Alpha  occ. eigenvalues --   -0.50096  -0.49535  -0.49466  -0.48955  -0.48767
 Alpha  occ. eigenvalues --   -0.48748  -0.48234  -0.47977  -0.47634  -0.47397
 Alpha  occ. eigenvalues --   -0.47340  -0.45529  -0.45316  -0.44024  -0.43580
 Alpha  occ. eigenvalues --   -0.41591  -0.39996  -0.39521  -0.37588  -0.37308
 Alpha  occ. eigenvalues --   -0.37220  -0.36851  -0.36565  -0.35896  -0.34165
 Alpha  occ. eigenvalues --   -0.34059  -0.33848  -0.33628  -0.33260  -0.33106
 Alpha  occ. eigenvalues --   -0.32660  -0.32242  -0.32003  -0.31799  -0.31342
 Alpha  occ. eigenvalues --   -0.30764  -0.28832  -0.26150  -0.25394
 Alpha virt. eigenvalues --    0.03032   0.04866   0.07574   0.07725   0.08918
 Alpha virt. eigenvalues --    0.09121   0.09630   0.10523   0.10979   0.11428
 Alpha virt. eigenvalues --    0.12904   0.13802   0.14432   0.14684   0.14941
 Alpha virt. eigenvalues --    0.15926   0.16231   0.16847   0.17064   0.18174
 Alpha virt. eigenvalues --    0.18654   0.19245   0.19628   0.20160   0.20313
 Alpha virt. eigenvalues --    0.20617   0.21309   0.21571   0.21792   0.22180
 Alpha virt. eigenvalues --    0.23047   0.23103   0.23441   0.23683   0.23837
 Alpha virt. eigenvalues --    0.24023   0.24142   0.24251   0.24887   0.25445
 Alpha virt. eigenvalues --    0.26111   0.26636   0.26885   0.27096   0.28102
 Alpha virt. eigenvalues --    0.28647   0.29336   0.29702   0.30438   0.30876
 Alpha virt. eigenvalues --    0.31157   0.32208   0.32747   0.33089   0.33630
 Alpha virt. eigenvalues --    0.33703   0.34610   0.34800   0.35804   0.36339
 Alpha virt. eigenvalues --    0.36762   0.37546   0.37883   0.39371   0.39572
 Alpha virt. eigenvalues --    0.40131   0.40510   0.41396   0.41495   0.41731
 Alpha virt. eigenvalues --    0.42221   0.42379   0.43189   0.44033   0.44620
 Alpha virt. eigenvalues --    0.44921   0.45468   0.46087   0.46331   0.47166
 Alpha virt. eigenvalues --    0.47660   0.48021   0.48865   0.49162   0.49436
 Alpha virt. eigenvalues --    0.49860   0.50179   0.50544   0.50650   0.51299
 Alpha virt. eigenvalues --    0.51405   0.51822   0.52324   0.53037   0.53634
 Alpha virt. eigenvalues --    0.54063   0.54594   0.54670   0.54847   0.55541
 Alpha virt. eigenvalues --    0.55983   0.56256   0.56763   0.57076   0.57353
 Alpha virt. eigenvalues --    0.57469   0.58169   0.59021   0.59159   0.59739
 Alpha virt. eigenvalues --    0.60170   0.60399   0.60725   0.61137   0.61368
 Alpha virt. eigenvalues --    0.61802   0.62107   0.63042   0.63461   0.63739
 Alpha virt. eigenvalues --    0.64055   0.64559   0.64939   0.64966   0.65441
 Alpha virt. eigenvalues --    0.65739   0.66052   0.66637   0.67039   0.67267
 Alpha virt. eigenvalues --    0.67699   0.68250   0.68769   0.69364   0.69518
 Alpha virt. eigenvalues --    0.70180   0.70768   0.71294   0.71557   0.71990
 Alpha virt. eigenvalues --    0.72152   0.72536   0.73236   0.73325   0.73789
 Alpha virt. eigenvalues --    0.74047   0.74309   0.74456   0.74926   0.75204
 Alpha virt. eigenvalues --    0.75860   0.76278   0.76512   0.76636   0.76861
 Alpha virt. eigenvalues --    0.77098   0.77541   0.77911   0.78423   0.78769
 Alpha virt. eigenvalues --    0.79263   0.79511   0.79608   0.80254   0.80663
 Alpha virt. eigenvalues --    0.81399   0.81778   0.82360   0.83175   0.83505
 Alpha virt. eigenvalues --    0.83707   0.84033   0.84368   0.85072   0.85478
 Alpha virt. eigenvalues --    0.85902   0.86190   0.86578   0.87042   0.87964
 Alpha virt. eigenvalues --    0.88279   0.88374   0.88921   0.89170   0.90129
 Alpha virt. eigenvalues --    0.90333   0.90909   0.91111   0.91533   0.92200
 Alpha virt. eigenvalues --    0.92959   0.93174   0.93568   0.93998   0.94369
 Alpha virt. eigenvalues --    0.95113   0.95674   0.95904   0.96312   0.96696
 Alpha virt. eigenvalues --    0.97177   0.97332   0.97849   0.98211   0.98837
 Alpha virt. eigenvalues --    0.98935   0.99448   1.00392   1.00902   1.01578
 Alpha virt. eigenvalues --    1.01798   1.02318   1.02730   1.02754   1.03426
 Alpha virt. eigenvalues --    1.03786   1.03990   1.04593   1.05285   1.05892
 Alpha virt. eigenvalues --    1.06035   1.06559   1.07386   1.07683   1.07916
 Alpha virt. eigenvalues --    1.08228   1.09120   1.10289   1.11013   1.11617
 Alpha virt. eigenvalues --    1.11919   1.12652   1.13085   1.13316   1.13589
 Alpha virt. eigenvalues --    1.13999   1.14395   1.14668   1.15158   1.15441
 Alpha virt. eigenvalues --    1.16138   1.16268   1.16939   1.18041   1.18454
 Alpha virt. eigenvalues --    1.18893   1.19181   1.19615   1.19806   1.20214
 Alpha virt. eigenvalues --    1.20681   1.20921   1.21291   1.21423   1.21788
 Alpha virt. eigenvalues --    1.21990   1.22400   1.23125   1.23349   1.23580
 Alpha virt. eigenvalues --    1.23650   1.24123   1.24253   1.24970   1.25553
 Alpha virt. eigenvalues --    1.26082   1.26563   1.27068   1.27430   1.28349
 Alpha virt. eigenvalues --    1.28522   1.29214   1.30037   1.30693   1.30913
 Alpha virt. eigenvalues --    1.31894   1.32889   1.33092   1.33414   1.33969
 Alpha virt. eigenvalues --    1.34795   1.35381   1.35702   1.37122   1.37873
 Alpha virt. eigenvalues --    1.38242   1.38816   1.39365   1.39898   1.40084
 Alpha virt. eigenvalues --    1.41392   1.42421   1.43035   1.43911   1.44778
 Alpha virt. eigenvalues --    1.45534   1.45950   1.46465   1.48023   1.48481
 Alpha virt. eigenvalues --    1.48761   1.48779   1.49420   1.50137   1.50480
 Alpha virt. eigenvalues --    1.51149   1.52512   1.52957   1.53326   1.54133
 Alpha virt. eigenvalues --    1.54792   1.55721   1.56085   1.56559   1.57403
 Alpha virt. eigenvalues --    1.58472   1.58920   1.59383   1.60328   1.61404
 Alpha virt. eigenvalues --    1.61764   1.62394   1.62705   1.63397   1.63556
 Alpha virt. eigenvalues --    1.64852   1.65587   1.66310   1.66662   1.66965
 Alpha virt. eigenvalues --    1.67757   1.68055   1.68336   1.68890   1.69959
 Alpha virt. eigenvalues --    1.70095   1.70696   1.70950   1.71406   1.71985
 Alpha virt. eigenvalues --    1.72251   1.72503   1.72809   1.73508   1.73945
 Alpha virt. eigenvalues --    1.74392   1.74594   1.74884   1.75153   1.75642
 Alpha virt. eigenvalues --    1.75904   1.76021   1.76692   1.77116   1.77449
 Alpha virt. eigenvalues --    1.77832   1.78142   1.78418   1.78855   1.79377
 Alpha virt. eigenvalues --    1.79721   1.79915   1.80026   1.80334   1.80619
 Alpha virt. eigenvalues --    1.81199   1.81587   1.82007   1.82370   1.82433
 Alpha virt. eigenvalues --    1.83008   1.83595   1.83826   1.83929   1.84450
 Alpha virt. eigenvalues --    1.84921   1.85966   1.86152   1.86782   1.87386
 Alpha virt. eigenvalues --    1.87482   1.87916   1.88162   1.88918   1.89449
 Alpha virt. eigenvalues --    1.90061   1.90300   1.90971   1.91340   1.91769
 Alpha virt. eigenvalues --    1.91971   1.92511   1.93075   1.93486   1.94113
 Alpha virt. eigenvalues --    1.94312   1.95594   1.96013   1.96874   1.97758
 Alpha virt. eigenvalues --    1.98073   1.99669   2.00441   2.00661   2.01074
 Alpha virt. eigenvalues --    2.01870   2.02331   2.02698   2.03956   2.04708
 Alpha virt. eigenvalues --    2.04988   2.05057   2.06424   2.06675   2.07102
 Alpha virt. eigenvalues --    2.07519   2.08720   2.09175   2.09328   2.09865
 Alpha virt. eigenvalues --    2.10609   2.11296   2.11429   2.12710   2.13055
 Alpha virt. eigenvalues --    2.13955   2.14950   2.15694   2.17676   2.18386
 Alpha virt. eigenvalues --    2.18677   2.19837   2.20767   2.21242   2.21450
 Alpha virt. eigenvalues --    2.21562   2.21994   2.22858   2.23330   2.23758
 Alpha virt. eigenvalues --    2.24291   2.25050   2.26012   2.26436   2.26572
 Alpha virt. eigenvalues --    2.27261   2.27787   2.28903   2.29465   2.29816
 Alpha virt. eigenvalues --    2.29877   2.30481   2.31506   2.31913   2.32792
 Alpha virt. eigenvalues --    2.33473   2.33877   2.34096   2.34532   2.34958
 Alpha virt. eigenvalues --    2.35582   2.35808   2.36424   2.37400   2.37823
 Alpha virt. eigenvalues --    2.38056   2.39662   2.40551   2.40762   2.41308
 Alpha virt. eigenvalues --    2.41487   2.42076   2.42996   2.43354   2.43796
 Alpha virt. eigenvalues --    2.45453   2.45719   2.46124   2.46476   2.46967
 Alpha virt. eigenvalues --    2.47390   2.48053   2.49150   2.50116   2.51842
 Alpha virt. eigenvalues --    2.52294   2.53833   2.54879   2.55300   2.55698
 Alpha virt. eigenvalues --    2.56765   2.57360   2.57510   2.58955   2.59529
 Alpha virt. eigenvalues --    2.61194   2.61684   2.61837   2.62361   2.63926
 Alpha virt. eigenvalues --    2.64258   2.64569   2.65357   2.65618   2.66464
 Alpha virt. eigenvalues --    2.66860   2.67651   2.68567   2.69254   2.69363
 Alpha virt. eigenvalues --    2.70054   2.71029   2.71229   2.71850   2.72142
 Alpha virt. eigenvalues --    2.73583   2.74235   2.75075   2.75403   2.75962
 Alpha virt. eigenvalues --    2.77519   2.78392   2.79298   2.79649   2.79842
 Alpha virt. eigenvalues --    2.79977   2.80279   2.80623   2.81556   2.81867
 Alpha virt. eigenvalues --    2.82445   2.82737   2.82946   2.83460   2.84126
 Alpha virt. eigenvalues --    2.84873   2.85097   2.86309   2.86953   2.87061
 Alpha virt. eigenvalues --    2.88248   2.88572   2.89276   2.92113   2.93239
 Alpha virt. eigenvalues --    2.94610   2.96402   2.96755   2.98491   2.99045
 Alpha virt. eigenvalues --    3.00153   3.01524   3.02915   3.04897   3.06301
 Alpha virt. eigenvalues --    3.06915   3.09809   3.11156   3.13643   3.14829
 Alpha virt. eigenvalues --    3.15352   3.15801   3.16625   3.18067   3.20182
 Alpha virt. eigenvalues --    3.21997   3.23535   3.23910   3.24019   3.26934
 Alpha virt. eigenvalues --    3.45545   3.47143   3.47969   3.49746   3.50255
 Alpha virt. eigenvalues --    3.53074   3.54268   3.56404   3.58136   3.60100
 Alpha virt. eigenvalues --    3.63011   3.70800   3.74712
          Condensed to atoms (all electrons):
 Mulliken charges:
               1
     1  N   -0.311793
     2  C    0.180437
     3  C    0.046552
     4  N   -0.257790
     5  C    0.133138
     6  H    0.027573
     7  N   -0.283830
     8  C    0.127658
     9  H    0.013224
    10  N   -0.290868
    11  C    0.232989
    12  C    0.113139
    13  N   -0.049405
    14  H    0.109003
    15  H    0.089233
    16  H    0.026820
    17  H    0.033687
    18  H    0.025663
    19  N   -0.305773
    20  C    0.246630
    21  C    0.179753
    22  N   -0.104578
    23  H    0.110831
    24  H    0.115259
    25  N   -0.299587
    26  C    0.226282
    27  N   -0.126053
    28  H    0.116101
    29  C    0.147852
    30  O   -0.320252
    31  C    0.011928
    32  N   -0.223413
    33  C    0.124592
    34  H    0.026150
    35  H    0.030833
    36  H    0.026963
    37  H    0.023054
    38  H    0.057029
    39  H    0.062478
    40  H    0.070404
    41  H    0.029699
    42  C   -0.115138
    43  O   -0.270786
    44  C    0.169823
    45  H    0.136506
    46  N   -0.130719
    47  O   -0.349445
    48  C    0.355480
    49  H    0.047606
    50  C    0.182219
    51  C    0.040027
    52  N   -0.287298
    53  H    0.035002
    54  H    0.035011
    55  H    0.022654
    56  H    0.124678
    57  H    0.116888
    58  N   -0.057567
    59  C    0.110265
    60  C    0.238095
    61  N   -0.270294
    62  H    0.043293
    63  C    0.165840
    64  N   -0.300700
    65  H    0.031057
    66  C    0.123092
    67  N   -0.259051
    68  C    0.005541
    69  C    0.175055
    70  N   -0.308742
 Sum of Mulliken charges =  -0.00000
 Mulliken charges with hydrogens summed into heavy atoms:
               1
     1  N   -0.311793
     2  C    0.266607
     3  C    0.046552
     4  N   -0.257790
     5  C    0.160711
     7  N   -0.283830
     8  C    0.140881
    10  N   -0.290868
    11  C    0.232989
    12  C    0.113139
    13  N    0.148830
    19  N   -0.305773
    20  C    0.246630
    21  C    0.260602
    22  N    0.121512
    25  N   -0.299587
    26  C    0.226282
    27  N   -0.009952
    29  C    0.147852
    30  O   -0.320252
    31  C    0.011928
    32  N   -0.223413
    33  C    0.150742
    42  C   -0.085440
    43  O   -0.270786
    44  C    0.169823
    46  N    0.005787
    47  O   -0.349445
    48  C    0.355480
    50  C    0.229825
    51  C    0.229937
    52  N   -0.287298
    58  N    0.183999
    59  C    0.110265
    60  C    0.238095
    61  N   -0.270294
    63  C    0.209133
    64  N   -0.300700
    66  C    0.154150
    67  N   -0.259051
    68  C    0.005541
    69  C    0.267721
    70  N   -0.308742
 Electronic spatial extent (au):  <R**2>=          23046.7741
 Charge=             -0.0000 electrons
 Dipole moment (field-independent basis, Debye):
    X=              6.9274    Y=              6.0940    Z=              2.8659  Tot=              9.6612
 Quadrupole moment (field-independent basis, Debye-Ang):
   XX=           -144.0389   YY=           -224.3409   ZZ=           -254.6206
   XY=              8.6177   XZ=             11.1838   YZ=             -7.7993
 Traceless Quadrupole moment (field-independent basis, Debye-Ang):
   XX=             63.6279   YY=            -16.6741   ZZ=            -46.9538
   XY=              8.6177   XZ=             11.1838   YZ=             -7.7993
 Octapole moment (field-independent basis, Debye-Ang**2):
  XXX=             -8.9780  YYY=             98.6675  ZZZ=             11.5737  XYY=             54.8690
  XXY=              4.2818  XXZ=            -55.4584  XZZ=             31.4669  YZZ=             42.6080
  YYZ=             52.7901  XYZ=             47.4569
 Hexadecapole moment (field-independent basis, Debye-Ang**3):
 XXXX=         -15588.7300 YYYY=          -5070.0946 ZZZZ=          -3388.5808 XXXY=            485.2380
 XXXZ=             85.2053 YYYX=             32.8341 YYYZ=            -91.8437 ZZZX=             68.6890
 ZZZY=             37.2493 XXYY=          -3995.3486 XXZZ=          -4094.7692 YYZZ=          -1465.2984
 XXYZ=             94.5976 YYXZ=            205.9141 ZZXY=             82.9734
 N-N= 5.501277823142D+03 E-N=-1.578342113089D+04  KE= 2.037729343192D+03
 No NMR shielding tensors so no spin-rotation constants.
 Leave Link  601 at Sun Jan 21 23:38:56 2018, MaxMem=  4294967296 cpu:              46.2 elap:               1.6
 (Enter /share/apps/g16/l9999.exe)
 1\1\GINC-COMPUTE-0-3\SP\RwB97XD\CC-pVDZ\C23H27N17O3\SATYA\21-Jan-2018\
 0\\#p wb97xd/cc-pvdz sp scf=(maxcycles=20)\\Base pair stacking\\0,1\N,
 0,6.5322,5.57352,-6.47105\C,0,7.23992,6.8645,-6.57363\C,0,4.96789,4.03
 025,-6.37851\N,0,6.17856,3.36329,-6.25948\C,0,7.07255,4.31975,-6.32\H,
 0,8.15029,4.16581,-6.25909\N,0,2.66217,4.50516,-6.52372\C,0,3.01195,5.
 79028,-6.6407\H,0,2.18388,6.48976,-6.74702\N,0,4.22533,6.33852,-6.6460
 3\C,0,5.16986,5.39317,-6.50964\C,0,3.63572,3.5784,-6.38803\N,0,3.28857
 ,2.29505,-6.27112\H,0,3.97589,1.57513,-6.1686\H,0,2.33015,2.00962,-6.2
 8203\H,0,7.84767,6.85083,-7.36775\H,0,6.57435,7.60303,-6.67715\H,0,7.7
 7945,7.01793,-5.74576\N,0,2.05379,6.1001,-3.26456\C,0,1.04627,5.16578,
 -3.26328\C,0,1.86296,7.56124,-3.36129\N,0,-2.33619,4.38963,-3.39872\H,
 0,-2.90583,3.5684,-3.38065\H,0,-2.80869,5.26796,-3.47605\N,0,-0.27669,
 5.42348,-3.34948\C,0,-0.99869,4.31731,-3.32272\N,0,-0.46768,3.05443,-3
 .21948\H,0,-1.09598,2.26574,-3.20649\C,0,0.89042,2.76573,-3.12957\O,0,
 1.26545,1.59012,-3.03986\C,0,1.67877,3.94413,-3.15705\N,0,3.05568,4.10
 818,-3.09292\C,0,3.23094,5.40007,-3.16\H,0,4.20138,5.89707,-3.13738\H,
 0,2.3285,7.9067,-4.17537\H,0,0.88678,7.7642,-3.42565\H,0,2.24127,8.003
 ,-2.54856\H,0,-4.70444,-1.25957,-3.84208\H,0,-4.61454,-1.36967,-2.0858
 2\H,0,-4.30012,0.16879,-2.88935\H,0,-0.71416,-3.89771,-3.32784\C,0,-1.
 03209,-2.85823,-3.2464\O,0,1.17342,-1.98678,-3.30466\C,0,-0.04423,-1.8
 2297,-3.23206\H,0,0.11421,0.21392,-3.11248\N,0,-0.55328,-0.54437,-3.12
 585\O,0,-2.22883,0.97778,-2.94466\C,0,-1.87462,-0.18451,-3.03565\H,0,-
 3.11885,-3.28821,-3.16654\C,0,-2.32863,-2.53864,-3.16\C,0,-4.18996,-0.
 90298,-2.96218\N,0,-2.76651,-1.2387,-3.05609\H,0,-5.07308,2.85169,-6.8
 6174\H,0,-4.04045,3.67206,-5.90113\H,0,-5.12258,2.64185,-5.24405\H,0,1
 .34841,-0.82711,-6.31721\H,0,-0.15751,-1.61482,-6.46493\N,0,0.3507,-0.
 76208,-6.33931\C,0,-0.27524,0.40922,-6.20724\C,0,-2.17671,1.83411,-6.0
 8142\N,0,-1.46847,2.96317,-5.91402\H,0,0.48648,3.56313,-5.77681\C,0,-0
 .16343,2.69907,-5.90822\N,0,0.46545,1.52663,-6.04035\H,0,-4.80518,-0.0
 209,-6.40123\C,0,-3.78972,0.36792,-6.32\N,0,-2.70433,-0.36411,-6.38132
 \C,0,-1.67439,0.55321,-6.23142\C,0,-4.5233,2.80605,-6.02768\N,0,-3.544
 39,1.70732,-6.1396\\Version=EM64L-G16RevA.03\State=1-A\HF=-2048.745989
 9\RMSD=6.614e-09\Dipole=-3.7837781,0.2723959,-0.2374747\Quadrupole=29.
 4091373,2.8775263,-32.2866637,29.1449964,-10.848338,4.8957064\PG=C01 [
 X(C23H27N17O3)]\\@


 ALMOST ALL THE CHEMICAL PROCESSES WHICH OCCUR IN NATURE,
 WHETHER IN ANIMAL OR VEGETABLE ORGANISMS,
 OR IN THE NON-LIVING SURFACE OF THE EARTH ... 
 TAKE PLACE BETWEEN SUBSTANCES IN SOLUTION

                                    -- W. OSTWALD, 1890
 Job cpu time:       0 days  6 hours  2 minutes  6.0 seconds.
 Elapsed time:       0 days  0 hours 11 minutes 40.7 seconds.
 File lengths (MBytes):  RWF=    298 Int=      0 D2E=      0 Chk=     33 Scr=      1
 Normal termination of Gaussian 16 at Sun Jan 21 23:38:57 2018.
