 Entering Gaussian System, Link 0=g16
 Input=str35.5.-2.0.com
 Output=str35.5.-2.0.log
 Initial command:
 /share/apps/g16/l1.exe "/state/partition1/scr/Gau-14034.inp" -scrdir="/state/partition1/scr/"
 Entering Link 1 = /share/apps/g16/l1.exe PID=     14035.
  
 Copyright (c) 1988,1990,1992,1993,1995,1998,2003,2009,2016,
            Gaussian, Inc.  All Rights Reserved.
  
 This is part of the Gaussian(R) 16 program.  It is based on
 the Gaussian(R) 09 system (copyright 2009, Gaussian, Inc.),
 the Gaussian(R) 03 system (copyright 2003, Gaussian, Inc.),
 the Gaussian(R) 98 system (copyright 1998, Gaussian, Inc.),
 the Gaussian(R) 94 system (copyright 1995, Gaussian, Inc.),
 the Gaussian 92(TM) system (copyright 1992, Gaussian, Inc.),
 the Gaussian 90(TM) system (copyright 1990, Gaussian, Inc.),
 the Gaussian 88(TM) system (copyright 1988, Gaussian, Inc.),
 the Gaussian 86(TM) system (copyright 1986, Carnegie Mellon
 University), and the Gaussian 82(TM) system (copyright 1983,
 Carnegie Mellon University). Gaussian is a federally registered
 trademark of Gaussian, Inc.
  
 This software contains proprietary and confidential information,
 including trade secrets, belonging to Gaussian, Inc.
  
 This software is provided under written license and may be
 used, copied, transmitted, or stored only in accord with that
 written license.
  
 The following legend is applicable only to US Government
 contracts under FAR:
  
                    RESTRICTED RIGHTS LEGEND
  
 Use, reproduction and disclosure by the US Government is
 subject to restrictions as set forth in subparagraphs (a)
 and (c) of the Commercial Computer Software - Restricted
 Rights clause in FAR 52.227-19.
  
 Gaussian, Inc.
 340 Quinnipiac St., Bldg. 40, Wallingford CT 06492
  
  
 ---------------------------------------------------------------
 Warning -- This program may not be used in any manner that
 competes with the business of Gaussian, Inc. or will provide
 assistance to any competitor of Gaussian, Inc.  The licensee
 of this program is prohibited from giving any competitor of
 Gaussian, Inc. access to this program.  By using this program,
 the user acknowledges that Gaussian, Inc. is engaged in the
 business of creating and licensing software in the field of
 computational chemistry and represents and warrants to the
 licensee that it is not a competitor of Gaussian, Inc. and that
 it will not use this program in any manner prohibited above.
 ---------------------------------------------------------------
  

 Cite this work as:
 Gaussian 16, Revision A.03,
 M. J. Frisch, G. W. Trucks, H. B. Schlegel, G. E. Scuseria, 
 M. A. Robb, J. R. Cheeseman, G. Scalmani, V. Barone, 
 G. A. Petersson, H. Nakatsuji, X. Li, M. Caricato, A. V. Marenich, 
 J. Bloino, B. G. Janesko, R. Gomperts, B. Mennucci, H. P. Hratchian, 
 J. V. Ortiz, A. F. Izmaylov, J. L. Sonnenberg, D. Williams-Young, 
 F. Ding, F. Lipparini, F. Egidi, J. Goings, B. Peng, A. Petrone, 
 T. Henderson, D. Ranasinghe, V. G. Zakrzewski, J. Gao, N. Rega, 
 G. Zheng, W. Liang, M. Hada, M. Ehara, K. Toyota, R. Fukuda, 
 J. Hasegawa, M. Ishida, T. Nakajima, Y. Honda, O. Kitao, H. Nakai, 
 T. Vreven, K. Throssell, J. A. Montgomery, Jr., J. E. Peralta, 
 F. Ogliaro, M. J. Bearpark, J. J. Heyd, E. N. Brothers, K. N. Kudin, 
 V. N. Staroverov, T. A. Keith, R. Kobayashi, J. Normand, 
 K. Raghavachari, A. P. Rendell, J. C. Burant, S. S. Iyengar, 
 J. Tomasi, M. Cossi, J. M. Millam, M. Klene, C. Adamo, R. Cammi, 
 J. W. Ochterski, R. L. Martin, K. Morokuma, O. Farkas, 
 J. B. Foresman, and D. J. Fox, Gaussian, Inc., Wallingford CT, 2016.
 
 ******************************************
 Gaussian 16:  EM64L-G16RevA.03 25-Dec-2016
                22-Jan-2018 
 ******************************************
 %nprocshared=32
 Will use up to   32 processors via shared memory.
 %mem=32GB
 %chk=allatoms_t.chk
 ---------------------------------------
 #p wb97xd/cc-pvdz sp scf=(maxcycles=20)
 ---------------------------------------
 1/38=1,172=1/1;
 2/12=2,17=6,18=5,40=1/2;
 3/5=16,11=2,25=1,30=1,74=-58/1,2,3;
 4//1;
 5/5=2,7=20,38=5/2;
 6/7=2,8=2,9=2,10=2,28=1/1;
 99/5=1,9=1/99;
 Leave Link    1 at Mon Jan 22 16:40:25 2018, MaxMem=  4294967296 cpu:               2.7 elap:               0.1
 (Enter /share/apps/g16/l101.exe)
 ------------------
 Base pair stacking
 ------------------
 Symbolic Z-matrix:
 Charge =  0 Multiplicity = 1
 N                     7.57782   6.18195  -5.95359 
 C                     8.30444   7.46026  -6.07988 
 C                     6.00083   4.64911  -5.92516 
 N                     7.17999   3.99902  -5.59097 
 C                     8.08288   4.94852  -5.62147 
 H                     9.14234   4.8037   -5.40813 
 N                     3.73746   5.10254  -6.40943 
 C                     4.11094   6.37274  -6.59568 
 H                     3.30982   7.05741  -6.87082 
 N                     5.31976   6.92158  -6.49357 
 C                     6.23027   5.99508  -6.15151 
 C                     4.67701   4.19458  -6.06599 
 N                     4.30615   2.92616  -5.87963 
 H                     4.968     2.22038  -5.6246 
 H                     3.35462   2.63827  -5.98853 
 H                     9.00938   7.37636  -6.78429 
 H                     7.66444   8.18453  -6.33476 
 H                     8.73405   7.68957  -5.20647 
 N                     2.35109   6.57177  -3.22474 
 C                     1.34516   5.63736  -3.27986 
 C                     2.17078   8.02996  -3.37262 
 N                    -2.01721   4.85668  -3.66296 
 H                    -2.58779   4.03593  -3.66954 
 H                    -2.48075   5.73262  -3.79927 
 N                     0.03356   5.89229  -3.47679 
 C                    -0.69002   4.78683  -3.47965 
 N                    -0.17081   3.52714  -3.30332 
 H                    -0.79941   2.73876  -3.32041 
 C                     1.17548   3.24133  -3.09913 
 O                     1.5404    2.06848  -2.9508 
 C                     1.96538   4.419    -3.09354 
 N                     3.33316   4.58517  -2.92484 
 C                     3.51519   5.87506  -3.01001 
 H                     4.48158   6.37287  -2.92312 
 H                     2.69978   8.35518  -4.15569 
 H                     1.20307   8.23085  -3.51901 
 H                     2.48435   8.49202  -2.54377 
 H                    -4.35183  -0.8028   -4.15133 
 H                    -4.40123  -0.86899  -2.39127 
 H                    -4.02187   0.64906  -3.20549 
 H                    -0.41883  -3.42565  -3.2576 
 C                    -0.74058  -2.38459  -3.22748 
 O                     1.464    -1.51395  -3.13285 
 C                     0.24467  -1.34889  -3.16087 
 H                     0.39636   0.69042  -3.07991 
 N                    -0.26918  -0.06824  -3.12713 
 O                    -1.95142   1.45727  -3.11697 
 C                    -1.59294   0.29321  -3.15069 
 H                    -2.82778  -2.81329  -3.3022 
 C                    -2.03938  -2.06347  -3.25187 
 C                    -3.90797  -0.42415  -3.24266 
 N                    -2.48207  -0.76153  -3.21532 
 H                    -3.90415   3.40393  -7.59387 
 H                    -2.9967    4.31082  -6.5858 
 H                    -4.16376   3.34142  -5.98386 
 H                     2.36014  -0.19267  -5.89423 
 H                     0.87883  -0.99468  -6.16369 
 N                     1.37424  -0.13266  -6.05089 
 C                     0.74705   1.04405  -6.10705 
 C                    -1.14187   2.46923  -6.35713 
 N                    -0.45101   3.61077  -6.20214 
 H                     1.47523   4.22609  -5.86809 
 C                     0.83995   3.35188  -6.0039 
 N                     1.47005   2.17403  -5.94732 
 H                    -3.72372   0.58564  -6.84532 
 C                    -2.72376   0.98302  -6.66893 
 N                    -1.64616   0.25144  -6.52315 
 C                    -0.63594   1.1814   -6.32476 
 C                    -3.46696   3.43558  -6.69505 
 N                    -2.49171   2.33393  -6.57991 
 
 ITRead=  0  0  0  0  0  0  0  0  0  0  0  0  0  0  0  0  0  0  0  0
 ITRead=  0  0  0  0  0  0  0  0  0  0  0  0  0  0  0  0  0  0  0  0
 ITRead=  0  0  0  0  0  0  0  0  0  0  0  0  0  0  0  0  0  0  0  0
 ITRead=  0  0  0  0  0  0  0  0  0  0
 MicOpt= -1 -1 -1 -1 -1 -1 -1 -1 -1 -1 -1 -1 -1 -1 -1 -1 -1 -1 -1 -1
 MicOpt= -1 -1 -1 -1 -1 -1 -1 -1 -1 -1 -1 -1 -1 -1 -1 -1 -1 -1 -1 -1
 MicOpt= -1 -1 -1 -1 -1 -1 -1 -1 -1 -1 -1 -1 -1 -1 -1 -1 -1 -1 -1 -1
 MicOpt= -1 -1 -1 -1 -1 -1 -1 -1 -1 -1
 NAtoms=     70 NQM=       70 NQMF=       0 NMMI=      0 NMMIF=      0
                NMic=       0 NMicF=      0.
                    Isotopes and Nuclear Properties:
 (Nuclear quadrupole moments (NQMom) in fm**2, nuclear magnetic moments (NMagM)
  in nuclear magnetons)

  Atom         1           2           3           4           5           6           7           8           9          10
 IAtWgt=          14          12          12          14          12           1          14          12           1          14
 AtmWgt=  14.0030740  12.0000000  12.0000000  14.0030740  12.0000000   1.0078250  14.0030740  12.0000000   1.0078250  14.0030740
 NucSpn=           2           0           0           2           0           1           2           0           1           2
 AtZEff=  -0.0000000  -0.0000000  -0.0000000  -0.0000000  -0.0000000  -0.0000000  -0.0000000  -0.0000000  -0.0000000  -0.0000000
 NQMom=    2.0440000   0.0000000   0.0000000   2.0440000   0.0000000   0.0000000   2.0440000   0.0000000   0.0000000   2.0440000
 NMagM=    0.4037610   0.0000000   0.0000000   0.4037610   0.0000000   2.7928460   0.4037610   0.0000000   2.7928460   0.4037610
 AtZNuc=   7.0000000   6.0000000   6.0000000   7.0000000   6.0000000   1.0000000   7.0000000   6.0000000   1.0000000   7.0000000

  Atom        11          12          13          14          15          16          17          18          19          20
 IAtWgt=          12          12          14           1           1           1           1           1          14          12
 AtmWgt=  12.0000000  12.0000000  14.0030740   1.0078250   1.0078250   1.0078250   1.0078250   1.0078250  14.0030740  12.0000000
 NucSpn=           0           0           2           1           1           1           1           1           2           0
 AtZEff=  -0.0000000  -0.0000000  -0.0000000  -0.0000000  -0.0000000  -0.0000000  -0.0000000  -0.0000000  -0.0000000  -0.0000000
 NQMom=    0.0000000   0.0000000   2.0440000   0.0000000   0.0000000   0.0000000   0.0000000   0.0000000   2.0440000   0.0000000
 NMagM=    0.0000000   0.0000000   0.4037610   2.7928460   2.7928460   2.7928460   2.7928460   2.7928460   0.4037610   0.0000000
 AtZNuc=   6.0000000   6.0000000   7.0000000   1.0000000   1.0000000   1.0000000   1.0000000   1.0000000   7.0000000   6.0000000

  Atom        21          22          23          24          25          26          27          28          29          30
 IAtWgt=          12          14           1           1          14          12          14           1          12          16
 AtmWgt=  12.0000000  14.0030740   1.0078250   1.0078250  14.0030740  12.0000000  14.0030740   1.0078250  12.0000000  15.9949146
 NucSpn=           0           2           1           1           2           0           2           1           0           0
 AtZEff=  -0.0000000  -0.0000000  -0.0000000  -0.0000000  -0.0000000  -0.0000000  -0.0000000  -0.0000000  -0.0000000  -0.0000000
 NQMom=    0.0000000   2.0440000   0.0000000   0.0000000   2.0440000   0.0000000   2.0440000   0.0000000   0.0000000   0.0000000
 NMagM=    0.0000000   0.4037610   2.7928460   2.7928460   0.4037610   0.0000000   0.4037610   2.7928460   0.0000000   0.0000000
 AtZNuc=   6.0000000   7.0000000   1.0000000   1.0000000   7.0000000   6.0000000   7.0000000   1.0000000   6.0000000   8.0000000

  Atom        31          32          33          34          35          36          37          38          39          40
 IAtWgt=          12          14          12           1           1           1           1           1           1           1
 AtmWgt=  12.0000000  14.0030740  12.0000000   1.0078250   1.0078250   1.0078250   1.0078250   1.0078250   1.0078250   1.0078250
 NucSpn=           0           2           0           1           1           1           1           1           1           1
 AtZEff=  -0.0000000  -0.0000000  -0.0000000  -0.0000000  -0.0000000  -0.0000000  -0.0000000  -0.0000000  -0.0000000  -0.0000000
 NQMom=    0.0000000   2.0440000   0.0000000   0.0000000   0.0000000   0.0000000   0.0000000   0.0000000   0.0000000   0.0000000
 NMagM=    0.0000000   0.4037610   0.0000000   2.7928460   2.7928460   2.7928460   2.7928460   2.7928460   2.7928460   2.7928460
 AtZNuc=   6.0000000   7.0000000   6.0000000   1.0000000   1.0000000   1.0000000   1.0000000   1.0000000   1.0000000   1.0000000

  Atom        41          42          43          44          45          46          47          48          49          50
 IAtWgt=           1          12          16          12           1          14          16          12           1          12
 AtmWgt=   1.0078250  12.0000000  15.9949146  12.0000000   1.0078250  14.0030740  15.9949146  12.0000000   1.0078250  12.0000000
 NucSpn=           1           0           0           0           1           2           0           0           1           0
 AtZEff=  -0.0000000  -0.0000000  -0.0000000  -0.0000000  -0.0000000  -0.0000000  -0.0000000  -0.0000000  -0.0000000  -0.0000000
 NQMom=    0.0000000   0.0000000   0.0000000   0.0000000   0.0000000   2.0440000   0.0000000   0.0000000   0.0000000   0.0000000
 NMagM=    2.7928460   0.0000000   0.0000000   0.0000000   2.7928460   0.4037610   0.0000000   0.0000000   2.7928460   0.0000000
 AtZNuc=   1.0000000   6.0000000   8.0000000   6.0000000   1.0000000   7.0000000   8.0000000   6.0000000   1.0000000   6.0000000

  Atom        51          52          53          54          55          56          57          58          59          60
 IAtWgt=          12          14           1           1           1           1           1          14          12          12
 AtmWgt=  12.0000000  14.0030740   1.0078250   1.0078250   1.0078250   1.0078250   1.0078250  14.0030740  12.0000000  12.0000000
 NucSpn=           0           2           1           1           1           1           1           2           0           0
 AtZEff=  -0.0000000  -0.0000000  -0.0000000  -0.0000000  -0.0000000  -0.0000000  -0.0000000  -0.0000000  -0.0000000  -0.0000000
 NQMom=    0.0000000   2.0440000   0.0000000   0.0000000   0.0000000   0.0000000   0.0000000   2.0440000   0.0000000   0.0000000
 NMagM=    0.0000000   0.4037610   2.7928460   2.7928460   2.7928460   2.7928460   2.7928460   0.4037610   0.0000000   0.0000000
 AtZNuc=   6.0000000   7.0000000   1.0000000   1.0000000   1.0000000   1.0000000   1.0000000   7.0000000   6.0000000   6.0000000

  Atom        61          62          63          64          65          66          67          68          69          70
 IAtWgt=          14           1          12          14           1          12          14          12          12          14
 AtmWgt=  14.0030740   1.0078250  12.0000000  14.0030740   1.0078250  12.0000000  14.0030740  12.0000000  12.0000000  14.0030740
 NucSpn=           2           1           0           2           1           0           2           0           0           2
 AtZEff=  -0.0000000  -0.0000000  -0.0000000  -0.0000000  -0.0000000  -0.0000000  -0.0000000  -0.0000000  -0.0000000  -0.0000000
 NQMom=    2.0440000   0.0000000   0.0000000   2.0440000   0.0000000   0.0000000   2.0440000   0.0000000   0.0000000   2.0440000
 NMagM=    0.4037610   2.7928460   0.0000000   0.4037610   2.7928460   0.0000000   0.4037610   0.0000000   0.0000000   0.4037610
 AtZNuc=   7.0000000   1.0000000   6.0000000   7.0000000   1.0000000   6.0000000   7.0000000   6.0000000   6.0000000   7.0000000
 Leave Link  101 at Mon Jan 22 16:40:26 2018, MaxMem=  4294967296 cpu:               7.7 elap:               0.3
 (Enter /share/apps/g16/l202.exe)
 Stoichiometry    C23H27N17O3
 Framework group  C1[X(C23H27N17O3)]
 Deg. of freedom   204
 Full point group                 C1      NOp   1
 Largest Abelian subgroup         C1      NOp   1
 Largest concise Abelian subgroup C1      NOp   1
                         Standard orientation:                         
 ---------------------------------------------------------------------
 Center     Atomic      Atomic             Coordinates (Angstroms)
 Number     Number       Type             X           Y           Z
 ---------------------------------------------------------------------
      1          7           0       -6.934841   -1.290250    0.266625
      2          6           0       -8.289879   -0.705670    0.278540
      3          6           0       -4.765812   -1.585058    0.480413
      4          7           0       -5.270950   -2.773715   -0.026192
      5          6           0       -6.557498   -2.548532   -0.134720
      6          1           0       -7.284453   -3.271925   -0.505099
      7          7           0       -3.302339    0.073357    1.299476
      8          6           0       -4.380016    0.854828    1.423969
      9          1           0       -4.187898    1.853026    1.815070
     10          7           0       -5.653391    0.589624    1.139222
     11          6           0       -5.779521   -0.661243    0.666084
     12          6           0       -3.462390   -1.179681    0.820545
     13          7           0       -2.387839   -1.961264    0.695544
     14          1           0       -2.459438   -2.895864    0.345390
     15          1           0       -1.475101   -1.639439    0.947509
     16          1           0       -8.884716   -1.251575    0.868735
     17          1           0       -8.246624    0.230858    0.625201
     18          1           0       -8.660335   -0.698700   -0.650280
     19          7           0       -2.691259    2.351357   -1.643346
     20          6           0       -1.342558    2.191620   -1.434671
     21          6           0       -3.437674    3.614206   -1.473710
     22          7           0        1.741577    3.518733   -0.546618
     23          1           0        2.683307    3.197159   -0.451907
     24          1           0        1.568901    4.483059   -0.344185
     25          7           0       -0.479558    3.153751   -1.042753
     26          6           0        0.753978    2.694606   -0.927901
     27          7           0        1.116710    1.393179   -1.177307
     28          1           0        2.083794    1.130921   -1.063536
     29          6           0        0.245558    0.386425   -1.581557
     30          8           0        0.675250   -0.756658   -1.780227
     31          6           0       -1.083344    0.864527   -1.709300
     32          7           0       -2.245910    0.204392   -2.082873
     33          6           0       -3.171244    1.123690   -2.029467
     34          1           0       -4.223872    0.959481   -2.262457
     35          1           0       -4.147145    3.493412   -0.780264
     36          1           0       -2.808727    4.334243   -1.183502
     37          1           0       -3.860685    3.872463   -2.341572
     38          1           0        6.913158    0.316925    0.302997
     39          1           0        7.207490    0.448107   -1.429283
     40          1           0        5.900138    1.369529   -0.685537
     41          1           0        5.472794   -4.031701   -1.167170
     42          6           0        5.109490   -3.004088   -1.151080
     43          8           0        2.853807   -3.600315   -1.579506
     44          6           0        3.718071   -2.749893   -1.368254
     45          1           0        2.389395   -1.197067   -1.476428
     46          7           0        3.364306   -1.416318   -1.327375
     47          8           0        3.787302    0.801961   -1.087524
     48          6           0        4.194543   -0.346307   -1.105281
     49          1           0        7.010554   -2.121077   -0.761185
     50          6           0        5.943940   -1.981241   -0.931828
     51          6           0        6.446506    0.438337   -0.663214
     52          7           0        5.521406   -0.672396   -0.904518
     53          1           0        3.623303    3.122472    3.627728
     54          1           0        2.485842    3.402294    2.491946
     55          1           0        4.063643    3.367603    2.075488
     56          1           0        1.015910   -3.313613    1.011634
     57          1           0        2.635984   -3.105150    1.503581
     58          7           0        1.742183   -2.696703    1.315102
     59          6           0        1.529324   -1.387423    1.462221
     60          6           0        2.144171    0.849604    1.990774
     61          7           0        0.933647    1.370421    1.730378
     62          1           0       -0.919580    0.755023    1.107929
     63          6           0        0.089531    0.417426    1.340289
     64          7           0        0.300817   -0.894451    1.192319
     65          1           0        5.255805    0.821805    2.867787
     66          6           0        4.247540    0.565109    2.541514
     67          7           0        3.848491   -0.645481    2.236696
     68          6           0        2.516602   -0.479224    1.885755
     69          6           0        3.368045    2.968697    2.673154
     70          7           0        3.267450    1.519128    2.415021
 ---------------------------------------------------------------------
 Rotational constants (GHZ):           0.1521632           0.0502759           0.0462295
 Leave Link  202 at Mon Jan 22 16:40:26 2018, MaxMem=  4294967296 cpu:               0.4 elap:               0.0
 (Enter /share/apps/g16/l301.exe)
 Standard basis: CC-pVDZ (5D, 7F)
 Ernie: Thresh=  0.10000D-02 Tol=  0.10000D-05 Strict=F.
 Ernie:  86 primitive shells out of 1081 were deleted.
 There are   780 symmetry adapted cartesian basis functions of A   symmetry.
 There are   737 symmetry adapted basis functions of A   symmetry.
   737 basis functions,  1608 primitive gaussians,   780 cartesian basis functions
   154 alpha electrons      154 beta electrons
       nuclear repulsion energy      5462.7353957499 Hartrees.
 IExCor= 4639 DFT=T Ex+Corr=wB97XD ExCW=0 ScaHFX=  1.000000
 ScaDFX=  1.000000  1.000000  1.000000  1.000000 ScalE2=  1.000000  1.000000
 IRadAn=      5 IRanWt=     -1 IRanGd=            0 ICorTp=0 IEmpDi=121
 HFx  wShort=  0.000000 wLong=  0.200000 cFull=  0.222036 cShort=  0.000000 cLong=  0.777964
 DFx  wShort=  0.000000 wLong=  0.200000 cFull=  0.000000 cShort=  0.000000 cLong=  1.000000
 NAtoms=   70 NActive=   70 NUniq=   70 SFac= 1.00D+00 NAtFMM=   60 NAOKFM=T Big=T
 Integral buffers will be    131072 words long.
 Raffenetti 2 integral format.
 Two-electron integral symmetry is turned on.
 R6Disp:  Grimme-D2 Dispersion energy=       -0.0698562361 Hartrees.
 Nuclear repulsion after empirical dispersion term =     5462.6655395138 Hartrees.
 Leave Link  301 at Mon Jan 22 16:40:26 2018, MaxMem=  4294967296 cpu:               2.9 elap:               0.1
 (Enter /share/apps/g16/l302.exe)
 NPDir=0 NMtPBC=     1 NCelOv=     1 NCel=       1 NClECP=     1 NCelD=      1
         NCelK=      1 NCelE2=     1 NClLst=     1 CellRange=     0.0.
 One-electron integrals computed using PRISM.
 One-electron integral symmetry used in STVInt
 NBasis=   737 RedAO= T EigKep=  7.10D-04  NBF=   737
 NBsUse=   737 1.00D-06 EigRej= -1.00D+00 NBFU=   737
 Precomputing XC quadrature grid using
 IXCGrd= 4 IRadAn=           5 IRanWt=          -1 IRanGd=           0 AccXCQ= 0.00D+00.
 Generated NRdTot=       0 NPtTot=           0 NUsed=           0 NTot=          32
 NSgBfM=   763   763   763   763   763 MxSgAt=    70 MxSgA2=    70.
 Leave Link  302 at Mon Jan 22 16:40:31 2018, MaxMem=  4294967296 cpu:             137.9 elap:               4.4
 (Enter /share/apps/g16/l303.exe)
 DipDrv:  MaxL=1.
 Leave Link  303 at Mon Jan 22 16:40:31 2018, MaxMem=  4294967296 cpu:              12.3 elap:               0.4
 (Enter /share/apps/g16/l401.exe)
 ExpMin= 1.22D-01 ExpMax= 1.17D+04 ExpMxC= 4.01D+02 IAcc=3 IRadAn=         5 AccDes= 0.00D+00
 Harris functional with IExCor= 4639 and IRadAn=       5 diagonalized for initial guess.
 HarFok:  IExCor= 4639 AccDes= 0.00D+00 IRadAn=         5 IDoV= 1 UseB2=F ITyADJ=14
 ICtDFT=  3500011 ScaDFX=  1.000000  1.000000  1.000000  1.000000
 FoFCou: FMM=F IPFlag=           0 FMFlag=      100000 FMFlg1=        2001
         NFxFlg=           0 DoJE=T BraDBF=F KetDBF=T FulRan=T
         wScrn=  0.000000 ICntrl=       500 IOpCl=  0 I1Cent=   200000004 NGrid=           0
         NMat0=    1 NMatS0=      1 NMatT0=    0 NMatD0=    1 NMtDS0=    0 NMtDT0=    0
 Petite list used in FoFCou.
 Harris En= -1963.88399537394    
 JPrj=0 DoOrth=F DoCkMO=F.
 Leave Link  401 at Mon Jan 22 16:40:43 2018, MaxMem=  4294967296 cpu:             394.7 elap:              12.4
 (Enter /share/apps/g16/l502.exe)
 Integral symmetry usage will be decided dynamically.
 Closed shell SCF:
 Using DIIS extrapolation, IDIIS=  1040.
 NGot=  4294967296 LenX=  4293717438 LenY=  4293108258
 Requested convergence on RMS density matrix=1.00D-08 within  20 cycles.
 Requested convergence on MAX density matrix=1.00D-06.
 Requested convergence on             energy=1.00D-06.
 No special actions if energy rises.
 Fock matrices will be formed incrementally for  20 cycles.
 Integral accuracy reduced to 1.0D-05 until final iterations.

 Cycle   1  Pass 0  IDiag  1:
 FoFJK:  IHMeth= 1 ICntrl=       0 DoSepK=T KAlg= 0 I1Cent=           0 FoldK=F
 IRaf=         1 NMat=       1 IRICut=       1 DoRegI=T DoRafI=F ISym2E= 0 IDoP0=0 IntGTp=1.
 FoFCou: FMM=T IPFlag=           0 FMFlag=      100000 FMFlg1=        2001
         NFxFlg=           0 DoJE=T BraDBF=F KetDBF=F FulRan=T
         wScrn=  0.000000 ICntrl=       500 IOpCl=  0 I1Cent=           0 NGrid=           0
         NMat0=    1 NMatS0=      1 NMatT0=    0 NMatD0=    1 NMtDS0=    0 NMtDT0=    0
 Symmetry not used in FoFCou.
 FMM levels:  10  Number of levels for PrismC:   9
 E= -2048.31533230476    
 DIIS: error= 2.47D-02 at cycle   1 NSaved=   1.
 NSaved= 1 IEnMin= 1 EnMin= -2048.31533230476     IErMin= 1 ErrMin= 2.47D-02
 ErrMax= 2.47D-02  0.00D+00 EMaxC= 1.00D-01 BMatC= 8.31D-01 BMatP= 8.31D-01
 IDIUse=3 WtCom= 7.53D-01 WtEn= 2.47D-01
 Coeff-Com:  0.100D+01
 Coeff-En:   0.100D+01
 Coeff:      0.100D+01
 Gap=     0.254 Goal=   None    Shift=    0.000
 GapD=    0.254 DampG=1.000 DampE=0.500 DampFc=0.5000 IDamp=-1.
 Damping current iteration by 5.00D-01
 RMSDP=1.57D-03 MaxDP=1.30D-01              OVMax= 1.96D-01

 Cycle   2  Pass 0  IDiag  1:
 RMSU=  7.82D-04    CP:  9.98D-01
 E= -2048.51204943031     Delta-E=       -0.196717125550 Rises=F Damp=T
 DIIS: error= 1.23D-02 at cycle   2 NSaved=   2.
 NSaved= 2 IEnMin= 2 EnMin= -2048.51204943031     IErMin= 2 ErrMin= 1.23D-02
 ErrMax= 1.23D-02  0.00D+00 EMaxC= 1.00D-01 BMatC= 1.45D-01 BMatP= 8.31D-01
 IDIUse=3 WtCom= 8.77D-01 WtEn= 1.23D-01
 Coeff-Com: -0.198D+00 0.120D+01
 Coeff-En:   0.000D+00 0.100D+01
 Coeff:     -0.174D+00 0.117D+01
 Gap=     0.363 Goal=   None    Shift=    0.000
 RMSDP=5.88D-04 MaxDP=3.36D-02 DE=-1.97D-01 OVMax= 1.36D-01

 Cycle   3  Pass 0  IDiag  1:
 RMSU=  5.77D-04    CP:  9.94D-01  1.13D+00
 E= -2048.69114799462     Delta-E=       -0.179098564303 Rises=F Damp=F
 DIIS: error= 6.58D-03 at cycle   3 NSaved=   3.
 NSaved= 3 IEnMin= 3 EnMin= -2048.69114799462     IErMin= 3 ErrMin= 6.58D-03
 ErrMax= 6.58D-03  0.00D+00 EMaxC= 1.00D-01 BMatC= 6.24D-02 BMatP= 1.45D-01
 IDIUse=3 WtCom= 9.34D-01 WtEn= 6.58D-02
 Coeff-Com: -0.232D+00 0.548D+00 0.684D+00
 Coeff-En:   0.000D+00 0.000D+00 0.100D+01
 Coeff:     -0.217D+00 0.512D+00 0.705D+00
 Gap=     0.280 Goal=   None    Shift=    0.000
 RMSDP=3.53D-04 MaxDP=3.24D-02 DE=-1.79D-01 OVMax= 6.92D-02

 Cycle   4  Pass 0  IDiag  1:
 RMSU=  2.01D-04    CP:  9.94D-01  1.41D+00  6.75D-01
 E= -2048.73904519129     Delta-E=       -0.047897196677 Rises=F Damp=F
 DIIS: error= 2.38D-03 at cycle   4 NSaved=   4.
 NSaved= 4 IEnMin= 4 EnMin= -2048.73904519129     IErMin= 4 ErrMin= 2.38D-03
 ErrMax= 2.38D-03  0.00D+00 EMaxC= 1.00D-01 BMatC= 8.56D-03 BMatP= 6.24D-02
 IDIUse=3 WtCom= 9.76D-01 WtEn= 2.38D-02
 Coeff-Com: -0.971D-01 0.188D+00 0.375D+00 0.533D+00
 Coeff-En:   0.000D+00 0.000D+00 0.520D-01 0.948D+00
 Coeff:     -0.948D-01 0.184D+00 0.368D+00 0.543D+00
 Gap=     0.285 Goal=   None    Shift=    0.000
 RMSDP=1.25D-04 MaxDP=1.15D-02 DE=-4.79D-02 OVMax= 1.32D-02

 Cycle   5  Pass 0  IDiag  1:
 RMSU=  6.08D-05    CP:  9.94D-01  1.39D+00  8.05D-01  6.20D-01
 E= -2048.74616963316     Delta-E=       -0.007124441863 Rises=F Damp=F
 DIIS: error= 5.91D-04 at cycle   5 NSaved=   5.
 NSaved= 5 IEnMin= 5 EnMin= -2048.74616963316     IErMin= 5 ErrMin= 5.91D-04
 ErrMax= 5.91D-04  0.00D+00 EMaxC= 1.00D-01 BMatC= 2.85D-04 BMatP= 8.56D-03
 IDIUse=3 WtCom= 9.94D-01 WtEn= 5.91D-03
 Coeff-Com: -0.253D-01 0.435D-01 0.120D+00 0.239D+00 0.622D+00
 Coeff-En:   0.000D+00 0.000D+00 0.000D+00 0.000D+00 0.100D+01
 Coeff:     -0.251D-01 0.432D-01 0.120D+00 0.238D+00 0.624D+00
 Gap=     0.285 Goal=   None    Shift=    0.000
 RMSDP=2.62D-05 MaxDP=1.87D-03 DE=-7.12D-03 OVMax= 3.14D-03

 Failed to achieve initial convergence to 1.0D-08 in  6 cycles.
 Switch to full accuracy anyway.
 Cycle   6  Pass 1  IDiag  1:
 E= -2048.74635428853     Delta-E=       -0.000184655377 Rises=F Damp=F
 DIIS: error= 2.80D-04 at cycle   1 NSaved=   1.
 NSaved= 1 IEnMin= 1 EnMin= -2048.74635428853     IErMin= 1 ErrMin= 2.80D-04
 ErrMax= 2.80D-04  0.00D+00 EMaxC= 1.00D-01 BMatC= 7.17D-05 BMatP= 7.17D-05
 IDIUse=3 WtCom= 9.97D-01 WtEn= 2.80D-03
 Coeff-Com:  0.100D+01
 Coeff-En:   0.100D+01
 Coeff:      0.100D+01
 Gap=     0.285 Goal=   None    Shift=    0.000
 RMSDP=2.62D-05 MaxDP=1.87D-03 DE=-1.85D-04 OVMax= 2.62D-03

 Cycle   7  Pass 1  IDiag  1:
 RMSU=  1.09D-04    CP:  1.00D+00
 E= -2048.74640765123     Delta-E=       -0.000053362695 Rises=F Damp=F
 DIIS: error= 2.48D-04 at cycle   2 NSaved=   2.
 NSaved= 2 IEnMin= 2 EnMin= -2048.74640765123     IErMin= 2 ErrMin= 2.48D-04
 ErrMax= 2.48D-04  0.00D+00 EMaxC= 1.00D-01 BMatC= 4.18D-05 BMatP= 7.17D-05
 IDIUse=3 WtCom= 9.98D-01 WtEn= 2.48D-03
 Coeff-Com:  0.410D+00 0.590D+00
 Coeff-En:   0.000D+00 0.100D+01
 Coeff:      0.409D+00 0.591D+00
 Gap=     0.285 Goal=   None    Shift=    0.000
 RMSDP=1.13D-05 MaxDP=1.06D-03 DE=-5.34D-05 OVMax= 1.48D-03

 Cycle   8  Pass 1  IDiag  1:
 RMSU=  1.10D-05    CP:  1.00D+00  1.02D+00
 E= -2048.74643814994     Delta-E=       -0.000030498712 Rises=F Damp=F
 DIIS: error= 1.04D-04 at cycle   3 NSaved=   3.
 NSaved= 3 IEnMin= 3 EnMin= -2048.74643814994     IErMin= 3 ErrMin= 1.04D-04
 ErrMax= 1.04D-04  0.00D+00 EMaxC= 1.00D-01 BMatC= 9.67D-06 BMatP= 4.18D-05
 IDIUse=3 WtCom= 9.99D-01 WtEn= 1.04D-03
 Coeff-Com: -0.199D-01 0.311D+00 0.709D+00
 Coeff-En:   0.000D+00 0.128D+00 0.872D+00
 Coeff:     -0.199D-01 0.310D+00 0.709D+00
 Gap=     0.285 Goal=   None    Shift=    0.000
 RMSDP=5.55D-06 MaxDP=4.38D-04 DE=-3.05D-05 OVMax= 5.44D-04

 Cycle   9  Pass 1  IDiag  1:
 RMSU=  3.80D-06    CP:  1.00D+00  1.05D+00  7.65D-01
 E= -2048.74644726946     Delta-E=       -0.000009119517 Rises=F Damp=F
 DIIS: error= 3.51D-05 at cycle   4 NSaved=   4.
 NSaved= 4 IEnMin= 4 EnMin= -2048.74644726946     IErMin= 4 ErrMin= 3.51D-05
 ErrMax= 3.51D-05  0.00D+00 EMaxC= 1.00D-01 BMatC= 4.84D-07 BMatP= 9.67D-06
 IDIUse=1 WtCom= 1.00D+00 WtEn= 0.00D+00
 Coeff-Com: -0.317D-01 0.824D-01 0.259D+00 0.690D+00
 Coeff:     -0.317D-01 0.824D-01 0.259D+00 0.690D+00
 Gap=     0.285 Goal=   None    Shift=    0.000
 RMSDP=1.43D-06 MaxDP=1.32D-04 DE=-9.12D-06 OVMax= 5.06D-04

 Cycle  10  Pass 1  IDiag  1:
 RMSU=  1.27D-06    CP:  1.00D+00  1.06D+00  8.00D-01  1.11D+00
 E= -2048.74644809471     Delta-E=       -0.000000825255 Rises=F Damp=F
 DIIS: error= 1.63D-05 at cycle   5 NSaved=   5.
 NSaved= 5 IEnMin= 5 EnMin= -2048.74644809471     IErMin= 5 ErrMin= 1.63D-05
 ErrMax= 1.63D-05  0.00D+00 EMaxC= 1.00D-01 BMatC= 1.16D-07 BMatP= 4.84D-07
 IDIUse=1 WtCom= 1.00D+00 WtEn= 0.00D+00
 Coeff-Com: -0.291D-02-0.573D-01-0.125D+00 0.202D+00 0.983D+00
 Coeff:     -0.291D-02-0.573D-01-0.125D+00 0.202D+00 0.983D+00
 Gap=     0.285 Goal=   None    Shift=    0.000
 RMSDP=1.20D-06 MaxDP=7.76D-05 DE=-8.25D-07 OVMax= 2.49D-04

 Cycle  11  Pass 1  IDiag  1:
 RMSU=  4.78D-07    CP:  1.00D+00  1.06D+00  8.10D-01  1.39D+00  1.17D+00
 E= -2048.74644834704     Delta-E=       -0.000000252325 Rises=F Damp=F
 DIIS: error= 8.71D-06 at cycle   6 NSaved=   6.
 NSaved= 6 IEnMin= 6 EnMin= -2048.74644834704     IErMin= 6 ErrMin= 8.71D-06
 ErrMax= 8.71D-06  0.00D+00 EMaxC= 1.00D-01 BMatC= 2.72D-08 BMatP= 1.16D-07
 IDIUse=1 WtCom= 1.00D+00 WtEn= 0.00D+00
 Coeff-Com:  0.463D-02-0.444D-01-0.113D+00 0.661D-03 0.523D+00 0.630D+00
 Coeff:      0.463D-02-0.444D-01-0.113D+00 0.661D-03 0.523D+00 0.630D+00
 Gap=     0.285 Goal=   None    Shift=    0.000
 RMSDP=3.46D-07 MaxDP=3.64D-05 DE=-2.52D-07 OVMax= 1.25D-04

 Cycle  12  Pass 1  IDiag  1:
 RMSU=  1.75D-07    CP:  1.00D+00  1.06D+00  8.12D-01  1.45D+00  1.29D+00
                    CP:  9.25D-01
 E= -2048.74644838567     Delta-E=       -0.000000038636 Rises=F Damp=F
 DIIS: error= 1.13D-06 at cycle   7 NSaved=   7.
 NSaved= 7 IEnMin= 7 EnMin= -2048.74644838567     IErMin= 7 ErrMin= 1.13D-06
 ErrMax= 1.13D-06  0.00D+00 EMaxC= 1.00D-01 BMatC= 7.12D-10 BMatP= 2.72D-08
 IDIUse=1 WtCom= 1.00D+00 WtEn= 0.00D+00
 Coeff-Com:  0.972D-03-0.588D-02-0.165D-01-0.774D-02 0.410D-01 0.121D+00
 Coeff-Com:  0.867D+00
 Coeff:      0.972D-03-0.588D-02-0.165D-01-0.774D-02 0.410D-01 0.121D+00
 Coeff:      0.867D+00
 Gap=     0.285 Goal=   None    Shift=    0.000
 RMSDP=8.37D-08 MaxDP=5.21D-06 DE=-3.86D-08 OVMax= 2.29D-05

 Cycle  13  Pass 1  IDiag  1:
 RMSU=  4.79D-08    CP:  1.00D+00  1.06D+00  8.11D-01  1.46D+00  1.31D+00
                    CP:  1.02D+00  1.15D+00
 E= -2048.74644838721     Delta-E=       -0.000000001535 Rises=F Damp=F
 DIIS: error= 6.32D-07 at cycle   8 NSaved=   8.
 NSaved= 8 IEnMin= 8 EnMin= -2048.74644838721     IErMin= 8 ErrMin= 6.32D-07
 ErrMax= 6.32D-07  0.00D+00 EMaxC= 1.00D-01 BMatC= 2.80D-10 BMatP= 7.12D-10
 IDIUse=1 WtCom= 1.00D+00 WtEn= 0.00D+00
 Coeff-Com: -0.716D-03 0.861D-02 0.210D-01-0.196D-02-0.113D+00-0.978D-01
 Coeff-Com:  0.423D+00 0.761D+00
 Coeff:     -0.716D-03 0.861D-02 0.210D-01-0.196D-02-0.113D+00-0.978D-01
 Coeff:      0.423D+00 0.761D+00
 Gap=     0.285 Goal=   None    Shift=    0.000
 RMSDP=4.23D-08 MaxDP=2.44D-06 DE=-1.54D-09 OVMax= 1.04D-05

 Cycle  14  Pass 1  IDiag  1:
 RMSU=  2.49D-08    CP:  1.00D+00  1.06D+00  8.11D-01  1.47D+00  1.32D+00
                    CP:  1.06D+00  1.29D+00  1.09D+00
 E= -2048.74644838773     Delta-E=       -0.000000000525 Rises=F Damp=F
 DIIS: error= 1.93D-07 at cycle   9 NSaved=   9.
 NSaved= 9 IEnMin= 9 EnMin= -2048.74644838773     IErMin= 9 ErrMin= 1.93D-07
 ErrMax= 1.93D-07  0.00D+00 EMaxC= 1.00D-01 BMatC= 2.39D-11 BMatP= 2.80D-10
 IDIUse=1 WtCom= 1.00D+00 WtEn= 0.00D+00
 Coeff-Com: -0.387D-03 0.405D-02 0.101D-01 0.150D-03-0.490D-01-0.518D-01
 Coeff-Com:  0.762D-01 0.281D+00 0.729D+00
 Coeff:     -0.387D-03 0.405D-02 0.101D-01 0.150D-03-0.490D-01-0.518D-01
 Coeff:      0.762D-01 0.281D+00 0.729D+00
 Gap=     0.285 Goal=   None    Shift=    0.000
 RMSDP=1.25D-08 MaxDP=8.94D-07 DE=-5.25D-10 OVMax= 3.34D-06

 Cycle  15  Pass 1  IDiag  1:
 RMSU=  8.30D-09    CP:  1.00D+00  1.06D+00  8.11D-01  1.47D+00  1.32D+00
                    CP:  1.06D+00  1.32D+00  1.22D+00  1.12D+00
 E= -2048.74644838800     Delta-E=       -0.000000000265 Rises=F Damp=F
 DIIS: error= 1.05D-07 at cycle  10 NSaved=  10.
 NSaved=10 IEnMin=10 EnMin= -2048.74644838800     IErMin=10 ErrMin= 1.05D-07
 ErrMax= 1.05D-07  0.00D+00 EMaxC= 1.00D-01 BMatC= 5.07D-12 BMatP= 2.39D-11
 IDIUse=1 WtCom= 1.00D+00 WtEn= 0.00D+00
 Coeff-Com:  0.141D-04-0.398D-03-0.870D-03 0.190D-03 0.648D-02 0.232D-02
 Coeff-Com: -0.570D-01-0.655D-01 0.296D+00 0.819D+00
 Coeff:      0.141D-04-0.398D-03-0.870D-03 0.190D-03 0.648D-02 0.232D-02
 Coeff:     -0.570D-01-0.655D-01 0.296D+00 0.819D+00
 Gap=     0.285 Goal=   None    Shift=    0.000
 RMSDP=6.11D-09 MaxDP=3.80D-07 DE=-2.65D-10 OVMax= 1.29D-06

 SCF Done:  E(RwB97XD) =  -2048.74644839     A.U. after   15 cycles
            NFock= 15  Conv=0.61D-08     -V/T= 2.0054
 KE= 2.037711240149D+03 PE=-1.570628560329D+04 EE= 6.157162375237D+03
 Leave Link  502 at Mon Jan 22 16:51:55 2018, MaxMem=  4294967296 cpu:           20737.8 elap:             671.7
 (Enter /share/apps/g16/l601.exe)
 Copying SCF densities to generalized density rwf, IOpCl= 0 IROHF=0.

 **********************************************************************

            Population analysis using the SCF density.

 **********************************************************************

 Orbital symmetries:
       Occupied  (A) (A) (A) (A) (A) (A) (A) (A) (A) (A) (A) (A)
                 (A) (A) (A) (A) (A) (A) (A) (A) (A) (A) (A) (A)
                 (A) (A) (A) (A) (A) (A) (A) (A) (A) (A) (A) (A)
                 (A) (A) (A) (A) (A) (A) (A) (A) (A) (A) (A) (A)
                 (A) (A) (A) (A) (A) (A) (A) (A) (A) (A) (A) (A)
                 (A) (A) (A) (A) (A) (A) (A) (A) (A) (A) (A) (A)
                 (A) (A) (A) (A) (A) (A) (A) (A) (A) (A) (A) (A)
                 (A) (A) (A) (A) (A) (A) (A) (A) (A) (A) (A) (A)
                 (A) (A) (A) (A) (A) (A) (A) (A) (A) (A) (A) (A)
                 (A) (A) (A) (A) (A) (A) (A) (A) (A) (A) (A) (A)
                 (A) (A) (A) (A) (A) (A) (A) (A) (A) (A) (A) (A)
                 (A) (A) (A) (A) (A) (A) (A) (A) (A) (A) (A) (A)
                 (A) (A) (A) (A) (A) (A) (A) (A) (A) (A)
       Virtual   (A) (A) (A) (A) (A) (A) (A) (A) (A) (A) (A) (A)
                 (A) (A) (A) (A) (A) (A) (A) (A) (A) (A) (A) (A)
                 (A) (A) (A) (A) (A) (A) (A) (A) (A) (A) (A) (A)
                 (A) (A) (A) (A) (A) (A) (A) (A) (A) (A) (A) (A)
                 (A) (A) (A) (A) (A) (A) (A) (A) (A) (A) (A) (A)
                 (A) (A) (A) (A) (A) (A) (A) (A) (A) (A) (A) (A)
                 (A) (A) (A) (A) (A) (A) (A) (A) (A) (A) (A) (A)
                 (A) (A) (A) (A) (A) (A) (A) (A) (A) (A) (A) (A)
                 (A) (A) (A) (A) (A) (A) (A) (A) (A) (A) (A) (A)
                 (A) (A) (A) (A) (A) (A) (A) (A) (A) (A) (A) (A)
                 (A) (A) (A) (A) (A) (A) (A) (A) (A) (A) (A) (A)
                 (A) (A) (A) (A) (A) (A) (A) (A) (A) (A) (A) (A)
                 (A) (A) (A) (A) (A) (A) (A) (A) (A) (A) (A) (A)
                 (A) (A) (A) (A) (A) (A) (A) (A) (A) (A) (A) (A)
                 (A) (A) (A) (A) (A) (A) (A) (A) (A) (A) (A) (A)
                 (A) (A) (A) (A) (A) (A) (A) (A) (A) (A) (A) (A)
                 (A) (A) (A) (A) (A) (A) (A) (A) (A) (A) (A) (A)
                 (A) (A) (A) (A) (A) (A) (A) (A) (A) (A) (A) (A)
                 (A) (A) (A) (A) (A) (A) (A) (A) (A) (A) (A) (A)
                 (A) (A) (A) (A) (A) (A) (A) (A) (A) (A) (A) (A)
                 (A) (A) (A) (A) (A) (A) (A) (A) (A) (A) (A) (A)
                 (A) (A) (A) (A) (A) (A) (A) (A) (A) (A) (A) (A)
                 (A) (A) (A) (A) (A) (A) (A) (A) (A) (A) (A) (A)
                 (A) (A) (A) (A) (A) (A) (A) (A) (A) (A) (A) (A)
                 (A) (A) (A) (A) (A) (A) (A) (A) (A) (A) (A) (A)
                 (A) (A) (A) (A) (A) (A) (A) (A) (A) (A) (A) (A)
                 (A) (A) (A) (A) (A) (A) (A) (A) (A) (A) (A) (A)
                 (A) (A) (A) (A) (A) (A) (A) (A) (A) (A) (A) (A)
                 (A) (A) (A) (A) (A) (A) (A) (A) (A) (A) (A) (A)
                 (A) (A) (A) (A) (A) (A) (A) (A) (A) (A) (A) (A)
                 (A) (A) (A) (A) (A) (A) (A) (A) (A) (A) (A) (A)
                 (A) (A) (A) (A) (A) (A) (A) (A) (A) (A) (A) (A)
                 (A) (A) (A) (A) (A) (A) (A) (A) (A) (A) (A) (A)
                 (A) (A) (A) (A) (A) (A) (A) (A) (A) (A) (A) (A)
                 (A) (A) (A) (A) (A) (A) (A) (A) (A) (A) (A) (A)
                 (A) (A) (A) (A) (A) (A) (A) (A) (A) (A) (A) (A)
                 (A) (A) (A) (A) (A) (A) (A) (A) (A) (A) (A) (A)
                 (A) (A) (A) (A) (A) (A) (A) (A) (A) (A) (A) (A)
                 (A) (A) (A) (A) (A) (A) (A) (A) (A) (A) (A) (A)
                 (A) (A) (A) (A) (A) (A) (A) (A) (A) (A) (A) (A)
                 (A) (A) (A) (A) (A) (A) (A) (A) (A) (A) (A) (A)
                 (A) (A) (A) (A) (A) (A) (A) (A) (A) (A) (A) (A)
                 (A) (A) (A) (A) (A) (A) (A) (A) (A) (A) (A) (A)
                 (A) (A) (A) (A) (A) (A) (A) (A) (A) (A) (A) (A)
                 (A) (A) (A) (A) (A) (A) (A) (A) (A) (A) (A) (A)
                 (A) (A) (A) (A) (A) (A) (A) (A) (A) (A) (A) (A)
                 (A) (A) (A) (A) (A) (A) (A) (A) (A) (A) (A) (A)
                 (A) (A) (A) (A) (A) (A) (A) (A) (A) (A) (A) (A)
                 (A) (A) (A) (A) (A) (A) (A)
 The electronic state is 1-A.
 Alpha  occ. eigenvalues --  -19.26006 -19.22163 -19.20664 -14.52487 -14.51444
 Alpha  occ. eigenvalues --  -14.49263 -14.48696 -14.47976 -14.46963 -14.46858
 Alpha  occ. eigenvalues --  -14.46477 -14.44470 -14.42824 -14.42781 -14.42460
 Alpha  occ. eigenvalues --  -14.42115 -14.41911 -14.41417 -14.40771 -14.40580
 Alpha  occ. eigenvalues --  -10.45605 -10.41302 -10.40258 -10.38454 -10.38283
 Alpha  occ. eigenvalues --  -10.37828 -10.37053 -10.35942 -10.35818 -10.35553
 Alpha  occ. eigenvalues --  -10.34566 -10.34383 -10.34383 -10.33872 -10.33564
 Alpha  occ. eigenvalues --  -10.33379 -10.33221 -10.31410 -10.31386 -10.31101
 Alpha  occ. eigenvalues --  -10.30678 -10.29030 -10.28155  -1.19539  -1.14107
 Alpha  occ. eigenvalues --   -1.13276  -1.13177  -1.11851  -1.10569  -1.09388
 Alpha  occ. eigenvalues --   -1.08657  -1.07789  -1.05419  -1.03353  -1.02604
 Alpha  occ. eigenvalues --   -1.00830  -0.99995  -0.99841  -0.98567  -0.97410
 Alpha  occ. eigenvalues --   -0.96521  -0.95392  -0.93055  -0.91095  -0.86545
 Alpha  occ. eigenvalues --   -0.85022  -0.84413  -0.84103  -0.83832  -0.82764
 Alpha  occ. eigenvalues --   -0.82412  -0.78937  -0.75799  -0.74641  -0.73774
 Alpha  occ. eigenvalues --   -0.73508  -0.73452  -0.73329  -0.71516  -0.69186
 Alpha  occ. eigenvalues --   -0.67475  -0.66725  -0.66632  -0.65520  -0.64535
 Alpha  occ. eigenvalues --   -0.63802  -0.63216  -0.62918  -0.62730  -0.61845
 Alpha  occ. eigenvalues --   -0.60588  -0.59918  -0.59590  -0.59347  -0.58908
 Alpha  occ. eigenvalues --   -0.58488  -0.58419  -0.56909  -0.56875  -0.56596
 Alpha  occ. eigenvalues --   -0.56080  -0.55741  -0.54720  -0.54469  -0.54312
 Alpha  occ. eigenvalues --   -0.53680  -0.53535  -0.52957  -0.52770  -0.52650
 Alpha  occ. eigenvalues --   -0.52323  -0.52140  -0.51718  -0.51227  -0.50612
 Alpha  occ. eigenvalues --   -0.50185  -0.49554  -0.49501  -0.48958  -0.48803
 Alpha  occ. eigenvalues --   -0.48630  -0.48286  -0.47804  -0.47707  -0.47456
 Alpha  occ. eigenvalues --   -0.47403  -0.45474  -0.45365  -0.44095  -0.43228
 Alpha  occ. eigenvalues --   -0.41646  -0.39602  -0.39564  -0.37645  -0.37351
 Alpha  occ. eigenvalues --   -0.37271  -0.36530  -0.36345  -0.35898  -0.34519
 Alpha  occ. eigenvalues --   -0.34006  -0.33946  -0.33348  -0.33213  -0.32839
 Alpha  occ. eigenvalues --   -0.32688  -0.32322  -0.32068  -0.31870  -0.31422
 Alpha  occ. eigenvalues --   -0.30789  -0.28531  -0.26233  -0.25497
 Alpha virt. eigenvalues --    0.03031   0.05030   0.07515   0.08061   0.08559
 Alpha virt. eigenvalues --    0.09265   0.09592   0.10466   0.11074   0.11857
 Alpha virt. eigenvalues --    0.12754   0.13649   0.14436   0.14661   0.15313
 Alpha virt. eigenvalues --    0.16111   0.16422   0.16768   0.16968   0.18160
 Alpha virt. eigenvalues --    0.18754   0.19320   0.19605   0.19992   0.20501
 Alpha virt. eigenvalues --    0.20576   0.21238   0.21498   0.21805   0.22358
 Alpha virt. eigenvalues --    0.22798   0.23284   0.23498   0.23557   0.23676
 Alpha virt. eigenvalues --    0.23975   0.24053   0.24179   0.25067   0.25323
 Alpha virt. eigenvalues --    0.26216   0.26693   0.26815   0.27222   0.27962
 Alpha virt. eigenvalues --    0.28746   0.29340   0.29696   0.30714   0.30944
 Alpha virt. eigenvalues --    0.31172   0.32096   0.32716   0.33216   0.33559
 Alpha virt. eigenvalues --    0.33817   0.34802   0.35003   0.35888   0.36417
 Alpha virt. eigenvalues --    0.36641   0.37550   0.38201   0.39437   0.39603
 Alpha virt. eigenvalues --    0.40044   0.40800   0.41408   0.41573   0.41745
 Alpha virt. eigenvalues --    0.42246   0.42577   0.43463   0.43749   0.44643
 Alpha virt. eigenvalues --    0.45095   0.45532   0.45926   0.46092   0.46929
 Alpha virt. eigenvalues --    0.47445   0.47990   0.48898   0.49040   0.49414
 Alpha virt. eigenvalues --    0.49836   0.50114   0.50403   0.50845   0.51012
 Alpha virt. eigenvalues --    0.51534   0.51731   0.52141   0.52796   0.53480
 Alpha virt. eigenvalues --    0.53906   0.54518   0.54866   0.54983   0.55465
 Alpha virt. eigenvalues --    0.55729   0.56060   0.56453   0.56810   0.57390
 Alpha virt. eigenvalues --    0.57656   0.58362   0.59062   0.59127   0.59920
 Alpha virt. eigenvalues --    0.60042   0.60513   0.60795   0.60931   0.61795
 Alpha virt. eigenvalues --    0.61943   0.62088   0.62554   0.63172   0.63709
 Alpha virt. eigenvalues --    0.64097   0.64472   0.64820   0.65010   0.65197
 Alpha virt. eigenvalues --    0.65565   0.65979   0.66604   0.66786   0.67233
 Alpha virt. eigenvalues --    0.67333   0.68212   0.68481   0.68738   0.69483
 Alpha virt. eigenvalues --    0.70226   0.70271   0.70705   0.71149   0.71457
 Alpha virt. eigenvalues --    0.71700   0.72386   0.72965   0.73208   0.73450
 Alpha virt. eigenvalues --    0.73891   0.74211   0.74336   0.74856   0.75398
 Alpha virt. eigenvalues --    0.75443   0.76335   0.76433   0.76558   0.76784
 Alpha virt. eigenvalues --    0.77099   0.77492   0.78070   0.78410   0.79024
 Alpha virt. eigenvalues --    0.79352   0.79571   0.79930   0.80254   0.80468
 Alpha virt. eigenvalues --    0.81223   0.82188   0.82514   0.82630   0.83101
 Alpha virt. eigenvalues --    0.83609   0.83770   0.84189   0.85081   0.85490
 Alpha virt. eigenvalues --    0.85783   0.85966   0.86260   0.87098   0.87984
 Alpha virt. eigenvalues --    0.88093   0.88540   0.88685   0.89092   0.90146
 Alpha virt. eigenvalues --    0.90610   0.90953   0.91357   0.92118   0.92444
 Alpha virt. eigenvalues --    0.92678   0.93245   0.93622   0.94083   0.94339
 Alpha virt. eigenvalues --    0.94717   0.95347   0.95487   0.95846   0.96394
 Alpha virt. eigenvalues --    0.96817   0.97244   0.97770   0.97927   0.98372
 Alpha virt. eigenvalues --    0.98817   0.99459   1.00376   1.00676   1.01205
 Alpha virt. eigenvalues --    1.02008   1.02199   1.02444   1.02985   1.03529
 Alpha virt. eigenvalues --    1.03626   1.04011   1.04160   1.04768   1.05402
 Alpha virt. eigenvalues --    1.05632   1.05933   1.06192   1.06957   1.08046
 Alpha virt. eigenvalues --    1.08420   1.09420   1.10218   1.10586   1.11167
 Alpha virt. eigenvalues --    1.11935   1.12012   1.12405   1.12911   1.13359
 Alpha virt. eigenvalues --    1.13809   1.14331   1.14736   1.15278   1.15826
 Alpha virt. eigenvalues --    1.16090   1.16389   1.16736   1.17114   1.17643
 Alpha virt. eigenvalues --    1.17888   1.18840   1.19305   1.19535   1.19633
 Alpha virt. eigenvalues --    1.20303   1.20828   1.20872   1.21395   1.21512
 Alpha virt. eigenvalues --    1.21698   1.22209   1.22331   1.22674   1.23125
 Alpha virt. eigenvalues --    1.23336   1.23668   1.24020   1.24315   1.25462
 Alpha virt. eigenvalues --    1.26124   1.26545   1.26723   1.27842   1.28687
 Alpha virt. eigenvalues --    1.28900   1.29258   1.30315   1.30922   1.31528
 Alpha virt. eigenvalues --    1.31789   1.32602   1.32959   1.33860   1.34337
 Alpha virt. eigenvalues --    1.34641   1.34958   1.35392   1.35724   1.36651
 Alpha virt. eigenvalues --    1.37900   1.38586   1.38930   1.39103   1.40064
 Alpha virt. eigenvalues --    1.41121   1.42112   1.43386   1.44041   1.44663
 Alpha virt. eigenvalues --    1.44913   1.45474   1.47233   1.48045   1.48561
 Alpha virt. eigenvalues --    1.48754   1.48802   1.49463   1.50210   1.50470
 Alpha virt. eigenvalues --    1.50998   1.51586   1.52608   1.53232   1.54221
 Alpha virt. eigenvalues --    1.55404   1.55693   1.55998   1.56458   1.57316
 Alpha virt. eigenvalues --    1.58671   1.59232   1.59677   1.60429   1.61559
 Alpha virt. eigenvalues --    1.61637   1.62122   1.62769   1.63152   1.64028
 Alpha virt. eigenvalues --    1.64400   1.65563   1.65845   1.66648   1.66988
 Alpha virt. eigenvalues --    1.67568   1.67682   1.68259   1.69099   1.69399
 Alpha virt. eigenvalues --    1.69511   1.70058   1.70597   1.71153   1.71311
 Alpha virt. eigenvalues --    1.71585   1.72210   1.72642   1.73307   1.73377
 Alpha virt. eigenvalues --    1.74237   1.74369   1.74795   1.75143   1.75529
 Alpha virt. eigenvalues --    1.75776   1.75927   1.76546   1.76922   1.77117
 Alpha virt. eigenvalues --    1.77511   1.78360   1.78605   1.78863   1.79433
 Alpha virt. eigenvalues --    1.79669   1.79789   1.79977   1.80309   1.80544
 Alpha virt. eigenvalues --    1.80759   1.81200   1.81687   1.81868   1.82396
 Alpha virt. eigenvalues --    1.82689   1.82939   1.83266   1.84345   1.84426
 Alpha virt. eigenvalues --    1.84664   1.85663   1.86361   1.86657   1.87430
 Alpha virt. eigenvalues --    1.87648   1.87810   1.88019   1.88383   1.88903
 Alpha virt. eigenvalues --    1.88924   1.89679   1.89918   1.90765   1.91364
 Alpha virt. eigenvalues --    1.91683   1.92205   1.92737   1.93123   1.93285
 Alpha virt. eigenvalues --    1.93813   1.94982   1.95495   1.96627   1.97551
 Alpha virt. eigenvalues --    1.98119   1.98950   1.99575   2.00811   2.01398
 Alpha virt. eigenvalues --    2.01526   2.02160   2.02265   2.03484   2.04333
 Alpha virt. eigenvalues --    2.04644   2.05509   2.06181   2.06856   2.07015
 Alpha virt. eigenvalues --    2.07250   2.08409   2.08623   2.08865   2.09696
 Alpha virt. eigenvalues --    2.10807   2.11068   2.11879   2.12377   2.12475
 Alpha virt. eigenvalues --    2.13420   2.14897   2.15044   2.17342   2.18316
 Alpha virt. eigenvalues --    2.19063   2.19517   2.20059   2.20955   2.21152
 Alpha virt. eigenvalues --    2.21552   2.22442   2.22709   2.23573   2.23658
 Alpha virt. eigenvalues --    2.23782   2.25051   2.25509   2.26261   2.26527
 Alpha virt. eigenvalues --    2.27318   2.27747   2.29135   2.29267   2.29586
 Alpha virt. eigenvalues --    2.30043   2.30178   2.30864   2.32100   2.32314
 Alpha virt. eigenvalues --    2.33239   2.33784   2.33956   2.34570   2.34780
 Alpha virt. eigenvalues --    2.35171   2.36038   2.36469   2.37025   2.37716
 Alpha virt. eigenvalues --    2.38305   2.39861   2.40564   2.41142   2.41355
 Alpha virt. eigenvalues --    2.41737   2.41809   2.42767   2.43364   2.43705
 Alpha virt. eigenvalues --    2.45341   2.45517   2.45989   2.46456   2.46820
 Alpha virt. eigenvalues --    2.47519   2.48829   2.48982   2.50191   2.51683
 Alpha virt. eigenvalues --    2.52760   2.53649   2.54506   2.54795   2.56273
 Alpha virt. eigenvalues --    2.56729   2.57098   2.57382   2.57919   2.59619
 Alpha virt. eigenvalues --    2.60769   2.60913   2.61618   2.62077   2.62881
 Alpha virt. eigenvalues --    2.64202   2.64783   2.65225   2.65389   2.66129
 Alpha virt. eigenvalues --    2.66942   2.67724   2.68110   2.68459   2.69257
 Alpha virt. eigenvalues --    2.70296   2.70577   2.71144   2.71493   2.72478
 Alpha virt. eigenvalues --    2.73646   2.74393   2.75145   2.75235   2.75885
 Alpha virt. eigenvalues --    2.77379   2.78777   2.79220   2.79555   2.79689
 Alpha virt. eigenvalues --    2.80064   2.80220   2.80589   2.81579   2.82049
 Alpha virt. eigenvalues --    2.82323   2.82430   2.82710   2.83168   2.83879
 Alpha virt. eigenvalues --    2.84737   2.85719   2.86332   2.86929   2.87112
 Alpha virt. eigenvalues --    2.87555   2.88003   2.89106   2.91275   2.92283
 Alpha virt. eigenvalues --    2.94300   2.96387   2.96493   2.98178   2.98927
 Alpha virt. eigenvalues --    2.99725   3.01142   3.03366   3.04662   3.05896
 Alpha virt. eigenvalues --    3.06504   3.09562   3.10792   3.13881   3.14613
 Alpha virt. eigenvalues --    3.15210   3.15724   3.16128   3.17230   3.20250
 Alpha virt. eigenvalues --    3.22169   3.23329   3.23425   3.23926   3.26668
 Alpha virt. eigenvalues --    3.46047   3.46911   3.47828   3.49929   3.50644
 Alpha virt. eigenvalues --    3.52971   3.54065   3.56334   3.57992   3.59949
 Alpha virt. eigenvalues --    3.62752   3.71173   3.74573
          Condensed to atoms (all electrons):
 Mulliken charges:
               1
     1  N   -0.311291
     2  C    0.180621
     3  C    0.037636
     4  N   -0.257226
     5  C    0.132783
     6  H    0.027886
     7  N   -0.284318
     8  C    0.125459
     9  H    0.014009
    10  N   -0.289806
    11  C    0.234591
    12  C    0.114853
    13  N   -0.048151
    14  H    0.108564
    15  H    0.088874
    16  H    0.026901
    17  H    0.034699
    18  H    0.025712
    19  N   -0.306838
    20  C    0.240031
    21  C    0.180499
    22  N   -0.114851
    23  H    0.112224
    24  H    0.116834
    25  N   -0.299184
    26  C    0.232828
    27  N   -0.124214
    28  H    0.118490
    29  C    0.148146
    30  O   -0.320639
    31  C    0.006475
    32  N   -0.223116
    33  C    0.128137
    34  H    0.028636
    35  H    0.031423
    36  H    0.027431
    37  H    0.023567
    38  H    0.057968
    39  H    0.062152
    40  H    0.070935
    41  H    0.030370
    42  C   -0.110266
    43  O   -0.273645
    44  C    0.167470
    45  H    0.137872
    46  N   -0.131679
    47  O   -0.352451
    48  C    0.358925
    49  H    0.047771
    50  C    0.181304
    51  C    0.039929
    52  N   -0.290485
    53  H    0.033478
    54  H    0.038165
    55  H    0.020017
    56  H    0.123634
    57  H    0.117728
    58  N   -0.051435
    59  C    0.112265
    60  C    0.234672
    61  N   -0.263298
    62  H    0.049627
    63  C    0.152728
    64  N   -0.299863
    65  H    0.027775
    66  C    0.126247
    67  N   -0.262458
    68  C    0.011597
    69  C    0.174057
    70  N   -0.308780
 Sum of Mulliken charges =  -0.00000
 Mulliken charges with hydrogens summed into heavy atoms:
               1
     1  N   -0.311291
     2  C    0.267933
     3  C    0.037636
     4  N   -0.257226
     5  C    0.160669
     7  N   -0.284318
     8  C    0.139468
    10  N   -0.289806
    11  C    0.234591
    12  C    0.114853
    13  N    0.149287
    19  N   -0.306838
    20  C    0.240031
    21  C    0.262919
    22  N    0.114207
    25  N   -0.299184
    26  C    0.232828
    27  N   -0.005724
    29  C    0.148146
    30  O   -0.320639
    31  C    0.006475
    32  N   -0.223116
    33  C    0.156772
    42  C   -0.079895
    43  O   -0.273645
    44  C    0.167470
    46  N    0.006192
    47  O   -0.352451
    48  C    0.358925
    50  C    0.229075
    51  C    0.230984
    52  N   -0.290485
    58  N    0.189928
    59  C    0.112265
    60  C    0.234672
    61  N   -0.263298
    63  C    0.202354
    64  N   -0.299863
    66  C    0.154022
    67  N   -0.262458
    68  C    0.011597
    69  C    0.265717
    70  N   -0.308780
 Electronic spatial extent (au):  <R**2>=          23774.9952
 Charge=             -0.0000 electrons
 Dipole moment (field-independent basis, Debye):
    X=              6.9645    Y=              6.0325    Z=              2.6328  Tot=              9.5827
 Quadrupole moment (field-independent basis, Debye-Ang):
   XX=           -141.9209   YY=           -224.3295   ZZ=           -253.0313
   XY=              9.4307   XZ=             14.4078   YZ=             -6.6933
 Traceless Quadrupole moment (field-independent basis, Debye-Ang):
   XX=             64.5063   YY=            -17.9023   ZZ=            -46.6041
   XY=              9.4307   XZ=             14.4078   YZ=             -6.6933
 Octapole moment (field-independent basis, Debye-Ang**2):
  XXX=             20.8319  YYY=             98.7007  ZZZ=             13.6118  XYY=             50.0176
  XXY=             -7.6470  XXZ=            -62.1021  XZZ=             30.4773  YZZ=             45.3165
  YYZ=             45.6738  XYZ=             45.6106
 Hexadecapole moment (field-independent basis, Debye-Ang**3):
 XXXX=         -15943.9533 YYYY=          -5087.2544 ZZZZ=          -3300.2583 XXXY=            457.0219
 XXXZ=            199.5439 YYYX=             51.0750 YYYZ=            -87.7214 ZZZX=             91.2155
 ZZZY=             56.2037 XXYY=          -4210.5219 XXZZ=          -4255.9398 YYZZ=          -1450.4851
 XXYZ=             91.0524 YYXZ=            197.7618 ZZXY=             89.4181
 N-N= 5.462665539514D+03 E-N=-1.570628560319D+04  KE= 2.037711240149D+03
 No NMR shielding tensors so no spin-rotation constants.
 Leave Link  601 at Mon Jan 22 16:51:57 2018, MaxMem=  4294967296 cpu:              50.0 elap:               1.8
 (Enter /share/apps/g16/l9999.exe)
 1\1\GINC-COMPUTE-0-3\SP\RwB97XD\CC-pVDZ\C23H27N17O3\SATYA\22-Jan-2018\
 0\\#p wb97xd/cc-pvdz sp scf=(maxcycles=20)\\Base pair stacking\\0,1\N,
 0,7.57782,6.18195,-5.95359\C,0,8.30444,7.46026,-6.07988\C,0,6.00083,4.
 64911,-5.92516\N,0,7.17999,3.99902,-5.59097\C,0,8.08288,4.94852,-5.621
 47\H,0,9.14234,4.8037,-5.40813\N,0,3.73746,5.10254,-6.40943\C,0,4.1109
 4,6.37274,-6.59568\H,0,3.30982,7.05741,-6.87082\N,0,5.31976,6.92158,-6
 .49357\C,0,6.23027,5.99508,-6.15151\C,0,4.67701,4.19458,-6.06599\N,0,4
 .30615,2.92616,-5.87963\H,0,4.968,2.22038,-5.6246\H,0,3.35462,2.63827,
 -5.98853\H,0,9.00938,7.37636,-6.78429\H,0,7.66444,8.18453,-6.33476\H,0
 ,8.73405,7.68957,-5.20647\N,0,2.35109,6.57177,-3.22474\C,0,1.34516,5.6
 3736,-3.27986\C,0,2.17078,8.02996,-3.37262\N,0,-2.01721,4.85668,-3.662
 96\H,0,-2.58779,4.03593,-3.66954\H,0,-2.48075,5.73262,-3.79927\N,0,0.0
 3356,5.89229,-3.47679\C,0,-0.69002,4.78683,-3.47965\N,0,-0.17081,3.527
 14,-3.30332\H,0,-0.79941,2.73876,-3.32041\C,0,1.17548,3.24133,-3.09913
 \O,0,1.5404,2.06848,-2.9508\C,0,1.96538,4.419,-3.09354\N,0,3.33316,4.5
 8517,-2.92484\C,0,3.51519,5.87506,-3.01001\H,0,4.48158,6.37287,-2.9231
 2\H,0,2.69978,8.35518,-4.15569\H,0,1.20307,8.23085,-3.51901\H,0,2.4843
 5,8.49202,-2.54377\H,0,-4.35183,-0.8028,-4.15133\H,0,-4.40123,-0.86899
 ,-2.39127\H,0,-4.02187,0.64906,-3.20549\H,0,-0.41883,-3.42565,-3.2576\
 C,0,-0.74058,-2.38459,-3.22748\O,0,1.464,-1.51395,-3.13285\C,0,0.24467
 ,-1.34889,-3.16087\H,0,0.39636,0.69042,-3.07991\N,0,-0.26918,-0.06824,
 -3.12713\O,0,-1.95142,1.45727,-3.11697\C,0,-1.59294,0.29321,-3.15069\H
 ,0,-2.82778,-2.81329,-3.3022\C,0,-2.03938,-2.06347,-3.25187\C,0,-3.907
 97,-0.42415,-3.24266\N,0,-2.48207,-0.76153,-3.21532\H,0,-3.90415,3.403
 93,-7.59387\H,0,-2.9967,4.31082,-6.5858\H,0,-4.16376,3.34142,-5.98386\
 H,0,2.36014,-0.19267,-5.89423\H,0,0.87883,-0.99468,-6.16369\N,0,1.3742
 4,-0.13266,-6.05089\C,0,0.74705,1.04405,-6.10705\C,0,-1.14187,2.46923,
 -6.35713\N,0,-0.45101,3.61077,-6.20214\H,0,1.47523,4.22609,-5.86809\C,
 0,0.83995,3.35188,-6.0039\N,0,1.47005,2.17403,-5.94732\H,0,-3.72372,0.
 58564,-6.84532\C,0,-2.72376,0.98302,-6.66893\N,0,-1.64616,0.25144,-6.5
 2315\C,0,-0.63594,1.1814,-6.32476\C,0,-3.46696,3.43558,-6.69505\N,0,-2
 .49171,2.33393,-6.57991\\Version=EM64L-G16RevA.03\State=1-A\HF=-2048.7
 464484\RMSD=6.109e-09\Dipole=-3.7302407,0.2635077,-0.4791558\Quadrupol
 e=32.9252477,1.8946355,-34.8198832,28.6024041,-4.7758119,6.0497632\PG=
 C01 [X(C23H27N17O3)]\\@


 IT IS A QUALITY OF REVOLUTIONS NOT TO GO BY OLD LINES OR OLD LAWS,
 BUT TO BREAK UP BOTH, AND MAKE NEW ONES.
                                              -- A. LINCOLN (1848)
 Job cpu time:       0 days  5 hours 55 minutes 49.0 seconds.
 Elapsed time:       0 days  0 hours 11 minutes 31.2 seconds.
 File lengths (MBytes):  RWF=    298 Int=      0 D2E=      0 Chk=     33 Scr=      1
 Normal termination of Gaussian 16 at Mon Jan 22 16:51:58 2018.
