 Entering Gaussian System, Link 0=g16
 Input=str35.-5.-1.5.com
 Output=str35.-5.-1.5.log
 Initial command:
 /share/apps/g16/l1.exe "/state/partition1/scr/Gau-7713.inp" -scrdir="/state/partition1/scr/"
 Entering Link 1 = /share/apps/g16/l1.exe PID=      7714.
  
 Copyright (c) 1988,1990,1992,1993,1995,1998,2003,2009,2016,
            Gaussian, Inc.  All Rights Reserved.
  
 This is part of the Gaussian(R) 16 program.  It is based on
 the Gaussian(R) 09 system (copyright 2009, Gaussian, Inc.),
 the Gaussian(R) 03 system (copyright 2003, Gaussian, Inc.),
 the Gaussian(R) 98 system (copyright 1998, Gaussian, Inc.),
 the Gaussian(R) 94 system (copyright 1995, Gaussian, Inc.),
 the Gaussian 92(TM) system (copyright 1992, Gaussian, Inc.),
 the Gaussian 90(TM) system (copyright 1990, Gaussian, Inc.),
 the Gaussian 88(TM) system (copyright 1988, Gaussian, Inc.),
 the Gaussian 86(TM) system (copyright 1986, Carnegie Mellon
 University), and the Gaussian 82(TM) system (copyright 1983,
 Carnegie Mellon University). Gaussian is a federally registered
 trademark of Gaussian, Inc.
  
 This software contains proprietary and confidential information,
 including trade secrets, belonging to Gaussian, Inc.
  
 This software is provided under written license and may be
 used, copied, transmitted, or stored only in accord with that
 written license.
  
 The following legend is applicable only to US Government
 contracts under FAR:
  
                    RESTRICTED RIGHTS LEGEND
  
 Use, reproduction and disclosure by the US Government is
 subject to restrictions as set forth in subparagraphs (a)
 and (c) of the Commercial Computer Software - Restricted
 Rights clause in FAR 52.227-19.
  
 Gaussian, Inc.
 340 Quinnipiac St., Bldg. 40, Wallingford CT 06492
  
  
 ---------------------------------------------------------------
 Warning -- This program may not be used in any manner that
 competes with the business of Gaussian, Inc. or will provide
 assistance to any competitor of Gaussian, Inc.  The licensee
 of this program is prohibited from giving any competitor of
 Gaussian, Inc. access to this program.  By using this program,
 the user acknowledges that Gaussian, Inc. is engaged in the
 business of creating and licensing software in the field of
 computational chemistry and represents and warrants to the
 licensee that it is not a competitor of Gaussian, Inc. and that
 it will not use this program in any manner prohibited above.
 ---------------------------------------------------------------
  

 Cite this work as:
 Gaussian 16, Revision A.03,
 M. J. Frisch, G. W. Trucks, H. B. Schlegel, G. E. Scuseria, 
 M. A. Robb, J. R. Cheeseman, G. Scalmani, V. Barone, 
 G. A. Petersson, H. Nakatsuji, X. Li, M. Caricato, A. V. Marenich, 
 J. Bloino, B. G. Janesko, R. Gomperts, B. Mennucci, H. P. Hratchian, 
 J. V. Ortiz, A. F. Izmaylov, J. L. Sonnenberg, D. Williams-Young, 
 F. Ding, F. Lipparini, F. Egidi, J. Goings, B. Peng, A. Petrone, 
 T. Henderson, D. Ranasinghe, V. G. Zakrzewski, J. Gao, N. Rega, 
 G. Zheng, W. Liang, M. Hada, M. Ehara, K. Toyota, R. Fukuda, 
 J. Hasegawa, M. Ishida, T. Nakajima, Y. Honda, O. Kitao, H. Nakai, 
 T. Vreven, K. Throssell, J. A. Montgomery, Jr., J. E. Peralta, 
 F. Ogliaro, M. J. Bearpark, J. J. Heyd, E. N. Brothers, K. N. Kudin, 
 V. N. Staroverov, T. A. Keith, R. Kobayashi, J. Normand, 
 K. Raghavachari, A. P. Rendell, J. C. Burant, S. S. Iyengar, 
 J. Tomasi, M. Cossi, J. M. Millam, M. Klene, C. Adamo, R. Cammi, 
 J. W. Ochterski, R. L. Martin, K. Morokuma, O. Farkas, 
 J. B. Foresman, and D. J. Fox, Gaussian, Inc., Wallingford CT, 2016.
 
 ******************************************
 Gaussian 16:  EM64L-G16RevA.03 25-Dec-2016
                22-Jan-2018 
 ******************************************
 %nprocshared=32
 Will use up to   32 processors via shared memory.
 %mem=32GB
 %chk=allatoms_t.chk
 ---------------------------------------
 #p wb97xd/cc-pvdz sp scf=(maxcycles=20)
 ---------------------------------------
 1/38=1,172=1/1;
 2/12=2,17=6,18=5,40=1/2;
 3/5=16,11=2,25=1,30=1,74=-58/1,2,3;
 4//1;
 5/5=2,7=20,38=5/2;
 6/7=2,8=2,9=2,10=2,28=1/1;
 99/5=1,9=1/99;
 Leave Link    1 at Mon Jan 22 15:30:01 2018, MaxMem=  4294967296 cpu:               2.7 elap:               0.1
 (Enter /share/apps/g16/l101.exe)
 ------------------
 Base pair stacking
 ------------------
 Symbolic Z-matrix:
 Charge =  0 Multiplicity = 1
 N                     5.99539   5.74365  -6.89259 
 C                     6.69555   7.04056  -6.9689 
 C                     4.44227   4.19404  -6.73823 
 N                     5.65213   3.52238  -6.83736 
 C                     6.53941   4.48284  -6.92638 
 H                     7.61458   4.32699  -7.01943 
 N                     2.14144   4.67379  -6.54076 
 C                     2.48475   5.96519  -6.58554 
 H                     1.65621   6.66913  -6.5204 
 N                     3.69219   6.515    -6.69818 
 C                     4.63788   5.56378  -6.77088 
 C                     3.11599   3.74124  -6.6162 
 N                     2.77529   2.45163  -6.57167 
 H                     3.46359   1.72727  -6.62422 
 H                     1.82094   2.16572  -6.48431 
 H                     7.19565   7.10058  -7.83289 
 H                     6.02885   7.78359  -6.91847 
 H                     7.3387    7.11982  -6.20728 
 N                     1.90951   6.10055  -3.2912 
 C                     0.90378   5.16608  -3.23353 
 C                     1.71391   7.56357  -3.33611 
 N                    -2.48      4.39216  -3.12036 
 H                    -3.04772   3.5705   -3.07777 
 H                    -2.95577   5.27196  -3.13818 
 N                    -0.42144   5.42531  -3.2084 
 C                    -1.14079   4.31852  -3.15218 
 N                    -0.60526   3.05367  -3.12275 
 H                    -1.2318    2.26464  -3.07976 
 C                     0.75524   2.76337  -3.14773 
 O                     1.13435   1.58605  -3.11727 
 C                     1.5408    3.94241  -3.2081 
 N                     2.91872   4.10538  -3.24899 
 C                     3.09015   5.39862  -3.29752 
 H                     4.06011   5.8953   -3.33934 
 H                     2.11418   7.92943  -4.1756 
 H                     0.73602   7.76767  -3.318 
 H                     2.15598   7.98507  -2.54508 
 H                    -4.88472  -1.24519  -3.51564 
 H                    -4.65643  -1.39905  -1.77528 
 H                    -4.40411   0.15911  -2.56258 
 H                    -0.87041  -3.89371  -3.38441 
 C                    -1.17928  -2.85671  -3.25222 
 O                     1.01608  -1.98317  -3.46298 
 C                    -0.19176  -1.82173  -3.29026 
 H                    -0.02117   0.21161  -3.13288 
 N                    -0.68882  -0.54638  -3.11231 
 O                    -2.34241   0.97008  -2.76133 
 C                    -1.99832  -0.18943  -2.90898 
 H                    -3.25386  -3.2894   -3.01834 
 C                    -2.46442  -2.53991  -3.05563 
 C                    -4.30173  -0.91046  -2.67057 
 N                    -2.89069  -1.24315  -2.88507 
 H                    -5.58735   3.03644  -6.02388 
 H                    -4.43212   3.76923  -5.13473 
 H                    -5.42968   2.68074  -4.43894 
 H                     0.81739  -0.65885  -6.64806 
 H                    -0.70202  -1.43408  -6.67035 
 N                    -0.17421  -0.59484  -6.53506 
 C                    -0.76733   0.55794  -6.21806 
 C                    -2.6238    1.96032  -5.71949 
 N                    -1.88976   3.07152  -5.54387 
 H                     0.07188   3.66196  -5.60694 
 C                    -0.5973    2.81158  -5.73066 
 N                    -0.00128   1.65767  -6.04819 
 H                    -5.28814   0.13469  -5.8629 
 C                    -4.26722   0.51735  -5.87886 
 N                    -3.20544  -0.20312  -6.14575 
 C                    -2.15655   0.69968  -6.0481 
 C                    -4.93503   2.91693  -5.27542 
 N                    -3.98864   1.83556  -5.61159 
 
 ITRead=  0  0  0  0  0  0  0  0  0  0  0  0  0  0  0  0  0  0  0  0
 ITRead=  0  0  0  0  0  0  0  0  0  0  0  0  0  0  0  0  0  0  0  0
 ITRead=  0  0  0  0  0  0  0  0  0  0  0  0  0  0  0  0  0  0  0  0
 ITRead=  0  0  0  0  0  0  0  0  0  0
 MicOpt= -1 -1 -1 -1 -1 -1 -1 -1 -1 -1 -1 -1 -1 -1 -1 -1 -1 -1 -1 -1
 MicOpt= -1 -1 -1 -1 -1 -1 -1 -1 -1 -1 -1 -1 -1 -1 -1 -1 -1 -1 -1 -1
 MicOpt= -1 -1 -1 -1 -1 -1 -1 -1 -1 -1 -1 -1 -1 -1 -1 -1 -1 -1 -1 -1
 MicOpt= -1 -1 -1 -1 -1 -1 -1 -1 -1 -1
 NAtoms=     70 NQM=       70 NQMF=       0 NMMI=      0 NMMIF=      0
                NMic=       0 NMicF=      0.
                    Isotopes and Nuclear Properties:
 (Nuclear quadrupole moments (NQMom) in fm**2, nuclear magnetic moments (NMagM)
  in nuclear magnetons)

  Atom         1           2           3           4           5           6           7           8           9          10
 IAtWgt=          14          12          12          14          12           1          14          12           1          14
 AtmWgt=  14.0030740  12.0000000  12.0000000  14.0030740  12.0000000   1.0078250  14.0030740  12.0000000   1.0078250  14.0030740
 NucSpn=           2           0           0           2           0           1           2           0           1           2
 AtZEff=  -0.0000000  -0.0000000  -0.0000000  -0.0000000  -0.0000000  -0.0000000  -0.0000000  -0.0000000  -0.0000000  -0.0000000
 NQMom=    2.0440000   0.0000000   0.0000000   2.0440000   0.0000000   0.0000000   2.0440000   0.0000000   0.0000000   2.0440000
 NMagM=    0.4037610   0.0000000   0.0000000   0.4037610   0.0000000   2.7928460   0.4037610   0.0000000   2.7928460   0.4037610
 AtZNuc=   7.0000000   6.0000000   6.0000000   7.0000000   6.0000000   1.0000000   7.0000000   6.0000000   1.0000000   7.0000000

  Atom        11          12          13          14          15          16          17          18          19          20
 IAtWgt=          12          12          14           1           1           1           1           1          14          12
 AtmWgt=  12.0000000  12.0000000  14.0030740   1.0078250   1.0078250   1.0078250   1.0078250   1.0078250  14.0030740  12.0000000
 NucSpn=           0           0           2           1           1           1           1           1           2           0
 AtZEff=  -0.0000000  -0.0000000  -0.0000000  -0.0000000  -0.0000000  -0.0000000  -0.0000000  -0.0000000  -0.0000000  -0.0000000
 NQMom=    0.0000000   0.0000000   2.0440000   0.0000000   0.0000000   0.0000000   0.0000000   0.0000000   2.0440000   0.0000000
 NMagM=    0.0000000   0.0000000   0.4037610   2.7928460   2.7928460   2.7928460   2.7928460   2.7928460   0.4037610   0.0000000
 AtZNuc=   6.0000000   6.0000000   7.0000000   1.0000000   1.0000000   1.0000000   1.0000000   1.0000000   7.0000000   6.0000000

  Atom        21          22          23          24          25          26          27          28          29          30
 IAtWgt=          12          14           1           1          14          12          14           1          12          16
 AtmWgt=  12.0000000  14.0030740   1.0078250   1.0078250  14.0030740  12.0000000  14.0030740   1.0078250  12.0000000  15.9949146
 NucSpn=           0           2           1           1           2           0           2           1           0           0
 AtZEff=  -0.0000000  -0.0000000  -0.0000000  -0.0000000  -0.0000000  -0.0000000  -0.0000000  -0.0000000  -0.0000000  -0.0000000
 NQMom=    0.0000000   2.0440000   0.0000000   0.0000000   2.0440000   0.0000000   2.0440000   0.0000000   0.0000000   0.0000000
 NMagM=    0.0000000   0.4037610   2.7928460   2.7928460   0.4037610   0.0000000   0.4037610   2.7928460   0.0000000   0.0000000
 AtZNuc=   6.0000000   7.0000000   1.0000000   1.0000000   7.0000000   6.0000000   7.0000000   1.0000000   6.0000000   8.0000000

  Atom        31          32          33          34          35          36          37          38          39          40
 IAtWgt=          12          14          12           1           1           1           1           1           1           1
 AtmWgt=  12.0000000  14.0030740  12.0000000   1.0078250   1.0078250   1.0078250   1.0078250   1.0078250   1.0078250   1.0078250
 NucSpn=           0           2           0           1           1           1           1           1           1           1
 AtZEff=  -0.0000000  -0.0000000  -0.0000000  -0.0000000  -0.0000000  -0.0000000  -0.0000000  -0.0000000  -0.0000000  -0.0000000
 NQMom=    0.0000000   2.0440000   0.0000000   0.0000000   0.0000000   0.0000000   0.0000000   0.0000000   0.0000000   0.0000000
 NMagM=    0.0000000   0.4037610   0.0000000   2.7928460   2.7928460   2.7928460   2.7928460   2.7928460   2.7928460   2.7928460
 AtZNuc=   6.0000000   7.0000000   6.0000000   1.0000000   1.0000000   1.0000000   1.0000000   1.0000000   1.0000000   1.0000000

  Atom        41          42          43          44          45          46          47          48          49          50
 IAtWgt=           1          12          16          12           1          14          16          12           1          12
 AtmWgt=   1.0078250  12.0000000  15.9949146  12.0000000   1.0078250  14.0030740  15.9949146  12.0000000   1.0078250  12.0000000
 NucSpn=           1           0           0           0           1           2           0           0           1           0
 AtZEff=  -0.0000000  -0.0000000  -0.0000000  -0.0000000  -0.0000000  -0.0000000  -0.0000000  -0.0000000  -0.0000000  -0.0000000
 NQMom=    0.0000000   0.0000000   0.0000000   0.0000000   0.0000000   2.0440000   0.0000000   0.0000000   0.0000000   0.0000000
 NMagM=    2.7928460   0.0000000   0.0000000   0.0000000   2.7928460   0.4037610   0.0000000   0.0000000   2.7928460   0.0000000
 AtZNuc=   1.0000000   6.0000000   8.0000000   6.0000000   1.0000000   7.0000000   8.0000000   6.0000000   1.0000000   6.0000000

  Atom        51          52          53          54          55          56          57          58          59          60
 IAtWgt=          12          14           1           1           1           1           1          14          12          12
 AtmWgt=  12.0000000  14.0030740   1.0078250   1.0078250   1.0078250   1.0078250   1.0078250  14.0030740  12.0000000  12.0000000
 NucSpn=           0           2           1           1           1           1           1           2           0           0
 AtZEff=  -0.0000000  -0.0000000  -0.0000000  -0.0000000  -0.0000000  -0.0000000  -0.0000000  -0.0000000  -0.0000000  -0.0000000
 NQMom=    0.0000000   2.0440000   0.0000000   0.0000000   0.0000000   0.0000000   0.0000000   2.0440000   0.0000000   0.0000000
 NMagM=    0.0000000   0.4037610   2.7928460   2.7928460   2.7928460   2.7928460   2.7928460   0.4037610   0.0000000   0.0000000
 AtZNuc=   6.0000000   7.0000000   1.0000000   1.0000000   1.0000000   1.0000000   1.0000000   7.0000000   6.0000000   6.0000000

  Atom        61          62          63          64          65          66          67          68          69          70
 IAtWgt=          14           1          12          14           1          12          14          12          12          14
 AtmWgt=  14.0030740   1.0078250  12.0000000  14.0030740   1.0078250  12.0000000  14.0030740  12.0000000  12.0000000  14.0030740
 NucSpn=           2           1           0           2           1           0           2           0           0           2
 AtZEff=  -0.0000000  -0.0000000  -0.0000000  -0.0000000  -0.0000000  -0.0000000  -0.0000000  -0.0000000  -0.0000000  -0.0000000
 NQMom=    2.0440000   0.0000000   0.0000000   2.0440000   0.0000000   0.0000000   2.0440000   0.0000000   0.0000000   2.0440000
 NMagM=    0.4037610   2.7928460   0.0000000   0.4037610   2.7928460   0.0000000   0.4037610   0.0000000   0.0000000   0.4037610
 AtZNuc=   7.0000000   1.0000000   6.0000000   7.0000000   1.0000000   6.0000000   7.0000000   6.0000000   6.0000000   7.0000000
 Leave Link  101 at Mon Jan 22 15:30:02 2018, MaxMem=  4294967296 cpu:               7.7 elap:               0.3
 (Enter /share/apps/g16/l202.exe)
 Stoichiometry    C23H27N17O3
 Framework group  C1[X(C23H27N17O3)]
 Deg. of freedom   204
 Full point group                 C1      NOp   1
 Largest Abelian subgroup         C1      NOp   1
 Largest concise Abelian subgroup C1      NOp   1
                         Standard orientation:                         
 ---------------------------------------------------------------------
 Center     Atomic      Atomic             Coordinates (Angstroms)
 Number     Number       Type             X           Y           Z
 ---------------------------------------------------------------------
      1          7           0       -6.644645   -1.332964    0.466482
      2          6           0       -7.997055   -0.744385    0.415644
      3          6           0       -4.475097   -1.609939    0.698095
      4          7           0       -4.989644   -2.850261    0.349443
      5          6           0       -6.276122   -2.633756    0.223848
      6          1           0       -7.009329   -3.394188   -0.046499
      7          7           0       -2.997553    0.130693    1.289736
      8          6           0       -4.070799    0.927301    1.323498
      9          1           0       -3.871072    1.965781    1.584113
     10          7           0       -5.347714    0.635074    1.084790
     11          6           0       -5.483241   -0.664750    0.774106
     12          6           0       -3.167057   -1.171827    0.973827
     13          7           0       -2.096947   -1.968601    0.939603
     14          1           0       -2.175544   -2.939476    0.710606
     15          1           0       -1.180694   -1.622418    1.141585
     16          1           0       -8.589012   -1.208452    1.074742
     17          1           0       -7.946830    0.228108    0.641166
     18          1           0       -8.375562   -0.852524   -0.503610
     19          7           0       -3.045517    2.218419   -1.589183
     20          6           0       -1.692292    2.081732   -1.393856
     21          6           0       -3.819133    3.456755   -1.368404
     22          7           0        1.366606    3.444606   -0.473289
     23          1           0        2.315913    3.141216   -0.395720
     24          1           0        1.173509    4.396536   -0.233988
     25          7           0       -0.848780    3.047949   -0.970829
     26          6           0        0.395475    2.613023   -0.879854
     27          7           0        0.785888    1.330386   -1.179727
     28          1           0        1.759320    1.086130   -1.081040
     29          6           0       -0.064845    0.319858   -1.616697
     30          8           0        0.389244   -0.804947   -1.860318
     31          6           0       -1.404950    0.772038   -1.719350
     32          7           0       -2.554644    0.100022   -2.111131
     33          6           0       -3.500113    0.995401   -2.018398
     34          1           0       -4.550193    0.816098   -2.251733
     35          1           0       -4.521389    3.294086   -0.676169
     36          1           0       -3.204775    4.179589   -1.054828
     37          1           0       -4.253223    3.737523   -2.223712
     38          1           0        6.614174    0.331794    0.228194
     39          1           0        6.894744    0.534149   -1.499514
     40          1           0        5.571588    1.397212   -0.714816
     41          1           0        5.263062   -3.990612   -1.395955
     42          6           0        4.876800   -2.972842   -1.339474
     43          8           0        2.632518   -3.603831   -1.777823
     44          6           0        3.478687   -2.742443   -1.539532
     45          1           0        2.114727   -1.217282   -1.582395
     46          7           0        3.095231   -1.419708   -1.446879
     47          8           0        3.469627    0.797124   -1.126443
     48          6           0        3.902511   -0.340117   -1.189336
     49          1           0        6.759877   -2.061973   -0.926991
     50          6           0        5.689345   -1.940172   -1.086577
     51          6           0        6.138924    0.478510   -0.730282
     52          7           0        5.237612   -0.643194   -1.008032
     53          1           0        3.960928    3.412188    3.158855
     54          1           0        2.814793    3.552715    2.006140
     55          1           0        4.388731    3.457497    1.584578
     56          1           0        1.303702   -3.288313    1.395934
     57          1           0        2.928864   -3.028096    1.844510
     58          7           0        2.035192   -2.641940    1.613327
     59          6           0        1.829142   -1.323447    1.596002
     60          6           0        2.458004    0.959070    1.833432
     61          7           0        1.247461    1.449320    1.519325
     62          1           0       -0.613702    0.770195    0.994454
     63          6           0        0.395958    0.459245    1.259316
     64          7           0        0.600416   -0.861924    1.276119
     65          1           0        5.577025    1.025536    2.681659
     66          6           0        4.564873    0.735110    2.398532
     67          7           0        4.158082   -0.502112    2.251949
     68          6           0        2.823886   -0.374354    1.893685
     69          6           0        3.696710    3.140752    2.233378
     70          7           0        3.587753    1.670757    2.160794
 ---------------------------------------------------------------------
 Rotational constants (GHZ):           0.1537015           0.0524597           0.0481612
 Leave Link  202 at Mon Jan 22 15:30:02 2018, MaxMem=  4294967296 cpu:               6.7 elap:               0.2
 (Enter /share/apps/g16/l301.exe)
 Standard basis: CC-pVDZ (5D, 7F)
 Ernie: Thresh=  0.10000D-02 Tol=  0.10000D-05 Strict=F.
 Ernie:  86 primitive shells out of 1081 were deleted.
 There are   780 symmetry adapted cartesian basis functions of A   symmetry.
 There are   737 symmetry adapted basis functions of A   symmetry.
   737 basis functions,  1608 primitive gaussians,   780 cartesian basis functions
   154 alpha electrons      154 beta electrons
       nuclear repulsion energy      5519.5097841221 Hartrees.
 IExCor= 4639 DFT=T Ex+Corr=wB97XD ExCW=0 ScaHFX=  1.000000
 ScaDFX=  1.000000  1.000000  1.000000  1.000000 ScalE2=  1.000000  1.000000
 IRadAn=      5 IRanWt=     -1 IRanGd=            0 ICorTp=0 IEmpDi=121
 HFx  wShort=  0.000000 wLong=  0.200000 cFull=  0.222036 cShort=  0.000000 cLong=  0.777964
 DFx  wShort=  0.000000 wLong=  0.200000 cFull=  0.000000 cShort=  0.000000 cLong=  1.000000
 NAtoms=   70 NActive=   70 NUniq=   70 SFac= 1.00D+00 NAtFMM=   60 NAOKFM=T Big=T
 Integral buffers will be    131072 words long.
 Raffenetti 2 integral format.
 Two-electron integral symmetry is turned on.
 R6Disp:  Grimme-D2 Dispersion energy=       -0.0732247015 Hartrees.
 Nuclear repulsion after empirical dispersion term =     5519.4365594207 Hartrees.
 Leave Link  301 at Mon Jan 22 15:30:02 2018, MaxMem=  4294967296 cpu:               3.0 elap:               0.1
 (Enter /share/apps/g16/l302.exe)
 NPDir=0 NMtPBC=     1 NCelOv=     1 NCel=       1 NClECP=     1 NCelD=      1
         NCelK=      1 NCelE2=     1 NClLst=     1 CellRange=     0.0.
 One-electron integrals computed using PRISM.
 One-electron integral symmetry used in STVInt
 NBasis=   737 RedAO= T EigKep=  7.04D-04  NBF=   737
 NBsUse=   737 1.00D-06 EigRej= -1.00D+00 NBFU=   737
 Precomputing XC quadrature grid using
 IXCGrd= 4 IRadAn=           5 IRanWt=          -1 IRanGd=           0 AccXCQ= 0.00D+00.
 Generated NRdTot=       0 NPtTot=           0 NUsed=           0 NTot=          32
 NSgBfM=   767   767   767   767   767 MxSgAt=    70 MxSgA2=    70.
 Leave Link  302 at Mon Jan 22 15:30:06 2018, MaxMem=  4294967296 cpu:             136.0 elap:               4.3
 (Enter /share/apps/g16/l303.exe)
 DipDrv:  MaxL=1.
 Leave Link  303 at Mon Jan 22 15:30:07 2018, MaxMem=  4294967296 cpu:              12.4 elap:               0.4
 (Enter /share/apps/g16/l401.exe)
 ExpMin= 1.22D-01 ExpMax= 1.17D+04 ExpMxC= 4.01D+02 IAcc=3 IRadAn=         5 AccDes= 0.00D+00
 Harris functional with IExCor= 4639 and IRadAn=       5 diagonalized for initial guess.
 HarFok:  IExCor= 4639 AccDes= 0.00D+00 IRadAn=         5 IDoV= 1 UseB2=F ITyADJ=14
 ICtDFT=  3500011 ScaDFX=  1.000000  1.000000  1.000000  1.000000
 FoFCou: FMM=F IPFlag=           0 FMFlag=      100000 FMFlg1=        2001
         NFxFlg=           0 DoJE=T BraDBF=F KetDBF=T FulRan=T
         wScrn=  0.000000 ICntrl=       500 IOpCl=  0 I1Cent=   200000004 NGrid=           0
         NMat0=    1 NMatS0=      1 NMatT0=    0 NMatD0=    1 NMtDS0=    0 NMtDT0=    0
 Petite list used in FoFCou.
 Harris En= -1963.87414358307    
 JPrj=0 DoOrth=F DoCkMO=F.
 Leave Link  401 at Mon Jan 22 15:30:19 2018, MaxMem=  4294967296 cpu:             402.5 elap:              12.6
 (Enter /share/apps/g16/l502.exe)
 Integral symmetry usage will be decided dynamically.
 Closed shell SCF:
 Using DIIS extrapolation, IDIIS=  1040.
 NGot=  4294967296 LenX=  4293717438 LenY=  4293108258
 Requested convergence on RMS density matrix=1.00D-08 within  20 cycles.
 Requested convergence on MAX density matrix=1.00D-06.
 Requested convergence on             energy=1.00D-06.
 No special actions if energy rises.
 Fock matrices will be formed incrementally for  20 cycles.
 Integral accuracy reduced to 1.0D-05 until final iterations.

 Cycle   1  Pass 0  IDiag  1:
 FoFJK:  IHMeth= 1 ICntrl=       0 DoSepK=T KAlg= 0 I1Cent=           0 FoldK=F
 IRaf=         1 NMat=       1 IRICut=       1 DoRegI=T DoRafI=F ISym2E= 0 IDoP0=0 IntGTp=1.
 FoFCou: FMM=T IPFlag=           0 FMFlag=      100000 FMFlg1=        2001
         NFxFlg=           0 DoJE=T BraDBF=F KetDBF=F FulRan=T
         wScrn=  0.000000 ICntrl=       500 IOpCl=  0 I1Cent=           0 NGrid=           0
         NMat0=    1 NMatS0=      1 NMatT0=    0 NMatD0=    1 NMtDS0=    0 NMtDT0=    0
 Symmetry not used in FoFCou.
 FMM levels:  10  Number of levels for PrismC:   9
 E= -2048.30955309855    
 DIIS: error= 2.54D-02 at cycle   1 NSaved=   1.
 NSaved= 1 IEnMin= 1 EnMin= -2048.30955309855     IErMin= 1 ErrMin= 2.54D-02
 ErrMax= 2.54D-02  0.00D+00 EMaxC= 1.00D-01 BMatC= 8.29D-01 BMatP= 8.29D-01
 IDIUse=3 WtCom= 7.46D-01 WtEn= 2.54D-01
 Coeff-Com:  0.100D+01
 Coeff-En:   0.100D+01
 Coeff:      0.100D+01
 Gap=     0.256 Goal=   None    Shift=    0.000
 GapD=    0.256 DampG=1.000 DampE=0.500 DampFc=0.5000 IDamp=-1.
 Damping current iteration by 5.00D-01
 RMSDP=1.57D-03 MaxDP=1.30D-01              OVMax= 1.91D-01

 Cycle   2  Pass 0  IDiag  1:
 RMSU=  7.83D-04    CP:  9.98D-01
 E= -2048.50588240911     Delta-E=       -0.196329310563 Rises=F Damp=T
 DIIS: error= 1.42D-02 at cycle   2 NSaved=   2.
 NSaved= 2 IEnMin= 2 EnMin= -2048.50588240911     IErMin= 2 ErrMin= 1.42D-02
 ErrMax= 1.42D-02  0.00D+00 EMaxC= 1.00D-01 BMatC= 1.45D-01 BMatP= 8.29D-01
 IDIUse=3 WtCom= 8.58D-01 WtEn= 1.42D-01
 Coeff-Com: -0.200D+00 0.120D+01
 Coeff-En:   0.000D+00 0.100D+01
 Coeff:     -0.171D+00 0.117D+01
 Gap=     0.360 Goal=   None    Shift=    0.000
 RMSDP=5.86D-04 MaxDP=3.34D-02 DE=-1.96D-01 OVMax= 1.57D-01

 Cycle   3  Pass 0  IDiag  1:
 RMSU=  5.74D-04    CP:  9.94D-01  1.14D+00
 E= -2048.68562421256     Delta-E=       -0.179741803455 Rises=F Damp=F
 DIIS: error= 8.35D-03 at cycle   3 NSaved=   3.
 NSaved= 3 IEnMin= 3 EnMin= -2048.68562421256     IErMin= 3 ErrMin= 8.35D-03
 ErrMax= 8.35D-03  0.00D+00 EMaxC= 1.00D-01 BMatC= 6.08D-02 BMatP= 1.45D-01
 IDIUse=3 WtCom= 9.16D-01 WtEn= 8.35D-02
 Coeff-Com: -0.230D+00 0.544D+00 0.686D+00
 Coeff-En:   0.000D+00 0.000D+00 0.100D+01
 Coeff:     -0.211D+00 0.499D+00 0.712D+00
 Gap=     0.279 Goal=   None    Shift=    0.000
 RMSDP=3.56D-04 MaxDP=3.32D-02 DE=-1.80D-01 OVMax= 7.51D-02

 Cycle   4  Pass 0  IDiag  1:
 RMSU=  2.03D-04    CP:  9.94D-01  1.42D+00  6.70D-01
 E= -2048.73142934991     Delta-E=       -0.045805137343 Rises=F Damp=F
 DIIS: error= 3.02D-03 at cycle   4 NSaved=   4.
 NSaved= 4 IEnMin= 4 EnMin= -2048.73142934991     IErMin= 4 ErrMin= 3.02D-03
 ErrMax= 3.02D-03  0.00D+00 EMaxC= 1.00D-01 BMatC= 9.29D-03 BMatP= 6.08D-02
 IDIUse=3 WtCom= 9.70D-01 WtEn= 3.02D-02
 Coeff-Com: -0.943D-01 0.183D+00 0.383D+00 0.529D+00
 Coeff-En:   0.000D+00 0.000D+00 0.765D-01 0.924D+00
 Coeff:     -0.914D-01 0.177D+00 0.374D+00 0.540D+00
 Gap=     0.284 Goal=   None    Shift=    0.000
 RMSDP=1.29D-04 MaxDP=1.21D-02 DE=-4.58D-02 OVMax= 1.45D-02

 Cycle   5  Pass 0  IDiag  1:
 RMSU=  6.13D-05    CP:  9.94D-01  1.39D+00  8.07D-01  6.12D-01
 E= -2048.73914279862     Delta-E=       -0.007713448713 Rises=F Damp=F
 DIIS: error= 6.02D-04 at cycle   5 NSaved=   5.
 NSaved= 5 IEnMin= 5 EnMin= -2048.73914279862     IErMin= 5 ErrMin= 6.02D-04
 ErrMax= 6.02D-04  0.00D+00 EMaxC= 1.00D-01 BMatC= 2.89D-04 BMatP= 9.29D-03
 IDIUse=3 WtCom= 9.94D-01 WtEn= 6.02D-03
 Coeff-Com: -0.237D-01 0.404D-01 0.122D+00 0.238D+00 0.624D+00
 Coeff-En:   0.000D+00 0.000D+00 0.000D+00 0.000D+00 0.100D+01
 Coeff:     -0.236D-01 0.402D-01 0.121D+00 0.236D+00 0.626D+00
 Gap=     0.284 Goal=   None    Shift=    0.000
 RMSDP=2.61D-05 MaxDP=1.95D-03 DE=-7.71D-03 OVMax= 3.22D-03

 Failed to achieve initial convergence to 1.0D-08 in  6 cycles.
 Switch to full accuracy anyway.
 Cycle   6  Pass 1  IDiag  1:
 E= -2048.73937986690     Delta-E=       -0.000237068281 Rises=F Damp=F
 DIIS: error= 2.40D-04 at cycle   1 NSaved=   1.
 NSaved= 1 IEnMin= 1 EnMin= -2048.73937986690     IErMin= 1 ErrMin= 2.40D-04
 ErrMax= 2.40D-04  0.00D+00 EMaxC= 1.00D-01 BMatC= 7.39D-05 BMatP= 7.39D-05
 IDIUse=3 WtCom= 9.98D-01 WtEn= 2.40D-03
 Coeff-Com:  0.100D+01
 Coeff-En:   0.100D+01
 Coeff:      0.100D+01
 Gap=     0.284 Goal=   None    Shift=    0.000
 RMSDP=2.61D-05 MaxDP=1.95D-03 DE=-2.37D-04 OVMax= 2.67D-03

 Cycle   7  Pass 1  IDiag  1:
 RMSU=  1.11D-04    CP:  1.00D+00
 E= -2048.73943440676     Delta-E=       -0.000054539863 Rises=F Damp=F
 DIIS: error= 2.28D-04 at cycle   2 NSaved=   2.
 NSaved= 2 IEnMin= 2 EnMin= -2048.73943440676     IErMin= 2 ErrMin= 2.28D-04
 ErrMax= 2.28D-04  0.00D+00 EMaxC= 1.00D-01 BMatC= 4.16D-05 BMatP= 7.39D-05
 IDIUse=3 WtCom= 9.98D-01 WtEn= 2.28D-03
 Coeff-Com:  0.403D+00 0.597D+00
 Coeff-En:   0.000D+00 0.100D+01
 Coeff:      0.402D+00 0.598D+00
 Gap=     0.284 Goal=   None    Shift=    0.000
 RMSDP=1.12D-05 MaxDP=1.11D-03 DE=-5.45D-05 OVMax= 1.48D-03

 Cycle   8  Pass 1  IDiag  1:
 RMSU=  1.09D-05    CP:  1.00D+00  1.02D+00
 E= -2048.73946441946     Delta-E=       -0.000030012699 Rises=F Damp=F
 DIIS: error= 9.75D-05 at cycle   3 NSaved=   3.
 NSaved= 3 IEnMin= 3 EnMin= -2048.73946441946     IErMin= 3 ErrMin= 9.75D-05
 ErrMax= 9.75D-05  0.00D+00 EMaxC= 1.00D-01 BMatC= 1.01D-05 BMatP= 4.16D-05
 IDIUse=1 WtCom= 1.00D+00 WtEn= 0.00D+00
 Coeff-Com: -0.196D-01 0.316D+00 0.703D+00
 Coeff:     -0.196D-01 0.316D+00 0.703D+00
 Gap=     0.284 Goal=   None    Shift=    0.000
 RMSDP=5.55D-06 MaxDP=4.63D-04 DE=-3.00D-05 OVMax= 5.49D-04

 Cycle   9  Pass 1  IDiag  1:
 RMSU=  3.78D-06    CP:  1.00D+00  1.05D+00  7.58D-01
 E= -2048.73947379192     Delta-E=       -0.000009372455 Rises=F Damp=F
 DIIS: error= 4.51D-05 at cycle   4 NSaved=   4.
 NSaved= 4 IEnMin= 4 EnMin= -2048.73947379192     IErMin= 4 ErrMin= 4.51D-05
 ErrMax= 4.51D-05  0.00D+00 EMaxC= 1.00D-01 BMatC= 4.85D-07 BMatP= 1.01D-05
 IDIUse=1 WtCom= 1.00D+00 WtEn= 0.00D+00
 Coeff-Com: -0.303D-01 0.864D-01 0.258D+00 0.686D+00
 Coeff:     -0.303D-01 0.864D-01 0.258D+00 0.686D+00
 Gap=     0.284 Goal=   None    Shift=    0.000
 RMSDP=1.41D-06 MaxDP=1.39D-04 DE=-9.37D-06 OVMax= 5.16D-04

 Cycle  10  Pass 1  IDiag  1:
 RMSU=  1.27D-06    CP:  1.00D+00  1.06D+00  7.91D-01  1.10D+00
 E= -2048.73947460305     Delta-E=       -0.000000811136 Rises=F Damp=F
 DIIS: error= 1.67D-05 at cycle   5 NSaved=   5.
 NSaved= 5 IEnMin= 5 EnMin= -2048.73947460305     IErMin= 5 ErrMin= 1.67D-05
 ErrMax= 1.67D-05  0.00D+00 EMaxC= 1.00D-01 BMatC= 1.18D-07 BMatP= 4.85D-07
 IDIUse=1 WtCom= 1.00D+00 WtEn= 0.00D+00
 Coeff-Com: -0.284D-02-0.575D-01-0.122D+00 0.206D+00 0.976D+00
 Coeff:     -0.284D-02-0.575D-01-0.122D+00 0.206D+00 0.976D+00
 Gap=     0.284 Goal=   None    Shift=    0.000
 RMSDP=1.19D-06 MaxDP=7.59D-05 DE=-8.11D-07 OVMax= 2.47D-04

 Cycle  11  Pass 1  IDiag  1:
 RMSU=  4.93D-07    CP:  1.00D+00  1.06D+00  8.01D-01  1.38D+00  1.17D+00
 E= -2048.73947485465     Delta-E=       -0.000000251596 Rises=F Damp=F
 DIIS: error= 1.10D-05 at cycle   6 NSaved=   6.
 NSaved= 6 IEnMin= 6 EnMin= -2048.73947485465     IErMin= 6 ErrMin= 1.10D-05
 ErrMax= 1.10D-05  0.00D+00 EMaxC= 1.00D-01 BMatC= 2.72D-08 BMatP= 1.18D-07
 IDIUse=1 WtCom= 1.00D+00 WtEn= 0.00D+00
 Coeff-Com:  0.453D-02-0.457D-01-0.113D+00 0.143D-02 0.519D+00 0.634D+00
 Coeff:      0.453D-02-0.457D-01-0.113D+00 0.143D-02 0.519D+00 0.634D+00
 Gap=     0.284 Goal=   None    Shift=    0.000
 RMSDP=3.53D-07 MaxDP=3.71D-05 DE=-2.52D-07 OVMax= 1.30D-04

 Cycle  12  Pass 1  IDiag  1:
 RMSU=  1.78D-07    CP:  1.00D+00  1.06D+00  8.03D-01  1.44D+00  1.29D+00
                    CP:  9.36D-01
 E= -2048.73947489374     Delta-E=       -0.000000039088 Rises=F Damp=F
 DIIS: error= 1.52D-06 at cycle   7 NSaved=   7.
 NSaved= 7 IEnMin= 7 EnMin= -2048.73947489374     IErMin= 7 ErrMin= 1.52D-06
 ErrMax= 1.52D-06  0.00D+00 EMaxC= 1.00D-01 BMatC= 7.75D-10 BMatP= 2.72D-08
 IDIUse=1 WtCom= 1.00D+00 WtEn= 0.00D+00
 Coeff-Com:  0.105D-02-0.706D-02-0.189D-01-0.760D-02 0.515D-01 0.135D+00
 Coeff-Com:  0.846D+00
 Coeff:      0.105D-02-0.706D-02-0.189D-01-0.760D-02 0.515D-01 0.135D+00
 Coeff:      0.846D+00
 Gap=     0.284 Goal=   None    Shift=    0.000
 RMSDP=8.46D-08 MaxDP=5.18D-06 DE=-3.91D-08 OVMax= 2.29D-05

 Cycle  13  Pass 1  IDiag  1:
 RMSU=  4.90D-08    CP:  1.00D+00  1.06D+00  8.02D-01  1.45D+00  1.31D+00
                    CP:  1.03D+00  1.15D+00
 E= -2048.73947489565     Delta-E=       -0.000000001908 Rises=F Damp=F
 DIIS: error= 7.84D-07 at cycle   8 NSaved=   8.
 NSaved= 8 IEnMin= 8 EnMin= -2048.73947489565     IErMin= 8 ErrMin= 7.84D-07
 ErrMax= 7.84D-07  0.00D+00 EMaxC= 1.00D-01 BMatC= 3.10D-10 BMatP= 7.75D-10
 IDIUse=1 WtCom= 1.00D+00 WtEn= 0.00D+00
 Coeff-Com: -0.670D-03 0.854D-02 0.203D-01-0.243D-02-0.110D+00-0.940D-01
 Coeff-Com:  0.428D+00 0.751D+00
 Coeff:     -0.670D-03 0.854D-02 0.203D-01-0.243D-02-0.110D+00-0.940D-01
 Coeff:      0.428D+00 0.751D+00
 Gap=     0.284 Goal=   None    Shift=    0.000
 RMSDP=4.41D-08 MaxDP=2.72D-06 DE=-1.91D-09 OVMax= 1.10D-05

 Cycle  14  Pass 1  IDiag  1:
 RMSU=  2.65D-08    CP:  1.00D+00  1.06D+00  8.02D-01  1.46D+00  1.32D+00
                    CP:  1.07D+00  1.29D+00  1.07D+00
 E= -2048.73947489607     Delta-E=       -0.000000000424 Rises=F Damp=F
 DIIS: error= 2.40D-07 at cycle   9 NSaved=   9.
 NSaved= 9 IEnMin= 9 EnMin= -2048.73947489607     IErMin= 9 ErrMin= 2.40D-07
 ErrMax= 2.40D-07  0.00D+00 EMaxC= 1.00D-01 BMatC= 3.17D-11 BMatP= 3.10D-10
 IDIUse=1 WtCom= 1.00D+00 WtEn= 0.00D+00
 Coeff-Com: -0.413D-03 0.459D-02 0.111D-01 0.329D-04-0.539D-01-0.568D-01
 Coeff-Com:  0.871D-01 0.308D+00 0.700D+00
 Coeff:     -0.413D-03 0.459D-02 0.111D-01 0.329D-04-0.539D-01-0.568D-01
 Coeff:      0.871D-01 0.308D+00 0.700D+00
 Gap=     0.284 Goal=   None    Shift=    0.000
 RMSDP=1.35D-08 MaxDP=8.96D-07 DE=-4.24D-10 OVMax= 3.50D-06

 Cycle  15  Pass 1  IDiag  1:
 RMSU=  9.13D-09    CP:  1.00D+00  1.06D+00  8.02D-01  1.46D+00  1.32D+00
                    CP:  1.08D+00  1.31D+00  1.21D+00  1.11D+00
 E= -2048.73947489604     Delta-E=        0.000000000028 Rises=F Damp=F
 DIIS: error= 8.97D-08 at cycle  10 NSaved=  10.
 NSaved=10 IEnMin= 9 EnMin= -2048.73947489607     IErMin=10 ErrMin= 8.97D-08
 ErrMax= 8.97D-08  0.00D+00 EMaxC= 1.00D-01 BMatC= 5.50D-12 BMatP= 3.17D-11
 IDIUse=1 WtCom= 1.00D+00 WtEn= 0.00D+00
 Coeff-Com: -0.110D-05-0.247D-03-0.483D-03 0.202D-03 0.466D-02 0.274D-03
 Coeff-Com: -0.551D-01-0.536D-01 0.277D+00 0.828D+00
 Coeff:     -0.110D-05-0.247D-03-0.483D-03 0.202D-03 0.466D-02 0.274D-03
 Coeff:     -0.551D-01-0.536D-01 0.277D+00 0.828D+00
 Gap=     0.284 Goal=   None    Shift=    0.000
 RMSDP=6.71D-09 MaxDP=4.00D-07 DE= 2.82D-11 OVMax= 1.46D-06

 SCF Done:  E(RwB97XD) =  -2048.73947490     A.U. after   15 cycles
            NFock= 15  Conv=0.67D-08     -V/T= 2.0054
 KE= 2.037781290531D+03 PE=-1.581969653236D+04 EE= 6.213739207515D+03
 Leave Link  502 at Mon Jan 22 15:41:55 2018, MaxMem=  4294967296 cpu:           21533.4 elap:             695.3
 (Enter /share/apps/g16/l601.exe)
 Copying SCF densities to generalized density rwf, IOpCl= 0 IROHF=0.

 **********************************************************************

            Population analysis using the SCF density.

 **********************************************************************

 Orbital symmetries:
       Occupied  (A) (A) (A) (A) (A) (A) (A) (A) (A) (A) (A) (A)
                 (A) (A) (A) (A) (A) (A) (A) (A) (A) (A) (A) (A)
                 (A) (A) (A) (A) (A) (A) (A) (A) (A) (A) (A) (A)
                 (A) (A) (A) (A) (A) (A) (A) (A) (A) (A) (A) (A)
                 (A) (A) (A) (A) (A) (A) (A) (A) (A) (A) (A) (A)
                 (A) (A) (A) (A) (A) (A) (A) (A) (A) (A) (A) (A)
                 (A) (A) (A) (A) (A) (A) (A) (A) (A) (A) (A) (A)
                 (A) (A) (A) (A) (A) (A) (A) (A) (A) (A) (A) (A)
                 (A) (A) (A) (A) (A) (A) (A) (A) (A) (A) (A) (A)
                 (A) (A) (A) (A) (A) (A) (A) (A) (A) (A) (A) (A)
                 (A) (A) (A) (A) (A) (A) (A) (A) (A) (A) (A) (A)
                 (A) (A) (A) (A) (A) (A) (A) (A) (A) (A) (A) (A)
                 (A) (A) (A) (A) (A) (A) (A) (A) (A) (A)
       Virtual   (A) (A) (A) (A) (A) (A) (A) (A) (A) (A) (A) (A)
                 (A) (A) (A) (A) (A) (A) (A) (A) (A) (A) (A) (A)
                 (A) (A) (A) (A) (A) (A) (A) (A) (A) (A) (A) (A)
                 (A) (A) (A) (A) (A) (A) (A) (A) (A) (A) (A) (A)
                 (A) (A) (A) (A) (A) (A) (A) (A) (A) (A) (A) (A)
                 (A) (A) (A) (A) (A) (A) (A) (A) (A) (A) (A) (A)
                 (A) (A) (A) (A) (A) (A) (A) (A) (A) (A) (A) (A)
                 (A) (A) (A) (A) (A) (A) (A) (A) (A) (A) (A) (A)
                 (A) (A) (A) (A) (A) (A) (A) (A) (A) (A) (A) (A)
                 (A) (A) (A) (A) (A) (A) (A) (A) (A) (A) (A) (A)
                 (A) (A) (A) (A) (A) (A) (A) (A) (A) (A) (A) (A)
                 (A) (A) (A) (A) (A) (A) (A) (A) (A) (A) (A) (A)
                 (A) (A) (A) (A) (A) (A) (A) (A) (A) (A) (A) (A)
                 (A) (A) (A) (A) (A) (A) (A) (A) (A) (A) (A) (A)
                 (A) (A) (A) (A) (A) (A) (A) (A) (A) (A) (A) (A)
                 (A) (A) (A) (A) (A) (A) (A) (A) (A) (A) (A) (A)
                 (A) (A) (A) (A) (A) (A) (A) (A) (A) (A) (A) (A)
                 (A) (A) (A) (A) (A) (A) (A) (A) (A) (A) (A) (A)
                 (A) (A) (A) (A) (A) (A) (A) (A) (A) (A) (A) (A)
                 (A) (A) (A) (A) (A) (A) (A) (A) (A) (A) (A) (A)
                 (A) (A) (A) (A) (A) (A) (A) (A) (A) (A) (A) (A)
                 (A) (A) (A) (A) (A) (A) (A) (A) (A) (A) (A) (A)
                 (A) (A) (A) (A) (A) (A) (A) (A) (A) (A) (A) (A)
                 (A) (A) (A) (A) (A) (A) (A) (A) (A) (A) (A) (A)
                 (A) (A) (A) (A) (A) (A) (A) (A) (A) (A) (A) (A)
                 (A) (A) (A) (A) (A) (A) (A) (A) (A) (A) (A) (A)
                 (A) (A) (A) (A) (A) (A) (A) (A) (A) (A) (A) (A)
                 (A) (A) (A) (A) (A) (A) (A) (A) (A) (A) (A) (A)
                 (A) (A) (A) (A) (A) (A) (A) (A) (A) (A) (A) (A)
                 (A) (A) (A) (A) (A) (A) (A) (A) (A) (A) (A) (A)
                 (A) (A) (A) (A) (A) (A) (A) (A) (A) (A) (A) (A)
                 (A) (A) (A) (A) (A) (A) (A) (A) (A) (A) (A) (A)
                 (A) (A) (A) (A) (A) (A) (A) (A) (A) (A) (A) (A)
                 (A) (A) (A) (A) (A) (A) (A) (A) (A) (A) (A) (A)
                 (A) (A) (A) (A) (A) (A) (A) (A) (A) (A) (A) (A)
                 (A) (A) (A) (A) (A) (A) (A) (A) (A) (A) (A) (A)
                 (A) (A) (A) (A) (A) (A) (A) (A) (A) (A) (A) (A)
                 (A) (A) (A) (A) (A) (A) (A) (A) (A) (A) (A) (A)
                 (A) (A) (A) (A) (A) (A) (A) (A) (A) (A) (A) (A)
                 (A) (A) (A) (A) (A) (A) (A) (A) (A) (A) (A) (A)
                 (A) (A) (A) (A) (A) (A) (A) (A) (A) (A) (A) (A)
                 (A) (A) (A) (A) (A) (A) (A) (A) (A) (A) (A) (A)
                 (A) (A) (A) (A) (A) (A) (A) (A) (A) (A) (A) (A)
                 (A) (A) (A) (A) (A) (A) (A) (A) (A) (A) (A) (A)
                 (A) (A) (A) (A) (A) (A) (A) (A) (A) (A) (A) (A)
                 (A) (A) (A) (A) (A) (A) (A) (A) (A) (A) (A) (A)
                 (A) (A) (A) (A) (A) (A) (A) (A) (A) (A) (A) (A)
                 (A) (A) (A) (A) (A) (A) (A) (A) (A) (A) (A) (A)
                 (A) (A) (A) (A) (A) (A) (A)
 The electronic state is 1-A.
 Alpha  occ. eigenvalues --  -19.25950 -19.22001 -19.20586 -14.52422 -14.51786
 Alpha  occ. eigenvalues --  -14.49257 -14.48571 -14.47904 -14.47102 -14.46662
 Alpha  occ. eigenvalues --  -14.46443 -14.44821 -14.43314 -14.42954 -14.42620
 Alpha  occ. eigenvalues --  -14.42024 -14.41879 -14.41505 -14.40680 -14.40611
 Alpha  occ. eigenvalues --  -10.45541 -10.41017 -10.40129 -10.38966 -10.38129
 Alpha  occ. eigenvalues --  -10.37754 -10.37380 -10.36351 -10.35880 -10.35461
 Alpha  occ. eigenvalues --  -10.34935 -10.34536 -10.34243 -10.33864 -10.33853
 Alpha  occ. eigenvalues --  -10.33620 -10.33126 -10.31713 -10.31415 -10.31035
 Alpha  occ. eigenvalues --  -10.30514 -10.29014 -10.28012  -1.19507  -1.14478
 Alpha  occ. eigenvalues --   -1.13177  -1.13032  -1.11836  -1.10457  -1.09316
 Alpha  occ. eigenvalues --   -1.08522  -1.08253  -1.05463  -1.03858  -1.02522
 Alpha  occ. eigenvalues --   -1.00911  -1.00331  -0.99636  -0.98471  -0.97425
 Alpha  occ. eigenvalues --   -0.96409  -0.95876  -0.93118  -0.91025  -0.86973
 Alpha  occ. eigenvalues --   -0.85478  -0.84421  -0.83951  -0.83751  -0.82777
 Alpha  occ. eigenvalues --   -0.82268  -0.78857  -0.76264  -0.74527  -0.74012
 Alpha  occ. eigenvalues --   -0.73576  -0.73377  -0.73357  -0.71555  -0.69677
 Alpha  occ. eigenvalues --   -0.67286  -0.66770  -0.66554  -0.66016  -0.64439
 Alpha  occ. eigenvalues --   -0.63675  -0.63577  -0.63138  -0.62672  -0.61626
 Alpha  occ. eigenvalues --   -0.60678  -0.60276  -0.59821  -0.59493  -0.58984
 Alpha  occ. eigenvalues --   -0.58877  -0.58222  -0.57059  -0.56901  -0.56540
 Alpha  occ. eigenvalues --   -0.55999  -0.55795  -0.55042  -0.54680  -0.54358
 Alpha  occ. eigenvalues --   -0.53755  -0.53550  -0.52992  -0.52805  -0.52569
 Alpha  occ. eigenvalues --   -0.52548  -0.52199  -0.52051  -0.51244  -0.50651
 Alpha  occ. eigenvalues --   -0.50044  -0.49599  -0.49438  -0.48955  -0.48728
 Alpha  occ. eigenvalues --   -0.48702  -0.48202  -0.48010  -0.47660  -0.47421
 Alpha  occ. eigenvalues --   -0.47357  -0.45592  -0.45359  -0.43953  -0.43569
 Alpha  occ. eigenvalues --   -0.41691  -0.40143  -0.39510  -0.37691  -0.37371
 Alpha  occ. eigenvalues --   -0.37198  -0.36967  -0.36518  -0.35842  -0.34165
 Alpha  occ. eigenvalues --   -0.34147  -0.33932  -0.33704  -0.33189  -0.32935
 Alpha  occ. eigenvalues --   -0.32623  -0.32188  -0.31947  -0.31770  -0.31424
 Alpha  occ. eigenvalues --   -0.30860  -0.28793  -0.26244  -0.25336
 Alpha virt. eigenvalues --    0.03092   0.04785   0.07488   0.07676   0.08929
 Alpha virt. eigenvalues --    0.09157   0.09639   0.10417   0.10999   0.11383
 Alpha virt. eigenvalues --    0.12952   0.13757   0.14406   0.14675   0.14742
 Alpha virt. eigenvalues --    0.15897   0.16105   0.16925   0.17129   0.18177
 Alpha virt. eigenvalues --    0.18633   0.19189   0.19562   0.20162   0.20185
 Alpha virt. eigenvalues --    0.20626   0.21246   0.21684   0.21848   0.22060
 Alpha virt. eigenvalues --    0.23219   0.23365   0.23423   0.23652   0.23912
 Alpha virt. eigenvalues --    0.24044   0.24253   0.24438   0.25054   0.25598
 Alpha virt. eigenvalues --    0.26157   0.26664   0.26937   0.27165   0.28155
 Alpha virt. eigenvalues --    0.28539   0.29358   0.29650   0.30438   0.30811
 Alpha virt. eigenvalues --    0.31164   0.32314   0.32847   0.33149   0.33664
 Alpha virt. eigenvalues --    0.33708   0.34601   0.34874   0.35857   0.36315
 Alpha virt. eigenvalues --    0.36882   0.37557   0.37883   0.39408   0.39621
 Alpha virt. eigenvalues --    0.40217   0.40495   0.41318   0.41520   0.41723
 Alpha virt. eigenvalues --    0.42276   0.42396   0.43212   0.44078   0.44679
 Alpha virt. eigenvalues --    0.44986   0.45397   0.46059   0.46401   0.47292
 Alpha virt. eigenvalues --    0.47783   0.48191   0.48913   0.49166   0.49590
 Alpha virt. eigenvalues --    0.49858   0.50331   0.50573   0.50874   0.51348
 Alpha virt. eigenvalues --    0.51463   0.51872   0.52544   0.53156   0.54091
 Alpha virt. eigenvalues --    0.54263   0.54620   0.54711   0.54926   0.55639
 Alpha virt. eigenvalues --    0.56011   0.56447   0.56827   0.57333   0.57431
 Alpha virt. eigenvalues --    0.57585   0.58187   0.59109   0.59344   0.59759
 Alpha virt. eigenvalues --    0.60326   0.60626   0.60789   0.61157   0.61425
 Alpha virt. eigenvalues --    0.61818   0.62047   0.63186   0.63467   0.63755
 Alpha virt. eigenvalues --    0.64049   0.64701   0.64975   0.65117   0.65272
 Alpha virt. eigenvalues --    0.66005   0.66244   0.66718   0.67225   0.67460
 Alpha virt. eigenvalues --    0.67915   0.68367   0.68827   0.69368   0.69825
 Alpha virt. eigenvalues --    0.70382   0.70985   0.71206   0.71721   0.71950
 Alpha virt. eigenvalues --    0.72416   0.72887   0.73278   0.73547   0.74018
 Alpha virt. eigenvalues --    0.74315   0.74551   0.74795   0.75092   0.75194
 Alpha virt. eigenvalues --    0.76007   0.76305   0.76483   0.76619   0.77011
 Alpha virt. eigenvalues --    0.77258   0.77469   0.77892   0.78490   0.78789
 Alpha virt. eigenvalues --    0.79358   0.79537   0.79701   0.80321   0.80856
 Alpha virt. eigenvalues --    0.81187   0.81819   0.82546   0.83154   0.83325
 Alpha virt. eigenvalues --    0.83817   0.84239   0.84573   0.85155   0.85454
 Alpha virt. eigenvalues --    0.85884   0.86174   0.86658   0.87289   0.87839
 Alpha virt. eigenvalues --    0.87978   0.88444   0.88939   0.89352   0.89885
 Alpha virt. eigenvalues --    0.90315   0.90882   0.91271   0.91653   0.92084
 Alpha virt. eigenvalues --    0.92778   0.92977   0.93799   0.93950   0.94655
 Alpha virt. eigenvalues --    0.95309   0.95756   0.96022   0.96399   0.96944
 Alpha virt. eigenvalues --    0.97094   0.97604   0.97813   0.98495   0.98964
 Alpha virt. eigenvalues --    0.99652   1.00011   1.00213   1.00960   1.01701
 Alpha virt. eigenvalues --    1.01945   1.02342   1.02903   1.03149   1.03260
 Alpha virt. eigenvalues --    1.03751   1.04013   1.04873   1.05286   1.05816
 Alpha virt. eigenvalues --    1.06236   1.06792   1.07569   1.07830   1.08024
 Alpha virt. eigenvalues --    1.08644   1.09691   1.10391   1.11007   1.11864
 Alpha virt. eigenvalues --    1.11961   1.12735   1.13149   1.13176   1.13606
 Alpha virt. eigenvalues --    1.13840   1.14421   1.15061   1.15324   1.15421
 Alpha virt. eigenvalues --    1.16253   1.16598   1.17383   1.18198   1.18838
 Alpha virt. eigenvalues --    1.18911   1.19603   1.19822   1.20002   1.20247
 Alpha virt. eigenvalues --    1.20868   1.21016   1.21373   1.21519   1.21926
 Alpha virt. eigenvalues --    1.22487   1.22844   1.22984   1.23339   1.23539
 Alpha virt. eigenvalues --    1.24060   1.24501   1.24886   1.25179   1.26411
 Alpha virt. eigenvalues --    1.26806   1.27193   1.27481   1.28062   1.28395
 Alpha virt. eigenvalues --    1.29171   1.29373   1.30318   1.31335   1.31407
 Alpha virt. eigenvalues --    1.32297   1.33269   1.33579   1.33797   1.34566
 Alpha virt. eigenvalues --    1.35118   1.35708   1.35884   1.37613   1.38245
 Alpha virt. eigenvalues --    1.38531   1.39401   1.39879   1.40297   1.40880
 Alpha virt. eigenvalues --    1.41558   1.42706   1.43583   1.44758   1.45255
 Alpha virt. eigenvalues --    1.46032   1.46095   1.47813   1.48154   1.48495
 Alpha virt. eigenvalues --    1.49001   1.49320   1.49810   1.50297   1.50882
 Alpha virt. eigenvalues --    1.51600   1.52691   1.53155   1.53372   1.54744
 Alpha virt. eigenvalues --    1.55284   1.55698   1.56388   1.56705   1.57586
 Alpha virt. eigenvalues --    1.58482   1.59046   1.59435   1.60372   1.61244
 Alpha virt. eigenvalues --    1.61718   1.62649   1.63121   1.63648   1.63707
 Alpha virt. eigenvalues --    1.65308   1.65850   1.66298   1.66869   1.67090
 Alpha virt. eigenvalues --    1.67574   1.68062   1.68332   1.69282   1.70257
 Alpha virt. eigenvalues --    1.70382   1.70747   1.71021   1.71510   1.71987
 Alpha virt. eigenvalues --    1.72279   1.72635   1.72705   1.73513   1.73937
 Alpha virt. eigenvalues --    1.74263   1.74813   1.74963   1.75365   1.75771
 Alpha virt. eigenvalues --    1.75911   1.76041   1.76697   1.77327   1.77805
 Alpha virt. eigenvalues --    1.78119   1.78497   1.78772   1.79071   1.79428
 Alpha virt. eigenvalues --    1.79756   1.79908   1.80141   1.80262   1.80841
 Alpha virt. eigenvalues --    1.81514   1.81758   1.82229   1.82689   1.83245
 Alpha virt. eigenvalues --    1.83476   1.83823   1.84075   1.84331   1.84803
 Alpha virt. eigenvalues --    1.84932   1.86251   1.86517   1.87078   1.87502
 Alpha virt. eigenvalues --    1.87866   1.88168   1.88386   1.89419   1.89884
 Alpha virt. eigenvalues --    1.90538   1.90607   1.91001   1.91729   1.92077
 Alpha virt. eigenvalues --    1.92248   1.92814   1.93388   1.93463   1.94133
 Alpha virt. eigenvalues --    1.94730   1.95447   1.96257   1.97335   1.97892
 Alpha virt. eigenvalues --    1.98187   1.99862   2.00541   2.00655   2.01477
 Alpha virt. eigenvalues --    2.02180   2.02461   2.03485   2.04305   2.04994
 Alpha virt. eigenvalues --    2.05090   2.05506   2.06374   2.06674   2.07335
 Alpha virt. eigenvalues --    2.07740   2.08678   2.09417   2.09793   2.09913
 Alpha virt. eigenvalues --    2.10672   2.11454   2.11476   2.12802   2.13555
 Alpha virt. eigenvalues --    2.14175   2.14805   2.15207   2.17869   2.18500
 Alpha virt. eigenvalues --    2.19097   2.19949   2.20880   2.21086   2.21267
 Alpha virt. eigenvalues --    2.21496   2.22434   2.22992   2.23378   2.24114
 Alpha virt. eigenvalues --    2.24437   2.25114   2.26234   2.26574   2.26761
 Alpha virt. eigenvalues --    2.27385   2.28022   2.28981   2.29240   2.30089
 Alpha virt. eigenvalues --    2.30153   2.30725   2.31550   2.32009   2.33105
 Alpha virt. eigenvalues --    2.33781   2.34014   2.34242   2.34589   2.35214
 Alpha virt. eigenvalues --    2.35948   2.36012   2.36709   2.37428   2.37609
 Alpha virt. eigenvalues --    2.38163   2.39825   2.40527   2.40994   2.41278
 Alpha virt. eigenvalues --    2.41536   2.42069   2.43062   2.43561   2.43840
 Alpha virt. eigenvalues --    2.45464   2.45873   2.46156   2.46648   2.47060
 Alpha virt. eigenvalues --    2.47825   2.48488   2.49286   2.50117   2.51996
 Alpha virt. eigenvalues --    2.52558   2.53861   2.55108   2.55470   2.55976
 Alpha virt. eigenvalues --    2.56984   2.57385   2.57717   2.59216   2.59701
 Alpha virt. eigenvalues --    2.61217   2.61711   2.61954   2.62599   2.64073
 Alpha virt. eigenvalues --    2.64506   2.64936   2.65487   2.65866   2.66579
 Alpha virt. eigenvalues --    2.67265   2.67757   2.68621   2.69309   2.69711
 Alpha virt. eigenvalues --    2.70243   2.71276   2.71363   2.72030   2.72571
 Alpha virt. eigenvalues --    2.73818   2.74201   2.75025   2.75395   2.75999
 Alpha virt. eigenvalues --    2.77830   2.78637   2.79604   2.79716   2.80064
 Alpha virt. eigenvalues --    2.80117   2.80314   2.80834   2.81535   2.81893
 Alpha virt. eigenvalues --    2.82448   2.82912   2.83254   2.83750   2.84458
 Alpha virt. eigenvalues --    2.85143   2.85420   2.86387   2.87022   2.87185
 Alpha virt. eigenvalues --    2.88696   2.88804   2.89546   2.92445   2.93707
 Alpha virt. eigenvalues --    2.94890   2.96380   2.96919   2.98896   2.99278
 Alpha virt. eigenvalues --    3.00285   3.01766   3.03281   3.04950   3.06574
 Alpha virt. eigenvalues --    3.07197   3.09844   3.11204   3.13735   3.14811
 Alpha virt. eigenvalues --    3.15312   3.15922   3.16700   3.18254   3.20404
 Alpha virt. eigenvalues --    3.22076   3.23496   3.24033   3.24129   3.27240
 Alpha virt. eigenvalues --    3.45543   3.47203   3.48111   3.49635   3.50351
 Alpha virt. eigenvalues --    3.53053   3.54211   3.56501   3.58278   3.60196
 Alpha virt. eigenvalues --    3.63203   3.70823   3.74746
          Condensed to atoms (all electrons):
 Mulliken charges:
               1
     1  N   -0.311987
     2  C    0.180403
     3  C    0.047881
     4  N   -0.258282
     5  C    0.133651
     6  H    0.027901
     7  N   -0.281535
     8  C    0.126541
     9  H    0.013899
    10  N   -0.290435
    11  C    0.233000
    12  C    0.112791
    13  N   -0.050182
    14  H    0.108614
    15  H    0.088835
    16  H    0.026954
    17  H    0.033481
    18  H    0.026095
    19  N   -0.302988
    20  C    0.244472
    21  C    0.178989
    22  N   -0.093880
    23  H    0.108810
    24  H    0.114718
    25  N   -0.296082
    26  C    0.216204
    27  N   -0.123063
    28  H    0.116872
    29  C    0.142525
    30  O   -0.319878
    31  C    0.016626
    32  N   -0.222582
    33  C    0.121892
    34  H    0.025654
    35  H    0.029798
    36  H    0.026579
    37  H    0.022989
    38  H    0.056951
    39  H    0.062836
    40  H    0.069961
    41  H    0.029950
    42  C   -0.115186
    43  O   -0.268637
    44  C    0.172997
    45  H    0.135893
    46  N   -0.131791
    47  O   -0.348694
    48  C    0.355796
    49  H    0.047398
    50  C    0.180664
    51  C    0.039934
    52  N   -0.287559
    53  H    0.036006
    54  H    0.030688
    55  H    0.024090
    56  H    0.123725
    57  H    0.117137
    58  N   -0.061274
    59  C    0.112626
    60  C    0.237934
    61  N   -0.273683
    62  H    0.043517
    63  C    0.169276
    64  N   -0.301356
    65  H    0.031438
    66  C    0.120534
    67  N   -0.257817
    68  C    0.004898
    69  C    0.173710
    70  N   -0.307243
 Sum of Mulliken charges =  -0.00000
 Mulliken charges with hydrogens summed into heavy atoms:
               1
     1  N   -0.311987
     2  C    0.266934
     3  C    0.047881
     4  N   -0.258282
     5  C    0.161552
     7  N   -0.281535
     8  C    0.140440
    10  N   -0.290435
    11  C    0.233000
    12  C    0.112791
    13  N    0.147267
    19  N   -0.302988
    20  C    0.244472
    21  C    0.258354
    22  N    0.129648
    25  N   -0.296082
    26  C    0.216204
    27  N   -0.006191
    29  C    0.142525
    30  O   -0.319878
    31  C    0.016626
    32  N   -0.222582
    33  C    0.147546
    42  C   -0.085236
    43  O   -0.268637
    44  C    0.172997
    46  N    0.004102
    47  O   -0.348694
    48  C    0.355796
    50  C    0.228062
    51  C    0.229681
    52  N   -0.287559
    58  N    0.179589
    59  C    0.112626
    60  C    0.237934
    61  N   -0.273683
    63  C    0.212793
    64  N   -0.301356
    66  C    0.151971
    67  N   -0.257817
    68  C    0.004898
    69  C    0.264494
    70  N   -0.307243
 Electronic spatial extent (au):  <R**2>=          22931.8542
 Charge=              0.0000 electrons
 Dipole moment (field-independent basis, Debye):
    X=              6.7764    Y=              6.0420    Z=              3.1147  Tot=              9.5983
 Quadrupole moment (field-independent basis, Debye-Ang):
   XX=           -144.0992   YY=           -224.9172   ZZ=           -255.2677
   XY=              9.0465   XZ=             10.7223   YZ=             -9.0204
 Traceless Quadrupole moment (field-independent basis, Debye-Ang):
   XX=             63.9955   YY=            -16.8225   ZZ=            -47.1730
   XY=              9.0465   XZ=             10.7223   YZ=             -9.0204
 Octapole moment (field-independent basis, Debye-Ang**2):
  XXX=            -14.0614  YYY=             98.5299  ZZZ=              9.2697  XYY=             57.3703
  XXY=              2.3019  XXZ=            -54.1192  XZZ=             26.0356  YZZ=             38.2774
  YYZ=             58.5204  XYZ=             43.9014
 Hexadecapole moment (field-independent basis, Debye-Ang**3):
 XXXX=         -15577.6674 YYYY=          -5051.7260 ZZZZ=          -3315.5316 XXXY=            494.2175
 XXXZ=             68.2251 YYYX=             46.3963 YYYZ=           -102.1916 ZZZX=             49.8957
 ZZZY=             18.4482 XXYY=          -3984.5040 XXZZ=          -4094.4844 YYZZ=          -1442.8161
 XXYZ=             89.6240 YYXZ=            214.9203 ZZXY=             68.5165
 N-N= 5.519436559421D+03 E-N=-1.581969652936D+04  KE= 2.037781290531D+03
 No NMR shielding tensors so no spin-rotation constants.
 Leave Link  601 at Mon Jan 22 15:41:57 2018, MaxMem=  4294967296 cpu:              46.3 elap:               1.6
 (Enter /share/apps/g16/l9999.exe)
 1\1\GINC-COMPUTE-0-3\SP\RwB97XD\CC-pVDZ\C23H27N17O3\SATYA\22-Jan-2018\
 0\\#p wb97xd/cc-pvdz sp scf=(maxcycles=20)\\Base pair stacking\\0,1\N,
 0,5.99539,5.74365,-6.89259\C,0,6.69555,7.04056,-6.9689\C,0,4.44227,4.1
 9404,-6.73823\N,0,5.65213,3.52238,-6.83736\C,0,6.53941,4.48284,-6.9263
 8\H,0,7.61458,4.32699,-7.01943\N,0,2.14144,4.67379,-6.54076\C,0,2.4847
 5,5.96519,-6.58554\H,0,1.65621,6.66913,-6.5204\N,0,3.69219,6.515,-6.69
 818\C,0,4.63788,5.56378,-6.77088\C,0,3.11599,3.74124,-6.6162\N,0,2.775
 29,2.45163,-6.57167\H,0,3.46359,1.72727,-6.62422\H,0,1.82094,2.16572,-
 6.48431\H,0,7.19565,7.10058,-7.83289\H,0,6.02885,7.78359,-6.91847\H,0,
 7.3387,7.11982,-6.20728\N,0,1.90951,6.10055,-3.2912\C,0,0.90378,5.1660
 8,-3.23353\C,0,1.71391,7.56357,-3.33611\N,0,-2.48,4.39216,-3.12036\H,0
 ,-3.04772,3.5705,-3.07777\H,0,-2.95577,5.27196,-3.13818\N,0,-0.42144,5
 .42531,-3.2084\C,0,-1.14079,4.31852,-3.15218\N,0,-0.60526,3.05367,-3.1
 2275\H,0,-1.2318,2.26464,-3.07976\C,0,0.75524,2.76337,-3.14773\O,0,1.1
 3435,1.58605,-3.11727\C,0,1.5408,3.94241,-3.2081\N,0,2.91872,4.10538,-
 3.24899\C,0,3.09015,5.39862,-3.29752\H,0,4.06011,5.8953,-3.33934\H,0,2
 .11418,7.92943,-4.1756\H,0,0.73602,7.76767,-3.318\H,0,2.15598,7.98507,
 -2.54508\H,0,-4.88472,-1.24519,-3.51564\H,0,-4.65643,-1.39905,-1.77528
 \H,0,-4.40411,0.15911,-2.56258\H,0,-0.87041,-3.89371,-3.38441\C,0,-1.1
 7928,-2.85671,-3.25222\O,0,1.01608,-1.98317,-3.46298\C,0,-0.19176,-1.8
 2173,-3.29026\H,0,-0.02117,0.21161,-3.13288\N,0,-0.68882,-0.54638,-3.1
 1231\O,0,-2.34241,0.97008,-2.76133\C,0,-1.99832,-0.18943,-2.90898\H,0,
 -3.25386,-3.2894,-3.01834\C,0,-2.46442,-2.53991,-3.05563\C,0,-4.30173,
 -0.91046,-2.67057\N,0,-2.89069,-1.24315,-2.88507\H,0,-5.58735,3.03644,
 -6.02388\H,0,-4.43212,3.76923,-5.13473\H,0,-5.42968,2.68074,-4.43894\H
 ,0,0.81739,-0.65885,-6.64806\H,0,-0.70202,-1.43408,-6.67035\N,0,-0.174
 21,-0.59484,-6.53506\C,0,-0.76733,0.55794,-6.21806\C,0,-2.6238,1.96032
 ,-5.71949\N,0,-1.88976,3.07152,-5.54387\H,0,0.07188,3.66196,-5.60694\C
 ,0,-0.5973,2.81158,-5.73066\N,0,-0.00128,1.65767,-6.04819\H,0,-5.28814
 ,0.13469,-5.8629\C,0,-4.26722,0.51735,-5.87886\N,0,-3.20544,-0.20312,-
 6.14575\C,0,-2.15655,0.69968,-6.0481\C,0,-4.93503,2.91693,-5.27542\N,0
 ,-3.98864,1.83556,-5.61159\\Version=EM64L-G16RevA.03\State=1-A\HF=-204
 8.7394749\RMSD=6.707e-09\Dipole=-3.7655539,0.2840538,0.0087468\Quadrup
 ole=26.5762351,2.5695127,-29.1457478,30.3901774,-16.1643121,3.5847508\
 PG=C01 [X(C23H27N17O3)]\\@


 WE HAVE LEFT UNDONE THOSE THINGS WHICH WE OUGHT TO HAVE DONE,
 AND WE HAVE DONE THOSE THINGS WHICH WE OUGHT NOT TO HAVE DONE.
                   BOOK OF COMMON PRAYER                      
 Job cpu time:       0 days  6 hours  9 minutes 13.1 seconds.
 Elapsed time:       0 days  0 hours 11 minutes 55.2 seconds.
 File lengths (MBytes):  RWF=    298 Int=      0 D2E=      0 Chk=     33 Scr=      1
 Normal termination of Gaussian 16 at Mon Jan 22 15:41:57 2018.
