 Entering Gaussian System, Link 0=g16
 Input=str35.-15.2.5.com
 Output=str35.-15.2.5.log
 Initial command:
 /share/apps/g16/l1.exe "/state/partition1/scr/Gau-2963.inp" -scrdir="/state/partition1/scr/"
 Entering Link 1 = /share/apps/g16/l1.exe PID=      2964.
  
 Copyright (c) 1988,1990,1992,1993,1995,1998,2003,2009,2016,
            Gaussian, Inc.  All Rights Reserved.
  
 This is part of the Gaussian(R) 16 program.  It is based on
 the Gaussian(R) 09 system (copyright 2009, Gaussian, Inc.),
 the Gaussian(R) 03 system (copyright 2003, Gaussian, Inc.),
 the Gaussian(R) 98 system (copyright 1998, Gaussian, Inc.),
 the Gaussian(R) 94 system (copyright 1995, Gaussian, Inc.),
 the Gaussian 92(TM) system (copyright 1992, Gaussian, Inc.),
 the Gaussian 90(TM) system (copyright 1990, Gaussian, Inc.),
 the Gaussian 88(TM) system (copyright 1988, Gaussian, Inc.),
 the Gaussian 86(TM) system (copyright 1986, Carnegie Mellon
 University), and the Gaussian 82(TM) system (copyright 1983,
 Carnegie Mellon University). Gaussian is a federally registered
 trademark of Gaussian, Inc.
  
 This software contains proprietary and confidential information,
 including trade secrets, belonging to Gaussian, Inc.
  
 This software is provided under written license and may be
 used, copied, transmitted, or stored only in accord with that
 written license.
  
 The following legend is applicable only to US Government
 contracts under FAR:
  
                    RESTRICTED RIGHTS LEGEND
  
 Use, reproduction and disclosure by the US Government is
 subject to restrictions as set forth in subparagraphs (a)
 and (c) of the Commercial Computer Software - Restricted
 Rights clause in FAR 52.227-19.
  
 Gaussian, Inc.
 340 Quinnipiac St., Bldg. 40, Wallingford CT 06492
  
  
 ---------------------------------------------------------------
 Warning -- This program may not be used in any manner that
 competes with the business of Gaussian, Inc. or will provide
 assistance to any competitor of Gaussian, Inc.  The licensee
 of this program is prohibited from giving any competitor of
 Gaussian, Inc. access to this program.  By using this program,
 the user acknowledges that Gaussian, Inc. is engaged in the
 business of creating and licensing software in the field of
 computational chemistry and represents and warrants to the
 licensee that it is not a competitor of Gaussian, Inc. and that
 it will not use this program in any manner prohibited above.
 ---------------------------------------------------------------
  

 Cite this work as:
 Gaussian 16, Revision A.03,
 M. J. Frisch, G. W. Trucks, H. B. Schlegel, G. E. Scuseria, 
 M. A. Robb, J. R. Cheeseman, G. Scalmani, V. Barone, 
 G. A. Petersson, H. Nakatsuji, X. Li, M. Caricato, A. V. Marenich, 
 J. Bloino, B. G. Janesko, R. Gomperts, B. Mennucci, H. P. Hratchian, 
 J. V. Ortiz, A. F. Izmaylov, J. L. Sonnenberg, D. Williams-Young, 
 F. Ding, F. Lipparini, F. Egidi, J. Goings, B. Peng, A. Petrone, 
 T. Henderson, D. Ranasinghe, V. G. Zakrzewski, J. Gao, N. Rega, 
 G. Zheng, W. Liang, M. Hada, M. Ehara, K. Toyota, R. Fukuda, 
 J. Hasegawa, M. Ishida, T. Nakajima, Y. Honda, O. Kitao, H. Nakai, 
 T. Vreven, K. Throssell, J. A. Montgomery, Jr., J. E. Peralta, 
 F. Ogliaro, M. J. Bearpark, J. J. Heyd, E. N. Brothers, K. N. Kudin, 
 V. N. Staroverov, T. A. Keith, R. Kobayashi, J. Normand, 
 K. Raghavachari, A. P. Rendell, J. C. Burant, S. S. Iyengar, 
 J. Tomasi, M. Cossi, J. M. Millam, M. Klene, C. Adamo, R. Cammi, 
 J. W. Ochterski, R. L. Martin, K. Morokuma, O. Farkas, 
 J. B. Foresman, and D. J. Fox, Gaussian, Inc., Wallingford CT, 2016.
 
 ******************************************
 Gaussian 16:  EM64L-G16RevA.03 25-Dec-2016
                22-Jan-2018 
 ******************************************
 %nprocshared=32
 Will use up to   32 processors via shared memory.
 %mem=32GB
 %chk=allatoms_t.chk
 ---------------------------------------
 #p wb97xd/cc-pvdz sp scf=(maxcycles=20)
 ---------------------------------------
 1/38=1,172=1/1;
 2/12=2,17=6,18=5,40=1/2;
 3/5=16,11=2,25=1,30=1,74=-58/1,2,3;
 4//1;
 5/5=2,7=20,38=5/2;
 6/7=2,8=2,9=2,10=2,28=1/1;
 99/5=1,9=1/99;
 Leave Link    1 at Mon Jan 22 08:38:44 2018, MaxMem=  4294967296 cpu:               2.7 elap:               0.1
 (Enter /share/apps/g16/l101.exe)
 ------------------
 Base pair stacking
 ------------------
 Symbolic Z-matrix:
 Charge =  0 Multiplicity = 1
 N                     0.60411  -0.14247  -6.68449 
 C                     1.3225    1.1464   -6.7115 
 C                    -0.93038  -1.69347  -6.4069 
 N                     0.18131  -2.33685  -6.93125 
 C                     1.06129  -1.37668  -7.07749 
 H                     2.06886  -1.51378  -7.47114 
 N                    -3.08002  -1.25597  -5.54054 
 C                    -2.69859   0.022    -5.44629 
 H                    -3.44904   0.70304  -5.0472 
 N                    -1.53479   0.58237  -5.7695 
 C                    -0.68481  -0.34056  -6.24924 
 C                    -2.20199  -2.16006  -6.02711 
 N                    -2.58089  -3.43623  -6.12196 
 H                    -1.96368  -4.13954  -6.47639 
 H                    -3.49412  -3.73264  -5.84213 
 H                     1.58881   1.36149  -7.65118 
 H                     0.72651   1.86844  -6.36141 
 H                     2.14115   1.08611  -6.14037 
 N                     0.44499   2.30655  -3.17085 
 C                    -0.54659   1.37065  -3.00082 
 C                     0.2568    3.77003  -3.11177 
 N                    -3.87607   0.593    -2.39125 
 H                    -4.43664  -0.22959  -2.29993 
 H                    -4.34141   1.47273  -2.28992 
 N                    -1.84896   1.62867  -2.7532 
 C                    -2.55943   0.52066  -2.63851 
 N                    -2.03642  -0.74423  -2.75692 
 H                    -2.65474  -1.53423  -2.65427 
 C                    -0.69945  -1.0333   -3.01152 
 O                    -0.33001  -2.21078  -3.0998 
 C                     0.07632   0.14706  -3.13723 
 N                     1.4317    0.31148  -3.38785 
 C                     1.60393   1.60547  -3.3989 
 H                     2.55911   2.10334  -3.56929 
 H                     0.52216   4.17741  -3.98495 
 H                    -0.70419   3.97325  -2.92885 
 H                     0.82195   4.15121  -2.38093 
 H                    -6.35937  -5.01673  -2.67881 
 H                    -5.8598   -5.25773  -1.00639 
 H                    -5.72245  -3.66213  -1.74568 
 H                    -2.39682  -7.66966  -3.31658 
 C                    -2.67233  -6.64051  -3.08598 
 O                    -0.53088  -5.75814  -3.59851 
 C                    -1.6948   -5.60521  -3.2288 
 H                    -1.48471  -3.58237  -3.00006 
 N                    -2.14691  -4.34024  -2.91146 
 O                    -3.71158  -2.84281  -2.22829 
 C                    -3.40475  -3.99356  -2.48577 
 H                    -4.68725  -7.08378  -2.54797 
 C                    -3.90752  -6.33359  -2.67279 
 C                    -5.64725  -4.72497  -1.9213 
 N                    -4.29072  -5.04689  -2.3729 
 H                    -10.49215  -2.95506  -3.33696 
 H                    -9.11547  -2.39601  -2.66294 
 H                    -9.9538   -3.59184  -1.93406 
 H                    -4.639    -6.48031  -6.23158 
 H                    -6.14914  -7.23777  -5.99527 
 N                    -5.56512  -6.4372   -5.85663 
 C                    -6.00286  -5.36046  -5.20074 
 C                    -7.60301  -4.07033  -4.00206 
 N                    -6.79663  -3.00972  -3.83092 
 H                    -4.88977  -2.41882  -4.29494 
 C                    -5.60793  -3.23236  -4.38798 
 N                    -5.16758  -4.31011  -5.04534 
 H                    -10.29969  -5.83821  -3.76825 
 C                    -9.29942  -5.45962  -3.98056 
 N                    -8.37573  -6.12053  -4.63452 
 C                    -7.29492  -5.25097  -4.65528 
 C                    -9.67742  -3.20847  -2.81543 
 N                    -8.89991  -4.21172  -3.56842 
 
 ITRead=  0  0  0  0  0  0  0  0  0  0  0  0  0  0  0  0  0  0  0  0
 ITRead=  0  0  0  0  0  0  0  0  0  0  0  0  0  0  0  0  0  0  0  0
 ITRead=  0  0  0  0  0  0  0  0  0  0  0  0  0  0  0  0  0  0  0  0
 ITRead=  0  0  0  0  0  0  0  0  0  0
 MicOpt= -1 -1 -1 -1 -1 -1 -1 -1 -1 -1 -1 -1 -1 -1 -1 -1 -1 -1 -1 -1
 MicOpt= -1 -1 -1 -1 -1 -1 -1 -1 -1 -1 -1 -1 -1 -1 -1 -1 -1 -1 -1 -1
 MicOpt= -1 -1 -1 -1 -1 -1 -1 -1 -1 -1 -1 -1 -1 -1 -1 -1 -1 -1 -1 -1
 MicOpt= -1 -1 -1 -1 -1 -1 -1 -1 -1 -1
 NAtoms=     70 NQM=       70 NQMF=       0 NMMI=      0 NMMIF=      0
                NMic=       0 NMicF=      0.
                    Isotopes and Nuclear Properties:
 (Nuclear quadrupole moments (NQMom) in fm**2, nuclear magnetic moments (NMagM)
  in nuclear magnetons)

  Atom         1           2           3           4           5           6           7           8           9          10
 IAtWgt=          14          12          12          14          12           1          14          12           1          14
 AtmWgt=  14.0030740  12.0000000  12.0000000  14.0030740  12.0000000   1.0078250  14.0030740  12.0000000   1.0078250  14.0030740
 NucSpn=           2           0           0           2           0           1           2           0           1           2
 AtZEff=  -0.0000000  -0.0000000  -0.0000000  -0.0000000  -0.0000000  -0.0000000  -0.0000000  -0.0000000  -0.0000000  -0.0000000
 NQMom=    2.0440000   0.0000000   0.0000000   2.0440000   0.0000000   0.0000000   2.0440000   0.0000000   0.0000000   2.0440000
 NMagM=    0.4037610   0.0000000   0.0000000   0.4037610   0.0000000   2.7928460   0.4037610   0.0000000   2.7928460   0.4037610
 AtZNuc=   7.0000000   6.0000000   6.0000000   7.0000000   6.0000000   1.0000000   7.0000000   6.0000000   1.0000000   7.0000000

  Atom        11          12          13          14          15          16          17          18          19          20
 IAtWgt=          12          12          14           1           1           1           1           1          14          12
 AtmWgt=  12.0000000  12.0000000  14.0030740   1.0078250   1.0078250   1.0078250   1.0078250   1.0078250  14.0030740  12.0000000
 NucSpn=           0           0           2           1           1           1           1           1           2           0
 AtZEff=  -0.0000000  -0.0000000  -0.0000000  -0.0000000  -0.0000000  -0.0000000  -0.0000000  -0.0000000  -0.0000000  -0.0000000
 NQMom=    0.0000000   0.0000000   2.0440000   0.0000000   0.0000000   0.0000000   0.0000000   0.0000000   2.0440000   0.0000000
 NMagM=    0.0000000   0.0000000   0.4037610   2.7928460   2.7928460   2.7928460   2.7928460   2.7928460   0.4037610   0.0000000
 AtZNuc=   6.0000000   6.0000000   7.0000000   1.0000000   1.0000000   1.0000000   1.0000000   1.0000000   7.0000000   6.0000000

  Atom        21          22          23          24          25          26          27          28          29          30
 IAtWgt=          12          14           1           1          14          12          14           1          12          16
 AtmWgt=  12.0000000  14.0030740   1.0078250   1.0078250  14.0030740  12.0000000  14.0030740   1.0078250  12.0000000  15.9949146
 NucSpn=           0           2           1           1           2           0           2           1           0           0
 AtZEff=  -0.0000000  -0.0000000  -0.0000000  -0.0000000  -0.0000000  -0.0000000  -0.0000000  -0.0000000  -0.0000000  -0.0000000
 NQMom=    0.0000000   2.0440000   0.0000000   0.0000000   2.0440000   0.0000000   2.0440000   0.0000000   0.0000000   0.0000000
 NMagM=    0.0000000   0.4037610   2.7928460   2.7928460   0.4037610   0.0000000   0.4037610   2.7928460   0.0000000   0.0000000
 AtZNuc=   6.0000000   7.0000000   1.0000000   1.0000000   7.0000000   6.0000000   7.0000000   1.0000000   6.0000000   8.0000000

  Atom        31          32          33          34          35          36          37          38          39          40
 IAtWgt=          12          14          12           1           1           1           1           1           1           1
 AtmWgt=  12.0000000  14.0030740  12.0000000   1.0078250   1.0078250   1.0078250   1.0078250   1.0078250   1.0078250   1.0078250
 NucSpn=           0           2           0           1           1           1           1           1           1           1
 AtZEff=  -0.0000000  -0.0000000  -0.0000000  -0.0000000  -0.0000000  -0.0000000  -0.0000000  -0.0000000  -0.0000000  -0.0000000
 NQMom=    0.0000000   2.0440000   0.0000000   0.0000000   0.0000000   0.0000000   0.0000000   0.0000000   0.0000000   0.0000000
 NMagM=    0.0000000   0.4037610   0.0000000   2.7928460   2.7928460   2.7928460   2.7928460   2.7928460   2.7928460   2.7928460
 AtZNuc=   6.0000000   7.0000000   6.0000000   1.0000000   1.0000000   1.0000000   1.0000000   1.0000000   1.0000000   1.0000000

  Atom        41          42          43          44          45          46          47          48          49          50
 IAtWgt=           1          12          16          12           1          14          16          12           1          12
 AtmWgt=   1.0078250  12.0000000  15.9949146  12.0000000   1.0078250  14.0030740  15.9949146  12.0000000   1.0078250  12.0000000
 NucSpn=           1           0           0           0           1           2           0           0           1           0
 AtZEff=  -0.0000000  -0.0000000  -0.0000000  -0.0000000  -0.0000000  -0.0000000  -0.0000000  -0.0000000  -0.0000000  -0.0000000
 NQMom=    0.0000000   0.0000000   0.0000000   0.0000000   0.0000000   2.0440000   0.0000000   0.0000000   0.0000000   0.0000000
 NMagM=    2.7928460   0.0000000   0.0000000   0.0000000   2.7928460   0.4037610   0.0000000   0.0000000   2.7928460   0.0000000
 AtZNuc=   1.0000000   6.0000000   8.0000000   6.0000000   1.0000000   7.0000000   8.0000000   6.0000000   1.0000000   6.0000000

  Atom        51          52          53          54          55          56          57          58          59          60
 IAtWgt=          12          14           1           1           1           1           1          14          12          12
 AtmWgt=  12.0000000  14.0030740   1.0078250   1.0078250   1.0078250   1.0078250   1.0078250  14.0030740  12.0000000  12.0000000
 NucSpn=           0           2           1           1           1           1           1           2           0           0
 AtZEff=  -0.0000000  -0.0000000  -0.0000000  -0.0000000  -0.0000000  -0.0000000  -0.0000000  -0.0000000  -0.0000000  -0.0000000
 NQMom=    0.0000000   2.0440000   0.0000000   0.0000000   0.0000000   0.0000000   0.0000000   2.0440000   0.0000000   0.0000000
 NMagM=    0.0000000   0.4037610   2.7928460   2.7928460   2.7928460   2.7928460   2.7928460   0.4037610   0.0000000   0.0000000
 AtZNuc=   6.0000000   7.0000000   1.0000000   1.0000000   1.0000000   1.0000000   1.0000000   7.0000000   6.0000000   6.0000000

  Atom        61          62          63          64          65          66          67          68          69          70
 IAtWgt=          14           1          12          14           1          12          14          12          12          14
 AtmWgt=  14.0030740   1.0078250  12.0000000  14.0030740   1.0078250  12.0000000  14.0030740  12.0000000  12.0000000  14.0030740
 NucSpn=           2           1           0           2           1           0           2           0           0           2
 AtZEff=  -0.0000000  -0.0000000  -0.0000000  -0.0000000  -0.0000000  -0.0000000  -0.0000000  -0.0000000  -0.0000000  -0.0000000
 NQMom=    2.0440000   0.0000000   0.0000000   2.0440000   0.0000000   0.0000000   2.0440000   0.0000000   0.0000000   2.0440000
 NMagM=    0.4037610   2.7928460   0.0000000   0.4037610   2.7928460   0.0000000   0.4037610   0.0000000   0.0000000   0.4037610
 AtZNuc=   7.0000000   1.0000000   6.0000000   7.0000000   1.0000000   6.0000000   7.0000000   6.0000000   6.0000000   7.0000000
 Leave Link  101 at Mon Jan 22 08:38:44 2018, MaxMem=  4294967296 cpu:               5.2 elap:               0.2
 (Enter /share/apps/g16/l202.exe)
 Stoichiometry    C23H27N17O3
 Framework group  C1[X(C23H27N17O3)]
 Deg. of freedom   204
 Full point group                 C1      NOp   1
 Largest Abelian subgroup         C1      NOp   1
 Largest concise Abelian subgroup C1      NOp   1
                         Standard orientation:                         
 ---------------------------------------------------------------------
 Center     Atomic      Atomic             Coordinates (Angstroms)
 Number     Number       Type             X           Y           Z
 ---------------------------------------------------------------------
      1          7           0        4.301011   -1.449456   -1.865714
      2          6           0        5.674638   -0.926860   -2.000031
      3          6           0        2.115446   -1.604572   -1.674500
      4          7           0        2.598477   -2.905115   -1.672354
      5          6           0        3.895865   -2.759608   -1.787629
      6          1           0        4.611396   -3.581704   -1.821194
      7          7           0        0.679161    0.265298   -1.614445
      8          6           0        1.778156    1.017447   -1.733025
      9          1           0        1.605722    2.092661   -1.754122
     10          7           0        3.052191    0.642575   -1.829012
     11          6           0        3.153113   -0.696431   -1.793045
     12          6           0        0.814112   -1.078484   -1.581230
     13          7           0       -0.281751   -1.830984   -1.462908
     14          1           0       -0.229095   -2.829791   -1.434162
     15          1           0       -1.192241   -1.422235   -1.399004
     16          1           0        6.084661   -1.276056   -2.842721
     17          1           0        5.650513    0.071917   -2.031210
     18          1           0        6.223430   -1.221076   -1.217550
     19          7           0        5.479867    1.756816    0.722490
     20          6           0        4.110451    1.701522    0.820937
     21          6           0        6.261866    2.955322    0.358153
     22          7           0        1.013690    3.258062    0.599571
     23          1           0        0.053184    3.010580    0.723719
     24          1           0        1.208399    4.203772    0.337931
     25          7           0        3.256045    2.724559    0.603126
     26          6           0        1.997137    2.362686    0.775766
     27          7           0        1.602987    1.096341    1.134270
     28          1           0        0.618021    0.909805    1.243827
     29          6           0        2.464731    0.028298    1.363509
     30          8           0        2.006012   -1.075433    1.683029
     31          6           0        3.820626    0.401709    1.181886
     32          7           0        4.984673   -0.344019    1.307522
     33          6           0        5.940849    0.499110    1.026354
     34          1           0        7.003712    0.254986    1.025729
     35          1           0        6.788611    2.772249   -0.471209
     36          1           0        5.639566    3.719652    0.194437
     37          1           0        6.885066    3.188158    1.103960
     38          1           0       -4.441071    0.464407    0.999084
     39          1           0       -4.332776    0.635548    2.749405
     40          1           0       -3.158353    1.443898    1.710822
     41          1           0       -3.038035   -3.969147    2.232647
     42          6           0       -2.611906   -2.973487    2.108928
     43          8           0       -0.368228   -3.740895    2.045135
     44          6           0       -1.192045   -2.827309    2.006776
     45          1           0        0.239298   -1.382737    1.776970
     46          7           0       -0.757912   -1.526139    1.852695
     47          8           0       -1.057272    0.716028    1.651986
     48          6           0       -1.534725   -0.396436    1.790300
     49          1           0       -4.480950   -1.947678    2.124275
     50          6           0       -3.395697   -1.890437    2.051522
     51          6           0       -3.763799    0.558362    1.834868
     52          7           0       -2.893533   -0.619191    1.896160
     53          1           0       -6.256292    4.073587   -1.333791
     54          1           0       -4.892413    3.953146   -0.446426
     55          1           0       -6.350264    3.831770    0.277461
     56          1           0       -3.790961   -2.925100   -1.411831
     57          1           0       -5.450059   -2.529952   -1.448748
     58          7           0       -4.502343   -2.225072   -1.348267
     59          6           0       -4.201630   -0.941760   -1.138846
     60          6           0       -4.697758    1.363797   -0.822595
     61          7           0       -3.416204    1.744391   -0.691457
     62          1           0       -1.541669    0.915853   -0.706906
     63          6           0       -2.604007    0.695042   -0.801445
     64          7           0       -2.903251   -0.591048   -1.011206
     65          1           0       -7.910831    1.695002   -0.959036
     66          6           0       -6.886139    1.322256   -0.955484
     67          7           0       -6.549207    0.066942   -1.123808
     68          6           0       -5.164347    0.079361   -1.041790
     69          6           0       -5.829727    3.621794   -0.550260
     70          7           0       -5.815603    2.162176   -0.767843
 ---------------------------------------------------------------------
 Rotational constants (GHZ):           0.1558702           0.0525654           0.0486211
 Leave Link  202 at Mon Jan 22 08:38:44 2018, MaxMem=  4294967296 cpu:               0.3 elap:               0.0
 (Enter /share/apps/g16/l301.exe)
 Standard basis: CC-pVDZ (5D, 7F)
 Ernie: Thresh=  0.10000D-02 Tol=  0.10000D-05 Strict=F.
 Ernie:  86 primitive shells out of 1081 were deleted.
 There are   780 symmetry adapted cartesian basis functions of A   symmetry.
 There are   737 symmetry adapted basis functions of A   symmetry.
   737 basis functions,  1608 primitive gaussians,   780 cartesian basis functions
   154 alpha electrons      154 beta electrons
       nuclear repulsion energy      5540.2735902883 Hartrees.
 IExCor= 4639 DFT=T Ex+Corr=wB97XD ExCW=0 ScaHFX=  1.000000
 ScaDFX=  1.000000  1.000000  1.000000  1.000000 ScalE2=  1.000000  1.000000
 IRadAn=      5 IRanWt=     -1 IRanGd=            0 ICorTp=0 IEmpDi=121
 HFx  wShort=  0.000000 wLong=  0.200000 cFull=  0.222036 cShort=  0.000000 cLong=  0.777964
 DFx  wShort=  0.000000 wLong=  0.200000 cFull=  0.000000 cShort=  0.000000 cLong=  1.000000
 NAtoms=   70 NActive=   70 NUniq=   70 SFac= 1.00D+00 NAtFMM=   60 NAOKFM=T Big=T
 Integral buffers will be    131072 words long.
 Raffenetti 2 integral format.
 Two-electron integral symmetry is turned on.
 R6Disp:  Grimme-D2 Dispersion energy=       -0.0746443503 Hartrees.
 Nuclear repulsion after empirical dispersion term =     5540.1989459379 Hartrees.
 Leave Link  301 at Mon Jan 22 08:38:44 2018, MaxMem=  4294967296 cpu:               2.1 elap:               0.1
 (Enter /share/apps/g16/l302.exe)
 NPDir=0 NMtPBC=     1 NCelOv=     1 NCel=       1 NClECP=     1 NCelD=      1
         NCelK=      1 NCelE2=     1 NClLst=     1 CellRange=     0.0.
 One-electron integrals computed using PRISM.
 One-electron integral symmetry used in STVInt
 NBasis=   737 RedAO= T EigKep=  6.82D-04  NBF=   737
 NBsUse=   737 1.00D-06 EigRej= -1.00D+00 NBFU=   737
 Precomputing XC quadrature grid using
 IXCGrd= 4 IRadAn=           5 IRanWt=          -1 IRanGd=           0 AccXCQ= 0.00D+00.
 Generated NRdTot=       0 NPtTot=           0 NUsed=           0 NTot=          32
 NSgBfM=   761   759   759   761   761 MxSgAt=    70 MxSgA2=    70.
 Leave Link  302 at Mon Jan 22 08:38:48 2018, MaxMem=  4294967296 cpu:             132.9 elap:               4.2
 (Enter /share/apps/g16/l303.exe)
 DipDrv:  MaxL=1.
 Leave Link  303 at Mon Jan 22 08:38:49 2018, MaxMem=  4294967296 cpu:              12.4 elap:               0.4
 (Enter /share/apps/g16/l401.exe)
 ExpMin= 1.22D-01 ExpMax= 1.17D+04 ExpMxC= 4.01D+02 IAcc=3 IRadAn=         5 AccDes= 0.00D+00
 Harris functional with IExCor= 4639 and IRadAn=       5 diagonalized for initial guess.
 HarFok:  IExCor= 4639 AccDes= 0.00D+00 IRadAn=         5 IDoV= 1 UseB2=F ITyADJ=14
 ICtDFT=  3500011 ScaDFX=  1.000000  1.000000  1.000000  1.000000
 FoFCou: FMM=F IPFlag=           0 FMFlag=      100000 FMFlg1=        2001
         NFxFlg=           0 DoJE=T BraDBF=F KetDBF=T FulRan=T
         wScrn=  0.000000 ICntrl=       500 IOpCl=  0 I1Cent=   200000004 NGrid=           0
         NMat0=    1 NMatS0=      1 NMatT0=    0 NMatD0=    1 NMtDS0=    0 NMtDT0=    0
 Petite list used in FoFCou.
 Harris En= -1963.86099451716    
 JPrj=0 DoOrth=F DoCkMO=F.
 Leave Link  401 at Mon Jan 22 08:39:03 2018, MaxMem=  4294967296 cpu:             442.9 elap:              14.0
 (Enter /share/apps/g16/l502.exe)
 Integral symmetry usage will be decided dynamically.
 Closed shell SCF:
 Using DIIS extrapolation, IDIIS=  1040.
 NGot=  4294967296 LenX=  4293717438 LenY=  4293108258
 Requested convergence on RMS density matrix=1.00D-08 within  20 cycles.
 Requested convergence on MAX density matrix=1.00D-06.
 Requested convergence on             energy=1.00D-06.
 No special actions if energy rises.
 Fock matrices will be formed incrementally for  20 cycles.
 Integral accuracy reduced to 1.0D-05 until final iterations.

 Cycle   1  Pass 0  IDiag  1:
 FoFJK:  IHMeth= 1 ICntrl=       0 DoSepK=T KAlg= 0 I1Cent=           0 FoldK=F
 IRaf=         1 NMat=       1 IRICut=       1 DoRegI=T DoRafI=F ISym2E= 0 IDoP0=0 IntGTp=1.
 FoFCou: FMM=T IPFlag=           0 FMFlag=      100000 FMFlg1=        2001
         NFxFlg=           0 DoJE=T BraDBF=F KetDBF=F FulRan=T
         wScrn=  0.000000 ICntrl=       500 IOpCl=  0 I1Cent=           0 NGrid=           0
         NMat0=    1 NMatS0=      1 NMatT0=    0 NMatD0=    1 NMtDS0=    0 NMtDT0=    0
 Symmetry not used in FoFCou.
 FMM levels:  10  Number of levels for PrismC:   9
 E= -2048.30115639412    
 DIIS: error= 2.42D-02 at cycle   1 NSaved=   1.
 NSaved= 1 IEnMin= 1 EnMin= -2048.30115639412     IErMin= 1 ErrMin= 2.42D-02
 ErrMax= 2.42D-02  0.00D+00 EMaxC= 1.00D-01 BMatC= 8.29D-01 BMatP= 8.29D-01
 IDIUse=3 WtCom= 7.58D-01 WtEn= 2.42D-01
 Coeff-Com:  0.100D+01
 Coeff-En:   0.100D+01
 Coeff:      0.100D+01
 Gap=     0.268 Goal=   None    Shift=    0.000
 GapD=    0.268 DampG=1.000 DampE=0.500 DampFc=0.5000 IDamp=-1.
 Damping current iteration by 5.00D-01
 RMSDP=1.55D-03 MaxDP=1.30D-01              OVMax= 2.09D-01

 Cycle   2  Pass 0  IDiag  1:
 RMSU=  7.75D-04    CP:  9.98D-01
 E= -2048.49919364930     Delta-E=       -0.198037255174 Rises=F Damp=T
 DIIS: error= 1.31D-02 at cycle   2 NSaved=   2.
 NSaved= 2 IEnMin= 2 EnMin= -2048.49919364930     IErMin= 2 ErrMin= 1.31D-02
 ErrMax= 1.31D-02  0.00D+00 EMaxC= 1.00D-01 BMatC= 1.44D-01 BMatP= 8.29D-01
 IDIUse=3 WtCom= 8.69D-01 WtEn= 1.31D-01
 Coeff-Com: -0.211D+00 0.121D+01
 Coeff-En:   0.000D+00 0.100D+01
 Coeff:     -0.183D+00 0.118D+01
 Gap=     0.290 Goal=   None    Shift=    0.000
 RMSDP=5.87D-04 MaxDP=3.57D-02 DE=-1.98D-01 OVMax= 1.57D-01

 Cycle   3  Pass 0  IDiag  1:
 RMSU=  5.67D-04    CP:  9.94D-01  1.19D+00
 E= -2048.67879598447     Delta-E=       -0.179602335170 Rises=F Damp=F
 DIIS: error= 6.63D-03 at cycle   3 NSaved=   3.
 NSaved= 3 IEnMin= 3 EnMin= -2048.67879598447     IErMin= 3 ErrMin= 6.63D-03
 ErrMax= 6.63D-03  0.00D+00 EMaxC= 1.00D-01 BMatC= 5.91D-02 BMatP= 1.44D-01
 IDIUse=3 WtCom= 9.34D-01 WtEn= 6.63D-02
 Coeff-Com: -0.232D+00 0.546D+00 0.686D+00
 Coeff-En:   0.000D+00 0.000D+00 0.100D+01
 Coeff:     -0.216D+00 0.510D+00 0.706D+00
 Gap=     0.285 Goal=   None    Shift=    0.000
 RMSDP=3.39D-04 MaxDP=3.54D-02 DE=-1.80D-01 OVMax= 7.32D-02

 Cycle   4  Pass 0  IDiag  1:
 RMSU=  1.98D-04    CP:  9.94D-01  1.45D+00  6.80D-01
 E= -2048.72291314957     Delta-E=       -0.044117165104 Rises=F Damp=F
 DIIS: error= 2.46D-03 at cycle   4 NSaved=   4.
 NSaved= 4 IEnMin= 4 EnMin= -2048.72291314957     IErMin= 4 ErrMin= 2.46D-03
 ErrMax= 2.46D-03  0.00D+00 EMaxC= 1.00D-01 BMatC= 8.44D-03 BMatP= 5.91D-02
 IDIUse=3 WtCom= 9.75D-01 WtEn= 2.46D-02
 Coeff-Com: -0.962D-01 0.186D+00 0.377D+00 0.533D+00
 Coeff-En:   0.000D+00 0.000D+00 0.516D-01 0.948D+00
 Coeff:     -0.939D-01 0.182D+00 0.369D+00 0.543D+00
 Gap=     0.286 Goal=   None    Shift=    0.000
 RMSDP=1.20D-04 MaxDP=1.27D-02 DE=-4.41D-02 OVMax= 1.40D-02

 Cycle   5  Pass 0  IDiag  1:
 RMSU=  6.12D-05    CP:  9.93D-01  1.43D+00  8.07D-01  6.33D-01
 E= -2048.72962752855     Delta-E=       -0.006714378980 Rises=F Damp=F
 DIIS: error= 5.70D-04 at cycle   5 NSaved=   5.
 NSaved= 5 IEnMin= 5 EnMin= -2048.72962752855     IErMin= 5 ErrMin= 5.70D-04
 ErrMax= 5.70D-04  0.00D+00 EMaxC= 1.00D-01 BMatC= 2.86D-04 BMatP= 8.44D-03
 IDIUse=3 WtCom= 9.94D-01 WtEn= 5.70D-03
 Coeff-Com: -0.256D-01 0.442D-01 0.124D+00 0.242D+00 0.616D+00
 Coeff-En:   0.000D+00 0.000D+00 0.000D+00 0.000D+00 0.100D+01
 Coeff:     -0.254D-01 0.439D-01 0.123D+00 0.241D+00 0.618D+00
 Gap=     0.285 Goal=   None    Shift=    0.000
 RMSDP=2.52D-05 MaxDP=2.41D-03 DE=-6.71D-03 OVMax= 3.58D-03

 Failed to achieve initial convergence to 1.0D-08 in  6 cycles.
 Switch to full accuracy anyway.
 Cycle   6  Pass 1  IDiag  1:
 E= -2048.73004951627     Delta-E=       -0.000421987717 Rises=F Damp=F
 DIIS: error= 2.29D-04 at cycle   1 NSaved=   1.
 NSaved= 1 IEnMin= 1 EnMin= -2048.73004951627     IErMin= 1 ErrMin= 2.29D-04
 ErrMax= 2.29D-04  0.00D+00 EMaxC= 1.00D-01 BMatC= 7.81D-05 BMatP= 7.81D-05
 IDIUse=3 WtCom= 9.98D-01 WtEn= 2.29D-03
 Coeff-Com:  0.100D+01
 Coeff-En:   0.100D+01
 Coeff:      0.100D+01
 Gap=     0.286 Goal=   None    Shift=    0.000
 RMSDP=2.52D-05 MaxDP=2.41D-03 DE=-4.22D-04 OVMax= 2.01D-03

 Cycle   7  Pass 1  IDiag  1:
 RMSU=  1.11D-04    CP:  1.00D+00
 E= -2048.73010230831     Delta-E=       -0.000052792040 Rises=F Damp=F
 DIIS: error= 2.44D-04 at cycle   2 NSaved=   2.
 NSaved= 2 IEnMin= 2 EnMin= -2048.73010230831     IErMin= 1 ErrMin= 2.29D-04
 ErrMax= 2.44D-04  0.00D+00 EMaxC= 1.00D-01 BMatC= 5.00D-05 BMatP= 7.81D-05
 IDIUse=3 WtCom= 9.98D-01 WtEn= 2.44D-03
 Coeff-Com:  0.426D+00 0.574D+00
 Coeff-En:   0.172D-01 0.983D+00
 Coeff:      0.425D+00 0.575D+00
 Gap=     0.286 Goal=   None    Shift=    0.000
 RMSDP=1.14D-05 MaxDP=1.45D-03 DE=-5.28D-05 OVMax= 1.50D-03

 Cycle   8  Pass 1  IDiag  1:
 RMSU=  1.11D-05    CP:  1.00D+00  1.02D+00
 E= -2048.73013706967     Delta-E=       -0.000034761361 Rises=F Damp=F
 DIIS: error= 1.12D-04 at cycle   3 NSaved=   3.
 NSaved= 3 IEnMin= 3 EnMin= -2048.73013706967     IErMin= 3 ErrMin= 1.12D-04
 ErrMax= 1.12D-04  0.00D+00 EMaxC= 1.00D-01 BMatC= 1.08D-05 BMatP= 5.00D-05
 IDIUse=3 WtCom= 9.99D-01 WtEn= 1.12D-03
 Coeff-Com: -0.195D-01 0.305D+00 0.715D+00
 Coeff-En:   0.000D+00 0.124D+00 0.876D+00
 Coeff:     -0.195D-01 0.304D+00 0.715D+00
 Gap=     0.286 Goal=   None    Shift=    0.000
 RMSDP=5.65D-06 MaxDP=5.57D-04 DE=-3.48D-05 OVMax= 5.12D-04

 Cycle   9  Pass 1  IDiag  1:
 RMSU=  3.88D-06    CP:  1.00D+00  1.05D+00  7.74D-01
 E= -2048.73014666556     Delta-E=       -0.000009595893 Rises=F Damp=F
 DIIS: error= 2.90D-05 at cycle   4 NSaved=   4.
 NSaved= 4 IEnMin= 4 EnMin= -2048.73014666556     IErMin= 4 ErrMin= 2.90D-05
 ErrMax= 2.90D-05  0.00D+00 EMaxC= 1.00D-01 BMatC= 4.66D-07 BMatP= 1.08D-05
 IDIUse=1 WtCom= 1.00D+00 WtEn= 0.00D+00
 Coeff-Com: -0.303D-01 0.824D-01 0.252D+00 0.696D+00
 Coeff:     -0.303D-01 0.824D-01 0.252D+00 0.696D+00
 Gap=     0.286 Goal=   None    Shift=    0.000
 RMSDP=1.42D-06 MaxDP=1.36D-04 DE=-9.60D-06 OVMax= 4.31D-04

 Cycle  10  Pass 1  IDiag  1:
 RMSU=  1.26D-06    CP:  1.00D+00  1.05D+00  8.03D-01  1.12D+00
 E= -2048.73014747394     Delta-E=       -0.000000808375 Rises=F Damp=F
 DIIS: error= 1.09D-05 at cycle   5 NSaved=   5.
 NSaved= 5 IEnMin= 5 EnMin= -2048.73014747394     IErMin= 5 ErrMin= 1.09D-05
 ErrMax= 1.09D-05  0.00D+00 EMaxC= 1.00D-01 BMatC= 1.10D-07 BMatP= 4.66D-07
 IDIUse=1 WtCom= 1.00D+00 WtEn= 0.00D+00
 Coeff-Com: -0.209D-02-0.552D-01-0.132D+00 0.184D+00 0.100D+01
 Coeff:     -0.209D-02-0.552D-01-0.132D+00 0.184D+00 0.100D+01
 Gap=     0.286 Goal=   None    Shift=    0.000
 RMSDP=1.23D-06 MaxDP=8.04D-05 DE=-8.08D-07 OVMax= 2.37D-04

 Cycle  11  Pass 1  IDiag  1:
 RMSU=  4.92D-07    CP:  1.00D+00  1.05D+00  8.11D-01  1.40D+00  1.19D+00
 E= -2048.73014772187     Delta-E=       -0.000000247936 Rises=F Damp=F
 DIIS: error= 7.14D-06 at cycle   6 NSaved=   6.
 NSaved= 6 IEnMin= 6 EnMin= -2048.73014772187     IErMin= 6 ErrMin= 7.14D-06
 ErrMax= 7.14D-06  0.00D+00 EMaxC= 1.00D-01 BMatC= 2.94D-08 BMatP= 1.10D-07
 IDIUse=1 WtCom= 1.00D+00 WtEn= 0.00D+00
 Coeff-Com:  0.454D-02-0.429D-01-0.115D+00-0.442D-02 0.548D+00 0.610D+00
 Coeff:      0.454D-02-0.429D-01-0.115D+00-0.442D-02 0.548D+00 0.610D+00
 Gap=     0.286 Goal=   None    Shift=    0.000
 RMSDP=3.49D-07 MaxDP=3.70D-05 DE=-2.48D-07 OVMax= 1.06D-04

 Cycle  12  Pass 1  IDiag  1:
 RMSU=  1.85D-07    CP:  1.00D+00  1.05D+00  8.12D-01  1.47D+00  1.31D+00
                    CP:  8.99D-01
 E= -2048.73014776106     Delta-E=       -0.000000039185 Rises=F Damp=F
 DIIS: error= 1.04D-06 at cycle   7 NSaved=   7.
 NSaved= 7 IEnMin= 7 EnMin= -2048.73014776106     IErMin= 7 ErrMin= 1.04D-06
 ErrMax= 1.04D-06  0.00D+00 EMaxC= 1.00D-01 BMatC= 8.51D-10 BMatP= 2.94D-08
 IDIUse=1 WtCom= 1.00D+00 WtEn= 0.00D+00
 Coeff-Com:  0.111D-02-0.720D-02-0.212D-01-0.833D-02 0.653D-01 0.143D+00
 Coeff-Com:  0.827D+00
 Coeff:      0.111D-02-0.720D-02-0.212D-01-0.833D-02 0.653D-01 0.143D+00
 Coeff:      0.827D+00
 Gap=     0.286 Goal=   None    Shift=    0.000
 RMSDP=8.45D-08 MaxDP=5.44D-06 DE=-3.92D-08 OVMax= 1.96D-05

 Cycle  13  Pass 1  IDiag  1:
 RMSU=  5.19D-08    CP:  1.00D+00  1.05D+00  8.11D-01  1.48D+00  1.33D+00
                    CP:  9.89D-01  1.12D+00
 E= -2048.73014776275     Delta-E=       -0.000000001688 Rises=F Damp=F
 DIIS: error= 5.11D-07 at cycle   8 NSaved=   8.
 NSaved= 8 IEnMin= 8 EnMin= -2048.73014776275     IErMin= 8 ErrMin= 5.11D-07
 ErrMax= 5.11D-07  0.00D+00 EMaxC= 1.00D-01 BMatC= 3.19D-10 BMatP= 8.51D-10
 IDIUse=1 WtCom= 1.00D+00 WtEn= 0.00D+00
 Coeff-Com: -0.662D-03 0.806D-02 0.201D-01-0.120D-02-0.115D+00-0.884D-01
 Coeff-Com:  0.408D+00 0.769D+00
 Coeff:     -0.662D-03 0.806D-02 0.201D-01-0.120D-02-0.115D+00-0.884D-01
 Coeff:      0.408D+00 0.769D+00
 Gap=     0.286 Goal=   None    Shift=    0.000
 RMSDP=4.83D-08 MaxDP=3.01D-06 DE=-1.69D-09 OVMax= 1.07D-05

 Cycle  14  Pass 1  IDiag  1:
 RMSU=  2.75D-08    CP:  1.00D+00  1.05D+00  8.11D-01  1.48D+00  1.34D+00
                    CP:  1.03D+00  1.27D+00  1.06D+00
 E= -2048.73014776312     Delta-E=       -0.000000000376 Rises=F Damp=F
 DIIS: error= 1.50D-07 at cycle   9 NSaved=   9.
 NSaved= 9 IEnMin= 9 EnMin= -2048.73014776312     IErMin= 9 ErrMin= 1.50D-07
 ErrMax= 1.50D-07  0.00D+00 EMaxC= 1.00D-01 BMatC= 3.44D-11 BMatP= 3.19D-10
 IDIUse=1 WtCom= 1.00D+00 WtEn= 0.00D+00
 Coeff-Com: -0.420D-03 0.442D-02 0.113D-01 0.831D-03-0.574D-01-0.551D-01
 Coeff-Com:  0.835D-01 0.323D+00 0.690D+00
 Coeff:     -0.420D-03 0.442D-02 0.113D-01 0.831D-03-0.574D-01-0.551D-01
 Coeff:      0.835D-01 0.323D+00 0.690D+00
 Gap=     0.286 Goal=   None    Shift=    0.000
 RMSDP=1.38D-08 MaxDP=8.19D-07 DE=-3.76D-10 OVMax= 3.00D-06

 Cycle  15  Pass 1  IDiag  1:
 RMSU=  9.52D-09    CP:  1.00D+00  1.05D+00  8.11D-01  1.48D+00  1.34D+00
                    CP:  1.04D+00  1.30D+00  1.21D+00  1.10D+00
 E= -2048.73014776330     Delta-E=       -0.000000000173 Rises=F Damp=F
 DIIS: error= 5.94D-08 at cycle  10 NSaved=  10.
 NSaved=10 IEnMin=10 EnMin= -2048.73014776330     IErMin=10 ErrMin= 5.94D-08
 ErrMax= 5.94D-08  0.00D+00 EMaxC= 1.00D-01 BMatC= 5.54D-12 BMatP= 3.44D-11
 IDIUse=1 WtCom= 1.00D+00 WtEn= 0.00D+00
 Coeff-Com: -0.817D-05-0.164D-03-0.275D-03 0.215D-03 0.376D-02-0.846D-03
 Coeff-Com: -0.531D-01-0.485D-01 0.263D+00 0.836D+00
 Coeff:     -0.817D-05-0.164D-03-0.275D-03 0.215D-03 0.376D-02-0.846D-03
 Coeff:     -0.531D-01-0.485D-01 0.263D+00 0.836D+00
 Gap=     0.286 Goal=   None    Shift=    0.000
 RMSDP=6.99D-09 MaxDP=4.03D-07 DE=-1.73D-10 OVMax= 1.46D-06

 SCF Done:  E(RwB97XD) =  -2048.73014776     A.U. after   15 cycles
            NFock= 15  Conv=0.70D-08     -V/T= 2.0053
 KE= 2.037904516993D+03 PE=-1.586088303737D+04 EE= 6.234049426679D+03
 Leave Link  502 at Mon Jan 22 08:50:46 2018, MaxMem=  4294967296 cpu:           21818.1 elap:             703.6
 (Enter /share/apps/g16/l601.exe)
 Copying SCF densities to generalized density rwf, IOpCl= 0 IROHF=0.

 **********************************************************************

            Population analysis using the SCF density.

 **********************************************************************

 Orbital symmetries:
       Occupied  (A) (A) (A) (A) (A) (A) (A) (A) (A) (A) (A) (A)
                 (A) (A) (A) (A) (A) (A) (A) (A) (A) (A) (A) (A)
                 (A) (A) (A) (A) (A) (A) (A) (A) (A) (A) (A) (A)
                 (A) (A) (A) (A) (A) (A) (A) (A) (A) (A) (A) (A)
                 (A) (A) (A) (A) (A) (A) (A) (A) (A) (A) (A) (A)
                 (A) (A) (A) (A) (A) (A) (A) (A) (A) (A) (A) (A)
                 (A) (A) (A) (A) (A) (A) (A) (A) (A) (A) (A) (A)
                 (A) (A) (A) (A) (A) (A) (A) (A) (A) (A) (A) (A)
                 (A) (A) (A) (A) (A) (A) (A) (A) (A) (A) (A) (A)
                 (A) (A) (A) (A) (A) (A) (A) (A) (A) (A) (A) (A)
                 (A) (A) (A) (A) (A) (A) (A) (A) (A) (A) (A) (A)
                 (A) (A) (A) (A) (A) (A) (A) (A) (A) (A) (A) (A)
                 (A) (A) (A) (A) (A) (A) (A) (A) (A) (A)
       Virtual   (A) (A) (A) (A) (A) (A) (A) (A) (A) (A) (A) (A)
                 (A) (A) (A) (A) (A) (A) (A) (A) (A) (A) (A) (A)
                 (A) (A) (A) (A) (A) (A) (A) (A) (A) (A) (A) (A)
                 (A) (A) (A) (A) (A) (A) (A) (A) (A) (A) (A) (A)
                 (A) (A) (A) (A) (A) (A) (A) (A) (A) (A) (A) (A)
                 (A) (A) (A) (A) (A) (A) (A) (A) (A) (A) (A) (A)
                 (A) (A) (A) (A) (A) (A) (A) (A) (A) (A) (A) (A)
                 (A) (A) (A) (A) (A) (A) (A) (A) (A) (A) (A) (A)
                 (A) (A) (A) (A) (A) (A) (A) (A) (A) (A) (A) (A)
                 (A) (A) (A) (A) (A) (A) (A) (A) (A) (A) (A) (A)
                 (A) (A) (A) (A) (A) (A) (A) (A) (A) (A) (A) (A)
                 (A) (A) (A) (A) (A) (A) (A) (A) (A) (A) (A) (A)
                 (A) (A) (A) (A) (A) (A) (A) (A) (A) (A) (A) (A)
                 (A) (A) (A) (A) (A) (A) (A) (A) (A) (A) (A) (A)
                 (A) (A) (A) (A) (A) (A) (A) (A) (A) (A) (A) (A)
                 (A) (A) (A) (A) (A) (A) (A) (A) (A) (A) (A) (A)
                 (A) (A) (A) (A) (A) (A) (A) (A) (A) (A) (A) (A)
                 (A) (A) (A) (A) (A) (A) (A) (A) (A) (A) (A) (A)
                 (A) (A) (A) (A) (A) (A) (A) (A) (A) (A) (A) (A)
                 (A) (A) (A) (A) (A) (A) (A) (A) (A) (A) (A) (A)
                 (A) (A) (A) (A) (A) (A) (A) (A) (A) (A) (A) (A)
                 (A) (A) (A) (A) (A) (A) (A) (A) (A) (A) (A) (A)
                 (A) (A) (A) (A) (A) (A) (A) (A) (A) (A) (A) (A)
                 (A) (A) (A) (A) (A) (A) (A) (A) (A) (A) (A) (A)
                 (A) (A) (A) (A) (A) (A) (A) (A) (A) (A) (A) (A)
                 (A) (A) (A) (A) (A) (A) (A) (A) (A) (A) (A) (A)
                 (A) (A) (A) (A) (A) (A) (A) (A) (A) (A) (A) (A)
                 (A) (A) (A) (A) (A) (A) (A) (A) (A) (A) (A) (A)
                 (A) (A) (A) (A) (A) (A) (A) (A) (A) (A) (A) (A)
                 (A) (A) (A) (A) (A) (A) (A) (A) (A) (A) (A) (A)
                 (A) (A) (A) (A) (A) (A) (A) (A) (A) (A) (A) (A)
                 (A) (A) (A) (A) (A) (A) (A) (A) (A) (A) (A) (A)
                 (A) (A) (A) (A) (A) (A) (A) (A) (A) (A) (A) (A)
                 (A) (A) (A) (A) (A) (A) (A) (A) (A) (A) (A) (A)
                 (A) (A) (A) (A) (A) (A) (A) (A) (A) (A) (A) (A)
                 (A) (A) (A) (A) (A) (A) (A) (A) (A) (A) (A) (A)
                 (A) (A) (A) (A) (A) (A) (A) (A) (A) (A) (A) (A)
                 (A) (A) (A) (A) (A) (A) (A) (A) (A) (A) (A) (A)
                 (A) (A) (A) (A) (A) (A) (A) (A) (A) (A) (A) (A)
                 (A) (A) (A) (A) (A) (A) (A) (A) (A) (A) (A) (A)
                 (A) (A) (A) (A) (A) (A) (A) (A) (A) (A) (A) (A)
                 (A) (A) (A) (A) (A) (A) (A) (A) (A) (A) (A) (A)
                 (A) (A) (A) (A) (A) (A) (A) (A) (A) (A) (A) (A)
                 (A) (A) (A) (A) (A) (A) (A) (A) (A) (A) (A) (A)
                 (A) (A) (A) (A) (A) (A) (A) (A) (A) (A) (A) (A)
                 (A) (A) (A) (A) (A) (A) (A) (A) (A) (A) (A) (A)
                 (A) (A) (A) (A) (A) (A) (A) (A) (A) (A) (A) (A)
                 (A) (A) (A) (A) (A) (A) (A) (A) (A) (A) (A) (A)
                 (A) (A) (A) (A) (A) (A) (A)
 The electronic state is 1-A.
 Alpha  occ. eigenvalues --  -19.25001 -19.21078 -19.20523 -14.52960 -14.51282
 Alpha  occ. eigenvalues --  -14.49142 -14.49050 -14.48482 -14.46972 -14.46616
 Alpha  occ. eigenvalues --  -14.46593 -14.45823 -14.45227 -14.44894 -14.43269
 Alpha  occ. eigenvalues --  -14.41919 -14.41448 -14.41279 -14.41150 -14.40822
 Alpha  occ. eigenvalues --  -10.44512 -10.41099 -10.40826 -10.39210 -10.38378
 Alpha  occ. eigenvalues --  -10.38163 -10.37745 -10.36931 -10.36408 -10.36033
 Alpha  occ. eigenvalues --  -10.34458 -10.34212 -10.33880 -10.33825 -10.33414
 Alpha  occ. eigenvalues --  -10.33350 -10.33344 -10.33118 -10.31268 -10.30413
 Alpha  occ. eigenvalues --  -10.30271 -10.28701 -10.28249  -1.18585  -1.15783
 Alpha  occ. eigenvalues --   -1.13206  -1.12121  -1.11160  -1.10812  -1.10205
 Alpha  occ. eigenvalues --   -1.08558  -1.08253  -1.05662  -1.05541  -1.01556
 Alpha  occ. eigenvalues --   -1.01449  -1.01041  -0.99674  -0.98576  -0.97736
 Alpha  occ. eigenvalues --   -0.96896  -0.96783  -0.93252  -0.90120  -0.88354
 Alpha  occ. eigenvalues --   -0.86368  -0.84372  -0.83900  -0.82795  -0.82427
 Alpha  occ. eigenvalues --   -0.82168  -0.78003  -0.77657  -0.75549  -0.74743
 Alpha  occ. eigenvalues --   -0.73622  -0.73174  -0.72477  -0.71393  -0.71107
 Alpha  occ. eigenvalues --   -0.67468  -0.67401  -0.66585  -0.65701  -0.64869
 Alpha  occ. eigenvalues --   -0.64353  -0.63325  -0.63065  -0.62549  -0.61831
 Alpha  occ. eigenvalues --   -0.61286  -0.60960  -0.60781  -0.60064  -0.58928
 Alpha  occ. eigenvalues --   -0.58718  -0.58305  -0.57418  -0.56836  -0.56122
 Alpha  occ. eigenvalues --   -0.55812  -0.55788  -0.55531  -0.55054  -0.54223
 Alpha  occ. eigenvalues --   -0.54055  -0.53991  -0.53396  -0.53054  -0.52870
 Alpha  occ. eigenvalues --   -0.51778  -0.51662  -0.51059  -0.50611  -0.50552
 Alpha  occ. eigenvalues --   -0.50183  -0.50075  -0.49771  -0.49151  -0.49023
 Alpha  occ. eigenvalues --   -0.48683  -0.48083  -0.47917  -0.47294  -0.47009
 Alpha  occ. eigenvalues --   -0.46950  -0.45577  -0.45249  -0.45031  -0.42654
 Alpha  occ. eigenvalues --   -0.41573  -0.41177  -0.38876  -0.38375  -0.38217
 Alpha  occ. eigenvalues --   -0.38059  -0.37232  -0.36712  -0.35466  -0.35181
 Alpha  occ. eigenvalues --   -0.35017  -0.34295  -0.33740  -0.33583  -0.32981
 Alpha  occ. eigenvalues --   -0.32546  -0.32279  -0.31845  -0.30872  -0.30754
 Alpha  occ. eigenvalues --   -0.30674  -0.30561  -0.26180  -0.25588
 Alpha virt. eigenvalues --    0.03002   0.04325   0.05986   0.07452   0.08823
 Alpha virt. eigenvalues --    0.09085   0.09680   0.10007   0.10829   0.12112
 Alpha virt. eigenvalues --    0.13413   0.13949   0.14416   0.14428   0.14649
 Alpha virt. eigenvalues --    0.15247   0.16349   0.16944   0.17723   0.18094
 Alpha virt. eigenvalues --    0.18642   0.19007   0.19773   0.20170   0.20710
 Alpha virt. eigenvalues --    0.20742   0.21251   0.21538   0.21926   0.22039
 Alpha virt. eigenvalues --    0.22357   0.22718   0.23112   0.23381   0.23789
 Alpha virt. eigenvalues --    0.24162   0.24352   0.24546   0.25508   0.25794
 Alpha virt. eigenvalues --    0.26036   0.27426   0.27682   0.28178   0.28402
 Alpha virt. eigenvalues --    0.28607   0.28913   0.30152   0.30698   0.31425
 Alpha virt. eigenvalues --    0.31706   0.32064   0.32849   0.33371   0.33645
 Alpha virt. eigenvalues --    0.33904   0.34903   0.35094   0.36196   0.36906
 Alpha virt. eigenvalues --    0.36982   0.37408   0.37990   0.38559   0.38822
 Alpha virt. eigenvalues --    0.39337   0.39785   0.40425   0.40985   0.41821
 Alpha virt. eigenvalues --    0.42448   0.42536   0.43177   0.43974   0.44130
 Alpha virt. eigenvalues --    0.45768   0.45952   0.46405   0.46930   0.47084
 Alpha virt. eigenvalues --    0.47425   0.48054   0.48195   0.48652   0.49273
 Alpha virt. eigenvalues --    0.49511   0.50242   0.50606   0.50966   0.51417
 Alpha virt. eigenvalues --    0.51738   0.52152   0.53105   0.53436   0.53605
 Alpha virt. eigenvalues --    0.53971   0.54785   0.55047   0.55185   0.55529
 Alpha virt. eigenvalues --    0.55895   0.56495   0.56683   0.57185   0.57521
 Alpha virt. eigenvalues --    0.57922   0.58197   0.58797   0.58986   0.59592
 Alpha virt. eigenvalues --    0.60032   0.60242   0.60522   0.61368   0.61754
 Alpha virt. eigenvalues --    0.61934   0.62243   0.62532   0.63066   0.63485
 Alpha virt. eigenvalues --    0.63918   0.64443   0.64574   0.65232   0.65390
 Alpha virt. eigenvalues --    0.65693   0.66188   0.66553   0.66902   0.67937
 Alpha virt. eigenvalues --    0.68625   0.68965   0.69024   0.69636   0.69823
 Alpha virt. eigenvalues --    0.70688   0.71230   0.71576   0.71672   0.72190
 Alpha virt. eigenvalues --    0.72543   0.73019   0.73252   0.73546   0.74042
 Alpha virt. eigenvalues --    0.74465   0.74849   0.75276   0.75532   0.76121
 Alpha virt. eigenvalues --    0.76344   0.76613   0.76841   0.77237   0.77553
 Alpha virt. eigenvalues --    0.77865   0.78489   0.78946   0.79078   0.79475
 Alpha virt. eigenvalues --    0.79833   0.79966   0.80175   0.80561   0.81023
 Alpha virt. eigenvalues --    0.81464   0.82246   0.82472   0.82681   0.83237
 Alpha virt. eigenvalues --    0.83932   0.84220   0.84736   0.85156   0.85736
 Alpha virt. eigenvalues --    0.86217   0.86723   0.86904   0.87420   0.88025
 Alpha virt. eigenvalues --    0.88362   0.88634   0.89090   0.89139   0.89800
 Alpha virt. eigenvalues --    0.90577   0.90959   0.91281   0.91805   0.92157
 Alpha virt. eigenvalues --    0.92719   0.93488   0.93982   0.94399   0.95005
 Alpha virt. eigenvalues --    0.95408   0.95550   0.95817   0.96555   0.96819
 Alpha virt. eigenvalues --    0.97390   0.97639   0.98239   0.98484   0.98858
 Alpha virt. eigenvalues --    0.99011   0.99273   1.00508   1.01126   1.01343
 Alpha virt. eigenvalues --    1.01918   1.02300   1.02819   1.03516   1.04404
 Alpha virt. eigenvalues --    1.04681   1.05148   1.05567   1.05847   1.06326
 Alpha virt. eigenvalues --    1.06677   1.07058   1.08162   1.08716   1.09249
 Alpha virt. eigenvalues --    1.10224   1.10270   1.10975   1.11775   1.12199
 Alpha virt. eigenvalues --    1.12519   1.13170   1.13561   1.14051   1.14142
 Alpha virt. eigenvalues --    1.14579   1.15007   1.15554   1.15647   1.16008
 Alpha virt. eigenvalues --    1.16533   1.16827   1.17239   1.17652   1.18172
 Alpha virt. eigenvalues --    1.18591   1.19371   1.19511   1.20013   1.20054
 Alpha virt. eigenvalues --    1.20397   1.21127   1.21338   1.21468   1.21898
 Alpha virt. eigenvalues --    1.22288   1.22365   1.23205   1.23555   1.23916
 Alpha virt. eigenvalues --    1.24495   1.25437   1.25664   1.26171   1.26503
 Alpha virt. eigenvalues --    1.26960   1.28023   1.28323   1.28732   1.29370
 Alpha virt. eigenvalues --    1.29743   1.29970   1.31285   1.31366   1.32104
 Alpha virt. eigenvalues --    1.32698   1.33117   1.33403   1.33597   1.34105
 Alpha virt. eigenvalues --    1.34911   1.35237   1.36047   1.37158   1.37681
 Alpha virt. eigenvalues --    1.38527   1.38865   1.39460   1.40129   1.41231
 Alpha virt. eigenvalues --    1.42153   1.43038   1.44482   1.44820   1.45296
 Alpha virt. eigenvalues --    1.45696   1.46651   1.47754   1.47975   1.49161
 Alpha virt. eigenvalues --    1.49991   1.50747   1.51613   1.52079   1.52245
 Alpha virt. eigenvalues --    1.52993   1.53189   1.53564   1.54516   1.55644
 Alpha virt. eigenvalues --    1.55978   1.56428   1.57412   1.57849   1.58655
 Alpha virt. eigenvalues --    1.59523   1.59998   1.60198   1.61304   1.61868
 Alpha virt. eigenvalues --    1.62327   1.63073   1.63418   1.63815   1.64534
 Alpha virt. eigenvalues --    1.65513   1.65796   1.66480   1.66928   1.67714
 Alpha virt. eigenvalues --    1.68070   1.68200   1.68810   1.69529   1.69927
 Alpha virt. eigenvalues --    1.70768   1.70876   1.71370   1.71966   1.72001
 Alpha virt. eigenvalues --    1.72529   1.73274   1.73865   1.74246   1.74554
 Alpha virt. eigenvalues --    1.74835   1.75542   1.76020   1.76251   1.76371
 Alpha virt. eigenvalues --    1.76389   1.76786   1.77028   1.77400   1.78015
 Alpha virt. eigenvalues --    1.78456   1.78572   1.79121   1.79280   1.79687
 Alpha virt. eigenvalues --    1.80125   1.80565   1.80861   1.81329   1.81511
 Alpha virt. eigenvalues --    1.82123   1.82221   1.82607   1.83008   1.83423
 Alpha virt. eigenvalues --    1.84213   1.84402   1.85234   1.85428   1.85863
 Alpha virt. eigenvalues --    1.85994   1.86623   1.87003   1.87677   1.87705
 Alpha virt. eigenvalues --    1.87914   1.88029   1.88938   1.89417   1.90156
 Alpha virt. eigenvalues --    1.90273   1.90871   1.92113   1.92162   1.92478
 Alpha virt. eigenvalues --    1.92707   1.93590   1.94106   1.94414   1.95338
 Alpha virt. eigenvalues --    1.95961   1.96402   1.97531   1.97774   1.99607
 Alpha virt. eigenvalues --    1.99908   2.00249   2.00642   2.01238   2.02322
 Alpha virt. eigenvalues --    2.03321   2.03509   2.03923   2.04366   2.05022
 Alpha virt. eigenvalues --    2.05354   2.06538   2.06813   2.08495   2.08738
 Alpha virt. eigenvalues --    2.09139   2.09283   2.10304   2.10669   2.11637
 Alpha virt. eigenvalues --    2.12342   2.12920   2.13197   2.13751   2.14805
 Alpha virt. eigenvalues --    2.15396   2.15737   2.16422   2.17268   2.18389
 Alpha virt. eigenvalues --    2.18734   2.20027   2.21213   2.21731   2.22396
 Alpha virt. eigenvalues --    2.22769   2.23084   2.23408   2.24093   2.24645
 Alpha virt. eigenvalues --    2.25152   2.25562   2.26252   2.27008   2.27869
 Alpha virt. eigenvalues --    2.28137   2.28759   2.29105   2.29549   2.29997
 Alpha virt. eigenvalues --    2.30697   2.31879   2.32019   2.32488   2.32794
 Alpha virt. eigenvalues --    2.33217   2.34020   2.34165   2.34861   2.35368
 Alpha virt. eigenvalues --    2.35639   2.35794   2.37231   2.37993   2.38392
 Alpha virt. eigenvalues --    2.38838   2.39736   2.40689   2.41149   2.41390
 Alpha virt. eigenvalues --    2.42703   2.43119   2.43884   2.43998   2.44635
 Alpha virt. eigenvalues --    2.45282   2.45385   2.45849   2.46697   2.47341
 Alpha virt. eigenvalues --    2.48465   2.48781   2.50355   2.51392   2.52347
 Alpha virt. eigenvalues --    2.53613   2.54069   2.55145   2.55936   2.56633
 Alpha virt. eigenvalues --    2.58069   2.58220   2.58671   2.60353   2.61097
 Alpha virt. eigenvalues --    2.61960   2.63374   2.64279   2.64733   2.64926
 Alpha virt. eigenvalues --    2.65434   2.65726   2.65795   2.66453   2.67361
 Alpha virt. eigenvalues --    2.67820   2.68563   2.69256   2.70239   2.70484
 Alpha virt. eigenvalues --    2.70924   2.71795   2.72443   2.72907   2.73394
 Alpha virt. eigenvalues --    2.75266   2.75767   2.76101   2.76590   2.77404
 Alpha virt. eigenvalues --    2.77507   2.78407   2.78890   2.79049   2.79630
 Alpha virt. eigenvalues --    2.79955   2.80542   2.80748   2.81037   2.81794
 Alpha virt. eigenvalues --    2.82361   2.83378   2.83837   2.84571   2.85499
 Alpha virt. eigenvalues --    2.85629   2.86322   2.86759   2.87183   2.87387
 Alpha virt. eigenvalues --    2.88393   2.88784   2.90174   2.92713   2.94996
 Alpha virt. eigenvalues --    2.95163   2.96235   2.97535   2.99576   2.99911
 Alpha virt. eigenvalues --    3.00158   3.01737   3.02441   3.05132   3.05660
 Alpha virt. eigenvalues --    3.08296   3.09482   3.10480   3.12286   3.15007
 Alpha virt. eigenvalues --    3.15255   3.15925   3.17103   3.19493   3.20630
 Alpha virt. eigenvalues --    3.22064   3.23180   3.24487   3.25167   3.26431
 Alpha virt. eigenvalues --    3.44157   3.47350   3.48091   3.49421   3.51236
 Alpha virt. eigenvalues --    3.52785   3.54866   3.56628   3.58175   3.60666
 Alpha virt. eigenvalues --    3.64050   3.71567   3.75563
          Condensed to atoms (all electrons):
 Mulliken charges:
               1
     1  N   -0.305417
     2  C    0.186450
     3  C    0.069848
     4  N   -0.260728
     5  C    0.150360
     6  H    0.029318
     7  N   -0.284932
     8  C    0.127668
     9  H    0.008802
    10  N   -0.269348
    11  C    0.237177
    12  C    0.074947
    13  N   -0.065705
    14  H    0.112580
    15  H    0.082020
    16  H    0.022643
    17  H    0.025548
    18  H    0.029460
    19  N   -0.305031
    20  C    0.272619
    21  C    0.184130
    22  N   -0.101527
    23  H    0.123905
    24  H    0.117789
    25  N   -0.287169
    26  C    0.170642
    27  N   -0.108456
    28  H    0.119370
    29  C    0.165927
    30  O   -0.318358
    31  C   -0.009936
    32  N   -0.225704
    33  C    0.101105
    34  H    0.022753
    35  H    0.022192
    36  H    0.031626
    37  H    0.025160
    38  H    0.059351
    39  H    0.047734
    40  H    0.079981
    41  H    0.023816
    42  C   -0.115026
    43  O   -0.266079
    44  C    0.174638
    45  H    0.134071
    46  N   -0.126245
    47  O   -0.347145
    48  C    0.340740
    49  H    0.043359
    50  C    0.167824
    51  C    0.051909
    52  N   -0.275865
    53  H    0.035168
    54  H    0.040704
    55  H    0.031395
    56  H    0.120001
    57  H    0.121018
    58  N   -0.062924
    59  C    0.087370
    60  C    0.202054
    61  N   -0.253584
    62  H    0.028390
    63  C    0.155047
    64  N   -0.300243
    65  H    0.041330
    66  C    0.138486
    67  N   -0.253839
    68  C    0.029053
    69  C    0.180484
    70  N   -0.304702
 Sum of Mulliken charges =  -0.00000
 Mulliken charges with hydrogens summed into heavy atoms:
               1
     1  N   -0.305417
     2  C    0.264101
     3  C    0.069848
     4  N   -0.260728
     5  C    0.179678
     7  N   -0.284932
     8  C    0.136470
    10  N   -0.269348
    11  C    0.237177
    12  C    0.074947
    13  N    0.128895
    19  N   -0.305031
    20  C    0.272619
    21  C    0.263108
    22  N    0.140168
    25  N   -0.287169
    26  C    0.170642
    27  N    0.010914
    29  C    0.165927
    30  O   -0.318358
    31  C   -0.009936
    32  N   -0.225704
    33  C    0.123858
    42  C   -0.091210
    43  O   -0.266079
    44  C    0.174638
    46  N    0.007827
    47  O   -0.347145
    48  C    0.340740
    50  C    0.211183
    51  C    0.238975
    52  N   -0.275865
    58  N    0.178095
    59  C    0.087370
    60  C    0.202054
    61  N   -0.253584
    63  C    0.183436
    64  N   -0.300243
    66  C    0.179817
    67  N   -0.253839
    68  C    0.029053
    69  C    0.287751
    70  N   -0.304702
 Electronic spatial extent (au):  <R**2>=          22717.7945
 Charge=              0.0000 electrons
 Dipole moment (field-independent basis, Debye):
    X=             -7.3291    Y=              7.2932    Z=             -2.0520  Tot=             10.5412
 Quadrupole moment (field-independent basis, Debye-Ang):
   XX=           -157.5538   YY=           -226.6851   ZZ=           -253.2718
   XY=              4.6919   XZ=            -16.8711   YZ=             14.6042
 Traceless Quadrupole moment (field-independent basis, Debye-Ang):
   XX=             54.9498   YY=            -14.1815   ZZ=            -40.7683
   XY=              4.6919   XZ=            -16.8711   YZ=             14.6042
 Octapole moment (field-independent basis, Debye-Ang**2):
  XXX=             67.1241  YYY=            138.3497  ZZZ=             11.1363  XYY=           -119.8993
  XXY=            144.6999  XXZ=            -45.3420  XZZ=            -26.5222  YZZ=              9.3197
  YYZ=            -50.3056  XYZ=             37.0688
 Hexadecapole moment (field-independent basis, Debye-Ang**3):
 XXXX=         -17255.6749 YYYY=          -4956.6827 ZZZZ=          -3357.8632 XXXY=           -482.5664
 XXXZ=           -382.8664 YYYX=              6.7961 YYYZ=            143.9695 ZZZX=            -88.0647
 ZZZY=             34.2622 XXYY=          -3380.8843 XXZZ=          -4059.5117 YYZZ=          -1484.0103
 XXYZ=            115.4084 YYXZ=             52.1306 ZZXY=             21.5340
 N-N= 5.540198945938D+03 E-N=-1.586088303212D+04  KE= 2.037904516993D+03
 No NMR shielding tensors so no spin-rotation constants.
 Leave Link  601 at Mon Jan 22 08:50:48 2018, MaxMem=  4294967296 cpu:              45.8 elap:               1.6
 (Enter /share/apps/g16/l9999.exe)
 1\1\GINC-COMPUTE-0-3\SP\RwB97XD\CC-pVDZ\C23H27N17O3\SATYA\22-Jan-2018\
 0\\#p wb97xd/cc-pvdz sp scf=(maxcycles=20)\\Base pair stacking\\0,1\N,
 0,0.60411,-0.14247,-6.68449\C,0,1.3225,1.1464,-6.7115\C,0,-0.93038,-1.
 69347,-6.4069\N,0,0.18131,-2.33685,-6.93125\C,0,1.06129,-1.37668,-7.07
 749\H,0,2.06886,-1.51378,-7.47114\N,0,-3.08002,-1.25597,-5.54054\C,0,-
 2.69859,0.022,-5.44629\H,0,-3.44904,0.70304,-5.0472\N,0,-1.53479,0.582
 37,-5.7695\C,0,-0.68481,-0.34056,-6.24924\C,0,-2.20199,-2.16006,-6.027
 11\N,0,-2.58089,-3.43623,-6.12196\H,0,-1.96368,-4.13954,-6.47639\H,0,-
 3.49412,-3.73264,-5.84213\H,0,1.58881,1.36149,-7.65118\H,0,0.72651,1.8
 6844,-6.36141\H,0,2.14115,1.08611,-6.14037\N,0,0.44499,2.30655,-3.1708
 5\C,0,-0.54659,1.37065,-3.00082\C,0,0.2568,3.77003,-3.11177\N,0,-3.876
 07,0.593,-2.39125\H,0,-4.43664,-0.22959,-2.29993\H,0,-4.34141,1.47273,
 -2.28992\N,0,-1.84896,1.62867,-2.7532\C,0,-2.55943,0.52066,-2.63851\N,
 0,-2.03642,-0.74423,-2.75692\H,0,-2.65474,-1.53423,-2.65427\C,0,-0.699
 45,-1.0333,-3.01152\O,0,-0.33001,-2.21078,-3.0998\C,0,0.07632,0.14706,
 -3.13723\N,0,1.4317,0.31148,-3.38785\C,0,1.60393,1.60547,-3.3989\H,0,2
 .55911,2.10334,-3.56929\H,0,0.52216,4.17741,-3.98495\H,0,-0.70419,3.97
 325,-2.92885\H,0,0.82195,4.15121,-2.38093\H,0,-6.35937,-5.01673,-2.678
 81\H,0,-5.8598,-5.25773,-1.00639\H,0,-5.72245,-3.66213,-1.74568\H,0,-2
 .39682,-7.66966,-3.31658\C,0,-2.67233,-6.64051,-3.08598\O,0,-0.53088,-
 5.75814,-3.59851\C,0,-1.6948,-5.60521,-3.2288\H,0,-1.48471,-3.58237,-3
 .00006\N,0,-2.14691,-4.34024,-2.91146\O,0,-3.71158,-2.84281,-2.22829\C
 ,0,-3.40475,-3.99356,-2.48577\H,0,-4.68725,-7.08378,-2.54797\C,0,-3.90
 752,-6.33359,-2.67279\C,0,-5.64725,-4.72497,-1.9213\N,0,-4.29072,-5.04
 689,-2.3729\H,0,-10.49215,-2.95506,-3.33696\H,0,-9.11547,-2.39601,-2.6
 6294\H,0,-9.9538,-3.59184,-1.93406\H,0,-4.639,-6.48031,-6.23158\H,0,-6
 .14914,-7.23777,-5.99527\N,0,-5.56512,-6.4372,-5.85663\C,0,-6.00286,-5
 .36046,-5.20074\C,0,-7.60301,-4.07033,-4.00206\N,0,-6.79663,-3.00972,-
 3.83092\H,0,-4.88977,-2.41882,-4.29494\C,0,-5.60793,-3.23236,-4.38798\
 N,0,-5.16758,-4.31011,-5.04534\H,0,-10.29969,-5.83821,-3.76825\C,0,-9.
 29942,-5.45962,-3.98056\N,0,-8.37573,-6.12053,-4.63452\C,0,-7.29492,-5
 .25097,-4.65528\C,0,-9.67742,-3.20847,-2.81543\N,0,-8.89991,-4.21172,-
 3.56842\\Version=EM64L-G16RevA.03\State=1-A\HF=-2048.7301478\RMSD=6.98
 7e-09\Dipole=-4.0846453,0.4626429,0.5487758\Quadrupole=5.7492802,12.29
 54678,-18.044748,31.1654352,-20.2081155,1.5082115\PG=C01 [X(C23H27N17O
 3)]\\@


 ABSOLUTISM, OBSOLETISM -- IF IT WORKS, IT'S OUT OF DATE

                          -- STAFFORD BEER
 Job cpu time:       0 days  6 hours 14 minutes 25.0 seconds.
 Elapsed time:       0 days  0 hours 12 minutes  4.3 seconds.
 File lengths (MBytes):  RWF=    298 Int=      0 D2E=      0 Chk=     33 Scr=      1
 Normal termination of Gaussian 16 at Mon Jan 22 08:50:48 2018.
