 Entering Gaussian System, Link 0=g16
 Input=str35.5.2.5.com
 Output=str35.5.2.5.log
 Initial command:
 /share/apps/g16/l1.exe "/state/partition1/scr/Gau-19201.inp" -scrdir="/state/partition1/scr/"
 Entering Link 1 = /share/apps/g16/l1.exe PID=     19202.
  
 Copyright (c) 1988,1990,1992,1993,1995,1998,2003,2009,2016,
            Gaussian, Inc.  All Rights Reserved.
  
 This is part of the Gaussian(R) 16 program.  It is based on
 the Gaussian(R) 09 system (copyright 2009, Gaussian, Inc.),
 the Gaussian(R) 03 system (copyright 2003, Gaussian, Inc.),
 the Gaussian(R) 98 system (copyright 1998, Gaussian, Inc.),
 the Gaussian(R) 94 system (copyright 1995, Gaussian, Inc.),
 the Gaussian 92(TM) system (copyright 1992, Gaussian, Inc.),
 the Gaussian 90(TM) system (copyright 1990, Gaussian, Inc.),
 the Gaussian 88(TM) system (copyright 1988, Gaussian, Inc.),
 the Gaussian 86(TM) system (copyright 1986, Carnegie Mellon
 University), and the Gaussian 82(TM) system (copyright 1983,
 Carnegie Mellon University). Gaussian is a federally registered
 trademark of Gaussian, Inc.
  
 This software contains proprietary and confidential information,
 including trade secrets, belonging to Gaussian, Inc.
  
 This software is provided under written license and may be
 used, copied, transmitted, or stored only in accord with that
 written license.
  
 The following legend is applicable only to US Government
 contracts under FAR:
  
                    RESTRICTED RIGHTS LEGEND
  
 Use, reproduction and disclosure by the US Government is
 subject to restrictions as set forth in subparagraphs (a)
 and (c) of the Commercial Computer Software - Restricted
 Rights clause in FAR 52.227-19.
  
 Gaussian, Inc.
 340 Quinnipiac St., Bldg. 40, Wallingford CT 06492
  
  
 ---------------------------------------------------------------
 Warning -- This program may not be used in any manner that
 competes with the business of Gaussian, Inc. or will provide
 assistance to any competitor of Gaussian, Inc.  The licensee
 of this program is prohibited from giving any competitor of
 Gaussian, Inc. access to this program.  By using this program,
 the user acknowledges that Gaussian, Inc. is engaged in the
 business of creating and licensing software in the field of
 computational chemistry and represents and warrants to the
 licensee that it is not a competitor of Gaussian, Inc. and that
 it will not use this program in any manner prohibited above.
 ---------------------------------------------------------------
  

 Cite this work as:
 Gaussian 16, Revision A.03,
 M. J. Frisch, G. W. Trucks, H. B. Schlegel, G. E. Scuseria, 
 M. A. Robb, J. R. Cheeseman, G. Scalmani, V. Barone, 
 G. A. Petersson, H. Nakatsuji, X. Li, M. Caricato, A. V. Marenich, 
 J. Bloino, B. G. Janesko, R. Gomperts, B. Mennucci, H. P. Hratchian, 
 J. V. Ortiz, A. F. Izmaylov, J. L. Sonnenberg, D. Williams-Young, 
 F. Ding, F. Lipparini, F. Egidi, J. Goings, B. Peng, A. Petrone, 
 T. Henderson, D. Ranasinghe, V. G. Zakrzewski, J. Gao, N. Rega, 
 G. Zheng, W. Liang, M. Hada, M. Ehara, K. Toyota, R. Fukuda, 
 J. Hasegawa, M. Ishida, T. Nakajima, Y. Honda, O. Kitao, H. Nakai, 
 T. Vreven, K. Throssell, J. A. Montgomery, Jr., J. E. Peralta, 
 F. Ogliaro, M. J. Bearpark, J. J. Heyd, E. N. Brothers, K. N. Kudin, 
 V. N. Staroverov, T. A. Keith, R. Kobayashi, J. Normand, 
 K. Raghavachari, A. P. Rendell, J. C. Burant, S. S. Iyengar, 
 J. Tomasi, M. Cossi, J. M. Millam, M. Klene, C. Adamo, R. Cammi, 
 J. W. Ochterski, R. L. Martin, K. Morokuma, O. Farkas, 
 J. B. Foresman, and D. J. Fox, Gaussian, Inc., Wallingford CT, 2016.
 
 ******************************************
 Gaussian 16:  EM64L-G16RevA.03 25-Dec-2016
                22-Jan-2018 
 ******************************************
 %nprocshared=32
 Will use up to   32 processors via shared memory.
 %mem=32GB
 %chk=allatoms_t.chk
 ---------------------------------------
 #p wb97xd/cc-pvdz sp scf=(maxcycles=20)
 ---------------------------------------
 1/38=1,172=1/1;
 2/12=2,17=6,18=5,40=1/2;
 3/5=16,11=2,25=1,30=1,74=-58/1,2,3;
 4//1;
 5/5=2,7=20,38=5/2;
 6/7=2,8=2,9=2,10=2,28=1/1;
 99/5=1,9=1/99;
 Leave Link    1 at Mon Jan 22 17:38:03 2018, MaxMem=  4294967296 cpu:               2.7 elap:               0.1
 (Enter /share/apps/g16/l101.exe)
 ------------------
 Base pair stacking
 ------------------
 Symbolic Z-matrix:
 Charge =  0 Multiplicity = 1
 N                     2.67198  -0.84562  -6.28455 
 C                     3.39859   0.43269  -6.41084 
 C                     1.09498  -2.37846  -6.25612 
 N                     2.27415  -3.02855  -5.92193 
 C                     3.17703  -2.07905  -5.95243 
 H                     4.23649  -2.22387  -5.73909 
 N                    -1.16838  -1.92503  -6.7404 
 C                    -0.79491  -0.65483  -6.92664 
 H                    -1.59602   0.02984  -7.20178 
 N                     0.41391  -0.10599  -6.82453 
 C                     1.32442  -1.03248  -6.48247 
 C                    -0.22884  -2.83298  -6.39695 
 N                    -0.5997   -4.10141  -6.2106 
 H                     0.06216  -4.80718  -5.95556 
 H                    -1.55123  -4.38929  -6.3195 
 H                     4.10354   0.34879  -7.11525 
 H                     2.7586    1.15696  -6.66573 
 H                     3.82821   0.662    -5.53743 
 N                     1.0001    2.28371  -3.28341 
 C                    -0.00583   1.34931  -3.33853 
 C                     0.8198    3.7419   -3.43129 
 N                    -3.3682    0.56862  -3.72163 
 H                    -3.93877  -0.25213  -3.72822 
 H                    -3.83173   1.44456  -3.85794 
 N                    -1.31742   1.60423  -3.53546 
 C                    -2.04101   0.49877  -3.53833 
 N                    -1.5218   -0.76092  -3.362 
 H                    -2.1504   -1.5493   -3.37908 
 C                    -0.17551  -1.04673  -3.15781 
 O                     0.18941  -2.21958  -3.00947 
 C                     0.61439   0.13094  -3.15221 
 N                     1.98217   0.29711  -2.98351 
 C                     2.16421   1.587    -3.06868 
 H                     3.1306    2.08481  -2.98179 
 H                     1.34879   4.06713  -4.21437 
 H                    -0.14792   3.94279  -3.57768 
 H                     1.13336   4.20396  -2.60245 
 H                    -5.70281  -5.09085  -4.21001 
 H                    -5.75222  -5.15705  -2.44994 
 H                    -5.37285  -3.639    -3.26417 
 H                    -1.76981  -7.7137   -3.31628 
 C                    -2.09156  -6.67265  -3.28615 
 O                     0.11301  -5.80201  -3.19152 
 C                    -1.10631  -5.63694  -3.21954 
 H                    -0.95463  -3.59764  -3.13858 
 N                    -1.62017  -4.35629  -3.1858 
 O                    -3.30241  -2.83079  -3.17565 
 C                    -2.94393  -3.99485  -3.20937 
 H                    -4.17877  -7.10135  -3.36087 
 C                    -3.39037  -6.35153  -3.31054 
 C                    -5.25896  -4.71221  -3.30133 
 N                    -3.83306  -5.04959  -3.274 
 H                    -8.80999  -3.62364  -7.92483 
 H                    -7.90255  -2.71675  -6.91676 
 H                    -9.0696   -3.68615  -6.31482 
 H                    -2.54571  -7.22024  -6.2252 
 H                    -4.02702  -8.02224  -6.49465 
 N                    -3.53161  -7.16023  -6.38185 
 C                    -4.15879  -5.98351  -6.43801 
 C                    -6.04772  -4.55833  -6.68809 
 N                    -5.35686  -3.41679  -6.5331 
 H                    -3.43062  -2.80148  -6.19905 
 C                    -4.0659   -3.67568  -6.33486 
 N                    -3.43579  -4.85354  -6.27828 
 H                    -8.62956  -6.44192  -7.17629 
 C                    -7.6296   -6.04455  -6.99989 
 N                    -6.552    -6.77612  -6.85411 
 C                    -5.54178  -5.84616  -6.65572 
 C                    -8.37281  -3.59199  -7.02601 
 N                    -7.39756  -4.69364  -6.91087 
 
 ITRead=  0  0  0  0  0  0  0  0  0  0  0  0  0  0  0  0  0  0  0  0
 ITRead=  0  0  0  0  0  0  0  0  0  0  0  0  0  0  0  0  0  0  0  0
 ITRead=  0  0  0  0  0  0  0  0  0  0  0  0  0  0  0  0  0  0  0  0
 ITRead=  0  0  0  0  0  0  0  0  0  0
 MicOpt= -1 -1 -1 -1 -1 -1 -1 -1 -1 -1 -1 -1 -1 -1 -1 -1 -1 -1 -1 -1
 MicOpt= -1 -1 -1 -1 -1 -1 -1 -1 -1 -1 -1 -1 -1 -1 -1 -1 -1 -1 -1 -1
 MicOpt= -1 -1 -1 -1 -1 -1 -1 -1 -1 -1 -1 -1 -1 -1 -1 -1 -1 -1 -1 -1
 MicOpt= -1 -1 -1 -1 -1 -1 -1 -1 -1 -1
 NAtoms=     70 NQM=       70 NQMF=       0 NMMI=      0 NMMIF=      0
                NMic=       0 NMicF=      0.
                    Isotopes and Nuclear Properties:
 (Nuclear quadrupole moments (NQMom) in fm**2, nuclear magnetic moments (NMagM)
  in nuclear magnetons)

  Atom         1           2           3           4           5           6           7           8           9          10
 IAtWgt=          14          12          12          14          12           1          14          12           1          14
 AtmWgt=  14.0030740  12.0000000  12.0000000  14.0030740  12.0000000   1.0078250  14.0030740  12.0000000   1.0078250  14.0030740
 NucSpn=           2           0           0           2           0           1           2           0           1           2
 AtZEff=  -0.0000000  -0.0000000  -0.0000000  -0.0000000  -0.0000000  -0.0000000  -0.0000000  -0.0000000  -0.0000000  -0.0000000
 NQMom=    2.0440000   0.0000000   0.0000000   2.0440000   0.0000000   0.0000000   2.0440000   0.0000000   0.0000000   2.0440000
 NMagM=    0.4037610   0.0000000   0.0000000   0.4037610   0.0000000   2.7928460   0.4037610   0.0000000   2.7928460   0.4037610
 AtZNuc=   7.0000000   6.0000000   6.0000000   7.0000000   6.0000000   1.0000000   7.0000000   6.0000000   1.0000000   7.0000000

  Atom        11          12          13          14          15          16          17          18          19          20
 IAtWgt=          12          12          14           1           1           1           1           1          14          12
 AtmWgt=  12.0000000  12.0000000  14.0030740   1.0078250   1.0078250   1.0078250   1.0078250   1.0078250  14.0030740  12.0000000
 NucSpn=           0           0           2           1           1           1           1           1           2           0
 AtZEff=  -0.0000000  -0.0000000  -0.0000000  -0.0000000  -0.0000000  -0.0000000  -0.0000000  -0.0000000  -0.0000000  -0.0000000
 NQMom=    0.0000000   0.0000000   2.0440000   0.0000000   0.0000000   0.0000000   0.0000000   0.0000000   2.0440000   0.0000000
 NMagM=    0.0000000   0.0000000   0.4037610   2.7928460   2.7928460   2.7928460   2.7928460   2.7928460   0.4037610   0.0000000
 AtZNuc=   6.0000000   6.0000000   7.0000000   1.0000000   1.0000000   1.0000000   1.0000000   1.0000000   7.0000000   6.0000000

  Atom        21          22          23          24          25          26          27          28          29          30
 IAtWgt=          12          14           1           1          14          12          14           1          12          16
 AtmWgt=  12.0000000  14.0030740   1.0078250   1.0078250  14.0030740  12.0000000  14.0030740   1.0078250  12.0000000  15.9949146
 NucSpn=           0           2           1           1           2           0           2           1           0           0
 AtZEff=  -0.0000000  -0.0000000  -0.0000000  -0.0000000  -0.0000000  -0.0000000  -0.0000000  -0.0000000  -0.0000000  -0.0000000
 NQMom=    0.0000000   2.0440000   0.0000000   0.0000000   2.0440000   0.0000000   2.0440000   0.0000000   0.0000000   0.0000000
 NMagM=    0.0000000   0.4037610   2.7928460   2.7928460   0.4037610   0.0000000   0.4037610   2.7928460   0.0000000   0.0000000
 AtZNuc=   6.0000000   7.0000000   1.0000000   1.0000000   7.0000000   6.0000000   7.0000000   1.0000000   6.0000000   8.0000000

  Atom        31          32          33          34          35          36          37          38          39          40
 IAtWgt=          12          14          12           1           1           1           1           1           1           1
 AtmWgt=  12.0000000  14.0030740  12.0000000   1.0078250   1.0078250   1.0078250   1.0078250   1.0078250   1.0078250   1.0078250
 NucSpn=           0           2           0           1           1           1           1           1           1           1
 AtZEff=  -0.0000000  -0.0000000  -0.0000000  -0.0000000  -0.0000000  -0.0000000  -0.0000000  -0.0000000  -0.0000000  -0.0000000
 NQMom=    0.0000000   2.0440000   0.0000000   0.0000000   0.0000000   0.0000000   0.0000000   0.0000000   0.0000000   0.0000000
 NMagM=    0.0000000   0.4037610   0.0000000   2.7928460   2.7928460   2.7928460   2.7928460   2.7928460   2.7928460   2.7928460
 AtZNuc=   6.0000000   7.0000000   6.0000000   1.0000000   1.0000000   1.0000000   1.0000000   1.0000000   1.0000000   1.0000000

  Atom        41          42          43          44          45          46          47          48          49          50
 IAtWgt=           1          12          16          12           1          14          16          12           1          12
 AtmWgt=   1.0078250  12.0000000  15.9949146  12.0000000   1.0078250  14.0030740  15.9949146  12.0000000   1.0078250  12.0000000
 NucSpn=           1           0           0           0           1           2           0           0           1           0
 AtZEff=  -0.0000000  -0.0000000  -0.0000000  -0.0000000  -0.0000000  -0.0000000  -0.0000000  -0.0000000  -0.0000000  -0.0000000
 NQMom=    0.0000000   0.0000000   0.0000000   0.0000000   0.0000000   2.0440000   0.0000000   0.0000000   0.0000000   0.0000000
 NMagM=    2.7928460   0.0000000   0.0000000   0.0000000   2.7928460   0.4037610   0.0000000   0.0000000   2.7928460   0.0000000
 AtZNuc=   1.0000000   6.0000000   8.0000000   6.0000000   1.0000000   7.0000000   8.0000000   6.0000000   1.0000000   6.0000000

  Atom        51          52          53          54          55          56          57          58          59          60
 IAtWgt=          12          14           1           1           1           1           1          14          12          12
 AtmWgt=  12.0000000  14.0030740   1.0078250   1.0078250   1.0078250   1.0078250   1.0078250  14.0030740  12.0000000  12.0000000
 NucSpn=           0           2           1           1           1           1           1           2           0           0
 AtZEff=  -0.0000000  -0.0000000  -0.0000000  -0.0000000  -0.0000000  -0.0000000  -0.0000000  -0.0000000  -0.0000000  -0.0000000
 NQMom=    0.0000000   2.0440000   0.0000000   0.0000000   0.0000000   0.0000000   0.0000000   2.0440000   0.0000000   0.0000000
 NMagM=    0.0000000   0.4037610   2.7928460   2.7928460   2.7928460   2.7928460   2.7928460   0.4037610   0.0000000   0.0000000
 AtZNuc=   6.0000000   7.0000000   1.0000000   1.0000000   1.0000000   1.0000000   1.0000000   7.0000000   6.0000000   6.0000000

  Atom        61          62          63          64          65          66          67          68          69          70
 IAtWgt=          14           1          12          14           1          12          14          12          12          14
 AtmWgt=  14.0030740   1.0078250  12.0000000  14.0030740   1.0078250  12.0000000  14.0030740  12.0000000  12.0000000  14.0030740
 NucSpn=           2           1           0           2           1           0           2           0           0           2
 AtZEff=  -0.0000000  -0.0000000  -0.0000000  -0.0000000  -0.0000000  -0.0000000  -0.0000000  -0.0000000  -0.0000000  -0.0000000
 NQMom=    2.0440000   0.0000000   0.0000000   2.0440000   0.0000000   0.0000000   2.0440000   0.0000000   0.0000000   2.0440000
 NMagM=    0.4037610   2.7928460   0.0000000   0.4037610   2.7928460   0.0000000   0.4037610   0.0000000   0.0000000   0.4037610
 AtZNuc=   7.0000000   1.0000000   6.0000000   7.0000000   1.0000000   6.0000000   7.0000000   6.0000000   6.0000000   7.0000000
 Leave Link  101 at Mon Jan 22 17:38:03 2018, MaxMem=  4294967296 cpu:               7.6 elap:               0.3
 (Enter /share/apps/g16/l202.exe)
 Stoichiometry    C23H27N17O3
 Framework group  C1[X(C23H27N17O3)]
 Deg. of freedom   204
 Full point group                 C1      NOp   1
 Largest Abelian subgroup         C1      NOp   1
 Largest concise Abelian subgroup C1      NOp   1
                         Standard orientation:                         
 ---------------------------------------------------------------------
 Center     Atomic      Atomic             Coordinates (Angstroms)
 Number     Number       Type             X           Y           Z
 ---------------------------------------------------------------------
      1          7           0        4.251306   -1.764326   -1.916822
      2          6           0        5.603769   -1.307143   -2.290740
      3          6           0        2.085821   -1.852026   -1.542232
      4          7           0        2.591240   -3.095135   -1.190134
      5          6           0        3.875631   -2.992538   -1.429899
      6          1           0        4.602116   -3.789405   -1.268146
      7          7           0        0.623122   -0.044704   -1.938497
      8          6           0        1.698473    0.637015   -2.346483
      9          1           0        1.505778    1.658612   -2.671229
     10          7           0        2.970147    0.248061   -2.413249
     11          6           0        3.097188   -1.021109   -1.991958
     12          6           0        0.784025   -1.319309   -1.520696
     13          7           0       -0.288216   -2.001441   -1.113054
     14          1           0       -0.215893   -2.947543   -0.795444
     15          1           0       -1.199845   -1.590256   -1.111230
     16          1           0        5.964628   -1.889896   -3.019003
     17          1           0        5.559766   -0.361834   -2.612576
     18          1           0        6.207225   -1.358817   -1.495019
     19          7           0        5.507363    1.892178    0.661361
     20          6           0        4.142956    1.863107    0.821317
     21          6           0        6.299179    3.084790    0.298870
     22          7           0        1.075767    3.491997    0.792315
     23          1           0        0.116510    3.261276    0.952996
     24          1           0        1.279954    4.441260    0.551653
     25          7           0        3.303161    2.910716    0.675392
     26          6           0        2.045465    2.570524    0.894711
     27          7           0        1.639186    1.302008    1.231303
     28          1           0        0.656221    1.133179    1.380465
     29          6           0        2.485806    0.208892    1.386898
     30          8           0        2.016981   -0.894498    1.692646
     31          6           0        3.840210    0.558822    1.154478
     32          7           0        4.991392   -0.215354    1.202712
     33          6           0        5.952814    0.615728    0.904083
     34          1           0        7.008676    0.349030    0.846620
     35          1           0        6.783240    2.917345   -0.559306
     36          1           0        5.687723    3.867173    0.188119
     37          1           0        6.960887    3.280010    1.021938
     38          1           0       -4.417632    0.804444    1.356361
     39          1           0       -4.225764    0.916620    3.104295
     40          1           0       -3.081708    1.732724    2.038238
     41          1           0       -3.061688   -3.695678    2.384417
     42          6           0       -2.618965   -2.705908    2.272306
     43          8           0       -0.398678   -3.518760    2.080749
     44          6           0       -1.202249   -2.586966    2.109158
     45          1           0        0.249812   -1.166735    1.858622
     46          7           0       -0.745930   -1.291099    1.975902
     47          8           0       -1.002715    0.962274    1.859474
     48          6           0       -1.498712   -0.143592    1.984888
     49          1           0       -4.461386   -1.641312    2.406222
     50          6           0       -3.379554   -1.605018    2.285137
     51          6           0       -3.700996    0.856832    2.162437
     52          7           0       -2.856032   -0.340476    2.146516
     53          1           0       -6.346847    3.690555   -2.325440
     54          1           0       -4.926478    3.834278   -1.535504
     55          1           0       -6.332038    3.934360   -0.711817
     56          1           0       -3.766580   -3.025201   -0.507110
     57          1           0       -5.431405   -2.655282   -0.547178
     58          7           0       -4.484796   -2.336148   -0.604634
     59          6           0       -4.194232   -1.048676   -0.802542
     60          6           0       -4.710141    1.248667   -1.145743
     61          7           0       -3.429827    1.648547   -1.218641
     62          1           0       -1.545659    0.848627   -1.115512
     63          6           0       -2.607752    0.611809   -1.069416
     64          7           0       -2.896815   -0.678429   -0.871113
     65          1           0       -7.930734    1.531141   -1.157621
     66          6           0       -6.901441    1.174016   -1.113377
     67          7           0       -6.553639   -0.075816   -0.927308
     68          6           0       -5.166816   -0.042439   -0.945689
     69          6           0       -5.862446    3.488841   -1.474163
     70          7           0       -5.836253    2.029889   -1.253313
 ---------------------------------------------------------------------
 Rotational constants (GHZ):           0.1447977           0.0516114           0.0483746
 Leave Link  202 at Mon Jan 22 17:38:03 2018, MaxMem=  4294967296 cpu:               0.3 elap:               0.0
 (Enter /share/apps/g16/l301.exe)
 Standard basis: CC-pVDZ (5D, 7F)
 Ernie: Thresh=  0.10000D-02 Tol=  0.10000D-05 Strict=F.
 Ernie:  86 primitive shells out of 1081 were deleted.
 There are   780 symmetry adapted cartesian basis functions of A   symmetry.
 There are   737 symmetry adapted basis functions of A   symmetry.
   737 basis functions,  1608 primitive gaussians,   780 cartesian basis functions
   154 alpha electrons      154 beta electrons
       nuclear repulsion energy      5456.9070656540 Hartrees.
 IExCor= 4639 DFT=T Ex+Corr=wB97XD ExCW=0 ScaHFX=  1.000000
 ScaDFX=  1.000000  1.000000  1.000000  1.000000 ScalE2=  1.000000  1.000000
 IRadAn=      5 IRanWt=     -1 IRanGd=            0 ICorTp=0 IEmpDi=121
 HFx  wShort=  0.000000 wLong=  0.200000 cFull=  0.222036 cShort=  0.000000 cLong=  0.777964
 DFx  wShort=  0.000000 wLong=  0.200000 cFull=  0.000000 cShort=  0.000000 cLong=  1.000000
 NAtoms=   70 NActive=   70 NUniq=   70 SFac= 1.00D+00 NAtFMM=   60 NAOKFM=T Big=T
 Integral buffers will be    131072 words long.
 Raffenetti 2 integral format.
 Two-electron integral symmetry is turned on.
 R6Disp:  Grimme-D2 Dispersion energy=       -0.0694750652 Hartrees.
 Nuclear repulsion after empirical dispersion term =     5456.8375905888 Hartrees.
 Leave Link  301 at Mon Jan 22 17:38:03 2018, MaxMem=  4294967296 cpu:               2.1 elap:               0.1
 (Enter /share/apps/g16/l302.exe)
 NPDir=0 NMtPBC=     1 NCelOv=     1 NCel=       1 NClECP=     1 NCelD=      1
         NCelK=      1 NCelE2=     1 NClLst=     1 CellRange=     0.0.
 One-electron integrals computed using PRISM.
 One-electron integral symmetry used in STVInt
 NBasis=   737 RedAO= T EigKep=  7.05D-04  NBF=   737
 NBsUse=   737 1.00D-06 EigRej= -1.00D+00 NBFU=   737
 Precomputing XC quadrature grid using
 IXCGrd= 4 IRadAn=           5 IRanWt=          -1 IRanGd=           0 AccXCQ= 0.00D+00.
 Generated NRdTot=       0 NPtTot=           0 NUsed=           0 NTot=          32
 NSgBfM=   762   762   762   762   762 MxSgAt=    70 MxSgA2=    70.
 Leave Link  302 at Mon Jan 22 17:38:08 2018, MaxMem=  4294967296 cpu:             147.9 elap:               4.7
 (Enter /share/apps/g16/l303.exe)
 DipDrv:  MaxL=1.
 Leave Link  303 at Mon Jan 22 17:38:08 2018, MaxMem=  4294967296 cpu:              12.8 elap:               0.5
 (Enter /share/apps/g16/l401.exe)
 ExpMin= 1.22D-01 ExpMax= 1.17D+04 ExpMxC= 4.01D+02 IAcc=3 IRadAn=         5 AccDes= 0.00D+00
 Harris functional with IExCor= 4639 and IRadAn=       5 diagonalized for initial guess.
 HarFok:  IExCor= 4639 AccDes= 0.00D+00 IRadAn=         5 IDoV= 1 UseB2=F ITyADJ=14
 ICtDFT=  3500011 ScaDFX=  1.000000  1.000000  1.000000  1.000000
 FoFCou: FMM=F IPFlag=           0 FMFlag=      100000 FMFlg1=        2001
         NFxFlg=           0 DoJE=T BraDBF=F KetDBF=T FulRan=T
         wScrn=  0.000000 ICntrl=       500 IOpCl=  0 I1Cent=   200000004 NGrid=           0
         NMat0=    1 NMatS0=      1 NMatT0=    0 NMatD0=    1 NMtDS0=    0 NMtDT0=    0
 Petite list used in FoFCou.
 Harris En= -1963.88868060277    
 JPrj=0 DoOrth=F DoCkMO=F.
 Leave Link  401 at Mon Jan 22 17:38:21 2018, MaxMem=  4294967296 cpu:             394.9 elap:              12.4
 (Enter /share/apps/g16/l502.exe)
 Integral symmetry usage will be decided dynamically.
 Closed shell SCF:
 Using DIIS extrapolation, IDIIS=  1040.
 NGot=  4294967296 LenX=  4293717438 LenY=  4293108258
 Requested convergence on RMS density matrix=1.00D-08 within  20 cycles.
 Requested convergence on MAX density matrix=1.00D-06.
 Requested convergence on             energy=1.00D-06.
 No special actions if energy rises.
 Fock matrices will be formed incrementally for  20 cycles.
 Integral accuracy reduced to 1.0D-05 until final iterations.

 Cycle   1  Pass 0  IDiag  1:
 FoFJK:  IHMeth= 1 ICntrl=       0 DoSepK=T KAlg= 0 I1Cent=           0 FoldK=F
 IRaf=         1 NMat=       1 IRICut=       1 DoRegI=T DoRafI=F ISym2E= 0 IDoP0=0 IntGTp=1.
 FoFCou: FMM=T IPFlag=           0 FMFlag=      100000 FMFlg1=        2001
         NFxFlg=           0 DoJE=T BraDBF=F KetDBF=F FulRan=T
         wScrn=  0.000000 ICntrl=       500 IOpCl=  0 I1Cent=           0 NGrid=           0
         NMat0=    1 NMatS0=      1 NMatT0=    0 NMatD0=    1 NMtDS0=    0 NMtDT0=    0
 Symmetry not used in FoFCou.
 FMM levels:  10  Number of levels for PrismC:   9
 E= -2048.32241440584    
 DIIS: error= 2.48D-02 at cycle   1 NSaved=   1.
 NSaved= 1 IEnMin= 1 EnMin= -2048.32241440584     IErMin= 1 ErrMin= 2.48D-02
 ErrMax= 2.48D-02  0.00D+00 EMaxC= 1.00D-01 BMatC= 8.28D-01 BMatP= 8.28D-01
 IDIUse=3 WtCom= 7.52D-01 WtEn= 2.48D-01
 Coeff-Com:  0.100D+01
 Coeff-En:   0.100D+01
 Coeff:      0.100D+01
 Gap=     0.268 Goal=   None    Shift=    0.000
 GapD=    0.268 DampG=1.000 DampE=0.500 DampFc=0.5000 IDamp=-1.
 Damping current iteration by 5.00D-01
 RMSDP=1.54D-03 MaxDP=1.31D-01              OVMax= 2.06D-01

 Cycle   2  Pass 0  IDiag  1:
 RMSU=  7.69D-04    CP:  9.98D-01
 E= -2048.51914871808     Delta-E=       -0.196734312243 Rises=F Damp=T
 DIIS: error= 1.37D-02 at cycle   2 NSaved=   2.
 NSaved= 2 IEnMin= 2 EnMin= -2048.51914871808     IErMin= 2 ErrMin= 1.37D-02
 ErrMax= 1.37D-02  0.00D+00 EMaxC= 1.00D-01 BMatC= 1.44D-01 BMatP= 8.28D-01
 IDIUse=3 WtCom= 8.63D-01 WtEn= 1.37D-01
 Coeff-Com: -0.210D+00 0.121D+01
 Coeff-En:   0.000D+00 0.100D+01
 Coeff:     -0.181D+00 0.118D+01
 Gap=     0.300 Goal=   None    Shift=    0.000
 RMSDP=5.79D-04 MaxDP=3.54D-02 DE=-1.97D-01 OVMax= 1.37D-01

 Cycle   3  Pass 0  IDiag  1:
 RMSU=  5.62D-04    CP:  9.94D-01  1.17D+00
 E= -2048.69796297421     Delta-E=       -0.178814256133 Rises=F Damp=F
 DIIS: error= 7.51D-03 at cycle   3 NSaved=   3.
 NSaved= 3 IEnMin= 3 EnMin= -2048.69796297421     IErMin= 3 ErrMin= 7.51D-03
 ErrMax= 7.51D-03  0.00D+00 EMaxC= 1.00D-01 BMatC= 5.94D-02 BMatP= 1.44D-01
 IDIUse=3 WtCom= 9.25D-01 WtEn= 7.51D-02
 Coeff-Com: -0.232D+00 0.546D+00 0.685D+00
 Coeff-En:   0.000D+00 0.000D+00 0.100D+01
 Coeff:     -0.214D+00 0.505D+00 0.709D+00
 Gap=     0.285 Goal=   None    Shift=    0.000
 RMSDP=3.40D-04 MaxDP=3.51D-02 DE=-1.79D-01 OVMax= 6.88D-02

 Cycle   4  Pass 0  IDiag  1:
 RMSU=  1.95D-04    CP:  9.94D-01  1.44D+00  6.77D-01
 E= -2048.74238766709     Delta-E=       -0.044424692872 Rises=F Damp=F
 DIIS: error= 3.04D-03 at cycle   4 NSaved=   4.
 NSaved= 4 IEnMin= 4 EnMin= -2048.74238766709     IErMin= 4 ErrMin= 3.04D-03
 ErrMax= 3.04D-03  0.00D+00 EMaxC= 1.00D-01 BMatC= 8.61D-03 BMatP= 5.94D-02
 IDIUse=3 WtCom= 9.70D-01 WtEn= 3.04D-02
 Coeff-Com: -0.951D-01 0.184D+00 0.378D+00 0.533D+00
 Coeff-En:   0.000D+00 0.000D+00 0.574D-01 0.943D+00
 Coeff:     -0.922D-01 0.178D+00 0.369D+00 0.545D+00
 Gap=     0.289 Goal=   None    Shift=    0.000
 RMSDP=1.21D-04 MaxDP=1.28D-02 DE=-4.44D-02 OVMax= 1.39D-02

 Cycle   5  Pass 0  IDiag  1:
 RMSU=  6.15D-05    CP:  9.94D-01  1.42D+00  8.07D-01  6.29D-01
 E= -2048.74925688389     Delta-E=       -0.006869216805 Rises=F Damp=F
 DIIS: error= 7.33D-04 at cycle   5 NSaved=   5.
 NSaved= 5 IEnMin= 5 EnMin= -2048.74925688389     IErMin= 5 ErrMin= 7.33D-04
 ErrMax= 7.33D-04  0.00D+00 EMaxC= 1.00D-01 BMatC= 2.96D-04 BMatP= 8.61D-03
 IDIUse=3 WtCom= 9.93D-01 WtEn= 7.33D-03
 Coeff-Com: -0.248D-01 0.427D-01 0.123D+00 0.245D+00 0.614D+00
 Coeff-En:   0.000D+00 0.000D+00 0.000D+00 0.000D+00 0.100D+01
 Coeff:     -0.247D-01 0.424D-01 0.122D+00 0.243D+00 0.617D+00
 Gap=     0.288 Goal=   None    Shift=    0.000
 RMSDP=2.50D-05 MaxDP=2.42D-03 DE=-6.87D-03 OVMax= 3.48D-03

 Failed to achieve initial convergence to 1.0D-08 in  6 cycles.
 Switch to full accuracy anyway.
 Cycle   6  Pass 1  IDiag  1:
 E= -2048.74958590174     Delta-E=       -0.000329017847 Rises=F Damp=F
 DIIS: error= 2.51D-04 at cycle   1 NSaved=   1.
 NSaved= 1 IEnMin= 1 EnMin= -2048.74958590174     IErMin= 1 ErrMin= 2.51D-04
 ErrMax= 2.51D-04  0.00D+00 EMaxC= 1.00D-01 BMatC= 7.46D-05 BMatP= 7.46D-05
 IDIUse=3 WtCom= 9.97D-01 WtEn= 2.51D-03
 Coeff-Com:  0.100D+01
 Coeff-En:   0.100D+01
 Coeff:      0.100D+01
 Gap=     0.288 Goal=   None    Shift=    0.000
 RMSDP=2.50D-05 MaxDP=2.42D-03 DE=-3.29D-04 OVMax= 2.14D-03

 Cycle   7  Pass 1  IDiag  1:
 RMSU=  1.12D-04    CP:  1.00D+00
 E= -2048.74963816537     Delta-E=       -0.000052263632 Rises=F Damp=F
 DIIS: error= 3.06D-04 at cycle   2 NSaved=   2.
 NSaved= 2 IEnMin= 2 EnMin= -2048.74963816537     IErMin= 1 ErrMin= 2.51D-04
 ErrMax= 3.06D-04  0.00D+00 EMaxC= 1.00D-01 BMatC= 4.83D-05 BMatP= 7.46D-05
 IDIUse=3 WtCom= 9.97D-01 WtEn= 3.06D-03
 Coeff-Com:  0.428D+00 0.572D+00
 Coeff-En:   0.312D-02 0.997D+00
 Coeff:      0.426D+00 0.574D+00
 Gap=     0.288 Goal=   None    Shift=    0.000
 RMSDP=1.10D-05 MaxDP=1.43D-03 DE=-5.23D-05 OVMax= 1.53D-03

 Cycle   8  Pass 1  IDiag  1:
 RMSU=  1.07D-05    CP:  1.00D+00  1.02D+00
 E= -2048.74967184025     Delta-E=       -0.000033674878 Rises=F Damp=F
 DIIS: error= 1.36D-04 at cycle   3 NSaved=   3.
 NSaved= 3 IEnMin= 3 EnMin= -2048.74967184025     IErMin= 3 ErrMin= 1.36D-04
 ErrMax= 1.36D-04  0.00D+00 EMaxC= 1.00D-01 BMatC= 1.02D-05 BMatP= 4.83D-05
 IDIUse=3 WtCom= 9.99D-01 WtEn= 1.36D-03
 Coeff-Com: -0.195D-01 0.301D+00 0.719D+00
 Coeff-En:   0.000D+00 0.117D+00 0.883D+00
 Coeff:     -0.195D-01 0.301D+00 0.719D+00
 Gap=     0.288 Goal=   None    Shift=    0.000
 RMSDP=5.62D-06 MaxDP=5.62D-04 DE=-3.37D-05 OVMax= 5.06D-04

 Cycle   9  Pass 1  IDiag  1:
 RMSU=  3.80D-06    CP:  1.00D+00  1.05D+00  7.71D-01
 E= -2048.74968085639     Delta-E=       -0.000009016145 Rises=F Damp=F
 DIIS: error= 3.69D-05 at cycle   4 NSaved=   4.
 NSaved= 4 IEnMin= 4 EnMin= -2048.74968085639     IErMin= 4 ErrMin= 3.69D-05
 ErrMax= 3.69D-05  0.00D+00 EMaxC= 1.00D-01 BMatC= 4.59D-07 BMatP= 1.02D-05
 IDIUse=1 WtCom= 1.00D+00 WtEn= 0.00D+00
 Coeff-Com: -0.312D-01 0.811D-01 0.255D+00 0.695D+00
 Coeff:     -0.312D-01 0.811D-01 0.255D+00 0.695D+00
 Gap=     0.288 Goal=   None    Shift=    0.000
 RMSDP=1.40D-06 MaxDP=1.39D-04 DE=-9.02D-06 OVMax= 4.78D-04

 Cycle  10  Pass 1  IDiag  1:
 RMSU=  1.23D-06    CP:  1.00D+00  1.06D+00  8.01D-01  1.12D+00
 E= -2048.74968164580     Delta-E=       -0.000000789410 Rises=F Damp=F
 DIIS: error= 1.21D-05 at cycle   5 NSaved=   5.
 NSaved= 5 IEnMin= 5 EnMin= -2048.74968164580     IErMin= 5 ErrMin= 1.21D-05
 ErrMax= 1.21D-05  0.00D+00 EMaxC= 1.00D-01 BMatC= 1.08D-07 BMatP= 4.59D-07
 IDIUse=1 WtCom= 1.00D+00 WtEn= 0.00D+00
 Coeff-Com: -0.257D-02-0.525D-01-0.126D+00 0.189D+00 0.991D+00
 Coeff:     -0.257D-02-0.525D-01-0.126D+00 0.189D+00 0.991D+00
 Gap=     0.288 Goal=   None    Shift=    0.000
 RMSDP=1.18D-06 MaxDP=7.71D-05 DE=-7.89D-07 OVMax= 2.40D-04

 Cycle  11  Pass 1  IDiag  1:
 RMSU=  4.87D-07    CP:  1.00D+00  1.06D+00  8.08D-01  1.40D+00  1.18D+00
 E= -2048.74968188465     Delta-E=       -0.000000238843 Rises=F Damp=F
 DIIS: error= 9.79D-06 at cycle   6 NSaved=   6.
 NSaved= 6 IEnMin= 6 EnMin= -2048.74968188465     IErMin= 6 ErrMin= 9.79D-06
 ErrMax= 9.79D-06  0.00D+00 EMaxC= 1.00D-01 BMatC= 2.82D-08 BMatP= 1.08D-07
 IDIUse=1 WtCom= 1.00D+00 WtEn= 0.00D+00
 Coeff-Com:  0.470D-02-0.420D-01-0.115D+00-0.765D-02 0.538D+00 0.622D+00
 Coeff:      0.470D-02-0.420D-01-0.115D+00-0.765D-02 0.538D+00 0.622D+00
 Gap=     0.288 Goal=   None    Shift=    0.000
 RMSDP=3.54D-07 MaxDP=3.69D-05 DE=-2.39D-07 OVMax= 1.20D-04

 Cycle  12  Pass 1  IDiag  1:
 RMSU=  1.83D-07    CP:  1.00D+00  1.06D+00  8.09D-01  1.46D+00  1.31D+00
                    CP:  9.08D-01
 E= -2048.74968192389     Delta-E=       -0.000000039241 Rises=F Damp=F
 DIIS: error= 1.09D-06 at cycle   7 NSaved=   7.
 NSaved= 7 IEnMin= 7 EnMin= -2048.74968192389     IErMin= 7 ErrMin= 1.09D-06
 ErrMax= 1.09D-06  0.00D+00 EMaxC= 1.00D-01 BMatC= 8.43D-10 BMatP= 2.82D-08
 IDIUse=1 WtCom= 1.00D+00 WtEn= 0.00D+00
 Coeff-Com:  0.119D-02-0.733D-02-0.219D-01-0.867D-02 0.678D-01 0.149D+00
 Coeff-Com:  0.820D+00
 Coeff:      0.119D-02-0.733D-02-0.219D-01-0.867D-02 0.678D-01 0.149D+00
 Coeff:      0.820D+00
 Gap=     0.288 Goal=   None    Shift=    0.000
 RMSDP=8.19D-08 MaxDP=5.21D-06 DE=-3.92D-08 OVMax= 2.15D-05

 Cycle  13  Pass 1  IDiag  1:
 RMSU=  5.11D-08    CP:  1.00D+00  1.06D+00  8.08D-01  1.47D+00  1.33D+00
                    CP:  9.96D-01  1.12D+00
 E= -2048.74968192542     Delta-E=       -0.000000001528 Rises=F Damp=F
 DIIS: error= 5.51D-07 at cycle   8 NSaved=   8.
 NSaved= 8 IEnMin= 8 EnMin= -2048.74968192542     IErMin= 8 ErrMin= 5.51D-07
 ErrMax= 5.51D-07  0.00D+00 EMaxC= 1.00D-01 BMatC= 3.29D-10 BMatP= 8.43D-10
 IDIUse=1 WtCom= 1.00D+00 WtEn= 0.00D+00
 Coeff-Com: -0.707D-03 0.806D-02 0.206D-01-0.693D-03-0.116D+00-0.937D-01
 Coeff-Com:  0.414D+00 0.769D+00
 Coeff:     -0.707D-03 0.806D-02 0.206D-01-0.693D-03-0.116D+00-0.937D-01
 Coeff:      0.414D+00 0.769D+00
 Gap=     0.288 Goal=   None    Shift=    0.000
 RMSDP=4.89D-08 MaxDP=2.98D-06 DE=-1.53D-09 OVMax= 1.18D-05

 Cycle  14  Pass 1  IDiag  1:
 RMSU=  2.76D-08    CP:  1.00D+00  1.06D+00  8.08D-01  1.47D+00  1.34D+00
                    CP:  1.04D+00  1.28D+00  1.07D+00
 E= -2048.74968192602     Delta-E=       -0.000000000607 Rises=F Damp=F
 DIIS: error= 1.98D-07 at cycle   9 NSaved=   9.
 NSaved= 9 IEnMin= 9 EnMin= -2048.74968192602     IErMin= 9 ErrMin= 1.98D-07
 ErrMax= 1.98D-07  0.00D+00 EMaxC= 1.00D-01 BMatC= 3.46D-11 BMatP= 3.29D-10
 IDIUse=1 WtCom= 1.00D+00 WtEn= 0.00D+00
 Coeff-Com: -0.448D-03 0.443D-02 0.117D-01 0.112D-02-0.582D-01-0.578D-01
 Coeff-Com:  0.864D-01 0.323D+00 0.689D+00
 Coeff:     -0.448D-03 0.443D-02 0.117D-01 0.112D-02-0.582D-01-0.578D-01
 Coeff:      0.864D-01 0.323D+00 0.689D+00
 Gap=     0.288 Goal=   None    Shift=    0.000
 RMSDP=1.37D-08 MaxDP=8.47D-07 DE=-6.07D-10 OVMax= 3.35D-06

 Cycle  15  Pass 1  IDiag  1:
 RMSU=  9.25D-09    CP:  1.00D+00  1.06D+00  8.08D-01  1.47D+00  1.34D+00
                    CP:  1.05D+00  1.30D+00  1.22D+00  1.10D+00
 E= -2048.74968192607     Delta-E=       -0.000000000046 Rises=F Damp=F
 DIIS: error= 6.73D-08 at cycle  10 NSaved=  10.
 NSaved=10 IEnMin=10 EnMin= -2048.74968192607     IErMin=10 ErrMin= 6.73D-08
 ErrMax= 6.73D-08  0.00D+00 EMaxC= 1.00D-01 BMatC= 5.23D-12 BMatP= 3.46D-11
 IDIUse=1 WtCom= 1.00D+00 WtEn= 0.00D+00
 Coeff-Com: -0.265D-05-0.223D-03-0.421D-03 0.170D-03 0.452D-02 0.804D-04
 Coeff-Com: -0.543D-01-0.525D-01 0.251D+00 0.851D+00
 Coeff:     -0.265D-05-0.223D-03-0.421D-03 0.170D-03 0.452D-02 0.804D-04
 Coeff:     -0.543D-01-0.525D-01 0.251D+00 0.851D+00
 Gap=     0.288 Goal=   None    Shift=    0.000
 RMSDP=6.95D-09 MaxDP=3.94D-07 DE=-4.64D-11 OVMax= 1.54D-06

 SCF Done:  E(RwB97XD) =  -2048.74968193     A.U. after   15 cycles
            NFock= 15  Conv=0.69D-08     -V/T= 2.0054
 KE= 2.037694622081D+03 PE=-1.569410468689D+04 EE= 6.150822792291D+03
 Leave Link  502 at Mon Jan 22 17:49:18 2018, MaxMem=  4294967296 cpu:           20352.3 elap:             657.0
 (Enter /share/apps/g16/l601.exe)
 Copying SCF densities to generalized density rwf, IOpCl= 0 IROHF=0.

 **********************************************************************

            Population analysis using the SCF density.

 **********************************************************************

 Orbital symmetries:
       Occupied  (A) (A) (A) (A) (A) (A) (A) (A) (A) (A) (A) (A)
                 (A) (A) (A) (A) (A) (A) (A) (A) (A) (A) (A) (A)
                 (A) (A) (A) (A) (A) (A) (A) (A) (A) (A) (A) (A)
                 (A) (A) (A) (A) (A) (A) (A) (A) (A) (A) (A) (A)
                 (A) (A) (A) (A) (A) (A) (A) (A) (A) (A) (A) (A)
                 (A) (A) (A) (A) (A) (A) (A) (A) (A) (A) (A) (A)
                 (A) (A) (A) (A) (A) (A) (A) (A) (A) (A) (A) (A)
                 (A) (A) (A) (A) (A) (A) (A) (A) (A) (A) (A) (A)
                 (A) (A) (A) (A) (A) (A) (A) (A) (A) (A) (A) (A)
                 (A) (A) (A) (A) (A) (A) (A) (A) (A) (A) (A) (A)
                 (A) (A) (A) (A) (A) (A) (A) (A) (A) (A) (A) (A)
                 (A) (A) (A) (A) (A) (A) (A) (A) (A) (A) (A) (A)
                 (A) (A) (A) (A) (A) (A) (A) (A) (A) (A)
       Virtual   (A) (A) (A) (A) (A) (A) (A) (A) (A) (A) (A) (A)
                 (A) (A) (A) (A) (A) (A) (A) (A) (A) (A) (A) (A)
                 (A) (A) (A) (A) (A) (A) (A) (A) (A) (A) (A) (A)
                 (A) (A) (A) (A) (A) (A) (A) (A) (A) (A) (A) (A)
                 (A) (A) (A) (A) (A) (A) (A) (A) (A) (A) (A) (A)
                 (A) (A) (A) (A) (A) (A) (A) (A) (A) (A) (A) (A)
                 (A) (A) (A) (A) (A) (A) (A) (A) (A) (A) (A) (A)
                 (A) (A) (A) (A) (A) (A) (A) (A) (A) (A) (A) (A)
                 (A) (A) (A) (A) (A) (A) (A) (A) (A) (A) (A) (A)
                 (A) (A) (A) (A) (A) (A) (A) (A) (A) (A) (A) (A)
                 (A) (A) (A) (A) (A) (A) (A) (A) (A) (A) (A) (A)
                 (A) (A) (A) (A) (A) (A) (A) (A) (A) (A) (A) (A)
                 (A) (A) (A) (A) (A) (A) (A) (A) (A) (A) (A) (A)
                 (A) (A) (A) (A) (A) (A) (A) (A) (A) (A) (A) (A)
                 (A) (A) (A) (A) (A) (A) (A) (A) (A) (A) (A) (A)
                 (A) (A) (A) (A) (A) (A) (A) (A) (A) (A) (A) (A)
                 (A) (A) (A) (A) (A) (A) (A) (A) (A) (A) (A) (A)
                 (A) (A) (A) (A) (A) (A) (A) (A) (A) (A) (A) (A)
                 (A) (A) (A) (A) (A) (A) (A) (A) (A) (A) (A) (A)
                 (A) (A) (A) (A) (A) (A) (A) (A) (A) (A) (A) (A)
                 (A) (A) (A) (A) (A) (A) (A) (A) (A) (A) (A) (A)
                 (A) (A) (A) (A) (A) (A) (A) (A) (A) (A) (A) (A)
                 (A) (A) (A) (A) (A) (A) (A) (A) (A) (A) (A) (A)
                 (A) (A) (A) (A) (A) (A) (A) (A) (A) (A) (A) (A)
                 (A) (A) (A) (A) (A) (A) (A) (A) (A) (A) (A) (A)
                 (A) (A) (A) (A) (A) (A) (A) (A) (A) (A) (A) (A)
                 (A) (A) (A) (A) (A) (A) (A) (A) (A) (A) (A) (A)
                 (A) (A) (A) (A) (A) (A) (A) (A) (A) (A) (A) (A)
                 (A) (A) (A) (A) (A) (A) (A) (A) (A) (A) (A) (A)
                 (A) (A) (A) (A) (A) (A) (A) (A) (A) (A) (A) (A)
                 (A) (A) (A) (A) (A) (A) (A) (A) (A) (A) (A) (A)
                 (A) (A) (A) (A) (A) (A) (A) (A) (A) (A) (A) (A)
                 (A) (A) (A) (A) (A) (A) (A) (A) (A) (A) (A) (A)
                 (A) (A) (A) (A) (A) (A) (A) (A) (A) (A) (A) (A)
                 (A) (A) (A) (A) (A) (A) (A) (A) (A) (A) (A) (A)
                 (A) (A) (A) (A) (A) (A) (A) (A) (A) (A) (A) (A)
                 (A) (A) (A) (A) (A) (A) (A) (A) (A) (A) (A) (A)
                 (A) (A) (A) (A) (A) (A) (A) (A) (A) (A) (A) (A)
                 (A) (A) (A) (A) (A) (A) (A) (A) (A) (A) (A) (A)
                 (A) (A) (A) (A) (A) (A) (A) (A) (A) (A) (A) (A)
                 (A) (A) (A) (A) (A) (A) (A) (A) (A) (A) (A) (A)
                 (A) (A) (A) (A) (A) (A) (A) (A) (A) (A) (A) (A)
                 (A) (A) (A) (A) (A) (A) (A) (A) (A) (A) (A) (A)
                 (A) (A) (A) (A) (A) (A) (A) (A) (A) (A) (A) (A)
                 (A) (A) (A) (A) (A) (A) (A) (A) (A) (A) (A) (A)
                 (A) (A) (A) (A) (A) (A) (A) (A) (A) (A) (A) (A)
                 (A) (A) (A) (A) (A) (A) (A) (A) (A) (A) (A) (A)
                 (A) (A) (A) (A) (A) (A) (A) (A) (A) (A) (A) (A)
                 (A) (A) (A) (A) (A) (A) (A)
 The electronic state is 1-A.
 Alpha  occ. eigenvalues --  -19.25357 -19.21495 -19.20713 -14.52642 -14.51806
 Alpha  occ. eigenvalues --  -14.49281 -14.48730 -14.48088 -14.47258 -14.46950
 Alpha  occ. eigenvalues --  -14.46788 -14.45559 -14.44937 -14.44786 -14.42718
 Alpha  occ. eigenvalues --  -14.42184 -14.41586 -14.40953 -14.40656 -14.40521
 Alpha  occ. eigenvalues --  -10.44902 -10.41399 -10.40473 -10.39615 -10.38391
 Alpha  occ. eigenvalues --  -10.38146 -10.37559 -10.37394 -10.36269 -10.35580
 Alpha  occ. eigenvalues --  -10.34716 -10.34369 -10.33956 -10.33955 -10.33444
 Alpha  occ. eigenvalues --  -10.33102 -10.33097 -10.33042 -10.31350 -10.30613
 Alpha  occ. eigenvalues --  -10.30217 -10.28482 -10.28287  -1.18875  -1.15446
 Alpha  occ. eigenvalues --   -1.13387  -1.12520  -1.10976  -1.10763  -1.09857
 Alpha  occ. eigenvalues --   -1.08772  -1.08643  -1.05312  -1.05119  -1.01899
 Alpha  occ. eigenvalues --   -1.01181  -1.00563  -0.99880  -0.98795  -0.97379
 Alpha  occ. eigenvalues --   -0.97021  -0.96414  -0.92828  -0.90563  -0.87967
 Alpha  occ. eigenvalues --   -0.86080  -0.84519  -0.83514  -0.83039  -0.82842
 Alpha  occ. eigenvalues --   -0.81831  -0.78371  -0.77393  -0.75231  -0.74935
 Alpha  occ. eigenvalues --   -0.73809  -0.72836  -0.72729  -0.70947  -0.70743
 Alpha  occ. eigenvalues --   -0.67607  -0.67185  -0.66147  -0.66055  -0.64565
 Alpha  occ. eigenvalues --   -0.64542  -0.63563  -0.62781  -0.62613  -0.62006
 Alpha  occ. eigenvalues --   -0.60874  -0.60593  -0.60294  -0.59659  -0.59125
 Alpha  occ. eigenvalues --   -0.58978  -0.58509  -0.57115  -0.56417  -0.55783
 Alpha  occ. eigenvalues --   -0.55638  -0.55619  -0.55391  -0.54779  -0.54247
 Alpha  occ. eigenvalues --   -0.53883  -0.53721  -0.53455  -0.53165  -0.53079
 Alpha  occ. eigenvalues --   -0.52353  -0.51816  -0.51334  -0.50486  -0.50346
 Alpha  occ. eigenvalues --   -0.50230  -0.49888  -0.49608  -0.49251  -0.48950
 Alpha  occ. eigenvalues --   -0.48708  -0.48257  -0.48157  -0.47797  -0.47230
 Alpha  occ. eigenvalues --   -0.46701  -0.45814  -0.45589  -0.44867  -0.43068
 Alpha  occ. eigenvalues --   -0.41202  -0.40970  -0.39086  -0.38172  -0.37916
 Alpha  occ. eigenvalues --   -0.37618  -0.37471  -0.36868  -0.35468  -0.35185
 Alpha  occ. eigenvalues --   -0.34787  -0.34180  -0.33384  -0.33290  -0.33125
 Alpha  occ. eigenvalues --   -0.32724  -0.32584  -0.32061  -0.31422  -0.30589
 Alpha  occ. eigenvalues --   -0.30463  -0.30349  -0.25890  -0.25692
 Alpha virt. eigenvalues --    0.03131   0.04000   0.06469   0.08060   0.08736
 Alpha virt. eigenvalues --    0.08979   0.09590   0.10297   0.11043   0.11857
 Alpha virt. eigenvalues --    0.13515   0.13939   0.14211   0.14811   0.14886
 Alpha virt. eigenvalues --    0.15565   0.16202   0.17083   0.17202   0.17991
 Alpha virt. eigenvalues --    0.18497   0.19350   0.19441   0.20459   0.20534
 Alpha virt. eigenvalues --    0.20974   0.21127   0.21261   0.21398   0.21834
 Alpha virt. eigenvalues --    0.22024   0.22658   0.22942   0.23344   0.23578
 Alpha virt. eigenvalues --    0.23722   0.24357   0.24534   0.24770   0.25688
 Alpha virt. eigenvalues --    0.25724   0.26342   0.27197   0.27544   0.28017
 Alpha virt. eigenvalues --    0.28723   0.28982   0.29701   0.30679   0.31087
 Alpha virt. eigenvalues --    0.31783   0.31915   0.32366   0.33227   0.33367
 Alpha virt. eigenvalues --    0.33601   0.34633   0.34712   0.36014   0.36303
 Alpha virt. eigenvalues --    0.36661   0.37295   0.37841   0.38302   0.38845
 Alpha virt. eigenvalues --    0.39327   0.39936   0.40383   0.40822   0.41656
 Alpha virt. eigenvalues --    0.42192   0.42391   0.42713   0.43803   0.44247
 Alpha virt. eigenvalues --    0.45630   0.45767   0.46211   0.46502   0.46616
 Alpha virt. eigenvalues --    0.46964   0.47308   0.47934   0.48230   0.49207
 Alpha virt. eigenvalues --    0.49730   0.49921   0.50431   0.50799   0.51043
 Alpha virt. eigenvalues --    0.51389   0.51813   0.52142   0.52681   0.52949
 Alpha virt. eigenvalues --    0.53625   0.54132   0.54321   0.54738   0.54902
 Alpha virt. eigenvalues --    0.55473   0.55968   0.56347   0.56644   0.56878
 Alpha virt. eigenvalues --    0.57817   0.58105   0.58300   0.58844   0.59336
 Alpha virt. eigenvalues --    0.59574   0.60040   0.60360   0.60531   0.60992
 Alpha virt. eigenvalues --    0.61386   0.61709   0.62194   0.62611   0.62874
 Alpha virt. eigenvalues --    0.63754   0.64582   0.64791   0.65006   0.65322
 Alpha virt. eigenvalues --    0.65913   0.66213   0.66644   0.66983   0.67622
 Alpha virt. eigenvalues --    0.67980   0.68470   0.68914   0.69432   0.69680
 Alpha virt. eigenvalues --    0.70101   0.70711   0.71136   0.71788   0.71924
 Alpha virt. eigenvalues --    0.72144   0.72381   0.72909   0.72920   0.73924
 Alpha virt. eigenvalues --    0.74219   0.74399   0.75152   0.75204   0.75377
 Alpha virt. eigenvalues --    0.75799   0.76079   0.76421   0.76955   0.77184
 Alpha virt. eigenvalues --    0.77516   0.77729   0.78080   0.78545   0.78780
 Alpha virt. eigenvalues --    0.79178   0.79646   0.80075   0.80521   0.80944
 Alpha virt. eigenvalues --    0.81413   0.81666   0.82052   0.82551   0.83093
 Alpha virt. eigenvalues --    0.83471   0.84185   0.84618   0.84631   0.85361
 Alpha virt. eigenvalues --    0.85721   0.85844   0.86400   0.86998   0.87842
 Alpha virt. eigenvalues --    0.87987   0.88418   0.88722   0.89156   0.89725
 Alpha virt. eigenvalues --    0.90394   0.90668   0.91586   0.91824   0.92100
 Alpha virt. eigenvalues --    0.92335   0.93109   0.93590   0.93910   0.94213
 Alpha virt. eigenvalues --    0.94478   0.94978   0.95260   0.95714   0.96140
 Alpha virt. eigenvalues --    0.96813   0.97569   0.97765   0.97903   0.98469
 Alpha virt. eigenvalues --    0.98952   0.99136   0.99430   0.99936   1.00791
 Alpha virt. eigenvalues --    1.00945   1.01141   1.01639   1.02138   1.03744
 Alpha virt. eigenvalues --    1.04105   1.04164   1.04376   1.04667   1.04937
 Alpha virt. eigenvalues --    1.05177   1.05737   1.06006   1.06557   1.07138
 Alpha virt. eigenvalues --    1.07692   1.08040   1.08840   1.09864   1.10505
 Alpha virt. eigenvalues --    1.11065   1.11748   1.12013   1.12734   1.13056
 Alpha virt. eigenvalues --    1.13932   1.14047   1.14670   1.14946   1.15402
 Alpha virt. eigenvalues --    1.15697   1.16074   1.16529   1.17081   1.17700
 Alpha virt. eigenvalues --    1.18392   1.18513   1.18637   1.18764   1.19345
 Alpha virt. eigenvalues --    1.19697   1.19886   1.19907   1.20333   1.20462
 Alpha virt. eigenvalues --    1.21269   1.21578   1.22020   1.22723   1.22759
 Alpha virt. eigenvalues --    1.23224   1.23565   1.23780   1.24051   1.24417
 Alpha virt. eigenvalues --    1.24678   1.25402   1.26001   1.26444   1.26848
 Alpha virt. eigenvalues --    1.27621   1.28268   1.28631   1.29045   1.29626
 Alpha virt. eigenvalues --    1.30322   1.30564   1.31534   1.32419   1.33193
 Alpha virt. eigenvalues --    1.34027   1.34255   1.34933   1.35291   1.35720
 Alpha virt. eigenvalues --    1.36670   1.37272   1.37743   1.38011   1.39534
 Alpha virt. eigenvalues --    1.40105   1.40878   1.41632   1.42019   1.43727
 Alpha virt. eigenvalues --    1.44938   1.45741   1.46640   1.47248   1.48398
 Alpha virt. eigenvalues --    1.48771   1.49236   1.49589   1.50171   1.50529
 Alpha virt. eigenvalues --    1.51436   1.52186   1.53286   1.53354   1.54067
 Alpha virt. eigenvalues --    1.54704   1.55711   1.55986   1.56621   1.56979
 Alpha virt. eigenvalues --    1.57318   1.58839   1.59072   1.60162   1.60948
 Alpha virt. eigenvalues --    1.61382   1.62236   1.62379   1.62868   1.63617
 Alpha virt. eigenvalues --    1.64108   1.64797   1.65281   1.65310   1.66155
 Alpha virt. eigenvalues --    1.66384   1.66677   1.67599   1.68416   1.68791
 Alpha virt. eigenvalues --    1.69103   1.69716   1.70490   1.71098   1.71311
 Alpha virt. eigenvalues --    1.71884   1.72234   1.73126   1.73350   1.73851
 Alpha virt. eigenvalues --    1.74053   1.74410   1.74614   1.74696   1.75022
 Alpha virt. eigenvalues --    1.75511   1.75993   1.76175   1.76768   1.77282
 Alpha virt. eigenvalues --    1.77307   1.77495   1.77669   1.78539   1.78670
 Alpha virt. eigenvalues --    1.78948   1.79369   1.79594   1.79768   1.80031
 Alpha virt. eigenvalues --    1.80593   1.80887   1.81222   1.81701   1.81847
 Alpha virt. eigenvalues --    1.82341   1.82964   1.83682   1.84181   1.84716
 Alpha virt. eigenvalues --    1.84949   1.85063   1.85438   1.85916   1.86360
 Alpha virt. eigenvalues --    1.87278   1.87923   1.88003   1.88390   1.89576
 Alpha virt. eigenvalues --    1.89614   1.90134   1.90539   1.90827   1.91265
 Alpha virt. eigenvalues --    1.91801   1.92126   1.92530   1.93430   1.93692
 Alpha virt. eigenvalues --    1.94067   1.95009   1.95600   1.96816   1.97219
 Alpha virt. eigenvalues --    1.97901   1.98889   1.99280   1.99910   2.00331
 Alpha virt. eigenvalues --    2.01740   2.01911   2.02764   2.02905   2.03158
 Alpha virt. eigenvalues --    2.03959   2.04470   2.05575   2.06193   2.07473
 Alpha virt. eigenvalues --    2.07615   2.08379   2.08477   2.09526   2.10052
 Alpha virt. eigenvalues --    2.10463   2.10549   2.11742   2.12350   2.13052
 Alpha virt. eigenvalues --    2.13875   2.14004   2.14682   2.16042   2.17041
 Alpha virt. eigenvalues --    2.18094   2.19358   2.20101   2.20465   2.20817
 Alpha virt. eigenvalues --    2.21665   2.22109   2.22259   2.23287   2.23567
 Alpha virt. eigenvalues --    2.24047   2.24253   2.25755   2.25788   2.26414
 Alpha virt. eigenvalues --    2.27219   2.27589   2.28476   2.29365   2.29709
 Alpha virt. eigenvalues --    2.30107   2.30439   2.30860   2.31375   2.31899
 Alpha virt. eigenvalues --    2.31952   2.33131   2.33604   2.34037   2.34357
 Alpha virt. eigenvalues --    2.34721   2.35175   2.35787   2.36197   2.36848
 Alpha virt. eigenvalues --    2.37259   2.38386   2.38456   2.39447   2.40845
 Alpha virt. eigenvalues --    2.41556   2.42826   2.43154   2.43497   2.44143
 Alpha virt. eigenvalues --    2.44305   2.45033   2.45225   2.45969   2.46226
 Alpha virt. eigenvalues --    2.46887   2.48156   2.50089   2.50688   2.51046
 Alpha virt. eigenvalues --    2.51623   2.52281   2.54294   2.55474   2.55659
 Alpha virt. eigenvalues --    2.56795   2.57693   2.57864   2.58624   2.60470
 Alpha virt. eigenvalues --    2.61143   2.62192   2.62848   2.63549   2.64121
 Alpha virt. eigenvalues --    2.64316   2.64637   2.64951   2.65184   2.65507
 Alpha virt. eigenvalues --    2.66818   2.67118   2.68141   2.68980   2.69352
 Alpha virt. eigenvalues --    2.69915   2.70181   2.70689   2.71214   2.71924
 Alpha virt. eigenvalues --    2.72789   2.74132   2.75239   2.76328   2.76460
 Alpha virt. eigenvalues --    2.76863   2.77039   2.77519   2.78887   2.78958
 Alpha virt. eigenvalues --    2.79384   2.79768   2.79992   2.80401   2.81260
 Alpha virt. eigenvalues --    2.82115   2.82342   2.83228   2.83524   2.84064
 Alpha virt. eigenvalues --    2.84679   2.85426   2.86192   2.86545   2.86842
 Alpha virt. eigenvalues --    2.86973   2.88248   2.88715   2.91766   2.93441
 Alpha virt. eigenvalues --    2.94034   2.94788   2.95836   2.96939   2.98765
 Alpha virt. eigenvalues --    2.99810   3.01103   3.02376   3.02528   3.05146
 Alpha virt. eigenvalues --    3.05549   3.08751   3.10256   3.12153   3.14386
 Alpha virt. eigenvalues --    3.15185   3.15757   3.16319   3.18751   3.19577
 Alpha virt. eigenvalues --    3.20623   3.22622   3.23663   3.25069   3.25376
 Alpha virt. eigenvalues --    3.44125   3.47032   3.47277   3.48879   3.50545
 Alpha virt. eigenvalues --    3.52930   3.54818   3.56152   3.57664   3.60141
 Alpha virt. eigenvalues --    3.63241   3.70901   3.75166
          Condensed to atoms (all electrons):
 Mulliken charges:
               1
     1  N   -0.305545
     2  C    0.182435
     3  C    0.058612
     4  N   -0.254810
     5  C    0.152227
     6  H    0.028368
     7  N   -0.295285
     8  C    0.125892
     9  H    0.010004
    10  N   -0.279733
    11  C    0.243075
    12  C    0.081590
    13  N   -0.067005
    14  H    0.116852
    15  H    0.083473
    16  H    0.022057
    17  H    0.028419
    18  H    0.026281
    19  N   -0.309977
    20  C    0.264109
    21  C    0.182313
    22  N   -0.123024
    23  H    0.120595
    24  H    0.118716
    25  N   -0.311490
    26  C    0.245623
    27  N   -0.141708
    28  H    0.120370
    29  C    0.190619
    30  O   -0.318667
    31  C   -0.017749
    32  N   -0.229902
    33  C    0.115998
    34  H    0.024053
    35  H    0.025708
    36  H    0.031562
    37  H    0.025500
    38  H    0.065431
    39  H    0.057268
    40  H    0.075448
    41  H    0.022041
    42  C   -0.121058
    43  O   -0.265911
    44  C    0.168249
    45  H    0.133916
    46  N   -0.123743
    47  O   -0.351825
    48  C    0.350106
    49  H    0.042550
    50  C    0.174404
    51  C    0.040136
    52  N   -0.277255
    53  H    0.034458
    54  H    0.041716
    55  H    0.029957
    56  H    0.120890
    57  H    0.118627
    58  N   -0.060541
    59  C    0.083355
    60  C    0.222829
    61  N   -0.260262
    62  H    0.031913
    63  C    0.166952
    64  N   -0.308508
    65  H    0.040213
    66  C    0.139829
    67  N   -0.257868
    68  C    0.024573
    69  C    0.180131
    70  N   -0.307578
 Sum of Mulliken charges =  -0.00000
 Mulliken charges with hydrogens summed into heavy atoms:
               1
     1  N   -0.305545
     2  C    0.259192
     3  C    0.058612
     4  N   -0.254810
     5  C    0.180595
     7  N   -0.295285
     8  C    0.135896
    10  N   -0.279733
    11  C    0.243075
    12  C    0.081590
    13  N    0.133320
    19  N   -0.309977
    20  C    0.264109
    21  C    0.265083
    22  N    0.116287
    25  N   -0.311490
    26  C    0.245623
    27  N   -0.021337
    29  C    0.190619
    30  O   -0.318667
    31  C   -0.017749
    32  N   -0.229902
    33  C    0.140052
    42  C   -0.099017
    43  O   -0.265911
    44  C    0.168249
    46  N    0.010173
    47  O   -0.351825
    48  C    0.350106
    50  C    0.216953
    51  C    0.238283
    52  N   -0.277255
    58  N    0.178976
    59  C    0.083355
    60  C    0.222829
    61  N   -0.260262
    63  C    0.198864
    64  N   -0.308508
    66  C    0.180043
    67  N   -0.257868
    68  C    0.024573
    69  C    0.286261
    70  N   -0.307578
 Electronic spatial extent (au):  <R**2>=          23176.4083
 Charge=             -0.0000 electrons
 Dipole moment (field-independent basis, Debye):
    X=             -7.2132    Y=              7.5313    Z=             -0.8685  Tot=             10.4644
 Quadrupole moment (field-independent basis, Debye-Ang):
   XX=           -157.7741   YY=           -223.5344   ZZ=           -251.8335
   XY=              2.3994   XZ=            -16.4183   YZ=              8.9148
 Traceless Quadrupole moment (field-independent basis, Debye-Ang):
   XX=             53.2732   YY=            -12.4870   ZZ=            -40.7861
   XY=              2.3994   XZ=            -16.4183   YZ=              8.9148
 Octapole moment (field-independent basis, Debye-Ang**2):
  XXX=             75.0265  YYY=            132.9922  ZZZ=             21.0329  XYY=            -98.7892
  XXY=            144.5119  XXZ=            -61.6502  XZZ=            -40.4266  YZZ=             21.3211
  YYZ=            -41.9340  XYZ=             68.4151
 Hexadecapole moment (field-independent basis, Debye-Ang**3):
 XXXX=         -17221.3375 YYYY=          -5033.1481 ZZZZ=          -3820.2283 XXXY=           -498.7315
 XXXZ=           -207.9423 YYYX=             35.0558 YYYZ=             64.0435 ZZZX=            -82.7088
 ZZZY=             10.1222 XXYY=          -3393.0763 XXZZ=          -4047.7608 YYZZ=          -1574.9001
 XXYZ=            -67.4796 YYXZ=             44.1839 ZZXY=            -73.2356
 N-N= 5.456837590589D+03 E-N=-1.569410468485D+04  KE= 2.037694622081D+03
 No NMR shielding tensors so no spin-rotation constants.
 Leave Link  601 at Mon Jan 22 17:49:19 2018, MaxMem=  4294967296 cpu:              45.7 elap:               1.6
 (Enter /share/apps/g16/l9999.exe)
 1\1\GINC-COMPUTE-0-3\SP\RwB97XD\CC-pVDZ\C23H27N17O3\SATYA\22-Jan-2018\
 0\\#p wb97xd/cc-pvdz sp scf=(maxcycles=20)\\Base pair stacking\\0,1\N,
 0,2.67198,-0.84562,-6.28455\C,0,3.39859,0.43269,-6.41084\C,0,1.09498,-
 2.37846,-6.25612\N,0,2.27415,-3.02855,-5.92193\C,0,3.17703,-2.07905,-5
 .95243\H,0,4.23649,-2.22387,-5.73909\N,0,-1.16838,-1.92503,-6.7404\C,0
 ,-0.79491,-0.65483,-6.92664\H,0,-1.59602,0.02984,-7.20178\N,0,0.41391,
 -0.10599,-6.82453\C,0,1.32442,-1.03248,-6.48247\C,0,-0.22884,-2.83298,
 -6.39695\N,0,-0.5997,-4.10141,-6.2106\H,0,0.06216,-4.80718,-5.95556\H,
 0,-1.55123,-4.38929,-6.3195\H,0,4.10354,0.34879,-7.11525\H,0,2.7586,1.
 15696,-6.66573\H,0,3.82821,0.662,-5.53743\N,0,1.0001,2.28371,-3.28341\
 C,0,-0.00583,1.34931,-3.33853\C,0,0.8198,3.7419,-3.43129\N,0,-3.3682,0
 .56862,-3.72163\H,0,-3.93877,-0.25213,-3.72822\H,0,-3.83173,1.44456,-3
 .85794\N,0,-1.31742,1.60423,-3.53546\C,0,-2.04101,0.49877,-3.53833\N,0
 ,-1.5218,-0.76092,-3.362\H,0,-2.1504,-1.5493,-3.37908\C,0,-0.17551,-1.
 04673,-3.15781\O,0,0.18941,-2.21958,-3.00947\C,0,0.61439,0.13094,-3.15
 221\N,0,1.98217,0.29711,-2.98351\C,0,2.16421,1.587,-3.06868\H,0,3.1306
 ,2.08481,-2.98179\H,0,1.34879,4.06713,-4.21437\H,0,-0.14792,3.94279,-3
 .57768\H,0,1.13336,4.20396,-2.60245\H,0,-5.70281,-5.09085,-4.21001\H,0
 ,-5.75222,-5.15705,-2.44994\H,0,-5.37285,-3.639,-3.26417\H,0,-1.76981,
 -7.7137,-3.31628\C,0,-2.09156,-6.67265,-3.28615\O,0,0.11301,-5.80201,-
 3.19152\C,0,-1.10631,-5.63694,-3.21954\H,0,-0.95463,-3.59764,-3.13858\
 N,0,-1.62017,-4.35629,-3.1858\O,0,-3.30241,-2.83079,-3.17565\C,0,-2.94
 393,-3.99485,-3.20937\H,0,-4.17877,-7.10135,-3.36087\C,0,-3.39037,-6.3
 5153,-3.31054\C,0,-5.25896,-4.71221,-3.30133\N,0,-3.83306,-5.04959,-3.
 274\H,0,-8.80999,-3.62364,-7.92483\H,0,-7.90255,-2.71675,-6.91676\H,0,
 -9.0696,-3.68615,-6.31482\H,0,-2.54571,-7.22024,-6.2252\H,0,-4.02702,-
 8.02224,-6.49465\N,0,-3.53161,-7.16023,-6.38185\C,0,-4.15879,-5.98351,
 -6.43801\C,0,-6.04772,-4.55833,-6.68809\N,0,-5.35686,-3.41679,-6.5331\
 H,0,-3.43062,-2.80148,-6.19905\C,0,-4.0659,-3.67568,-6.33486\N,0,-3.43
 579,-4.85354,-6.27828\H,0,-8.62956,-6.44192,-7.17629\C,0,-7.6296,-6.04
 455,-6.99989\N,0,-6.552,-6.77612,-6.85411\C,0,-5.54178,-5.84616,-6.655
 72\C,0,-8.37281,-3.59199,-7.02601\N,0,-7.39756,-4.69364,-6.91087\\Vers
 ion=EM64L-G16RevA.03\State=1-A\HF=-2048.7496819\RMSD=6.945e-09\Dipole=
 -4.0584277,0.4088688,-0.5584254\Quadrupole=17.6997715,13.5647027,-31.2
 644742,25.9630476,-6.2757337,5.7004795\PG=C01 [X(C23H27N17O3)]\\@


 TOM, TOM, THE BURGLAR'S SON
 STOLE A MACHINE AND AWAY HE RUN
 THE JOB WAS NEAT, BUT TOM GOT BEAT
 BY THE TIME HE GOT HOME IT WAS OBSOLETE.
 Job cpu time:       0 days  5 hours 49 minutes 28.8 seconds.
 Elapsed time:       0 days  0 hours 11 minutes 16.7 seconds.
 File lengths (MBytes):  RWF=    298 Int=      0 D2E=      0 Chk=     33 Scr=      1
 Normal termination of Gaussian 16 at Mon Jan 22 17:49:20 2018.
