 Entering Gaussian System, Link 0=g16
 Input=str35.15.1.0.com
 Output=str35.15.1.0.log
 Initial command:
 /share/apps/g16/l1.exe "/state/partition1/scr/Gau-24535.inp" -scrdir="/state/partition1/scr/"
 Entering Link 1 = /share/apps/g16/l1.exe PID=     24536.
  
 Copyright (c) 1988,1990,1992,1993,1995,1998,2003,2009,2016,
            Gaussian, Inc.  All Rights Reserved.
  
 This is part of the Gaussian(R) 16 program.  It is based on
 the Gaussian(R) 09 system (copyright 2009, Gaussian, Inc.),
 the Gaussian(R) 03 system (copyright 2003, Gaussian, Inc.),
 the Gaussian(R) 98 system (copyright 1998, Gaussian, Inc.),
 the Gaussian(R) 94 system (copyright 1995, Gaussian, Inc.),
 the Gaussian 92(TM) system (copyright 1992, Gaussian, Inc.),
 the Gaussian 90(TM) system (copyright 1990, Gaussian, Inc.),
 the Gaussian 88(TM) system (copyright 1988, Gaussian, Inc.),
 the Gaussian 86(TM) system (copyright 1986, Carnegie Mellon
 University), and the Gaussian 82(TM) system (copyright 1983,
 Carnegie Mellon University). Gaussian is a federally registered
 trademark of Gaussian, Inc.
  
 This software contains proprietary and confidential information,
 including trade secrets, belonging to Gaussian, Inc.
  
 This software is provided under written license and may be
 used, copied, transmitted, or stored only in accord with that
 written license.
  
 The following legend is applicable only to US Government
 contracts under FAR:
  
                    RESTRICTED RIGHTS LEGEND
  
 Use, reproduction and disclosure by the US Government is
 subject to restrictions as set forth in subparagraphs (a)
 and (c) of the Commercial Computer Software - Restricted
 Rights clause in FAR 52.227-19.
  
 Gaussian, Inc.
 340 Quinnipiac St., Bldg. 40, Wallingford CT 06492
  
  
 ---------------------------------------------------------------
 Warning -- This program may not be used in any manner that
 competes with the business of Gaussian, Inc. or will provide
 assistance to any competitor of Gaussian, Inc.  The licensee
 of this program is prohibited from giving any competitor of
 Gaussian, Inc. access to this program.  By using this program,
 the user acknowledges that Gaussian, Inc. is engaged in the
 business of creating and licensing software in the field of
 computational chemistry and represents and warrants to the
 licensee that it is not a competitor of Gaussian, Inc. and that
 it will not use this program in any manner prohibited above.
 ---------------------------------------------------------------
  

 Cite this work as:
 Gaussian 16, Revision A.03,
 M. J. Frisch, G. W. Trucks, H. B. Schlegel, G. E. Scuseria, 
 M. A. Robb, J. R. Cheeseman, G. Scalmani, V. Barone, 
 G. A. Petersson, H. Nakatsuji, X. Li, M. Caricato, A. V. Marenich, 
 J. Bloino, B. G. Janesko, R. Gomperts, B. Mennucci, H. P. Hratchian, 
 J. V. Ortiz, A. F. Izmaylov, J. L. Sonnenberg, D. Williams-Young, 
 F. Ding, F. Lipparini, F. Egidi, J. Goings, B. Peng, A. Petrone, 
 T. Henderson, D. Ranasinghe, V. G. Zakrzewski, J. Gao, N. Rega, 
 G. Zheng, W. Liang, M. Hada, M. Ehara, K. Toyota, R. Fukuda, 
 J. Hasegawa, M. Ishida, T. Nakajima, Y. Honda, O. Kitao, H. Nakai, 
 T. Vreven, K. Throssell, J. A. Montgomery, Jr., J. E. Peralta, 
 F. Ogliaro, M. J. Bearpark, J. J. Heyd, E. N. Brothers, K. N. Kudin, 
 V. N. Staroverov, T. A. Keith, R. Kobayashi, J. Normand, 
 K. Raghavachari, A. P. Rendell, J. C. Burant, S. S. Iyengar, 
 J. Tomasi, M. Cossi, J. M. Millam, M. Klene, C. Adamo, R. Cammi, 
 J. W. Ochterski, R. L. Martin, K. Morokuma, O. Farkas, 
 J. B. Foresman, and D. J. Fox, Gaussian, Inc., Wallingford CT, 2016.
 
 ******************************************
 Gaussian 16:  EM64L-G16RevA.03 25-Dec-2016
                22-Jan-2018 
 ******************************************
 %nprocshared=32
 Will use up to   32 processors via shared memory.
 %mem=32GB
 %chk=allatoms_t.chk
 ---------------------------------------
 #p wb97xd/cc-pvdz sp scf=(maxcycles=20)
 ---------------------------------------
 1/38=1,172=1/1;
 2/12=2,17=6,18=5,40=1/2;
 3/5=16,11=2,25=1,30=1,74=-58/1,2,3;
 4//1;
 5/5=2,7=20,38=5/2;
 6/7=2,8=2,9=2,10=2,28=1/1;
 99/5=1,9=1/99;
 Leave Link    1 at Mon Jan 22 06:41:21 2018, MaxMem=  4294967296 cpu:               2.7 elap:               0.1
 (Enter /share/apps/g16/l101.exe)
 ------------------
 Base pair stacking
 ------------------
 Symbolic Z-matrix:
 Charge =  0 Multiplicity = 1
 N                     5.25421   1.17018  -5.40163 
 C                     6.04878   2.40408  -5.55702 
 C                     3.65099  -0.33123  -5.51466 
 N                     4.6743   -0.91083  -4.7787 
 C                     5.59922   0.01692  -4.74006 
 H                     6.56155  -0.08755  -4.23812 
 N                     1.60919   0.02845  -6.63922 
 C                     2.0775    1.24374  -6.94146 
 H                     1.40601   1.8678   -7.5296 
 N                     3.24525   1.80126  -6.62773 
 C                     3.99394   0.95141  -5.90548 
 C                     2.38645  -0.80292  -5.91138 
 N                     1.92074  -2.01645  -5.60867 
 H                     2.46181  -2.66482  -5.07194 
 H                     1.01561  -2.3187   -5.90789 
 H                     6.90484   2.19364  -6.02931 
 H                     5.52967   3.07065  -6.09117 
 H                     6.25263   2.78741  -4.65618 
 N                     1.76318   3.70926  -3.23949 
 C                     0.77099   2.77356  -3.40704 
 C                     1.62056   5.15826  -3.48602 
 N                    -2.49469   1.97562  -4.27906 
 H                    -3.06377   1.15573  -4.33537 
 H                    -2.92358   2.84376  -4.53026 
 N                    -0.49077   3.01867  -3.8217 
 C                    -1.21386   1.91467  -3.88451 
 N                    -0.73948   0.66525  -3.56604 
 H                    -1.36392  -0.12281  -3.64351 
 C                     0.55512   0.38965  -3.13719 
 O                     0.8823   -0.77439  -2.87507 
 C                     1.34385   1.56589  -3.06475 
 N                     2.66902   1.73991  -2.68985 
 C                     2.87285   3.02386  -2.8088 
 H                     3.81737   3.52512  -2.59458 
 H                     2.26947   5.44365  -4.19048 
 H                     0.68989   5.35184  -3.79367 
 H                     1.80278   5.66121  -2.64184 
 H                    -4.7691   -3.70055  -4.85069 
 H                    -5.09698  -3.67839  -3.11961 
 H                    -4.58105  -2.20319  -3.9375 
 H                    -1.04883  -6.27642  -3.21634 
 C                    -1.36271  -5.23507  -3.28912 
 O                     0.80619  -4.36142  -2.8895 
 C                    -0.39193  -4.19762  -3.11853 
 H                    -0.23819  -2.15686  -3.11553 
 N                    -0.89409  -2.91674  -3.23004 
 O                    -2.54412  -1.39216  -3.56207 
 C                    -2.19442  -2.55654  -3.48094 
 H                    -3.41525  -5.66638  -3.67237 
 C                    -2.6386   -4.9152   -3.53488 
 C                    -4.47154  -3.27694  -3.90302 
 N                    -3.07077  -3.61294  -3.6334 
 H                    -5.55192  -1.85177  -9.44377 
 H                    -4.88862  -0.77797  -8.40981 
 H                    -6.21493  -1.6217   -7.97037 
 H                    -0.10315  -5.08522  -5.58097 
 H                    -1.50359  -5.92184  -6.07991 
 N                    -1.01286  -5.05395  -5.99521 
 C                    -1.54868  -3.90644  -6.41628 
 C                    -3.24227  -2.5489   -7.39125 
 N                    -2.56021  -1.39858  -7.26476 
 H                    -0.75524  -0.73416  -6.55678 
 C                    -1.37581  -1.61812  -6.69738 
 N                    -0.83734  -2.76667  -6.27495 
 H                    -5.70145  -4.48815  -8.19368 
 C                    -4.76151  -4.06603  -7.83693 
 N                    -3.79228  -4.7598   -7.292 
 C                    -2.82278  -3.80991  -7.00473 
 C                    -5.35659  -1.65824  -8.48232 
 N                    -4.49597  -2.72146  -7.92832 
 
 ITRead=  0  0  0  0  0  0  0  0  0  0  0  0  0  0  0  0  0  0  0  0
 ITRead=  0  0  0  0  0  0  0  0  0  0  0  0  0  0  0  0  0  0  0  0
 ITRead=  0  0  0  0  0  0  0  0  0  0  0  0  0  0  0  0  0  0  0  0
 ITRead=  0  0  0  0  0  0  0  0  0  0
 MicOpt= -1 -1 -1 -1 -1 -1 -1 -1 -1 -1 -1 -1 -1 -1 -1 -1 -1 -1 -1 -1
 MicOpt= -1 -1 -1 -1 -1 -1 -1 -1 -1 -1 -1 -1 -1 -1 -1 -1 -1 -1 -1 -1
 MicOpt= -1 -1 -1 -1 -1 -1 -1 -1 -1 -1 -1 -1 -1 -1 -1 -1 -1 -1 -1 -1
 MicOpt= -1 -1 -1 -1 -1 -1 -1 -1 -1 -1
 NAtoms=     70 NQM=       70 NQMF=       0 NMMI=      0 NMMIF=      0
                NMic=       0 NMicF=      0.
                    Isotopes and Nuclear Properties:
 (Nuclear quadrupole moments (NQMom) in fm**2, nuclear magnetic moments (NMagM)
  in nuclear magnetons)

  Atom         1           2           3           4           5           6           7           8           9          10
 IAtWgt=          14          12          12          14          12           1          14          12           1          14
 AtmWgt=  14.0030740  12.0000000  12.0000000  14.0030740  12.0000000   1.0078250  14.0030740  12.0000000   1.0078250  14.0030740
 NucSpn=           2           0           0           2           0           1           2           0           1           2
 AtZEff=  -0.0000000  -0.0000000  -0.0000000  -0.0000000  -0.0000000  -0.0000000  -0.0000000  -0.0000000  -0.0000000  -0.0000000
 NQMom=    2.0440000   0.0000000   0.0000000   2.0440000   0.0000000   0.0000000   2.0440000   0.0000000   0.0000000   2.0440000
 NMagM=    0.4037610   0.0000000   0.0000000   0.4037610   0.0000000   2.7928460   0.4037610   0.0000000   2.7928460   0.4037610
 AtZNuc=   7.0000000   6.0000000   6.0000000   7.0000000   6.0000000   1.0000000   7.0000000   6.0000000   1.0000000   7.0000000

  Atom        11          12          13          14          15          16          17          18          19          20
 IAtWgt=          12          12          14           1           1           1           1           1          14          12
 AtmWgt=  12.0000000  12.0000000  14.0030740   1.0078250   1.0078250   1.0078250   1.0078250   1.0078250  14.0030740  12.0000000
 NucSpn=           0           0           2           1           1           1           1           1           2           0
 AtZEff=  -0.0000000  -0.0000000  -0.0000000  -0.0000000  -0.0000000  -0.0000000  -0.0000000  -0.0000000  -0.0000000  -0.0000000
 NQMom=    0.0000000   0.0000000   2.0440000   0.0000000   0.0000000   0.0000000   0.0000000   0.0000000   2.0440000   0.0000000
 NMagM=    0.0000000   0.0000000   0.4037610   2.7928460   2.7928460   2.7928460   2.7928460   2.7928460   0.4037610   0.0000000
 AtZNuc=   6.0000000   6.0000000   7.0000000   1.0000000   1.0000000   1.0000000   1.0000000   1.0000000   7.0000000   6.0000000

  Atom        21          22          23          24          25          26          27          28          29          30
 IAtWgt=          12          14           1           1          14          12          14           1          12          16
 AtmWgt=  12.0000000  14.0030740   1.0078250   1.0078250  14.0030740  12.0000000  14.0030740   1.0078250  12.0000000  15.9949146
 NucSpn=           0           2           1           1           2           0           2           1           0           0
 AtZEff=  -0.0000000  -0.0000000  -0.0000000  -0.0000000  -0.0000000  -0.0000000  -0.0000000  -0.0000000  -0.0000000  -0.0000000
 NQMom=    0.0000000   2.0440000   0.0000000   0.0000000   2.0440000   0.0000000   2.0440000   0.0000000   0.0000000   0.0000000
 NMagM=    0.0000000   0.4037610   2.7928460   2.7928460   0.4037610   0.0000000   0.4037610   2.7928460   0.0000000   0.0000000
 AtZNuc=   6.0000000   7.0000000   1.0000000   1.0000000   7.0000000   6.0000000   7.0000000   1.0000000   6.0000000   8.0000000

  Atom        31          32          33          34          35          36          37          38          39          40
 IAtWgt=          12          14          12           1           1           1           1           1           1           1
 AtmWgt=  12.0000000  14.0030740  12.0000000   1.0078250   1.0078250   1.0078250   1.0078250   1.0078250   1.0078250   1.0078250
 NucSpn=           0           2           0           1           1           1           1           1           1           1
 AtZEff=  -0.0000000  -0.0000000  -0.0000000  -0.0000000  -0.0000000  -0.0000000  -0.0000000  -0.0000000  -0.0000000  -0.0000000
 NQMom=    0.0000000   2.0440000   0.0000000   0.0000000   0.0000000   0.0000000   0.0000000   0.0000000   0.0000000   0.0000000
 NMagM=    0.0000000   0.4037610   0.0000000   2.7928460   2.7928460   2.7928460   2.7928460   2.7928460   2.7928460   2.7928460
 AtZNuc=   6.0000000   7.0000000   6.0000000   1.0000000   1.0000000   1.0000000   1.0000000   1.0000000   1.0000000   1.0000000

  Atom        41          42          43          44          45          46          47          48          49          50
 IAtWgt=           1          12          16          12           1          14          16          12           1          12
 AtmWgt=   1.0078250  12.0000000  15.9949146  12.0000000   1.0078250  14.0030740  15.9949146  12.0000000   1.0078250  12.0000000
 NucSpn=           1           0           0           0           1           2           0           0           1           0
 AtZEff=  -0.0000000  -0.0000000  -0.0000000  -0.0000000  -0.0000000  -0.0000000  -0.0000000  -0.0000000  -0.0000000  -0.0000000
 NQMom=    0.0000000   0.0000000   0.0000000   0.0000000   0.0000000   2.0440000   0.0000000   0.0000000   0.0000000   0.0000000
 NMagM=    2.7928460   0.0000000   0.0000000   0.0000000   2.7928460   0.4037610   0.0000000   0.0000000   2.7928460   0.0000000
 AtZNuc=   1.0000000   6.0000000   8.0000000   6.0000000   1.0000000   7.0000000   8.0000000   6.0000000   1.0000000   6.0000000

  Atom        51          52          53          54          55          56          57          58          59          60
 IAtWgt=          12          14           1           1           1           1           1          14          12          12
 AtmWgt=  12.0000000  14.0030740   1.0078250   1.0078250   1.0078250   1.0078250   1.0078250  14.0030740  12.0000000  12.0000000
 NucSpn=           0           2           1           1           1           1           1           2           0           0
 AtZEff=  -0.0000000  -0.0000000  -0.0000000  -0.0000000  -0.0000000  -0.0000000  -0.0000000  -0.0000000  -0.0000000  -0.0000000
 NQMom=    0.0000000   2.0440000   0.0000000   0.0000000   0.0000000   0.0000000   0.0000000   2.0440000   0.0000000   0.0000000
 NMagM=    0.0000000   0.4037610   2.7928460   2.7928460   2.7928460   2.7928460   2.7928460   0.4037610   0.0000000   0.0000000
 AtZNuc=   6.0000000   7.0000000   1.0000000   1.0000000   1.0000000   1.0000000   1.0000000   7.0000000   6.0000000   6.0000000

  Atom        61          62          63          64          65          66          67          68          69          70
 IAtWgt=          14           1          12          14           1          12          14          12          12          14
 AtmWgt=  14.0030740   1.0078250  12.0000000  14.0030740   1.0078250  12.0000000  14.0030740  12.0000000  12.0000000  14.0030740
 NucSpn=           2           1           0           2           1           0           2           0           0           2
 AtZEff=  -0.0000000  -0.0000000  -0.0000000  -0.0000000  -0.0000000  -0.0000000  -0.0000000  -0.0000000  -0.0000000  -0.0000000
 NQMom=    2.0440000   0.0000000   0.0000000   2.0440000   0.0000000   0.0000000   2.0440000   0.0000000   0.0000000   2.0440000
 NMagM=    0.4037610   2.7928460   0.0000000   0.4037610   2.7928460   0.0000000   0.4037610   0.0000000   0.0000000   0.4037610
 AtZNuc=   7.0000000   1.0000000   6.0000000   7.0000000   1.0000000   6.0000000   7.0000000   6.0000000   6.0000000   7.0000000
 Leave Link  101 at Mon Jan 22 06:41:22 2018, MaxMem=  4294967296 cpu:               7.7 elap:               0.3
 (Enter /share/apps/g16/l202.exe)
 Stoichiometry    C23H27N17O3
 Framework group  C1[X(C23H27N17O3)]
 Deg. of freedom   204
 Full point group                 C1      NOp   1
 Largest Abelian subgroup         C1      NOp   1
 Largest concise Abelian subgroup C1      NOp   1
                         Standard orientation:                         
 ---------------------------------------------------------------------
 Center     Atomic      Atomic             Coordinates (Angstroms)
 Number     Number       Type             X           Y           Z
 ---------------------------------------------------------------------
      1          7           0       -5.209210   -1.970846    1.242333
      2          6           0       -6.571902   -1.571080    1.643896
      3          6           0       -3.025858   -2.051480    0.989760
      4          7           0       -3.538364   -3.129788    0.283130
      5          6           0       -4.833243   -3.038042    0.463579
      6          1           0       -5.567629   -3.728429    0.047672
      7          7           0       -1.546765   -0.485274    1.950093
      8          6           0       -2.629525    0.108865    2.462170
      9          1           0       -2.432855    0.995490    3.063398
     10          7           0       -3.912711   -0.226207    2.343619
     11          6           0       -4.043740   -1.327927    1.586340
     12          6           0       -1.711961   -1.591637    1.192641
     13          7           0       -0.632355   -2.186141    0.680597
     14          1           0       -0.707460   -3.007460    0.114016
     15          1           0        0.287834   -1.831007    0.845764
     16          1           0       -6.998627   -2.311684    2.163120
     17          1           0       -6.525350   -0.750394    2.212591
     18          1           0       -7.119003   -1.379335    0.829080
     19          7           0       -4.589976    2.323969   -0.874312
     20          6           0       -3.218531    2.265122   -0.935339
     21          6           0       -5.375769    3.497849   -0.443902
     22          7           0       -0.120966    3.775175   -0.503339
     23          1           0        0.841436    3.529960   -0.616895
     24          1           0       -0.318086    4.699948   -0.176761
     25          7           0       -2.365245    3.261771   -0.614943
     26          6           0       -1.103764    2.903734   -0.776487
     27          7           0       -0.706221    1.664940   -1.217914
     28          1           0        0.280538    1.479190   -1.311561
     29          6           0       -1.566751    0.624349   -1.553346
     30          8           0       -1.104909   -0.455774   -1.941647
     31          6           0       -2.925378    0.993997   -1.384896
     32          7           0       -4.089361    0.269408   -1.601741
     33          6           0       -5.048770    1.096646   -1.286407
     34          1           0       -6.112559    0.861853   -1.336341
     35          1           0       -5.928762    3.256898    0.352927
     36          1           0       -4.754325    4.242523   -0.204031
     37          1           0       -5.974409    3.791478   -1.188358
     38          1           0        5.327056    0.975328   -0.948887
     39          1           0        5.273503    1.279184   -2.683660
     40          1           0        4.072519    2.016252   -1.622665
     41          1           0        3.936613   -3.340692   -2.556759
     42          6           0        3.512721   -2.353795   -2.370814
     43          8           0        1.263688   -3.105502   -2.433049
     44          6           0        2.091270   -2.204184   -2.300725
     45          1           0        0.662029   -0.769490   -2.005313
     46          7           0        1.660241   -0.914889   -2.061591
     47          8           0        1.966402    1.303169   -1.682551
     48          6           0        2.441360    0.200494   -1.890342
     49          1           0        5.387323   -1.345044   -2.251991
     50          6           0        4.300695   -1.284611   -2.207863
     51          6           0        4.676297    1.137724   -1.795176
     52          7           0        3.801460   -0.024696   -1.971776
     53          1           0        5.476259    2.690916    3.758732
     54          1           0        4.119394    3.105730    2.953168
     55          1           0        5.581636    3.360839    2.274306
     56          1           0        2.851345   -3.163839    0.030838
     57          1           0        4.518540   -2.893500    0.270598
     58          7           0        3.579127   -2.559490    0.355246
     59          6           0        3.309963   -1.361243    0.877678
     60          6           0        3.861822    0.733138    1.862943
     61          7           0        2.590725    1.155636    1.964183
     62          1           0        0.697732    0.498469    1.533701
     63          6           0        1.753708    0.235399    1.489326
     64          7           0        2.021338   -0.965316    0.965666
     65          1           0        7.079997    0.857137    2.146013
     66          6           0        6.047170    0.571703    1.944172
     67          7           0        5.679960   -0.564875    1.404710
     68          6           0        4.296673   -0.475480    1.347519
     69          6           0        5.047765    2.747950    2.856993
     70          7           0        4.998089    1.405135    2.246746
 ---------------------------------------------------------------------
 Rotational constants (GHZ):           0.1362003           0.0544132           0.0513338
 Leave Link  202 at Mon Jan 22 06:41:22 2018, MaxMem=  4294967296 cpu:               0.4 elap:               0.0
 (Enter /share/apps/g16/l301.exe)
 Standard basis: CC-pVDZ (5D, 7F)
 Ernie: Thresh=  0.10000D-02 Tol=  0.10000D-05 Strict=F.
 Ernie:  86 primitive shells out of 1081 were deleted.
 There are   780 symmetry adapted cartesian basis functions of A   symmetry.
 There are   737 symmetry adapted basis functions of A   symmetry.
   737 basis functions,  1608 primitive gaussians,   780 cartesian basis functions
   154 alpha electrons      154 beta electrons
       nuclear repulsion energy      5479.6475085989 Hartrees.
 IExCor= 4639 DFT=T Ex+Corr=wB97XD ExCW=0 ScaHFX=  1.000000
 ScaDFX=  1.000000  1.000000  1.000000  1.000000 ScalE2=  1.000000  1.000000
 IRadAn=      5 IRanWt=     -1 IRanGd=            0 ICorTp=0 IEmpDi=121
 HFx  wShort=  0.000000 wLong=  0.200000 cFull=  0.222036 cShort=  0.000000 cLong=  0.777964
 DFx  wShort=  0.000000 wLong=  0.200000 cFull=  0.000000 cShort=  0.000000 cLong=  1.000000
 NAtoms=   70 NActive=   70 NUniq=   70 SFac= 1.00D+00 NAtFMM=   60 NAOKFM=T Big=T
 Integral buffers will be    131072 words long.
 Raffenetti 2 integral format.
 Two-electron integral symmetry is turned on.
 R6Disp:  Grimme-D2 Dispersion energy=       -0.0686505769 Hartrees.
 Nuclear repulsion after empirical dispersion term =     5479.5788580219 Hartrees.
 Leave Link  301 at Mon Jan 22 06:41:22 2018, MaxMem=  4294967296 cpu:               3.0 elap:               0.1
 (Enter /share/apps/g16/l302.exe)
 NPDir=0 NMtPBC=     1 NCelOv=     1 NCel=       1 NClECP=     1 NCelD=      1
         NCelK=      1 NCelE2=     1 NClLst=     1 CellRange=     0.0.
 One-electron integrals computed using PRISM.
 One-electron integral symmetry used in STVInt
 NBasis=   737 RedAO= T EigKep=  7.02D-04  NBF=   737
 NBsUse=   737 1.00D-06 EigRej= -1.00D+00 NBFU=   737
 Precomputing XC quadrature grid using
 IXCGrd= 4 IRadAn=           5 IRanWt=          -1 IRanGd=           0 AccXCQ= 0.00D+00.
 Generated NRdTot=       0 NPtTot=           0 NUsed=           0 NTot=          32
 NSgBfM=   763   763   763   763   763 MxSgAt=    70 MxSgA2=    70.
 Leave Link  302 at Mon Jan 22 06:41:26 2018, MaxMem=  4294967296 cpu:             135.8 elap:               4.3
 (Enter /share/apps/g16/l303.exe)
 DipDrv:  MaxL=1.
 Leave Link  303 at Mon Jan 22 06:41:26 2018, MaxMem=  4294967296 cpu:              12.6 elap:               0.4
 (Enter /share/apps/g16/l401.exe)
 ExpMin= 1.22D-01 ExpMax= 1.17D+04 ExpMxC= 4.01D+02 IAcc=3 IRadAn=         5 AccDes= 0.00D+00
 Harris functional with IExCor= 4639 and IRadAn=       5 diagonalized for initial guess.
 HarFok:  IExCor= 4639 AccDes= 0.00D+00 IRadAn=         5 IDoV= 1 UseB2=F ITyADJ=14
 ICtDFT=  3500011 ScaDFX=  1.000000  1.000000  1.000000  1.000000
 FoFCou: FMM=F IPFlag=           0 FMFlag=      100000 FMFlg1=        2001
         NFxFlg=           0 DoJE=T BraDBF=F KetDBF=T FulRan=T
         wScrn=  0.000000 ICntrl=       500 IOpCl=  0 I1Cent=   200000004 NGrid=           0
         NMat0=    1 NMatS0=      1 NMatT0=    0 NMatD0=    1 NMtDS0=    0 NMtDT0=    0
 Petite list used in FoFCou.
 Harris En= -1963.87920231540    
 JPrj=0 DoOrth=F DoCkMO=F.
 Leave Link  401 at Mon Jan 22 06:41:39 2018, MaxMem=  4294967296 cpu:             396.0 elap:              12.4
 (Enter /share/apps/g16/l502.exe)
 Integral symmetry usage will be decided dynamically.
 Closed shell SCF:
 Using DIIS extrapolation, IDIIS=  1040.
 NGot=  4294967296 LenX=  4293717438 LenY=  4293108258
 Requested convergence on RMS density matrix=1.00D-08 within  20 cycles.
 Requested convergence on MAX density matrix=1.00D-06.
 Requested convergence on             energy=1.00D-06.
 No special actions if energy rises.
 Fock matrices will be formed incrementally for  20 cycles.
 Integral accuracy reduced to 1.0D-05 until final iterations.

 Cycle   1  Pass 0  IDiag  1:
 FoFJK:  IHMeth= 1 ICntrl=       0 DoSepK=T KAlg= 0 I1Cent=           0 FoldK=F
 IRaf=         1 NMat=       1 IRICut=       1 DoRegI=T DoRafI=F ISym2E= 0 IDoP0=0 IntGTp=1.
 FoFCou: FMM=T IPFlag=           0 FMFlag=      100000 FMFlg1=        2001
         NFxFlg=           0 DoJE=T BraDBF=F KetDBF=F FulRan=T
         wScrn=  0.000000 ICntrl=       500 IOpCl=  0 I1Cent=           0 NGrid=           0
         NMat0=    1 NMatS0=      1 NMatT0=    0 NMatD0=    1 NMtDS0=    0 NMtDT0=    0
 Symmetry not used in FoFCou.
 FMM levels:  10  Number of levels for PrismC:   9
 E= -2048.31190326513    
 DIIS: error= 2.58D-02 at cycle   1 NSaved=   1.
 NSaved= 1 IEnMin= 1 EnMin= -2048.31190326513     IErMin= 1 ErrMin= 2.58D-02
 ErrMax= 2.58D-02  0.00D+00 EMaxC= 1.00D-01 BMatC= 8.31D-01 BMatP= 8.31D-01
 IDIUse=3 WtCom= 7.42D-01 WtEn= 2.58D-01
 Coeff-Com:  0.100D+01
 Coeff-En:   0.100D+01
 Coeff:      0.100D+01
 Gap=     0.257 Goal=   None    Shift=    0.000
 GapD=    0.257 DampG=1.000 DampE=0.500 DampFc=0.5000 IDamp=-1.
 Damping current iteration by 5.00D-01
 RMSDP=1.55D-03 MaxDP=1.30D-01              OVMax= 1.64D-01

 Cycle   2  Pass 0  IDiag  1:
 RMSU=  7.75D-04    CP:  9.98D-01
 E= -2048.50859673336     Delta-E=       -0.196693468230 Rises=F Damp=T
 DIIS: error= 1.44D-02 at cycle   2 NSaved=   2.
 NSaved= 2 IEnMin= 2 EnMin= -2048.50859673336     IErMin= 2 ErrMin= 1.44D-02
 ErrMax= 1.44D-02  0.00D+00 EMaxC= 1.00D-01 BMatC= 1.44D-01 BMatP= 8.31D-01
 IDIUse=3 WtCom= 8.56D-01 WtEn= 1.44D-01
 Coeff-Com: -0.202D+00 0.120D+01
 Coeff-En:   0.000D+00 0.100D+01
 Coeff:     -0.173D+00 0.117D+01
 Gap=     0.348 Goal=   None    Shift=    0.000
 RMSDP=5.79D-04 MaxDP=3.51D-02 DE=-1.97D-01 OVMax= 1.31D-01

 Cycle   3  Pass 0  IDiag  1:
 RMSU=  5.66D-04    CP:  9.94D-01  1.15D+00
 E= -2048.68851575164     Delta-E=       -0.179919018280 Rises=F Damp=F
 DIIS: error= 5.90D-03 at cycle   3 NSaved=   3.
 NSaved= 3 IEnMin= 3 EnMin= -2048.68851575164     IErMin= 3 ErrMin= 5.90D-03
 ErrMax= 5.90D-03  0.00D+00 EMaxC= 1.00D-01 BMatC= 6.05D-02 BMatP= 1.44D-01
 IDIUse=3 WtCom= 9.41D-01 WtEn= 5.90D-02
 Coeff-Com: -0.230D+00 0.544D+00 0.686D+00
 Coeff-En:   0.000D+00 0.000D+00 0.100D+01
 Coeff:     -0.216D+00 0.512D+00 0.704D+00
 Gap=     0.275 Goal=   None    Shift=    0.000
 RMSDP=3.43D-04 MaxDP=3.35D-02 DE=-1.80D-01 OVMax= 5.24D-02

 Cycle   4  Pass 0  IDiag  1:
 RMSU=  1.98D-04    CP:  9.95D-01  1.42D+00  6.82D-01
 E= -2048.73446326178     Delta-E=       -0.045947510135 Rises=F Damp=F
 DIIS: error= 2.58D-03 at cycle   4 NSaved=   4.
 NSaved= 4 IEnMin= 4 EnMin= -2048.73446326178     IErMin= 4 ErrMin= 2.58D-03
 ErrMax= 2.58D-03  0.00D+00 EMaxC= 1.00D-01 BMatC= 8.27D-03 BMatP= 6.05D-02
 IDIUse=3 WtCom= 9.74D-01 WtEn= 2.58D-02
 Coeff-Com: -0.964D-01 0.187D+00 0.374D+00 0.536D+00
 Coeff-En:   0.000D+00 0.000D+00 0.463D-01 0.954D+00
 Coeff:     -0.939D-01 0.182D+00 0.365D+00 0.547D+00
 Gap=     0.281 Goal=   None    Shift=    0.000
 RMSDP=1.21D-04 MaxDP=1.15D-02 DE=-4.59D-02 OVMax= 1.31D-02

 Cycle   5  Pass 0  IDiag  1:
 RMSU=  6.18D-05    CP:  9.94D-01  1.40D+00  8.07D-01  6.29D-01
 E= -2048.74119581572     Delta-E=       -0.006732553940 Rises=F Damp=F
 DIIS: error= 5.84D-04 at cycle   5 NSaved=   5.
 NSaved= 5 IEnMin= 5 EnMin= -2048.74119581572     IErMin= 5 ErrMin= 5.84D-04
 ErrMax= 5.84D-04  0.00D+00 EMaxC= 1.00D-01 BMatC= 2.85D-04 BMatP= 8.27D-03
 IDIUse=3 WtCom= 9.94D-01 WtEn= 5.84D-03
 Coeff-Com: -0.250D-01 0.431D-01 0.119D+00 0.241D+00 0.622D+00
 Coeff-En:   0.000D+00 0.000D+00 0.000D+00 0.000D+00 0.100D+01
 Coeff:     -0.249D-01 0.429D-01 0.119D+00 0.239D+00 0.624D+00
 Gap=     0.280 Goal=   None    Shift=    0.000
 RMSDP=2.55D-05 MaxDP=2.03D-03 DE=-6.73D-03 OVMax= 2.98D-03

 Failed to achieve initial convergence to 1.0D-08 in  6 cycles.
 Switch to full accuracy anyway.
 Cycle   6  Pass 1  IDiag  1:
 E= -2048.74151775694     Delta-E=       -0.000321941218 Rises=F Damp=F
 DIIS: error= 2.93D-04 at cycle   1 NSaved=   1.
 NSaved= 1 IEnMin= 1 EnMin= -2048.74151775694     IErMin= 1 ErrMin= 2.93D-04
 ErrMax= 2.93D-04  0.00D+00 EMaxC= 1.00D-01 BMatC= 7.79D-05 BMatP= 7.79D-05
 IDIUse=3 WtCom= 9.97D-01 WtEn= 2.93D-03
 Coeff-Com:  0.100D+01
 Coeff-En:   0.100D+01
 Coeff:      0.100D+01
 Gap=     0.281 Goal=   None    Shift=    0.000
 RMSDP=2.55D-05 MaxDP=2.03D-03 DE=-3.22D-04 OVMax= 2.03D-03

 Cycle   7  Pass 1  IDiag  1:
 RMSU=  1.22D-04    CP:  1.00D+00
 E= -2048.74157661931     Delta-E=       -0.000058862374 Rises=F Damp=F
 DIIS: error= 2.77D-04 at cycle   2 NSaved=   2.
 NSaved= 2 IEnMin= 2 EnMin= -2048.74157661931     IErMin= 2 ErrMin= 2.77D-04
 ErrMax= 2.77D-04  0.00D+00 EMaxC= 1.00D-01 BMatC= 4.58D-05 BMatP= 7.79D-05
 IDIUse=3 WtCom= 9.97D-01 WtEn= 2.77D-03
 Coeff-Com:  0.411D+00 0.589D+00
 Coeff-En:   0.000D+00 0.100D+01
 Coeff:      0.409D+00 0.591D+00
 Gap=     0.281 Goal=   None    Shift=    0.000
 RMSDP=1.15D-05 MaxDP=1.26D-03 DE=-5.89D-05 OVMax= 1.39D-03

 Cycle   8  Pass 1  IDiag  1:
 RMSU=  1.11D-05    CP:  1.00D+00  1.03D+00
 E= -2048.74160885336     Delta-E=       -0.000032234047 Rises=F Damp=F
 DIIS: error= 1.34D-04 at cycle   3 NSaved=   3.
 NSaved= 3 IEnMin= 3 EnMin= -2048.74160885336     IErMin= 3 ErrMin= 1.34D-04
 ErrMax= 1.34D-04  0.00D+00 EMaxC= 1.00D-01 BMatC= 1.09D-05 BMatP= 4.58D-05
 IDIUse=3 WtCom= 9.99D-01 WtEn= 1.34D-03
 Coeff-Com: -0.202D-01 0.315D+00 0.705D+00
 Coeff-En:   0.000D+00 0.138D+00 0.862D+00
 Coeff:     -0.201D-01 0.315D+00 0.705D+00
 Gap=     0.281 Goal=   None    Shift=    0.000
 RMSDP=5.83D-06 MaxDP=5.21D-04 DE=-3.22D-05 OVMax= 5.48D-04

 Cycle   9  Pass 1  IDiag  1:
 RMSU=  3.90D-06    CP:  1.00D+00  1.05D+00  7.60D-01
 E= -2048.74161874814     Delta-E=       -0.000009894778 Rises=F Damp=F
 DIIS: error= 2.95D-05 at cycle   4 NSaved=   4.
 NSaved= 4 IEnMin= 4 EnMin= -2048.74161874814     IErMin= 4 ErrMin= 2.95D-05
 ErrMax= 2.95D-05  0.00D+00 EMaxC= 1.00D-01 BMatC= 5.05D-07 BMatP= 1.09D-05
 IDIUse=1 WtCom= 1.00D+00 WtEn= 0.00D+00
 Coeff-Com: -0.304D-01 0.876D-01 0.258D+00 0.684D+00
 Coeff:     -0.304D-01 0.876D-01 0.258D+00 0.684D+00
 Gap=     0.281 Goal=   None    Shift=    0.000
 RMSDP=1.47D-06 MaxDP=1.39D-04 DE=-9.89D-06 OVMax= 3.69D-04

 Cycle  10  Pass 1  IDiag  1:
 RMSU=  1.30D-06    CP:  1.00D+00  1.06D+00  7.93D-01  1.11D+00
 E= -2048.74161960325     Delta-E=       -0.000000855111 Rises=F Damp=F
 DIIS: error= 1.11D-05 at cycle   5 NSaved=   5.
 NSaved= 5 IEnMin= 5 EnMin= -2048.74161960325     IErMin= 5 ErrMin= 1.11D-05
 ErrMax= 1.11D-05  0.00D+00 EMaxC= 1.00D-01 BMatC= 1.23D-07 BMatP= 5.05D-07
 IDIUse=1 WtCom= 1.00D+00 WtEn= 0.00D+00
 Coeff-Com: -0.239D-02-0.566D-01-0.124D+00 0.200D+00 0.983D+00
 Coeff:     -0.239D-02-0.566D-01-0.124D+00 0.200D+00 0.983D+00
 Gap=     0.281 Goal=   None    Shift=    0.000
 RMSDP=1.25D-06 MaxDP=8.10D-05 DE=-8.55D-07 OVMax= 2.25D-04

 Cycle  11  Pass 1  IDiag  1:
 RMSU=  5.28D-07    CP:  1.00D+00  1.06D+00  8.03D-01  1.40D+00  1.18D+00
 E= -2048.74161987640     Delta-E=       -0.000000273147 Rises=F Damp=F
 DIIS: error= 6.73D-06 at cycle   6 NSaved=   6.
 NSaved= 6 IEnMin= 6 EnMin= -2048.74161987640     IErMin= 6 ErrMin= 6.73D-06
 ErrMax= 6.73D-06  0.00D+00 EMaxC= 1.00D-01 BMatC= 3.03D-08 BMatP= 1.23D-07
 IDIUse=1 WtCom= 1.00D+00 WtEn= 0.00D+00
 Coeff-Com:  0.499D-02-0.467D-01-0.118D+00-0.591D-02 0.530D+00 0.635D+00
 Coeff:      0.499D-02-0.467D-01-0.118D+00-0.591D-02 0.530D+00 0.635D+00
 Gap=     0.281 Goal=   None    Shift=    0.000
 RMSDP=3.99D-07 MaxDP=3.81D-05 DE=-2.73D-07 OVMax= 1.05D-04

 Cycle  12  Pass 1  IDiag  1:
 RMSU=  1.99D-07    CP:  1.00D+00  1.06D+00  8.04D-01  1.47D+00  1.32D+00
                    CP:  9.29D-01
 E= -2048.74161992165     Delta-E=       -0.000000045257 Rises=F Damp=F
 DIIS: error= 1.21D-06 at cycle   7 NSaved=   7.
 NSaved= 7 IEnMin= 7 EnMin= -2048.74161992165     IErMin= 7 ErrMin= 1.21D-06
 ErrMax= 1.21D-06  0.00D+00 EMaxC= 1.00D-01 BMatC= 9.88D-10 BMatP= 3.03D-08
 IDIUse=1 WtCom= 1.00D+00 WtEn= 0.00D+00
 Coeff-Com:  0.125D-02-0.822D-02-0.223D-01-0.800D-02 0.648D-01 0.154D+00
 Coeff-Com:  0.819D+00
 Coeff:      0.125D-02-0.822D-02-0.223D-01-0.800D-02 0.648D-01 0.154D+00
 Coeff:      0.819D+00
 Gap=     0.281 Goal=   None    Shift=    0.000
 RMSDP=9.13D-08 MaxDP=5.83D-06 DE=-4.53D-08 OVMax= 2.15D-05

 Cycle  13  Pass 1  IDiag  1:
 RMSU=  5.52D-08    CP:  1.00D+00  1.06D+00  8.04D-01  1.48D+00  1.34D+00
                    CP:  1.02D+00  1.13D+00
 E= -2048.74161992338     Delta-E=       -0.000000001725 Rises=F Damp=F
 DIIS: error= 6.12D-07 at cycle   8 NSaved=   8.
 NSaved= 8 IEnMin= 8 EnMin= -2048.74161992338     IErMin= 8 ErrMin= 6.12D-07
 ErrMax= 6.12D-07  0.00D+00 EMaxC= 1.00D-01 BMatC= 3.98D-10 BMatP= 9.88D-10
 IDIUse=1 WtCom= 1.00D+00 WtEn= 0.00D+00
 Coeff-Com: -0.792D-03 0.919D-02 0.221D-01-0.101D-02-0.121D+00-0.976D-01
 Coeff-Com:  0.424D+00 0.765D+00
 Coeff:     -0.792D-03 0.919D-02 0.221D-01-0.101D-02-0.121D+00-0.976D-01
 Coeff:      0.424D+00 0.765D+00
 Gap=     0.281 Goal=   None    Shift=    0.000
 RMSDP=5.52D-08 MaxDP=3.21D-06 DE=-1.73D-09 OVMax= 1.23D-05

 Cycle  14  Pass 1  IDiag  1:
 RMSU=  3.11D-08    CP:  1.00D+00  1.06D+00  8.03D-01  1.49D+00  1.35D+00
                    CP:  1.07D+00  1.29D+00  1.08D+00
 E= -2048.74161992442     Delta-E=       -0.000000001040 Rises=F Damp=F
 DIIS: error= 2.27D-07 at cycle   9 NSaved=   9.
 NSaved= 9 IEnMin= 9 EnMin= -2048.74161992442     IErMin= 9 ErrMin= 2.27D-07
 ErrMax= 2.27D-07  0.00D+00 EMaxC= 1.00D-01 BMatC= 4.39D-11 BMatP= 3.98D-10
 IDIUse=1 WtCom= 1.00D+00 WtEn= 0.00D+00
 Coeff-Com: -0.510D-03 0.523D-02 0.129D-01 0.101D-02-0.624D-01-0.620D-01
 Coeff-Com:  0.940D-01 0.333D+00 0.678D+00
 Coeff:     -0.510D-03 0.523D-02 0.129D-01 0.101D-02-0.624D-01-0.620D-01
 Coeff:      0.940D-01 0.333D+00 0.678D+00
 Gap=     0.281 Goal=   None    Shift=    0.000
 RMSDP=1.53D-08 MaxDP=9.76D-07 DE=-1.04D-09 OVMax= 3.30D-06

 Cycle  15  Pass 1  IDiag  1:
 RMSU=  1.01D-08    CP:  1.00D+00  1.06D+00  8.03D-01  1.49D+00  1.35D+00
                    CP:  1.08D+00  1.31D+00  1.23D+00  1.09D+00
 E= -2048.74161992457     Delta-E=       -0.000000000154 Rises=F Damp=F
 DIIS: error= 7.14D-08 at cycle  10 NSaved=  10.
 NSaved=10 IEnMin=10 EnMin= -2048.74161992457     IErMin=10 ErrMin= 7.14D-08
 ErrMax= 7.14D-08  0.00D+00 EMaxC= 1.00D-01 BMatC= 5.71D-12 BMatP= 4.39D-11
 IDIUse=1 WtCom= 1.00D+00 WtEn= 0.00D+00
 Coeff-Com:  0.557D-05-0.313D-03-0.603D-03 0.148D-03 0.540D-02 0.116D-02
 Coeff-Com: -0.551D-01-0.552D-01 0.233D+00 0.871D+00
 Coeff:      0.557D-05-0.313D-03-0.603D-03 0.148D-03 0.540D-02 0.116D-02
 Coeff:     -0.551D-01-0.552D-01 0.233D+00 0.871D+00
 Gap=     0.281 Goal=   None    Shift=    0.000
 RMSDP=7.75D-09 MaxDP=4.78D-07 DE=-1.54D-10 OVMax= 1.80D-06

 SCF Done:  E(RwB97XD) =  -2048.74161992     A.U. after   15 cycles
            NFock= 15  Conv=0.77D-08     -V/T= 2.0054
 KE= 2.037732699931D+03 PE=-1.573986900691D+04 EE= 6.173815829028D+03
 Leave Link  502 at Mon Jan 22 06:52:40 2018, MaxMem=  4294967296 cpu:           20446.4 elap:             661.0
 (Enter /share/apps/g16/l601.exe)
 Copying SCF densities to generalized density rwf, IOpCl= 0 IROHF=0.

 **********************************************************************

            Population analysis using the SCF density.

 **********************************************************************

 Orbital symmetries:
       Occupied  (A) (A) (A) (A) (A) (A) (A) (A) (A) (A) (A) (A)
                 (A) (A) (A) (A) (A) (A) (A) (A) (A) (A) (A) (A)
                 (A) (A) (A) (A) (A) (A) (A) (A) (A) (A) (A) (A)
                 (A) (A) (A) (A) (A) (A) (A) (A) (A) (A) (A) (A)
                 (A) (A) (A) (A) (A) (A) (A) (A) (A) (A) (A) (A)
                 (A) (A) (A) (A) (A) (A) (A) (A) (A) (A) (A) (A)
                 (A) (A) (A) (A) (A) (A) (A) (A) (A) (A) (A) (A)
                 (A) (A) (A) (A) (A) (A) (A) (A) (A) (A) (A) (A)
                 (A) (A) (A) (A) (A) (A) (A) (A) (A) (A) (A) (A)
                 (A) (A) (A) (A) (A) (A) (A) (A) (A) (A) (A) (A)
                 (A) (A) (A) (A) (A) (A) (A) (A) (A) (A) (A) (A)
                 (A) (A) (A) (A) (A) (A) (A) (A) (A) (A) (A) (A)
                 (A) (A) (A) (A) (A) (A) (A) (A) (A) (A)
       Virtual   (A) (A) (A) (A) (A) (A) (A) (A) (A) (A) (A) (A)
                 (A) (A) (A) (A) (A) (A) (A) (A) (A) (A) (A) (A)
                 (A) (A) (A) (A) (A) (A) (A) (A) (A) (A) (A) (A)
                 (A) (A) (A) (A) (A) (A) (A) (A) (A) (A) (A) (A)
                 (A) (A) (A) (A) (A) (A) (A) (A) (A) (A) (A) (A)
                 (A) (A) (A) (A) (A) (A) (A) (A) (A) (A) (A) (A)
                 (A) (A) (A) (A) (A) (A) (A) (A) (A) (A) (A) (A)
                 (A) (A) (A) (A) (A) (A) (A) (A) (A) (A) (A) (A)
                 (A) (A) (A) (A) (A) (A) (A) (A) (A) (A) (A) (A)
                 (A) (A) (A) (A) (A) (A) (A) (A) (A) (A) (A) (A)
                 (A) (A) (A) (A) (A) (A) (A) (A) (A) (A) (A) (A)
                 (A) (A) (A) (A) (A) (A) (A) (A) (A) (A) (A) (A)
                 (A) (A) (A) (A) (A) (A) (A) (A) (A) (A) (A) (A)
                 (A) (A) (A) (A) (A) (A) (A) (A) (A) (A) (A) (A)
                 (A) (A) (A) (A) (A) (A) (A) (A) (A) (A) (A) (A)
                 (A) (A) (A) (A) (A) (A) (A) (A) (A) (A) (A) (A)
                 (A) (A) (A) (A) (A) (A) (A) (A) (A) (A) (A) (A)
                 (A) (A) (A) (A) (A) (A) (A) (A) (A) (A) (A) (A)
                 (A) (A) (A) (A) (A) (A) (A) (A) (A) (A) (A) (A)
                 (A) (A) (A) (A) (A) (A) (A) (A) (A) (A) (A) (A)
                 (A) (A) (A) (A) (A) (A) (A) (A) (A) (A) (A) (A)
                 (A) (A) (A) (A) (A) (A) (A) (A) (A) (A) (A) (A)
                 (A) (A) (A) (A) (A) (A) (A) (A) (A) (A) (A) (A)
                 (A) (A) (A) (A) (A) (A) (A) (A) (A) (A) (A) (A)
                 (A) (A) (A) (A) (A) (A) (A) (A) (A) (A) (A) (A)
                 (A) (A) (A) (A) (A) (A) (A) (A) (A) (A) (A) (A)
                 (A) (A) (A) (A) (A) (A) (A) (A) (A) (A) (A) (A)
                 (A) (A) (A) (A) (A) (A) (A) (A) (A) (A) (A) (A)
                 (A) (A) (A) (A) (A) (A) (A) (A) (A) (A) (A) (A)
                 (A) (A) (A) (A) (A) (A) (A) (A) (A) (A) (A) (A)
                 (A) (A) (A) (A) (A) (A) (A) (A) (A) (A) (A) (A)
                 (A) (A) (A) (A) (A) (A) (A) (A) (A) (A) (A) (A)
                 (A) (A) (A) (A) (A) (A) (A) (A) (A) (A) (A) (A)
                 (A) (A) (A) (A) (A) (A) (A) (A) (A) (A) (A) (A)
                 (A) (A) (A) (A) (A) (A) (A) (A) (A) (A) (A) (A)
                 (A) (A) (A) (A) (A) (A) (A) (A) (A) (A) (A) (A)
                 (A) (A) (A) (A) (A) (A) (A) (A) (A) (A) (A) (A)
                 (A) (A) (A) (A) (A) (A) (A) (A) (A) (A) (A) (A)
                 (A) (A) (A) (A) (A) (A) (A) (A) (A) (A) (A) (A)
                 (A) (A) (A) (A) (A) (A) (A) (A) (A) (A) (A) (A)
                 (A) (A) (A) (A) (A) (A) (A) (A) (A) (A) (A) (A)
                 (A) (A) (A) (A) (A) (A) (A) (A) (A) (A) (A) (A)
                 (A) (A) (A) (A) (A) (A) (A) (A) (A) (A) (A) (A)
                 (A) (A) (A) (A) (A) (A) (A) (A) (A) (A) (A) (A)
                 (A) (A) (A) (A) (A) (A) (A) (A) (A) (A) (A) (A)
                 (A) (A) (A) (A) (A) (A) (A) (A) (A) (A) (A) (A)
                 (A) (A) (A) (A) (A) (A) (A) (A) (A) (A) (A) (A)
                 (A) (A) (A) (A) (A) (A) (A) (A) (A) (A) (A) (A)
                 (A) (A) (A) (A) (A) (A) (A)
 The electronic state is 1-A.
 Alpha  occ. eigenvalues --  -19.25844 -19.22447 -19.20731 -14.52447 -14.52339
 Alpha  occ. eigenvalues --  -14.48983 -14.48154 -14.47937 -14.47841 -14.47030
 Alpha  occ. eigenvalues --  -14.46821 -14.45415 -14.44173 -14.44095 -14.42161
 Alpha  occ. eigenvalues --  -14.41874 -14.41172 -14.40664 -14.40589 -14.40002
 Alpha  occ. eigenvalues --  -10.45427 -10.41398 -10.40374 -10.39795 -10.38367
 Alpha  occ. eigenvalues --  -10.37900 -10.37554 -10.37058 -10.35643 -10.35045
 Alpha  occ. eigenvalues --  -10.34997 -10.34542 -10.33762 -10.33607 -10.33436
 Alpha  occ. eigenvalues --  -10.32851 -10.32765 -10.32568 -10.31118 -10.31073
 Alpha  occ. eigenvalues --  -10.30656 -10.28305 -10.27993  -1.19409  -1.15089
 Alpha  occ. eigenvalues --   -1.13378  -1.13337  -1.10775  -1.10717  -1.09437
 Alpha  occ. eigenvalues --   -1.09094  -1.08708  -1.04741  -1.04649  -1.02544
 Alpha  occ. eigenvalues --   -1.00895  -1.00034  -0.99891  -0.98704  -0.96790
 Alpha  occ. eigenvalues --   -0.96781  -0.96343  -0.92344  -0.91072  -0.87503
 Alpha  occ. eigenvalues --   -0.85780  -0.84307  -0.83556  -0.83450  -0.82676
 Alpha  occ. eigenvalues --   -0.81875  -0.78919  -0.76939  -0.74809  -0.74704
 Alpha  occ. eigenvalues --   -0.73796  -0.73400  -0.72455  -0.70634  -0.70304
 Alpha  occ. eigenvalues --   -0.67557  -0.66831  -0.66447  -0.65851  -0.64649
 Alpha  occ. eigenvalues --   -0.64191  -0.63826  -0.62794  -0.62284  -0.61941
 Alpha  occ. eigenvalues --   -0.60608  -0.60332  -0.60137  -0.59448  -0.59258
 Alpha  occ. eigenvalues --   -0.59098  -0.58525  -0.56808  -0.56184  -0.56047
 Alpha  occ. eigenvalues --   -0.55907  -0.55241  -0.54984  -0.54443  -0.53984
 Alpha  occ. eigenvalues --   -0.53797  -0.53729  -0.53537  -0.53431  -0.53145
 Alpha  occ. eigenvalues --   -0.52677  -0.52412  -0.51369  -0.50393  -0.50310
 Alpha  occ. eigenvalues --   -0.49962  -0.49647  -0.49563  -0.49104  -0.49040
 Alpha  occ. eigenvalues --   -0.48706  -0.48588  -0.48369  -0.47851  -0.47479
 Alpha  occ. eigenvalues --   -0.46538  -0.45919  -0.45402  -0.44431  -0.43173
 Alpha  occ. eigenvalues --   -0.40687  -0.40592  -0.39443  -0.37808  -0.37486
 Alpha  occ. eigenvalues --   -0.37442  -0.37416  -0.36675  -0.36109  -0.34564
 Alpha  occ. eigenvalues --   -0.34279  -0.34010  -0.33556  -0.33039  -0.32942
 Alpha  occ. eigenvalues --   -0.32855  -0.32672  -0.32542  -0.32032  -0.30463
 Alpha  occ. eigenvalues --   -0.30085  -0.29013  -0.25748  -0.25225
 Alpha virt. eigenvalues --    0.02858   0.04149   0.07002   0.08234   0.08647
 Alpha virt. eigenvalues --    0.09160   0.09589   0.10539   0.11415   0.12028
 Alpha virt. eigenvalues --    0.13038   0.14077   0.14519   0.14745   0.15005
 Alpha virt. eigenvalues --    0.15492   0.16071   0.17137   0.17656   0.18118
 Alpha virt. eigenvalues --    0.18430   0.18925   0.19598   0.20253   0.20510
 Alpha virt. eigenvalues --    0.20815   0.20893   0.21170   0.21474   0.22002
 Alpha virt. eigenvalues --    0.22187   0.22697   0.22985   0.23371   0.23625
 Alpha virt. eigenvalues --    0.23808   0.24336   0.24426   0.25106   0.25444
 Alpha virt. eigenvalues --    0.25910   0.26231   0.27440   0.27607   0.27847
 Alpha virt. eigenvalues --    0.28930   0.29126   0.29614   0.30508   0.30798
 Alpha virt. eigenvalues --    0.31454   0.31859   0.32314   0.32784   0.33139
 Alpha virt. eigenvalues --    0.33927   0.34339   0.35259   0.36010   0.36194
 Alpha virt. eigenvalues --    0.36824   0.37370   0.37795   0.38860   0.39390
 Alpha virt. eigenvalues --    0.39810   0.40414   0.40801   0.41304   0.41530
 Alpha virt. eigenvalues --    0.42051   0.42319   0.43219   0.43735   0.43894
 Alpha virt. eigenvalues --    0.44484   0.45548   0.46183   0.46603   0.46903
 Alpha virt. eigenvalues --    0.47260   0.47359   0.48159   0.48420   0.48833
 Alpha virt. eigenvalues --    0.49804   0.50257   0.50541   0.51115   0.51344
 Alpha virt. eigenvalues --    0.51472   0.51737   0.51986   0.52234   0.52866
 Alpha virt. eigenvalues --    0.53374   0.53959   0.54425   0.55086   0.55317
 Alpha virt. eigenvalues --    0.55929   0.55994   0.56491   0.57017   0.57532
 Alpha virt. eigenvalues --    0.57595   0.57976   0.59023   0.59263   0.59823
 Alpha virt. eigenvalues --    0.60019   0.60196   0.60663   0.60904   0.60942
 Alpha virt. eigenvalues --    0.61427   0.61891   0.62042   0.62687   0.63115
 Alpha virt. eigenvalues --    0.63282   0.63750   0.64480   0.64797   0.65283
 Alpha virt. eigenvalues --    0.65552   0.66087   0.66591   0.67006   0.67285
 Alpha virt. eigenvalues --    0.67689   0.68426   0.68584   0.68759   0.69081
 Alpha virt. eigenvalues --    0.70299   0.70737   0.71328   0.71510   0.71687
 Alpha virt. eigenvalues --    0.72045   0.72410   0.72796   0.72942   0.73743
 Alpha virt. eigenvalues --    0.74188   0.74524   0.74981   0.75218   0.75469
 Alpha virt. eigenvalues --    0.75797   0.76003   0.76183   0.76554   0.76897
 Alpha virt. eigenvalues --    0.77064   0.77603   0.78072   0.78469   0.78603
 Alpha virt. eigenvalues --    0.78889   0.79651   0.79968   0.80253   0.80538
 Alpha virt. eigenvalues --    0.81251   0.81630   0.81857   0.82194   0.82811
 Alpha virt. eigenvalues --    0.82930   0.83532   0.84086   0.84359   0.84849
 Alpha virt. eigenvalues --    0.85219   0.85749   0.86329   0.86612   0.87621
 Alpha virt. eigenvalues --    0.87825   0.88237   0.88450   0.89320   0.89572
 Alpha virt. eigenvalues --    0.90209   0.90524   0.90940   0.91275   0.91836
 Alpha virt. eigenvalues --    0.92343   0.92479   0.92839   0.93377   0.93883
 Alpha virt. eigenvalues --    0.94390   0.94690   0.95279   0.95561   0.96751
 Alpha virt. eigenvalues --    0.97076   0.97365   0.97738   0.98530   0.98623
 Alpha virt. eigenvalues --    0.98903   0.99500   1.00082   1.00435   1.01039
 Alpha virt. eigenvalues --    1.01075   1.01254   1.02006   1.02574   1.02787
 Alpha virt. eigenvalues --    1.03180   1.03330   1.03669   1.04266   1.04736
 Alpha virt. eigenvalues --    1.05252   1.05450   1.05715   1.06110   1.07224
 Alpha virt. eigenvalues --    1.07643   1.08407   1.09039   1.09593   1.10528
 Alpha virt. eigenvalues --    1.10832   1.11244   1.12179   1.12711   1.13270
 Alpha virt. eigenvalues --    1.13629   1.14222   1.14355   1.15050   1.15334
 Alpha virt. eigenvalues --    1.15683   1.16185   1.16501   1.16803   1.17873
 Alpha virt. eigenvalues --    1.18318   1.18562   1.18752   1.19154   1.19613
 Alpha virt. eigenvalues --    1.19782   1.20176   1.20709   1.21338   1.21599
 Alpha virt. eigenvalues --    1.21938   1.22134   1.22217   1.22732   1.23274
 Alpha virt. eigenvalues --    1.23568   1.23661   1.23847   1.24352   1.24602
 Alpha virt. eigenvalues --    1.25343   1.25531   1.25971   1.26720   1.27853
 Alpha virt. eigenvalues --    1.28321   1.28999   1.29266   1.30075   1.30329
 Alpha virt. eigenvalues --    1.31026   1.31343   1.32503   1.32895   1.33624
 Alpha virt. eigenvalues --    1.34355   1.34461   1.35847   1.36022   1.36628
 Alpha virt. eigenvalues --    1.37258   1.37602   1.37978   1.39349   1.39630
 Alpha virt. eigenvalues --    1.40331   1.40746   1.41410   1.42122   1.43649
 Alpha virt. eigenvalues --    1.44130   1.45519   1.45573   1.46297   1.46908
 Alpha virt. eigenvalues --    1.47916   1.48808   1.49299   1.49874   1.50143
 Alpha virt. eigenvalues --    1.52212   1.52722   1.53411   1.53511   1.53689
 Alpha virt. eigenvalues --    1.54077   1.55951   1.56124   1.56460   1.57457
 Alpha virt. eigenvalues --    1.57705   1.58336   1.59061   1.59499   1.60218
 Alpha virt. eigenvalues --    1.60871   1.61101   1.62103   1.62704   1.62838
 Alpha virt. eigenvalues --    1.63703   1.64571   1.64811   1.65105   1.65338
 Alpha virt. eigenvalues --    1.66551   1.67222   1.67845   1.68355   1.69074
 Alpha virt. eigenvalues --    1.69613   1.69854   1.70096   1.70934   1.71905
 Alpha virt. eigenvalues --    1.71933   1.72402   1.72725   1.73131   1.73532
 Alpha virt. eigenvalues --    1.73889   1.74385   1.74840   1.75203   1.75529
 Alpha virt. eigenvalues --    1.75821   1.75856   1.76398   1.76481   1.77077
 Alpha virt. eigenvalues --    1.77538   1.77671   1.78048   1.78273   1.78639
 Alpha virt. eigenvalues --    1.79090   1.79283   1.79922   1.80065   1.80398
 Alpha virt. eigenvalues --    1.80548   1.80958   1.81251   1.82107   1.82159
 Alpha virt. eigenvalues --    1.82291   1.82777   1.83020   1.83621   1.84101
 Alpha virt. eigenvalues --    1.85046   1.85624   1.85861   1.85961   1.86869
 Alpha virt. eigenvalues --    1.87099   1.87811   1.88364   1.88536   1.89088
 Alpha virt. eigenvalues --    1.89677   1.90202   1.90338   1.90749   1.91257
 Alpha virt. eigenvalues --    1.92103   1.92360   1.93095   1.93504   1.93978
 Alpha virt. eigenvalues --    1.95094   1.95327   1.95685   1.96854   1.97719
 Alpha virt. eigenvalues --    1.97984   1.98330   1.99505   2.00302   2.00509
 Alpha virt. eigenvalues --    2.01266   2.01643   2.02161   2.02619   2.03868
 Alpha virt. eigenvalues --    2.03979   2.04756   2.06447   2.06750   2.07089
 Alpha virt. eigenvalues --    2.07547   2.08242   2.08571   2.09166   2.09419
 Alpha virt. eigenvalues --    2.09658   2.10319   2.11308   2.11888   2.12428
 Alpha virt. eigenvalues --    2.12953   2.14346   2.16497   2.16638   2.17349
 Alpha virt. eigenvalues --    2.18059   2.18530   2.19405   2.20988   2.21408
 Alpha virt. eigenvalues --    2.21814   2.22125   2.22895   2.23401   2.23776
 Alpha virt. eigenvalues --    2.24175   2.24864   2.25451   2.26089   2.26542
 Alpha virt. eigenvalues --    2.27105   2.27776   2.28780   2.29567   2.29853
 Alpha virt. eigenvalues --    2.30169   2.30564   2.30930   2.31625   2.32042
 Alpha virt. eigenvalues --    2.32389   2.33151   2.33346   2.33662   2.34009
 Alpha virt. eigenvalues --    2.34283   2.34927   2.35513   2.35885   2.36905
 Alpha virt. eigenvalues --    2.37846   2.38819   2.39843   2.40245   2.40831
 Alpha virt. eigenvalues --    2.41387   2.42278   2.43016   2.43890   2.44205
 Alpha virt. eigenvalues --    2.44574   2.44620   2.45492   2.46564   2.46705
 Alpha virt. eigenvalues --    2.47834   2.48200   2.49570   2.50290   2.51294
 Alpha virt. eigenvalues --    2.52073   2.52875   2.54355   2.54949   2.55702
 Alpha virt. eigenvalues --    2.56067   2.57281   2.58441   2.58847   2.59644
 Alpha virt. eigenvalues --    2.60732   2.61487   2.62201   2.62488   2.63552
 Alpha virt. eigenvalues --    2.64268   2.64718   2.64978   2.65227   2.66016
 Alpha virt. eigenvalues --    2.66483   2.66956   2.67956   2.68123   2.68843
 Alpha virt. eigenvalues --    2.69522   2.70269   2.70641   2.70844   2.72140
 Alpha virt. eigenvalues --    2.72694   2.74358   2.75633   2.75900   2.76136
 Alpha virt. eigenvalues --    2.77065   2.77498   2.78312   2.79059   2.79170
 Alpha virt. eigenvalues --    2.79245   2.80207   2.80293   2.80708   2.81288
 Alpha virt. eigenvalues --    2.81719   2.81951   2.82378   2.83277   2.83760
 Alpha virt. eigenvalues --    2.84348   2.85029   2.85903   2.86166   2.86660
 Alpha virt. eigenvalues --    2.87503   2.87872   2.88632   2.90551   2.93101
 Alpha virt. eigenvalues --    2.93628   2.94935   2.95849   2.96101   2.98381
 Alpha virt. eigenvalues --    3.00199   3.00844   3.01242   3.04355   3.05396
 Alpha virt. eigenvalues --    3.05828   3.09799   3.10912   3.12610   3.14564
 Alpha virt. eigenvalues --    3.15605   3.15751   3.15957   3.17190   3.20700
 Alpha virt. eigenvalues --    3.20972   3.22211   3.23364   3.24456   3.25537
 Alpha virt. eigenvalues --    3.44927   3.47119   3.47434   3.49203   3.50421
 Alpha virt. eigenvalues --    3.53452   3.54245   3.55856   3.57466   3.59697
 Alpha virt. eigenvalues --    3.62406   3.70615   3.74700
          Condensed to atoms (all electrons):
 Mulliken charges:
               1
     1  N   -0.310605
     2  C    0.180547
     3  C    0.058613
     4  N   -0.255210
     5  C    0.141692
     6  H    0.025039
     7  N   -0.297762
     8  C    0.133172
     9  H    0.009707
    10  N   -0.290170
    11  C    0.246005
    12  C    0.094370
    13  N   -0.051407
    14  H    0.115825
    15  H    0.083340
    16  H    0.024512
    17  H    0.030673
    18  H    0.022613
    19  N   -0.309522
    20  C    0.258387
    21  C    0.181354
    22  N   -0.123245
    23  H    0.117493
    24  H    0.118431
    25  N   -0.311935
    26  C    0.249006
    27  N   -0.149262
    28  H    0.119644
    29  C    0.194806
    30  O   -0.321956
    31  C   -0.016556
    32  N   -0.223988
    33  C    0.124663
    34  H    0.020570
    35  H    0.028932
    36  H    0.029845
    37  H    0.024145
    38  H    0.062787
    39  H    0.059671
    40  H    0.073836
    41  H    0.023040
    42  C   -0.114641
    43  O   -0.269538
    44  C    0.157467
    45  H    0.130253
    46  N   -0.109585
    47  O   -0.345155
    48  C    0.338345
    49  H    0.045483
    50  C    0.170155
    51  C    0.039087
    52  N   -0.275211
    53  H    0.033992
    54  H    0.041686
    55  H    0.027185
    56  H    0.125506
    57  H    0.113269
    58  N   -0.043268
    59  C    0.081817
    60  C    0.242789
    61  N   -0.272700
    62  H    0.033703
    63  C    0.169342
    64  N   -0.309555
    65  H    0.036630
    66  C    0.130134
    67  N   -0.261865
    68  C    0.019480
    69  C    0.181212
    70  N   -0.307120
 Sum of Mulliken charges =  -0.00000
 Mulliken charges with hydrogens summed into heavy atoms:
               1
     1  N   -0.310605
     2  C    0.258345
     3  C    0.058613
     4  N   -0.255210
     5  C    0.166732
     7  N   -0.297762
     8  C    0.142879
    10  N   -0.290170
    11  C    0.246005
    12  C    0.094370
    13  N    0.147758
    19  N   -0.309522
    20  C    0.258387
    21  C    0.264276
    22  N    0.112680
    25  N   -0.311935
    26  C    0.249006
    27  N   -0.029617
    29  C    0.194806
    30  O   -0.321956
    31  C   -0.016556
    32  N   -0.223988
    33  C    0.145234
    42  C   -0.091601
    43  O   -0.269538
    44  C    0.157467
    46  N    0.020669
    47  O   -0.345155
    48  C    0.338345
    50  C    0.215638
    51  C    0.235382
    52  N   -0.275211
    58  N    0.195507
    59  C    0.081817
    60  C    0.242789
    61  N   -0.272700
    63  C    0.203045
    64  N   -0.309555
    66  C    0.166764
    67  N   -0.261865
    68  C    0.019480
    69  C    0.284074
    70  N   -0.307120
 Electronic spatial extent (au):  <R**2>=          22378.5457
 Charge=             -0.0000 electrons
 Dipole moment (field-independent basis, Debye):
    X=              7.2981    Y=              7.0554    Z=              1.8449  Tot=             10.3173
 Quadrupole moment (field-independent basis, Debye-Ang):
   XX=           -152.6317   YY=           -221.7857   ZZ=           -253.9707
   XY=              3.0614   XZ=             -5.3409   YZ=             -1.9933
 Traceless Quadrupole moment (field-independent basis, Debye-Ang):
   XX=             56.8310   YY=            -12.3230   ZZ=            -44.5080
   XY=              3.0614   XZ=             -5.3409   YZ=             -1.9933
 Octapole moment (field-independent basis, Debye-Ang**2):
  XXX=            -89.9050  YYY=            107.0188  ZZZ=             11.3103  XYY=             45.2301
  XXY=             80.2481  XXZ=             26.1888  XZZ=             86.0745  YZZ=             49.2495
  YYZ=             38.7034  XYZ=             71.7401
 Hexadecapole moment (field-independent basis, Debye-Ang**3):
 XXXX=         -15646.1806 YYYY=          -5134.0538 ZZZZ=          -4200.4537 XXXY=            529.2845
 XXXZ=            -38.3869 YYYX=            -84.4232 YYYZ=             20.1196 ZZZX=             88.8009
 ZZZY=             45.1945 XXYY=          -3426.3469 XXZZ=          -3716.5528 YYZZ=          -1655.0518
 XXYZ=            179.9746 YYXZ=             63.5840 ZZXY=            143.3060
 N-N= 5.479578858022D+03 E-N=-1.573986900900D+04  KE= 2.037732699931D+03
 No NMR shielding tensors so no spin-rotation constants.
 Leave Link  601 at Mon Jan 22 06:52:42 2018, MaxMem=  4294967296 cpu:              45.7 elap:               1.6
 (Enter /share/apps/g16/l9999.exe)
 1\1\GINC-COMPUTE-0-3\SP\RwB97XD\CC-pVDZ\C23H27N17O3\SATYA\22-Jan-2018\
 0\\#p wb97xd/cc-pvdz sp scf=(maxcycles=20)\\Base pair stacking\\0,1\N,
 0,5.25421,1.17018,-5.40163\C,0,6.04878,2.40408,-5.55702\C,0,3.65099,-0
 .33123,-5.51466\N,0,4.6743,-0.91083,-4.7787\C,0,5.59922,0.01692,-4.740
 06\H,0,6.56155,-0.08755,-4.23812\N,0,1.60919,0.02845,-6.63922\C,0,2.07
 75,1.24374,-6.94146\H,0,1.40601,1.8678,-7.5296\N,0,3.24525,1.80126,-6.
 62773\C,0,3.99394,0.95141,-5.90548\C,0,2.38645,-0.80292,-5.91138\N,0,1
 .92074,-2.01645,-5.60867\H,0,2.46181,-2.66482,-5.07194\H,0,1.01561,-2.
 3187,-5.90789\H,0,6.90484,2.19364,-6.02931\H,0,5.52967,3.07065,-6.0911
 7\H,0,6.25263,2.78741,-4.65618\N,0,1.76318,3.70926,-3.23949\C,0,0.7709
 9,2.77356,-3.40704\C,0,1.62056,5.15826,-3.48602\N,0,-2.49469,1.97562,-
 4.27906\H,0,-3.06377,1.15573,-4.33537\H,0,-2.92358,2.84376,-4.53026\N,
 0,-0.49077,3.01867,-3.8217\C,0,-1.21386,1.91467,-3.88451\N,0,-0.73948,
 0.66525,-3.56604\H,0,-1.36392,-0.12281,-3.64351\C,0,0.55512,0.38965,-3
 .13719\O,0,0.8823,-0.77439,-2.87507\C,0,1.34385,1.56589,-3.06475\N,0,2
 .66902,1.73991,-2.68985\C,0,2.87285,3.02386,-2.8088\H,0,3.81737,3.5251
 2,-2.59458\H,0,2.26947,5.44365,-4.19048\H,0,0.68989,5.35184,-3.79367\H
 ,0,1.80278,5.66121,-2.64184\H,0,-4.7691,-3.70055,-4.85069\H,0,-5.09698
 ,-3.67839,-3.11961\H,0,-4.58105,-2.20319,-3.9375\H,0,-1.04883,-6.27642
 ,-3.21634\C,0,-1.36271,-5.23507,-3.28912\O,0,0.80619,-4.36142,-2.8895\
 C,0,-0.39193,-4.19762,-3.11853\H,0,-0.23819,-2.15686,-3.11553\N,0,-0.8
 9409,-2.91674,-3.23004\O,0,-2.54412,-1.39216,-3.56207\C,0,-2.19442,-2.
 55654,-3.48094\H,0,-3.41525,-5.66638,-3.67237\C,0,-2.6386,-4.9152,-3.5
 3488\C,0,-4.47154,-3.27694,-3.90302\N,0,-3.07077,-3.61294,-3.6334\H,0,
 -5.55192,-1.85177,-9.44377\H,0,-4.88862,-0.77797,-8.40981\H,0,-6.21493
 ,-1.6217,-7.97037\H,0,-0.10315,-5.08522,-5.58097\H,0,-1.50359,-5.92184
 ,-6.07991\N,0,-1.01286,-5.05395,-5.99521\C,0,-1.54868,-3.90644,-6.4162
 8\C,0,-3.24227,-2.5489,-7.39125\N,0,-2.56021,-1.39858,-7.26476\H,0,-0.
 75524,-0.73416,-6.55678\C,0,-1.37581,-1.61812,-6.69738\N,0,-0.83734,-2
 .76667,-6.27495\H,0,-5.70145,-4.48815,-8.19368\C,0,-4.76151,-4.06603,-
 7.83693\N,0,-3.79228,-4.7598,-7.292\C,0,-2.82278,-3.80991,-7.00473\C,0
 ,-5.35659,-1.65824,-8.48232\N,0,-4.49597,-2.72146,-7.92832\\Version=EM
 64L-G16RevA.03\State=1-A\HF=-2048.7416199\RMSD=7.749e-09\Dipole=-3.900
 1102,0.3410104,-1.0720708\Quadrupole=22.3305981,9.8820143,-32.2126123,
 24.786198,4.9452278,7.0321242\PG=C01 [X(C23H27N17O3)]\\@


    THE DOUGHNUT CREED
 AS YOU RAMBLE ON THROUGH LIFE, BROTHER
 WHATEVER BE YOUR GOAL
 KEEP YOUR EYE UPON THE DOUGHNUT
 AND NOT UPON THE HOLE.
 Job cpu time:       0 days  5 hours 50 minutes 52.8 seconds.
 Elapsed time:       0 days  0 hours 11 minutes 20.3 seconds.
 File lengths (MBytes):  RWF=    298 Int=      0 D2E=      0 Chk=     33 Scr=      1
 Normal termination of Gaussian 16 at Mon Jan 22 06:52:42 2018.
