 Entering Gaussian System, Link 0=g16
 Input=str35.-5.-2.0.com
 Output=str35.-5.-2.0.log
 Initial command:
 /share/apps/g16/l1.exe "/state/partition1/scr/Gau-11912.inp" -scrdir="/state/partition1/scr/"
 Entering Link 1 = /share/apps/g16/l1.exe PID=     11913.
  
 Copyright (c) 1988,1990,1992,1993,1995,1998,2003,2009,2016,
            Gaussian, Inc.  All Rights Reserved.
  
 This is part of the Gaussian(R) 16 program.  It is based on
 the Gaussian(R) 09 system (copyright 2009, Gaussian, Inc.),
 the Gaussian(R) 03 system (copyright 2003, Gaussian, Inc.),
 the Gaussian(R) 98 system (copyright 1998, Gaussian, Inc.),
 the Gaussian(R) 94 system (copyright 1995, Gaussian, Inc.),
 the Gaussian 92(TM) system (copyright 1992, Gaussian, Inc.),
 the Gaussian 90(TM) system (copyright 1990, Gaussian, Inc.),
 the Gaussian 88(TM) system (copyright 1988, Gaussian, Inc.),
 the Gaussian 86(TM) system (copyright 1986, Carnegie Mellon
 University), and the Gaussian 82(TM) system (copyright 1983,
 Carnegie Mellon University). Gaussian is a federally registered
 trademark of Gaussian, Inc.
  
 This software contains proprietary and confidential information,
 including trade secrets, belonging to Gaussian, Inc.
  
 This software is provided under written license and may be
 used, copied, transmitted, or stored only in accord with that
 written license.
  
 The following legend is applicable only to US Government
 contracts under FAR:
  
                    RESTRICTED RIGHTS LEGEND
  
 Use, reproduction and disclosure by the US Government is
 subject to restrictions as set forth in subparagraphs (a)
 and (c) of the Commercial Computer Software - Restricted
 Rights clause in FAR 52.227-19.
  
 Gaussian, Inc.
 340 Quinnipiac St., Bldg. 40, Wallingford CT 06492
  
  
 ---------------------------------------------------------------
 Warning -- This program may not be used in any manner that
 competes with the business of Gaussian, Inc. or will provide
 assistance to any competitor of Gaussian, Inc.  The licensee
 of this program is prohibited from giving any competitor of
 Gaussian, Inc. access to this program.  By using this program,
 the user acknowledges that Gaussian, Inc. is engaged in the
 business of creating and licensing software in the field of
 computational chemistry and represents and warrants to the
 licensee that it is not a competitor of Gaussian, Inc. and that
 it will not use this program in any manner prohibited above.
 ---------------------------------------------------------------
  

 Cite this work as:
 Gaussian 16, Revision A.03,
 M. J. Frisch, G. W. Trucks, H. B. Schlegel, G. E. Scuseria, 
 M. A. Robb, J. R. Cheeseman, G. Scalmani, V. Barone, 
 G. A. Petersson, H. Nakatsuji, X. Li, M. Caricato, A. V. Marenich, 
 J. Bloino, B. G. Janesko, R. Gomperts, B. Mennucci, H. P. Hratchian, 
 J. V. Ortiz, A. F. Izmaylov, J. L. Sonnenberg, D. Williams-Young, 
 F. Ding, F. Lipparini, F. Egidi, J. Goings, B. Peng, A. Petrone, 
 T. Henderson, D. Ranasinghe, V. G. Zakrzewski, J. Gao, N. Rega, 
 G. Zheng, W. Liang, M. Hada, M. Ehara, K. Toyota, R. Fukuda, 
 J. Hasegawa, M. Ishida, T. Nakajima, Y. Honda, O. Kitao, H. Nakai, 
 T. Vreven, K. Throssell, J. A. Montgomery, Jr., J. E. Peralta, 
 F. Ogliaro, M. J. Bearpark, J. J. Heyd, E. N. Brothers, K. N. Kudin, 
 V. N. Staroverov, T. A. Keith, R. Kobayashi, J. Normand, 
 K. Raghavachari, A. P. Rendell, J. C. Burant, S. S. Iyengar, 
 J. Tomasi, M. Cossi, J. M. Millam, M. Klene, C. Adamo, R. Cammi, 
 J. W. Ochterski, R. L. Martin, K. Morokuma, O. Farkas, 
 J. B. Foresman, and D. J. Fox, Gaussian, Inc., Wallingford CT, 2016.
 
 ******************************************
 Gaussian 16:  EM64L-G16RevA.03 25-Dec-2016
                22-Jan-2018 
 ******************************************
 %nprocshared=32
 Will use up to   32 processors via shared memory.
 %mem=32GB
 %chk=allatoms_t.chk
 ---------------------------------------
 #p wb97xd/cc-pvdz sp scf=(maxcycles=20)
 ---------------------------------------
 1/38=1,172=1/1;
 2/12=2,17=6,18=5,40=1/2;
 3/5=16,11=2,25=1,30=1,74=-58/1,2,3;
 4//1;
 5/5=2,7=20,38=5/2;
 6/7=2,8=2,9=2,10=2,28=1/1;
 99/5=1,9=1/99;
 Leave Link    1 at Mon Jan 22 16:16:52 2018, MaxMem=  4294967296 cpu:               2.7 elap:               0.1
 (Enter /share/apps/g16/l101.exe)
 ------------------
 Base pair stacking
 ------------------
 Symbolic Z-matrix:
 Charge =  0 Multiplicity = 1
 N                     6.54049   6.52449  -6.92937 
 C                     7.24064   7.8214   -7.00568 
 C                     4.98736   4.97488  -6.77501 
 N                     6.19723   4.30322  -6.87413 
 C                     7.0845    5.26368  -6.96316 
 H                     8.15967   5.10783  -7.05621 
 N                     2.68654   5.45463  -6.57753 
 C                     3.02984   6.74603  -6.62232 
 H                     2.2013    7.44997  -6.55718 
 N                     4.23729   7.29584  -6.73496 
 C                     5.18298   6.34462  -6.80765 
 C                     3.66109   4.52208  -6.65298 
 N                     3.32038   3.23247  -6.60844 
 H                     4.00868   2.50811  -6.66099 
 H                     2.36604   2.94656  -6.52109 
 H                     7.74074   7.88142  -7.86966 
 H                     6.57394   8.56443  -6.95525 
 H                     7.8838    7.90066  -6.24406 
 N                     2.05962   6.577    -3.29772 
 C                     1.05389   5.64253  -3.24005 
 C                     1.86402   8.04002  -3.34263 
 N                    -2.32989   4.86861  -3.12688 
 H                    -2.89761   4.04695  -3.08429 
 H                    -2.80566   5.74841  -3.1447 
 N                    -0.27133   5.90176  -3.21492 
 C                    -0.99068   4.79497  -3.1587 
 N                    -0.45515   3.53012  -3.12927 
 H                    -1.08169   2.74109  -3.08628 
 C                     0.90535   3.23982  -3.15425 
 O                     1.28446   2.0625   -3.12379 
 C                     1.69091   4.41886  -3.21462 
 N                     3.06883   4.58183  -3.25551 
 C                     3.24026   5.87507  -3.30404 
 H                     4.21022   6.37175  -3.34586 
 H                     2.26429   8.40588  -4.18212 
 H                     0.88613   8.24412  -3.32452 
 H                     2.30609   8.46152  -2.5516 
 H                    -4.73461  -0.76874  -3.52216 
 H                    -4.50632  -0.92259  -1.7818 
 H                    -4.254     0.63556  -2.5691 
 H                    -0.7203   -3.41726  -3.39093 
 C                    -1.02917  -2.38026  -3.25874 
 O                     1.16619  -1.50672  -3.4695 
 C                    -0.04165  -1.34528  -3.29678 
 H                     0.12894   0.68806  -3.1394 
 N                    -0.53871  -0.06993  -3.11883 
 O                    -2.1923    1.44653  -2.76785 
 C                    -1.84821   0.28702  -2.9155 
 H                    -3.10375  -2.81295  -3.02486 
 C                    -2.31431  -2.06346  -3.06215 
 C                    -4.15162  -0.43401  -2.67709 
 N                    -2.74058  -0.7667   -2.89159 
 H                    -5.04225   3.81728  -6.06065 
 H                    -3.88703   4.55007  -5.17151 
 H                    -4.88459   3.46158  -4.47571 
 H                     1.36249   0.12199  -6.68484 
 H                    -0.15693  -0.65324  -6.70712 
 N                     0.37088   0.186    -6.57184 
 C                    -0.22223   1.33878  -6.25484 
 C                    -2.0787    2.74116  -5.75627 
 N                    -1.34466   3.85236  -5.58064 
 H                     0.61697   4.4428   -5.64372 
 C                    -0.05221   3.59242  -5.76743 
 N                     0.54381   2.43851  -6.08497 
 H                    -4.74304   0.91553  -5.89968 
 C                    -3.72213   1.29819  -5.91564 
 N                    -2.66035   0.57772  -6.18253 
 C                    -1.61146   1.48052  -6.08488 
 C                    -4.38993   3.69777  -5.3122 
 N                    -3.44355   2.6164   -5.64837 
 
 ITRead=  0  0  0  0  0  0  0  0  0  0  0  0  0  0  0  0  0  0  0  0
 ITRead=  0  0  0  0  0  0  0  0  0  0  0  0  0  0  0  0  0  0  0  0
 ITRead=  0  0  0  0  0  0  0  0  0  0  0  0  0  0  0  0  0  0  0  0
 ITRead=  0  0  0  0  0  0  0  0  0  0
 MicOpt= -1 -1 -1 -1 -1 -1 -1 -1 -1 -1 -1 -1 -1 -1 -1 -1 -1 -1 -1 -1
 MicOpt= -1 -1 -1 -1 -1 -1 -1 -1 -1 -1 -1 -1 -1 -1 -1 -1 -1 -1 -1 -1
 MicOpt= -1 -1 -1 -1 -1 -1 -1 -1 -1 -1 -1 -1 -1 -1 -1 -1 -1 -1 -1 -1
 MicOpt= -1 -1 -1 -1 -1 -1 -1 -1 -1 -1
 NAtoms=     70 NQM=       70 NQMF=       0 NMMI=      0 NMMIF=      0
                NMic=       0 NMicF=      0.
                    Isotopes and Nuclear Properties:
 (Nuclear quadrupole moments (NQMom) in fm**2, nuclear magnetic moments (NMagM)
  in nuclear magnetons)

  Atom         1           2           3           4           5           6           7           8           9          10
 IAtWgt=          14          12          12          14          12           1          14          12           1          14
 AtmWgt=  14.0030740  12.0000000  12.0000000  14.0030740  12.0000000   1.0078250  14.0030740  12.0000000   1.0078250  14.0030740
 NucSpn=           2           0           0           2           0           1           2           0           1           2
 AtZEff=  -0.0000000  -0.0000000  -0.0000000  -0.0000000  -0.0000000  -0.0000000  -0.0000000  -0.0000000  -0.0000000  -0.0000000
 NQMom=    2.0440000   0.0000000   0.0000000   2.0440000   0.0000000   0.0000000   2.0440000   0.0000000   0.0000000   2.0440000
 NMagM=    0.4037610   0.0000000   0.0000000   0.4037610   0.0000000   2.7928460   0.4037610   0.0000000   2.7928460   0.4037610
 AtZNuc=   7.0000000   6.0000000   6.0000000   7.0000000   6.0000000   1.0000000   7.0000000   6.0000000   1.0000000   7.0000000

  Atom        11          12          13          14          15          16          17          18          19          20
 IAtWgt=          12          12          14           1           1           1           1           1          14          12
 AtmWgt=  12.0000000  12.0000000  14.0030740   1.0078250   1.0078250   1.0078250   1.0078250   1.0078250  14.0030740  12.0000000
 NucSpn=           0           0           2           1           1           1           1           1           2           0
 AtZEff=  -0.0000000  -0.0000000  -0.0000000  -0.0000000  -0.0000000  -0.0000000  -0.0000000  -0.0000000  -0.0000000  -0.0000000
 NQMom=    0.0000000   0.0000000   2.0440000   0.0000000   0.0000000   0.0000000   0.0000000   0.0000000   2.0440000   0.0000000
 NMagM=    0.0000000   0.0000000   0.4037610   2.7928460   2.7928460   2.7928460   2.7928460   2.7928460   0.4037610   0.0000000
 AtZNuc=   6.0000000   6.0000000   7.0000000   1.0000000   1.0000000   1.0000000   1.0000000   1.0000000   7.0000000   6.0000000

  Atom        21          22          23          24          25          26          27          28          29          30
 IAtWgt=          12          14           1           1          14          12          14           1          12          16
 AtmWgt=  12.0000000  14.0030740   1.0078250   1.0078250  14.0030740  12.0000000  14.0030740   1.0078250  12.0000000  15.9949146
 NucSpn=           0           2           1           1           2           0           2           1           0           0
 AtZEff=  -0.0000000  -0.0000000  -0.0000000  -0.0000000  -0.0000000  -0.0000000  -0.0000000  -0.0000000  -0.0000000  -0.0000000
 NQMom=    0.0000000   2.0440000   0.0000000   0.0000000   2.0440000   0.0000000   2.0440000   0.0000000   0.0000000   0.0000000
 NMagM=    0.0000000   0.4037610   2.7928460   2.7928460   0.4037610   0.0000000   0.4037610   2.7928460   0.0000000   0.0000000
 AtZNuc=   6.0000000   7.0000000   1.0000000   1.0000000   7.0000000   6.0000000   7.0000000   1.0000000   6.0000000   8.0000000

  Atom        31          32          33          34          35          36          37          38          39          40
 IAtWgt=          12          14          12           1           1           1           1           1           1           1
 AtmWgt=  12.0000000  14.0030740  12.0000000   1.0078250   1.0078250   1.0078250   1.0078250   1.0078250   1.0078250   1.0078250
 NucSpn=           0           2           0           1           1           1           1           1           1           1
 AtZEff=  -0.0000000  -0.0000000  -0.0000000  -0.0000000  -0.0000000  -0.0000000  -0.0000000  -0.0000000  -0.0000000  -0.0000000
 NQMom=    0.0000000   2.0440000   0.0000000   0.0000000   0.0000000   0.0000000   0.0000000   0.0000000   0.0000000   0.0000000
 NMagM=    0.0000000   0.4037610   0.0000000   2.7928460   2.7928460   2.7928460   2.7928460   2.7928460   2.7928460   2.7928460
 AtZNuc=   6.0000000   7.0000000   6.0000000   1.0000000   1.0000000   1.0000000   1.0000000   1.0000000   1.0000000   1.0000000

  Atom        41          42          43          44          45          46          47          48          49          50
 IAtWgt=           1          12          16          12           1          14          16          12           1          12
 AtmWgt=   1.0078250  12.0000000  15.9949146  12.0000000   1.0078250  14.0030740  15.9949146  12.0000000   1.0078250  12.0000000
 NucSpn=           1           0           0           0           1           2           0           0           1           0
 AtZEff=  -0.0000000  -0.0000000  -0.0000000  -0.0000000  -0.0000000  -0.0000000  -0.0000000  -0.0000000  -0.0000000  -0.0000000
 NQMom=    0.0000000   0.0000000   0.0000000   0.0000000   0.0000000   2.0440000   0.0000000   0.0000000   0.0000000   0.0000000
 NMagM=    2.7928460   0.0000000   0.0000000   0.0000000   2.7928460   0.4037610   0.0000000   0.0000000   2.7928460   0.0000000
 AtZNuc=   1.0000000   6.0000000   8.0000000   6.0000000   1.0000000   7.0000000   8.0000000   6.0000000   1.0000000   6.0000000

  Atom        51          52          53          54          55          56          57          58          59          60
 IAtWgt=          12          14           1           1           1           1           1          14          12          12
 AtmWgt=  12.0000000  14.0030740   1.0078250   1.0078250   1.0078250   1.0078250   1.0078250  14.0030740  12.0000000  12.0000000
 NucSpn=           0           2           1           1           1           1           1           2           0           0
 AtZEff=  -0.0000000  -0.0000000  -0.0000000  -0.0000000  -0.0000000  -0.0000000  -0.0000000  -0.0000000  -0.0000000  -0.0000000
 NQMom=    0.0000000   2.0440000   0.0000000   0.0000000   0.0000000   0.0000000   0.0000000   2.0440000   0.0000000   0.0000000
 NMagM=    0.0000000   0.4037610   2.7928460   2.7928460   2.7928460   2.7928460   2.7928460   0.4037610   0.0000000   0.0000000
 AtZNuc=   6.0000000   7.0000000   1.0000000   1.0000000   1.0000000   1.0000000   1.0000000   7.0000000   6.0000000   6.0000000

  Atom        61          62          63          64          65          66          67          68          69          70
 IAtWgt=          14           1          12          14           1          12          14          12          12          14
 AtmWgt=  14.0030740   1.0078250  12.0000000  14.0030740   1.0078250  12.0000000  14.0030740  12.0000000  12.0000000  14.0030740
 NucSpn=           2           1           0           2           1           0           2           0           0           2
 AtZEff=  -0.0000000  -0.0000000  -0.0000000  -0.0000000  -0.0000000  -0.0000000  -0.0000000  -0.0000000  -0.0000000  -0.0000000
 NQMom=    2.0440000   0.0000000   0.0000000   2.0440000   0.0000000   0.0000000   2.0440000   0.0000000   0.0000000   2.0440000
 NMagM=    0.4037610   2.7928460   0.0000000   0.4037610   2.7928460   0.0000000   0.4037610   0.0000000   0.0000000   0.4037610
 AtZNuc=   7.0000000   1.0000000   6.0000000   7.0000000   1.0000000   6.0000000   7.0000000   6.0000000   6.0000000   7.0000000
 Leave Link  101 at Mon Jan 22 16:16:52 2018, MaxMem=  4294967296 cpu:               7.5 elap:               0.3
 (Enter /share/apps/g16/l202.exe)
 Stoichiometry    C23H27N17O3
 Framework group  C1[X(C23H27N17O3)]
 Deg. of freedom   204
 Full point group                 C1      NOp   1
 Largest Abelian subgroup         C1      NOp   1
 Largest concise Abelian subgroup C1      NOp   1
                         Standard orientation:                         
 ---------------------------------------------------------------------
 Center     Atomic      Atomic             Coordinates (Angstroms)
 Number     Number       Type             X           Y           Z
 ---------------------------------------------------------------------
      1          7           0       -6.906088   -1.273396    0.304141
      2          6           0       -8.252462   -0.674952    0.219578
      3          6           0       -4.743926   -1.564611    0.582675
      4          7           0       -5.261183   -2.804634    0.236950
      5          6           0       -6.543092   -2.579556    0.082984
      6          1           0       -7.276716   -3.337186   -0.194020
      7          7           0       -3.264839    0.170862    1.185474
      8          6           0       -4.332170    0.976074    1.188934
      9          1           0       -4.129493    2.015750    1.442408
     10          7           0       -5.606295    0.691153    0.927513
     11          6           0       -5.745854   -0.610881    0.628076
     12          6           0       -3.438287   -1.133668    0.880172
     13          7           0       -2.374068   -1.939014    0.876194
     14          1           0       -2.455744   -2.911685    0.656064
     15          1           0       -1.459366   -1.597764    1.093008
     16          1           0       -8.861284   -1.127229    0.871456
     17          1           0       -8.199067    0.299517    0.435643
     18          1           0       -8.613177   -0.790151   -0.705957
     19          7           0       -2.745675    2.221466   -1.631508
     20          6           0       -1.397803    2.076444   -1.407316
     21          6           0       -3.513717    3.468079   -1.439746
     22          7           0        1.652621    3.425535   -0.439538
     23          1           0        2.597723    3.115670   -0.339482
     24          1           0        1.462309    4.381476   -0.214415
     25          7           0       -0.555348    3.040647   -0.977639
     26          6           0        0.683316    2.597121   -0.856788
     27          7           0        1.069490    1.308317   -1.134923
     28          1           0        2.038755    1.057623   -1.013897
     29          6           0        0.219744    0.299711   -1.578210
     30          8           0        0.669698   -0.831156   -1.800506
     31          6           0       -1.114373    0.761105   -1.712866
     32          7           0       -2.261229    0.093786   -2.120667
     33          6           0       -3.201224    0.997409   -2.056730
     34          1           0       -4.247769    0.823711   -2.309385
     35          1           0       -4.231085    3.318384   -0.760196
     36          1           0       -2.900087    4.189503   -1.121533
     37          1           0       -3.928192    3.742882   -2.306643
     38          1           0        6.860014    0.280022    0.401559
     39          1           0        7.177024    0.461413   -1.322170
     40          1           0        5.845201    1.343160   -0.573767
     41          1           0        5.507640   -4.049202   -1.203269
     42          6           0        5.128426   -3.027920   -1.165541
     43          8           0        2.888508   -3.646251   -1.642543
     44          6           0        3.736518   -2.788898   -1.396376
     45          1           0        2.385880   -1.253784   -1.483236
     46          7           0        3.361804   -1.462306   -1.325696
     47          8           0        3.747277    0.754916   -1.021497
     48          6           0        4.172281   -0.386258   -1.063410
     49          1           0        7.009974   -2.127219   -0.724724
     50          6           0        5.943887   -1.998879   -0.907290
     51          6           0        6.405406    0.419981   -0.567878
     52          7           0        5.500993   -0.697668   -0.851822
     53          1           0        3.680352    3.418541    3.160109
     54          1           0        2.558897    3.555395    1.982953
     55          1           0        4.140225    3.443427    1.594442
     56          1           0        1.006051   -3.279971    1.415534
     57          1           0        2.623848   -3.027467    1.894168
     58          7           0        1.738128   -2.636946    1.640788
     59          6           0        1.542959   -1.317170    1.605160
     60          6           0        2.185037    0.962859    1.830834
     61          7           0        0.985028    1.459020    1.486992
     62          1           0       -0.870492    0.788654    0.931791
     63          6           0        0.131108    0.472801    1.220386
     64          7           0        0.324665   -0.849653    1.255495
     65          1           0        5.286716    1.014406    2.741399
     66          6           0        4.278219    0.728765    2.440927
     67          7           0        3.864642   -0.506793    2.299385
     68          6           0        2.539014   -0.372617    1.912781
     69          6           0        3.432730    3.139109    2.232432
     70          7           0        3.313576    1.669305    2.173407
 ---------------------------------------------------------------------
 Rotational constants (GHZ):           0.1566707           0.0507390           0.0464465
 Leave Link  202 at Mon Jan 22 16:16:52 2018, MaxMem=  4294967296 cpu:               0.3 elap:               0.0
 (Enter /share/apps/g16/l301.exe)
 Standard basis: CC-pVDZ (5D, 7F)
 Ernie: Thresh=  0.10000D-02 Tol=  0.10000D-05 Strict=F.
 Ernie:  86 primitive shells out of 1081 were deleted.
 There are   780 symmetry adapted cartesian basis functions of A   symmetry.
 There are   737 symmetry adapted basis functions of A   symmetry.
   737 basis functions,  1608 primitive gaussians,   780 cartesian basis functions
   154 alpha electrons      154 beta electrons
       nuclear repulsion energy      5497.6256481346 Hartrees.
 IExCor= 4639 DFT=T Ex+Corr=wB97XD ExCW=0 ScaHFX=  1.000000
 ScaDFX=  1.000000  1.000000  1.000000  1.000000 ScalE2=  1.000000  1.000000
 IRadAn=      5 IRanWt=     -1 IRanGd=            0 ICorTp=0 IEmpDi=121
 HFx  wShort=  0.000000 wLong=  0.200000 cFull=  0.222036 cShort=  0.000000 cLong=  0.777964
 DFx  wShort=  0.000000 wLong=  0.200000 cFull=  0.000000 cShort=  0.000000 cLong=  1.000000
 NAtoms=   70 NActive=   70 NUniq=   70 SFac= 1.00D+00 NAtFMM=   60 NAOKFM=T Big=T
 Integral buffers will be    131072 words long.
 Raffenetti 2 integral format.
 Two-electron integral symmetry is turned on.
 R6Disp:  Grimme-D2 Dispersion energy=       -0.0724777592 Hartrees.
 Nuclear repulsion after empirical dispersion term =     5497.5531703754 Hartrees.
 Leave Link  301 at Mon Jan 22 16:16:53 2018, MaxMem=  4294967296 cpu:               5.4 elap:               0.2
 (Enter /share/apps/g16/l302.exe)
 NPDir=0 NMtPBC=     1 NCelOv=     1 NCel=       1 NClECP=     1 NCelD=      1
         NCelK=      1 NCelE2=     1 NClLst=     1 CellRange=     0.0.
 One-electron integrals computed using PRISM.
 One-electron integral symmetry used in STVInt
 NBasis=   737 RedAO= T EigKep=  7.03D-04  NBF=   737
 NBsUse=   737 1.00D-06 EigRej= -1.00D+00 NBFU=   737
 Precomputing XC quadrature grid using
 IXCGrd= 4 IRadAn=           5 IRanWt=          -1 IRanGd=           0 AccXCQ= 0.00D+00.
 Generated NRdTot=       0 NPtTot=           0 NUsed=           0 NTot=          32
 NSgBfM=   763   763   763   763   763 MxSgAt=    70 MxSgA2=    70.
 Leave Link  302 at Mon Jan 22 16:16:57 2018, MaxMem=  4294967296 cpu:             134.6 elap:               4.2
 (Enter /share/apps/g16/l303.exe)
 DipDrv:  MaxL=1.
 Leave Link  303 at Mon Jan 22 16:16:57 2018, MaxMem=  4294967296 cpu:              12.4 elap:               0.4
 (Enter /share/apps/g16/l401.exe)
 ExpMin= 1.22D-01 ExpMax= 1.17D+04 ExpMxC= 4.01D+02 IAcc=3 IRadAn=         5 AccDes= 0.00D+00
 Harris functional with IExCor= 4639 and IRadAn=       5 diagonalized for initial guess.
 HarFok:  IExCor= 4639 AccDes= 0.00D+00 IRadAn=         5 IDoV= 1 UseB2=F ITyADJ=14
 ICtDFT=  3500011 ScaDFX=  1.000000  1.000000  1.000000  1.000000
 FoFCou: FMM=F IPFlag=           0 FMFlag=      100000 FMFlg1=        2001
         NFxFlg=           0 DoJE=T BraDBF=F KetDBF=T FulRan=T
         wScrn=  0.000000 ICntrl=       500 IOpCl=  0 I1Cent=   200000004 NGrid=           0
         NMat0=    1 NMatS0=      1 NMatT0=    0 NMatD0=    1 NMtDS0=    0 NMtDT0=    0
 Petite list used in FoFCou.
 Harris En= -1963.86622928461    
 JPrj=0 DoOrth=F DoCkMO=F.
 Leave Link  401 at Mon Jan 22 16:17:10 2018, MaxMem=  4294967296 cpu:             400.7 elap:              12.6
 (Enter /share/apps/g16/l502.exe)
 Integral symmetry usage will be decided dynamically.
 Closed shell SCF:
 Using DIIS extrapolation, IDIIS=  1040.
 NGot=  4294967296 LenX=  4293717438 LenY=  4293108258
 Requested convergence on RMS density matrix=1.00D-08 within  20 cycles.
 Requested convergence on MAX density matrix=1.00D-06.
 Requested convergence on             energy=1.00D-06.
 No special actions if energy rises.
 Fock matrices will be formed incrementally for  20 cycles.
 Integral accuracy reduced to 1.0D-05 until final iterations.

 Cycle   1  Pass 0  IDiag  1:
 FoFJK:  IHMeth= 1 ICntrl=       0 DoSepK=T KAlg= 0 I1Cent=           0 FoldK=F
 IRaf=         1 NMat=       1 IRICut=       1 DoRegI=T DoRafI=F ISym2E= 0 IDoP0=0 IntGTp=1.
 FoFCou: FMM=T IPFlag=           0 FMFlag=      100000 FMFlg1=        2001
         NFxFlg=           0 DoJE=T BraDBF=F KetDBF=F FulRan=T
         wScrn=  0.000000 ICntrl=       500 IOpCl=  0 I1Cent=           0 NGrid=           0
         NMat0=    1 NMatS0=      1 NMatT0=    0 NMatD0=    1 NMtDS0=    0 NMtDT0=    0
 Symmetry not used in FoFCou.
 FMM levels:  10  Number of levels for PrismC:   9
 E= -2048.30230442574    
 DIIS: error= 1.99D-02 at cycle   1 NSaved=   1.
 NSaved= 1 IEnMin= 1 EnMin= -2048.30230442574     IErMin= 1 ErrMin= 1.99D-02
 ErrMax= 1.99D-02  0.00D+00 EMaxC= 1.00D-01 BMatC= 8.30D-01 BMatP= 8.30D-01
 IDIUse=3 WtCom= 8.01D-01 WtEn= 1.99D-01
 Coeff-Com:  0.100D+01
 Coeff-En:   0.100D+01
 Coeff:      0.100D+01
 Gap=     0.254 Goal=   None    Shift=    0.000
 GapD=    0.254 DampG=1.000 DampE=0.500 DampFc=0.5000 IDamp=-1.
 Damping current iteration by 5.00D-01
 RMSDP=1.57D-03 MaxDP=1.30D-01              OVMax= 1.98D-01

 Cycle   2  Pass 0  IDiag  1:
 RMSU=  7.85D-04    CP:  9.98D-01
 E= -2048.49875708922     Delta-E=       -0.196452663475 Rises=F Damp=T
 DIIS: error= 1.10D-02 at cycle   2 NSaved=   2.
 NSaved= 2 IEnMin= 2 EnMin= -2048.49875708922     IErMin= 2 ErrMin= 1.10D-02
 ErrMax= 1.10D-02  0.00D+00 EMaxC= 1.00D-01 BMatC= 1.45D-01 BMatP= 8.30D-01
 IDIUse=3 WtCom= 8.90D-01 WtEn= 1.10D-01
 Coeff-Com: -0.198D+00 0.120D+01
 Coeff-En:   0.000D+00 0.100D+01
 Coeff:     -0.176D+00 0.118D+01
 Gap=     0.363 Goal=   None    Shift=    0.000
 RMSDP=5.92D-04 MaxDP=3.37D-02 DE=-1.96D-01 OVMax= 1.56D-01

 Cycle   3  Pass 0  IDiag  1:
 RMSU=  5.82D-04    CP:  9.94D-01  1.13D+00
 E= -2048.67701567141     Delta-E=       -0.178258582191 Rises=F Damp=F
 DIIS: error= 7.00D-03 at cycle   3 NSaved=   3.
 NSaved= 3 IEnMin= 3 EnMin= -2048.67701567141     IErMin= 3 ErrMin= 7.00D-03
 ErrMax= 7.00D-03  0.00D+00 EMaxC= 1.00D-01 BMatC= 6.32D-02 BMatP= 1.45D-01
 IDIUse=3 WtCom= 9.30D-01 WtEn= 7.00D-02
 Coeff-Com: -0.234D+00 0.551D+00 0.683D+00
 Coeff-En:   0.000D+00 0.000D+00 0.100D+01
 Coeff:     -0.217D+00 0.512D+00 0.705D+00
 Gap=     0.280 Goal=   None    Shift=    0.000
 RMSDP=3.58D-04 MaxDP=3.32D-02 DE=-1.78D-01 OVMax= 7.26D-02

 Cycle   4  Pass 0  IDiag  1:
 RMSU=  2.02D-04    CP:  9.94D-01  1.42D+00  6.72D-01
 E= -2048.72544674685     Delta-E=       -0.048431075443 Rises=F Damp=F
 DIIS: error= 2.81D-03 at cycle   4 NSaved=   4.
 NSaved= 4 IEnMin= 4 EnMin= -2048.72544674685     IErMin= 4 ErrMin= 2.81D-03
 ErrMax= 2.81D-03  0.00D+00 EMaxC= 1.00D-01 BMatC= 8.75D-03 BMatP= 6.32D-02
 IDIUse=3 WtCom= 9.72D-01 WtEn= 2.81D-02
 Coeff-Com: -0.976D-01 0.189D+00 0.377D+00 0.532D+00
 Coeff-En:   0.000D+00 0.000D+00 0.550D-01 0.945D+00
 Coeff:     -0.948D-01 0.184D+00 0.368D+00 0.543D+00
 Gap=     0.285 Goal=   None    Shift=    0.000
 RMSDP=1.27D-04 MaxDP=1.19D-02 DE=-4.84D-02 OVMax= 1.34D-02

 Cycle   5  Pass 0  IDiag  1:
 RMSU=  6.16D-05    CP:  9.94D-01  1.39D+00  8.04D-01  6.15D-01
 E= -2048.73272866824     Delta-E=       -0.007281921390 Rises=F Damp=F
 DIIS: error= 6.16D-04 at cycle   5 NSaved=   5.
 NSaved= 5 IEnMin= 5 EnMin= -2048.73272866824     IErMin= 5 ErrMin= 6.16D-04
 ErrMax= 6.16D-04  0.00D+00 EMaxC= 1.00D-01 BMatC= 2.90D-04 BMatP= 8.75D-03
 IDIUse=3 WtCom= 9.94D-01 WtEn= 6.16D-03
 Coeff-Com: -0.251D-01 0.431D-01 0.120D+00 0.240D+00 0.623D+00
 Coeff-En:   0.000D+00 0.000D+00 0.000D+00 0.000D+00 0.100D+01
 Coeff:     -0.249D-01 0.428D-01 0.119D+00 0.238D+00 0.625D+00
 Gap=     0.285 Goal=   None    Shift=    0.000
 RMSDP=2.64D-05 MaxDP=1.94D-03 DE=-7.28D-03 OVMax= 3.20D-03

 Failed to achieve initial convergence to 1.0D-08 in  6 cycles.
 Switch to full accuracy anyway.
 Cycle   6  Pass 1  IDiag  1:
 E= -2048.73289702715     Delta-E=       -0.000168358913 Rises=F Damp=F
 DIIS: error= 2.20D-04 at cycle   1 NSaved=   1.
 NSaved= 1 IEnMin= 1 EnMin= -2048.73289702715     IErMin= 1 ErrMin= 2.20D-04
 ErrMax= 2.20D-04  0.00D+00 EMaxC= 1.00D-01 BMatC= 7.12D-05 BMatP= 7.12D-05
 IDIUse=3 WtCom= 9.98D-01 WtEn= 2.20D-03
 Coeff-Com:  0.100D+01
 Coeff-En:   0.100D+01
 Coeff:      0.100D+01
 Gap=     0.285 Goal=   None    Shift=    0.000
 RMSDP=2.64D-05 MaxDP=1.94D-03 DE=-1.68D-04 OVMax= 2.67D-03

 Cycle   7  Pass 1  IDiag  1:
 RMSU=  1.05D-04    CP:  1.00D+00
 E= -2048.73294857801     Delta-E=       -0.000051550854 Rises=F Damp=F
 DIIS: error= 2.44D-04 at cycle   2 NSaved=   2.
 NSaved= 2 IEnMin= 2 EnMin= -2048.73294857801     IErMin= 1 ErrMin= 2.20D-04
 ErrMax= 2.44D-04  0.00D+00 EMaxC= 1.00D-01 BMatC= 4.28D-05 BMatP= 7.12D-05
 IDIUse=3 WtCom= 9.98D-01 WtEn= 2.44D-03
 Coeff-Com:  0.415D+00 0.585D+00
 Coeff-En:   0.000D+00 0.100D+01
 Coeff:      0.414D+00 0.586D+00
 Gap=     0.286 Goal=   None    Shift=    0.000
 RMSDP=1.13D-05 MaxDP=1.06D-03 DE=-5.16D-05 OVMax= 1.48D-03

 Cycle   8  Pass 1  IDiag  1:
 RMSU=  1.11D-05    CP:  1.00D+00  1.02D+00
 E= -2048.73298016661     Delta-E=       -0.000031588602 Rises=F Damp=F
 DIIS: error= 1.12D-04 at cycle   3 NSaved=   3.
 NSaved= 3 IEnMin= 3 EnMin= -2048.73298016661     IErMin= 3 ErrMin= 1.12D-04
 ErrMax= 1.12D-04  0.00D+00 EMaxC= 1.00D-01 BMatC= 9.40D-06 BMatP= 4.28D-05
 IDIUse=3 WtCom= 9.99D-01 WtEn= 1.12D-03
 Coeff-Com: -0.199D-01 0.304D+00 0.716D+00
 Coeff-En:   0.000D+00 0.119D+00 0.881D+00
 Coeff:     -0.199D-01 0.304D+00 0.716D+00
 Gap=     0.286 Goal=   None    Shift=    0.000
 RMSDP=5.55D-06 MaxDP=4.29D-04 DE=-3.16D-05 OVMax= 5.53D-04

 Cycle   9  Pass 1  IDiag  1:
 RMSU=  3.82D-06    CP:  1.00D+00  1.05D+00  7.70D-01
 E= -2048.73298912769     Delta-E=       -0.000008961083 Rises=F Damp=F
 DIIS: error= 3.77D-05 at cycle   4 NSaved=   4.
 NSaved= 4 IEnMin= 4 EnMin= -2048.73298912769     IErMin= 4 ErrMin= 3.77D-05
 ErrMax= 3.77D-05  0.00D+00 EMaxC= 1.00D-01 BMatC= 4.91D-07 BMatP= 9.40D-06
 IDIUse=1 WtCom= 1.00D+00 WtEn= 0.00D+00
 Coeff-Com: -0.322D-01 0.808D-01 0.263D+00 0.688D+00
 Coeff:     -0.322D-01 0.808D-01 0.263D+00 0.688D+00
 Gap=     0.286 Goal=   None    Shift=    0.000
 RMSDP=1.43D-06 MaxDP=1.28D-04 DE=-8.96D-06 OVMax= 5.09D-04

 Cycle  10  Pass 1  IDiag  1:
 RMSU=  1.28D-06    CP:  1.00D+00  1.06D+00  8.04D-01  1.10D+00
 E= -2048.73298995853     Delta-E=       -0.000000830833 Rises=F Damp=F
 DIIS: error= 1.67D-05 at cycle   5 NSaved=   5.
 NSaved= 5 IEnMin= 5 EnMin= -2048.73298995853     IErMin= 5 ErrMin= 1.67D-05
 ErrMax= 1.67D-05  0.00D+00 EMaxC= 1.00D-01 BMatC= 1.16D-07 BMatP= 4.91D-07
 IDIUse=1 WtCom= 1.00D+00 WtEn= 0.00D+00
 Coeff-Com: -0.324D-02-0.556D-01-0.123D+00 0.203D+00 0.979D+00
 Coeff:     -0.324D-02-0.556D-01-0.123D+00 0.203D+00 0.979D+00
 Gap=     0.286 Goal=   None    Shift=    0.000
 RMSDP=1.19D-06 MaxDP=7.59D-05 DE=-8.31D-07 OVMax= 2.48D-04

 Cycle  11  Pass 1  IDiag  1:
 RMSU=  4.87D-07    CP:  1.00D+00  1.06D+00  8.13D-01  1.38D+00  1.17D+00
 E= -2048.73299021061     Delta-E=       -0.000000252083 Rises=F Damp=F
 DIIS: error= 8.97D-06 at cycle   6 NSaved=   6.
 NSaved= 6 IEnMin= 6 EnMin= -2048.73299021061     IErMin= 6 ErrMin= 8.97D-06
 ErrMax= 8.97D-06  0.00D+00 EMaxC= 1.00D-01 BMatC= 2.72D-08 BMatP= 1.16D-07
 IDIUse=1 WtCom= 1.00D+00 WtEn= 0.00D+00
 Coeff-Com:  0.462D-02-0.433D-01-0.114D+00 0.484D-03 0.520D+00 0.632D+00
 Coeff:      0.462D-02-0.433D-01-0.114D+00 0.484D-03 0.520D+00 0.632D+00
 Gap=     0.286 Goal=   None    Shift=    0.000
 RMSDP=3.49D-07 MaxDP=3.56D-05 DE=-2.52D-07 OVMax= 1.25D-04

 Cycle  12  Pass 1  IDiag  1:
 RMSU=  1.76D-07    CP:  1.00D+00  1.06D+00  8.14D-01  1.45D+00  1.29D+00
                    CP:  9.30D-01
 E= -2048.73299024923     Delta-E=       -0.000000038624 Rises=F Damp=F
 DIIS: error= 1.30D-06 at cycle   7 NSaved=   7.
 NSaved= 7 IEnMin= 7 EnMin= -2048.73299024923     IErMin= 7 ErrMin= 1.30D-06
 ErrMax= 1.30D-06  0.00D+00 EMaxC= 1.00D-01 BMatC= 6.82D-10 BMatP= 2.72D-08
 IDIUse=1 WtCom= 1.00D+00 WtEn= 0.00D+00
 Coeff-Com:  0.925D-03-0.520D-02-0.151D-01-0.796D-02 0.344D-01 0.112D+00
 Coeff-Com:  0.881D+00
 Coeff:      0.925D-03-0.520D-02-0.151D-01-0.796D-02 0.344D-01 0.112D+00
 Coeff:      0.881D+00
 Gap=     0.286 Goal=   None    Shift=    0.000
 RMSDP=8.52D-08 MaxDP=5.29D-06 DE=-3.86D-08 OVMax= 2.37D-05

 Cycle  13  Pass 1  IDiag  1:
 RMSU=  4.85D-08    CP:  1.00D+00  1.06D+00  8.14D-01  1.46D+00  1.31D+00
                    CP:  1.02D+00  1.16D+00
 E= -2048.73299025107     Delta-E=       -0.000000001839 Rises=F Damp=F
 DIIS: error= 5.82D-07 at cycle   8 NSaved=   8.
 NSaved= 8 IEnMin= 8 EnMin= -2048.73299025107     IErMin= 8 ErrMin= 5.82D-07
 ErrMax= 5.82D-07  0.00D+00 EMaxC= 1.00D-01 BMatC= 2.78D-10 BMatP= 6.82D-10
 IDIUse=1 WtCom= 1.00D+00 WtEn= 0.00D+00
 Coeff-Com: -0.706D-03 0.837D-02 0.211D-01-0.223D-02-0.112D+00-0.993D-01
 Coeff-Com:  0.429D+00 0.756D+00
 Coeff:     -0.706D-03 0.837D-02 0.211D-01-0.223D-02-0.112D+00-0.993D-01
 Coeff:      0.429D+00 0.756D+00
 Gap=     0.286 Goal=   None    Shift=    0.000
 RMSDP=4.24D-08 MaxDP=2.41D-06 DE=-1.84D-09 OVMax= 1.02D-05

 Cycle  14  Pass 1  IDiag  1:
 RMSU=  2.53D-08    CP:  1.00D+00  1.06D+00  8.14D-01  1.46D+00  1.32D+00
                    CP:  1.06D+00  1.30D+00  1.08D+00
 E= -2048.73299025134     Delta-E=       -0.000000000267 Rises=F Damp=F
 DIIS: error= 1.51D-07 at cycle   9 NSaved=   9.
 NSaved= 9 IEnMin= 9 EnMin= -2048.73299025134     IErMin= 9 ErrMin= 1.51D-07
 ErrMax= 1.51D-07  0.00D+00 EMaxC= 1.00D-01 BMatC= 2.22D-11 BMatP= 2.78D-10
 IDIUse=1 WtCom= 1.00D+00 WtEn= 0.00D+00
 Coeff-Com: -0.366D-03 0.376D-02 0.966D-02 0.121D-03-0.460D-01-0.498D-01
 Coeff-Com:  0.713D-01 0.267D+00 0.744D+00
 Coeff:     -0.366D-03 0.376D-02 0.966D-02 0.121D-03-0.460D-01-0.498D-01
 Coeff:      0.713D-01 0.267D+00 0.744D+00
 Gap=     0.286 Goal=   None    Shift=    0.000
 RMSDP=1.25D-08 MaxDP=7.31D-07 DE=-2.67D-10 OVMax= 3.34D-06

 Cycle  15  Pass 1  IDiag  1:
 RMSU=  8.36D-09    CP:  1.00D+00  1.06D+00  8.14D-01  1.46D+00  1.32D+00
                    CP:  1.07D+00  1.32D+00  1.22D+00  1.12D+00
 E= -2048.73299025169     Delta-E=       -0.000000000355 Rises=F Damp=F
 DIIS: error= 8.71D-08 at cycle  10 NSaved=  10.
 NSaved=10 IEnMin=10 EnMin= -2048.73299025169     IErMin=10 ErrMin= 8.71D-08
 ErrMax= 8.71D-08  0.00D+00 EMaxC= 1.00D-01 BMatC= 4.78D-12 BMatP= 2.22D-11
 IDIUse=1 WtCom= 1.00D+00 WtEn= 0.00D+00
 Coeff-Com:  0.223D-04-0.485D-03-0.113D-02 0.197D-03 0.768D-02 0.362D-02
 Coeff-Com: -0.612D-01-0.726D-01 0.291D+00 0.832D+00
 Coeff:      0.223D-04-0.485D-03-0.113D-02 0.197D-03 0.768D-02 0.362D-02
 Coeff:     -0.612D-01-0.726D-01 0.291D+00 0.832D+00
 Gap=     0.286 Goal=   None    Shift=    0.000
 RMSDP=6.23D-09 MaxDP=3.61D-07 DE=-3.55D-10 OVMax= 1.27D-06

 SCF Done:  E(RwB97XD) =  -2048.73299025     A.U. after   15 cycles
            NFock= 15  Conv=0.62D-08     -V/T= 2.0054
 KE= 2.037815029727D+03 PE=-1.577593951331D+04 EE= 6.191838322954D+03
 Leave Link  502 at Mon Jan 22 16:28:38 2018, MaxMem=  4294967296 cpu:           21291.6 elap:             688.6
 (Enter /share/apps/g16/l601.exe)
 Copying SCF densities to generalized density rwf, IOpCl= 0 IROHF=0.

 **********************************************************************

            Population analysis using the SCF density.

 **********************************************************************

 Orbital symmetries:
       Occupied  (A) (A) (A) (A) (A) (A) (A) (A) (A) (A) (A) (A)
                 (A) (A) (A) (A) (A) (A) (A) (A) (A) (A) (A) (A)
                 (A) (A) (A) (A) (A) (A) (A) (A) (A) (A) (A) (A)
                 (A) (A) (A) (A) (A) (A) (A) (A) (A) (A) (A) (A)
                 (A) (A) (A) (A) (A) (A) (A) (A) (A) (A) (A) (A)
                 (A) (A) (A) (A) (A) (A) (A) (A) (A) (A) (A) (A)
                 (A) (A) (A) (A) (A) (A) (A) (A) (A) (A) (A) (A)
                 (A) (A) (A) (A) (A) (A) (A) (A) (A) (A) (A) (A)
                 (A) (A) (A) (A) (A) (A) (A) (A) (A) (A) (A) (A)
                 (A) (A) (A) (A) (A) (A) (A) (A) (A) (A) (A) (A)
                 (A) (A) (A) (A) (A) (A) (A) (A) (A) (A) (A) (A)
                 (A) (A) (A) (A) (A) (A) (A) (A) (A) (A) (A) (A)
                 (A) (A) (A) (A) (A) (A) (A) (A) (A) (A)
       Virtual   (A) (A) (A) (A) (A) (A) (A) (A) (A) (A) (A) (A)
                 (A) (A) (A) (A) (A) (A) (A) (A) (A) (A) (A) (A)
                 (A) (A) (A) (A) (A) (A) (A) (A) (A) (A) (A) (A)
                 (A) (A) (A) (A) (A) (A) (A) (A) (A) (A) (A) (A)
                 (A) (A) (A) (A) (A) (A) (A) (A) (A) (A) (A) (A)
                 (A) (A) (A) (A) (A) (A) (A) (A) (A) (A) (A) (A)
                 (A) (A) (A) (A) (A) (A) (A) (A) (A) (A) (A) (A)
                 (A) (A) (A) (A) (A) (A) (A) (A) (A) (A) (A) (A)
                 (A) (A) (A) (A) (A) (A) (A) (A) (A) (A) (A) (A)
                 (A) (A) (A) (A) (A) (A) (A) (A) (A) (A) (A) (A)
                 (A) (A) (A) (A) (A) (A) (A) (A) (A) (A) (A) (A)
                 (A) (A) (A) (A) (A) (A) (A) (A) (A) (A) (A) (A)
                 (A) (A) (A) (A) (A) (A) (A) (A) (A) (A) (A) (A)
                 (A) (A) (A) (A) (A) (A) (A) (A) (A) (A) (A) (A)
                 (A) (A) (A) (A) (A) (A) (A) (A) (A) (A) (A) (A)
                 (A) (A) (A) (A) (A) (A) (A) (A) (A) (A) (A) (A)
                 (A) (A) (A) (A) (A) (A) (A) (A) (A) (A) (A) (A)
                 (A) (A) (A) (A) (A) (A) (A) (A) (A) (A) (A) (A)
                 (A) (A) (A) (A) (A) (A) (A) (A) (A) (A) (A) (A)
                 (A) (A) (A) (A) (A) (A) (A) (A) (A) (A) (A) (A)
                 (A) (A) (A) (A) (A) (A) (A) (A) (A) (A) (A) (A)
                 (A) (A) (A) (A) (A) (A) (A) (A) (A) (A) (A) (A)
                 (A) (A) (A) (A) (A) (A) (A) (A) (A) (A) (A) (A)
                 (A) (A) (A) (A) (A) (A) (A) (A) (A) (A) (A) (A)
                 (A) (A) (A) (A) (A) (A) (A) (A) (A) (A) (A) (A)
                 (A) (A) (A) (A) (A) (A) (A) (A) (A) (A) (A) (A)
                 (A) (A) (A) (A) (A) (A) (A) (A) (A) (A) (A) (A)
                 (A) (A) (A) (A) (A) (A) (A) (A) (A) (A) (A) (A)
                 (A) (A) (A) (A) (A) (A) (A) (A) (A) (A) (A) (A)
                 (A) (A) (A) (A) (A) (A) (A) (A) (A) (A) (A) (A)
                 (A) (A) (A) (A) (A) (A) (A) (A) (A) (A) (A) (A)
                 (A) (A) (A) (A) (A) (A) (A) (A) (A) (A) (A) (A)
                 (A) (A) (A) (A) (A) (A) (A) (A) (A) (A) (A) (A)
                 (A) (A) (A) (A) (A) (A) (A) (A) (A) (A) (A) (A)
                 (A) (A) (A) (A) (A) (A) (A) (A) (A) (A) (A) (A)
                 (A) (A) (A) (A) (A) (A) (A) (A) (A) (A) (A) (A)
                 (A) (A) (A) (A) (A) (A) (A) (A) (A) (A) (A) (A)
                 (A) (A) (A) (A) (A) (A) (A) (A) (A) (A) (A) (A)
                 (A) (A) (A) (A) (A) (A) (A) (A) (A) (A) (A) (A)
                 (A) (A) (A) (A) (A) (A) (A) (A) (A) (A) (A) (A)
                 (A) (A) (A) (A) (A) (A) (A) (A) (A) (A) (A) (A)
                 (A) (A) (A) (A) (A) (A) (A) (A) (A) (A) (A) (A)
                 (A) (A) (A) (A) (A) (A) (A) (A) (A) (A) (A) (A)
                 (A) (A) (A) (A) (A) (A) (A) (A) (A) (A) (A) (A)
                 (A) (A) (A) (A) (A) (A) (A) (A) (A) (A) (A) (A)
                 (A) (A) (A) (A) (A) (A) (A) (A) (A) (A) (A) (A)
                 (A) (A) (A) (A) (A) (A) (A) (A) (A) (A) (A) (A)
                 (A) (A) (A) (A) (A) (A) (A) (A) (A) (A) (A) (A)
                 (A) (A) (A) (A) (A) (A) (A)
 The electronic state is 1-A.
 Alpha  occ. eigenvalues --  -19.25971 -19.21998 -19.20570 -14.52436 -14.51632
 Alpha  occ. eigenvalues --  -14.49417 -14.48599 -14.47900 -14.46848 -14.46662
 Alpha  occ. eigenvalues --  -14.46554 -14.44626 -14.43086 -14.42716 -14.42664
 Alpha  occ. eigenvalues --  -14.42068 -14.42046 -14.41654 -14.40773 -14.40682
 Alpha  occ. eigenvalues --  -10.45556 -10.41144 -10.40116 -10.38710 -10.38160
 Alpha  occ. eigenvalues --  -10.37746 -10.37226 -10.36108 -10.36034 -10.35555
 Alpha  occ. eigenvalues --  -10.34722 -10.34532 -10.34291 -10.34054 -10.33785
 Alpha  occ. eigenvalues --  -10.33687 -10.33128 -10.31581 -10.31503 -10.31032
 Alpha  occ. eigenvalues --  -10.30562 -10.29217 -10.28066  -1.19507  -1.14317
 Alpha  occ. eigenvalues --   -1.13205  -1.13027  -1.12013  -1.10480  -1.09333
 Alpha  occ. eigenvalues --   -1.08583  -1.08026  -1.05625  -1.03612  -1.02520
 Alpha  occ. eigenvalues --   -1.01056  -1.00219  -0.99743  -0.98478  -0.97580
 Alpha  occ. eigenvalues --   -0.96437  -0.95641  -0.93270  -0.91030  -0.86802
 Alpha  occ. eigenvalues --   -0.85319  -0.84581  -0.84020  -0.83801  -0.82921
 Alpha  occ. eigenvalues --   -0.82323  -0.78866  -0.76054  -0.74607  -0.73797
 Alpha  occ. eigenvalues --   -0.73619  -0.73513  -0.73381  -0.71723  -0.69474
 Alpha  occ. eigenvalues --   -0.67391  -0.66920  -0.66565  -0.65810  -0.64459
 Alpha  occ. eigenvalues --   -0.63720  -0.63462  -0.63185  -0.62696  -0.61769
 Alpha  occ. eigenvalues --   -0.60794  -0.60100  -0.59650  -0.59492  -0.59148
 Alpha  occ. eigenvalues --   -0.58688  -0.58276  -0.57152  -0.57010  -0.56700
 Alpha  occ. eigenvalues --   -0.56018  -0.55904  -0.55140  -0.54569  -0.54379
 Alpha  occ. eigenvalues --   -0.53624  -0.53564  -0.52967  -0.52851  -0.52621
 Alpha  occ. eigenvalues --   -0.52369  -0.52285  -0.51900  -0.51385  -0.50784
 Alpha  occ. eigenvalues --   -0.50070  -0.49697  -0.49452  -0.48981  -0.48714
 Alpha  occ. eigenvalues --   -0.48649  -0.48194  -0.47922  -0.47728  -0.47562
 Alpha  occ. eigenvalues --   -0.47371  -0.45609  -0.45498  -0.43985  -0.43131
 Alpha  occ. eigenvalues --   -0.41852  -0.39820  -0.39528  -0.37847  -0.37336
 Alpha  occ. eigenvalues --   -0.37211  -0.36747  -0.36374  -0.35830  -0.34509
 Alpha  occ. eigenvalues --   -0.34191  -0.34095  -0.33290  -0.33184  -0.32840
 Alpha  occ. eigenvalues --   -0.32605  -0.32207  -0.31958  -0.31795  -0.31562
 Alpha  occ. eigenvalues --   -0.30990  -0.28536  -0.26435  -0.25412
 Alpha virt. eigenvalues --    0.03148   0.04750   0.07313   0.07894   0.08630
 Alpha virt. eigenvalues --    0.09254   0.09559   0.10246   0.11065   0.11821
 Alpha virt. eigenvalues --    0.12847   0.13564   0.14399   0.14679   0.14798
 Alpha virt. eigenvalues --    0.16058   0.16174   0.16879   0.17039   0.18226
 Alpha virt. eigenvalues --    0.18692   0.19202   0.19569   0.19986   0.20224
 Alpha virt. eigenvalues --    0.20587   0.21165   0.21710   0.21811   0.22083
 Alpha virt. eigenvalues --    0.23145   0.23391   0.23514   0.23600   0.23933
 Alpha virt. eigenvalues --    0.24033   0.24276   0.24819   0.25395   0.25701
 Alpha virt. eigenvalues --    0.26202   0.26644   0.26983   0.27428   0.28156
 Alpha virt. eigenvalues --    0.28573   0.29360   0.29610   0.30679   0.30856
 Alpha virt. eigenvalues --    0.31248   0.32499   0.32794   0.33371   0.33593
 Alpha virt. eigenvalues --    0.33785   0.34851   0.35193   0.35833   0.36358
 Alpha virt. eigenvalues --    0.36764   0.37607   0.38139   0.39475   0.39754
 Alpha virt. eigenvalues --    0.40114   0.40894   0.41423   0.41466   0.41826
 Alpha virt. eigenvalues --    0.42238   0.42672   0.43432   0.43772   0.44651
 Alpha virt. eigenvalues --    0.45078   0.45434   0.45946   0.46111   0.47298
 Alpha virt. eigenvalues --    0.47752   0.48124   0.48946   0.49144   0.49523
 Alpha virt. eigenvalues --    0.49880   0.50250   0.50620   0.50936   0.51186
 Alpha virt. eigenvalues --    0.51690   0.52070   0.52667   0.53092   0.53789
 Alpha virt. eigenvalues --    0.54047   0.54692   0.54889   0.55178   0.55490
 Alpha virt. eigenvalues --    0.55866   0.56235   0.56865   0.57238   0.57482
 Alpha virt. eigenvalues --    0.57992   0.58335   0.59161   0.59446   0.59740
 Alpha virt. eigenvalues --    0.60353   0.60678   0.60840   0.61268   0.61521
 Alpha virt. eigenvalues --    0.62019   0.62179   0.62837   0.63042   0.63697
 Alpha virt. eigenvalues --    0.63892   0.64803   0.64881   0.65015   0.65383
 Alpha virt. eigenvalues --    0.65775   0.66042   0.66705   0.66862   0.67406
 Alpha virt. eigenvalues --    0.67908   0.68138   0.68713   0.68825   0.70108
 Alpha virt. eigenvalues --    0.70158   0.70666   0.71121   0.71340   0.71659
 Alpha virt. eigenvalues --    0.72448   0.72867   0.73137   0.73556   0.73886
 Alpha virt. eigenvalues --    0.74074   0.74551   0.74700   0.74923   0.75348
 Alpha virt. eigenvalues --    0.75717   0.76332   0.76457   0.76747   0.76970
 Alpha virt. eigenvalues --    0.77217   0.77438   0.78174   0.78453   0.78927
 Alpha virt. eigenvalues --    0.79461   0.79593   0.79924   0.80498   0.80851
 Alpha virt. eigenvalues --    0.81262   0.82284   0.82748   0.82868   0.83208
 Alpha virt. eigenvalues --    0.83267   0.83971   0.84833   0.85103   0.85129
 Alpha virt. eigenvalues --    0.85650   0.86037   0.86955   0.87384   0.87841
 Alpha virt. eigenvalues --    0.88363   0.88632   0.88758   0.89158   0.89521
 Alpha virt. eigenvalues --    0.90425   0.90607   0.91375   0.91917   0.92357
 Alpha virt. eigenvalues --    0.92495   0.93362   0.93662   0.94075   0.94742
 Alpha virt. eigenvalues --    0.95150   0.95275   0.95661   0.96407   0.96822
 Alpha virt. eigenvalues --    0.96900   0.97599   0.97781   0.98154   0.98855
 Alpha virt. eigenvalues --    0.99358   1.00096   1.00615   1.01094   1.01273
 Alpha virt. eigenvalues --    1.01873   1.02287   1.02537   1.02986   1.03219
 Alpha virt. eigenvalues --    1.03867   1.04500   1.04790   1.05297   1.05971
 Alpha virt. eigenvalues --    1.06303   1.06539   1.07068   1.07321   1.08400
 Alpha virt. eigenvalues --    1.08936   1.09708   1.10264   1.11009   1.11389
 Alpha virt. eigenvalues --    1.12356   1.12610   1.12942   1.13193   1.13787
 Alpha virt. eigenvalues --    1.13966   1.14372   1.14891   1.15368   1.15755
 Alpha virt. eigenvalues --    1.15982   1.16451   1.17296   1.17478   1.17813
 Alpha virt. eigenvalues --    1.18406   1.19348   1.19533   1.19841   1.19954
 Alpha virt. eigenvalues --    1.20825   1.21095   1.21526   1.21691   1.22039
 Alpha virt. eigenvalues --    1.22192   1.22417   1.22713   1.23092   1.23307
 Alpha virt. eigenvalues --    1.24112   1.24492   1.24868   1.26099   1.26263
 Alpha virt. eigenvalues --    1.26584   1.26995   1.28173   1.28307   1.29243
 Alpha virt. eigenvalues --    1.29683   1.30380   1.30897   1.31208   1.31738
 Alpha virt. eigenvalues --    1.32036   1.33216   1.33966   1.34458   1.35083
 Alpha virt. eigenvalues --    1.35573   1.35728   1.36039   1.37006   1.37629
 Alpha virt. eigenvalues --    1.38118   1.38806   1.39772   1.40067   1.40923
 Alpha virt. eigenvalues --    1.41177   1.42754   1.43820   1.44956   1.45277
 Alpha virt. eigenvalues --    1.45814   1.47464   1.48047   1.48175   1.48463
 Alpha virt. eigenvalues --    1.48878   1.49550   1.49908   1.50322   1.50759
 Alpha virt. eigenvalues --    1.51969   1.52299   1.53621   1.53953   1.54928
 Alpha virt. eigenvalues --    1.55588   1.56336   1.56666   1.56754   1.58219
 Alpha virt. eigenvalues --    1.59114   1.59488   1.59575   1.60740   1.61622
 Alpha virt. eigenvalues --    1.61820   1.62708   1.63045   1.63584   1.64164
 Alpha virt. eigenvalues --    1.64801   1.66040   1.66184   1.66592   1.67250
 Alpha virt. eigenvalues --    1.67370   1.67821   1.68614   1.69011   1.69881
 Alpha virt. eigenvalues --    1.70002   1.70442   1.70748   1.71293   1.71935
 Alpha virt. eigenvalues --    1.72270   1.72317   1.72874   1.73596   1.74049
 Alpha virt. eigenvalues --    1.74175   1.74668   1.74803   1.75453   1.75686
 Alpha virt. eigenvalues --    1.76019   1.76357   1.76988   1.77427   1.77743
 Alpha virt. eigenvalues --    1.78437   1.78515   1.78944   1.79355   1.79505
 Alpha virt. eigenvalues --    1.79693   1.80117   1.80238   1.80305   1.80964
 Alpha virt. eigenvalues --    1.81137   1.81588   1.81742   1.81880   1.82588
 Alpha virt. eigenvalues --    1.83472   1.83724   1.84063   1.84287   1.84701
 Alpha virt. eigenvalues --    1.85190   1.86690   1.86901   1.87173   1.87629
 Alpha virt. eigenvalues --    1.88123   1.88300   1.88959   1.89115   1.89907
 Alpha virt. eigenvalues --    1.90160   1.90458   1.90630   1.90834   1.91587
 Alpha virt. eigenvalues --    1.92030   1.92385   1.93042   1.93501   1.93621
 Alpha virt. eigenvalues --    1.94361   1.95187   1.96078   1.97033   1.97732
 Alpha virt. eigenvalues --    1.98348   1.99798   2.00543   2.00946   2.01320
 Alpha virt. eigenvalues --    2.02030   2.02244   2.02652   2.04261   2.04609
 Alpha virt. eigenvalues --    2.04823   2.05559   2.06294   2.06682   2.07132
 Alpha virt. eigenvalues --    2.07866   2.08357   2.08850   2.09479   2.10174
 Alpha virt. eigenvalues --    2.11060   2.11535   2.12023   2.12406   2.13339
 Alpha virt. eigenvalues --    2.13944   2.14869   2.16078   2.18131   2.19240
 Alpha virt. eigenvalues --    2.19466   2.19808   2.20653   2.20971   2.21236
 Alpha virt. eigenvalues --    2.21810   2.22085   2.23245   2.23521   2.23806
 Alpha virt. eigenvalues --    2.23984   2.25263   2.25896   2.26471   2.26998
 Alpha virt. eigenvalues --    2.27827   2.28557   2.29224   2.29298   2.29970
 Alpha virt. eigenvalues --    2.30271   2.30776   2.31437   2.32501   2.33053
 Alpha virt. eigenvalues --    2.33994   2.34188   2.34313   2.34757   2.35334
 Alpha virt. eigenvalues --    2.35609   2.36873   2.37320   2.37844   2.37977
 Alpha virt. eigenvalues --    2.38433   2.40123   2.40458   2.41058   2.41225
 Alpha virt. eigenvalues --    2.41782   2.42380   2.42921   2.43467   2.44837
 Alpha virt. eigenvalues --    2.45390   2.45698   2.46191   2.46792   2.47697
 Alpha virt. eigenvalues --    2.48811   2.49212   2.49822   2.50264   2.51964
 Alpha virt. eigenvalues --    2.52985   2.53753   2.54869   2.54985   2.56848
 Alpha virt. eigenvalues --    2.56894   2.57591   2.57846   2.58409   2.59788
 Alpha virt. eigenvalues --    2.60873   2.61213   2.61491   2.62157   2.64184
 Alpha virt. eigenvalues --    2.64456   2.65158   2.65274   2.65720   2.66453
 Alpha virt. eigenvalues --    2.67451   2.67589   2.68445   2.68894   2.69277
 Alpha virt. eigenvalues --    2.70349   2.71053   2.71577   2.72164   2.73261
 Alpha virt. eigenvalues --    2.73879   2.74748   2.75057   2.75171   2.76324
 Alpha virt. eigenvalues --    2.78034   2.79077   2.79482   2.79700   2.79899
 Alpha virt. eigenvalues --    2.80187   2.80843   2.81098   2.81600   2.82198
 Alpha virt. eigenvalues --    2.82378   2.82856   2.83278   2.83765   2.84031
 Alpha virt. eigenvalues --    2.85354   2.86045   2.86656   2.87022   2.87201
 Alpha virt. eigenvalues --    2.88179   2.88907   2.89467   2.92050   2.92934
 Alpha virt. eigenvalues --    2.94620   2.96299   2.96808   2.98731   2.99333
 Alpha virt. eigenvalues --    2.99833   3.02049   3.04375   3.05130   3.06291
 Alpha virt. eigenvalues --    3.07854   3.09556   3.10937   3.14082   3.14508
 Alpha virt. eigenvalues --    3.15299   3.15970   3.16343   3.17943   3.20914
 Alpha virt. eigenvalues --    3.22049   3.23312   3.23461   3.24330   3.27406
 Alpha virt. eigenvalues --    3.45918   3.46910   3.48238   3.49972   3.50340
 Alpha virt. eigenvalues --    3.52870   3.54001   3.56570   3.58331   3.60121
 Alpha virt. eigenvalues --    3.62981   3.71279   3.74667
          Condensed to atoms (all electrons):
 Mulliken charges:
               1
     1  N   -0.311779
     2  C    0.180548
     3  C    0.040568
     4  N   -0.257965
     5  C    0.133809
     6  H    0.028598
     7  N   -0.279913
     8  C    0.120883
     9  H    0.016505
    10  N   -0.289127
    11  C    0.235115
    12  C    0.113826
    13  N   -0.050029
    14  H    0.108093
    15  H    0.088333
    16  H    0.027157
    17  H    0.034510
    18  H    0.026506
    19  N   -0.302732
    20  C    0.232261
    21  C    0.180965
    22  N   -0.097283
    23  H    0.108027
    24  H    0.117231
    25  N   -0.289923
    26  C    0.212108
    27  N   -0.115153
    28  H    0.120655
    29  C    0.135568
    30  O   -0.319373
    31  C    0.014800
    32  N   -0.221880
    33  C    0.124280
    34  H    0.028063
    35  H    0.027481
    36  H    0.026796
    37  H    0.023482
    38  H    0.058032
    39  H    0.062988
    40  H    0.070218
    41  H    0.030609
    42  C   -0.112505
    43  O   -0.269007
    44  C    0.174674
    45  H    0.137024
    46  N   -0.134280
    47  O   -0.351573
    48  C    0.359175
    49  H    0.047346
    50  C    0.178942
    51  C    0.038598
    52  N   -0.290569
    53  H    0.035329
    54  H    0.032000
    55  H    0.024499
    56  H    0.122348
    57  H    0.117714
    58  N   -0.061134
    59  C    0.118924
    60  C    0.229157
    61  N   -0.264246
    62  H    0.058557
    63  C    0.152060
    64  N   -0.299857
    65  H    0.028248
    66  C    0.124625
    67  N   -0.260566
    68  C    0.011949
    69  C    0.165231
    70  N   -0.305521
 Sum of Mulliken charges =  -0.00000
 Mulliken charges with hydrogens summed into heavy atoms:
               1
     1  N   -0.311779
     2  C    0.268720
     3  C    0.040568
     4  N   -0.257965
     5  C    0.162408
     7  N   -0.279913
     8  C    0.137388
    10  N   -0.289127
    11  C    0.235115
    12  C    0.113826
    13  N    0.146397
    19  N   -0.302732
    20  C    0.232261
    21  C    0.258724
    22  N    0.127975
    25  N   -0.289923
    26  C    0.212108
    27  N    0.005502
    29  C    0.135568
    30  O   -0.319373
    31  C    0.014800
    32  N   -0.221880
    33  C    0.152344
    42  C   -0.081896
    43  O   -0.269007
    44  C    0.174674
    46  N    0.002744
    47  O   -0.351573
    48  C    0.359175
    50  C    0.226288
    51  C    0.229837
    52  N   -0.290569
    58  N    0.178928
    59  C    0.118924
    60  C    0.229157
    61  N   -0.264246
    63  C    0.210618
    64  N   -0.299857
    66  C    0.152873
    67  N   -0.260566
    68  C    0.011949
    69  C    0.257058
    70  N   -0.305521
 Electronic spatial extent (au):  <R**2>=          23546.2354
 Charge=              0.0000 electrons
 Dipole moment (field-independent basis, Debye):
    X=              6.6085    Y=              5.9240    Z=              3.1954  Tot=              9.4327
 Quadrupole moment (field-independent basis, Debye-Ang):
   XX=           -141.9649   YY=           -225.3872   ZZ=           -254.4633
   XY=             10.4582   XZ=             13.6539   YZ=             -9.0225
 Traceless Quadrupole moment (field-independent basis, Debye-Ang):
   XX=             65.3069   YY=            -18.1154   ZZ=            -47.1915
   XY=             10.4582   XZ=             13.6539   YZ=             -9.0225
 Octapole moment (field-independent basis, Debye-Ang**2):
  XXX=              8.3691  YYY=             97.6735  ZZZ=              8.4552  XYY=             53.2832
  XXY=            -12.0245  XXZ=            -57.7544  XZZ=             20.0854  YZZ=             37.2728
  YYZ=             57.7914  XYZ=             39.2432
 Hexadecapole moment (field-independent basis, Debye-Ang**3):
 XXXX=         -15905.3605 YYYY=          -5058.7602 ZZZZ=          -3159.6815 XXXY=            481.4904
 XXXZ=            170.3015 YYYX=             74.1099 YYYZ=           -106.6417 ZZZX=             54.8347
 ZZZY=             20.2017 XXYY=          -4194.0129 XXZZ=          -4247.3105 YYZZ=          -1408.8927
 XXYZ=             86.8390 YYXZ=            216.6233 ZZXY=             66.5866
 N-N= 5.497553170375D+03 E-N=-1.577593951435D+04  KE= 2.037815029727D+03
 No NMR shielding tensors so no spin-rotation constants.
 Leave Link  601 at Mon Jan 22 16:28:40 2018, MaxMem=  4294967296 cpu:              45.9 elap:               1.6
 (Enter /share/apps/g16/l9999.exe)
 1\1\GINC-COMPUTE-0-3\SP\RwB97XD\CC-pVDZ\C23H27N17O3\SATYA\22-Jan-2018\
 0\\#p wb97xd/cc-pvdz sp scf=(maxcycles=20)\\Base pair stacking\\0,1\N,
 0,6.54049,6.52449,-6.92937\C,0,7.24064,7.8214,-7.00568\C,0,4.98736,4.9
 7488,-6.77501\N,0,6.19723,4.30322,-6.87413\C,0,7.0845,5.26368,-6.96316
 \H,0,8.15967,5.10783,-7.05621\N,0,2.68654,5.45463,-6.57753\C,0,3.02984
 ,6.74603,-6.62232\H,0,2.2013,7.44997,-6.55718\N,0,4.23729,7.29584,-6.7
 3496\C,0,5.18298,6.34462,-6.80765\C,0,3.66109,4.52208,-6.65298\N,0,3.3
 2038,3.23247,-6.60844\H,0,4.00868,2.50811,-6.66099\H,0,2.36604,2.94656
 ,-6.52109\H,0,7.74074,7.88142,-7.86966\H,0,6.57394,8.56443,-6.95525\H,
 0,7.8838,7.90066,-6.24406\N,0,2.05962,6.577,-3.29772\C,0,1.05389,5.642
 53,-3.24005\C,0,1.86402,8.04002,-3.34263\N,0,-2.32989,4.86861,-3.12688
 \H,0,-2.89761,4.04695,-3.08429\H,0,-2.80566,5.74841,-3.1447\N,0,-0.271
 33,5.90176,-3.21492\C,0,-0.99068,4.79497,-3.1587\N,0,-0.45515,3.53012,
 -3.12927\H,0,-1.08169,2.74109,-3.08628\C,0,0.90535,3.23982,-3.15425\O,
 0,1.28446,2.0625,-3.12379\C,0,1.69091,4.41886,-3.21462\N,0,3.06883,4.5
 8183,-3.25551\C,0,3.24026,5.87507,-3.30404\H,0,4.21022,6.37175,-3.3458
 6\H,0,2.26429,8.40588,-4.18212\H,0,0.88613,8.24412,-3.32452\H,0,2.3060
 9,8.46152,-2.5516\H,0,-4.73461,-0.76874,-3.52216\H,0,-4.50632,-0.92259
 ,-1.7818\H,0,-4.254,0.63556,-2.5691\H,0,-0.7203,-3.41726,-3.39093\C,0,
 -1.02917,-2.38026,-3.25874\O,0,1.16619,-1.50672,-3.4695\C,0,-0.04165,-
 1.34528,-3.29678\H,0,0.12894,0.68806,-3.1394\N,0,-0.53871,-0.06993,-3.
 11883\O,0,-2.1923,1.44653,-2.76785\C,0,-1.84821,0.28702,-2.9155\H,0,-3
 .10375,-2.81295,-3.02486\C,0,-2.31431,-2.06346,-3.06215\C,0,-4.15162,-
 0.43401,-2.67709\N,0,-2.74058,-0.7667,-2.89159\H,0,-5.04225,3.81728,-6
 .06065\H,0,-3.88703,4.55007,-5.17151\H,0,-4.88459,3.46158,-4.47571\H,0
 ,1.36249,0.12199,-6.68484\H,0,-0.15693,-0.65324,-6.70712\N,0,0.37088,0
 .186,-6.57184\C,0,-0.22223,1.33878,-6.25484\C,0,-2.0787,2.74116,-5.756
 27\N,0,-1.34466,3.85236,-5.58064\H,0,0.61697,4.4428,-5.64372\C,0,-0.05
 221,3.59242,-5.76743\N,0,0.54381,2.43851,-6.08497\H,0,-4.74304,0.91553
 ,-5.89968\C,0,-3.72213,1.29819,-5.91564\N,0,-2.66035,0.57772,-6.18253\
 C,0,-1.61146,1.48052,-6.08488\C,0,-4.38993,3.69777,-5.3122\N,0,-3.4435
 5,2.6164,-5.64837\\Version=EM64L-G16RevA.03\State=1-A\HF=-2048.7329903
 \RMSD=6.226e-09\Dipole=-3.6996867,0.2906005,-0.0176395\Quadrupole=28.4
 709284,1.3203217,-29.7912502,31.034173,-16.3563347,3.5887572\PG=C01 [X
 (C23H27N17O3)]\\@


 There ain't no surer way to find out whether you
 like people or hate them than to travel with them.
                                     -- Mark Twain
 Job cpu time:       0 days  6 hours  5 minutes  3.7 seconds.
 Elapsed time:       0 days  0 hours 11 minutes 48.1 seconds.
 File lengths (MBytes):  RWF=    298 Int=      0 D2E=      0 Chk=     33 Scr=      1
 Normal termination of Gaussian 16 at Mon Jan 22 16:28:41 2018.
