 Entering Gaussian System, Link 0=g16
 Input=str35.15.-2.5.com
 Output=str35.15.-2.5.log
 Initial command:
 /share/apps/g16/l1.exe "/state/partition1/scr/Gau-4025.inp" -scrdir="/state/partition1/scr/"
 Entering Link 1 = /share/apps/g16/l1.exe PID=      4026.
  
 Copyright (c) 1988,1990,1992,1993,1995,1998,2003,2009,2016,
            Gaussian, Inc.  All Rights Reserved.
  
 This is part of the Gaussian(R) 16 program.  It is based on
 the Gaussian(R) 09 system (copyright 2009, Gaussian, Inc.),
 the Gaussian(R) 03 system (copyright 2003, Gaussian, Inc.),
 the Gaussian(R) 98 system (copyright 1998, Gaussian, Inc.),
 the Gaussian(R) 94 system (copyright 1995, Gaussian, Inc.),
 the Gaussian 92(TM) system (copyright 1992, Gaussian, Inc.),
 the Gaussian 90(TM) system (copyright 1990, Gaussian, Inc.),
 the Gaussian 88(TM) system (copyright 1988, Gaussian, Inc.),
 the Gaussian 86(TM) system (copyright 1986, Carnegie Mellon
 University), and the Gaussian 82(TM) system (copyright 1983,
 Carnegie Mellon University). Gaussian is a federally registered
 trademark of Gaussian, Inc.
  
 This software contains proprietary and confidential information,
 including trade secrets, belonging to Gaussian, Inc.
  
 This software is provided under written license and may be
 used, copied, transmitted, or stored only in accord with that
 written license.
  
 The following legend is applicable only to US Government
 contracts under FAR:
  
                    RESTRICTED RIGHTS LEGEND
  
 Use, reproduction and disclosure by the US Government is
 subject to restrictions as set forth in subparagraphs (a)
 and (c) of the Commercial Computer Software - Restricted
 Rights clause in FAR 52.227-19.
  
 Gaussian, Inc.
 340 Quinnipiac St., Bldg. 40, Wallingford CT 06492
  
  
 ---------------------------------------------------------------
 Warning -- This program may not be used in any manner that
 competes with the business of Gaussian, Inc. or will provide
 assistance to any competitor of Gaussian, Inc.  The licensee
 of this program is prohibited from giving any competitor of
 Gaussian, Inc. access to this program.  By using this program,
 the user acknowledges that Gaussian, Inc. is engaged in the
 business of creating and licensing software in the field of
 computational chemistry and represents and warrants to the
 licensee that it is not a competitor of Gaussian, Inc. and that
 it will not use this program in any manner prohibited above.
 ---------------------------------------------------------------
  

 Cite this work as:
 Gaussian 16, Revision A.03,
 M. J. Frisch, G. W. Trucks, H. B. Schlegel, G. E. Scuseria, 
 M. A. Robb, J. R. Cheeseman, G. Scalmani, V. Barone, 
 G. A. Petersson, H. Nakatsuji, X. Li, M. Caricato, A. V. Marenich, 
 J. Bloino, B. G. Janesko, R. Gomperts, B. Mennucci, H. P. Hratchian, 
 J. V. Ortiz, A. F. Izmaylov, J. L. Sonnenberg, D. Williams-Young, 
 F. Ding, F. Lipparini, F. Egidi, J. Goings, B. Peng, A. Petrone, 
 T. Henderson, D. Ranasinghe, V. G. Zakrzewski, J. Gao, N. Rega, 
 G. Zheng, W. Liang, M. Hada, M. Ehara, K. Toyota, R. Fukuda, 
 J. Hasegawa, M. Ishida, T. Nakajima, Y. Honda, O. Kitao, H. Nakai, 
 T. Vreven, K. Throssell, J. A. Montgomery, Jr., J. E. Peralta, 
 F. Ogliaro, M. J. Bearpark, J. J. Heyd, E. N. Brothers, K. N. Kudin, 
 V. N. Staroverov, T. A. Keith, R. Kobayashi, J. Normand, 
 K. Raghavachari, A. P. Rendell, J. C. Burant, S. S. Iyengar, 
 J. Tomasi, M. Cossi, J. M. Millam, M. Klene, C. Adamo, R. Cammi, 
 J. W. Ochterski, R. L. Martin, K. Morokuma, O. Farkas, 
 J. B. Foresman, and D. J. Fox, Gaussian, Inc., Wallingford CT, 2016.
 
 ******************************************
 Gaussian 16:  EM64L-G16RevA.03 25-Dec-2016
                22-Jan-2018 
 ******************************************
 %nprocshared=32
 Will use up to   32 processors via shared memory.
 %mem=32GB
 %chk=allatoms_t.chk
 ---------------------------------------
 #p wb97xd/cc-pvdz sp scf=(maxcycles=20)
 ---------------------------------------
 1/38=1,172=1/1;
 2/12=2,17=6,18=5,40=1/2;
 3/5=16,11=2,25=1,30=1,74=-58/1,2,3;
 4//1;
 5/5=2,7=20,38=5/2;
 6/7=2,8=2,9=2,10=2,28=1/1;
 99/5=1,9=1/99;
 Leave Link    1 at Mon Jan 22 08:50:49 2018, MaxMem=  4294967296 cpu:               2.7 elap:               0.1
 (Enter /share/apps/g16/l101.exe)
 ------------------
 Base pair stacking
 ------------------
 Symbolic Z-matrix:
 Charge =  0 Multiplicity = 1
 N                     8.95441   6.61287  -4.64218 
 C                     9.74898   7.84677  -4.79756 
 C                     7.35119   5.11146  -4.75521 
 N                     8.3745    4.53186  -4.01925 
 C                     9.29942   5.45961  -3.9806 
 H                     10.26175   5.35514  -3.47867 
 N                     5.30939   5.47115  -5.87976 
 C                     5.77769   6.68643  -6.182 
 H                     5.10621   7.3105   -6.77015 
 N                     6.94545   7.24395  -5.86828 
 C                     7.69414   6.3941   -5.14603 
 C                     6.08665   4.63977  -5.15192 
 N                     5.62093   3.42624  -4.84922 
 H                     6.16201   2.77787  -4.31249 
 H                     4.71581   3.12399  -5.14844 
 H                     10.60504   7.63633  -5.26986 
 H                     9.22987   8.51334  -5.33172 
 H                     9.95283   8.2301   -3.89673 
 N                     2.79784   7.01899  -3.1035 
 C                     1.80565   6.08329  -3.27105 
 C                     2.65522   8.46799  -3.35003 
 N                    -1.46002   5.28535  -4.14307 
 H                    -2.0291    4.46546  -4.19939 
 H                    -1.88892   6.15348  -4.39427 
 N                     0.5439    6.3284   -3.68571 
 C                    -0.17919   5.2244   -3.74853 
 N                     0.29518   3.97498  -3.43005 
 H                    -0.32926   3.18692  -3.50752 
 C                     1.58979   3.69938  -3.0012 
 O                     1.91697   2.53534  -2.73908 
 C                     2.37851   4.87562  -2.92876 
 N                     3.70368   5.04964  -2.55386 
 C                     3.90751   6.33359  -2.67281 
 H                     4.85204   6.83485  -2.45859 
 H                     3.30413   8.75338  -4.05449 
 H                     1.72455   8.66156  -3.65769 
 H                     2.83745   8.97094  -2.50585 
 H                    -3.73443  -0.39082  -4.7147 
 H                    -4.06231  -0.36867  -2.98362 
 H                    -3.54638   1.10654  -3.80151 
 H                    -0.01417  -2.96669  -3.08036 
 C                    -0.32805  -1.92534  -3.15313 
 O                     1.84086  -1.0517   -2.75351 
 C                     0.64273  -0.88789  -2.98254 
 H                     0.79647   1.15287  -2.97954 
 N                     0.14057   0.39299  -3.09405 
 O                    -1.50946   1.91757  -3.42609 
 C                    -1.15975   0.75319  -3.34495 
 H                    -2.38059  -2.35665  -3.53638 
 C                    -1.60394  -1.60547  -3.39889 
 C                    -3.43688   0.03278  -3.76703 
 N                    -2.0361   -0.30321  -3.49741 
 H                    -1.85172   3.59092  -8.68432 
 H                    -1.18842   4.66472  -7.65036 
 H                    -2.51473   3.82099  -7.21092 
 H                     3.59704   0.35747  -4.82152 
 H                     2.19661  -0.47915  -5.32046 
 N                     2.68734   0.38874  -5.23576 
 C                     2.15152   1.53625  -5.65683 
 C                     0.45793   2.89379  -6.6318 
 N                     1.13999   4.04411  -6.5053 
 H                     2.94496   4.70854  -5.79733 
 C                     2.32438   3.82458  -5.93793 
 N                     2.86286   2.67602  -5.5155 
 H                    -2.00125   0.95454  -7.43423 
 C                    -1.06131   1.37667  -7.07748 
 N                    -0.09208   0.68289  -6.53255 
 C                     0.87741   1.63278  -6.24528 
 C                    -1.65639   3.78445  -7.72287 
 N                    -0.79577   2.72123  -7.16887 
 
 ITRead=  0  0  0  0  0  0  0  0  0  0  0  0  0  0  0  0  0  0  0  0
 ITRead=  0  0  0  0  0  0  0  0  0  0  0  0  0  0  0  0  0  0  0  0
 ITRead=  0  0  0  0  0  0  0  0  0  0  0  0  0  0  0  0  0  0  0  0
 ITRead=  0  0  0  0  0  0  0  0  0  0
 MicOpt= -1 -1 -1 -1 -1 -1 -1 -1 -1 -1 -1 -1 -1 -1 -1 -1 -1 -1 -1 -1
 MicOpt= -1 -1 -1 -1 -1 -1 -1 -1 -1 -1 -1 -1 -1 -1 -1 -1 -1 -1 -1 -1
 MicOpt= -1 -1 -1 -1 -1 -1 -1 -1 -1 -1 -1 -1 -1 -1 -1 -1 -1 -1 -1 -1
 MicOpt= -1 -1 -1 -1 -1 -1 -1 -1 -1 -1
 NAtoms=     70 NQM=       70 NQMF=       0 NMMI=      0 NMMIF=      0
                NMic=       0 NMicF=      0.
                    Isotopes and Nuclear Properties:
 (Nuclear quadrupole moments (NQMom) in fm**2, nuclear magnetic moments (NMagM)
  in nuclear magnetons)

  Atom         1           2           3           4           5           6           7           8           9          10
 IAtWgt=          14          12          12          14          12           1          14          12           1          14
 AtmWgt=  14.0030740  12.0000000  12.0000000  14.0030740  12.0000000   1.0078250  14.0030740  12.0000000   1.0078250  14.0030740
 NucSpn=           2           0           0           2           0           1           2           0           1           2
 AtZEff=  -0.0000000  -0.0000000  -0.0000000  -0.0000000  -0.0000000  -0.0000000  -0.0000000  -0.0000000  -0.0000000  -0.0000000
 NQMom=    2.0440000   0.0000000   0.0000000   2.0440000   0.0000000   0.0000000   2.0440000   0.0000000   0.0000000   2.0440000
 NMagM=    0.4037610   0.0000000   0.0000000   0.4037610   0.0000000   2.7928460   0.4037610   0.0000000   2.7928460   0.4037610
 AtZNuc=   7.0000000   6.0000000   6.0000000   7.0000000   6.0000000   1.0000000   7.0000000   6.0000000   1.0000000   7.0000000

  Atom        11          12          13          14          15          16          17          18          19          20
 IAtWgt=          12          12          14           1           1           1           1           1          14          12
 AtmWgt=  12.0000000  12.0000000  14.0030740   1.0078250   1.0078250   1.0078250   1.0078250   1.0078250  14.0030740  12.0000000
 NucSpn=           0           0           2           1           1           1           1           1           2           0
 AtZEff=  -0.0000000  -0.0000000  -0.0000000  -0.0000000  -0.0000000  -0.0000000  -0.0000000  -0.0000000  -0.0000000  -0.0000000
 NQMom=    0.0000000   0.0000000   2.0440000   0.0000000   0.0000000   0.0000000   0.0000000   0.0000000   2.0440000   0.0000000
 NMagM=    0.0000000   0.0000000   0.4037610   2.7928460   2.7928460   2.7928460   2.7928460   2.7928460   0.4037610   0.0000000
 AtZNuc=   6.0000000   6.0000000   7.0000000   1.0000000   1.0000000   1.0000000   1.0000000   1.0000000   7.0000000   6.0000000

  Atom        21          22          23          24          25          26          27          28          29          30
 IAtWgt=          12          14           1           1          14          12          14           1          12          16
 AtmWgt=  12.0000000  14.0030740   1.0078250   1.0078250  14.0030740  12.0000000  14.0030740   1.0078250  12.0000000  15.9949146
 NucSpn=           0           2           1           1           2           0           2           1           0           0
 AtZEff=  -0.0000000  -0.0000000  -0.0000000  -0.0000000  -0.0000000  -0.0000000  -0.0000000  -0.0000000  -0.0000000  -0.0000000
 NQMom=    0.0000000   2.0440000   0.0000000   0.0000000   2.0440000   0.0000000   2.0440000   0.0000000   0.0000000   0.0000000
 NMagM=    0.0000000   0.4037610   2.7928460   2.7928460   0.4037610   0.0000000   0.4037610   2.7928460   0.0000000   0.0000000
 AtZNuc=   6.0000000   7.0000000   1.0000000   1.0000000   7.0000000   6.0000000   7.0000000   1.0000000   6.0000000   8.0000000

  Atom        31          32          33          34          35          36          37          38          39          40
 IAtWgt=          12          14          12           1           1           1           1           1           1           1
 AtmWgt=  12.0000000  14.0030740  12.0000000   1.0078250   1.0078250   1.0078250   1.0078250   1.0078250   1.0078250   1.0078250
 NucSpn=           0           2           0           1           1           1           1           1           1           1
 AtZEff=  -0.0000000  -0.0000000  -0.0000000  -0.0000000  -0.0000000  -0.0000000  -0.0000000  -0.0000000  -0.0000000  -0.0000000
 NQMom=    0.0000000   2.0440000   0.0000000   0.0000000   0.0000000   0.0000000   0.0000000   0.0000000   0.0000000   0.0000000
 NMagM=    0.0000000   0.4037610   0.0000000   2.7928460   2.7928460   2.7928460   2.7928460   2.7928460   2.7928460   2.7928460
 AtZNuc=   6.0000000   7.0000000   6.0000000   1.0000000   1.0000000   1.0000000   1.0000000   1.0000000   1.0000000   1.0000000

  Atom        41          42          43          44          45          46          47          48          49          50
 IAtWgt=           1          12          16          12           1          14          16          12           1          12
 AtmWgt=   1.0078250  12.0000000  15.9949146  12.0000000   1.0078250  14.0030740  15.9949146  12.0000000   1.0078250  12.0000000
 NucSpn=           1           0           0           0           1           2           0           0           1           0
 AtZEff=  -0.0000000  -0.0000000  -0.0000000  -0.0000000  -0.0000000  -0.0000000  -0.0000000  -0.0000000  -0.0000000  -0.0000000
 NQMom=    0.0000000   0.0000000   0.0000000   0.0000000   0.0000000   2.0440000   0.0000000   0.0000000   0.0000000   0.0000000
 NMagM=    2.7928460   0.0000000   0.0000000   0.0000000   2.7928460   0.4037610   0.0000000   0.0000000   2.7928460   0.0000000
 AtZNuc=   1.0000000   6.0000000   8.0000000   6.0000000   1.0000000   7.0000000   8.0000000   6.0000000   1.0000000   6.0000000

  Atom        51          52          53          54          55          56          57          58          59          60
 IAtWgt=          12          14           1           1           1           1           1          14          12          12
 AtmWgt=  12.0000000  14.0030740   1.0078250   1.0078250   1.0078250   1.0078250   1.0078250  14.0030740  12.0000000  12.0000000
 NucSpn=           0           2           1           1           1           1           1           2           0           0
 AtZEff=  -0.0000000  -0.0000000  -0.0000000  -0.0000000  -0.0000000  -0.0000000  -0.0000000  -0.0000000  -0.0000000  -0.0000000
 NQMom=    0.0000000   2.0440000   0.0000000   0.0000000   0.0000000   0.0000000   0.0000000   2.0440000   0.0000000   0.0000000
 NMagM=    0.0000000   0.4037610   2.7928460   2.7928460   2.7928460   2.7928460   2.7928460   0.4037610   0.0000000   0.0000000
 AtZNuc=   6.0000000   7.0000000   1.0000000   1.0000000   1.0000000   1.0000000   1.0000000   7.0000000   6.0000000   6.0000000

  Atom        61          62          63          64          65          66          67          68          69          70
 IAtWgt=          14           1          12          14           1          12          14          12          12          14
 AtmWgt=  14.0030740   1.0078250  12.0000000  14.0030740   1.0078250  12.0000000  14.0030740  12.0000000  12.0000000  14.0030740
 NucSpn=           2           1           0           2           1           0           2           0           0           2
 AtZEff=  -0.0000000  -0.0000000  -0.0000000  -0.0000000  -0.0000000  -0.0000000  -0.0000000  -0.0000000  -0.0000000  -0.0000000
 NQMom=    2.0440000   0.0000000   0.0000000   2.0440000   0.0000000   0.0000000   2.0440000   0.0000000   0.0000000   2.0440000
 NMagM=    0.4037610   2.7928460   0.0000000   0.4037610   2.7928460   0.0000000   0.4037610   0.0000000   0.0000000   0.4037610
 AtZNuc=   7.0000000   1.0000000   6.0000000   7.0000000   1.0000000   6.0000000   7.0000000   6.0000000   6.0000000   7.0000000
 Leave Link  101 at Mon Jan 22 08:50:49 2018, MaxMem=  4294967296 cpu:               7.3 elap:               0.3
 (Enter /share/apps/g16/l202.exe)
 Stoichiometry    C23H27N17O3
 Framework group  C1[X(C23H27N17O3)]
 Deg. of freedom   204
 Full point group                 C1      NOp   1
 Largest Abelian subgroup         C1      NOp   1
 Largest concise Abelian subgroup C1      NOp   1
                         Standard orientation:                         
 ---------------------------------------------------------------------
 Center     Atomic      Atomic             Coordinates (Angstroms)
 Number     Number       Type             X           Y           Z
 ---------------------------------------------------------------------
      1          7           0       -7.208202   -1.234874    0.074955
      2          6           0       -8.568016   -0.666569    0.151953
      3          6           0       -5.038174   -1.538708    0.264659
      4          7           0       -5.530478   -2.656417   -0.393445
      5          6           0       -6.818136   -2.428625   -0.481405
      6          1           0       -7.536873   -3.103964   -0.946444
      7          7           0       -3.593343    0.011901    1.299556
      8          6           0       -4.678105    0.763086    1.515362
      9          1           0       -4.496561    1.704392    2.032328
     10          7           0       -5.947513    0.527188    1.189991
     11          6           0       -6.060520   -0.653712    0.559808
     12          6           0       -3.740210   -1.170652    0.663099
     13          7           0       -2.658554   -1.921915    0.446765
     14          1           0       -2.720381   -2.804507   -0.020610
     15          1           0       -1.750043   -1.628304    0.744307
     16          1           0       -9.161961   -1.287887    0.663211
     17          1           0       -8.534548    0.218161    0.615903
     18          1           0       -8.932849   -0.543485   -0.770944
     19          7           0       -2.348801    2.481033   -1.661156
     20          6           0       -1.004406    2.295690   -1.445984
     21          6           0       -3.063962    3.767019   -1.536647
     22          7           0        2.111500    3.577135   -0.602918
     23          1           0        3.045060    3.236065   -0.496236
     24          1           0        1.962589    4.551934   -0.434698
     25          7           0       -0.117994    3.249542   -1.087548
     26          6           0        1.103911    2.764589   -0.955673
     27          7           0        1.434545    1.446669   -1.158836
     28          1           0        2.394907    1.164921   -1.035186
     29          6           0        0.538878    0.447993   -1.528036
     30          8           0        0.940340   -0.711581   -1.686019
     31          6           0       -0.777890    0.953783   -1.673523
     32          7           0       -1.956366    0.309633   -2.024485
     33          6           0       -2.858842    1.252685   -2.004164
     34          1           0       -3.915217    1.106258   -2.232021
     35          1           0       -3.776090    3.688181   -0.839902
     36          1           0       -2.417472    4.481174   -1.271497
     37          1           0       -3.480603    4.004863   -2.413372
     38          1           0        7.202980    0.281240    0.362751
     39          1           0        7.500249    0.344062   -1.372852
     40          1           0        6.216002    1.322925   -0.662986
     41          1           0        5.656070   -4.079787   -0.954449
     42          6           0        5.318117   -3.043641   -0.974834
     43          8           0        3.048427   -3.599040   -1.383674
     44          6           0        3.933338   -2.763170   -1.201854
     45          1           0        2.643194   -1.182962   -1.365623
     46          7           0        3.612442   -1.420695   -1.208217
     47          8           0        4.089824    0.793595   -1.046300
     48          6           0        4.468727   -0.364233   -1.023315
     49          1           0        7.240356   -2.194380   -0.614856
     50          6           0        6.177468   -2.034496   -0.791116
     51          6           0        6.739347    0.379967   -0.607480
     52          7           0        5.787210   -0.715525   -0.810214
     53          1           0        3.292794    2.788585    4.047911
     54          1           0        2.160036    3.203149    2.949238
     55          1           0        3.740574    3.233618    2.542965
     56          1           0        0.754147   -3.278611    0.611371
     57          1           0        2.369426   -3.122966    1.137421
     58          7           0        1.473485   -2.700319    0.996415
     59          6           0        1.249018   -1.422233    1.308334
     60          6           0        1.842325    0.733183    2.123133
     61          7           0        0.629186    1.274160    1.922930
     62          1           0       -1.215115    0.729930    1.213725
     63          6           0       -0.204709    0.372779    1.408135
     64          7           0        0.018204   -0.907794    1.095019
     65          1           0        4.948663    0.616158    3.011456
     66          6           0        3.944541    0.395956    2.647862
     67          7           0        3.557273   -0.768552    2.187827
     68          6           0        2.226237   -0.568504    1.851598
     69          6           0        3.044638    2.756405    3.079729
     70          7           0        2.957475    1.351100    2.637529
 ---------------------------------------------------------------------
 Rotational constants (GHZ):           0.1511900           0.0479192           0.0442330
 Leave Link  202 at Mon Jan 22 08:50:49 2018, MaxMem=  4294967296 cpu:               0.3 elap:               0.0
 (Enter /share/apps/g16/l301.exe)
 Standard basis: CC-pVDZ (5D, 7F)
 Ernie: Thresh=  0.10000D-02 Tol=  0.10000D-05 Strict=F.
 Ernie:  86 primitive shells out of 1081 were deleted.
 There are   780 symmetry adapted cartesian basis functions of A   symmetry.
 There are   737 symmetry adapted basis functions of A   symmetry.
   737 basis functions,  1608 primitive gaussians,   780 cartesian basis functions
   154 alpha electrons      154 beta electrons
       nuclear repulsion energy      5407.4724192109 Hartrees.
 IExCor= 4639 DFT=T Ex+Corr=wB97XD ExCW=0 ScaHFX=  1.000000
 ScaDFX=  1.000000  1.000000  1.000000  1.000000 ScalE2=  1.000000  1.000000
 IRadAn=      5 IRanWt=     -1 IRanGd=            0 ICorTp=0 IEmpDi=121
 HFx  wShort=  0.000000 wLong=  0.200000 cFull=  0.222036 cShort=  0.000000 cLong=  0.777964
 DFx  wShort=  0.000000 wLong=  0.200000 cFull=  0.000000 cShort=  0.000000 cLong=  1.000000
 NAtoms=   70 NActive=   70 NUniq=   70 SFac= 1.00D+00 NAtFMM=   60 NAOKFM=T Big=T
 Integral buffers will be    131072 words long.
 Raffenetti 2 integral format.
 Two-electron integral symmetry is turned on.
 R6Disp:  Grimme-D2 Dispersion energy=       -0.0668418157 Hartrees.
 Nuclear repulsion after empirical dispersion term =     5407.4055773953 Hartrees.
 Leave Link  301 at Mon Jan 22 08:50:49 2018, MaxMem=  4294967296 cpu:               2.1 elap:               0.1
 (Enter /share/apps/g16/l302.exe)
 NPDir=0 NMtPBC=     1 NCelOv=     1 NCel=       1 NClECP=     1 NCelD=      1
         NCelK=      1 NCelE2=     1 NClLst=     1 CellRange=     0.0.
 One-electron integrals computed using PRISM.
 One-electron integral symmetry used in STVInt
 NBasis=   737 RedAO= T EigKep=  7.09D-04  NBF=   737
 NBsUse=   737 1.00D-06 EigRej= -1.00D+00 NBFU=   737
 Precomputing XC quadrature grid using
 IXCGrd= 4 IRadAn=           5 IRanWt=          -1 IRanGd=           0 AccXCQ= 0.00D+00.
 Generated NRdTot=       0 NPtTot=           0 NUsed=           0 NTot=          32
 NSgBfM=   753   752   753   753   753 MxSgAt=    70 MxSgA2=    70.
 Leave Link  302 at Mon Jan 22 08:50:53 2018, MaxMem=  4294967296 cpu:             133.5 elap:               4.2
 (Enter /share/apps/g16/l303.exe)
 DipDrv:  MaxL=1.
 Leave Link  303 at Mon Jan 22 08:50:54 2018, MaxMem=  4294967296 cpu:              12.3 elap:               0.4
 (Enter /share/apps/g16/l401.exe)
 ExpMin= 1.22D-01 ExpMax= 1.17D+04 ExpMxC= 4.01D+02 IAcc=3 IRadAn=         5 AccDes= 0.00D+00
 Harris functional with IExCor= 4639 and IRadAn=       5 diagonalized for initial guess.
 HarFok:  IExCor= 4639 AccDes= 0.00D+00 IRadAn=         5 IDoV= 1 UseB2=F ITyADJ=14
 ICtDFT=  3500011 ScaDFX=  1.000000  1.000000  1.000000  1.000000
 FoFCou: FMM=F IPFlag=           0 FMFlag=      100000 FMFlg1=        2001
         NFxFlg=           0 DoJE=T BraDBF=F KetDBF=T FulRan=T
         wScrn=  0.000000 ICntrl=       500 IOpCl=  0 I1Cent=   200000004 NGrid=           0
         NMat0=    1 NMatS0=      1 NMatT0=    0 NMatD0=    1 NMtDS0=    0 NMtDT0=    0
 Petite list used in FoFCou.
 Harris En= -1963.88521976516    
 JPrj=0 DoOrth=F DoCkMO=F.
 Leave Link  401 at Mon Jan 22 08:51:06 2018, MaxMem=  4294967296 cpu:             385.8 elap:              12.1
 (Enter /share/apps/g16/l502.exe)
 Integral symmetry usage will be decided dynamically.
 Closed shell SCF:
 Using DIIS extrapolation, IDIIS=  1040.
 NGot=  4294967296 LenX=  4293717438 LenY=  4293108258
 Requested convergence on RMS density matrix=1.00D-08 within  20 cycles.
 Requested convergence on MAX density matrix=1.00D-06.
 Requested convergence on             energy=1.00D-06.
 No special actions if energy rises.
 Fock matrices will be formed incrementally for  20 cycles.
 Integral accuracy reduced to 1.0D-05 until final iterations.

 Cycle   1  Pass 0  IDiag  1:
 FoFJK:  IHMeth= 1 ICntrl=       0 DoSepK=T KAlg= 0 I1Cent=           0 FoldK=F
 IRaf=         1 NMat=       1 IRICut=       1 DoRegI=T DoRafI=F ISym2E= 0 IDoP0=0 IntGTp=1.
 FoFCou: FMM=T IPFlag=           0 FMFlag=      100000 FMFlg1=        2001
         NFxFlg=           0 DoJE=T BraDBF=F KetDBF=F FulRan=T
         wScrn=  0.000000 ICntrl=       500 IOpCl=  0 I1Cent=           0 NGrid=           0
         NMat0=    1 NMatS0=      1 NMatT0=    0 NMatD0=    1 NMtDS0=    0 NMtDT0=    0
 Symmetry not used in FoFCou.
 FMM levels:  10  Number of levels for PrismC:   9
 E= -2048.31691575531    
 DIIS: error= 2.39D-02 at cycle   1 NSaved=   1.
 NSaved= 1 IEnMin= 1 EnMin= -2048.31691575531     IErMin= 1 ErrMin= 2.39D-02
 ErrMax= 2.39D-02  0.00D+00 EMaxC= 1.00D-01 BMatC= 8.31D-01 BMatP= 8.31D-01
 IDIUse=3 WtCom= 7.61D-01 WtEn= 2.39D-01
 Coeff-Com:  0.100D+01
 Coeff-En:   0.100D+01
 Coeff:      0.100D+01
 Gap=     0.256 Goal=   None    Shift=    0.000
 GapD=    0.256 DampG=1.000 DampE=0.500 DampFc=0.5000 IDamp=-1.
 Damping current iteration by 5.00D-01
 RMSDP=1.56D-03 MaxDP=1.30D-01              OVMax= 1.99D-01

 Cycle   2  Pass 0  IDiag  1:
 RMSU=  7.78D-04    CP:  9.98D-01
 E= -2048.51369621834     Delta-E=       -0.196780463029 Rises=F Damp=T
 DIIS: error= 1.34D-02 at cycle   2 NSaved=   2.
 NSaved= 2 IEnMin= 2 EnMin= -2048.51369621834     IErMin= 2 ErrMin= 1.34D-02
 ErrMax= 1.34D-02  0.00D+00 EMaxC= 1.00D-01 BMatC= 1.44D-01 BMatP= 8.31D-01
 IDIUse=3 WtCom= 8.66D-01 WtEn= 1.34D-01
 Coeff-Com: -0.198D+00 0.120D+01
 Coeff-En:   0.000D+00 0.100D+01
 Coeff:     -0.171D+00 0.117D+01
 Gap=     0.371 Goal=   None    Shift=    0.000
 RMSDP=5.82D-04 MaxDP=3.33D-02 DE=-1.97D-01 OVMax= 1.37D-01

 Cycle   3  Pass 0  IDiag  1:
 RMSU=  5.71D-04    CP:  9.94D-01  1.13D+00
 E= -2048.69344515077     Delta-E=       -0.179748932434 Rises=F Damp=F
 DIIS: error= 6.46D-03 at cycle   3 NSaved=   3.
 NSaved= 3 IEnMin= 3 EnMin= -2048.69344515077     IErMin= 3 ErrMin= 6.46D-03
 ErrMax= 6.46D-03  0.00D+00 EMaxC= 1.00D-01 BMatC= 6.16D-02 BMatP= 1.44D-01
 IDIUse=3 WtCom= 9.35D-01 WtEn= 6.46D-02
 Coeff-Com: -0.231D+00 0.546D+00 0.685D+00
 Coeff-En:   0.000D+00 0.000D+00 0.100D+01
 Coeff:     -0.216D+00 0.510D+00 0.705D+00
 Gap=     0.281 Goal=   None    Shift=    0.000
 RMSDP=3.50D-04 MaxDP=3.20D-02 DE=-1.80D-01 OVMax= 6.68D-02

 Cycle   4  Pass 0  IDiag  1:
 RMSU=  2.01D-04    CP:  9.94D-01  1.41D+00  6.77D-01
 E= -2048.74075332261     Delta-E=       -0.047308171840 Rises=F Damp=F
 DIIS: error= 2.28D-03 at cycle   4 NSaved=   4.
 NSaved= 4 IEnMin= 4 EnMin= -2048.74075332261     IErMin= 4 ErrMin= 2.28D-03
 ErrMax= 2.28D-03  0.00D+00 EMaxC= 1.00D-01 BMatC= 8.53D-03 BMatP= 6.16D-02
 IDIUse=3 WtCom= 9.77D-01 WtEn= 2.28D-02
 Coeff-Com: -0.966D-01 0.187D+00 0.376D+00 0.533D+00
 Coeff-En:   0.000D+00 0.000D+00 0.532D-01 0.947D+00
 Coeff:     -0.944D-01 0.183D+00 0.368D+00 0.543D+00
 Gap=     0.285 Goal=   None    Shift=    0.000
 RMSDP=1.24D-04 MaxDP=1.08D-02 DE=-4.73D-02 OVMax= 1.28D-02

 Cycle   5  Pass 0  IDiag  1:
 RMSU=  6.01D-05    CP:  9.94D-01  1.39D+00  8.06D-01  6.20D-01
 E= -2048.74784935840     Delta-E=       -0.007096035784 Rises=F Damp=F
 DIIS: error= 5.83D-04 at cycle   5 NSaved=   5.
 NSaved= 5 IEnMin= 5 EnMin= -2048.74784935840     IErMin= 5 ErrMin= 5.83D-04
 ErrMax= 5.83D-04  0.00D+00 EMaxC= 1.00D-01 BMatC= 2.88D-04 BMatP= 8.53D-03
 IDIUse=3 WtCom= 9.94D-01 WtEn= 5.83D-03
 Coeff-Com: -0.256D-01 0.441D-01 0.122D+00 0.241D+00 0.619D+00
 Coeff-En:   0.000D+00 0.000D+00 0.000D+00 0.000D+00 0.100D+01
 Coeff:     -0.255D-01 0.439D-01 0.121D+00 0.239D+00 0.621D+00
 Gap=     0.285 Goal=   None    Shift=    0.000
 RMSDP=2.64D-05 MaxDP=1.76D-03 DE=-7.10D-03 OVMax= 3.21D-03

 Failed to achieve initial convergence to 1.0D-08 in  6 cycles.
 Switch to full accuracy anyway.
 Cycle   6  Pass 1  IDiag  1:
 E= -2048.74800464802     Delta-E=       -0.000155289624 Rises=F Damp=F
 DIIS: error= 2.54D-04 at cycle   1 NSaved=   1.
 NSaved= 1 IEnMin= 1 EnMin= -2048.74800464802     IErMin= 1 ErrMin= 2.54D-04
 ErrMax= 2.54D-04  0.00D+00 EMaxC= 1.00D-01 BMatC= 6.82D-05 BMatP= 6.82D-05
 IDIUse=3 WtCom= 9.97D-01 WtEn= 2.54D-03
 Coeff-Com:  0.100D+01
 Coeff-En:   0.100D+01
 Coeff:      0.100D+01
 Gap=     0.285 Goal=   None    Shift=    0.000
 RMSDP=2.64D-05 MaxDP=1.76D-03 DE=-1.55D-04 OVMax= 2.18D-03

 Cycle   7  Pass 1  IDiag  1:
 RMSU=  9.86D-05    CP:  1.00D+00
 E= -2048.74805312344     Delta-E=       -0.000048475423 Rises=F Damp=F
 DIIS: error= 2.23D-04 at cycle   2 NSaved=   2.
 NSaved= 2 IEnMin= 2 EnMin= -2048.74805312344     IErMin= 2 ErrMin= 2.23D-04
 ErrMax= 2.23D-04  0.00D+00 EMaxC= 1.00D-01 BMatC= 4.19D-05 BMatP= 6.82D-05
 IDIUse=3 WtCom= 9.98D-01 WtEn= 2.23D-03
 Coeff-Com:  0.419D+00 0.581D+00
 Coeff-En:   0.000D+00 0.100D+01
 Coeff:      0.418D+00 0.582D+00
 Gap=     0.286 Goal=   None    Shift=    0.000
 RMSDP=1.11D-05 MaxDP=9.86D-04 DE=-4.85D-05 OVMax= 1.52D-03

 Cycle   8  Pass 1  IDiag  1:
 RMSU=  1.09D-05    CP:  1.00D+00  1.02D+00
 E= -2048.74808416877     Delta-E=       -0.000031045328 Rises=F Damp=F
 DIIS: error= 9.75D-05 at cycle   3 NSaved=   3.
 NSaved= 3 IEnMin= 3 EnMin= -2048.74808416877     IErMin= 3 ErrMin= 9.75D-05
 ErrMax= 9.75D-05  0.00D+00 EMaxC= 1.00D-01 BMatC= 8.95D-06 BMatP= 4.19D-05
 IDIUse=1 WtCom= 1.00D+00 WtEn= 0.00D+00
 Coeff-Com: -0.194D-01 0.301D+00 0.718D+00
 Coeff:     -0.194D-01 0.301D+00 0.718D+00
 Gap=     0.286 Goal=   None    Shift=    0.000
 RMSDP=5.37D-06 MaxDP=3.80D-04 DE=-3.10D-05 OVMax= 5.38D-04

 Cycle   9  Pass 1  IDiag  1:
 RMSU=  3.73D-06    CP:  1.00D+00  1.05D+00  7.73D-01
 E= -2048.74809279425     Delta-E=       -0.000008625477 Rises=F Damp=F
 DIIS: error= 3.15D-05 at cycle   4 NSaved=   4.
 NSaved= 4 IEnMin= 4 EnMin= -2048.74809279425     IErMin= 4 ErrMin= 3.15D-05
 ErrMax= 3.15D-05  0.00D+00 EMaxC= 1.00D-01 BMatC= 4.72D-07 BMatP= 8.95D-06
 IDIUse=1 WtCom= 1.00D+00 WtEn= 0.00D+00
 Coeff-Com: -0.328D-01 0.777D-01 0.261D+00 0.694D+00
 Coeff:     -0.328D-01 0.777D-01 0.261D+00 0.694D+00
 Gap=     0.286 Goal=   None    Shift=    0.000
 RMSDP=1.42D-06 MaxDP=1.23D-04 DE=-8.63D-06 OVMax= 4.58D-04

 Cycle  10  Pass 1  IDiag  1:
 RMSU=  1.25D-06    CP:  1.00D+00  1.06D+00  8.10D-01  1.11D+00
 E= -2048.74809360985     Delta-E=       -0.000000815602 Rises=F Damp=F
 DIIS: error= 1.46D-05 at cycle   5 NSaved=   5.
 NSaved= 5 IEnMin= 5 EnMin= -2048.74809360985     IErMin= 5 ErrMin= 1.46D-05
 ErrMax= 1.46D-05  0.00D+00 EMaxC= 1.00D-01 BMatC= 1.13D-07 BMatP= 4.72D-07
 IDIUse=1 WtCom= 1.00D+00 WtEn= 0.00D+00
 Coeff-Com: -0.351D-02-0.557D-01-0.124D+00 0.204D+00 0.979D+00
 Coeff:     -0.351D-02-0.557D-01-0.124D+00 0.204D+00 0.979D+00
 Gap=     0.286 Goal=   None    Shift=    0.000
 RMSDP=1.18D-06 MaxDP=7.70D-05 DE=-8.16D-07 OVMax= 2.29D-04

 Cycle  11  Pass 1  IDiag  1:
 RMSU=  4.67D-07    CP:  1.00D+00  1.06D+00  8.20D-01  1.40D+00  1.17D+00
 E= -2048.74809385595     Delta-E=       -0.000000246096 Rises=F Damp=F
 DIIS: error= 7.70D-06 at cycle   6 NSaved=   6.
 NSaved= 6 IEnMin= 6 EnMin= -2048.74809385595     IErMin= 6 ErrMin= 7.70D-06
 ErrMax= 7.70D-06  0.00D+00 EMaxC= 1.00D-01 BMatC= 2.64D-08 BMatP= 1.13D-07
 IDIUse=1 WtCom= 1.00D+00 WtEn= 0.00D+00
 Coeff-Com:  0.451D-02-0.425D-01-0.113D+00 0.196D-02 0.520D+00 0.629D+00
 Coeff:      0.451D-02-0.425D-01-0.113D+00 0.196D-02 0.520D+00 0.629D+00
 Gap=     0.286 Goal=   None    Shift=    0.000
 RMSDP=3.39D-07 MaxDP=3.47D-05 DE=-2.46D-07 OVMax= 1.09D-04

 Cycle  12  Pass 1  IDiag  1:
 RMSU=  1.73D-07    CP:  1.00D+00  1.06D+00  8.22D-01  1.46D+00  1.29D+00
                    CP:  9.27D-01
 E= -2048.74809389322     Delta-E=       -0.000000037273 Rises=F Damp=F
 DIIS: error= 9.32D-07 at cycle   7 NSaved=   7.
 NSaved= 7 IEnMin= 7 EnMin= -2048.74809389322     IErMin= 7 ErrMin= 9.32D-07
 ErrMax= 9.32D-07  0.00D+00 EMaxC= 1.00D-01 BMatC= 6.61D-10 BMatP= 2.64D-08
 IDIUse=1 WtCom= 1.00D+00 WtEn= 0.00D+00
 Coeff-Com:  0.906D-03-0.498D-02-0.150D-01-0.757D-02 0.334D-01 0.111D+00
 Coeff-Com:  0.882D+00
 Coeff:      0.906D-03-0.498D-02-0.150D-01-0.757D-02 0.334D-01 0.111D+00
 Coeff:      0.882D+00
 Gap=     0.286 Goal=   None    Shift=    0.000
 RMSDP=8.27D-08 MaxDP=5.18D-06 DE=-3.73D-08 OVMax= 2.14D-05

 Cycle  13  Pass 1  IDiag  1:
 RMSU=  4.80D-08    CP:  1.00D+00  1.06D+00  8.22D-01  1.47D+00  1.31D+00
                    CP:  1.02D+00  1.15D+00
 E= -2048.74809389474     Delta-E=       -0.000000001519 Rises=F Damp=F
 DIIS: error= 4.87D-07 at cycle   8 NSaved=   8.
 NSaved= 8 IEnMin= 8 EnMin= -2048.74809389474     IErMin= 8 ErrMin= 4.87D-07
 ErrMax= 4.87D-07  0.00D+00 EMaxC= 1.00D-01 BMatC= 2.71D-10 BMatP= 6.61D-10
 IDIUse=1 WtCom= 1.00D+00 WtEn= 0.00D+00
 Coeff-Com: -0.694D-03 0.839D-02 0.213D-01-0.218D-02-0.114D+00-0.101D+00
 Coeff-Com:  0.427D+00 0.761D+00
 Coeff:     -0.694D-03 0.839D-02 0.213D-01-0.218D-02-0.114D+00-0.101D+00
 Coeff:      0.427D+00 0.761D+00
 Gap=     0.286 Goal=   None    Shift=    0.000
 RMSDP=4.21D-08 MaxDP=2.36D-06 DE=-1.52D-09 OVMax= 9.16D-06

 Cycle  14  Pass 1  IDiag  1:
 RMSU=  2.44D-08    CP:  1.00D+00  1.06D+00  8.21D-01  1.47D+00  1.31D+00
                    CP:  1.06D+00  1.30D+00  1.09D+00
 E= -2048.74809389515     Delta-E=       -0.000000000415 Rises=F Damp=F
 DIIS: error= 1.60D-07 at cycle   9 NSaved=   9.
 NSaved= 9 IEnMin= 9 EnMin= -2048.74809389515     IErMin= 9 ErrMin= 1.60D-07
 ErrMax= 1.60D-07  0.00D+00 EMaxC= 1.00D-01 BMatC= 1.93D-11 BMatP= 2.71D-10
 IDIUse=1 WtCom= 1.00D+00 WtEn= 0.00D+00
 Coeff-Com: -0.343D-03 0.355D-02 0.924D-02 0.403D-04-0.444D-01-0.479D-01
 Coeff-Com:  0.702D-01 0.256D+00 0.754D+00
 Coeff:     -0.343D-03 0.355D-02 0.924D-02 0.403D-04-0.444D-01-0.479D-01
 Coeff:      0.702D-01 0.256D+00 0.754D+00
 Gap=     0.286 Goal=   None    Shift=    0.000
 RMSDP=1.19D-08 MaxDP=6.98D-07 DE=-4.15D-10 OVMax= 2.98D-06

 Cycle  15  Pass 1  IDiag  1:
 RMSU=  7.99D-09    CP:  1.00D+00  1.06D+00  8.21D-01  1.47D+00  1.32D+00
                    CP:  1.06D+00  1.32D+00  1.22D+00  1.12D+00
 E= -2048.74809389525     Delta-E=       -0.000000000095 Rises=F Damp=F
 DIIS: error= 7.42D-08 at cycle  10 NSaved=  10.
 NSaved=10 IEnMin=10 EnMin= -2048.74809389525     IErMin=10 ErrMin= 7.42D-08
 ErrMax= 7.42D-08  0.00D+00 EMaxC= 1.00D-01 BMatC= 4.43D-12 BMatP= 1.93D-11
 IDIUse=1 WtCom= 1.00D+00 WtEn= 0.00D+00
 Coeff-Com:  0.248D-04-0.526D-03-0.122D-02 0.209D-03 0.823D-02 0.423D-02
 Coeff-Com: -0.615D-01-0.783D-01 0.293D+00 0.836D+00
 Coeff:      0.248D-04-0.526D-03-0.122D-02 0.209D-03 0.823D-02 0.423D-02
 Coeff:     -0.615D-01-0.783D-01 0.293D+00 0.836D+00
 Gap=     0.286 Goal=   None    Shift=    0.000
 RMSDP=5.89D-09 MaxDP=3.72D-07 DE=-9.55D-11 OVMax= 1.19D-06

 SCF Done:  E(RwB97XD) =  -2048.74809390     A.U. after   15 cycles
            NFock= 15  Conv=0.59D-08     -V/T= 2.0054
 KE= 2.037689397964D+03 PE=-1.559594198268D+04 EE= 6.102098913426D+03
 Leave Link  502 at Mon Jan 22 09:01:46 2018, MaxMem=  4294967296 cpu:           19856.6 elap:             640.4
 (Enter /share/apps/g16/l601.exe)
 Copying SCF densities to generalized density rwf, IOpCl= 0 IROHF=0.

 **********************************************************************

            Population analysis using the SCF density.

 **********************************************************************

 Orbital symmetries:
       Occupied  (A) (A) (A) (A) (A) (A) (A) (A) (A) (A) (A) (A)
                 (A) (A) (A) (A) (A) (A) (A) (A) (A) (A) (A) (A)
                 (A) (A) (A) (A) (A) (A) (A) (A) (A) (A) (A) (A)
                 (A) (A) (A) (A) (A) (A) (A) (A) (A) (A) (A) (A)
                 (A) (A) (A) (A) (A) (A) (A) (A) (A) (A) (A) (A)
                 (A) (A) (A) (A) (A) (A) (A) (A) (A) (A) (A) (A)
                 (A) (A) (A) (A) (A) (A) (A) (A) (A) (A) (A) (A)
                 (A) (A) (A) (A) (A) (A) (A) (A) (A) (A) (A) (A)
                 (A) (A) (A) (A) (A) (A) (A) (A) (A) (A) (A) (A)
                 (A) (A) (A) (A) (A) (A) (A) (A) (A) (A) (A) (A)
                 (A) (A) (A) (A) (A) (A) (A) (A) (A) (A) (A) (A)
                 (A) (A) (A) (A) (A) (A) (A) (A) (A) (A) (A) (A)
                 (A) (A) (A) (A) (A) (A) (A) (A) (A) (A)
       Virtual   (A) (A) (A) (A) (A) (A) (A) (A) (A) (A) (A) (A)
                 (A) (A) (A) (A) (A) (A) (A) (A) (A) (A) (A) (A)
                 (A) (A) (A) (A) (A) (A) (A) (A) (A) (A) (A) (A)
                 (A) (A) (A) (A) (A) (A) (A) (A) (A) (A) (A) (A)
                 (A) (A) (A) (A) (A) (A) (A) (A) (A) (A) (A) (A)
                 (A) (A) (A) (A) (A) (A) (A) (A) (A) (A) (A) (A)
                 (A) (A) (A) (A) (A) (A) (A) (A) (A) (A) (A) (A)
                 (A) (A) (A) (A) (A) (A) (A) (A) (A) (A) (A) (A)
                 (A) (A) (A) (A) (A) (A) (A) (A) (A) (A) (A) (A)
                 (A) (A) (A) (A) (A) (A) (A) (A) (A) (A) (A) (A)
                 (A) (A) (A) (A) (A) (A) (A) (A) (A) (A) (A) (A)
                 (A) (A) (A) (A) (A) (A) (A) (A) (A) (A) (A) (A)
                 (A) (A) (A) (A) (A) (A) (A) (A) (A) (A) (A) (A)
                 (A) (A) (A) (A) (A) (A) (A) (A) (A) (A) (A) (A)
                 (A) (A) (A) (A) (A) (A) (A) (A) (A) (A) (A) (A)
                 (A) (A) (A) (A) (A) (A) (A) (A) (A) (A) (A) (A)
                 (A) (A) (A) (A) (A) (A) (A) (A) (A) (A) (A) (A)
                 (A) (A) (A) (A) (A) (A) (A) (A) (A) (A) (A) (A)
                 (A) (A) (A) (A) (A) (A) (A) (A) (A) (A) (A) (A)
                 (A) (A) (A) (A) (A) (A) (A) (A) (A) (A) (A) (A)
                 (A) (A) (A) (A) (A) (A) (A) (A) (A) (A) (A) (A)
                 (A) (A) (A) (A) (A) (A) (A) (A) (A) (A) (A) (A)
                 (A) (A) (A) (A) (A) (A) (A) (A) (A) (A) (A) (A)
                 (A) (A) (A) (A) (A) (A) (A) (A) (A) (A) (A) (A)
                 (A) (A) (A) (A) (A) (A) (A) (A) (A) (A) (A) (A)
                 (A) (A) (A) (A) (A) (A) (A) (A) (A) (A) (A) (A)
                 (A) (A) (A) (A) (A) (A) (A) (A) (A) (A) (A) (A)
                 (A) (A) (A) (A) (A) (A) (A) (A) (A) (A) (A) (A)
                 (A) (A) (A) (A) (A) (A) (A) (A) (A) (A) (A) (A)
                 (A) (A) (A) (A) (A) (A) (A) (A) (A) (A) (A) (A)
                 (A) (A) (A) (A) (A) (A) (A) (A) (A) (A) (A) (A)
                 (A) (A) (A) (A) (A) (A) (A) (A) (A) (A) (A) (A)
                 (A) (A) (A) (A) (A) (A) (A) (A) (A) (A) (A) (A)
                 (A) (A) (A) (A) (A) (A) (A) (A) (A) (A) (A) (A)
                 (A) (A) (A) (A) (A) (A) (A) (A) (A) (A) (A) (A)
                 (A) (A) (A) (A) (A) (A) (A) (A) (A) (A) (A) (A)
                 (A) (A) (A) (A) (A) (A) (A) (A) (A) (A) (A) (A)
                 (A) (A) (A) (A) (A) (A) (A) (A) (A) (A) (A) (A)
                 (A) (A) (A) (A) (A) (A) (A) (A) (A) (A) (A) (A)
                 (A) (A) (A) (A) (A) (A) (A) (A) (A) (A) (A) (A)
                 (A) (A) (A) (A) (A) (A) (A) (A) (A) (A) (A) (A)
                 (A) (A) (A) (A) (A) (A) (A) (A) (A) (A) (A) (A)
                 (A) (A) (A) (A) (A) (A) (A) (A) (A) (A) (A) (A)
                 (A) (A) (A) (A) (A) (A) (A) (A) (A) (A) (A) (A)
                 (A) (A) (A) (A) (A) (A) (A) (A) (A) (A) (A) (A)
                 (A) (A) (A) (A) (A) (A) (A) (A) (A) (A) (A) (A)
                 (A) (A) (A) (A) (A) (A) (A) (A) (A) (A) (A) (A)
                 (A) (A) (A) (A) (A) (A) (A) (A) (A) (A) (A) (A)
                 (A) (A) (A) (A) (A) (A) (A)
 The electronic state is 1-A.
 Alpha  occ. eigenvalues --  -19.26087 -19.22432 -19.20868 -14.52615 -14.51000
 Alpha  occ. eigenvalues --  -14.49249 -14.48838 -14.48095 -14.47254 -14.47176
 Alpha  occ. eigenvalues --  -14.45687 -14.44029 -14.42382 -14.42328 -14.42277
 Alpha  occ. eigenvalues --  -14.42229 -14.41926 -14.41324 -14.40906 -14.40533
 Alpha  occ. eigenvalues --  -10.45706 -10.41533 -10.40475 -10.38498 -10.37935
 Alpha  occ. eigenvalues --  -10.37847 -10.36595 -10.35756 -10.35638 -10.35472
 Alpha  occ. eigenvalues --  -10.34572 -10.34522 -10.33946 -10.33854 -10.33493
 Alpha  occ. eigenvalues --  -10.33365 -10.32909 -10.31350 -10.31214 -10.30900
 Alpha  occ. eigenvalues --  -10.30822 -10.29022 -10.28315  -1.19628  -1.13675
 Alpha  occ. eigenvalues --   -1.13450  -1.13428  -1.11843  -1.10741  -1.09522
 Alpha  occ. eigenvalues --   -1.08894  -1.07189  -1.05371  -1.02798  -1.02697
 Alpha  occ. eigenvalues --   -1.00756  -1.00178  -0.99386  -0.98744  -0.97384
 Alpha  occ. eigenvalues --   -0.96677  -0.94816  -0.92989  -0.91203  -0.86053
 Alpha  occ. eigenvalues --   -0.84528  -0.84381  -0.84252  -0.83940  -0.82738
 Alpha  occ. eigenvalues --   -0.82562  -0.79063  -0.75259  -0.74794  -0.73968
 Alpha  occ. eigenvalues --   -0.73590  -0.73293  -0.72974  -0.71469  -0.68619
 Alpha  occ. eigenvalues --   -0.67670  -0.66760  -0.66673  -0.64960  -0.64662
 Alpha  occ. eigenvalues --   -0.63946  -0.63093  -0.62886  -0.62398  -0.62043
 Alpha  occ. eigenvalues --   -0.60503  -0.59820  -0.59707  -0.58829  -0.58811
 Alpha  occ. eigenvalues --   -0.58492  -0.57908  -0.56845  -0.56786  -0.56681
 Alpha  occ. eigenvalues --   -0.56205  -0.55646  -0.54617  -0.54469  -0.53861
 Alpha  occ. eigenvalues --   -0.53836  -0.53590  -0.53107  -0.52750  -0.52413
 Alpha  occ. eigenvalues --   -0.52152  -0.51951  -0.51248  -0.51179  -0.50556
 Alpha  occ. eigenvalues --   -0.50377  -0.49688  -0.49428  -0.49112  -0.48839
 Alpha  occ. eigenvalues --   -0.48448  -0.48346  -0.47886  -0.47702  -0.47444
 Alpha  occ. eigenvalues --   -0.47347  -0.45496  -0.45076  -0.44223  -0.42960
 Alpha  occ. eigenvalues --   -0.41594  -0.39671  -0.39128  -0.37606  -0.37510
 Alpha  occ. eigenvalues --   -0.37435  -0.36399  -0.35925  -0.35692  -0.34794
 Alpha  occ. eigenvalues --   -0.33976  -0.33928  -0.33577  -0.32998  -0.32842
 Alpha  occ. eigenvalues --   -0.32493  -0.32206  -0.32185  -0.31996  -0.31419
 Alpha  occ. eigenvalues --   -0.30707  -0.28048  -0.26152  -0.25656
 Alpha virt. eigenvalues --    0.02901   0.05609   0.07560   0.08257   0.08636
 Alpha virt. eigenvalues --    0.09271   0.09528   0.10529   0.11307   0.12349
 Alpha virt. eigenvalues --    0.12656   0.13627   0.14447   0.14587   0.16154
 Alpha virt. eigenvalues --    0.16257   0.16357   0.16701   0.17259   0.18075
 Alpha virt. eigenvalues --    0.18993   0.19462   0.19486   0.19950   0.20556
 Alpha virt. eigenvalues --    0.20619   0.20873   0.21627   0.21798   0.22562
 Alpha virt. eigenvalues --    0.22878   0.23185   0.23394   0.23644   0.23655
 Alpha virt. eigenvalues --    0.23720   0.23971   0.24077   0.24966   0.25330
 Alpha virt. eigenvalues --    0.26248   0.26586   0.26993   0.27351   0.27811
 Alpha virt. eigenvalues --    0.28763   0.29312   0.29709   0.30840   0.31082
 Alpha virt. eigenvalues --    0.31198   0.31479   0.32959   0.33025   0.33703
 Alpha virt. eigenvalues --    0.34100   0.34566   0.35042   0.35856   0.36599
 Alpha virt. eigenvalues --    0.36817   0.37471   0.38403   0.39463   0.39637
 Alpha virt. eigenvalues --    0.40251   0.40906   0.41311   0.41431   0.41679
 Alpha virt. eigenvalues --    0.42315   0.42791   0.43618   0.43831   0.44309
 Alpha virt. eigenvalues --    0.44954   0.45694   0.45966   0.46221   0.46813
 Alpha virt. eigenvalues --    0.47416   0.48203   0.48628   0.49095   0.49631
 Alpha virt. eigenvalues --    0.49845   0.50105   0.50477   0.50851   0.51142
 Alpha virt. eigenvalues --    0.51744   0.52322   0.52346   0.52905   0.53485
 Alpha virt. eigenvalues --    0.53709   0.53990   0.54759   0.54922   0.55174
 Alpha virt. eigenvalues --    0.55609   0.55866   0.56304   0.56664   0.57362
 Alpha virt. eigenvalues --    0.57625   0.58257   0.58957   0.59179   0.59527
 Alpha virt. eigenvalues --    0.60010   0.60294   0.60759   0.61225   0.61425
 Alpha virt. eigenvalues --    0.61923   0.62156   0.62580   0.63096   0.63650
 Alpha virt. eigenvalues --    0.63953   0.64114   0.64468   0.65104   0.65230
 Alpha virt. eigenvalues --    0.65510   0.65610   0.66294   0.66550   0.66903
 Alpha virt. eigenvalues --    0.67190   0.67737   0.68330   0.68688   0.68878
 Alpha virt. eigenvalues --    0.69262   0.70070   0.70269   0.70769   0.71090
 Alpha virt. eigenvalues --    0.71619   0.72158   0.72445   0.73056   0.73599
 Alpha virt. eigenvalues --    0.73780   0.74331   0.74476   0.74955   0.75353
 Alpha virt. eigenvalues --    0.75866   0.76123   0.76240   0.76516   0.76909
 Alpha virt. eigenvalues --    0.77042   0.77312   0.78085   0.78232   0.78509
 Alpha virt. eigenvalues --    0.78877   0.79750   0.79958   0.80149   0.80331
 Alpha virt. eigenvalues --    0.81096   0.81659   0.82442   0.82758   0.83136
 Alpha virt. eigenvalues --    0.83201   0.83688   0.84298   0.84906   0.85137
 Alpha virt. eigenvalues --    0.85655   0.85990   0.86026   0.86726   0.87470
 Alpha virt. eigenvalues --    0.87869   0.88331   0.88636   0.89341   0.90274
 Alpha virt. eigenvalues --    0.90502   0.90670   0.90912   0.91486   0.92219
 Alpha virt. eigenvalues --    0.92405   0.92635   0.93087   0.93228   0.93513
 Alpha virt. eigenvalues --    0.94439   0.95338   0.95577   0.95648   0.96371
 Alpha virt. eigenvalues --    0.96578   0.97251   0.97834   0.98060   0.98359
 Alpha virt. eigenvalues --    0.98643   0.99405   1.00298   1.00846   1.01279
 Alpha virt. eigenvalues --    1.01834   1.01867   1.02156   1.02477   1.02594
 Alpha virt. eigenvalues --    1.03390   1.03733   1.04159   1.04395   1.04889
 Alpha virt. eigenvalues --    1.05284   1.05687   1.06072   1.06224   1.07578
 Alpha virt. eigenvalues --    1.08043   1.08545   1.09158   1.10072   1.11031
 Alpha virt. eigenvalues --    1.11122   1.11702   1.12211   1.12470   1.13359
 Alpha virt. eigenvalues --    1.13940   1.14117   1.14729   1.14943   1.15307
 Alpha virt. eigenvalues --    1.16055   1.16329   1.17134   1.17566   1.17936
 Alpha virt. eigenvalues --    1.18400   1.18548   1.18841   1.19182   1.19518
 Alpha virt. eigenvalues --    1.19855   1.20601   1.20712   1.21137   1.21301
 Alpha virt. eigenvalues --    1.21832   1.21979   1.22059   1.22273   1.22780
 Alpha virt. eigenvalues --    1.23258   1.23849   1.24006   1.24536   1.24881
 Alpha virt. eigenvalues --    1.25246   1.25629   1.26258   1.26685   1.28085
 Alpha virt. eigenvalues --    1.28341   1.28965   1.29452   1.29774   1.31206
 Alpha virt. eigenvalues --    1.31747   1.32212   1.32708   1.33583   1.33992
 Alpha virt. eigenvalues --    1.34185   1.35133   1.35645   1.35752   1.36694
 Alpha virt. eigenvalues --    1.37566   1.37637   1.38632   1.39068   1.40197
 Alpha virt. eigenvalues --    1.40747   1.42314   1.42863   1.43897   1.44474
 Alpha virt. eigenvalues --    1.44834   1.45088   1.47053   1.47803   1.47967
 Alpha virt. eigenvalues --    1.48048   1.48707   1.49128   1.49811   1.50558
 Alpha virt. eigenvalues --    1.51066   1.51536   1.52915   1.53585   1.54489
 Alpha virt. eigenvalues --    1.54980   1.55733   1.56207   1.56743   1.57992
 Alpha virt. eigenvalues --    1.58394   1.58985   1.59516   1.60445   1.61036
 Alpha virt. eigenvalues --    1.61263   1.61656   1.62368   1.62608   1.63158
 Alpha virt. eigenvalues --    1.64104   1.65100   1.65648   1.66694   1.66847
 Alpha virt. eigenvalues --    1.66993   1.67617   1.67828   1.68383   1.68850
 Alpha virt. eigenvalues --    1.69391   1.69896   1.70344   1.70588   1.71001
 Alpha virt. eigenvalues --    1.71574   1.72042   1.72342   1.72736   1.73210
 Alpha virt. eigenvalues --    1.73339   1.74057   1.74245   1.74649   1.75152
 Alpha virt. eigenvalues --    1.75365   1.75671   1.75970   1.76503   1.76758
 Alpha virt. eigenvalues --    1.77436   1.77570   1.77816   1.78377   1.78956
 Alpha virt. eigenvalues --    1.79257   1.79788   1.79909   1.80191   1.80588
 Alpha virt. eigenvalues --    1.80719   1.81006   1.81514   1.81778   1.81988
 Alpha virt. eigenvalues --    1.82308   1.82618   1.82936   1.83399   1.84192
 Alpha virt. eigenvalues --    1.84980   1.85569   1.85885   1.86472   1.86809
 Alpha virt. eigenvalues --    1.87444   1.87647   1.88012   1.88130   1.88605
 Alpha virt. eigenvalues --    1.89144   1.89474   1.89693   1.90184   1.90819
 Alpha virt. eigenvalues --    1.91357   1.91951   1.92530   1.93191   1.93269
 Alpha virt. eigenvalues --    1.93538   1.94420   1.95519   1.96274   1.97047
 Alpha virt. eigenvalues --    1.98155   1.98661   1.99582   2.00001   2.01148
 Alpha virt. eigenvalues --    2.01675   2.01819   2.02449   2.03508   2.03972
 Alpha virt. eigenvalues --    2.04333   2.05253   2.05859   2.06830   2.06937
 Alpha virt. eigenvalues --    2.07288   2.07889   2.08634   2.09049   2.09194
 Alpha virt. eigenvalues --    2.09868   2.10487   2.10807   2.12109   2.12296
 Alpha virt. eigenvalues --    2.12620   2.13871   2.14208   2.16145   2.17069
 Alpha virt. eigenvalues --    2.18798   2.19178   2.20073   2.20837   2.21054
 Alpha virt. eigenvalues --    2.21151   2.22026   2.22653   2.23278   2.23739
 Alpha virt. eigenvalues --    2.24209   2.24608   2.25432   2.26045   2.26988
 Alpha virt. eigenvalues --    2.27229   2.27812   2.28475   2.29028   2.29104
 Alpha virt. eigenvalues --    2.29819   2.30131   2.30876   2.31982   2.32458
 Alpha virt. eigenvalues --    2.32919   2.33624   2.33743   2.34340   2.34552
 Alpha virt. eigenvalues --    2.34784   2.35436   2.36098   2.36691   2.37164
 Alpha virt. eigenvalues --    2.37632   2.38854   2.40062   2.41137   2.41428
 Alpha virt. eigenvalues --    2.42070   2.42265   2.42646   2.43018   2.44448
 Alpha virt. eigenvalues --    2.45190   2.45616   2.45996   2.46338   2.47325
 Alpha virt. eigenvalues --    2.47454   2.48865   2.49039   2.50369   2.51488
 Alpha virt. eigenvalues --    2.52864   2.53402   2.54292   2.54437   2.55798
 Alpha virt. eigenvalues --    2.56496   2.56837   2.57150   2.58267   2.59917
 Alpha virt. eigenvalues --    2.60156   2.60875   2.61707   2.62208   2.62393
 Alpha virt. eigenvalues --    2.63904   2.64498   2.64696   2.65057   2.66447
 Alpha virt. eigenvalues --    2.67163   2.67538   2.68034   2.68534   2.69179
 Alpha virt. eigenvalues --    2.70183   2.70691   2.70942   2.71401   2.71834
 Alpha virt. eigenvalues --    2.73700   2.74181   2.74660   2.75181   2.75433
 Alpha virt. eigenvalues --    2.77455   2.78548   2.78880   2.79462   2.79649
 Alpha virt. eigenvalues --    2.79767   2.80076   2.80366   2.81251   2.81688
 Alpha virt. eigenvalues --    2.81897   2.82518   2.82775   2.82990   2.83802
 Alpha virt. eigenvalues --    2.84478   2.85659   2.86481   2.86639   2.86912
 Alpha virt. eigenvalues --    2.87162   2.88039   2.88695   2.90706   2.91233
 Alpha virt. eigenvalues --    2.93711   2.96465   2.96833   2.97364   2.98942
 Alpha virt. eigenvalues --    2.99715   3.00796   3.01171   3.04157   3.05615
 Alpha virt. eigenvalues --    3.06418   3.09520   3.10832   3.14063   3.14631
 Alpha virt. eigenvalues --    3.14963   3.15478   3.15616   3.17236   3.19759
 Alpha virt. eigenvalues --    3.22158   3.22813   3.23336   3.23620   3.26093
 Alpha virt. eigenvalues --    3.46582   3.46966   3.47435   3.49733   3.51206
 Alpha virt. eigenvalues --    3.53051   3.53889   3.56006   3.57592   3.59723
 Alpha virt. eigenvalues --    3.62354   3.71028   3.74276
          Condensed to atoms (all electrons):
 Mulliken charges:
               1
     1  N   -0.310567
     2  C    0.180773
     3  C    0.030163
     4  N   -0.256992
     5  C    0.132289
     6  H    0.027736
     7  N   -0.287006
     8  C    0.126633
     9  H    0.013839
    10  N   -0.288403
    11  C    0.235948
    12  C    0.112274
    13  N   -0.044200
    14  H    0.107994
    15  H    0.089522
    16  H    0.026847
    17  H    0.035455
    18  H    0.025431
    19  N   -0.308563
    20  C    0.246104
    21  C    0.181009
    22  N   -0.124859
    23  H    0.113845
    24  H    0.117972
    25  N   -0.302685
    26  C    0.242618
    27  N   -0.129884
    28  H    0.117462
    29  C    0.163469
    30  O   -0.323769
    31  C   -0.007484
    32  N   -0.223179
    33  C    0.132072
    34  H    0.030403
    35  H    0.032317
    36  H    0.028038
    37  H    0.024179
    38  H    0.058518
    39  H    0.061819
    40  H    0.072207
    41  H    0.031203
    42  C   -0.103381
    43  O   -0.280026
    44  C    0.165366
    45  H    0.136691
    46  N   -0.130509
    47  O   -0.354278
    48  C    0.365465
    49  H    0.048353
    50  C    0.179894
    51  C    0.040805
    52  N   -0.294424
    53  H    0.030777
    54  H    0.041914
    55  H    0.016051
    56  H    0.120871
    57  H    0.117908
    58  N   -0.037581
    59  C    0.106720
    60  C    0.241057
    61  N   -0.266088
    62  H    0.039541
    63  C    0.152655
    64  N   -0.300553
    65  H    0.024888
    66  C    0.128162
    67  N   -0.264442
    68  C    0.014289
    69  C    0.179590
    70  N   -0.310262
 Sum of Mulliken charges =  -0.00000
 Mulliken charges with hydrogens summed into heavy atoms:
               1
     1  N   -0.310567
     2  C    0.268506
     3  C    0.030163
     4  N   -0.256992
     5  C    0.160025
     7  N   -0.287006
     8  C    0.140473
    10  N   -0.288403
    11  C    0.235948
    12  C    0.112274
    13  N    0.153315
    19  N   -0.308563
    20  C    0.246104
    21  C    0.265543
    22  N    0.106958
    25  N   -0.302685
    26  C    0.242618
    27  N   -0.012422
    29  C    0.163469
    30  O   -0.323769
    31  C   -0.007484
    32  N   -0.223179
    33  C    0.162474
    42  C   -0.072178
    43  O   -0.280026
    44  C    0.165366
    46  N    0.006182
    47  O   -0.354278
    48  C    0.365465
    50  C    0.228246
    51  C    0.233349
    52  N   -0.294424
    58  N    0.201199
    59  C    0.106720
    60  C    0.241057
    61  N   -0.266088
    63  C    0.192196
    64  N   -0.300553
    66  C    0.153049
    67  N   -0.264442
    68  C    0.014289
    69  C    0.268332
    70  N   -0.310262
 Electronic spatial extent (au):  <R**2>=          24729.4435
 Charge=              0.0000 electrons
 Dipole moment (field-independent basis, Debye):
    X=              7.2670    Y=              6.0420    Z=              2.0260  Tot=              9.6653
 Quadrupole moment (field-independent basis, Debye-Ang):
   XX=           -139.7227   YY=           -224.2588   ZZ=           -250.4282
   XY=              9.2828   XZ=             17.2171   YZ=             -4.3459
 Traceless Quadrupole moment (field-independent basis, Debye-Ang):
   XX=             65.0806   YY=            -19.4556   ZZ=            -45.6250
   XY=              9.2828   XZ=             17.2171   YZ=             -4.3459
 Octapole moment (field-independent basis, Debye-Ang**2):
  XXX=             61.0451  YYY=            101.0892  ZZZ=             20.4941  XYY=             44.7044
  XXY=            -16.3380  XXZ=            -71.3425  XZZ=             35.9764  YZZ=             49.4983
  YYZ=             30.8838  XYZ=             45.2085
 Hexadecapole moment (field-independent basis, Debye-Ang**3):
 XXXX=         -16428.6323 YYYY=          -5097.5145 ZZZZ=          -3286.3444 XXXY=            403.6150
 XXXZ=            331.3234 YYYX=             61.4194 YYYZ=            -72.2476 ZZZX=            130.4713
 ZZZY=             86.6221 XXYY=          -4441.1942 XXZZ=          -4457.3401 YYZZ=          -1453.8942
 XXYZ=             83.6725 YYXZ=            172.0193 ZZXY=             96.8983
 N-N= 5.407405577395D+03 E-N=-1.559594197813D+04  KE= 2.037689397964D+03
 No NMR shielding tensors so no spin-rotation constants.
 Leave Link  601 at Mon Jan 22 09:01:48 2018, MaxMem=  4294967296 cpu:              47.7 elap:               1.7
 (Enter /share/apps/g16/l9999.exe)
 1\1\GINC-COMPUTE-0-3\SP\RwB97XD\CC-pVDZ\C23H27N17O3\SATYA\22-Jan-2018\
 0\\#p wb97xd/cc-pvdz sp scf=(maxcycles=20)\\Base pair stacking\\0,1\N,
 0,8.95441,6.61287,-4.64218\C,0,9.74898,7.84677,-4.79756\C,0,7.35119,5.
 11146,-4.75521\N,0,8.3745,4.53186,-4.01925\C,0,9.29942,5.45961,-3.9806
 \H,0,10.26175,5.35514,-3.47867\N,0,5.30939,5.47115,-5.87976\C,0,5.7776
 9,6.68643,-6.182\H,0,5.10621,7.3105,-6.77015\N,0,6.94545,7.24395,-5.86
 828\C,0,7.69414,6.3941,-5.14603\C,0,6.08665,4.63977,-5.15192\N,0,5.620
 93,3.42624,-4.84922\H,0,6.16201,2.77787,-4.31249\H,0,4.71581,3.12399,-
 5.14844\H,0,10.60504,7.63633,-5.26986\H,0,9.22987,8.51334,-5.33172\H,0
 ,9.95283,8.2301,-3.89673\N,0,2.79784,7.01899,-3.1035\C,0,1.80565,6.083
 29,-3.27105\C,0,2.65522,8.46799,-3.35003\N,0,-1.46002,5.28535,-4.14307
 \H,0,-2.0291,4.46546,-4.19939\H,0,-1.88892,6.15348,-4.39427\N,0,0.5439
 ,6.3284,-3.68571\C,0,-0.17919,5.2244,-3.74853\N,0,0.29518,3.97498,-3.4
 3005\H,0,-0.32926,3.18692,-3.50752\C,0,1.58979,3.69938,-3.0012\O,0,1.9
 1697,2.53534,-2.73908\C,0,2.37851,4.87562,-2.92876\N,0,3.70368,5.04964
 ,-2.55386\C,0,3.90751,6.33359,-2.67281\H,0,4.85204,6.83485,-2.45859\H,
 0,3.30413,8.75338,-4.05449\H,0,1.72455,8.66156,-3.65769\H,0,2.83745,8.
 97094,-2.50585\H,0,-3.73443,-0.39082,-4.7147\H,0,-4.06231,-0.36867,-2.
 98362\H,0,-3.54638,1.10654,-3.80151\H,0,-0.01417,-2.96669,-3.08036\C,0
 ,-0.32805,-1.92534,-3.15313\O,0,1.84086,-1.0517,-2.75351\C,0,0.64273,-
 0.88789,-2.98254\H,0,0.79647,1.15287,-2.97954\N,0,0.14057,0.39299,-3.0
 9405\O,0,-1.50946,1.91757,-3.42609\C,0,-1.15975,0.75319,-3.34495\H,0,-
 2.38059,-2.35665,-3.53638\C,0,-1.60394,-1.60547,-3.39889\C,0,-3.43688,
 0.03278,-3.76703\N,0,-2.0361,-0.30321,-3.49741\H,0,-1.85172,3.59092,-8
 .68432\H,0,-1.18842,4.66472,-7.65036\H,0,-2.51473,3.82099,-7.21092\H,0
 ,3.59704,0.35747,-4.82152\H,0,2.19661,-0.47915,-5.32046\N,0,2.68734,0.
 38874,-5.23576\C,0,2.15152,1.53625,-5.65683\C,0,0.45793,2.89379,-6.631
 8\N,0,1.13999,4.04411,-6.5053\H,0,2.94496,4.70854,-5.79733\C,0,2.32438
 ,3.82458,-5.93793\N,0,2.86286,2.67602,-5.5155\H,0,-2.00125,0.95454,-7.
 43423\C,0,-1.06131,1.37667,-7.07748\N,0,-0.09208,0.68289,-6.53255\C,0,
 0.87741,1.63278,-6.24528\C,0,-1.65639,3.78445,-7.72287\N,0,-0.79577,2.
 72123,-7.16887\\Version=EM64L-G16RevA.03\State=1-A\HF=-2048.7480939\RM
 SD=5.891e-09\Dipole=-3.6807606,0.2478622,-0.9222732\Quadrupole=33.8722
 466,1.0273058,-34.8995524,27.5152799,8.3474218,7.9055641\PG=C01 [X(C23
 H27N17O3)]\\@


 In the beginning there was nothing, which exploded.
 Job cpu time:       0 days  5 hours 40 minutes 50.8 seconds.
 Elapsed time:       0 days  0 hours 10 minutes 59.4 seconds.
 File lengths (MBytes):  RWF=    298 Int=      0 D2E=      0 Chk=     33 Scr=      1
 Normal termination of Gaussian 16 at Mon Jan 22 09:01:49 2018.
