 Entering Gaussian System, Link 0=g16
 Input=str35.-10.-1.5.com
 Output=str35.-10.-1.5.log
 Initial command:
 /share/apps/g16/l1.exe "/state/partition1/scr/Gau-32581.inp" -scrdir="/state/partition1/scr/"
 Entering Link 1 = /share/apps/g16/l1.exe PID=     32582.
  
 Copyright (c) 1988,1990,1992,1993,1995,1998,2003,2009,2016,
            Gaussian, Inc.  All Rights Reserved.
  
 This is part of the Gaussian(R) 16 program.  It is based on
 the Gaussian(R) 09 system (copyright 2009, Gaussian, Inc.),
 the Gaussian(R) 03 system (copyright 2003, Gaussian, Inc.),
 the Gaussian(R) 98 system (copyright 1998, Gaussian, Inc.),
 the Gaussian(R) 94 system (copyright 1995, Gaussian, Inc.),
 the Gaussian 92(TM) system (copyright 1992, Gaussian, Inc.),
 the Gaussian 90(TM) system (copyright 1990, Gaussian, Inc.),
 the Gaussian 88(TM) system (copyright 1988, Gaussian, Inc.),
 the Gaussian 86(TM) system (copyright 1986, Carnegie Mellon
 University), and the Gaussian 82(TM) system (copyright 1983,
 Carnegie Mellon University). Gaussian is a federally registered
 trademark of Gaussian, Inc.
  
 This software contains proprietary and confidential information,
 including trade secrets, belonging to Gaussian, Inc.
  
 This software is provided under written license and may be
 used, copied, transmitted, or stored only in accord with that
 written license.
  
 The following legend is applicable only to US Government
 contracts under FAR:
  
                    RESTRICTED RIGHTS LEGEND
  
 Use, reproduction and disclosure by the US Government is
 subject to restrictions as set forth in subparagraphs (a)
 and (c) of the Commercial Computer Software - Restricted
 Rights clause in FAR 52.227-19.
  
 Gaussian, Inc.
 340 Quinnipiac St., Bldg. 40, Wallingford CT 06492
  
  
 ---------------------------------------------------------------
 Warning -- This program may not be used in any manner that
 competes with the business of Gaussian, Inc. or will provide
 assistance to any competitor of Gaussian, Inc.  The licensee
 of this program is prohibited from giving any competitor of
 Gaussian, Inc. access to this program.  By using this program,
 the user acknowledges that Gaussian, Inc. is engaged in the
 business of creating and licensing software in the field of
 computational chemistry and represents and warrants to the
 licensee that it is not a competitor of Gaussian, Inc. and that
 it will not use this program in any manner prohibited above.
 ---------------------------------------------------------------
  

 Cite this work as:
 Gaussian 16, Revision A.03,
 M. J. Frisch, G. W. Trucks, H. B. Schlegel, G. E. Scuseria, 
 M. A. Robb, J. R. Cheeseman, G. Scalmani, V. Barone, 
 G. A. Petersson, H. Nakatsuji, X. Li, M. Caricato, A. V. Marenich, 
 J. Bloino, B. G. Janesko, R. Gomperts, B. Mennucci, H. P. Hratchian, 
 J. V. Ortiz, A. F. Izmaylov, J. L. Sonnenberg, D. Williams-Young, 
 F. Ding, F. Lipparini, F. Egidi, J. Goings, B. Peng, A. Petrone, 
 T. Henderson, D. Ranasinghe, V. G. Zakrzewski, J. Gao, N. Rega, 
 G. Zheng, W. Liang, M. Hada, M. Ehara, K. Toyota, R. Fukuda, 
 J. Hasegawa, M. Ishida, T. Nakajima, Y. Honda, O. Kitao, H. Nakai, 
 T. Vreven, K. Throssell, J. A. Montgomery, Jr., J. E. Peralta, 
 F. Ogliaro, M. J. Bearpark, J. J. Heyd, E. N. Brothers, K. N. Kudin, 
 V. N. Staroverov, T. A. Keith, R. Kobayashi, J. Normand, 
 K. Raghavachari, A. P. Rendell, J. C. Burant, S. S. Iyengar, 
 J. Tomasi, M. Cossi, J. M. Millam, M. Klene, C. Adamo, R. Cammi, 
 J. W. Ochterski, R. L. Martin, K. Morokuma, O. Farkas, 
 J. B. Foresman, and D. J. Fox, Gaussian, Inc., Wallingford CT, 2016.
 
 ******************************************
 Gaussian 16:  EM64L-G16RevA.03 25-Dec-2016
                22-Jan-2018 
 ******************************************
 %nprocshared=32
 Will use up to   32 processors via shared memory.
 %mem=32GB
 %chk=allatoms_t.chk
 ---------------------------------------
 #p wb97xd/cc-pvdz sp scf=(maxcycles=20)
 ---------------------------------------
 1/38=1,172=1/1;
 2/12=2,17=6,18=5,40=1/2;
 3/5=16,11=2,25=1,30=1,74=-58/1,2,3;
 4//1;
 5/5=2,7=20,38=5/2;
 6/7=2,8=2,9=2,10=2,28=1/1;
 99/5=1,9=1/99;
 Leave Link    1 at Mon Jan 22 02:34:23 2018, MaxMem=  4294967296 cpu:               2.7 elap:               0.1
 (Enter /share/apps/g16/l101.exe)
 ------------------
 Base pair stacking
 ------------------
 Symbolic Z-matrix:
 Charge =  0 Multiplicity = 1
 N                     5.42508   5.91276  -7.25451 
 C                     6.12886   7.20898  -7.30463 
 C                     3.88192   4.36052  -7.03882 
 N                     5.05851   3.69679  -7.35476 
 C                     5.94112   4.65853  -7.47206 
 H                     6.99271   4.50834  -7.71811 
 N                     1.63353   4.82767  -6.50078 
 C                     1.98752   6.11668  -6.47375 
 H                     1.18507   6.81443  -6.23817 
 N                     3.17833   6.67059  -6.69299 
 C                     4.09222   5.72691  -6.97351 
 C                     2.57597   3.90274  -6.7861 
 N                     2.22455   2.61553  -6.81356 
 H                     2.88928   1.89676  -7.02025 
 H                     1.28538   2.32592  -6.62857 
 H                     6.51367   7.3458   -8.21752 
 H                     5.48556   7.94647  -7.10117 
 H                     6.86638   7.21652  -6.62935 
 N                     1.76689   6.09691  -3.31168 
 C                     0.7665    5.1619   -3.19754 
 C                     1.57214   7.56071  -3.30434 
 N                    -2.59957   4.38742  -2.83493 
 H                    -3.16425   3.5653   -2.76785 
 H                    -3.07296   5.26768  -2.79289 
 N                    -0.55185   5.42121  -3.06061 
 C                    -1.26733   4.31379  -2.97501 
 N                    -0.73444   3.04828  -3.01986 
 H                    -1.35763   2.2588   -2.94688 
 C                     0.61901   2.75788  -3.16021 
 O                     0.99628   1.57993  -3.18942 
 C                     1.40034   3.93759  -3.25343 
 N                     2.77107   4.1007   -3.39971 
 C                     2.94146   5.39464  -3.42941 
 H                     3.90631   5.89163  -3.53584 
 H                     1.90534   7.94728  -4.16361 
 H                     0.59931   7.76489  -3.20342 
 H                     2.07679   7.96196  -2.54071 
 H                    -5.04275  -1.23677  -3.17832 
 H                    -4.67722  -1.4344   -1.46601 
 H                    -4.48425   0.14288  -2.23174 
 H                    -1.03761  -3.89018  -3.43298 
 C                    -1.3323   -2.85664  -3.25079 
 O                     0.84162  -1.97942  -3.61362 
 C                    -0.34825  -1.82162  -3.34141 
 H                    -0.1604    0.20702  -3.14737 
 N                    -0.82627  -0.55084  -3.09269 
 O                    -2.44277   0.95733  -2.57355 
 C                    -2.11452  -0.19832  -2.777 
 H                    -3.38284  -3.29381  -2.8635 
 C                    -2.59692  -2.54409  -2.94475 
 C                    -4.39355  -0.92371  -2.3742 
 N                    -3.0049   -1.25177  -2.7085 
 H                    -5.98691   3.17486  -5.1299 
 H                    -4.71535   3.81996  -4.33675 
 H                    -5.63062   2.67585  -3.61746 
 H                     0.22673  -0.46879  -6.91316 
 H                    -1.29425  -1.2339   -6.80672 
 N                    -0.74081  -0.41215  -6.66656 
 C                    -1.27046   0.70888  -6.17268 
 C                    -3.02542   2.066    -5.31239 
 N                    -2.25819   3.15424  -5.13485 
 H                    -0.3126    3.74169  -5.39983 
 C                    -1.00487   2.90824  -5.51113 
 N                    -0.47242   1.78612  -6.00603 
 H                    -5.71302   0.26956  -5.27064 
 C                    -4.69714   0.6488   -5.38512 
 N                    -3.68983  -0.04778  -5.85179 
 C                    -2.62368   0.83901  -5.81101 
 C                    -5.245     2.98562  -4.48667 
 N                    -4.3665    1.93631  -5.03912 
 
 ITRead=  0  0  0  0  0  0  0  0  0  0  0  0  0  0  0  0  0  0  0  0
 ITRead=  0  0  0  0  0  0  0  0  0  0  0  0  0  0  0  0  0  0  0  0
 ITRead=  0  0  0  0  0  0  0  0  0  0  0  0  0  0  0  0  0  0  0  0
 ITRead=  0  0  0  0  0  0  0  0  0  0
 MicOpt= -1 -1 -1 -1 -1 -1 -1 -1 -1 -1 -1 -1 -1 -1 -1 -1 -1 -1 -1 -1
 MicOpt= -1 -1 -1 -1 -1 -1 -1 -1 -1 -1 -1 -1 -1 -1 -1 -1 -1 -1 -1 -1
 MicOpt= -1 -1 -1 -1 -1 -1 -1 -1 -1 -1 -1 -1 -1 -1 -1 -1 -1 -1 -1 -1
 MicOpt= -1 -1 -1 -1 -1 -1 -1 -1 -1 -1
 NAtoms=     70 NQM=       70 NQMF=       0 NMMI=      0 NMMIF=      0
                NMic=       0 NMicF=      0.
                    Isotopes and Nuclear Properties:
 (Nuclear quadrupole moments (NQMom) in fm**2, nuclear magnetic moments (NMagM)
  in nuclear magnetons)

  Atom         1           2           3           4           5           6           7           8           9          10
 IAtWgt=          14          12          12          14          12           1          14          12           1          14
 AtmWgt=  14.0030740  12.0000000  12.0000000  14.0030740  12.0000000   1.0078250  14.0030740  12.0000000   1.0078250  14.0030740
 NucSpn=           2           0           0           2           0           1           2           0           1           2
 AtZEff=  -0.0000000  -0.0000000  -0.0000000  -0.0000000  -0.0000000  -0.0000000  -0.0000000  -0.0000000  -0.0000000  -0.0000000
 NQMom=    2.0440000   0.0000000   0.0000000   2.0440000   0.0000000   0.0000000   2.0440000   0.0000000   0.0000000   2.0440000
 NMagM=    0.4037610   0.0000000   0.0000000   0.4037610   0.0000000   2.7928460   0.4037610   0.0000000   2.7928460   0.4037610
 AtZNuc=   7.0000000   6.0000000   6.0000000   7.0000000   6.0000000   1.0000000   7.0000000   6.0000000   1.0000000   7.0000000

  Atom        11          12          13          14          15          16          17          18          19          20
 IAtWgt=          12          12          14           1           1           1           1           1          14          12
 AtmWgt=  12.0000000  12.0000000  14.0030740   1.0078250   1.0078250   1.0078250   1.0078250   1.0078250  14.0030740  12.0000000
 NucSpn=           0           0           2           1           1           1           1           1           2           0
 AtZEff=  -0.0000000  -0.0000000  -0.0000000  -0.0000000  -0.0000000  -0.0000000  -0.0000000  -0.0000000  -0.0000000  -0.0000000
 NQMom=    0.0000000   0.0000000   2.0440000   0.0000000   0.0000000   0.0000000   0.0000000   0.0000000   2.0440000   0.0000000
 NMagM=    0.0000000   0.0000000   0.4037610   2.7928460   2.7928460   2.7928460   2.7928460   2.7928460   0.4037610   0.0000000
 AtZNuc=   6.0000000   6.0000000   7.0000000   1.0000000   1.0000000   1.0000000   1.0000000   1.0000000   7.0000000   6.0000000

  Atom        21          22          23          24          25          26          27          28          29          30
 IAtWgt=          12          14           1           1          14          12          14           1          12          16
 AtmWgt=  12.0000000  14.0030740   1.0078250   1.0078250  14.0030740  12.0000000  14.0030740   1.0078250  12.0000000  15.9949146
 NucSpn=           0           2           1           1           2           0           2           1           0           0
 AtZEff=  -0.0000000  -0.0000000  -0.0000000  -0.0000000  -0.0000000  -0.0000000  -0.0000000  -0.0000000  -0.0000000  -0.0000000
 NQMom=    0.0000000   2.0440000   0.0000000   0.0000000   2.0440000   0.0000000   2.0440000   0.0000000   0.0000000   0.0000000
 NMagM=    0.0000000   0.4037610   2.7928460   2.7928460   0.4037610   0.0000000   0.4037610   2.7928460   0.0000000   0.0000000
 AtZNuc=   6.0000000   7.0000000   1.0000000   1.0000000   7.0000000   6.0000000   7.0000000   1.0000000   6.0000000   8.0000000

  Atom        31          32          33          34          35          36          37          38          39          40
 IAtWgt=          12          14          12           1           1           1           1           1           1           1
 AtmWgt=  12.0000000  14.0030740  12.0000000   1.0078250   1.0078250   1.0078250   1.0078250   1.0078250   1.0078250   1.0078250
 NucSpn=           0           2           0           1           1           1           1           1           1           1
 AtZEff=  -0.0000000  -0.0000000  -0.0000000  -0.0000000  -0.0000000  -0.0000000  -0.0000000  -0.0000000  -0.0000000  -0.0000000
 NQMom=    0.0000000   2.0440000   0.0000000   0.0000000   0.0000000   0.0000000   0.0000000   0.0000000   0.0000000   0.0000000
 NMagM=    0.0000000   0.4037610   0.0000000   2.7928460   2.7928460   2.7928460   2.7928460   2.7928460   2.7928460   2.7928460
 AtZNuc=   6.0000000   7.0000000   6.0000000   1.0000000   1.0000000   1.0000000   1.0000000   1.0000000   1.0000000   1.0000000

  Atom        41          42          43          44          45          46          47          48          49          50
 IAtWgt=           1          12          16          12           1          14          16          12           1          12
 AtmWgt=   1.0078250  12.0000000  15.9949146  12.0000000   1.0078250  14.0030740  15.9949146  12.0000000   1.0078250  12.0000000
 NucSpn=           1           0           0           0           1           2           0           0           1           0
 AtZEff=  -0.0000000  -0.0000000  -0.0000000  -0.0000000  -0.0000000  -0.0000000  -0.0000000  -0.0000000  -0.0000000  -0.0000000
 NQMom=    0.0000000   0.0000000   0.0000000   0.0000000   0.0000000   2.0440000   0.0000000   0.0000000   0.0000000   0.0000000
 NMagM=    2.7928460   0.0000000   0.0000000   0.0000000   2.7928460   0.4037610   0.0000000   0.0000000   2.7928460   0.0000000
 AtZNuc=   1.0000000   6.0000000   8.0000000   6.0000000   1.0000000   7.0000000   8.0000000   6.0000000   1.0000000   6.0000000

  Atom        51          52          53          54          55          56          57          58          59          60
 IAtWgt=          12          14           1           1           1           1           1          14          12          12
 AtmWgt=  12.0000000  14.0030740   1.0078250   1.0078250   1.0078250   1.0078250   1.0078250  14.0030740  12.0000000  12.0000000
 NucSpn=           0           2           1           1           1           1           1           2           0           0
 AtZEff=  -0.0000000  -0.0000000  -0.0000000  -0.0000000  -0.0000000  -0.0000000  -0.0000000  -0.0000000  -0.0000000  -0.0000000
 NQMom=    0.0000000   2.0440000   0.0000000   0.0000000   0.0000000   0.0000000   0.0000000   2.0440000   0.0000000   0.0000000
 NMagM=    0.0000000   0.4037610   2.7928460   2.7928460   2.7928460   2.7928460   2.7928460   0.4037610   0.0000000   0.0000000
 AtZNuc=   6.0000000   7.0000000   1.0000000   1.0000000   1.0000000   1.0000000   1.0000000   7.0000000   6.0000000   6.0000000

  Atom        61          62          63          64          65          66          67          68          69          70
 IAtWgt=          14           1          12          14           1          12          14          12          12          14
 AtmWgt=  14.0030740   1.0078250  12.0000000  14.0030740   1.0078250  12.0000000  14.0030740  12.0000000  12.0000000  14.0030740
 NucSpn=           2           1           0           2           1           0           2           0           0           2
 AtZEff=  -0.0000000  -0.0000000  -0.0000000  -0.0000000  -0.0000000  -0.0000000  -0.0000000  -0.0000000  -0.0000000  -0.0000000
 NQMom=    2.0440000   0.0000000   0.0000000   2.0440000   0.0000000   0.0000000   2.0440000   0.0000000   0.0000000   2.0440000
 NMagM=    0.4037610   2.7928460   0.0000000   0.4037610   2.7928460   0.0000000   0.4037610   0.0000000   0.0000000   0.4037610
 AtZNuc=   7.0000000   1.0000000   6.0000000   7.0000000   1.0000000   6.0000000   7.0000000   6.0000000   6.0000000   7.0000000
 Leave Link  101 at Mon Jan 22 02:34:23 2018, MaxMem=  4294967296 cpu:               7.7 elap:               0.3
 (Enter /share/apps/g16/l202.exe)
 Stoichiometry    C23H27N17O3
 Framework group  C1[X(C23H27N17O3)]
 Deg. of freedom   204
 Full point group                 C1      NOp   1
 Largest Abelian subgroup         C1      NOp   1
 Largest concise Abelian subgroup C1      NOp   1
                         Standard orientation:                         
 ---------------------------------------------------------------------
 Center     Atomic      Atomic             Coordinates (Angstroms)
 Number     Number       Type             X           Y           Z
 ---------------------------------------------------------------------
      1          7           0       -6.628304   -1.318882    0.480658
      2          6           0       -7.976695   -0.727372    0.380846
      3          6           0       -4.462039   -1.591929    0.745341
      4          7           0       -4.981959   -2.850053    0.477896
      5          6           0       -6.266252   -2.635194    0.329137
      6          1           0       -7.002368   -3.407992    0.105853
      7          7           0       -2.977633    0.176292    1.227942
      8          6           0       -4.046146    0.979477    1.200374
      9          1           0       -3.841705    2.032075    1.391477
     10          7           0       -5.323279    0.679059    0.973242
     11          6           0       -5.464805   -0.638016    0.750306
     12          6           0       -3.153127   -1.143642    0.999748
     13          7           0       -2.087743   -1.946997    1.026852
     14          1           0       -2.170849   -2.930684    0.863542
     15          1           0       -1.170705   -1.593178    1.211216
     16          1           0       -8.575742   -1.142347    1.065759
     17          1           0       -7.921935    0.257855    0.540382
     18          1           0       -8.349934   -0.895348   -0.531553
     19          7           0       -3.072205    2.157286   -1.576668
     20          6           0       -1.719514    2.026153   -1.373981
     21          6           0       -3.855141    3.387360   -1.342958
     22          7           0        1.324307    3.394223   -0.412072
     23          1           0        2.274963    3.095644   -0.332396
     24          1           0        1.123541    4.341267   -0.160032
     25          7           0       -0.885054    2.991209   -0.930832
     26          6           0        0.361279    2.562737   -0.837649
     27          7           0        0.761851    1.287156   -1.153771
     28          1           0        1.736112    1.047534   -1.051946
     29          6           0       -0.079448    0.277956   -1.611580
     30          8           0        0.383419   -0.840263   -1.868663
     31          6           0       -1.421654    0.723253   -1.716828
     32          7           0       -2.564354    0.049980   -2.126513
     33          6           0       -3.516083    0.937970   -2.027111
     34          1           0       -4.563382    0.755617   -2.270371
     35          1           0       -4.561078    3.210057   -0.658108
     36          1           0       -3.247539    4.109277   -1.014432
     37          1           0       -4.285120    3.678096   -2.197004
     38          1           0        6.586541    0.304096    0.279713
     39          1           0        6.877679    0.533843   -1.442823
     40          1           0        5.543731    1.376897   -0.654639
     41          1           0        5.274013   -4.002037   -1.417659
     42          6           0        4.880939   -2.987646   -1.348792
     43          8           0        2.643764   -3.626025   -1.812053
     44          6           0        3.482799   -2.763007   -1.555128
     45          1           0        2.109536   -1.245910   -1.584888
     46          7           0        3.090348   -1.444210   -1.445568
     47          8           0        3.448484    0.769896   -1.089719
     48          6           0        3.888985   -0.363567   -1.166449
     49          1           0        6.755340   -2.071287   -0.909779
     50          6           0        5.685173   -1.953796   -1.074976
     51          6           0        6.116964    0.462070   -0.679775
     52          7           0        5.224704   -0.660981   -0.980373
     53          1           0        3.988743    3.537000    2.918342
     54          1           0        2.850956    3.605696    1.750940
     55          1           0        4.426968    3.473157    1.347574
     56          1           0        1.301682   -3.252202    1.594723
     57          1           0        2.925496   -2.971498    2.035784
     58          7           0        2.035731   -2.596776    1.772888
     59          6           0        1.837922   -1.281337    1.664969
     60          6           0        2.479307    1.008392    1.751705
     61          7           0        1.273860    1.483158    1.396847
     62          1           0       -0.588038    0.780708    0.906406
     63          6           0        0.417963    0.482632    1.198600
     64          7           0        0.614157   -0.835517    1.306179
     65          1           0        5.593135    1.114315    2.614833
     66          6           0        4.581069    0.811170    2.345081
     67          7           0        4.167608   -0.430789    2.279773
     68          6           0        2.836571   -0.319961    1.904550
     69          6           0        3.728830    3.205028    2.011574
     70          7           0        3.611288    1.734142    2.037884
 ---------------------------------------------------------------------
 Rotational constants (GHZ):           0.1560492           0.0526878           0.0483035
 Leave Link  202 at Mon Jan 22 02:34:23 2018, MaxMem=  4294967296 cpu:               0.3 elap:               0.0
 (Enter /share/apps/g16/l301.exe)
 Standard basis: CC-pVDZ (5D, 7F)
 Ernie: Thresh=  0.10000D-02 Tol=  0.10000D-05 Strict=F.
 Ernie:  86 primitive shells out of 1081 were deleted.
 There are   780 symmetry adapted cartesian basis functions of A   symmetry.
 There are   737 symmetry adapted basis functions of A   symmetry.
   737 basis functions,  1608 primitive gaussians,   780 cartesian basis functions
   154 alpha electrons      154 beta electrons
       nuclear repulsion energy      5539.2345178146 Hartrees.
 IExCor= 4639 DFT=T Ex+Corr=wB97XD ExCW=0 ScaHFX=  1.000000
 ScaDFX=  1.000000  1.000000  1.000000  1.000000 ScalE2=  1.000000  1.000000
 IRadAn=      5 IRanWt=     -1 IRanGd=            0 ICorTp=0 IEmpDi=121
 HFx  wShort=  0.000000 wLong=  0.200000 cFull=  0.222036 cShort=  0.000000 cLong=  0.777964
 DFx  wShort=  0.000000 wLong=  0.200000 cFull=  0.000000 cShort=  0.000000 cLong=  1.000000
 NAtoms=   70 NActive=   70 NUniq=   70 SFac= 1.00D+00 NAtFMM=   60 NAOKFM=T Big=T
 Integral buffers will be    131072 words long.
 Raffenetti 2 integral format.
 Two-electron integral symmetry is turned on.
 R6Disp:  Grimme-D2 Dispersion energy=       -0.0744731828 Hartrees.
 Nuclear repulsion after empirical dispersion term =     5539.1600446318 Hartrees.
 Leave Link  301 at Mon Jan 22 02:34:23 2018, MaxMem=  4294967296 cpu:               2.2 elap:               0.1
 (Enter /share/apps/g16/l302.exe)
 NPDir=0 NMtPBC=     1 NCelOv=     1 NCel=       1 NClECP=     1 NCelD=      1
         NCelK=      1 NCelE2=     1 NClLst=     1 CellRange=     0.0.
 One-electron integrals computed using PRISM.
 One-electron integral symmetry used in STVInt
 NBasis=   737 RedAO= T EigKep=  6.99D-04  NBF=   737
 NBsUse=   737 1.00D-06 EigRej= -1.00D+00 NBFU=   737
 Precomputing XC quadrature grid using
 IXCGrd= 4 IRadAn=           5 IRanWt=          -1 IRanGd=           0 AccXCQ= 0.00D+00.
 Generated NRdTot=       0 NPtTot=           0 NUsed=           0 NTot=          32
 NSgBfM=   767   767   767   767   767 MxSgAt=    70 MxSgA2=    70.
 Leave Link  302 at Mon Jan 22 02:34:28 2018, MaxMem=  4294967296 cpu:             134.5 elap:               4.2
 (Enter /share/apps/g16/l303.exe)
 DipDrv:  MaxL=1.
 Leave Link  303 at Mon Jan 22 02:34:28 2018, MaxMem=  4294967296 cpu:              17.3 elap:               0.6
 (Enter /share/apps/g16/l401.exe)
 ExpMin= 1.22D-01 ExpMax= 1.17D+04 ExpMxC= 4.01D+02 IAcc=3 IRadAn=         5 AccDes= 0.00D+00
 Harris functional with IExCor= 4639 and IRadAn=       5 diagonalized for initial guess.
 HarFok:  IExCor= 4639 AccDes= 0.00D+00 IRadAn=         5 IDoV= 1 UseB2=F ITyADJ=14
 ICtDFT=  3500011 ScaDFX=  1.000000  1.000000  1.000000  1.000000
 FoFCou: FMM=F IPFlag=           0 FMFlag=      100000 FMFlg1=        2001
         NFxFlg=           0 DoJE=T BraDBF=F KetDBF=T FulRan=T
         wScrn=  0.000000 ICntrl=       500 IOpCl=  0 I1Cent=   200000004 NGrid=           0
         NMat0=    1 NMatS0=      1 NMatT0=    0 NMatD0=    1 NMtDS0=    0 NMtDT0=    0
 Petite list used in FoFCou.
 Harris En= -1963.85658271675    
 JPrj=0 DoOrth=F DoCkMO=F.
 Leave Link  401 at Mon Jan 22 02:34:43 2018, MaxMem=  4294967296 cpu:             456.6 elap:              14.8
 (Enter /share/apps/g16/l502.exe)
 Integral symmetry usage will be decided dynamically.
 Closed shell SCF:
 Using DIIS extrapolation, IDIIS=  1040.
 NGot=  4294967296 LenX=  4293717438 LenY=  4293108258
 Requested convergence on RMS density matrix=1.00D-08 within  20 cycles.
 Requested convergence on MAX density matrix=1.00D-06.
 Requested convergence on             energy=1.00D-06.
 No special actions if energy rises.
 Fock matrices will be formed incrementally for  20 cycles.
 Integral accuracy reduced to 1.0D-05 until final iterations.

 Cycle   1  Pass 0  IDiag  1:
 FoFJK:  IHMeth= 1 ICntrl=       0 DoSepK=T KAlg= 0 I1Cent=           0 FoldK=F
 IRaf=         1 NMat=       1 IRICut=       1 DoRegI=T DoRafI=F ISym2E= 0 IDoP0=0 IntGTp=1.
 FoFCou: FMM=T IPFlag=           0 FMFlag=      100000 FMFlg1=        2001
         NFxFlg=           0 DoJE=T BraDBF=F KetDBF=F FulRan=T
         wScrn=  0.000000 ICntrl=       500 IOpCl=  0 I1Cent=           0 NGrid=           0
         NMat0=    1 NMatS0=      1 NMatT0=    0 NMatD0=    1 NMtDS0=    0 NMtDT0=    0
 Symmetry not used in FoFCou.
 FMM levels:  10  Number of levels for PrismC:   9
 E= -2048.29747298728    
 DIIS: error= 2.48D-02 at cycle   1 NSaved=   1.
 NSaved= 1 IEnMin= 1 EnMin= -2048.29747298728     IErMin= 1 ErrMin= 2.48D-02
 ErrMax= 2.48D-02  0.00D+00 EMaxC= 1.00D-01 BMatC= 8.28D-01 BMatP= 8.28D-01
 IDIUse=3 WtCom= 7.52D-01 WtEn= 2.48D-01
 Coeff-Com:  0.100D+01
 Coeff-En:   0.100D+01
 Coeff:      0.100D+01
 Gap=     0.258 Goal=   None    Shift=    0.000
 GapD=    0.258 DampG=1.000 DampE=0.500 DampFc=0.5000 IDamp=-1.
 Damping current iteration by 5.00D-01
 RMSDP=1.57D-03 MaxDP=1.30D-01              OVMax= 1.95D-01

 Cycle   2  Pass 0  IDiag  1:
 RMSU=  7.83D-04    CP:  9.97D-01
 E= -2048.49345754798     Delta-E=       -0.195984560696 Rises=F Damp=T
 DIIS: error= 1.36D-02 at cycle   2 NSaved=   2.
 NSaved= 2 IEnMin= 2 EnMin= -2048.49345754798     IErMin= 2 ErrMin= 1.36D-02
 ErrMax= 1.36D-02  0.00D+00 EMaxC= 1.00D-01 BMatC= 1.45D-01 BMatP= 8.28D-01
 IDIUse=3 WtCom= 8.64D-01 WtEn= 1.36D-01
 Coeff-Com: -0.200D+00 0.120D+01
 Coeff-En:   0.000D+00 0.100D+01
 Coeff:     -0.173D+00 0.117D+01
 Gap=     0.360 Goal=   None    Shift=    0.000
 RMSDP=5.87D-04 MaxDP=3.35D-02 DE=-1.96D-01 OVMax= 1.60D-01

 Cycle   3  Pass 0  IDiag  1:
 RMSU=  5.76D-04    CP:  9.94D-01  1.14D+00
 E= -2048.67255437290     Delta-E=       -0.179096824925 Rises=F Damp=F
 DIIS: error= 7.11D-03 at cycle   3 NSaved=   3.
 NSaved= 3 IEnMin= 3 EnMin= -2048.67255437290     IErMin= 3 ErrMin= 7.11D-03
 ErrMax= 7.11D-03  0.00D+00 EMaxC= 1.00D-01 BMatC= 6.12D-02 BMatP= 1.45D-01
 IDIUse=3 WtCom= 9.29D-01 WtEn= 7.11D-02
 Coeff-Com: -0.231D+00 0.546D+00 0.686D+00
 Coeff-En:   0.000D+00 0.000D+00 0.100D+01
 Coeff:     -0.215D+00 0.507D+00 0.708D+00
 Gap=     0.279 Goal=   None    Shift=    0.000
 RMSDP=3.54D-04 MaxDP=3.32D-02 DE=-1.79D-01 OVMax= 7.37D-02

 Cycle   4  Pass 0  IDiag  1:
 RMSU=  2.02D-04    CP:  9.94D-01  1.42D+00  6.75D-01
 E= -2048.71903749495     Delta-E=       -0.046483122052 Rises=F Damp=F
 DIIS: error= 2.30D-03 at cycle   4 NSaved=   4.
 NSaved= 4 IEnMin= 4 EnMin= -2048.71903749495     IErMin= 4 ErrMin= 2.30D-03
 ErrMax= 2.30D-03  0.00D+00 EMaxC= 1.00D-01 BMatC= 8.79D-03 BMatP= 6.12D-02
 IDIUse=3 WtCom= 9.77D-01 WtEn= 2.30D-02
 Coeff-Com: -0.963D-01 0.187D+00 0.379D+00 0.531D+00
 Coeff-En:   0.000D+00 0.000D+00 0.617D-01 0.938D+00
 Coeff:     -0.941D-01 0.182D+00 0.372D+00 0.540D+00
 Gap=     0.284 Goal=   None    Shift=    0.000
 RMSDP=1.26D-04 MaxDP=1.19D-02 DE=-4.65D-02 OVMax= 1.41D-02

 Cycle   5  Pass 0  IDiag  1:
 RMSU=  6.14D-05    CP:  9.94D-01  1.39D+00  8.06D-01  6.17D-01
 E= -2048.72634136615     Delta-E=       -0.007303871191 Rises=F Damp=F
 DIIS: error= 6.01D-04 at cycle   5 NSaved=   5.
 NSaved= 5 IEnMin= 5 EnMin= -2048.72634136615     IErMin= 5 ErrMin= 6.01D-04
 ErrMax= 6.01D-04  0.00D+00 EMaxC= 1.00D-01 BMatC= 2.76D-04 BMatP= 8.79D-03
 IDIUse=3 WtCom= 9.94D-01 WtEn= 6.01D-03
 Coeff-Com: -0.243D-01 0.417D-01 0.120D+00 0.235D+00 0.628D+00
 Coeff-En:   0.000D+00 0.000D+00 0.000D+00 0.000D+00 0.100D+01
 Coeff:     -0.242D-01 0.414D-01 0.119D+00 0.233D+00 0.631D+00
 Gap=     0.284 Goal=   None    Shift=    0.000
 RMSDP=2.59D-05 MaxDP=1.88D-03 DE=-7.30D-03 OVMax= 3.18D-03

 Failed to achieve initial convergence to 1.0D-08 in  6 cycles.
 Switch to full accuracy anyway.
 Cycle   6  Pass 1  IDiag  1:
 E= -2048.72654701483     Delta-E=       -0.000205648686 Rises=F Damp=F
 DIIS: error= 2.72D-04 at cycle   1 NSaved=   1.
 NSaved= 1 IEnMin= 1 EnMin= -2048.72654701483     IErMin= 1 ErrMin= 2.72D-04
 ErrMax= 2.72D-04  0.00D+00 EMaxC= 1.00D-01 BMatC= 7.50D-05 BMatP= 7.50D-05
 IDIUse=3 WtCom= 9.97D-01 WtEn= 2.72D-03
 Coeff-Com:  0.100D+01
 Coeff-En:   0.100D+01
 Coeff:      0.100D+01
 Gap=     0.284 Goal=   None    Shift=    0.000
 RMSDP=2.59D-05 MaxDP=1.88D-03 DE=-2.06D-04 OVMax= 2.70D-03

 Cycle   7  Pass 1  IDiag  1:
 RMSU=  1.11D-04    CP:  1.00D+00
 E= -2048.72660203157     Delta-E=       -0.000055016740 Rises=F Damp=F
 DIIS: error= 2.50D-04 at cycle   2 NSaved=   2.
 NSaved= 2 IEnMin= 2 EnMin= -2048.72660203157     IErMin= 2 ErrMin= 2.50D-04
 ErrMax= 2.50D-04  0.00D+00 EMaxC= 1.00D-01 BMatC= 4.16D-05 BMatP= 7.50D-05
 IDIUse=3 WtCom= 9.97D-01 WtEn= 2.50D-03
 Coeff-Com:  0.401D+00 0.599D+00
 Coeff-En:   0.000D+00 0.100D+01
 Coeff:      0.400D+00 0.600D+00
 Gap=     0.284 Goal=   None    Shift=    0.000
 RMSDP=1.13D-05 MaxDP=1.11D-03 DE=-5.50D-05 OVMax= 1.52D-03

 Cycle   8  Pass 1  IDiag  1:
 RMSU=  1.10D-05    CP:  1.00D+00  1.02D+00
 E= -2048.72663188808     Delta-E=       -0.000029856511 Rises=F Damp=F
 DIIS: error= 1.07D-04 at cycle   3 NSaved=   3.
 NSaved= 3 IEnMin= 3 EnMin= -2048.72663188808     IErMin= 3 ErrMin= 1.07D-04
 ErrMax= 1.07D-04  0.00D+00 EMaxC= 1.00D-01 BMatC= 1.03D-05 BMatP= 4.16D-05
 IDIUse=3 WtCom= 9.99D-01 WtEn= 1.07D-03
 Coeff-Com: -0.199D-01 0.319D+00 0.701D+00
 Coeff-En:   0.000D+00 0.143D+00 0.857D+00
 Coeff:     -0.199D-01 0.319D+00 0.701D+00
 Gap=     0.284 Goal=   None    Shift=    0.000
 RMSDP=5.56D-06 MaxDP=4.59D-04 DE=-2.99D-05 OVMax= 5.53D-04

 Cycle   9  Pass 1  IDiag  1:
 RMSU=  3.77D-06    CP:  1.00D+00  1.05D+00  7.56D-01
 E= -2048.72664145276     Delta-E=       -0.000009564678 Rises=F Damp=F
 DIIS: error= 3.70D-05 at cycle   4 NSaved=   4.
 NSaved= 4 IEnMin= 4 EnMin= -2048.72664145276     IErMin= 4 ErrMin= 3.70D-05
 ErrMax= 3.70D-05  0.00D+00 EMaxC= 1.00D-01 BMatC= 4.84D-07 BMatP= 1.03D-05
 IDIUse=1 WtCom= 1.00D+00 WtEn= 0.00D+00
 Coeff-Com: -0.297D-01 0.874D-01 0.257D+00 0.685D+00
 Coeff:     -0.297D-01 0.874D-01 0.257D+00 0.685D+00
 Gap=     0.284 Goal=   None    Shift=    0.000
 RMSDP=1.41D-06 MaxDP=1.38D-04 DE=-9.56D-06 OVMax= 5.15D-04

 Cycle  10  Pass 1  IDiag  1:
 RMSU=  1.26D-06    CP:  1.00D+00  1.06D+00  7.90D-01  1.10D+00
 E= -2048.72664225922     Delta-E=       -0.000000806456 Rises=F Damp=F
 DIIS: error= 1.67D-05 at cycle   5 NSaved=   5.
 NSaved= 5 IEnMin= 5 EnMin= -2048.72664225922     IErMin= 5 ErrMin= 1.67D-05
 ErrMax= 1.67D-05  0.00D+00 EMaxC= 1.00D-01 BMatC= 1.18D-07 BMatP= 4.84D-07
 IDIUse=1 WtCom= 1.00D+00 WtEn= 0.00D+00
 Coeff-Com: -0.259D-02-0.589D-01-0.123D+00 0.207D+00 0.977D+00
 Coeff:     -0.259D-02-0.589D-01-0.123D+00 0.207D+00 0.977D+00
 Gap=     0.284 Goal=   None    Shift=    0.000
 RMSDP=1.19D-06 MaxDP=7.54D-05 DE=-8.06D-07 OVMax= 2.47D-04

 Cycle  11  Pass 1  IDiag  1:
 RMSU=  4.92D-07    CP:  1.00D+00  1.06D+00  8.01D-01  1.38D+00  1.17D+00
 E= -2048.72664251119     Delta-E=       -0.000000251978 Rises=F Damp=F
 DIIS: error= 9.22D-06 at cycle   6 NSaved=   6.
 NSaved= 6 IEnMin= 6 EnMin= -2048.72664251119     IErMin= 6 ErrMin= 9.22D-06
 ErrMax= 9.22D-06  0.00D+00 EMaxC= 1.00D-01 BMatC= 2.70D-08 BMatP= 1.18D-07
 IDIUse=1 WtCom= 1.00D+00 WtEn= 0.00D+00
 Coeff-Com:  0.449D-02-0.464D-01-0.113D+00 0.311D-02 0.519D+00 0.632D+00
 Coeff:      0.449D-02-0.464D-01-0.113D+00 0.311D-02 0.519D+00 0.632D+00
 Gap=     0.284 Goal=   None    Shift=    0.000
 RMSDP=3.50D-07 MaxDP=3.68D-05 DE=-2.52D-07 OVMax= 1.30D-04

 Cycle  12  Pass 1  IDiag  1:
 RMSU=  1.77D-07    CP:  1.00D+00  1.06D+00  8.02D-01  1.44D+00  1.29D+00
                    CP:  9.36D-01
 E= -2048.72664255017     Delta-E=       -0.000000038972 Rises=F Damp=F
 DIIS: error= 1.26D-06 at cycle   7 NSaved=   7.
 NSaved= 7 IEnMin= 7 EnMin= -2048.72664255017     IErMin= 7 ErrMin= 1.26D-06
 ErrMax= 1.26D-06  0.00D+00 EMaxC= 1.00D-01 BMatC= 7.58D-10 BMatP= 2.70D-08
 IDIUse=1 WtCom= 1.00D+00 WtEn= 0.00D+00
 Coeff-Com:  0.100D-02-0.686D-02-0.180D-01-0.757D-02 0.478D-01 0.131D+00
 Coeff-Com:  0.853D+00
 Coeff:      0.100D-02-0.686D-02-0.180D-01-0.757D-02 0.478D-01 0.131D+00
 Coeff:      0.853D+00
 Gap=     0.284 Goal=   None    Shift=    0.000
 RMSDP=8.49D-08 MaxDP=5.21D-06 DE=-3.90D-08 OVMax= 2.32D-05

 Cycle  13  Pass 1  IDiag  1:
 RMSU=  4.87D-08    CP:  1.00D+00  1.06D+00  8.02D-01  1.45D+00  1.31D+00
                    CP:  1.03D+00  1.15D+00
 E= -2048.72664255137     Delta-E=       -0.000000001208 Rises=F Damp=F
 DIIS: error= 6.74D-07 at cycle   8 NSaved=   8.
 NSaved= 8 IEnMin= 8 EnMin= -2048.72664255137     IErMin= 8 ErrMin= 6.74D-07
 ErrMax= 6.74D-07  0.00D+00 EMaxC= 1.00D-01 BMatC= 3.07D-10 BMatP= 7.58D-10
 IDIUse=1 WtCom= 1.00D+00 WtEn= 0.00D+00
 Coeff-Com: -0.653D-03 0.857D-02 0.200D-01-0.284D-02-0.109D+00-0.919D-01
 Coeff-Com:  0.433D+00 0.744D+00
 Coeff:     -0.653D-03 0.857D-02 0.200D-01-0.284D-02-0.109D+00-0.919D-01
 Coeff:      0.433D+00 0.744D+00
 Gap=     0.284 Goal=   None    Shift=    0.000
 RMSDP=4.31D-08 MaxDP=2.69D-06 DE=-1.21D-09 OVMax= 1.07D-05

 Cycle  14  Pass 1  IDiag  1:
 RMSU=  2.63D-08    CP:  1.00D+00  1.06D+00  8.01D-01  1.46D+00  1.31D+00
                    CP:  1.07D+00  1.28D+00  1.07D+00
 E= -2048.72664255180     Delta-E=       -0.000000000429 Rises=F Damp=F
 DIIS: error= 2.13D-07 at cycle   9 NSaved=   9.
 NSaved= 9 IEnMin= 9 EnMin= -2048.72664255180     IErMin= 9 ErrMin= 2.13D-07
 ErrMax= 2.13D-07  0.00D+00 EMaxC= 1.00D-01 BMatC= 3.04D-11 BMatP= 3.07D-10
 IDIUse=1 WtCom= 1.00D+00 WtEn= 0.00D+00
 Coeff-Com: -0.398D-03 0.453D-02 0.108D-01-0.143D-03-0.525D-01-0.550D-01
 Coeff-Com:  0.862D-01 0.300D+00 0.706D+00
 Coeff:     -0.398D-03 0.453D-02 0.108D-01-0.143D-03-0.525D-01-0.550D-01
 Coeff:      0.862D-01 0.300D+00 0.706D+00
 Gap=     0.284 Goal=   None    Shift=    0.000
 RMSDP=1.33D-08 MaxDP=8.96D-07 DE=-4.29D-10 OVMax= 3.52D-06

 Cycle  15  Pass 1  IDiag  1:
 RMSU=  9.00D-09    CP:  1.00D+00  1.06D+00  8.01D-01  1.46D+00  1.31D+00
                    CP:  1.08D+00  1.31D+00  1.21D+00  1.11D+00
 E= -2048.72664255222     Delta-E=       -0.000000000412 Rises=F Damp=F
 DIIS: error= 9.75D-08 at cycle  10 NSaved=  10.
 NSaved=10 IEnMin=10 EnMin= -2048.72664255222     IErMin=10 ErrMin= 9.75D-08
 ErrMax= 9.75D-08  0.00D+00 EMaxC= 1.00D-01 BMatC= 5.50D-12 BMatP= 3.04D-11
 IDIUse=1 WtCom= 1.00D+00 WtEn= 0.00D+00
 Coeff-Com:  0.543D-06-0.270D-03-0.534D-03 0.247D-03 0.490D-02 0.475D-03
 Coeff-Com: -0.564D-01-0.556D-01 0.282D+00 0.825D+00
 Coeff:      0.543D-06-0.270D-03-0.534D-03 0.247D-03 0.490D-02 0.475D-03
 Coeff:     -0.564D-01-0.556D-01 0.282D+00 0.825D+00
 Gap=     0.284 Goal=   None    Shift=    0.000
 RMSDP=6.67D-09 MaxDP=3.98D-07 DE=-4.12D-10 OVMax= 1.46D-06

 SCF Done:  E(RwB97XD) =  -2048.72664255     A.U. after   15 cycles
            NFock= 15  Conv=0.67D-08     -V/T= 2.0053
 KE= 2.037871847830D+03 PE=-1.585912230854D+04 EE= 6.233363773521D+03
 Leave Link  502 at Mon Jan 22 02:46:26 2018, MaxMem=  4294967296 cpu:           21741.6 elap:             702.6
 (Enter /share/apps/g16/l601.exe)
 Copying SCF densities to generalized density rwf, IOpCl= 0 IROHF=0.

 **********************************************************************

            Population analysis using the SCF density.

 **********************************************************************

 Orbital symmetries:
       Occupied  (A) (A) (A) (A) (A) (A) (A) (A) (A) (A) (A) (A)
                 (A) (A) (A) (A) (A) (A) (A) (A) (A) (A) (A) (A)
                 (A) (A) (A) (A) (A) (A) (A) (A) (A) (A) (A) (A)
                 (A) (A) (A) (A) (A) (A) (A) (A) (A) (A) (A) (A)
                 (A) (A) (A) (A) (A) (A) (A) (A) (A) (A) (A) (A)
                 (A) (A) (A) (A) (A) (A) (A) (A) (A) (A) (A) (A)
                 (A) (A) (A) (A) (A) (A) (A) (A) (A) (A) (A) (A)
                 (A) (A) (A) (A) (A) (A) (A) (A) (A) (A) (A) (A)
                 (A) (A) (A) (A) (A) (A) (A) (A) (A) (A) (A) (A)
                 (A) (A) (A) (A) (A) (A) (A) (A) (A) (A) (A) (A)
                 (A) (A) (A) (A) (A) (A) (A) (A) (A) (A) (A) (A)
                 (A) (A) (A) (A) (A) (A) (A) (A) (A) (A) (A) (A)
                 (A) (A) (A) (A) (A) (A) (A) (A) (A) (A)
       Virtual   (A) (A) (A) (A) (A) (A) (A) (A) (A) (A) (A) (A)
                 (A) (A) (A) (A) (A) (A) (A) (A) (A) (A) (A) (A)
                 (A) (A) (A) (A) (A) (A) (A) (A) (A) (A) (A) (A)
                 (A) (A) (A) (A) (A) (A) (A) (A) (A) (A) (A) (A)
                 (A) (A) (A) (A) (A) (A) (A) (A) (A) (A) (A) (A)
                 (A) (A) (A) (A) (A) (A) (A) (A) (A) (A) (A) (A)
                 (A) (A) (A) (A) (A) (A) (A) (A) (A) (A) (A) (A)
                 (A) (A) (A) (A) (A) (A) (A) (A) (A) (A) (A) (A)
                 (A) (A) (A) (A) (A) (A) (A) (A) (A) (A) (A) (A)
                 (A) (A) (A) (A) (A) (A) (A) (A) (A) (A) (A) (A)
                 (A) (A) (A) (A) (A) (A) (A) (A) (A) (A) (A) (A)
                 (A) (A) (A) (A) (A) (A) (A) (A) (A) (A) (A) (A)
                 (A) (A) (A) (A) (A) (A) (A) (A) (A) (A) (A) (A)
                 (A) (A) (A) (A) (A) (A) (A) (A) (A) (A) (A) (A)
                 (A) (A) (A) (A) (A) (A) (A) (A) (A) (A) (A) (A)
                 (A) (A) (A) (A) (A) (A) (A) (A) (A) (A) (A) (A)
                 (A) (A) (A) (A) (A) (A) (A) (A) (A) (A) (A) (A)
                 (A) (A) (A) (A) (A) (A) (A) (A) (A) (A) (A) (A)
                 (A) (A) (A) (A) (A) (A) (A) (A) (A) (A) (A) (A)
                 (A) (A) (A) (A) (A) (A) (A) (A) (A) (A) (A) (A)
                 (A) (A) (A) (A) (A) (A) (A) (A) (A) (A) (A) (A)
                 (A) (A) (A) (A) (A) (A) (A) (A) (A) (A) (A) (A)
                 (A) (A) (A) (A) (A) (A) (A) (A) (A) (A) (A) (A)
                 (A) (A) (A) (A) (A) (A) (A) (A) (A) (A) (A) (A)
                 (A) (A) (A) (A) (A) (A) (A) (A) (A) (A) (A) (A)
                 (A) (A) (A) (A) (A) (A) (A) (A) (A) (A) (A) (A)
                 (A) (A) (A) (A) (A) (A) (A) (A) (A) (A) (A) (A)
                 (A) (A) (A) (A) (A) (A) (A) (A) (A) (A) (A) (A)
                 (A) (A) (A) (A) (A) (A) (A) (A) (A) (A) (A) (A)
                 (A) (A) (A) (A) (A) (A) (A) (A) (A) (A) (A) (A)
                 (A) (A) (A) (A) (A) (A) (A) (A) (A) (A) (A) (A)
                 (A) (A) (A) (A) (A) (A) (A) (A) (A) (A) (A) (A)
                 (A) (A) (A) (A) (A) (A) (A) (A) (A) (A) (A) (A)
                 (A) (A) (A) (A) (A) (A) (A) (A) (A) (A) (A) (A)
                 (A) (A) (A) (A) (A) (A) (A) (A) (A) (A) (A) (A)
                 (A) (A) (A) (A) (A) (A) (A) (A) (A) (A) (A) (A)
                 (A) (A) (A) (A) (A) (A) (A) (A) (A) (A) (A) (A)
                 (A) (A) (A) (A) (A) (A) (A) (A) (A) (A) (A) (A)
                 (A) (A) (A) (A) (A) (A) (A) (A) (A) (A) (A) (A)
                 (A) (A) (A) (A) (A) (A) (A) (A) (A) (A) (A) (A)
                 (A) (A) (A) (A) (A) (A) (A) (A) (A) (A) (A) (A)
                 (A) (A) (A) (A) (A) (A) (A) (A) (A) (A) (A) (A)
                 (A) (A) (A) (A) (A) (A) (A) (A) (A) (A) (A) (A)
                 (A) (A) (A) (A) (A) (A) (A) (A) (A) (A) (A) (A)
                 (A) (A) (A) (A) (A) (A) (A) (A) (A) (A) (A) (A)
                 (A) (A) (A) (A) (A) (A) (A) (A) (A) (A) (A) (A)
                 (A) (A) (A) (A) (A) (A) (A) (A) (A) (A) (A) (A)
                 (A) (A) (A) (A) (A) (A) (A) (A) (A) (A) (A) (A)
                 (A) (A) (A) (A) (A) (A) (A)
 The electronic state is 1-A.
 Alpha  occ. eigenvalues --  -19.25937 -19.21947 -19.20558 -14.52414 -14.51838
 Alpha  occ. eigenvalues --  -14.49327 -14.48522 -14.47886 -14.47235 -14.46539
 Alpha  occ. eigenvalues --  -14.46176 -14.44862 -14.43400 -14.42743 -14.42739
 Alpha  occ. eigenvalues --  -14.42021 -14.41951 -14.41609 -14.40687 -14.40650
 Alpha  occ. eigenvalues --  -10.45528 -10.40893 -10.40077 -10.39050 -10.38076
 Alpha  occ. eigenvalues --  -10.37724 -10.37430 -10.36402 -10.35980 -10.35466
 Alpha  occ. eigenvalues --  -10.35027 -10.34605 -10.34199 -10.34041 -10.33948
 Alpha  occ. eigenvalues --  -10.33718 -10.33094 -10.31721 -10.31470 -10.31014
 Alpha  occ. eigenvalues --  -10.30447 -10.29093 -10.27976  -1.19511  -1.14549
 Alpha  occ. eigenvalues --   -1.13178  -1.12985  -1.11908  -1.10432  -1.09306
 Alpha  occ. eigenvalues --   -1.08593  -1.08244  -1.05555  -1.03947  -1.02499
 Alpha  occ. eigenvalues --   -1.01018  -1.00432  -0.99552  -0.98459  -0.97503
 Alpha  occ. eigenvalues --   -0.96395  -0.95945  -0.93217  -0.91005  -0.87080
 Alpha  occ. eigenvalues --   -0.85618  -0.84500  -0.83912  -0.83748  -0.82851
 Alpha  occ. eigenvalues --   -0.82226  -0.78838  -0.76367  -0.74529  -0.74131
 Alpha  occ. eigenvalues --   -0.73527  -0.73439  -0.73356  -0.71655  -0.69803
 Alpha  occ. eigenvalues --   -0.67250  -0.66864  -0.66540  -0.66143  -0.64419
 Alpha  occ. eigenvalues --   -0.63720  -0.63636  -0.63240  -0.62706  -0.61580
 Alpha  occ. eigenvalues --   -0.60782  -0.60420  -0.59936  -0.59484  -0.59063
 Alpha  occ. eigenvalues --   -0.58967  -0.58139  -0.57222  -0.56964  -0.56606
 Alpha  occ. eigenvalues --   -0.55990  -0.55842  -0.55227  -0.54796  -0.54333
 Alpha  occ. eigenvalues --   -0.53907  -0.53513  -0.53030  -0.52760  -0.52570
 Alpha  occ. eigenvalues --   -0.52537  -0.52266  -0.52067  -0.51315  -0.50717
 Alpha  occ. eigenvalues --   -0.50000  -0.49664  -0.49414  -0.48999  -0.48657
 Alpha  occ. eigenvalues --   -0.48652  -0.48188  -0.48032  -0.47691  -0.47486
 Alpha  occ. eigenvalues --   -0.47324  -0.45698  -0.45390  -0.43907  -0.43489
 Alpha  occ. eigenvalues --   -0.41779  -0.40325  -0.39513  -0.37795  -0.37470
 Alpha  occ. eigenvalues --   -0.37182  -0.37077  -0.36442  -0.35795  -0.34239
 Alpha  occ. eigenvalues --   -0.34216  -0.34020  -0.33770  -0.33136  -0.32594
 Alpha  occ. eigenvalues --   -0.32575  -0.32079  -0.31906  -0.31748  -0.31497
 Alpha  occ. eigenvalues --   -0.30947  -0.28679  -0.26332  -0.25262
 Alpha virt. eigenvalues --    0.03137   0.04704   0.07406   0.07628   0.08884
 Alpha virt. eigenvalues --    0.09215   0.09681   0.10328   0.11045   0.11398
 Alpha virt. eigenvalues --    0.13002   0.13704   0.14363   0.14586   0.14691
 Alpha virt. eigenvalues --    0.15876   0.15998   0.17006   0.17239   0.18143
 Alpha virt. eigenvalues --    0.18690   0.19142   0.19448   0.19997   0.20211
 Alpha virt. eigenvalues --    0.20637   0.21184   0.21696   0.21979   0.22054
 Alpha virt. eigenvalues --    0.23193   0.23501   0.23610   0.23657   0.23949
 Alpha virt. eigenvalues --    0.24130   0.24314   0.24696   0.25276   0.25699
 Alpha virt. eigenvalues --    0.26305   0.26731   0.26979   0.27243   0.28184
 Alpha virt. eigenvalues --    0.28460   0.29380   0.29613   0.30448   0.30758
 Alpha virt. eigenvalues --    0.31202   0.32424   0.32873   0.33245   0.33694
 Alpha virt. eigenvalues --    0.33763   0.34613   0.34977   0.35956   0.36337
 Alpha virt. eigenvalues --    0.37021   0.37571   0.37919   0.39447   0.39664
 Alpha virt. eigenvalues --    0.40341   0.40488   0.41279   0.41558   0.41708
 Alpha virt. eigenvalues --    0.42334   0.42420   0.43281   0.44152   0.44785
 Alpha virt. eigenvalues --    0.45077   0.45352   0.46025   0.46474   0.47395
 Alpha virt. eigenvalues --    0.47859   0.48428   0.48830   0.49291   0.49692
 Alpha virt. eigenvalues --    0.49943   0.50510   0.50619   0.51228   0.51337
 Alpha virt. eigenvalues --    0.51729   0.51958   0.52762   0.53245   0.54106
 Alpha virt. eigenvalues --    0.54441   0.54728   0.54972   0.55172   0.55770
 Alpha virt. eigenvalues --    0.56058   0.56764   0.57115   0.57391   0.57520
 Alpha virt. eigenvalues --    0.57805   0.58167   0.59200   0.59391   0.59737
 Alpha virt. eigenvalues --    0.60274   0.60670   0.61002   0.61156   0.61499
 Alpha virt. eigenvalues --    0.62018   0.62616   0.63274   0.63596   0.63747
 Alpha virt. eigenvalues --    0.64082   0.64843   0.64968   0.65096   0.65233
 Alpha virt. eigenvalues --    0.66090   0.66470   0.66900   0.67400   0.67733
 Alpha virt. eigenvalues --    0.68219   0.68559   0.68931   0.69359   0.69965
 Alpha virt. eigenvalues --    0.70685   0.71083   0.71253   0.71797   0.72036
 Alpha virt. eigenvalues --    0.72804   0.73130   0.73498   0.73839   0.74116
 Alpha virt. eigenvalues --    0.74452   0.74781   0.75133   0.75440   0.75503
 Alpha virt. eigenvalues --    0.76063   0.76320   0.76468   0.76716   0.77146
 Alpha virt. eigenvalues --    0.77281   0.77698   0.77877   0.78628   0.78817
 Alpha virt. eigenvalues --    0.79429   0.79544   0.79918   0.80497   0.80878
 Alpha virt. eigenvalues --    0.81297   0.81764   0.82735   0.83110   0.83150
 Alpha virt. eigenvalues --    0.83815   0.84283   0.84705   0.85362   0.85520
 Alpha virt. eigenvalues --    0.85855   0.86097   0.86896   0.87139   0.87605
 Alpha virt. eigenvalues --    0.87906   0.88651   0.88974   0.89409   0.89866
 Alpha virt. eigenvalues --    0.90483   0.90855   0.91309   0.91868   0.92169
 Alpha virt. eigenvalues --    0.92521   0.92795   0.93573   0.94107   0.94874
 Alpha virt. eigenvalues --    0.95302   0.95799   0.96155   0.96454   0.96761
 Alpha virt. eigenvalues --    0.97164   0.97817   0.97866   0.98500   0.98950
 Alpha virt. eigenvalues --    0.99833   1.00239   1.00779   1.01163   1.01792
 Alpha virt. eigenvalues --    1.01994   1.02540   1.02770   1.03343   1.03742
 Alpha virt. eigenvalues --    1.04033   1.04375   1.05206   1.05510   1.06248
 Alpha virt. eigenvalues --    1.06631   1.06908   1.07880   1.07927   1.08233
 Alpha virt. eigenvalues --    1.09202   1.10334   1.10596   1.11221   1.11915
 Alpha virt. eigenvalues --    1.12411   1.12701   1.13081   1.13224   1.13734
 Alpha virt. eigenvalues --    1.14171   1.14489   1.15127   1.15454   1.15651
 Alpha virt. eigenvalues --    1.16336   1.17025   1.17661   1.18385   1.18873
 Alpha virt. eigenvalues --    1.19137   1.19681   1.19902   1.20162   1.20395
 Alpha virt. eigenvalues --    1.20895   1.21044   1.21417   1.21538   1.22082
 Alpha virt. eigenvalues --    1.22515   1.23081   1.23521   1.23582   1.23864
 Alpha virt. eigenvalues --    1.24415   1.24728   1.25172   1.25740   1.26761
 Alpha virt. eigenvalues --    1.27739   1.27829   1.28142   1.28912   1.29004
 Alpha virt. eigenvalues --    1.29360   1.29885   1.30573   1.31632   1.31778
 Alpha virt. eigenvalues --    1.32607   1.33593   1.34100   1.34908   1.35336
 Alpha virt. eigenvalues --    1.35537   1.36117   1.36783   1.38134   1.38598
 Alpha virt. eigenvalues --    1.39028   1.39603   1.40234   1.40784   1.41590
 Alpha virt. eigenvalues --    1.41952   1.43063   1.43685   1.44733   1.46047
 Alpha virt. eigenvalues --    1.46169   1.47900   1.48372   1.48514   1.49038
 Alpha virt. eigenvalues --    1.49374   1.50002   1.50525   1.50983   1.51051
 Alpha virt. eigenvalues --    1.52602   1.52834   1.53394   1.54754   1.55199
 Alpha virt. eigenvalues --    1.55653   1.56112   1.56701   1.56896   1.58266
 Alpha virt. eigenvalues --    1.58782   1.59454   1.59875   1.60534   1.60968
 Alpha virt. eigenvalues --    1.61746   1.62913   1.63389   1.63874   1.64268
 Alpha virt. eigenvalues --    1.65688   1.66086   1.66221   1.66998   1.67424
 Alpha virt. eigenvalues --    1.67543   1.68165   1.68463   1.69571   1.70109
 Alpha virt. eigenvalues --    1.70345   1.70871   1.71103   1.71527   1.71847
 Alpha virt. eigenvalues --    1.72111   1.72642   1.73075   1.73664   1.73905
 Alpha virt. eigenvalues --    1.74618   1.74714   1.75279   1.75657   1.75809
 Alpha virt. eigenvalues --    1.76004   1.76148   1.76931   1.77596   1.78071
 Alpha virt. eigenvalues --    1.78259   1.78706   1.79111   1.79217   1.79580
 Alpha virt. eigenvalues --    1.79660   1.79982   1.80108   1.80450   1.80853
 Alpha virt. eigenvalues --    1.81755   1.81930   1.82343   1.82813   1.83418
 Alpha virt. eigenvalues --    1.83591   1.84114   1.84612   1.84972   1.85101
 Alpha virt. eigenvalues --    1.85818   1.86295   1.86887   1.87795   1.88035
 Alpha virt. eigenvalues --    1.88364   1.88635   1.88768   1.89856   1.90415
 Alpha virt. eigenvalues --    1.90683   1.91218   1.91506   1.91855   1.92303
 Alpha virt. eigenvalues --    1.92951   1.93501   1.93815   1.94017   1.94330
 Alpha virt. eigenvalues --    1.95138   1.95796   1.96377   1.97766   1.98388
 Alpha virt. eigenvalues --    1.98482   1.99815   2.00639   2.00798   2.01860
 Alpha virt. eigenvalues --    2.02653   2.02771   2.04297   2.04937   2.05165
 Alpha virt. eigenvalues --    2.05406   2.06082   2.06666   2.06915   2.07678
 Alpha virt. eigenvalues --    2.08028   2.08647   2.09663   2.10331   2.10511
 Alpha virt. eigenvalues --    2.10778   2.11592   2.11741   2.13253   2.13855
 Alpha virt. eigenvalues --    2.14382   2.14580   2.15533   2.18138   2.18369
 Alpha virt. eigenvalues --    2.19706   2.20116   2.20682   2.21143   2.21268
 Alpha virt. eigenvalues --    2.21457   2.22554   2.23110   2.23654   2.24361
 Alpha virt. eigenvalues --    2.24690   2.25363   2.26383   2.26731   2.27179
 Alpha virt. eigenvalues --    2.27568   2.28256   2.28913   2.29243   2.30388
 Alpha virt. eigenvalues --    2.30503   2.31151   2.31779   2.32125   2.33106
 Alpha virt. eigenvalues --    2.33695   2.34214   2.34494   2.35249   2.35562
 Alpha virt. eigenvalues --    2.36082   2.36677   2.37047   2.37542   2.37960
 Alpha virt. eigenvalues --    2.38257   2.40083   2.40382   2.41100   2.41393
 Alpha virt. eigenvalues --    2.41743   2.42136   2.43081   2.43602   2.44012
 Alpha virt. eigenvalues --    2.45523   2.46181   2.46436   2.46757   2.47310
 Alpha virt. eigenvalues --    2.48163   2.49124   2.49446   2.50191   2.52178
 Alpha virt. eigenvalues --    2.52842   2.53887   2.55349   2.55727   2.56312
 Alpha virt. eigenvalues --    2.57245   2.57490   2.57992   2.59548   2.59958
 Alpha virt. eigenvalues --    2.61253   2.61824   2.61986   2.62855   2.63982
 Alpha virt. eigenvalues --    2.64563   2.65437   2.65845   2.66288   2.66763
 Alpha virt. eigenvalues --    2.67764   2.67993   2.68776   2.69353   2.70104
 Alpha virt. eigenvalues --    2.70469   2.71438   2.71532   2.72278   2.73290
 Alpha virt. eigenvalues --    2.74081   2.74214   2.74996   2.75392   2.76073
 Alpha virt. eigenvalues --    2.78326   2.78790   2.79559   2.80124   2.80308
 Alpha virt. eigenvalues --    2.80422   2.80653   2.80982   2.81533   2.81958
 Alpha virt. eigenvalues --    2.82452   2.83027   2.83654   2.84002   2.84960
 Alpha virt. eigenvalues --    2.85402   2.85904   2.86490   2.87044   2.87528
 Alpha virt. eigenvalues --    2.88883   2.89292   2.89964   2.92739   2.94105
 Alpha virt. eigenvalues --    2.95418   2.96374   2.97209   2.98908   3.00025
 Alpha virt. eigenvalues --    3.00589   3.02001   3.03637   3.05027   3.06804
 Alpha virt. eigenvalues --    3.07792   3.09949   3.11383   3.13906   3.14800
 Alpha virt. eigenvalues --    3.15269   3.16126   3.16723   3.18379   3.20748
 Alpha virt. eigenvalues --    3.22258   3.23475   3.24141   3.24249   3.27542
 Alpha virt. eigenvalues --    3.45633   3.47253   3.48389   3.49565   3.50458
 Alpha virt. eigenvalues --    3.53057   3.54170   3.56591   3.58421   3.60305
 Alpha virt. eigenvalues --    3.63407   3.70841   3.74790
          Condensed to atoms (all electrons):
 Mulliken charges:
               1
     1  N   -0.312197
     2  C    0.180376
     3  C    0.049021
     4  N   -0.258777
     5  C    0.134062
     6  H    0.028174
     7  N   -0.279506
     8  C    0.126743
     9  H    0.014019
    10  N   -0.290135
    11  C    0.233383
    12  C    0.112049
    13  N   -0.050868
    14  H    0.108213
    15  H    0.088430
    16  H    0.027069
    17  H    0.033245
    18  H    0.026531
    19  N   -0.299961
    20  C    0.241804
    21  C    0.177492
    22  N   -0.081259
    23  H    0.105568
    24  H    0.114215
    25  N   -0.292430
    26  C    0.205724
    27  N   -0.120473
    28  H    0.118036
    29  C    0.137702
    30  O   -0.319712
    31  C    0.022547
    32  N   -0.221988
    33  C    0.119230
    34  H    0.025121
    35  H    0.029053
    36  H    0.026322
    37  H    0.022929
    38  H    0.056969
    39  H    0.063063
    40  H    0.069372
    41  H    0.030252
    42  C   -0.114995
    43  O   -0.267029
    44  C    0.175952
    45  H    0.135214
    46  N   -0.132584
    47  O   -0.347891
    48  C    0.356386
    49  H    0.047256
    50  C    0.179332
    51  C    0.040436
    52  N   -0.287991
    53  H    0.036975
    54  H    0.025297
    55  H    0.025887
    56  H    0.122757
    57  H    0.117384
    58  N   -0.064189
    59  C    0.113823
    60  C    0.239674
    61  N   -0.280693
    62  H    0.043037
    63  C    0.174555
    64  N   -0.302465
    65  H    0.031751
    66  C    0.117361
    67  N   -0.256572
    68  C    0.003973
    69  C    0.173328
    70  N   -0.305381
 Sum of Mulliken charges =  -0.00000
 Mulliken charges with hydrogens summed into heavy atoms:
               1
     1  N   -0.312197
     2  C    0.267221
     3  C    0.049021
     4  N   -0.258777
     5  C    0.162237
     7  N   -0.279506
     8  C    0.140761
    10  N   -0.290135
    11  C    0.233383
    12  C    0.112049
    13  N    0.145775
    19  N   -0.299961
    20  C    0.241804
    21  C    0.255796
    22  N    0.138524
    25  N   -0.292430
    26  C    0.205724
    27  N   -0.002437
    29  C    0.137702
    30  O   -0.319712
    31  C    0.022547
    32  N   -0.221988
    33  C    0.144350
    42  C   -0.084742
    43  O   -0.267029
    44  C    0.175952
    46  N    0.002630
    47  O   -0.347891
    48  C    0.356386
    50  C    0.226589
    51  C    0.229841
    52  N   -0.287991
    58  N    0.175952
    59  C    0.113823
    60  C    0.239674
    61  N   -0.280693
    63  C    0.217593
    64  N   -0.302465
    66  C    0.149112
    67  N   -0.256572
    68  C    0.003973
    69  C    0.261488
    70  N   -0.305381
 Electronic spatial extent (au):  <R**2>=          22814.9493
 Charge=              0.0000 electrons
 Dipole moment (field-independent basis, Debye):
    X=              6.6367    Y=              5.9926    Z=              3.3732  Tot=              9.5570
 Quadrupole moment (field-independent basis, Debye-Ang):
   XX=           -144.1587   YY=           -225.6294   ZZ=           -255.8671
   XY=              9.3671   XZ=             10.2478   YZ=            -10.1388
 Traceless Quadrupole moment (field-independent basis, Debye-Ang):
   XX=             64.3930   YY=            -17.0776   ZZ=            -47.3154
   XY=              9.3671   XZ=             10.2478   YZ=            -10.1388
 Octapole moment (field-independent basis, Debye-Ang**2):
  XXX=            -18.5351  YYY=             98.4217  ZZZ=              8.1858  XYY=             59.1906
  XXY=              0.5965  XXZ=            -53.0443  XZZ=             21.3689  YZZ=             33.7529
  YYZ=             63.7801  XYZ=             40.0998
 Hexadecapole moment (field-independent basis, Debye-Ang**3):
 XXXX=         -15563.9445 YYYY=          -5028.7535 ZZZZ=          -3250.3367 XXXY=            500.7428
 XXXZ=             51.8198 YYYX=             58.9516 YYYZ=           -110.8495 ZZZX=             34.8313
 ZZZY=             -1.2582 XXYY=          -3971.5739 XXZZ=          -4094.7660 YYZZ=          -1421.0168
 XXYZ=             84.8977 YYXZ=            221.3444 ZZXY=             53.6349
 N-N= 5.539160044632D+03 E-N=-1.585912230557D+04  KE= 2.037871847830D+03
 No NMR shielding tensors so no spin-rotation constants.
 Leave Link  601 at Mon Jan 22 02:46:28 2018, MaxMem=  4294967296 cpu:              46.8 elap:               1.6
 (Enter /share/apps/g16/l9999.exe)
 1\1\GINC-COMPUTE-0-3\SP\RwB97XD\CC-pVDZ\C23H27N17O3\SATYA\22-Jan-2018\
 0\\#p wb97xd/cc-pvdz sp scf=(maxcycles=20)\\Base pair stacking\\0,1\N,
 0,5.42508,5.91276,-7.25451\C,0,6.12886,7.20898,-7.30463\C,0,3.88192,4.
 36052,-7.03882\N,0,5.05851,3.69679,-7.35476\C,0,5.94112,4.65853,-7.472
 06\H,0,6.99271,4.50834,-7.71811\N,0,1.63353,4.82767,-6.50078\C,0,1.987
 52,6.11668,-6.47375\H,0,1.18507,6.81443,-6.23817\N,0,3.17833,6.67059,-
 6.69299\C,0,4.09222,5.72691,-6.97351\C,0,2.57597,3.90274,-6.7861\N,0,2
 .22455,2.61553,-6.81356\H,0,2.88928,1.89676,-7.02025\H,0,1.28538,2.325
 92,-6.62857\H,0,6.51367,7.3458,-8.21752\H,0,5.48556,7.94647,-7.10117\H
 ,0,6.86638,7.21652,-6.62935\N,0,1.76689,6.09691,-3.31168\C,0,0.7665,5.
 1619,-3.19754\C,0,1.57214,7.56071,-3.30434\N,0,-2.59957,4.38742,-2.834
 93\H,0,-3.16425,3.5653,-2.76785\H,0,-3.07296,5.26768,-2.79289\N,0,-0.5
 5185,5.42121,-3.06061\C,0,-1.26733,4.31379,-2.97501\N,0,-0.73444,3.048
 28,-3.01986\H,0,-1.35763,2.2588,-2.94688\C,0,0.61901,2.75788,-3.16021\
 O,0,0.99628,1.57993,-3.18942\C,0,1.40034,3.93759,-3.25343\N,0,2.77107,
 4.1007,-3.39971\C,0,2.94146,5.39464,-3.42941\H,0,3.90631,5.89163,-3.53
 584\H,0,1.90534,7.94728,-4.16361\H,0,0.59931,7.76489,-3.20342\H,0,2.07
 679,7.96196,-2.54071\H,0,-5.04275,-1.23677,-3.17832\H,0,-4.67722,-1.43
 44,-1.46601\H,0,-4.48425,0.14288,-2.23174\H,0,-1.03761,-3.89018,-3.432
 98\C,0,-1.3323,-2.85664,-3.25079\O,0,0.84162,-1.97942,-3.61362\C,0,-0.
 34825,-1.82162,-3.34141\H,0,-0.1604,0.20702,-3.14737\N,0,-0.82627,-0.5
 5084,-3.09269\O,0,-2.44277,0.95733,-2.57355\C,0,-2.11452,-0.19832,-2.7
 77\H,0,-3.38284,-3.29381,-2.8635\C,0,-2.59692,-2.54409,-2.94475\C,0,-4
 .39355,-0.92371,-2.3742\N,0,-3.0049,-1.25177,-2.7085\H,0,-5.98691,3.17
 486,-5.1299\H,0,-4.71535,3.81996,-4.33675\H,0,-5.63062,2.67585,-3.6174
 6\H,0,0.22673,-0.46879,-6.91316\H,0,-1.29425,-1.2339,-6.80672\N,0,-0.7
 4081,-0.41215,-6.66656\C,0,-1.27046,0.70888,-6.17268\C,0,-3.02542,2.06
 6,-5.31239\N,0,-2.25819,3.15424,-5.13485\H,0,-0.3126,3.74169,-5.39983\
 C,0,-1.00487,2.90824,-5.51113\N,0,-0.47242,1.78612,-6.00603\H,0,-5.713
 02,0.26956,-5.27064\C,0,-4.69714,0.6488,-5.38512\N,0,-3.68983,-0.04778
 ,-5.85179\C,0,-2.62368,0.83901,-5.81101\C,0,-5.245,2.98562,-4.48667\N,
 0,-4.3665,1.93631,-5.03912\\Version=EM64L-G16RevA.03\State=1-A\HF=-204
 8.7266426\RMSD=6.671e-09\Dipole=-3.7393246,0.2977375,0.2578387\Quadrup
 ole=22.6913676,2.2485639,-24.9399315,31.7459726,-20.6455793,1.9180647\
 PG=C01 [X(C23H27N17O3)]\\@


 SILVERMAN'S PARADOX - IF MURPHY'S LAW CAN GO WRONG, IT WILL.
 Job cpu time:       0 days  6 hours 13 minutes 32.0 seconds.
 Elapsed time:       0 days  0 hours 12 minutes  4.4 seconds.
 File lengths (MBytes):  RWF=    298 Int=      0 D2E=      0 Chk=     33 Scr=      1
 Normal termination of Gaussian 16 at Mon Jan 22 02:46:28 2018.
