 Entering Gaussian System, Link 0=g16
 Input=str35.20.-1.0.com
 Output=str35.20.-1.0.log
 Initial command:
 /share/apps/g16/l1.exe "/state/partition1/scr/Gau-14615.inp" -scrdir="/state/partition1/scr/"
 Entering Link 1 = /share/apps/g16/l1.exe PID=     14616.
  
 Copyright (c) 1988,1990,1992,1993,1995,1998,2003,2009,2016,
            Gaussian, Inc.  All Rights Reserved.
  
 This is part of the Gaussian(R) 16 program.  It is based on
 the Gaussian(R) 09 system (copyright 2009, Gaussian, Inc.),
 the Gaussian(R) 03 system (copyright 2003, Gaussian, Inc.),
 the Gaussian(R) 98 system (copyright 1998, Gaussian, Inc.),
 the Gaussian(R) 94 system (copyright 1995, Gaussian, Inc.),
 the Gaussian 92(TM) system (copyright 1992, Gaussian, Inc.),
 the Gaussian 90(TM) system (copyright 1990, Gaussian, Inc.),
 the Gaussian 88(TM) system (copyright 1988, Gaussian, Inc.),
 the Gaussian 86(TM) system (copyright 1986, Carnegie Mellon
 University), and the Gaussian 82(TM) system (copyright 1983,
 Carnegie Mellon University). Gaussian is a federally registered
 trademark of Gaussian, Inc.
  
 This software contains proprietary and confidential information,
 including trade secrets, belonging to Gaussian, Inc.
  
 This software is provided under written license and may be
 used, copied, transmitted, or stored only in accord with that
 written license.
  
 The following legend is applicable only to US Government
 contracts under FAR:
  
                    RESTRICTED RIGHTS LEGEND
  
 Use, reproduction and disclosure by the US Government is
 subject to restrictions as set forth in subparagraphs (a)
 and (c) of the Commercial Computer Software - Restricted
 Rights clause in FAR 52.227-19.
  
 Gaussian, Inc.
 340 Quinnipiac St., Bldg. 40, Wallingford CT 06492
  
  
 ---------------------------------------------------------------
 Warning -- This program may not be used in any manner that
 competes with the business of Gaussian, Inc. or will provide
 assistance to any competitor of Gaussian, Inc.  The licensee
 of this program is prohibited from giving any competitor of
 Gaussian, Inc. access to this program.  By using this program,
 the user acknowledges that Gaussian, Inc. is engaged in the
 business of creating and licensing software in the field of
 computational chemistry and represents and warrants to the
 licensee that it is not a competitor of Gaussian, Inc. and that
 it will not use this program in any manner prohibited above.
 ---------------------------------------------------------------
  

 Cite this work as:
 Gaussian 16, Revision A.03,
 M. J. Frisch, G. W. Trucks, H. B. Schlegel, G. E. Scuseria, 
 M. A. Robb, J. R. Cheeseman, G. Scalmani, V. Barone, 
 G. A. Petersson, H. Nakatsuji, X. Li, M. Caricato, A. V. Marenich, 
 J. Bloino, B. G. Janesko, R. Gomperts, B. Mennucci, H. P. Hratchian, 
 J. V. Ortiz, A. F. Izmaylov, J. L. Sonnenberg, D. Williams-Young, 
 F. Ding, F. Lipparini, F. Egidi, J. Goings, B. Peng, A. Petrone, 
 T. Henderson, D. Ranasinghe, V. G. Zakrzewski, J. Gao, N. Rega, 
 G. Zheng, W. Liang, M. Hada, M. Ehara, K. Toyota, R. Fukuda, 
 J. Hasegawa, M. Ishida, T. Nakajima, Y. Honda, O. Kitao, H. Nakai, 
 T. Vreven, K. Throssell, J. A. Montgomery, Jr., J. E. Peralta, 
 F. Ogliaro, M. J. Bearpark, J. J. Heyd, E. N. Brothers, K. N. Kudin, 
 V. N. Staroverov, T. A. Keith, R. Kobayashi, J. Normand, 
 K. Raghavachari, A. P. Rendell, J. C. Burant, S. S. Iyengar, 
 J. Tomasi, M. Cossi, J. M. Millam, M. Klene, C. Adamo, R. Cammi, 
 J. W. Ochterski, R. L. Martin, K. Morokuma, O. Farkas, 
 J. B. Foresman, and D. J. Fox, Gaussian, Inc., Wallingford CT, 2016.
 
 ******************************************
 Gaussian 16:  EM64L-G16RevA.03 25-Dec-2016
                22-Jan-2018 
 ******************************************
 %nprocshared=32
 Will use up to   32 processors via shared memory.
 %mem=32GB
 %chk=allatoms_t.chk
 ---------------------------------------
 #p wb97xd/cc-pvdz sp scf=(maxcycles=20)
 ---------------------------------------
 1/38=1,172=1/1;
 2/12=2,17=6,18=5,40=1/2;
 3/5=16,11=2,25=1,30=1,74=-58/1,2,3;
 4//1;
 5/5=2,7=20,38=5/2;
 6/7=2,8=2,9=2,10=2,28=1/1;
 99/5=1,9=1/99;
 Leave Link    1 at Mon Jan 22 10:49:22 2018, MaxMem=  4294967296 cpu:               2.7 elap:               0.1
 (Enter /share/apps/g16/l101.exe)
 ------------------
 Base pair stacking
 ------------------
 Symbolic Z-matrix:
 Charge =  0 Multiplicity = 1
 N                     7.73034   4.1138   -4.36568 
 C                     8.57132   5.31652  -4.52126 
 C                     6.11508   2.63349  -4.55788 
 N                     7.01911   2.10546  -3.64758 
 C                     7.95606   3.01843  -3.56822 
 H                     8.8426    2.94382  -2.9378 
 N                     4.24549   2.92399  -5.96614 
 C                     4.78143   4.10026  -6.30778 
 H                     4.20833   4.68018  -7.02994 
 N                     5.91371   4.66507  -5.89324 
 C                     6.53998   3.87096  -5.00916 
 C                     4.89986   2.14831  -5.07439 
 N                     4.36647   0.9738   -4.7321 
 H                     4.81625   0.36715  -4.07567 
 H                     3.49957   0.66039  -5.11992 
 H                     9.47506   5.05173  -4.85789 
 H                     8.14346   5.94118  -5.17384 
 H                     8.66777   5.77491  -3.63776 
 N                     2.50943   5.58616  -3.11191 
 C                     1.52897   4.64955  -3.33443 
 C                     2.39386   7.02902  -3.40429 
 N                    -1.66155   3.83999  -4.44208 
 H                    -2.22844   3.02065  -4.52315 
 H                    -2.065     4.70291  -4.74755 
 N                     0.30512   4.88807  -3.8534 
 C                    -0.41618   3.78501  -3.94616 
 N                     0.02541   2.54245  -3.56074 
 H                    -0.59484   1.75458  -3.66804 
 C                     1.28075   2.2737   -3.0243 
 O                     1.58048   1.11554  -2.70876 
 C                     2.06707   3.44902  -2.91852 
 N                     3.35935   3.62833  -2.44442 
 C                     3.57826   4.90832  -2.57823 
 H                     4.50538   5.41192  -2.30234 
 H                     3.09776   7.29495  -4.06202 
 H                     1.49135   7.21769  -3.78918 
 H                     2.51135   7.55217  -2.56089 
 H                    -3.91166  -1.8418   -5.05278 
 H                    -4.37506  -1.77582  -3.35408 
 H                    -3.78891  -0.32286  -4.16446 
 H                    -0.34475  -4.38748  -3.06701 
 C                    -0.64678  -3.34732  -3.1898 
 O                     1.48809  -2.47051  -2.64147 
 C                     0.31261  -2.30886  -2.96842 
 H                     0.47567  -0.26912  -3.00317 
 N                    -0.17287  -1.02964  -3.15055 
 O                    -1.78401   0.49116  -3.64914 
 C                    -1.44754  -0.6719   -3.51217 
 H                    -2.66475  -3.78187  -3.72343 
 C                    -1.89769  -3.02984  -3.54339 
 C                    -3.68776  -1.39575  -4.09519 
 N                    -2.31431  -1.72913  -3.70756 
 H                    -2.54313   0.91476  -9.51015 
 H                    -1.98971   2.06544  -8.49439 
 H                    -3.38384   1.28476  -8.16117 
 H                     2.27377  -2.04848  -4.70575 
 H                     0.92714  -2.90404  -5.30968 
 N                     1.42613  -2.03983  -5.2364 
 C                     0.98014  -0.92591  -5.82073 
 C                    -0.53658   0.36621  -7.12139 
 N                     0.15432   1.51242  -7.00607 
 H                     1.8704    2.20869  -6.12807 
 C                     1.24946   1.32555  -6.27214 
 N                     1.69788   0.21066  -5.68603 
 H                    -2.92344  -1.59786  -8.06873 
 C                    -2.0262   -1.16052  -7.62983 
 N                    -1.15426  -1.81835  -6.90548 
 C                    -0.20453  -0.862    -6.57663 
 C                    -2.46804   1.18962  -8.5516 
 N                    -1.71491   0.16635  -7.80079 
 
 ITRead=  0  0  0  0  0  0  0  0  0  0  0  0  0  0  0  0  0  0  0  0
 ITRead=  0  0  0  0  0  0  0  0  0  0  0  0  0  0  0  0  0  0  0  0
 ITRead=  0  0  0  0  0  0  0  0  0  0  0  0  0  0  0  0  0  0  0  0
 ITRead=  0  0  0  0  0  0  0  0  0  0
 MicOpt= -1 -1 -1 -1 -1 -1 -1 -1 -1 -1 -1 -1 -1 -1 -1 -1 -1 -1 -1 -1
 MicOpt= -1 -1 -1 -1 -1 -1 -1 -1 -1 -1 -1 -1 -1 -1 -1 -1 -1 -1 -1 -1
 MicOpt= -1 -1 -1 -1 -1 -1 -1 -1 -1 -1 -1 -1 -1 -1 -1 -1 -1 -1 -1 -1
 MicOpt= -1 -1 -1 -1 -1 -1 -1 -1 -1 -1
 NAtoms=     70 NQM=       70 NQMF=       0 NMMI=      0 NMMIF=      0
                NMic=       0 NMicF=      0.
                    Isotopes and Nuclear Properties:
 (Nuclear quadrupole moments (NQMom) in fm**2, nuclear magnetic moments (NMagM)
  in nuclear magnetons)

  Atom         1           2           3           4           5           6           7           8           9          10
 IAtWgt=          14          12          12          14          12           1          14          12           1          14
 AtmWgt=  14.0030740  12.0000000  12.0000000  14.0030740  12.0000000   1.0078250  14.0030740  12.0000000   1.0078250  14.0030740
 NucSpn=           2           0           0           2           0           1           2           0           1           2
 AtZEff=  -0.0000000  -0.0000000  -0.0000000  -0.0000000  -0.0000000  -0.0000000  -0.0000000  -0.0000000  -0.0000000  -0.0000000
 NQMom=    2.0440000   0.0000000   0.0000000   2.0440000   0.0000000   0.0000000   2.0440000   0.0000000   0.0000000   2.0440000
 NMagM=    0.4037610   0.0000000   0.0000000   0.4037610   0.0000000   2.7928460   0.4037610   0.0000000   2.7928460   0.4037610
 AtZNuc=   7.0000000   6.0000000   6.0000000   7.0000000   6.0000000   1.0000000   7.0000000   6.0000000   1.0000000   7.0000000

  Atom        11          12          13          14          15          16          17          18          19          20
 IAtWgt=          12          12          14           1           1           1           1           1          14          12
 AtmWgt=  12.0000000  12.0000000  14.0030740   1.0078250   1.0078250   1.0078250   1.0078250   1.0078250  14.0030740  12.0000000
 NucSpn=           0           0           2           1           1           1           1           1           2           0
 AtZEff=  -0.0000000  -0.0000000  -0.0000000  -0.0000000  -0.0000000  -0.0000000  -0.0000000  -0.0000000  -0.0000000  -0.0000000
 NQMom=    0.0000000   0.0000000   2.0440000   0.0000000   0.0000000   0.0000000   0.0000000   0.0000000   2.0440000   0.0000000
 NMagM=    0.0000000   0.0000000   0.4037610   2.7928460   2.7928460   2.7928460   2.7928460   2.7928460   0.4037610   0.0000000
 AtZNuc=   6.0000000   6.0000000   7.0000000   1.0000000   1.0000000   1.0000000   1.0000000   1.0000000   7.0000000   6.0000000

  Atom        21          22          23          24          25          26          27          28          29          30
 IAtWgt=          12          14           1           1          14          12          14           1          12          16
 AtmWgt=  12.0000000  14.0030740   1.0078250   1.0078250  14.0030740  12.0000000  14.0030740   1.0078250  12.0000000  15.9949146
 NucSpn=           0           2           1           1           2           0           2           1           0           0
 AtZEff=  -0.0000000  -0.0000000  -0.0000000  -0.0000000  -0.0000000  -0.0000000  -0.0000000  -0.0000000  -0.0000000  -0.0000000
 NQMom=    0.0000000   2.0440000   0.0000000   0.0000000   2.0440000   0.0000000   2.0440000   0.0000000   0.0000000   0.0000000
 NMagM=    0.0000000   0.4037610   2.7928460   2.7928460   0.4037610   0.0000000   0.4037610   2.7928460   0.0000000   0.0000000
 AtZNuc=   6.0000000   7.0000000   1.0000000   1.0000000   7.0000000   6.0000000   7.0000000   1.0000000   6.0000000   8.0000000

  Atom        31          32          33          34          35          36          37          38          39          40
 IAtWgt=          12          14          12           1           1           1           1           1           1           1
 AtmWgt=  12.0000000  14.0030740  12.0000000   1.0078250   1.0078250   1.0078250   1.0078250   1.0078250   1.0078250   1.0078250
 NucSpn=           0           2           0           1           1           1           1           1           1           1
 AtZEff=  -0.0000000  -0.0000000  -0.0000000  -0.0000000  -0.0000000  -0.0000000  -0.0000000  -0.0000000  -0.0000000  -0.0000000
 NQMom=    0.0000000   2.0440000   0.0000000   0.0000000   0.0000000   0.0000000   0.0000000   0.0000000   0.0000000   0.0000000
 NMagM=    0.0000000   0.4037610   0.0000000   2.7928460   2.7928460   2.7928460   2.7928460   2.7928460   2.7928460   2.7928460
 AtZNuc=   6.0000000   7.0000000   6.0000000   1.0000000   1.0000000   1.0000000   1.0000000   1.0000000   1.0000000   1.0000000

  Atom        41          42          43          44          45          46          47          48          49          50
 IAtWgt=           1          12          16          12           1          14          16          12           1          12
 AtmWgt=   1.0078250  12.0000000  15.9949146  12.0000000   1.0078250  14.0030740  15.9949146  12.0000000   1.0078250  12.0000000
 NucSpn=           1           0           0           0           1           2           0           0           1           0
 AtZEff=  -0.0000000  -0.0000000  -0.0000000  -0.0000000  -0.0000000  -0.0000000  -0.0000000  -0.0000000  -0.0000000  -0.0000000
 NQMom=    0.0000000   0.0000000   0.0000000   0.0000000   0.0000000   2.0440000   0.0000000   0.0000000   0.0000000   0.0000000
 NMagM=    2.7928460   0.0000000   0.0000000   0.0000000   2.7928460   0.4037610   0.0000000   0.0000000   2.7928460   0.0000000
 AtZNuc=   1.0000000   6.0000000   8.0000000   6.0000000   1.0000000   7.0000000   8.0000000   6.0000000   1.0000000   6.0000000

  Atom        51          52          53          54          55          56          57          58          59          60
 IAtWgt=          12          14           1           1           1           1           1          14          12          12
 AtmWgt=  12.0000000  14.0030740   1.0078250   1.0078250   1.0078250   1.0078250   1.0078250  14.0030740  12.0000000  12.0000000
 NucSpn=           0           2           1           1           1           1           1           2           0           0
 AtZEff=  -0.0000000  -0.0000000  -0.0000000  -0.0000000  -0.0000000  -0.0000000  -0.0000000  -0.0000000  -0.0000000  -0.0000000
 NQMom=    0.0000000   2.0440000   0.0000000   0.0000000   0.0000000   0.0000000   0.0000000   2.0440000   0.0000000   0.0000000
 NMagM=    0.0000000   0.4037610   2.7928460   2.7928460   2.7928460   2.7928460   2.7928460   0.4037610   0.0000000   0.0000000
 AtZNuc=   6.0000000   7.0000000   1.0000000   1.0000000   1.0000000   1.0000000   1.0000000   7.0000000   6.0000000   6.0000000

  Atom        61          62          63          64          65          66          67          68          69          70
 IAtWgt=          14           1          12          14           1          12          14          12          12          14
 AtmWgt=  14.0030740   1.0078250  12.0000000  14.0030740   1.0078250  12.0000000  14.0030740  12.0000000  12.0000000  14.0030740
 NucSpn=           2           1           0           2           1           0           2           0           0           2
 AtZEff=  -0.0000000  -0.0000000  -0.0000000  -0.0000000  -0.0000000  -0.0000000  -0.0000000  -0.0000000  -0.0000000  -0.0000000
 NQMom=    2.0440000   0.0000000   0.0000000   2.0440000   0.0000000   0.0000000   2.0440000   0.0000000   0.0000000   2.0440000
 NMagM=    0.4037610   2.7928460   0.0000000   0.4037610   2.7928460   0.0000000   0.4037610   0.0000000   0.0000000   0.4037610
 AtZNuc=   7.0000000   1.0000000   6.0000000   7.0000000   1.0000000   6.0000000   7.0000000   6.0000000   6.0000000   7.0000000
 Leave Link  101 at Mon Jan 22 10:49:22 2018, MaxMem=  4294967296 cpu:               5.2 elap:               0.2
 (Enter /share/apps/g16/l202.exe)
 Stoichiometry    C23H27N17O3
 Framework group  C1[X(C23H27N17O3)]
 Deg. of freedom   204
 Full point group                 C1      NOp   1
 Largest Abelian subgroup         C1      NOp   1
 Largest concise Abelian subgroup C1      NOp   1
                         Standard orientation:                         
 ---------------------------------------------------------------------
 Center     Atomic      Atomic             Coordinates (Angstroms)
 Number     Number       Type             X           Y           Z
 ---------------------------------------------------------------------
      1          7           0       -6.433200   -1.545134    0.441990
      2          6           0       -7.803914   -1.064797    0.703539
      3          6           0       -4.245816   -1.774636    0.440532
      4          7           0       -4.741987   -2.779288   -0.377526
      5          6           0       -6.039948   -2.600808   -0.343906
      6          1           0       -6.764392   -3.215818   -0.878594
      7          7           0       -2.789530   -0.366439    1.648492
      8          6           0       -3.883004    0.281973    2.062541
      9          1           0       -3.700054    1.123660    2.729144
     10          7           0       -5.162541    0.047866    1.778125
     11          6           0       -5.276384   -1.005879    0.952848
     12          6           0       -2.937496   -1.422308    0.818827
     13          7           0       -1.847166   -2.070840    0.404426
     14          1           0       -1.909429   -2.857973   -0.210205
     15          1           0       -0.931403   -1.792183    0.694037
     16          1           0       -8.338799   -1.794716    1.129327
     17          1           0       -7.770221   -0.276286    1.316924
     18          1           0       -8.235429   -0.796707   -0.157808
     19          7           0       -3.244409    2.660047   -1.331635
     20          6           0       -1.884200    2.495378   -1.227846
     21          6           0       -3.978973    3.905341   -1.031061
     22          7           0        1.252508    3.781984   -0.474585
     23          1           0        2.199019    3.460581   -0.466132
     24          1           0        1.093010    4.730643   -0.200138
     25          7           0       -0.997326    3.435964   -0.836972
     26          6           0        0.241879    2.977717   -0.837474
     27          7           0        0.588181    1.696685   -1.193195
     28          1           0        1.561219    1.433447   -1.163797
     29          6           0       -0.307631    0.712281   -1.598587
     30          8           0        0.108774   -0.413516   -1.898466
     31          6           0       -1.642886    1.189711   -1.603086
     32          7           0       -2.827760    0.547600   -1.935768
     33          6           0       -3.748429    1.456296   -1.760151
     34          1           0       -4.814521    1.300926   -1.929227
     35          1           0       -4.638108    3.737044   -0.298927
     36          1           0       -3.332323    4.609366   -0.740451
     37          1           0       -4.461917    4.215194   -1.849333
     38          1           0        6.475378    0.563321   -0.190826
     39          1           0        6.647848    0.804890   -1.927655
     40          1           0        5.394294    1.670066   -1.038017
     41          1           0        4.942095   -3.692577   -1.828809
     42          6           0        4.579334   -2.670147   -1.722630
     43          8           0        2.300101   -3.251412   -2.029809
     44          6           0        3.175778   -2.410930   -1.825949
     45          1           0        1.840583   -0.862147   -1.743116
     46          7           0        2.823825   -1.084643   -1.676425
     47          8           0        3.259358    1.116588   -1.327009
     48          6           0        3.666009   -0.025895   -1.445538
     49          1           0        6.501721   -1.802321   -1.411019
     50          6           0        5.425593   -1.658262   -1.497842
     51          6           0        5.942224    0.742525   -1.112619
     52          7           0        5.004119   -0.356209   -1.358601
     53          1           0        4.165719    2.199657    4.427347
     54          1           0        2.946102    2.749113    3.493141
     55          1           0        4.492908    2.926402    3.003187
     56          1           0        1.614990   -3.271738    0.111888
     57          1           0        3.256020   -3.135853    0.557627
     58          7           0        2.338008   -2.737830    0.550459
     59          6           0        2.090064   -1.547870    1.101537
     60          6           0        2.660684    0.453585    2.254923
     61          7           0        1.418139    0.963410    2.230452
     62          1           0       -0.449935    0.467380    1.548646
     63          6           0        0.583524    0.129639    1.613080
     64          7           0        0.829930   -1.062626    1.060473
     65          1           0        5.822896    0.327653    2.915742
     66          6           0        4.804668    0.128370    2.580425
     67          7           0        4.428487   -0.952594    1.941905
     68          6           0        3.071210   -0.759211    1.729456
     69          6           0        3.852948    2.328736    3.486327
     70          7           0        3.785788    1.022166    2.803419
 ---------------------------------------------------------------------
 Rotational constants (GHZ):           0.1391496           0.0526195           0.0492172
 Leave Link  202 at Mon Jan 22 10:49:22 2018, MaxMem=  4294967296 cpu:               0.3 elap:               0.0
 (Enter /share/apps/g16/l301.exe)
 Standard basis: CC-pVDZ (5D, 7F)
 Ernie: Thresh=  0.10000D-02 Tol=  0.10000D-05 Strict=F.
 Ernie:  86 primitive shells out of 1081 were deleted.
 There are   780 symmetry adapted cartesian basis functions of A   symmetry.
 There are   737 symmetry adapted basis functions of A   symmetry.
   737 basis functions,  1608 primitive gaussians,   780 cartesian basis functions
   154 alpha electrons      154 beta electrons
       nuclear repulsion energy      5459.4350799578 Hartrees.
 IExCor= 4639 DFT=T Ex+Corr=wB97XD ExCW=0 ScaHFX=  1.000000
 ScaDFX=  1.000000  1.000000  1.000000  1.000000 ScalE2=  1.000000  1.000000
 IRadAn=      5 IRanWt=     -1 IRanGd=            0 ICorTp=0 IEmpDi=121
 HFx  wShort=  0.000000 wLong=  0.200000 cFull=  0.222036 cShort=  0.000000 cLong=  0.777964
 DFx  wShort=  0.000000 wLong=  0.200000 cFull=  0.000000 cShort=  0.000000 cLong=  1.000000
 NAtoms=   70 NActive=   70 NUniq=   70 SFac= 1.00D+00 NAtFMM=   60 NAOKFM=T Big=T
 Integral buffers will be    131072 words long.
 Raffenetti 2 integral format.
 Two-electron integral symmetry is turned on.
 R6Disp:  Grimme-D2 Dispersion energy=       -0.0671378625 Hartrees.
 Nuclear repulsion after empirical dispersion term =     5459.3679420953 Hartrees.
 Leave Link  301 at Mon Jan 22 10:49:22 2018, MaxMem=  4294967296 cpu:               2.1 elap:               0.1
 (Enter /share/apps/g16/l302.exe)
 NPDir=0 NMtPBC=     1 NCelOv=     1 NCel=       1 NClECP=     1 NCelD=      1
         NCelK=      1 NCelE2=     1 NClLst=     1 CellRange=     0.0.
 One-electron integrals computed using PRISM.
 One-electron integral symmetry used in STVInt
 NBasis=   737 RedAO= T EigKep=  7.09D-04  NBF=   737
 NBsUse=   737 1.00D-06 EigRej= -1.00D+00 NBFU=   737
 Precomputing XC quadrature grid using
 IXCGrd= 4 IRadAn=           5 IRanWt=          -1 IRanGd=           0 AccXCQ= 0.00D+00.
 Generated NRdTot=       0 NPtTot=           0 NUsed=           0 NTot=          32
 NSgBfM=   764   764   764   764   764 MxSgAt=    70 MxSgA2=    70.
 Leave Link  302 at Mon Jan 22 10:49:27 2018, MaxMem=  4294967296 cpu:             134.4 elap:               4.2
 (Enter /share/apps/g16/l303.exe)
 DipDrv:  MaxL=1.
 Leave Link  303 at Mon Jan 22 10:49:27 2018, MaxMem=  4294967296 cpu:              12.4 elap:               0.4
 (Enter /share/apps/g16/l401.exe)
 ExpMin= 1.22D-01 ExpMax= 1.17D+04 ExpMxC= 4.01D+02 IAcc=3 IRadAn=         5 AccDes= 0.00D+00
 Harris functional with IExCor= 4639 and IRadAn=       5 diagonalized for initial guess.
 HarFok:  IExCor= 4639 AccDes= 0.00D+00 IRadAn=         5 IDoV= 1 UseB2=F ITyADJ=14
 ICtDFT=  3500011 ScaDFX=  1.000000  1.000000  1.000000  1.000000
 FoFCou: FMM=F IPFlag=           0 FMFlag=      100000 FMFlg1=        2001
         NFxFlg=           0 DoJE=T BraDBF=F KetDBF=T FulRan=T
         wScrn=  0.000000 ICntrl=       500 IOpCl=  0 I1Cent=   200000004 NGrid=           0
         NMat0=    1 NMatS0=      1 NMatT0=    0 NMatD0=    1 NMtDS0=    0 NMtDT0=    0
 Petite list used in FoFCou.
 Harris En= -1963.87260545012    
 JPrj=0 DoOrth=F DoCkMO=F.
 Leave Link  401 at Mon Jan 22 10:49:39 2018, MaxMem=  4294967296 cpu:             391.6 elap:              12.3
 (Enter /share/apps/g16/l502.exe)
 Integral symmetry usage will be decided dynamically.
 Closed shell SCF:
 Using DIIS extrapolation, IDIIS=  1040.
 NGot=  4294967296 LenX=  4293717438 LenY=  4293108258
 Requested convergence on RMS density matrix=1.00D-08 within  20 cycles.
 Requested convergence on MAX density matrix=1.00D-06.
 Requested convergence on             energy=1.00D-06.
 No special actions if energy rises.
 Fock matrices will be formed incrementally for  20 cycles.
 Integral accuracy reduced to 1.0D-05 until final iterations.

 Cycle   1  Pass 0  IDiag  1:
 FoFJK:  IHMeth= 1 ICntrl=       0 DoSepK=T KAlg= 0 I1Cent=           0 FoldK=F
 IRaf=         1 NMat=       1 IRICut=       1 DoRegI=T DoRafI=F ISym2E= 0 IDoP0=0 IntGTp=1.
 FoFCou: FMM=T IPFlag=           0 FMFlag=      100000 FMFlg1=        2001
         NFxFlg=           0 DoJE=T BraDBF=F KetDBF=F FulRan=T
         wScrn=  0.000000 ICntrl=       500 IOpCl=  0 I1Cent=           0 NGrid=           0
         NMat0=    1 NMatS0=      1 NMatT0=    0 NMatD0=    1 NMtDS0=    0 NMtDT0=    0
 Symmetry not used in FoFCou.
 FMM levels:  10  Number of levels for PrismC:   9
 E= -2048.30977866452    
 DIIS: error= 2.49D-02 at cycle   1 NSaved=   1.
 NSaved= 1 IEnMin= 1 EnMin= -2048.30977866452     IErMin= 1 ErrMin= 2.49D-02
 ErrMax= 2.49D-02  0.00D+00 EMaxC= 1.00D-01 BMatC= 8.31D-01 BMatP= 8.31D-01
 IDIUse=3 WtCom= 7.51D-01 WtEn= 2.49D-01
 Coeff-Com:  0.100D+01
 Coeff-En:   0.100D+01
 Coeff:      0.100D+01
 Gap=     0.253 Goal=   None    Shift=    0.000
 GapD=    0.253 DampG=1.000 DampE=0.500 DampFc=0.5000 IDamp=-1.
 Damping current iteration by 5.00D-01
 RMSDP=1.57D-03 MaxDP=1.30D-01              OVMax= 1.86D-01

 Cycle   2  Pass 0  IDiag  1:
 RMSU=  7.82D-04    CP:  9.98D-01
 E= -2048.50615676505     Delta-E=       -0.196378100532 Rises=F Damp=T
 DIIS: error= 1.40D-02 at cycle   2 NSaved=   2.
 NSaved= 2 IEnMin= 2 EnMin= -2048.50615676505     IErMin= 2 ErrMin= 1.40D-02
 ErrMax= 1.40D-02  0.00D+00 EMaxC= 1.00D-01 BMatC= 1.44D-01 BMatP= 8.31D-01
 IDIUse=3 WtCom= 8.60D-01 WtEn= 1.40D-01
 Coeff-Com: -0.200D+00 0.120D+01
 Coeff-En:   0.000D+00 0.100D+01
 Coeff:     -0.172D+00 0.117D+01
 Gap=     0.358 Goal=   None    Shift=    0.000
 RMSDP=5.81D-04 MaxDP=3.33D-02 DE=-1.96D-01 OVMax= 1.53D-01

 Cycle   3  Pass 0  IDiag  1:
 RMSU=  5.70D-04    CP:  9.94D-01  1.14D+00
 E= -2048.68548342427     Delta-E=       -0.179326659219 Rises=F Damp=F
 DIIS: error= 7.04D-03 at cycle   3 NSaved=   3.
 NSaved= 3 IEnMin= 3 EnMin= -2048.68548342427     IErMin= 3 ErrMin= 7.04D-03
 ErrMax= 7.04D-03  0.00D+00 EMaxC= 1.00D-01 BMatC= 6.11D-02 BMatP= 1.44D-01
 IDIUse=3 WtCom= 9.30D-01 WtEn= 7.04D-02
 Coeff-Com: -0.230D+00 0.545D+00 0.685D+00
 Coeff-En:   0.000D+00 0.000D+00 0.100D+01
 Coeff:     -0.214D+00 0.507D+00 0.707D+00
 Gap=     0.276 Goal=   None    Shift=    0.000
 RMSDP=3.51D-04 MaxDP=3.24D-02 DE=-1.79D-01 OVMax= 6.63D-02

 Cycle   4  Pass 0  IDiag  1:
 RMSU=  2.01D-04    CP:  9.94D-01  1.42D+00  6.73D-01
 E= -2048.73194864198     Delta-E=       -0.046465217705 Rises=F Damp=F
 DIIS: error= 2.46D-03 at cycle   4 NSaved=   4.
 NSaved= 4 IEnMin= 4 EnMin= -2048.73194864198     IErMin= 4 ErrMin= 2.46D-03
 ErrMax= 2.46D-03  0.00D+00 EMaxC= 1.00D-01 BMatC= 8.75D-03 BMatP= 6.11D-02
 IDIUse=3 WtCom= 9.75D-01 WtEn= 2.46D-02
 Coeff-Com: -0.954D-01 0.185D+00 0.377D+00 0.533D+00
 Coeff-En:   0.000D+00 0.000D+00 0.614D-01 0.939D+00
 Coeff:     -0.931D-01 0.180D+00 0.370D+00 0.543D+00
 Gap=     0.279 Goal=   None    Shift=    0.000
 RMSDP=1.24D-04 MaxDP=1.07D-02 DE=-4.65D-02 OVMax= 1.42D-02

 Cycle   5  Pass 0  IDiag  1:
 RMSU=  6.00D-05    CP:  9.94D-01  1.39D+00  8.05D-01  6.22D-01
 E= -2048.73921906919     Delta-E=       -0.007270427213 Rises=F Damp=F
 DIIS: error= 4.19D-04 at cycle   5 NSaved=   5.
 NSaved= 5 IEnMin= 5 EnMin= -2048.73921906919     IErMin= 5 ErrMin= 4.19D-04
 ErrMax= 4.19D-04  0.00D+00 EMaxC= 1.00D-01 BMatC= 2.81D-04 BMatP= 8.75D-03
 IDIUse=3 WtCom= 9.96D-01 WtEn= 4.19D-03
 Coeff-Com: -0.247D-01 0.424D-01 0.121D+00 0.239D+00 0.623D+00
 Coeff-En:   0.000D+00 0.000D+00 0.000D+00 0.000D+00 0.100D+01
 Coeff:     -0.246D-01 0.422D-01 0.121D+00 0.238D+00 0.624D+00
 Gap=     0.279 Goal=   None    Shift=    0.000
 RMSDP=2.61D-05 MaxDP=1.61D-03 DE=-7.27D-03 OVMax= 3.18D-03

 Failed to achieve initial convergence to 1.0D-08 in  6 cycles.
 Switch to full accuracy anyway.
 Cycle   6  Pass 1  IDiag  1:
 E= -2048.73945256813     Delta-E=       -0.000233498936 Rises=F Damp=F
 DIIS: error= 2.46D-04 at cycle   1 NSaved=   1.
 NSaved= 1 IEnMin= 1 EnMin= -2048.73945256813     IErMin= 1 ErrMin= 2.46D-04
 ErrMax= 2.46D-04  0.00D+00 EMaxC= 1.00D-01 BMatC= 7.11D-05 BMatP= 7.11D-05
 IDIUse=3 WtCom= 9.98D-01 WtEn= 2.46D-03
 Coeff-Com:  0.100D+01
 Coeff-En:   0.100D+01
 Coeff:      0.100D+01
 Gap=     0.280 Goal=   None    Shift=    0.000
 RMSDP=2.61D-05 MaxDP=1.61D-03 DE=-2.33D-04 OVMax= 2.47D-03

 Cycle   7  Pass 1  IDiag  1:
 RMSU=  1.07D-04    CP:  1.00D+00
 E= -2048.73950697685     Delta-E=       -0.000054408723 Rises=F Damp=F
 DIIS: error= 1.46D-04 at cycle   2 NSaved=   2.
 NSaved= 2 IEnMin= 2 EnMin= -2048.73950697685     IErMin= 2 ErrMin= 1.46D-04
 ErrMax= 1.46D-04  0.00D+00 EMaxC= 1.00D-01 BMatC= 3.99D-05 BMatP= 7.11D-05
 IDIUse=3 WtCom= 9.99D-01 WtEn= 1.46D-03
 Coeff-Com:  0.402D+00 0.598D+00
 Coeff-En:   0.000D+00 0.100D+01
 Coeff:      0.402D+00 0.598D+00
 Gap=     0.279 Goal=   None    Shift=    0.000
 RMSDP=1.11D-05 MaxDP=9.36D-04 DE=-5.44D-05 OVMax= 1.48D-03

 Cycle   8  Pass 1  IDiag  1:
 RMSU=  1.07D-05    CP:  1.00D+00  1.03D+00
 E= -2048.73953600473     Delta-E=       -0.000029027882 Rises=F Damp=F
 DIIS: error= 8.16D-05 at cycle   3 NSaved=   3.
 NSaved= 3 IEnMin= 3 EnMin= -2048.73953600473     IErMin= 3 ErrMin= 8.16D-05
 ErrMax= 8.16D-05  0.00D+00 EMaxC= 1.00D-01 BMatC= 9.63D-06 BMatP= 3.99D-05
 IDIUse=1 WtCom= 1.00D+00 WtEn= 0.00D+00
 Coeff-Com: -0.206D-01 0.316D+00 0.705D+00
 Coeff:     -0.206D-01 0.316D+00 0.705D+00
 Gap=     0.280 Goal=   None    Shift=    0.000
 RMSDP=5.50D-06 MaxDP=4.02D-04 DE=-2.90D-05 OVMax= 5.49D-04

 Cycle   9  Pass 1  IDiag  1:
 RMSU=  3.76D-06    CP:  1.00D+00  1.05D+00  7.63D-01
 E= -2048.73954516885     Delta-E=       -0.000009164119 Rises=F Damp=F
 DIIS: error= 3.17D-05 at cycle   4 NSaved=   4.
 NSaved= 4 IEnMin= 4 EnMin= -2048.73954516885     IErMin= 4 ErrMin= 3.17D-05
 ErrMax= 3.17D-05  0.00D+00 EMaxC= 1.00D-01 BMatC= 4.75D-07 BMatP= 9.63D-06
 IDIUse=1 WtCom= 1.00D+00 WtEn= 0.00D+00
 Coeff-Com: -0.312D-01 0.834D-01 0.256D+00 0.692D+00
 Coeff:     -0.312D-01 0.834D-01 0.256D+00 0.692D+00
 Gap=     0.280 Goal=   None    Shift=    0.000
 RMSDP=1.44D-06 MaxDP=1.31D-04 DE=-9.16D-06 OVMax= 4.67D-04

 Cycle  10  Pass 1  IDiag  1:
 RMSU=  1.27D-06    CP:  1.00D+00  1.06D+00  7.99D-01  1.11D+00
 E= -2048.73954599234     Delta-E=       -0.000000823490 Rises=F Damp=F
 DIIS: error= 1.05D-05 at cycle   5 NSaved=   5.
 NSaved= 5 IEnMin= 5 EnMin= -2048.73954599234     IErMin= 5 ErrMin= 1.05D-05
 ErrMax= 1.05D-05  0.00D+00 EMaxC= 1.00D-01 BMatC= 1.18D-07 BMatP= 4.75D-07
 IDIUse=1 WtCom= 1.00D+00 WtEn= 0.00D+00
 Coeff-Com: -0.264D-02-0.597D-01-0.126D+00 0.207D+00 0.981D+00
 Coeff:     -0.264D-02-0.597D-01-0.126D+00 0.207D+00 0.981D+00
 Gap=     0.280 Goal=   None    Shift=    0.000
 RMSDP=1.21D-06 MaxDP=8.02D-05 DE=-8.23D-07 OVMax= 2.39D-04

 Cycle  11  Pass 1  IDiag  1:
 RMSU=  4.98D-07    CP:  1.00D+00  1.06D+00  8.11D-01  1.40D+00  1.17D+00
 E= -2048.73954625252     Delta-E=       -0.000000260174 Rises=F Damp=F
 DIIS: error= 8.69D-06 at cycle   6 NSaved=   6.
 NSaved= 6 IEnMin= 6 EnMin= -2048.73954625252     IErMin= 6 ErrMin= 8.69D-06
 ErrMax= 8.69D-06  0.00D+00 EMaxC= 1.00D-01 BMatC= 2.75D-08 BMatP= 1.18D-07
 IDIUse=1 WtCom= 1.00D+00 WtEn= 0.00D+00
 Coeff-Com:  0.473D-02-0.462D-01-0.114D+00 0.240D-02 0.523D+00 0.631D+00
 Coeff:      0.473D-02-0.462D-01-0.114D+00 0.240D-02 0.523D+00 0.631D+00
 Gap=     0.280 Goal=   None    Shift=    0.000
 RMSDP=3.54D-07 MaxDP=3.75D-05 DE=-2.60D-07 OVMax= 1.20D-04

 Cycle  12  Pass 1  IDiag  1:
 RMSU=  1.83D-07    CP:  1.00D+00  1.06D+00  8.13D-01  1.46D+00  1.30D+00
                    CP:  9.43D-01
 E= -2048.73954629211     Delta-E=       -0.000000039596 Rises=F Damp=F
 DIIS: error= 1.17D-06 at cycle   7 NSaved=   7.
 NSaved= 7 IEnMin= 7 EnMin= -2048.73954629211     IErMin= 7 ErrMin= 1.17D-06
 ErrMax= 1.17D-06  0.00D+00 EMaxC= 1.00D-01 BMatC= 8.07D-10 BMatP= 2.75D-08
 IDIUse=1 WtCom= 1.00D+00 WtEn= 0.00D+00
 Coeff-Com:  0.104D-02-0.647D-02-0.175D-01-0.775D-02 0.439D-01 0.129D+00
 Coeff-Com:  0.858D+00
 Coeff:      0.104D-02-0.647D-02-0.175D-01-0.775D-02 0.439D-01 0.129D+00
 Coeff:      0.858D+00
 Gap=     0.280 Goal=   None    Shift=    0.000
 RMSDP=8.95D-08 MaxDP=5.46D-06 DE=-3.96D-08 OVMax= 2.23D-05

 Cycle  13  Pass 1  IDiag  1:
 RMSU=  5.08D-08    CP:  1.00D+00  1.06D+00  8.13D-01  1.47D+00  1.32D+00
                    CP:  1.04D+00  1.15D+00
 E= -2048.73954629419     Delta-E=       -0.000000002081 Rises=F Damp=F
 DIIS: error= 5.97D-07 at cycle   8 NSaved=   8.
 NSaved= 8 IEnMin= 8 EnMin= -2048.73954629419     IErMin= 8 ErrMin= 5.97D-07
 ErrMax= 5.97D-07  0.00D+00 EMaxC= 1.00D-01 BMatC= 3.28D-10 BMatP= 8.07D-10
 IDIUse=1 WtCom= 1.00D+00 WtEn= 0.00D+00
 Coeff-Com: -0.725D-03 0.899D-02 0.213D-01-0.269D-02-0.116D+00-0.955D-01
 Coeff-Com:  0.437D+00 0.747D+00
 Coeff:     -0.725D-03 0.899D-02 0.213D-01-0.269D-02-0.116D+00-0.955D-01
 Coeff:      0.437D+00 0.747D+00
 Gap=     0.280 Goal=   None    Shift=    0.000
 RMSDP=4.58D-08 MaxDP=2.75D-06 DE=-2.08D-09 OVMax= 1.07D-05

 Cycle  14  Pass 1  IDiag  1:
 RMSU=  2.67D-08    CP:  1.00D+00  1.06D+00  8.12D-01  1.48D+00  1.32D+00
                    CP:  1.08D+00  1.29D+00  1.08D+00
 E= -2048.73954629449     Delta-E=       -0.000000000302 Rises=F Damp=F
 DIIS: error= 2.00D-07 at cycle   9 NSaved=   9.
 NSaved= 9 IEnMin= 9 EnMin= -2048.73954629449     IErMin= 9 ErrMin= 2.00D-07
 ErrMax= 2.00D-07  0.00D+00 EMaxC= 1.00D-01 BMatC= 3.16D-11 BMatP= 3.28D-10
 IDIUse=1 WtCom= 1.00D+00 WtEn= 0.00D+00
 Coeff-Com: -0.427D-03 0.462D-02 0.112D-01-0.135D-03-0.545D-01-0.556D-01
 Coeff-Com:  0.904D-01 0.303D+00 0.702D+00
 Coeff:     -0.427D-03 0.462D-02 0.112D-01-0.135D-03-0.545D-01-0.556D-01
 Coeff:      0.904D-01 0.303D+00 0.702D+00
 Gap=     0.280 Goal=   None    Shift=    0.000
 RMSDP=1.35D-08 MaxDP=9.48D-07 DE=-3.02D-10 OVMax= 3.24D-06

 Cycle  15  Pass 1  IDiag  1:
 RMSU=  9.16D-09    CP:  1.00D+00  1.06D+00  8.12D-01  1.48D+00  1.32D+00
                    CP:  1.09D+00  1.32D+00  1.21D+00  1.11D+00
 E= -2048.73954629471     Delta-E=       -0.000000000213 Rises=F Damp=F
 DIIS: error= 6.32D-08 at cycle  10 NSaved=  10.
 NSaved=10 IEnMin=10 EnMin= -2048.73954629471     IErMin=10 ErrMin= 6.32D-08
 ErrMax= 6.32D-08  0.00D+00 EMaxC= 1.00D-01 BMatC= 5.66D-12 BMatP= 3.16D-11
 IDIUse=1 WtCom= 1.00D+00 WtEn= 0.00D+00
 Coeff-Com:  0.370D-05-0.304D-03-0.613D-03 0.215D-03 0.530D-02 0.909D-03
 Coeff-Com: -0.551D-01-0.541D-01 0.281D+00 0.823D+00
 Coeff:      0.370D-05-0.304D-03-0.613D-03 0.215D-03 0.530D-02 0.909D-03
 Coeff:     -0.551D-01-0.541D-01 0.281D+00 0.823D+00
 Gap=     0.280 Goal=   None    Shift=    0.000
 RMSDP=6.67D-09 MaxDP=4.10D-07 DE=-2.13D-10 OVMax= 1.38D-06

 SCF Done:  E(RwB97XD) =  -2048.73954629     A.U. after   15 cycles
            NFock= 15  Conv=0.67D-08     -V/T= 2.0054
 KE= 2.037766314687D+03 PE=-1.569977602686D+04 EE= 6.153902223783D+03
 Leave Link  502 at Mon Jan 22 11:00:32 2018, MaxMem=  4294967296 cpu:           20242.6 elap:             652.9
 (Enter /share/apps/g16/l601.exe)
 Copying SCF densities to generalized density rwf, IOpCl= 0 IROHF=0.

 **********************************************************************

            Population analysis using the SCF density.

 **********************************************************************

 Orbital symmetries:
       Occupied  (A) (A) (A) (A) (A) (A) (A) (A) (A) (A) (A) (A)
                 (A) (A) (A) (A) (A) (A) (A) (A) (A) (A) (A) (A)
                 (A) (A) (A) (A) (A) (A) (A) (A) (A) (A) (A) (A)
                 (A) (A) (A) (A) (A) (A) (A) (A) (A) (A) (A) (A)
                 (A) (A) (A) (A) (A) (A) (A) (A) (A) (A) (A) (A)
                 (A) (A) (A) (A) (A) (A) (A) (A) (A) (A) (A) (A)
                 (A) (A) (A) (A) (A) (A) (A) (A) (A) (A) (A) (A)
                 (A) (A) (A) (A) (A) (A) (A) (A) (A) (A) (A) (A)
                 (A) (A) (A) (A) (A) (A) (A) (A) (A) (A) (A) (A)
                 (A) (A) (A) (A) (A) (A) (A) (A) (A) (A) (A) (A)
                 (A) (A) (A) (A) (A) (A) (A) (A) (A) (A) (A) (A)
                 (A) (A) (A) (A) (A) (A) (A) (A) (A) (A) (A) (A)
                 (A) (A) (A) (A) (A) (A) (A) (A) (A) (A)
       Virtual   (A) (A) (A) (A) (A) (A) (A) (A) (A) (A) (A) (A)
                 (A) (A) (A) (A) (A) (A) (A) (A) (A) (A) (A) (A)
                 (A) (A) (A) (A) (A) (A) (A) (A) (A) (A) (A) (A)
                 (A) (A) (A) (A) (A) (A) (A) (A) (A) (A) (A) (A)
                 (A) (A) (A) (A) (A) (A) (A) (A) (A) (A) (A) (A)
                 (A) (A) (A) (A) (A) (A) (A) (A) (A) (A) (A) (A)
                 (A) (A) (A) (A) (A) (A) (A) (A) (A) (A) (A) (A)
                 (A) (A) (A) (A) (A) (A) (A) (A) (A) (A) (A) (A)
                 (A) (A) (A) (A) (A) (A) (A) (A) (A) (A) (A) (A)
                 (A) (A) (A) (A) (A) (A) (A) (A) (A) (A) (A) (A)
                 (A) (A) (A) (A) (A) (A) (A) (A) (A) (A) (A) (A)
                 (A) (A) (A) (A) (A) (A) (A) (A) (A) (A) (A) (A)
                 (A) (A) (A) (A) (A) (A) (A) (A) (A) (A) (A) (A)
                 (A) (A) (A) (A) (A) (A) (A) (A) (A) (A) (A) (A)
                 (A) (A) (A) (A) (A) (A) (A) (A) (A) (A) (A) (A)
                 (A) (A) (A) (A) (A) (A) (A) (A) (A) (A) (A) (A)
                 (A) (A) (A) (A) (A) (A) (A) (A) (A) (A) (A) (A)
                 (A) (A) (A) (A) (A) (A) (A) (A) (A) (A) (A) (A)
                 (A) (A) (A) (A) (A) (A) (A) (A) (A) (A) (A) (A)
                 (A) (A) (A) (A) (A) (A) (A) (A) (A) (A) (A) (A)
                 (A) (A) (A) (A) (A) (A) (A) (A) (A) (A) (A) (A)
                 (A) (A) (A) (A) (A) (A) (A) (A) (A) (A) (A) (A)
                 (A) (A) (A) (A) (A) (A) (A) (A) (A) (A) (A) (A)
                 (A) (A) (A) (A) (A) (A) (A) (A) (A) (A) (A) (A)
                 (A) (A) (A) (A) (A) (A) (A) (A) (A) (A) (A) (A)
                 (A) (A) (A) (A) (A) (A) (A) (A) (A) (A) (A) (A)
                 (A) (A) (A) (A) (A) (A) (A) (A) (A) (A) (A) (A)
                 (A) (A) (A) (A) (A) (A) (A) (A) (A) (A) (A) (A)
                 (A) (A) (A) (A) (A) (A) (A) (A) (A) (A) (A) (A)
                 (A) (A) (A) (A) (A) (A) (A) (A) (A) (A) (A) (A)
                 (A) (A) (A) (A) (A) (A) (A) (A) (A) (A) (A) (A)
                 (A) (A) (A) (A) (A) (A) (A) (A) (A) (A) (A) (A)
                 (A) (A) (A) (A) (A) (A) (A) (A) (A) (A) (A) (A)
                 (A) (A) (A) (A) (A) (A) (A) (A) (A) (A) (A) (A)
                 (A) (A) (A) (A) (A) (A) (A) (A) (A) (A) (A) (A)
                 (A) (A) (A) (A) (A) (A) (A) (A) (A) (A) (A) (A)
                 (A) (A) (A) (A) (A) (A) (A) (A) (A) (A) (A) (A)
                 (A) (A) (A) (A) (A) (A) (A) (A) (A) (A) (A) (A)
                 (A) (A) (A) (A) (A) (A) (A) (A) (A) (A) (A) (A)
                 (A) (A) (A) (A) (A) (A) (A) (A) (A) (A) (A) (A)
                 (A) (A) (A) (A) (A) (A) (A) (A) (A) (A) (A) (A)
                 (A) (A) (A) (A) (A) (A) (A) (A) (A) (A) (A) (A)
                 (A) (A) (A) (A) (A) (A) (A) (A) (A) (A) (A) (A)
                 (A) (A) (A) (A) (A) (A) (A) (A) (A) (A) (A) (A)
                 (A) (A) (A) (A) (A) (A) (A) (A) (A) (A) (A) (A)
                 (A) (A) (A) (A) (A) (A) (A) (A) (A) (A) (A) (A)
                 (A) (A) (A) (A) (A) (A) (A) (A) (A) (A) (A) (A)
                 (A) (A) (A) (A) (A) (A) (A) (A) (A) (A) (A) (A)
                 (A) (A) (A) (A) (A) (A) (A)
 The electronic state is 1-A.
 Alpha  occ. eigenvalues --  -19.26154 -19.22396 -19.20865 -14.52710 -14.51595
 Alpha  occ. eigenvalues --  -14.48866 -14.48705 -14.48120 -14.47185 -14.46958
 Alpha  occ. eigenvalues --  -14.46090 -14.44716 -14.43145 -14.42995 -14.42230
 Alpha  occ. eigenvalues --  -14.41871 -14.41278 -14.40955 -14.40801 -14.40021
 Alpha  occ. eigenvalues --  -10.45793 -10.41461 -10.40736 -10.38534 -10.38445
 Alpha  occ. eigenvalues --  -10.38215 -10.37206 -10.36169 -10.35479 -10.35199
 Alpha  occ. eigenvalues --  -10.34684 -10.34499 -10.33957 -10.33400 -10.33301
 Alpha  occ. eigenvalues --  -10.33230 -10.32971 -10.31593 -10.31352 -10.31019
 Alpha  occ. eigenvalues --  -10.30897 -10.28359 -10.28263  -1.19736  -1.14289
 Alpha  occ. eigenvalues --   -1.13749  -1.13419  -1.11251  -1.10726  -1.09612
 Alpha  occ. eigenvalues --   -1.08796  -1.07963  -1.04823  -1.03536  -1.02881
 Alpha  occ. eigenvalues --   -1.00217  -1.00043  -1.00005  -0.98736  -0.96837
 Alpha  occ. eigenvalues --   -0.96693  -0.95580  -0.92463  -0.91398  -0.86674
 Alpha  occ. eigenvalues --   -0.85081  -0.84238  -0.83921  -0.83857  -0.82581
 Alpha  occ. eigenvalues --   -0.82234  -0.79233  -0.75948  -0.74786  -0.73899
 Alpha  occ. eigenvalues --   -0.73728  -0.73689  -0.72744  -0.70910  -0.69324
 Alpha  occ. eigenvalues --   -0.67603  -0.66906  -0.66136  -0.65652  -0.64772
 Alpha  occ. eigenvalues --   -0.63979  -0.63129  -0.62874  -0.62515  -0.61948
 Alpha  occ. eigenvalues --   -0.60222  -0.60075  -0.59800  -0.59402  -0.58790
 Alpha  occ. eigenvalues --   -0.58617  -0.58489  -0.56698  -0.56402  -0.56373
 Alpha  occ. eigenvalues --   -0.56255  -0.55200  -0.54801  -0.54721  -0.54381
 Alpha  occ. eigenvalues --   -0.53870  -0.53657  -0.53134  -0.52790  -0.52755
 Alpha  occ. eigenvalues --   -0.52615  -0.51836  -0.51692  -0.50696  -0.50405
 Alpha  occ. eigenvalues --   -0.50097  -0.49803  -0.49591  -0.49199  -0.49169
 Alpha  occ. eigenvalues --   -0.48515  -0.48496  -0.47887  -0.47694  -0.47479
 Alpha  occ. eigenvalues --   -0.46840  -0.45615  -0.44911  -0.44391  -0.43204
 Alpha  occ. eigenvalues --   -0.41014  -0.39757  -0.39722  -0.37450  -0.37409
 Alpha  occ. eigenvalues --   -0.37033  -0.36524  -0.36397  -0.36283  -0.34414
 Alpha  occ. eigenvalues --   -0.33864  -0.33827  -0.33372  -0.33320  -0.33048
 Alpha  occ. eigenvalues --   -0.32847  -0.32506  -0.32402  -0.31999  -0.30821
 Alpha  occ. eigenvalues --   -0.30250  -0.28683  -0.25664  -0.25512
 Alpha virt. eigenvalues --    0.02452   0.05157   0.07446   0.08166   0.08850
 Alpha virt. eigenvalues --    0.08940   0.09583   0.11091   0.11208   0.12009
 Alpha virt. eigenvalues --    0.13004   0.14075   0.14588   0.14646   0.15890
 Alpha virt. eigenvalues --    0.15965   0.16002   0.16856   0.17264   0.18244
 Alpha virt. eigenvalues --    0.19261   0.19515   0.19682   0.20393   0.20443
 Alpha virt. eigenvalues --    0.20540   0.20975   0.21420   0.21786   0.22301
 Alpha virt. eigenvalues --    0.22458   0.23286   0.23520   0.23607   0.23783
 Alpha virt. eigenvalues --    0.23954   0.24226   0.24375   0.24571   0.24989
 Alpha virt. eigenvalues --    0.25923   0.26149   0.26903   0.27286   0.27904
 Alpha virt. eigenvalues --    0.29067   0.29203   0.29884   0.30456   0.31075
 Alpha virt. eigenvalues --    0.31264   0.31875   0.32351   0.32701   0.33623
 Alpha virt. eigenvalues --    0.33831   0.34308   0.34934   0.35883   0.36278
 Alpha virt. eigenvalues --    0.36712   0.37399   0.38072   0.39107   0.39424
 Alpha virt. eigenvalues --    0.40118   0.40546   0.41304   0.41624   0.41900
 Alpha virt. eigenvalues --    0.42346   0.42568   0.43073   0.44342   0.44680
 Alpha virt. eigenvalues --    0.44828   0.45549   0.46348   0.46544   0.46944
 Alpha virt. eigenvalues --    0.47233   0.48053   0.48534   0.48804   0.49642
 Alpha virt. eigenvalues --    0.49735   0.50208   0.50608   0.50713   0.51082
 Alpha virt. eigenvalues --    0.51576   0.51993   0.52169   0.52839   0.53145
 Alpha virt. eigenvalues --    0.53616   0.54013   0.54479   0.54776   0.55513
 Alpha virt. eigenvalues --    0.55652   0.55930   0.56166   0.56839   0.57015
 Alpha virt. eigenvalues --    0.57529   0.58004   0.58724   0.59133   0.60038
 Alpha virt. eigenvalues --    0.60079   0.60545   0.60863   0.61283   0.61411
 Alpha virt. eigenvalues --    0.61643   0.62400   0.63180   0.63497   0.63755
 Alpha virt. eigenvalues --    0.63880   0.64126   0.64380   0.64478   0.65386
 Alpha virt. eigenvalues --    0.65880   0.66379   0.66403   0.66958   0.67334
 Alpha virt. eigenvalues --    0.67643   0.68225   0.68412   0.68786   0.69207
 Alpha virt. eigenvalues --    0.69896   0.70052   0.70445   0.70945   0.71823
 Alpha virt. eigenvalues --    0.72144   0.72431   0.72567   0.73070   0.73340
 Alpha virt. eigenvalues --    0.73958   0.74090   0.74480   0.75081   0.75276
 Alpha virt. eigenvalues --    0.75734   0.75969   0.76360   0.76648   0.76822
 Alpha virt. eigenvalues --    0.77164   0.77366   0.77709   0.78266   0.78466
 Alpha virt. eigenvalues --    0.78659   0.79025   0.79417   0.80339   0.80711
 Alpha virt. eigenvalues --    0.80895   0.81645   0.81757   0.82973   0.83231
 Alpha virt. eigenvalues --    0.83444   0.83920   0.84188   0.84891   0.85057
 Alpha virt. eigenvalues --    0.85704   0.86168   0.86310   0.87132   0.87747
 Alpha virt. eigenvalues --    0.87944   0.88765   0.88827   0.89083   0.89766
 Alpha virt. eigenvalues --    0.89845   0.90669   0.90907   0.91680   0.92264
 Alpha virt. eigenvalues --    0.92500   0.92997   0.93099   0.93728   0.94029
 Alpha virt. eigenvalues --    0.94332   0.95053   0.95418   0.95852   0.95953
 Alpha virt. eigenvalues --    0.96342   0.96777   0.96962   0.97688   0.98216
 Alpha virt. eigenvalues --    0.98518   0.98639   0.99472   0.99874   1.00556
 Alpha virt. eigenvalues --    1.00598   1.01340   1.01916   1.02152   1.02530
 Alpha virt. eigenvalues --    1.03273   1.03989   1.04406   1.04569   1.05237
 Alpha virt. eigenvalues --    1.05366   1.05834   1.06492   1.06686   1.07079
 Alpha virt. eigenvalues --    1.07363   1.08956   1.09398   1.09874   1.10314
 Alpha virt. eigenvalues --    1.11555   1.11712   1.12354   1.12872   1.13384
 Alpha virt. eigenvalues --    1.13599   1.14199   1.14609   1.15176   1.15342
 Alpha virt. eigenvalues --    1.15591   1.16343   1.16591   1.17336   1.17636
 Alpha virt. eigenvalues --    1.17995   1.18282   1.19059   1.19318   1.19608
 Alpha virt. eigenvalues --    1.19984   1.20525   1.20881   1.21294   1.21646
 Alpha virt. eigenvalues --    1.22434   1.22562   1.22834   1.23108   1.23259
 Alpha virt. eigenvalues --    1.23412   1.23734   1.24196   1.24453   1.24731
 Alpha virt. eigenvalues --    1.25112   1.26385   1.26922   1.27663   1.28524
 Alpha virt. eigenvalues --    1.29175   1.29755   1.30061   1.30847   1.31623
 Alpha virt. eigenvalues --    1.31959   1.33148   1.33518   1.33892   1.34484
 Alpha virt. eigenvalues --    1.34880   1.36307   1.36386   1.36723   1.36851
 Alpha virt. eigenvalues --    1.37372   1.38351   1.39237   1.39883   1.40272
 Alpha virt. eigenvalues --    1.40786   1.41579   1.42407   1.43537   1.43778
 Alpha virt. eigenvalues --    1.44442   1.45233   1.46695   1.47061   1.47629
 Alpha virt. eigenvalues --    1.48257   1.48618   1.49454   1.49714   1.49842
 Alpha virt. eigenvalues --    1.50470   1.52002   1.52262   1.53508   1.53887
 Alpha virt. eigenvalues --    1.54131   1.55369   1.56036   1.56148   1.57434
 Alpha virt. eigenvalues --    1.58137   1.59341   1.59675   1.60029   1.60512
 Alpha virt. eigenvalues --    1.61084   1.61705   1.62008   1.62531   1.63267
 Alpha virt. eigenvalues --    1.63503   1.63792   1.66138   1.66374   1.66842
 Alpha virt. eigenvalues --    1.67294   1.67743   1.67928   1.68397   1.68555
 Alpha virt. eigenvalues --    1.69235   1.69695   1.69936   1.70527   1.71071
 Alpha virt. eigenvalues --    1.71555   1.71983   1.72478   1.73385   1.73809
 Alpha virt. eigenvalues --    1.74284   1.74314   1.74782   1.75146   1.75389
 Alpha virt. eigenvalues --    1.75881   1.76090   1.76570   1.76685   1.77026
 Alpha virt. eigenvalues --    1.77441   1.77800   1.77974   1.78287   1.78652
 Alpha virt. eigenvalues --    1.79766   1.80013   1.80053   1.80188   1.80250
 Alpha virt. eigenvalues --    1.80469   1.80781   1.81122   1.81790   1.81821
 Alpha virt. eigenvalues --    1.82218   1.82952   1.83201   1.83969   1.84544
 Alpha virt. eigenvalues --    1.85151   1.85579   1.85918   1.86704   1.87059
 Alpha virt. eigenvalues --    1.87330   1.87664   1.88431   1.88613   1.89396
 Alpha virt. eigenvalues --    1.89640   1.90073   1.90292   1.91198   1.91993
 Alpha virt. eigenvalues --    1.92219   1.92321   1.93398   1.93668   1.94100
 Alpha virt. eigenvalues --    1.95230   1.96084   1.96317   1.96915   1.98216
 Alpha virt. eigenvalues --    1.98519   1.99392   1.99553   2.00556   2.01406
 Alpha virt. eigenvalues --    2.01798   2.02024   2.02636   2.03172   2.03911
 Alpha virt. eigenvalues --    2.04786   2.05477   2.05671   2.06632   2.07233
 Alpha virt. eigenvalues --    2.07657   2.08066   2.08487   2.08839   2.09326
 Alpha virt. eigenvalues --    2.10537   2.10964   2.11303   2.11718   2.11974
 Alpha virt. eigenvalues --    2.13381   2.13903   2.15726   2.16902   2.17689
 Alpha virt. eigenvalues --    2.18736   2.19728   2.20298   2.21002   2.21499
 Alpha virt. eigenvalues --    2.22286   2.22449   2.22812   2.23026   2.23957
 Alpha virt. eigenvalues --    2.24546   2.24695   2.24799   2.26291   2.26951
 Alpha virt. eigenvalues --    2.27423   2.27924   2.28363   2.29279   2.29664
 Alpha virt. eigenvalues --    2.30187   2.30605   2.30959   2.31759   2.32173
 Alpha virt. eigenvalues --    2.32937   2.33050   2.33820   2.34111   2.34535
 Alpha virt. eigenvalues --    2.34782   2.35423   2.35700   2.36570   2.37704
 Alpha virt. eigenvalues --    2.37883   2.38648   2.40347   2.41406   2.41874
 Alpha virt. eigenvalues --    2.41983   2.42986   2.43211   2.43538   2.44026
 Alpha virt. eigenvalues --    2.45364   2.45627   2.45984   2.46821   2.46929
 Alpha virt. eigenvalues --    2.48247   2.48859   2.50439   2.50826   2.51438
 Alpha virt. eigenvalues --    2.53432   2.53798   2.54233   2.54585   2.55880
 Alpha virt. eigenvalues --    2.56699   2.57214   2.57826   2.59512   2.60127
 Alpha virt. eigenvalues --    2.61023   2.61477   2.61945   2.62134   2.63039
 Alpha virt. eigenvalues --    2.63900   2.64644   2.65039   2.65486   2.65731
 Alpha virt. eigenvalues --    2.66550   2.67325   2.67709   2.68607   2.69121
 Alpha virt. eigenvalues --    2.69798   2.70482   2.70873   2.71273   2.72742
 Alpha virt. eigenvalues --    2.73740   2.74062   2.74751   2.75702   2.76335
 Alpha virt. eigenvalues --    2.76831   2.77687   2.78816   2.79298   2.79410
 Alpha virt. eigenvalues --    2.79766   2.80043   2.80391   2.81115   2.81519
 Alpha virt. eigenvalues --    2.81911   2.82302   2.82489   2.82935   2.83868
 Alpha virt. eigenvalues --    2.84723   2.84767   2.85953   2.86506   2.86799
 Alpha virt. eigenvalues --    2.87271   2.88221   2.88833   2.91135   2.92531
 Alpha virt. eigenvalues --    2.94378   2.95531   2.96422   2.96637   2.99487
 Alpha virt. eigenvalues --    2.99688   3.00469   3.01057   3.04416   3.05663
 Alpha virt. eigenvalues --    3.07246   3.10101   3.11682   3.13310   3.14984
 Alpha virt. eigenvalues --    3.15268   3.15834   3.16207   3.18272   3.19749
 Alpha virt. eigenvalues --    3.22213   3.23086   3.23850   3.23919   3.25877
 Alpha virt. eigenvalues --    3.45909   3.46918   3.47924   3.49993   3.50255
 Alpha virt. eigenvalues --    3.53545   3.54876   3.55968   3.57544   3.59780
 Alpha virt. eigenvalues --    3.62421   3.70369   3.74602
          Condensed to atoms (all electrons):
 Mulliken charges:
               1
     1  N   -0.311575
     2  C    0.180555
     3  C    0.049139
     4  N   -0.255677
     5  C    0.130697
     6  H    0.025457
     7  N   -0.292305
     8  C    0.131868
     9  H    0.011216
    10  N   -0.291785
    11  C    0.232893
    12  C    0.110034
    13  N   -0.045816
    14  H    0.111623
    15  H    0.093005
    16  H    0.026021
    17  H    0.033611
    18  H    0.023360
    19  N   -0.311262
    20  C    0.254049
    21  C    0.180283
    22  N   -0.121734
    23  H    0.113500
    24  H    0.117894
    25  N   -0.309783
    26  C    0.246678
    27  N   -0.144321
    28  H    0.117131
    29  C    0.180360
    30  O   -0.324142
    31  C   -0.005256
    32  N   -0.224846
    33  C    0.131954
    34  H    0.025888
    35  H    0.032115
    36  H    0.028489
    37  H    0.023892
    38  H    0.058765
    39  H    0.060810
    40  H    0.072486
    41  H    0.029950
    42  C   -0.114818
    43  O   -0.285043
    44  C    0.133483
    45  H    0.138461
    46  N   -0.112027
    47  O   -0.347721
    48  C    0.351465
    49  H    0.049722
    50  C    0.194016
    51  C    0.041495
    52  N   -0.284475
    53  H    0.032455
    54  H    0.042054
    55  H    0.022705
    56  H    0.131469
    57  H    0.111033
    58  N   -0.037469
    59  C    0.093331
    60  C    0.248438
    61  N   -0.274368
    62  H    0.035620
    63  C    0.166903
    64  N   -0.301221
    65  H    0.031012
    66  C    0.128271
    67  N   -0.263369
    68  C    0.004298
    69  C    0.180131
    70  N   -0.311070
 Sum of Mulliken charges =  -0.00000
 Mulliken charges with hydrogens summed into heavy atoms:
               1
     1  N   -0.311575
     2  C    0.263548
     3  C    0.049139
     4  N   -0.255677
     5  C    0.156154
     7  N   -0.292305
     8  C    0.143084
    10  N   -0.291785
    11  C    0.232893
    12  C    0.110034
    13  N    0.158813
    19  N   -0.311262
    20  C    0.254049
    21  C    0.264778
    22  N    0.109660
    25  N   -0.309783
    26  C    0.246678
    27  N   -0.027190
    29  C    0.180360
    30  O   -0.324142
    31  C   -0.005256
    32  N   -0.224846
    33  C    0.157842
    42  C   -0.084868
    43  O   -0.285043
    44  C    0.133483
    46  N    0.026434
    47  O   -0.347721
    48  C    0.351465
    50  C    0.243738
    51  C    0.233555
    52  N   -0.284475
    58  N    0.205033
    59  C    0.093331
    60  C    0.248438
    61  N   -0.274368
    63  C    0.202523
    64  N   -0.301221
    66  C    0.159283
    67  N   -0.263369
    68  C    0.004298
    69  C    0.277344
    70  N   -0.311070
 Electronic spatial extent (au):  <R**2>=          23025.9182
 Charge=             -0.0000 electrons
 Dipole moment (field-independent basis, Debye):
    X=              7.6127    Y=              6.4538    Z=              2.1696  Tot=             10.2134
 Quadrupole moment (field-independent basis, Debye-Ang):
   XX=           -145.5624   YY=           -223.2887   ZZ=           -252.0070
   XY=              4.5886   XZ=              9.6437   YZ=             -1.0652
 Traceless Quadrupole moment (field-independent basis, Debye-Ang):
   XX=             61.3903   YY=            -16.3360   ZZ=            -45.0543
   XY=              4.5886   XZ=              9.6437   YZ=             -1.0652
 Octapole moment (field-independent basis, Debye-Ang**2):
  XXX=            -10.5317  YYY=            102.7932  ZZZ=             39.0688  XYY=             30.4795
  XXY=             29.0226  XXZ=            -51.4454  XZZ=             75.2686  YZZ=             54.9292
  YYZ=             26.4993  XYZ=             58.6096
 Hexadecapole moment (field-independent basis, Debye-Ang**3):
 XXXX=         -15342.9453 YYYY=          -5145.4291 ZZZZ=          -3879.8344 XXXY=            449.2794
 XXXZ=             92.5390 YYYX=            -63.0480 YYYZ=            -13.1324 ZZZX=            202.1086
 ZZZY=             92.4555 XXYY=          -3864.5430 XXZZ=          -3937.0509 YYZZ=          -1615.6999
 XXYZ=            141.5784 YYXZ=            118.2080 ZZXY=            132.0331
 N-N= 5.459367942095D+03 E-N=-1.569977603165D+04  KE= 2.037766314687D+03
 No NMR shielding tensors so no spin-rotation constants.
 Leave Link  601 at Mon Jan 22 11:00:34 2018, MaxMem=  4294967296 cpu:              44.3 elap:               1.6
 (Enter /share/apps/g16/l9999.exe)
 1\1\GINC-COMPUTE-0-3\SP\RwB97XD\CC-pVDZ\C23H27N17O3\SATYA\22-Jan-2018\
 0\\#p wb97xd/cc-pvdz sp scf=(maxcycles=20)\\Base pair stacking\\0,1\N,
 0,7.73034,4.1138,-4.36568\C,0,8.57132,5.31652,-4.52126\C,0,6.11508,2.6
 3349,-4.55788\N,0,7.01911,2.10546,-3.64758\C,0,7.95606,3.01843,-3.5682
 2\H,0,8.8426,2.94382,-2.9378\N,0,4.24549,2.92399,-5.96614\C,0,4.78143,
 4.10026,-6.30778\H,0,4.20833,4.68018,-7.02994\N,0,5.91371,4.66507,-5.8
 9324\C,0,6.53998,3.87096,-5.00916\C,0,4.89986,2.14831,-5.07439\N,0,4.3
 6647,0.9738,-4.7321\H,0,4.81625,0.36715,-4.07567\H,0,3.49957,0.66039,-
 5.11992\H,0,9.47506,5.05173,-4.85789\H,0,8.14346,5.94118,-5.17384\H,0,
 8.66777,5.77491,-3.63776\N,0,2.50943,5.58616,-3.11191\C,0,1.52897,4.64
 955,-3.33443\C,0,2.39386,7.02902,-3.40429\N,0,-1.66155,3.83999,-4.4420
 8\H,0,-2.22844,3.02065,-4.52315\H,0,-2.065,4.70291,-4.74755\N,0,0.3051
 2,4.88807,-3.8534\C,0,-0.41618,3.78501,-3.94616\N,0,0.02541,2.54245,-3
 .56074\H,0,-0.59484,1.75458,-3.66804\C,0,1.28075,2.2737,-3.0243\O,0,1.
 58048,1.11554,-2.70876\C,0,2.06707,3.44902,-2.91852\N,0,3.35935,3.6283
 3,-2.44442\C,0,3.57826,4.90832,-2.57823\H,0,4.50538,5.41192,-2.30234\H
 ,0,3.09776,7.29495,-4.06202\H,0,1.49135,7.21769,-3.78918\H,0,2.51135,7
 .55217,-2.56089\H,0,-3.91166,-1.8418,-5.05278\H,0,-4.37506,-1.77582,-3
 .35408\H,0,-3.78891,-0.32286,-4.16446\H,0,-0.34475,-4.38748,-3.06701\C
 ,0,-0.64678,-3.34732,-3.1898\O,0,1.48809,-2.47051,-2.64147\C,0,0.31261
 ,-2.30886,-2.96842\H,0,0.47567,-0.26912,-3.00317\N,0,-0.17287,-1.02964
 ,-3.15055\O,0,-1.78401,0.49116,-3.64914\C,0,-1.44754,-0.6719,-3.51217\
 H,0,-2.66475,-3.78187,-3.72343\C,0,-1.89769,-3.02984,-3.54339\C,0,-3.6
 8776,-1.39575,-4.09519\N,0,-2.31431,-1.72913,-3.70756\H,0,-2.54313,0.9
 1476,-9.51015\H,0,-1.98971,2.06544,-8.49439\H,0,-3.38384,1.28476,-8.16
 117\H,0,2.27377,-2.04848,-4.70575\H,0,0.92714,-2.90404,-5.30968\N,0,1.
 42613,-2.03983,-5.2364\C,0,0.98014,-0.92591,-5.82073\C,0,-0.53658,0.36
 621,-7.12139\N,0,0.15432,1.51242,-7.00607\H,0,1.8704,2.20869,-6.12807\
 C,0,1.24946,1.32555,-6.27214\N,0,1.69788,0.21066,-5.68603\H,0,-2.92344
 ,-1.59786,-8.06873\C,0,-2.0262,-1.16052,-7.62983\N,0,-1.15426,-1.81835
 ,-6.90548\C,0,-0.20453,-0.862,-6.57663\C,0,-2.46804,1.18962,-8.5516\N,
 0,-1.71491,0.16635,-7.80079\\Version=EM64L-G16RevA.03\State=1-A\HF=-20
 48.7395463\RMSD=6.668e-09\Dipole=-3.8059602,0.284931,-1.2569016\Quadru
 pole=26.7445038,4.7121209,-31.4566248,25.7527286,12.0714532,8.2237867\
 PG=C01 [X(C23H27N17O3)]\\@


 GARBAGE IN, GARBAGE OUT
 Job cpu time:       0 days  5 hours 47 minutes 18.1 seconds.
 Elapsed time:       0 days  0 hours 11 minutes 11.9 seconds.
 File lengths (MBytes):  RWF=    298 Int=      0 D2E=      0 Chk=     33 Scr=      1
 Normal termination of Gaussian 16 at Mon Jan 22 11:00:34 2018.
