 Entering Gaussian System, Link 0=g16
 Input=str35.5.1.0.com
 Output=str35.5.1.0.log
 Initial command:
 /share/apps/g16/l1.exe "/state/partition1/scr/Gau-6684.inp" -scrdir="/state/partition1/scr/"
 Entering Link 1 = /share/apps/g16/l1.exe PID=      6685.
  
 Copyright (c) 1988,1990,1992,1993,1995,1998,2003,2009,2016,
            Gaussian, Inc.  All Rights Reserved.
  
 This is part of the Gaussian(R) 16 program.  It is based on
 the Gaussian(R) 09 system (copyright 2009, Gaussian, Inc.),
 the Gaussian(R) 03 system (copyright 2003, Gaussian, Inc.),
 the Gaussian(R) 98 system (copyright 1998, Gaussian, Inc.),
 the Gaussian(R) 94 system (copyright 1995, Gaussian, Inc.),
 the Gaussian 92(TM) system (copyright 1992, Gaussian, Inc.),
 the Gaussian 90(TM) system (copyright 1990, Gaussian, Inc.),
 the Gaussian 88(TM) system (copyright 1988, Gaussian, Inc.),
 the Gaussian 86(TM) system (copyright 1986, Carnegie Mellon
 University), and the Gaussian 82(TM) system (copyright 1983,
 Carnegie Mellon University). Gaussian is a federally registered
 trademark of Gaussian, Inc.
  
 This software contains proprietary and confidential information,
 including trade secrets, belonging to Gaussian, Inc.
  
 This software is provided under written license and may be
 used, copied, transmitted, or stored only in accord with that
 written license.
  
 The following legend is applicable only to US Government
 contracts under FAR:
  
                    RESTRICTED RIGHTS LEGEND
  
 Use, reproduction and disclosure by the US Government is
 subject to restrictions as set forth in subparagraphs (a)
 and (c) of the Commercial Computer Software - Restricted
 Rights clause in FAR 52.227-19.
  
 Gaussian, Inc.
 340 Quinnipiac St., Bldg. 40, Wallingford CT 06492
  
  
 ---------------------------------------------------------------
 Warning -- This program may not be used in any manner that
 competes with the business of Gaussian, Inc. or will provide
 assistance to any competitor of Gaussian, Inc.  The licensee
 of this program is prohibited from giving any competitor of
 Gaussian, Inc. access to this program.  By using this program,
 the user acknowledges that Gaussian, Inc. is engaged in the
 business of creating and licensing software in the field of
 computational chemistry and represents and warrants to the
 licensee that it is not a competitor of Gaussian, Inc. and that
 it will not use this program in any manner prohibited above.
 ---------------------------------------------------------------
  

 Cite this work as:
 Gaussian 16, Revision A.03,
 M. J. Frisch, G. W. Trucks, H. B. Schlegel, G. E. Scuseria, 
 M. A. Robb, J. R. Cheeseman, G. Scalmani, V. Barone, 
 G. A. Petersson, H. Nakatsuji, X. Li, M. Caricato, A. V. Marenich, 
 J. Bloino, B. G. Janesko, R. Gomperts, B. Mennucci, H. P. Hratchian, 
 J. V. Ortiz, A. F. Izmaylov, J. L. Sonnenberg, D. Williams-Young, 
 F. Ding, F. Lipparini, F. Egidi, J. Goings, B. Peng, A. Petrone, 
 T. Henderson, D. Ranasinghe, V. G. Zakrzewski, J. Gao, N. Rega, 
 G. Zheng, W. Liang, M. Hada, M. Ehara, K. Toyota, R. Fukuda, 
 J. Hasegawa, M. Ishida, T. Nakajima, Y. Honda, O. Kitao, H. Nakai, 
 T. Vreven, K. Throssell, J. A. Montgomery, Jr., J. E. Peralta, 
 F. Ogliaro, M. J. Bearpark, J. J. Heyd, E. N. Brothers, K. N. Kudin, 
 V. N. Staroverov, T. A. Keith, R. Kobayashi, J. Normand, 
 K. Raghavachari, A. P. Rendell, J. C. Burant, S. S. Iyengar, 
 J. Tomasi, M. Cossi, J. M. Millam, M. Klene, C. Adamo, R. Cammi, 
 J. W. Ochterski, R. L. Martin, K. Morokuma, O. Farkas, 
 J. B. Foresman, and D. J. Fox, Gaussian, Inc., Wallingford CT, 2016.
 
 ******************************************
 Gaussian 16:  EM64L-G16RevA.03 25-Dec-2016
                22-Jan-2018 
 ******************************************
 %nprocshared=32
 Will use up to   32 processors via shared memory.
 %mem=32GB
 %chk=allatoms_t.chk
 ---------------------------------------
 #p wb97xd/cc-pvdz sp scf=(maxcycles=20)
 ---------------------------------------
 1/38=1,172=1/1;
 2/12=2,17=6,18=5,40=1/2;
 3/5=16,11=2,25=1,30=1,74=-58/1,2,3;
 4//1;
 5/5=2,7=20,38=5/2;
 6/7=2,8=2,9=2,10=2,28=1/1;
 99/5=1,9=1/99;
 Leave Link    1 at Mon Jan 22 15:18:19 2018, MaxMem=  4294967296 cpu:               2.7 elap:               0.1
 (Enter /share/apps/g16/l101.exe)
 ------------------
 Base pair stacking
 ------------------
 Symbolic Z-matrix:
 Charge =  0 Multiplicity = 1
 N                     4.30726   1.4969   -6.17423 
 C                     5.03387   2.77522  -6.30052 
 C                     2.73026  -0.03594  -6.1458 
 N                     3.90943  -0.68602  -5.81161 
 C                     4.81232   0.26347  -5.84211 
 H                     5.87178   0.11866  -5.62877 
 N                     0.4669    0.41749  -6.63008 
 C                     0.84038   1.68769  -6.81632 
 H                     0.03926   2.37236  -7.09146 
 N                     2.0492    2.23654  -6.71421 
 C                     2.9597    1.31004  -6.37215 
 C                     1.40644  -0.49046  -6.28663 
 N                     1.03558  -1.75889  -6.10027 
 H                     1.69744  -2.46466  -5.84524 
 H                     0.08405  -2.04677  -6.20918 
 H                     5.73882   2.69131  -7.00493 
 H                     4.39388   3.49948  -6.55541 
 H                     5.46349   3.00452  -5.42711 
 N                     1.45043   3.71306  -3.26385 
 C                     0.4445    2.77866  -3.31897 
 C                     1.27013   5.17125  -3.41174 
 N                    -2.91787   1.99797  -3.70207 
 H                    -3.48844   1.17722  -3.70866 
 H                    -3.38141   2.87391  -3.83838 
 N                    -0.86709   3.03358  -3.51591 
 C                    -1.59068   1.92813  -3.51877 
 N                    -1.07147   0.66843  -3.34244 
 H                    -1.70007  -0.11995  -3.35952 
 C                     0.27482   0.38262  -3.13825 
 O                     0.63974  -0.79022  -2.98991 
 C                     1.06472   1.56029  -3.13265 
 N                     2.4325    1.72646  -2.96396 
 C                     2.61454   3.01635  -3.04913 
 H                     3.58092   3.51416  -2.96223 
 H                     1.79912   5.49648  -4.19481 
 H                     0.30241   5.37215  -3.55813 
 H                     1.58369   5.63332  -2.58289 
 H                    -5.25248  -3.6615   -4.19045 
 H                    -5.30189  -3.7277   -2.43038 
 H                    -4.92252  -2.20965  -3.24461 
 H                    -1.31949  -6.28435  -3.29672 
 C                    -1.64123  -5.24329  -3.2666 
 O                     0.56334  -4.37266  -3.17196 
 C                    -0.65598  -4.20759  -3.19999 
 H                    -0.5043   -2.16829  -3.11903 
 N                    -1.16984  -2.92694  -3.16624 
 O                    -2.85208  -1.40144  -3.15609 
 C                    -2.4936   -2.56549  -3.18981 
 H                    -3.72844  -5.672    -3.34131 
 C                    -2.94004  -4.92217  -3.29098 
 C                    -4.80863  -3.28286  -3.28178 
 N                    -3.38273  -3.62023  -3.25444 
 H                    -7.17471  -1.28112  -7.81451 
 H                    -6.26727  -0.37423  -6.80644 
 H                    -7.43432  -1.34362  -6.2045 
 H                    -0.91043  -4.87772  -6.11488 
 H                    -2.39174  -5.67972  -6.38433 
 N                    -1.89633  -4.81771  -6.27153 
 C                    -2.52351  -3.64099  -6.32769 
 C                    -4.41244  -2.21581  -6.57777 
 N                    -3.72158  -1.07427  -6.42278 
 H                    -1.79533  -0.45896  -6.08873 
 C                    -2.43061  -1.33316  -6.22454 
 N                    -1.80051  -2.51102  -6.16796 
 H                    -6.99428  -4.0994   -7.06596 
 C                    -5.99432  -3.70202  -6.88957 
 N                    -4.91672  -4.4336   -6.74379 
 C                    -3.9065   -3.50364  -6.5454 
 C                    -6.73753  -1.24947  -6.91569 
 N                    -5.76228  -2.35111  -6.80055 
 
 ITRead=  0  0  0  0  0  0  0  0  0  0  0  0  0  0  0  0  0  0  0  0
 ITRead=  0  0  0  0  0  0  0  0  0  0  0  0  0  0  0  0  0  0  0  0
 ITRead=  0  0  0  0  0  0  0  0  0  0  0  0  0  0  0  0  0  0  0  0
 ITRead=  0  0  0  0  0  0  0  0  0  0
 MicOpt= -1 -1 -1 -1 -1 -1 -1 -1 -1 -1 -1 -1 -1 -1 -1 -1 -1 -1 -1 -1
 MicOpt= -1 -1 -1 -1 -1 -1 -1 -1 -1 -1 -1 -1 -1 -1 -1 -1 -1 -1 -1 -1
 MicOpt= -1 -1 -1 -1 -1 -1 -1 -1 -1 -1 -1 -1 -1 -1 -1 -1 -1 -1 -1 -1
 MicOpt= -1 -1 -1 -1 -1 -1 -1 -1 -1 -1
 NAtoms=     70 NQM=       70 NQMF=       0 NMMI=      0 NMMIF=      0
                NMic=       0 NMicF=      0.
                    Isotopes and Nuclear Properties:
 (Nuclear quadrupole moments (NQMom) in fm**2, nuclear magnetic moments (NMagM)
  in nuclear magnetons)

  Atom         1           2           3           4           5           6           7           8           9          10
 IAtWgt=          14          12          12          14          12           1          14          12           1          14
 AtmWgt=  14.0030740  12.0000000  12.0000000  14.0030740  12.0000000   1.0078250  14.0030740  12.0000000   1.0078250  14.0030740
 NucSpn=           2           0           0           2           0           1           2           0           1           2
 AtZEff=  -0.0000000  -0.0000000  -0.0000000  -0.0000000  -0.0000000  -0.0000000  -0.0000000  -0.0000000  -0.0000000  -0.0000000
 NQMom=    2.0440000   0.0000000   0.0000000   2.0440000   0.0000000   0.0000000   2.0440000   0.0000000   0.0000000   2.0440000
 NMagM=    0.4037610   0.0000000   0.0000000   0.4037610   0.0000000   2.7928460   0.4037610   0.0000000   2.7928460   0.4037610
 AtZNuc=   7.0000000   6.0000000   6.0000000   7.0000000   6.0000000   1.0000000   7.0000000   6.0000000   1.0000000   7.0000000

  Atom        11          12          13          14          15          16          17          18          19          20
 IAtWgt=          12          12          14           1           1           1           1           1          14          12
 AtmWgt=  12.0000000  12.0000000  14.0030740   1.0078250   1.0078250   1.0078250   1.0078250   1.0078250  14.0030740  12.0000000
 NucSpn=           0           0           2           1           1           1           1           1           2           0
 AtZEff=  -0.0000000  -0.0000000  -0.0000000  -0.0000000  -0.0000000  -0.0000000  -0.0000000  -0.0000000  -0.0000000  -0.0000000
 NQMom=    0.0000000   0.0000000   2.0440000   0.0000000   0.0000000   0.0000000   0.0000000   0.0000000   2.0440000   0.0000000
 NMagM=    0.0000000   0.0000000   0.4037610   2.7928460   2.7928460   2.7928460   2.7928460   2.7928460   0.4037610   0.0000000
 AtZNuc=   6.0000000   6.0000000   7.0000000   1.0000000   1.0000000   1.0000000   1.0000000   1.0000000   7.0000000   6.0000000

  Atom        21          22          23          24          25          26          27          28          29          30
 IAtWgt=          12          14           1           1          14          12          14           1          12          16
 AtmWgt=  12.0000000  14.0030740   1.0078250   1.0078250  14.0030740  12.0000000  14.0030740   1.0078250  12.0000000  15.9949146
 NucSpn=           0           2           1           1           2           0           2           1           0           0
 AtZEff=  -0.0000000  -0.0000000  -0.0000000  -0.0000000  -0.0000000  -0.0000000  -0.0000000  -0.0000000  -0.0000000  -0.0000000
 NQMom=    0.0000000   2.0440000   0.0000000   0.0000000   2.0440000   0.0000000   2.0440000   0.0000000   0.0000000   0.0000000
 NMagM=    0.0000000   0.4037610   2.7928460   2.7928460   0.4037610   0.0000000   0.4037610   2.7928460   0.0000000   0.0000000
 AtZNuc=   6.0000000   7.0000000   1.0000000   1.0000000   7.0000000   6.0000000   7.0000000   1.0000000   6.0000000   8.0000000

  Atom        31          32          33          34          35          36          37          38          39          40
 IAtWgt=          12          14          12           1           1           1           1           1           1           1
 AtmWgt=  12.0000000  14.0030740  12.0000000   1.0078250   1.0078250   1.0078250   1.0078250   1.0078250   1.0078250   1.0078250
 NucSpn=           0           2           0           1           1           1           1           1           1           1
 AtZEff=  -0.0000000  -0.0000000  -0.0000000  -0.0000000  -0.0000000  -0.0000000  -0.0000000  -0.0000000  -0.0000000  -0.0000000
 NQMom=    0.0000000   2.0440000   0.0000000   0.0000000   0.0000000   0.0000000   0.0000000   0.0000000   0.0000000   0.0000000
 NMagM=    0.0000000   0.4037610   0.0000000   2.7928460   2.7928460   2.7928460   2.7928460   2.7928460   2.7928460   2.7928460
 AtZNuc=   6.0000000   7.0000000   6.0000000   1.0000000   1.0000000   1.0000000   1.0000000   1.0000000   1.0000000   1.0000000

  Atom        41          42          43          44          45          46          47          48          49          50
 IAtWgt=           1          12          16          12           1          14          16          12           1          12
 AtmWgt=   1.0078250  12.0000000  15.9949146  12.0000000   1.0078250  14.0030740  15.9949146  12.0000000   1.0078250  12.0000000
 NucSpn=           1           0           0           0           1           2           0           0           1           0
 AtZEff=  -0.0000000  -0.0000000  -0.0000000  -0.0000000  -0.0000000  -0.0000000  -0.0000000  -0.0000000  -0.0000000  -0.0000000
 NQMom=    0.0000000   0.0000000   0.0000000   0.0000000   0.0000000   2.0440000   0.0000000   0.0000000   0.0000000   0.0000000
 NMagM=    2.7928460   0.0000000   0.0000000   0.0000000   2.7928460   0.4037610   0.0000000   0.0000000   2.7928460   0.0000000
 AtZNuc=   1.0000000   6.0000000   8.0000000   6.0000000   1.0000000   7.0000000   8.0000000   6.0000000   1.0000000   6.0000000

  Atom        51          52          53          54          55          56          57          58          59          60
 IAtWgt=          12          14           1           1           1           1           1          14          12          12
 AtmWgt=  12.0000000  14.0030740   1.0078250   1.0078250   1.0078250   1.0078250   1.0078250  14.0030740  12.0000000  12.0000000
 NucSpn=           0           2           1           1           1           1           1           2           0           0
 AtZEff=  -0.0000000  -0.0000000  -0.0000000  -0.0000000  -0.0000000  -0.0000000  -0.0000000  -0.0000000  -0.0000000  -0.0000000
 NQMom=    0.0000000   2.0440000   0.0000000   0.0000000   0.0000000   0.0000000   0.0000000   2.0440000   0.0000000   0.0000000
 NMagM=    0.0000000   0.4037610   2.7928460   2.7928460   2.7928460   2.7928460   2.7928460   0.4037610   0.0000000   0.0000000
 AtZNuc=   6.0000000   7.0000000   1.0000000   1.0000000   1.0000000   1.0000000   1.0000000   7.0000000   6.0000000   6.0000000

  Atom        61          62          63          64          65          66          67          68          69          70
 IAtWgt=          14           1          12          14           1          12          14          12          12          14
 AtmWgt=  14.0030740   1.0078250  12.0000000  14.0030740   1.0078250  12.0000000  14.0030740  12.0000000  12.0000000  14.0030740
 NucSpn=           2           1           0           2           1           0           2           0           0           2
 AtZEff=  -0.0000000  -0.0000000  -0.0000000  -0.0000000  -0.0000000  -0.0000000  -0.0000000  -0.0000000  -0.0000000  -0.0000000
 NQMom=    2.0440000   0.0000000   0.0000000   2.0440000   0.0000000   0.0000000   2.0440000   0.0000000   0.0000000   2.0440000
 NMagM=    0.4037610   2.7928460   0.0000000   0.4037610   2.7928460   0.0000000   0.4037610   0.0000000   0.0000000   0.4037610
 AtZNuc=   7.0000000   1.0000000   6.0000000   7.0000000   1.0000000   6.0000000   7.0000000   6.0000000   6.0000000   7.0000000
 Leave Link  101 at Mon Jan 22 15:18:19 2018, MaxMem=  4294967296 cpu:               7.3 elap:               0.3
 (Enter /share/apps/g16/l202.exe)
 Stoichiometry    C23H27N17O3
 Framework group  C1[X(C23H27N17O3)]
 Deg. of freedom   204
 Full point group                 C1      NOp   1
 Largest Abelian subgroup         C1      NOp   1
 Largest concise Abelian subgroup C1      NOp   1
                         Standard orientation:                         
 ---------------------------------------------------------------------
 Center     Atomic      Atomic             Coordinates (Angstroms)
 Number     Number       Type             X           Y           Z
 ---------------------------------------------------------------------
      1          7           0        5.201605   -1.764962   -1.384602
      2          6           0        6.570332   -1.286307   -1.659357
      3          6           0        3.013527   -1.902628   -1.209395
      4          7           0        3.517481   -3.103472   -0.731134
      5          6           0        4.815543   -2.972477   -0.855827
      6          1           0        5.545203   -3.732566   -0.575115
      7          7           0        1.545532   -0.174254   -1.857962
      8          6           0        2.635515    0.516820   -2.207154
      9          1           0        2.446298    1.509051   -2.614514
     10          7           0        3.918112    0.167881   -2.129078
     11          6           0        4.039662   -1.067502   -1.615783
     12          6           0        1.701276   -1.414126   -1.344613
     13          7           0        0.614440   -2.105533   -0.995435
     14          1           0        0.682451   -3.026987   -0.611369
     15          1           0       -0.304309   -1.726234   -1.105796
     16          1           0        7.015252   -1.900752   -2.311040
     17          1           0        6.530920   -0.364954   -2.044926
     18          1           0        7.096180   -1.267747   -0.808982
     19          7           0        4.605542    2.146423    1.042109
     20          6           0        3.233439    2.081061    1.075227
     21          6           0        5.394787    3.340313    0.678214
     22          7           0        0.138805    3.599861    0.653015
     23          1           0       -0.824603    3.347162    0.737935
     24          1           0        0.338481    4.538663    0.371056
     25          7           0        2.382528    3.088404    0.783253
     26          6           0        1.119620    2.720040    0.905655
     27          7           0        0.718584    1.461908    1.284849
     28          1           0       -0.269041    1.269421    1.352067
     29          6           0        1.576631    0.410006    1.590031
     30          8           0        1.111713   -0.687449    1.921946
     31          6           0        2.936753    0.790559    1.463037
     32          7           0        4.099209    0.060441    1.669229
     33          6           0        5.061202    0.903457    1.408265
     34          1           0        6.124745    0.669717    1.467415
     35          1           0        5.963130    3.136221   -0.118113
     36          1           0        4.775126    4.093056    0.459878
     37          1           0        5.978663    3.602609    1.445749
     38          1           0       -5.306209    0.767692    0.874736
     39          1           0       -5.285471    0.995093    2.621885
     40          1           0       -4.067991    1.781519    1.616577
     41          1           0       -3.929681   -3.610910    2.316791
     42          6           0       -3.506050   -2.615593    2.182213
     43          8           0       -1.255810   -3.362938    2.252780
     44          6           0       -2.084106   -2.459016    2.144952
     45          1           0       -0.654948   -1.008676    1.939219
     46          7           0       -1.653480   -1.159230    1.970674
     47          8           0       -1.960744    1.072475    1.683850
     48          6           0       -2.435396   -0.039618    1.834228
     49          1           0       -5.381829   -1.607913    2.073330
     50          6           0       -4.294807   -1.542512    2.051910
     51          6           0       -4.671631    0.894547    1.739185
     52          7           0       -3.795925   -0.272025    1.880627
     53          1           0       -5.457061    3.290731   -3.138555
     54          1           0       -4.123253    3.531587   -2.230235
     55          1           0       -5.603334    3.635048   -1.550006
     56          1           0       -2.875984   -3.207060   -0.652147
     57          1           0       -4.539031   -2.897116   -0.871911
     58          7           0       -3.600540   -2.550220   -0.861239
     59          6           0       -3.328432   -1.268470   -1.114720
     60          6           0       -3.873087    0.984153   -1.653957
     61          7           0       -2.603326    1.421961   -1.632666
     62          1           0       -0.716046    0.694475   -1.301650
     63          6           0       -1.770659    0.425057   -1.339791
     64          7           0       -2.041240   -0.859369   -1.085595
     65          1           0       -7.084426    1.155794   -1.985596
     66          6           0       -6.054503    0.837293   -1.822008
     67          7           0       -5.691341   -0.385977   -1.523000
     68          6           0       -4.310584   -0.306731   -1.413651
     69          6           0       -5.050793    3.159059   -2.234335
     70          7           0       -5.005118    1.718457   -1.917222
 ---------------------------------------------------------------------
 Rotational constants (GHZ):           0.1414423           0.0549201           0.0514491
 Leave Link  202 at Mon Jan 22 15:18:19 2018, MaxMem=  4294967296 cpu:               0.4 elap:               0.0
 (Enter /share/apps/g16/l301.exe)
 Standard basis: CC-pVDZ (5D, 7F)
 Ernie: Thresh=  0.10000D-02 Tol=  0.10000D-05 Strict=F.
 Ernie:  86 primitive shells out of 1081 were deleted.
 There are   780 symmetry adapted cartesian basis functions of A   symmetry.
 There are   737 symmetry adapted basis functions of A   symmetry.
   737 basis functions,  1608 primitive gaussians,   780 cartesian basis functions
   154 alpha electrons      154 beta electrons
       nuclear repulsion energy      5511.4035946864 Hartrees.
 IExCor= 4639 DFT=T Ex+Corr=wB97XD ExCW=0 ScaHFX=  1.000000
 ScaDFX=  1.000000  1.000000  1.000000  1.000000 ScalE2=  1.000000  1.000000
 IRadAn=      5 IRanWt=     -1 IRanGd=            0 ICorTp=0 IEmpDi=121
 HFx  wShort=  0.000000 wLong=  0.200000 cFull=  0.222036 cShort=  0.000000 cLong=  0.777964
 DFx  wShort=  0.000000 wLong=  0.200000 cFull=  0.000000 cShort=  0.000000 cLong=  1.000000
 NAtoms=   70 NActive=   70 NUniq=   70 SFac= 1.00D+00 NAtFMM=   60 NAOKFM=T Big=T
 Integral buffers will be    131072 words long.
 Raffenetti 2 integral format.
 Two-electron integral symmetry is turned on.
 R6Disp:  Grimme-D2 Dispersion energy=       -0.0712219737 Hartrees.
 Nuclear repulsion after empirical dispersion term =     5511.3323727127 Hartrees.
 Leave Link  301 at Mon Jan 22 15:18:19 2018, MaxMem=  4294967296 cpu:               2.8 elap:               0.1
 (Enter /share/apps/g16/l302.exe)
 NPDir=0 NMtPBC=     1 NCelOv=     1 NCel=       1 NClECP=     1 NCelD=      1
         NCelK=      1 NCelE2=     1 NClLst=     1 CellRange=     0.0.
 One-electron integrals computed using PRISM.
 One-electron integral symmetry used in STVInt
 NBasis=   737 RedAO= T EigKep=  7.04D-04  NBF=   737
 NBsUse=   737 1.00D-06 EigRej= -1.00D+00 NBFU=   737
 Precomputing XC quadrature grid using
 IXCGrd= 4 IRadAn=           5 IRanWt=          -1 IRanGd=           0 AccXCQ= 0.00D+00.
 Generated NRdTot=       0 NPtTot=           0 NUsed=           0 NTot=          32
 NSgBfM=   766   766   766   766   766 MxSgAt=    70 MxSgA2=    70.
 Leave Link  302 at Mon Jan 22 15:18:24 2018, MaxMem=  4294967296 cpu:             136.7 elap:               4.3
 (Enter /share/apps/g16/l303.exe)
 DipDrv:  MaxL=1.
 Leave Link  303 at Mon Jan 22 15:18:24 2018, MaxMem=  4294967296 cpu:              12.6 elap:               0.4
 (Enter /share/apps/g16/l401.exe)
 ExpMin= 1.22D-01 ExpMax= 1.17D+04 ExpMxC= 4.01D+02 IAcc=3 IRadAn=         5 AccDes= 0.00D+00
 Harris functional with IExCor= 4639 and IRadAn=       5 diagonalized for initial guess.
 HarFok:  IExCor= 4639 AccDes= 0.00D+00 IRadAn=         5 IDoV= 1 UseB2=F ITyADJ=14
 ICtDFT=  3500011 ScaDFX=  1.000000  1.000000  1.000000  1.000000
 FoFCou: FMM=F IPFlag=           0 FMFlag=      100000 FMFlg1=        2001
         NFxFlg=           0 DoJE=T BraDBF=F KetDBF=T FulRan=T
         wScrn=  0.000000 ICntrl=       500 IOpCl=  0 I1Cent=   200000004 NGrid=           0
         NMat0=    1 NMatS0=      1 NMatT0=    0 NMatD0=    1 NMtDS0=    0 NMtDT0=    0
 Petite list used in FoFCou.
 Harris En= -1963.88912396430    
 JPrj=0 DoOrth=F DoCkMO=F.
 Leave Link  401 at Mon Jan 22 15:18:38 2018, MaxMem=  4294967296 cpu:             446.6 elap:              14.1
 (Enter /share/apps/g16/l502.exe)
 Integral symmetry usage will be decided dynamically.
 Closed shell SCF:
 Using DIIS extrapolation, IDIIS=  1040.
 NGot=  4294967296 LenX=  4293717438 LenY=  4293108258
 Requested convergence on RMS density matrix=1.00D-08 within  20 cycles.
 Requested convergence on MAX density matrix=1.00D-06.
 Requested convergence on             energy=1.00D-06.
 No special actions if energy rises.
 Fock matrices will be formed incrementally for  20 cycles.
 Integral accuracy reduced to 1.0D-05 until final iterations.

 Cycle   1  Pass 0  IDiag  1:
 FoFJK:  IHMeth= 1 ICntrl=       0 DoSepK=T KAlg= 0 I1Cent=           0 FoldK=F
 IRaf=         1 NMat=       1 IRICut=       1 DoRegI=T DoRafI=F ISym2E= 0 IDoP0=0 IntGTp=1.
 FoFCou: FMM=T IPFlag=           0 FMFlag=      100000 FMFlg1=        2001
         NFxFlg=           0 DoJE=T BraDBF=F KetDBF=F FulRan=T
         wScrn=  0.000000 ICntrl=       500 IOpCl=  0 I1Cent=           0 NGrid=           0
         NMat0=    1 NMatS0=      1 NMatT0=    0 NMatD0=    1 NMtDS0=    0 NMtDT0=    0
 Symmetry not used in FoFCou.
 FMM levels:  10  Number of levels for PrismC:   9
 E= -2048.31975334676    
 DIIS: error= 2.15D-02 at cycle   1 NSaved=   1.
 NSaved= 1 IEnMin= 1 EnMin= -2048.31975334676     IErMin= 1 ErrMin= 2.15D-02
 ErrMax= 2.15D-02  0.00D+00 EMaxC= 1.00D-01 BMatC= 8.31D-01 BMatP= 8.31D-01
 IDIUse=3 WtCom= 7.85D-01 WtEn= 2.15D-01
 Coeff-Com:  0.100D+01
 Coeff-En:   0.100D+01
 Coeff:      0.100D+01
 Gap=     0.259 Goal=   None    Shift=    0.000
 GapD=    0.259 DampG=1.000 DampE=0.500 DampFc=0.5000 IDamp=-1.
 Damping current iteration by 5.00D-01
 RMSDP=1.55D-03 MaxDP=1.32D-01              OVMax= 1.95D-01

 Cycle   2  Pass 0  IDiag  1:
 RMSU=  7.76D-04    CP:  9.98D-01
 E= -2048.51686532592     Delta-E=       -0.197111979167 Rises=F Damp=T
 DIIS: error= 1.21D-02 at cycle   2 NSaved=   2.
 NSaved= 2 IEnMin= 2 EnMin= -2048.51686532592     IErMin= 2 ErrMin= 1.21D-02
 ErrMax= 1.21D-02  0.00D+00 EMaxC= 1.00D-01 BMatC= 1.44D-01 BMatP= 8.31D-01
 IDIUse=3 WtCom= 8.79D-01 WtEn= 1.21D-01
 Coeff-Com: -0.201D+00 0.120D+01
 Coeff-En:   0.000D+00 0.100D+01
 Coeff:     -0.177D+00 0.118D+01
 Gap=     0.348 Goal=   None    Shift=    0.000
 RMSDP=5.81D-04 MaxDP=3.59D-02 DE=-1.97D-01 OVMax= 1.32D-01

 Cycle   3  Pass 0  IDiag  1:
 RMSU=  5.68D-04    CP:  9.94D-01  1.15D+00
 E= -2048.69594693999     Delta-E=       -0.179081614072 Rises=F Damp=F
 DIIS: error= 5.88D-03 at cycle   3 NSaved=   3.
 NSaved= 3 IEnMin= 3 EnMin= -2048.69594693999     IErMin= 3 ErrMin= 5.88D-03
 ErrMax= 5.88D-03  0.00D+00 EMaxC= 1.00D-01 BMatC= 6.21D-02 BMatP= 1.44D-01
 IDIUse=3 WtCom= 9.41D-01 WtEn= 5.88D-02
 Coeff-Com: -0.232D+00 0.549D+00 0.683D+00
 Coeff-En:   0.000D+00 0.000D+00 0.100D+01
 Coeff:     -0.219D+00 0.517D+00 0.702D+00
 Gap=     0.281 Goal=   None    Shift=    0.000
 RMSDP=3.46D-04 MaxDP=3.45D-02 DE=-1.79D-01 OVMax= 5.55D-02

 Cycle   4  Pass 0  IDiag  1:
 RMSU=  1.99D-04    CP:  9.95D-01  1.42D+00  6.78D-01
 E= -2048.74316197273     Delta-E=       -0.047215032735 Rises=F Damp=F
 DIIS: error= 2.27D-03 at cycle   4 NSaved=   4.
 NSaved= 4 IEnMin= 4 EnMin= -2048.74316197273     IErMin= 4 ErrMin= 2.27D-03
 ErrMax= 2.27D-03  0.00D+00 EMaxC= 1.00D-01 BMatC= 8.34D-03 BMatP= 6.21D-02
 IDIUse=3 WtCom= 9.77D-01 WtEn= 2.27D-02
 Coeff-Com: -0.977D-01 0.189D+00 0.373D+00 0.536D+00
 Coeff-En:   0.000D+00 0.000D+00 0.428D-01 0.957D+00
 Coeff:     -0.955D-01 0.185D+00 0.365D+00 0.545D+00
 Gap=     0.286 Goal=   None    Shift=    0.000
 RMSDP=1.21D-04 MaxDP=1.18D-02 DE=-4.72D-02 OVMax= 1.31D-02

 Cycle   5  Pass 0  IDiag  1:
 RMSU=  6.14D-05    CP:  9.94D-01  1.40D+00  8.03D-01  6.29D-01
 E= -2048.74993733217     Delta-E=       -0.006775359441 Rises=F Damp=F
 DIIS: error= 5.98D-04 at cycle   5 NSaved=   5.
 NSaved= 5 IEnMin= 5 EnMin= -2048.74993733217     IErMin= 5 ErrMin= 5.98D-04
 ErrMax= 5.98D-04  0.00D+00 EMaxC= 1.00D-01 BMatC= 2.83D-04 BMatP= 8.34D-03
 IDIUse=3 WtCom= 9.94D-01 WtEn= 5.98D-03
 Coeff-Com: -0.256D-01 0.443D-01 0.120D+00 0.240D+00 0.622D+00
 Coeff-En:   0.000D+00 0.000D+00 0.000D+00 0.000D+00 0.100D+01
 Coeff:     -0.255D-01 0.440D-01 0.119D+00 0.239D+00 0.624D+00
 Gap=     0.285 Goal=   None    Shift=    0.000
 RMSDP=2.55D-05 MaxDP=2.07D-03 DE=-6.78D-03 OVMax= 2.90D-03

 Failed to achieve initial convergence to 1.0D-08 in  6 cycles.
 Switch to full accuracy anyway.
 Cycle   6  Pass 1  IDiag  1:
 E= -2048.75028741172     Delta-E=       -0.000350079545 Rises=F Damp=F
 DIIS: error= 3.33D-04 at cycle   1 NSaved=   1.
 NSaved= 1 IEnMin= 1 EnMin= -2048.75028741172     IErMin= 1 ErrMin= 3.33D-04
 ErrMax= 3.33D-04  0.00D+00 EMaxC= 1.00D-01 BMatC= 7.56D-05 BMatP= 7.56D-05
 IDIUse=3 WtCom= 9.97D-01 WtEn= 3.33D-03
 Coeff-Com:  0.100D+01
 Coeff-En:   0.100D+01
 Coeff:      0.100D+01
 Gap=     0.285 Goal=   None    Shift=    0.000
 RMSDP=2.55D-05 MaxDP=2.07D-03 DE=-3.50D-04 OVMax= 1.91D-03

 Cycle   7  Pass 1  IDiag  1:
 RMSU=  1.16D-04    CP:  1.00D+00
 E= -2048.75034391003     Delta-E=       -0.000056498317 Rises=F Damp=F
 DIIS: error= 2.78D-04 at cycle   2 NSaved=   2.
 NSaved= 2 IEnMin= 2 EnMin= -2048.75034391003     IErMin= 2 ErrMin= 2.78D-04
 ErrMax= 2.78D-04  0.00D+00 EMaxC= 1.00D-01 BMatC= 4.55D-05 BMatP= 7.56D-05
 IDIUse=3 WtCom= 9.97D-01 WtEn= 2.78D-03
 Coeff-Com:  0.415D+00 0.585D+00
 Coeff-En:   0.000D+00 0.100D+01
 Coeff:      0.414D+00 0.586D+00
 Gap=     0.285 Goal=   None    Shift=    0.000
 RMSDP=1.13D-05 MaxDP=1.28D-03 DE=-5.65D-05 OVMax= 1.37D-03

 Cycle   8  Pass 1  IDiag  1:
 RMSU=  1.09D-05    CP:  1.00D+00  1.03D+00
 E= -2048.75037629889     Delta-E=       -0.000032388861 Rises=F Damp=F
 DIIS: error= 1.07D-04 at cycle   3 NSaved=   3.
 NSaved= 3 IEnMin= 3 EnMin= -2048.75037629889     IErMin= 3 ErrMin= 1.07D-04
 ErrMax= 1.07D-04  0.00D+00 EMaxC= 1.00D-01 BMatC= 1.04D-05 BMatP= 4.55D-05
 IDIUse=3 WtCom= 9.99D-01 WtEn= 1.07D-03
 Coeff-Com: -0.199D-01 0.310D+00 0.710D+00
 Coeff-En:   0.000D+00 0.129D+00 0.871D+00
 Coeff:     -0.199D-01 0.310D+00 0.710D+00
 Gap=     0.286 Goal=   None    Shift=    0.000
 RMSDP=5.71D-06 MaxDP=5.18D-04 DE=-3.24D-05 OVMax= 5.09D-04

 Cycle   9  Pass 1  IDiag  1:
 RMSU=  3.87D-06    CP:  1.00D+00  1.05D+00  7.65D-01
 E= -2048.75038579285     Delta-E=       -0.000009493960 Rises=F Damp=F
 DIIS: error= 2.90D-05 at cycle   4 NSaved=   4.
 NSaved= 4 IEnMin= 4 EnMin= -2048.75038579285     IErMin= 4 ErrMin= 2.90D-05
 ErrMax= 2.90D-05  0.00D+00 EMaxC= 1.00D-01 BMatC= 5.09D-07 BMatP= 1.04D-05
 IDIUse=1 WtCom= 1.00D+00 WtEn= 0.00D+00
 Coeff-Com: -0.315D-01 0.860D-01 0.262D+00 0.683D+00
 Coeff:     -0.315D-01 0.860D-01 0.262D+00 0.683D+00
 Gap=     0.285 Goal=   None    Shift=    0.000
 RMSDP=1.45D-06 MaxDP=1.41D-04 DE=-9.49D-06 OVMax= 4.08D-04

 Cycle  10  Pass 1  IDiag  1:
 RMSU=  1.29D-06    CP:  1.00D+00  1.06D+00  7.98D-01  1.11D+00
 E= -2048.75038663842     Delta-E=       -0.000000845566 Rises=F Damp=F
 DIIS: error= 1.09D-05 at cycle   5 NSaved=   5.
 NSaved= 5 IEnMin= 5 EnMin= -2048.75038663842     IErMin= 5 ErrMin= 1.09D-05
 ErrMax= 1.09D-05  0.00D+00 EMaxC= 1.00D-01 BMatC= 1.19D-07 BMatP= 5.09D-07
 IDIUse=1 WtCom= 1.00D+00 WtEn= 0.00D+00
 Coeff-Com: -0.286D-02-0.543D-01-0.121D+00 0.200D+00 0.979D+00
 Coeff:     -0.286D-02-0.543D-01-0.121D+00 0.200D+00 0.979D+00
 Gap=     0.286 Goal=   None    Shift=    0.000
 RMSDP=1.22D-06 MaxDP=7.91D-05 DE=-8.46D-07 OVMax= 1.99D-04

 Cycle  11  Pass 1  IDiag  1:
 RMSU=  5.15D-07    CP:  1.00D+00  1.06D+00  8.08D-01  1.39D+00  1.17D+00
 E= -2048.75038689960     Delta-E=       -0.000000261178 Rises=F Damp=F
 DIIS: error= 5.53D-06 at cycle   6 NSaved=   6.
 NSaved= 6 IEnMin= 6 EnMin= -2048.75038689960     IErMin= 6 ErrMin= 5.53D-06
 ErrMax= 5.53D-06  0.00D+00 EMaxC= 1.00D-01 BMatC= 2.97D-08 BMatP= 1.19D-07
 IDIUse=1 WtCom= 1.00D+00 WtEn= 0.00D+00
 Coeff-Com:  0.490D-02-0.448D-01-0.116D+00-0.599D-02 0.528D+00 0.634D+00
 Coeff:      0.490D-02-0.448D-01-0.116D+00-0.599D-02 0.528D+00 0.634D+00
 Gap=     0.286 Goal=   None    Shift=    0.000
 RMSDP=3.85D-07 MaxDP=3.81D-05 DE=-2.61D-07 OVMax= 1.04D-04

 Cycle  12  Pass 1  IDiag  1:
 RMSU=  1.94D-07    CP:  1.00D+00  1.06D+00  8.09D-01  1.46D+00  1.31D+00
                    CP:  9.18D-01
 E= -2048.75038694302     Delta-E=       -0.000000043423 Rises=F Damp=F
 DIIS: error= 1.11D-06 at cycle   7 NSaved=   7.
 NSaved= 7 IEnMin= 7 EnMin= -2048.75038694302     IErMin= 7 ErrMin= 1.11D-06
 ErrMax= 1.11D-06  0.00D+00 EMaxC= 1.00D-01 BMatC= 9.53D-10 BMatP= 2.97D-08
 IDIUse=1 WtCom= 1.00D+00 WtEn= 0.00D+00
 Coeff-Com:  0.130D-02-0.844D-02-0.236D-01-0.815D-02 0.722D-01 0.159D+00
 Coeff-Com:  0.808D+00
 Coeff:      0.130D-02-0.844D-02-0.236D-01-0.815D-02 0.722D-01 0.159D+00
 Coeff:      0.808D+00
 Gap=     0.286 Goal=   None    Shift=    0.000
 RMSDP=8.59D-08 MaxDP=5.48D-06 DE=-4.34D-08 OVMax= 1.78D-05

 Cycle  13  Pass 1  IDiag  1:
 RMSU=  5.31D-08    CP:  1.00D+00  1.06D+00  8.09D-01  1.47D+00  1.33D+00
                    CP:  1.01D+00  1.12D+00
 E= -2048.75038694523     Delta-E=       -0.000000002205 Rises=F Damp=F
 DIIS: error= 6.28D-07 at cycle   8 NSaved=   8.
 NSaved= 8 IEnMin= 8 EnMin= -2048.75038694523     IErMin= 8 ErrMin= 6.28D-07
 ErrMax= 6.28D-07  0.00D+00 EMaxC= 1.00D-01 BMatC= 3.70D-10 BMatP= 9.53D-10
 IDIUse=1 WtCom= 1.00D+00 WtEn= 0.00D+00
 Coeff-Com: -0.740D-03 0.855D-02 0.210D-01-0.104D-02-0.116D+00-0.954D-01
 Coeff-Com:  0.411D+00 0.772D+00
 Coeff:     -0.740D-03 0.855D-02 0.210D-01-0.104D-02-0.116D+00-0.954D-01
 Coeff:      0.411D+00 0.772D+00
 Gap=     0.286 Goal=   None    Shift=    0.000
 RMSDP=5.27D-08 MaxDP=3.11D-06 DE=-2.20D-09 OVMax= 1.07D-05

 Cycle  14  Pass 1  IDiag  1:
 RMSU=  3.00D-08    CP:  1.00D+00  1.06D+00  8.08D-01  1.47D+00  1.33D+00
                    CP:  1.05D+00  1.28D+00  1.07D+00
 E= -2048.75038694571     Delta-E=       -0.000000000483 Rises=F Damp=F
 DIIS: error= 1.84D-07 at cycle   9 NSaved=   9.
 NSaved= 9 IEnMin= 9 EnMin= -2048.75038694571     IErMin= 9 ErrMin= 1.84D-07
 ErrMax= 1.84D-07  0.00D+00 EMaxC= 1.00D-01 BMatC= 4.29D-11 BMatP= 3.70D-10
 IDIUse=1 WtCom= 1.00D+00 WtEn= 0.00D+00
 Coeff-Com: -0.497D-03 0.502D-02 0.127D-01 0.102D-02-0.615D-01-0.625D-01
 Coeff-Com:  0.918D-01 0.342D+00 0.672D+00
 Coeff:     -0.497D-03 0.502D-02 0.127D-01 0.102D-02-0.615D-01-0.625D-01
 Coeff:      0.918D-01 0.342D+00 0.672D+00
 Gap=     0.286 Goal=   None    Shift=    0.000
 RMSDP=1.47D-08 MaxDP=9.11D-07 DE=-4.83D-10 OVMax= 2.90D-06

 Cycle  15  Pass 1  IDiag  1:
 RMSU=  9.93D-09    CP:  1.00D+00  1.06D+00  8.08D-01  1.47D+00  1.33D+00
                    CP:  1.06D+00  1.31D+00  1.22D+00  1.08D+00
 E= -2048.75038694573     Delta-E=       -0.000000000025 Rises=F Damp=F
 DIIS: error= 7.24D-08 at cycle  10 NSaved=  10.
 NSaved=10 IEnMin=10 EnMin= -2048.75038694573     IErMin=10 ErrMin= 7.24D-08
 ErrMax= 7.24D-08  0.00D+00 EMaxC= 1.00D-01 BMatC= 5.31D-12 BMatP= 4.29D-11
 IDIUse=1 WtCom= 1.00D+00 WtEn= 0.00D+00
 Coeff-Com: -0.101D-05-0.239D-03-0.449D-03 0.136D-03 0.459D-02 0.379D-03
 Coeff-Com: -0.525D-01-0.531D-01 0.225D+00 0.876D+00
 Coeff:     -0.101D-05-0.239D-03-0.449D-03 0.136D-03 0.459D-02 0.379D-03
 Coeff:     -0.525D-01-0.531D-01 0.225D+00 0.876D+00
 Gap=     0.286 Goal=   None    Shift=    0.000
 RMSDP=7.42D-09 MaxDP=4.44D-07 DE=-2.46D-11 OVMax= 1.49D-06

 SCF Done:  E(RwB97XD) =  -2048.75038695     A.U. after   15 cycles
            NFock= 15  Conv=0.74D-08     -V/T= 2.0054
 KE= 2.037699092595D+03 PE=-1.580333988611D+04 EE= 6.205558033855D+03
 Leave Link  502 at Mon Jan 22 15:29:59 2018, MaxMem=  4294967296 cpu:           21023.8 elap:             680.8
 (Enter /share/apps/g16/l601.exe)
 Copying SCF densities to generalized density rwf, IOpCl= 0 IROHF=0.

 **********************************************************************

            Population analysis using the SCF density.

 **********************************************************************

 Orbital symmetries:
       Occupied  (A) (A) (A) (A) (A) (A) (A) (A) (A) (A) (A) (A)
                 (A) (A) (A) (A) (A) (A) (A) (A) (A) (A) (A) (A)
                 (A) (A) (A) (A) (A) (A) (A) (A) (A) (A) (A) (A)
                 (A) (A) (A) (A) (A) (A) (A) (A) (A) (A) (A) (A)
                 (A) (A) (A) (A) (A) (A) (A) (A) (A) (A) (A) (A)
                 (A) (A) (A) (A) (A) (A) (A) (A) (A) (A) (A) (A)
                 (A) (A) (A) (A) (A) (A) (A) (A) (A) (A) (A) (A)
                 (A) (A) (A) (A) (A) (A) (A) (A) (A) (A) (A) (A)
                 (A) (A) (A) (A) (A) (A) (A) (A) (A) (A) (A) (A)
                 (A) (A) (A) (A) (A) (A) (A) (A) (A) (A) (A) (A)
                 (A) (A) (A) (A) (A) (A) (A) (A) (A) (A) (A) (A)
                 (A) (A) (A) (A) (A) (A) (A) (A) (A) (A) (A) (A)
                 (A) (A) (A) (A) (A) (A) (A) (A) (A) (A)
       Virtual   (A) (A) (A) (A) (A) (A) (A) (A) (A) (A) (A) (A)
                 (A) (A) (A) (A) (A) (A) (A) (A) (A) (A) (A) (A)
                 (A) (A) (A) (A) (A) (A) (A) (A) (A) (A) (A) (A)
                 (A) (A) (A) (A) (A) (A) (A) (A) (A) (A) (A) (A)
                 (A) (A) (A) (A) (A) (A) (A) (A) (A) (A) (A) (A)
                 (A) (A) (A) (A) (A) (A) (A) (A) (A) (A) (A) (A)
                 (A) (A) (A) (A) (A) (A) (A) (A) (A) (A) (A) (A)
                 (A) (A) (A) (A) (A) (A) (A) (A) (A) (A) (A) (A)
                 (A) (A) (A) (A) (A) (A) (A) (A) (A) (A) (A) (A)
                 (A) (A) (A) (A) (A) (A) (A) (A) (A) (A) (A) (A)
                 (A) (A) (A) (A) (A) (A) (A) (A) (A) (A) (A) (A)
                 (A) (A) (A) (A) (A) (A) (A) (A) (A) (A) (A) (A)
                 (A) (A) (A) (A) (A) (A) (A) (A) (A) (A) (A) (A)
                 (A) (A) (A) (A) (A) (A) (A) (A) (A) (A) (A) (A)
                 (A) (A) (A) (A) (A) (A) (A) (A) (A) (A) (A) (A)
                 (A) (A) (A) (A) (A) (A) (A) (A) (A) (A) (A) (A)
                 (A) (A) (A) (A) (A) (A) (A) (A) (A) (A) (A) (A)
                 (A) (A) (A) (A) (A) (A) (A) (A) (A) (A) (A) (A)
                 (A) (A) (A) (A) (A) (A) (A) (A) (A) (A) (A) (A)
                 (A) (A) (A) (A) (A) (A) (A) (A) (A) (A) (A) (A)
                 (A) (A) (A) (A) (A) (A) (A) (A) (A) (A) (A) (A)
                 (A) (A) (A) (A) (A) (A) (A) (A) (A) (A) (A) (A)
                 (A) (A) (A) (A) (A) (A) (A) (A) (A) (A) (A) (A)
                 (A) (A) (A) (A) (A) (A) (A) (A) (A) (A) (A) (A)
                 (A) (A) (A) (A) (A) (A) (A) (A) (A) (A) (A) (A)
                 (A) (A) (A) (A) (A) (A) (A) (A) (A) (A) (A) (A)
                 (A) (A) (A) (A) (A) (A) (A) (A) (A) (A) (A) (A)
                 (A) (A) (A) (A) (A) (A) (A) (A) (A) (A) (A) (A)
                 (A) (A) (A) (A) (A) (A) (A) (A) (A) (A) (A) (A)
                 (A) (A) (A) (A) (A) (A) (A) (A) (A) (A) (A) (A)
                 (A) (A) (A) (A) (A) (A) (A) (A) (A) (A) (A) (A)
                 (A) (A) (A) (A) (A) (A) (A) (A) (A) (A) (A) (A)
                 (A) (A) (A) (A) (A) (A) (A) (A) (A) (A) (A) (A)
                 (A) (A) (A) (A) (A) (A) (A) (A) (A) (A) (A) (A)
                 (A) (A) (A) (A) (A) (A) (A) (A) (A) (A) (A) (A)
                 (A) (A) (A) (A) (A) (A) (A) (A) (A) (A) (A) (A)
                 (A) (A) (A) (A) (A) (A) (A) (A) (A) (A) (A) (A)
                 (A) (A) (A) (A) (A) (A) (A) (A) (A) (A) (A) (A)
                 (A) (A) (A) (A) (A) (A) (A) (A) (A) (A) (A) (A)
                 (A) (A) (A) (A) (A) (A) (A) (A) (A) (A) (A) (A)
                 (A) (A) (A) (A) (A) (A) (A) (A) (A) (A) (A) (A)
                 (A) (A) (A) (A) (A) (A) (A) (A) (A) (A) (A) (A)
                 (A) (A) (A) (A) (A) (A) (A) (A) (A) (A) (A) (A)
                 (A) (A) (A) (A) (A) (A) (A) (A) (A) (A) (A) (A)
                 (A) (A) (A) (A) (A) (A) (A) (A) (A) (A) (A) (A)
                 (A) (A) (A) (A) (A) (A) (A) (A) (A) (A) (A) (A)
                 (A) (A) (A) (A) (A) (A) (A) (A) (A) (A) (A) (A)
                 (A) (A) (A) (A) (A) (A) (A) (A) (A) (A) (A) (A)
                 (A) (A) (A) (A) (A) (A) (A)
 The electronic state is 1-A.
 Alpha  occ. eigenvalues --  -19.25628 -19.21995 -19.20588 -14.52541 -14.52237
 Alpha  occ. eigenvalues --  -14.48837 -14.48327 -14.48193 -14.47588 -14.46853
 Alpha  occ. eigenvalues --  -14.46634 -14.45567 -14.44367 -14.44308 -14.42213
 Alpha  occ. eigenvalues --  -14.42016 -14.41063 -14.40880 -14.40809 -14.40226
 Alpha  occ. eigenvalues --  -10.45224 -10.41238 -10.40027 -10.40017 -10.38225
 Alpha  occ. eigenvalues --  -10.38069 -10.37507 -10.37255 -10.35859 -10.35303
 Alpha  occ. eigenvalues --  -10.34825 -10.34403 -10.33948 -10.33638 -10.33501
 Alpha  occ. eigenvalues --  -10.33052 -10.32960 -10.32731 -10.30937 -10.30903
 Alpha  occ. eigenvalues --  -10.30797 -10.28206 -10.28166  -1.19214  -1.15286
 Alpha  occ. eigenvalues --   -1.13186  -1.12966  -1.10911  -1.10624  -1.09413
 Alpha  occ. eigenvalues --   -1.09072  -1.08548  -1.04914  -1.04844  -1.02274
 Alpha  occ. eigenvalues --   -1.01060  -1.00289  -0.99714  -0.98555  -0.96948
 Alpha  occ. eigenvalues --   -0.96650  -0.96548  -0.92584  -0.90850  -0.87688
 Alpha  occ. eigenvalues --   -0.85960  -0.84164  -0.83636  -0.83373  -0.82536
 Alpha  occ. eigenvalues --   -0.82062  -0.78681  -0.77105  -0.74889  -0.74655
 Alpha  occ. eigenvalues --   -0.73629  -0.73149  -0.72676  -0.70842  -0.70459
 Alpha  occ. eigenvalues --   -0.67393  -0.66880  -0.66321  -0.66077  -0.64416
 Alpha  occ. eigenvalues --   -0.64291  -0.63711  -0.62640  -0.62519  -0.61787
 Alpha  occ. eigenvalues --   -0.60748  -0.60521  -0.60318  -0.59453  -0.59293
 Alpha  occ. eigenvalues --   -0.59006  -0.58348  -0.56749  -0.56388  -0.56003
 Alpha  occ. eigenvalues --   -0.55847  -0.55453  -0.55211  -0.54292  -0.53963
 Alpha  occ. eigenvalues --   -0.53759  -0.53608  -0.53575  -0.53328  -0.52978
 Alpha  occ. eigenvalues --   -0.52849  -0.52218  -0.51554  -0.50494  -0.50188
 Alpha  occ. eigenvalues --   -0.50140  -0.49842  -0.49331  -0.48999  -0.48820
 Alpha  occ. eigenvalues --   -0.48699  -0.48558  -0.48383  -0.47695  -0.47295
 Alpha  occ. eigenvalues --   -0.46723  -0.45864  -0.45254  -0.44533  -0.43187
 Alpha  occ. eigenvalues --   -0.40889  -0.40778  -0.39249  -0.37846  -0.37655
 Alpha  occ. eigenvalues --   -0.37337  -0.37292  -0.36882  -0.35973  -0.34750
 Alpha  occ. eigenvalues --   -0.34361  -0.33999  -0.33272  -0.33186  -0.33044
 Alpha  occ. eigenvalues --   -0.32722  -0.32522  -0.32322  -0.31904  -0.30650
 Alpha  occ. eigenvalues --   -0.30305  -0.29449  -0.25642  -0.25436
 Alpha virt. eigenvalues --    0.03115   0.03953   0.06767   0.08101   0.08932
 Alpha virt. eigenvalues --    0.09200   0.09719   0.10391   0.11191   0.12205
 Alpha virt. eigenvalues --    0.12834   0.14078   0.14599   0.14612   0.14772
 Alpha virt. eigenvalues --    0.15397   0.16119   0.17097   0.17710   0.17961
 Alpha virt. eigenvalues --    0.18666   0.19170   0.19430   0.20382   0.20481
 Alpha virt. eigenvalues --    0.20639   0.20806   0.21117   0.21358   0.22006
 Alpha virt. eigenvalues --    0.22147   0.22622   0.22809   0.23612   0.23759
 Alpha virt. eigenvalues --    0.23955   0.24198   0.24383   0.25078   0.25768
 Alpha virt. eigenvalues --    0.25845   0.26606   0.27629   0.27746   0.27956
 Alpha virt. eigenvalues --    0.28923   0.28987   0.29539   0.30465   0.30742
 Alpha virt. eigenvalues --    0.31492   0.31655   0.32301   0.32909   0.33176
 Alpha virt. eigenvalues --    0.33783   0.34309   0.35290   0.35921   0.36355
 Alpha virt. eigenvalues --    0.36940   0.37379   0.37796   0.38842   0.39295
 Alpha virt. eigenvalues --    0.39899   0.40332   0.40540   0.41332   0.41374
 Alpha virt. eigenvalues --    0.42108   0.42266   0.43005   0.43673   0.43971
 Alpha virt. eigenvalues --    0.44670   0.45381   0.45994   0.46442   0.46885
 Alpha virt. eigenvalues --    0.47213   0.47446   0.48023   0.48554   0.48796
 Alpha virt. eigenvalues --    0.49823   0.50247   0.50472   0.51270   0.51420
 Alpha virt. eigenvalues --    0.51629   0.51767   0.52021   0.52573   0.52779
 Alpha virt. eigenvalues --    0.53374   0.53934   0.54171   0.55174   0.55362
 Alpha virt. eigenvalues --    0.55962   0.56265   0.56525   0.57097   0.57535
 Alpha virt. eigenvalues --    0.57553   0.57936   0.58786   0.59202   0.59808
 Alpha virt. eigenvalues --    0.59974   0.60230   0.60677   0.60911   0.61104
 Alpha virt. eigenvalues --    0.61451   0.61844   0.62150   0.62964   0.63093
 Alpha virt. eigenvalues --    0.63482   0.63759   0.64677   0.64995   0.65476
 Alpha virt. eigenvalues --    0.65722   0.66327   0.66476   0.67129   0.67489
 Alpha virt. eigenvalues --    0.67787   0.68541   0.68868   0.68993   0.69871
 Alpha virt. eigenvalues --    0.70409   0.70843   0.71209   0.71686   0.72012
 Alpha virt. eigenvalues --    0.72132   0.72323   0.72863   0.73389   0.73867
 Alpha virt. eigenvalues --    0.74214   0.74787   0.75187   0.75482   0.75613
 Alpha virt. eigenvalues --    0.76060   0.76251   0.76592   0.76869   0.77202
 Alpha virt. eigenvalues --    0.77346   0.77815   0.78407   0.78555   0.79281
 Alpha virt. eigenvalues --    0.79461   0.79867   0.80318   0.80630   0.80937
 Alpha virt. eigenvalues --    0.81609   0.81914   0.82215   0.82751   0.83044
 Alpha virt. eigenvalues --    0.83403   0.83911   0.84285   0.84660   0.84759
 Alpha virt. eigenvalues --    0.85229   0.86076   0.86598   0.86847   0.87691
 Alpha virt. eigenvalues --    0.87812   0.88240   0.88595   0.89791   0.89964
 Alpha virt. eigenvalues --    0.90381   0.90773   0.91466   0.92202   0.92452
 Alpha virt. eigenvalues --    0.92662   0.92669   0.92885   0.93569   0.94174
 Alpha virt. eigenvalues --    0.94477   0.94828   0.95394   0.96112   0.96321
 Alpha virt. eigenvalues --    0.97222   0.97453   0.97977   0.98543   0.99243
 Alpha virt. eigenvalues --    0.99492   0.99730   1.00353   1.00445   1.00911
 Alpha virt. eigenvalues --    1.01295   1.01752   1.02064   1.02420   1.03007
 Alpha virt. eigenvalues --    1.03178   1.03329   1.03809   1.04505   1.05046
 Alpha virt. eigenvalues --    1.05328   1.05850   1.06326   1.06422   1.07678
 Alpha virt. eigenvalues --    1.08110   1.08525   1.09449   1.10383   1.10526
 Alpha virt. eigenvalues --    1.11006   1.11394   1.12225   1.12616   1.13185
 Alpha virt. eigenvalues --    1.13614   1.14144   1.14421   1.14607   1.15338
 Alpha virt. eigenvalues --    1.15715   1.15868   1.16266   1.16949   1.17455
 Alpha virt. eigenvalues --    1.17848   1.18579   1.18982   1.19124   1.19568
 Alpha virt. eigenvalues --    1.19743   1.19997   1.20767   1.20972   1.21533
 Alpha virt. eigenvalues --    1.21912   1.22000   1.22575   1.22807   1.23420
 Alpha virt. eigenvalues --    1.23646   1.23673   1.24226   1.24627   1.25104
 Alpha virt. eigenvalues --    1.25598   1.25874   1.26672   1.27311   1.28190
 Alpha virt. eigenvalues --    1.28350   1.28965   1.29624   1.30206   1.30865
 Alpha virt. eigenvalues --    1.31381   1.31727   1.32283   1.33168   1.33689
 Alpha virt. eigenvalues --    1.34022   1.34849   1.34974   1.36236   1.37019
 Alpha virt. eigenvalues --    1.37452   1.37721   1.38166   1.39430   1.40466
 Alpha virt. eigenvalues --    1.40520   1.40982   1.41588   1.42408   1.43668
 Alpha virt. eigenvalues --    1.44337   1.45303   1.46263   1.46955   1.47503
 Alpha virt. eigenvalues --    1.48418   1.48748   1.49511   1.50194   1.50644
 Alpha virt. eigenvalues --    1.52432   1.53184   1.53317   1.53458   1.54920
 Alpha virt. eigenvalues --    1.55246   1.56114   1.56409   1.56740   1.57388
 Alpha virt. eigenvalues --    1.58063   1.58779   1.59117   1.59996   1.60960
 Alpha virt. eigenvalues --    1.61448   1.61887   1.62738   1.62926   1.63606
 Alpha virt. eigenvalues --    1.63733   1.64407   1.64948   1.65143   1.65583
 Alpha virt. eigenvalues --    1.66778   1.67342   1.67645   1.68324   1.69274
 Alpha virt. eigenvalues --    1.69881   1.70176   1.70400   1.71140   1.71768
 Alpha virt. eigenvalues --    1.72455   1.72568   1.72911   1.73242   1.73972
 Alpha virt. eigenvalues --    1.74000   1.74674   1.74999   1.75478   1.75877
 Alpha virt. eigenvalues --    1.76078   1.76234   1.76347   1.76999   1.77245
 Alpha virt. eigenvalues --    1.77347   1.77713   1.78180   1.78325   1.78644
 Alpha virt. eigenvalues --    1.79366   1.79524   1.80086   1.80372   1.80450
 Alpha virt. eigenvalues --    1.80589   1.80954   1.81285   1.82168   1.82251
 Alpha virt. eigenvalues --    1.82610   1.83443   1.83626   1.84094   1.84288
 Alpha virt. eigenvalues --    1.84907   1.85684   1.86082   1.86273   1.86491
 Alpha virt. eigenvalues --    1.87278   1.87924   1.88186   1.88441   1.89251
 Alpha virt. eigenvalues --    1.89381   1.89817   1.90504   1.90716   1.91328
 Alpha virt. eigenvalues --    1.91732   1.92421   1.93424   1.93618   1.94396
 Alpha virt. eigenvalues --    1.95519   1.95994   1.96095   1.97197   1.97673
 Alpha virt. eigenvalues --    1.97943   1.98381   1.99559   2.00268   2.01315
 Alpha virt. eigenvalues --    2.01679   2.02519   2.02722   2.03244   2.03679
 Alpha virt. eigenvalues --    2.04584   2.05463   2.06082   2.06953   2.07309
 Alpha virt. eigenvalues --    2.07632   2.08712   2.09269   2.09321   2.09977
 Alpha virt. eigenvalues --    2.10155   2.11885   2.12538   2.12561   2.13218
 Alpha virt. eigenvalues --    2.13999   2.14563   2.16313   2.17102   2.17829
 Alpha virt. eigenvalues --    2.18550   2.18794   2.19706   2.20736   2.21654
 Alpha virt. eigenvalues --    2.22240   2.22515   2.22933   2.23467   2.23950
 Alpha virt. eigenvalues --    2.24490   2.25265   2.25372   2.26212   2.26604
 Alpha virt. eigenvalues --    2.27057   2.28157   2.28973   2.29835   2.30052
 Alpha virt. eigenvalues --    2.30222   2.30286   2.30676   2.31933   2.32158
 Alpha virt. eigenvalues --    2.32635   2.33291   2.33710   2.34041   2.34346
 Alpha virt. eigenvalues --    2.34578   2.34944   2.35646   2.36714   2.37068
 Alpha virt. eigenvalues --    2.37667   2.38382   2.39655   2.40305   2.41190
 Alpha virt. eigenvalues --    2.41345   2.42040   2.43104   2.43761   2.44276
 Alpha virt. eigenvalues --    2.44499   2.44827   2.45359   2.45973   2.46540
 Alpha virt. eigenvalues --    2.47149   2.48677   2.49955   2.50160   2.51465
 Alpha virt. eigenvalues --    2.52643   2.53449   2.55050   2.55155   2.55925
 Alpha virt. eigenvalues --    2.56877   2.57541   2.58405   2.58970   2.60700
 Alpha virt. eigenvalues --    2.61235   2.61491   2.62298   2.62511   2.63751
 Alpha virt. eigenvalues --    2.64893   2.65130   2.65233   2.66143   2.66391
 Alpha virt. eigenvalues --    2.67149   2.67507   2.68217   2.68556   2.69146
 Alpha virt. eigenvalues --    2.69591   2.70556   2.70879   2.71016   2.72188
 Alpha virt. eigenvalues --    2.72644   2.74870   2.75709   2.75857   2.76171
 Alpha virt. eigenvalues --    2.76884   2.77500   2.78382   2.79074   2.79350
 Alpha virt. eigenvalues --    2.79586   2.80110   2.80237   2.80815   2.81322
 Alpha virt. eigenvalues --    2.81753   2.82152   2.82843   2.83203   2.83889
 Alpha virt. eigenvalues --    2.84567   2.85171   2.86288   2.86552   2.86754
 Alpha virt. eigenvalues --    2.87351   2.88246   2.88878   2.91444   2.93746
 Alpha virt. eigenvalues --    2.94577   2.95438   2.96538   2.96782   2.99070
 Alpha virt. eigenvalues --    3.00212   3.01137   3.01301   3.04530   3.05582
 Alpha virt. eigenvalues --    3.06314   3.09691   3.10825   3.12529   3.14694
 Alpha virt. eigenvalues --    3.15640   3.15884   3.16378   3.17322   3.20717
 Alpha virt. eigenvalues --    3.21034   3.22539   3.23607   3.24407   3.25860
 Alpha virt. eigenvalues --    3.44879   3.47181   3.47520   3.49081   3.50595
 Alpha virt. eigenvalues --    3.53398   3.54235   3.56137   3.57710   3.59990
 Alpha virt. eigenvalues --    3.62888   3.70945   3.74937
          Condensed to atoms (all electrons):
 Mulliken charges:
               1
     1  N   -0.310045
     2  C    0.179893
     3  C    0.060974
     4  N   -0.257339
     5  C    0.142274
     6  H    0.025944
     7  N   -0.295311
     8  C    0.133530
     9  H    0.010841
    10  N   -0.288283
    11  C    0.246947
    12  C    0.091766
    13  N   -0.051949
    14  H    0.113862
    15  H    0.083124
    16  H    0.025094
    17  H    0.029834
    18  H    0.023957
    19  N   -0.305709
    20  C    0.258536
    21  C    0.182008
    22  N   -0.121567
    23  H    0.117846
    24  H    0.117532
    25  N   -0.310814
    26  C    0.245835
    27  N   -0.144097
    28  H    0.117086
    29  C    0.189822
    30  O   -0.322177
    31  C   -0.017314
    32  N   -0.223634
    33  C    0.121053
    34  H    0.019458
    35  H    0.028355
    36  H    0.029459
    37  H    0.023347
    38  H    0.061381
    39  H    0.059597
    40  H    0.074311
    41  H    0.023268
    42  C   -0.107920
    43  O   -0.268758
    44  C    0.163591
    45  H    0.130358
    46  N   -0.114539
    47  O   -0.343214
    48  C    0.337635
    49  H    0.045359
    50  C    0.165677
    51  C    0.039234
    52  N   -0.275775
    53  H    0.034568
    54  H    0.040322
    55  H    0.027610
    56  H    0.125546
    57  H    0.114837
    58  N   -0.050162
    59  C    0.085598
    60  C    0.234661
    61  N   -0.270157
    62  H    0.031413
    63  C    0.168938
    64  N   -0.307988
    65  H    0.036966
    66  C    0.126236
    67  N   -0.257617
    68  C    0.019741
    69  C    0.181799
    70  N   -0.302653
 Sum of Mulliken charges =  -0.00000
 Mulliken charges with hydrogens summed into heavy atoms:
               1
     1  N   -0.310045
     2  C    0.258778
     3  C    0.060974
     4  N   -0.257339
     5  C    0.168218
     7  N   -0.295311
     8  C    0.144371
    10  N   -0.288283
    11  C    0.246947
    12  C    0.091766
    13  N    0.145038
    19  N   -0.305709
    20  C    0.258536
    21  C    0.263169
    22  N    0.113811
    25  N   -0.310814
    26  C    0.245835
    27  N   -0.027011
    29  C    0.189822
    30  O   -0.322177
    31  C   -0.017314
    32  N   -0.223634
    33  C    0.140511
    42  C   -0.084652
    43  O   -0.268758
    44  C    0.163591
    46  N    0.015819
    47  O   -0.343214
    48  C    0.337635
    50  C    0.211036
    51  C    0.234522
    52  N   -0.275775
    58  N    0.190221
    59  C    0.085598
    60  C    0.234661
    61  N   -0.270157
    63  C    0.200351
    64  N   -0.307988
    66  C    0.163201
    67  N   -0.257617
    68  C    0.019741
    69  C    0.284299
    70  N   -0.302653
 Electronic spatial extent (au):  <R**2>=          22142.1195
 Charge=             -0.0000 electrons
 Dipole moment (field-independent basis, Debye):
    X=             -7.2592    Y=              6.9438    Z=             -1.9762  Tot=             10.2380
 Quadrupole moment (field-independent basis, Debye-Ang):
   XX=           -152.5279   YY=           -222.3874   ZZ=           -255.3245
   XY=             -2.6919   XZ=             -6.3038   YZ=              6.6433
 Traceless Quadrupole moment (field-independent basis, Debye-Ang):
   XX=             57.5520   YY=            -12.3075   ZZ=            -45.2445
   XY=             -2.6919   XZ=             -6.3038   YZ=              6.6433
 Octapole moment (field-independent basis, Debye-Ang**2):
  XXX=             90.9855  YYY=            111.9664  ZZZ=              0.5147  XYY=            -70.7226
  XXY=             81.4618  XXZ=            -17.8533  XZZ=            -61.2833  YZZ=             39.8600
  YYZ=            -48.7104  XYZ=             67.6074
 Hexadecapole moment (field-independent basis, Debye-Ang**3):
 XXXX=         -15677.2713 YYYY=          -5063.8258 ZZZZ=          -3971.1469 XXXY=           -542.6265
 XXXZ=           -136.9488 YYYX=             53.0910 YYYZ=             38.5716 ZZZX=              6.1885
 ZZZY=            -17.8177 XXYY=          -3374.5908 XXZZ=          -3769.3836 YYZZ=          -1604.2243
 XXYZ=           -112.0059 YYXZ=            118.7662 ZZXY=           -105.3232
 N-N= 5.511332372713D+03 E-N=-1.580333988601D+04  KE= 2.037699092595D+03
 No NMR shielding tensors so no spin-rotation constants.
 Leave Link  601 at Mon Jan 22 15:30:01 2018, MaxMem=  4294967296 cpu:              46.0 elap:               1.6
 (Enter /share/apps/g16/l9999.exe)
 1\1\GINC-COMPUTE-0-3\SP\RwB97XD\CC-pVDZ\C23H27N17O3\SATYA\22-Jan-2018\
 0\\#p wb97xd/cc-pvdz sp scf=(maxcycles=20)\\Base pair stacking\\0,1\N,
 0,4.30726,1.4969,-6.17423\C,0,5.03387,2.77522,-6.30052\C,0,2.73026,-0.
 03594,-6.1458\N,0,3.90943,-0.68602,-5.81161\C,0,4.81232,0.26347,-5.842
 11\H,0,5.87178,0.11866,-5.62877\N,0,0.4669,0.41749,-6.63008\C,0,0.8403
 8,1.68769,-6.81632\H,0,0.03926,2.37236,-7.09146\N,0,2.0492,2.23654,-6.
 71421\C,0,2.9597,1.31004,-6.37215\C,0,1.40644,-0.49046,-6.28663\N,0,1.
 03558,-1.75889,-6.10027\H,0,1.69744,-2.46466,-5.84524\H,0,0.08405,-2.0
 4677,-6.20918\H,0,5.73882,2.69131,-7.00493\H,0,4.39388,3.49948,-6.5554
 1\H,0,5.46349,3.00452,-5.42711\N,0,1.45043,3.71306,-3.26385\C,0,0.4445
 ,2.77866,-3.31897\C,0,1.27013,5.17125,-3.41174\N,0,-2.91787,1.99797,-3
 .70207\H,0,-3.48844,1.17722,-3.70866\H,0,-3.38141,2.87391,-3.83838\N,0
 ,-0.86709,3.03358,-3.51591\C,0,-1.59068,1.92813,-3.51877\N,0,-1.07147,
 0.66843,-3.34244\H,0,-1.70007,-0.11995,-3.35952\C,0,0.27482,0.38262,-3
 .13825\O,0,0.63974,-0.79022,-2.98991\C,0,1.06472,1.56029,-3.13265\N,0,
 2.4325,1.72646,-2.96396\C,0,2.61454,3.01635,-3.04913\H,0,3.58092,3.514
 16,-2.96223\H,0,1.79912,5.49648,-4.19481\H,0,0.30241,5.37215,-3.55813\
 H,0,1.58369,5.63332,-2.58289\H,0,-5.25248,-3.6615,-4.19045\H,0,-5.3018
 9,-3.7277,-2.43038\H,0,-4.92252,-2.20965,-3.24461\H,0,-1.31949,-6.2843
 5,-3.29672\C,0,-1.64123,-5.24329,-3.2666\O,0,0.56334,-4.37266,-3.17196
 \C,0,-0.65598,-4.20759,-3.19999\H,0,-0.5043,-2.16829,-3.11903\N,0,-1.1
 6984,-2.92694,-3.16624\O,0,-2.85208,-1.40144,-3.15609\C,0,-2.4936,-2.5
 6549,-3.18981\H,0,-3.72844,-5.672,-3.34131\C,0,-2.94004,-4.92217,-3.29
 098\C,0,-4.80863,-3.28286,-3.28178\N,0,-3.38273,-3.62023,-3.25444\H,0,
 -7.17471,-1.28112,-7.81451\H,0,-6.26727,-0.37423,-6.80644\H,0,-7.43432
 ,-1.34362,-6.2045\H,0,-0.91043,-4.87772,-6.11488\H,0,-2.39174,-5.67972
 ,-6.38433\N,0,-1.89633,-4.81771,-6.27153\C,0,-2.52351,-3.64099,-6.3276
 9\C,0,-4.41244,-2.21581,-6.57777\N,0,-3.72158,-1.07427,-6.42278\H,0,-1
 .79533,-0.45896,-6.08873\C,0,-2.43061,-1.33316,-6.22454\N,0,-1.80051,-
 2.51102,-6.16796\H,0,-6.99428,-4.0994,-7.06596\C,0,-5.99432,-3.70202,-
 6.88957\N,0,-4.91672,-4.4336,-6.74379\C,0,-3.9065,-3.50364,-6.5454\C,0
 ,-6.73753,-1.24947,-6.91569\N,0,-5.76228,-2.35111,-6.80055\\Version=EM
 64L-G16RevA.03\State=1-A\HF=-2048.7503869\RMSD=7.423e-09\Dipole=-3.975
 7419,0.3374458,-0.5513975\Quadrupole=22.5233283,9.5881668,-32.1114951,
 26.3274231,-5.6416313,5.7680703\PG=C01 [X(C23H27N17O3)]\\@


 SOME PEOPLE TRY TO PULL THE WOOL OVER YOUR EYES
 USING THE WRONG YARN.
 Job cpu time:       0 days  6 hours  1 minutes 21.5 seconds.
 Elapsed time:       0 days  0 hours 11 minutes 41.9 seconds.
 File lengths (MBytes):  RWF=    298 Int=      0 D2E=      0 Chk=     33 Scr=      1
 Normal termination of Gaussian 16 at Mon Jan 22 15:30:01 2018.
