 Entering Gaussian System, Link 0=g16
 Input=str35.-10.0.0.com
 Output=str35.-10.0.0.log
 Initial command:
 /share/apps/g16/l1.exe "/state/partition1/scr/Gau-22046.inp" -scrdir="/state/partition1/scr/"
 Entering Link 1 = /share/apps/g16/l1.exe PID=     22047.
  
 Copyright (c) 1988,1990,1992,1993,1995,1998,2003,2009,2016,
            Gaussian, Inc.  All Rights Reserved.
  
 This is part of the Gaussian(R) 16 program.  It is based on
 the Gaussian(R) 09 system (copyright 2009, Gaussian, Inc.),
 the Gaussian(R) 03 system (copyright 2003, Gaussian, Inc.),
 the Gaussian(R) 98 system (copyright 1998, Gaussian, Inc.),
 the Gaussian(R) 94 system (copyright 1995, Gaussian, Inc.),
 the Gaussian 92(TM) system (copyright 1992, Gaussian, Inc.),
 the Gaussian 90(TM) system (copyright 1990, Gaussian, Inc.),
 the Gaussian 88(TM) system (copyright 1988, Gaussian, Inc.),
 the Gaussian 86(TM) system (copyright 1986, Carnegie Mellon
 University), and the Gaussian 82(TM) system (copyright 1983,
 Carnegie Mellon University). Gaussian is a federally registered
 trademark of Gaussian, Inc.
  
 This software contains proprietary and confidential information,
 including trade secrets, belonging to Gaussian, Inc.
  
 This software is provided under written license and may be
 used, copied, transmitted, or stored only in accord with that
 written license.
  
 The following legend is applicable only to US Government
 contracts under FAR:
  
                    RESTRICTED RIGHTS LEGEND
  
 Use, reproduction and disclosure by the US Government is
 subject to restrictions as set forth in subparagraphs (a)
 and (c) of the Commercial Computer Software - Restricted
 Rights clause in FAR 52.227-19.
  
 Gaussian, Inc.
 340 Quinnipiac St., Bldg. 40, Wallingford CT 06492
  
  
 ---------------------------------------------------------------
 Warning -- This program may not be used in any manner that
 competes with the business of Gaussian, Inc. or will provide
 assistance to any competitor of Gaussian, Inc.  The licensee
 of this program is prohibited from giving any competitor of
 Gaussian, Inc. access to this program.  By using this program,
 the user acknowledges that Gaussian, Inc. is engaged in the
 business of creating and licensing software in the field of
 computational chemistry and represents and warrants to the
 licensee that it is not a competitor of Gaussian, Inc. and that
 it will not use this program in any manner prohibited above.
 ---------------------------------------------------------------
  

 Cite this work as:
 Gaussian 16, Revision A.03,
 M. J. Frisch, G. W. Trucks, H. B. Schlegel, G. E. Scuseria, 
 M. A. Robb, J. R. Cheeseman, G. Scalmani, V. Barone, 
 G. A. Petersson, H. Nakatsuji, X. Li, M. Caricato, A. V. Marenich, 
 J. Bloino, B. G. Janesko, R. Gomperts, B. Mennucci, H. P. Hratchian, 
 J. V. Ortiz, A. F. Izmaylov, J. L. Sonnenberg, D. Williams-Young, 
 F. Ding, F. Lipparini, F. Egidi, J. Goings, B. Peng, A. Petrone, 
 T. Henderson, D. Ranasinghe, V. G. Zakrzewski, J. Gao, N. Rega, 
 G. Zheng, W. Liang, M. Hada, M. Ehara, K. Toyota, R. Fukuda, 
 J. Hasegawa, M. Ishida, T. Nakajima, Y. Honda, O. Kitao, H. Nakai, 
 T. Vreven, K. Throssell, J. A. Montgomery, Jr., J. E. Peralta, 
 F. Ogliaro, M. J. Bearpark, J. J. Heyd, E. N. Brothers, K. N. Kudin, 
 V. N. Staroverov, T. A. Keith, R. Kobayashi, J. Normand, 
 K. Raghavachari, A. P. Rendell, J. C. Burant, S. S. Iyengar, 
 J. Tomasi, M. Cossi, J. M. Millam, M. Klene, C. Adamo, R. Cammi, 
 J. W. Ochterski, R. L. Martin, K. Morokuma, O. Farkas, 
 J. B. Foresman, and D. J. Fox, Gaussian, Inc., Wallingford CT, 2016.
 
 ******************************************
 Gaussian 16:  EM64L-G16RevA.03 25-Dec-2016
                22-Jan-2018 
 ******************************************
 %nprocshared=32
 Will use up to   32 processors via shared memory.
 %mem=32GB
 %chk=allatoms_t.chk
 ---------------------------------------
 #p wb97xd/cc-pvdz sp scf=(maxcycles=20)
 ---------------------------------------
 1/38=1,172=1/1;
 2/12=2,17=6,18=5,40=1/2;
 3/5=16,11=2,25=1,30=1,74=-58/1,2,3;
 4//1;
 5/5=2,7=20,38=5/2;
 6/7=2,8=2,9=2,10=2,28=1/1;
 99/5=1,9=1/99;
 Leave Link    1 at Mon Jan 22 00:36:44 2018, MaxMem=  4294967296 cpu:               2.7 elap:               0.1
 (Enter /share/apps/g16/l101.exe)
 ------------------
 Base pair stacking
 ------------------
 Symbolic Z-matrix:
 Charge =  0 Multiplicity = 1
 N                     3.8085    3.57395  -7.03488 
 C                     4.51229   4.87016  -7.085 
 C                     2.26534   2.0217   -6.81919 
 N                     3.44194   1.35798  -7.13514 
 C                     4.32454   2.31971  -7.25243 
 H                     5.37614   2.16953  -7.49848 
 N                     0.01696   2.48886  -6.28115 
 C                     0.37094   3.77787  -6.25412 
 H                    -0.4315    4.47561  -6.01855 
 N                     1.56175   4.33178  -6.47336 
 C                     2.47565   3.3881   -6.75388 
 C                     0.95939   1.56393  -6.56647 
 N                     0.60798   0.27672  -6.59393 
 H                     1.27271  -0.44206  -6.80062 
 H                    -0.33119  -0.0129   -6.40894 
 H                     4.8971    5.00698  -7.9979 
 H                     3.86898   5.60765  -6.88154 
 H                     5.2498    4.87771  -6.40972 
 N                     1.31915   4.67165  -3.27259 
 C                     0.31877   3.73663  -3.15846 
 C                     1.1244    6.13545  -3.26526 
 N                    -3.04731   2.96216  -2.79585 
 H                    -3.61198   2.14004  -2.72876 
 H                    -3.5207    3.84242  -2.7538 
 N                    -0.99959   3.99595  -3.02153 
 C                    -1.71507   2.88853  -2.93593 
 N                    -1.18218   1.62302  -2.98078 
 H                    -1.80537   0.83354  -2.9078 
 C                     0.17128   1.33262  -3.12113 
 O                     0.54854   0.15467  -3.15033 
 C                     0.9526    2.51233  -3.21434 
 N                     2.32333   2.67544  -3.36062 
 C                     2.49372   3.96938  -3.39033 
 H                     3.45858   4.46637  -3.49675 
 H                     1.45761   6.52202  -4.12453 
 H                     0.15158   6.33963  -3.16434 
 H                     1.62906   6.5367   -2.50163 
 H                    -5.49049  -2.66203  -3.13923 
 H                    -5.12495  -2.85966  -1.42693 
 H                    -4.93198  -1.28239  -2.19266 
 H                    -1.48534  -5.31544  -3.3939 
 C                    -1.78003  -4.2819   -3.2117 
 O                     0.39389  -3.40468  -3.57454 
 C                    -0.79598  -3.24689  -3.30232 
 H                    -0.60813  -1.21824  -3.10829 
 N                    -1.274    -1.9761   -3.05361 
 O                    -2.89051  -0.46793  -2.53446 
 C                    -2.56226  -1.62358  -2.73791 
 H                    -3.83057  -4.71907  -2.82442 
 C                    -3.04465  -3.96935  -2.90567 
 C                    -4.84129  -2.34897  -2.33512 
 N                    -3.45263  -2.67703  -2.66942 
 H                    -7.60349   0.83605  -4.91027 
 H                    -6.33193   1.48115  -4.11712 
 H                    -7.2472    0.33704  -3.39783 
 H                    -1.38985  -2.8076   -6.69354 
 H                    -2.91083  -3.57271  -6.58709 
 N                    -2.35738  -2.75096  -6.44693 
 C                    -2.88704  -1.62993  -5.95305 
 C                    -4.64199  -0.27281  -5.09276 
 N                    -3.87476   0.81543  -4.91522 
 H                    -1.92918   1.40287  -5.1802 
 C                    -2.62145   0.56943  -5.2915 
 N                    -2.089    -0.55269  -5.7864 
 H                    -7.3296   -2.06926  -5.05101 
 C                    -6.31372  -1.69001  -5.16549 
 N                    -5.30641  -2.38659  -5.63216 
 C                    -4.24025  -1.4998   -5.59138 
 C                    -6.86158   0.6468   -4.26704 
 N                    -5.98308  -0.4025   -4.81949 
 
 ITRead=  0  0  0  0  0  0  0  0  0  0  0  0  0  0  0  0  0  0  0  0
 ITRead=  0  0  0  0  0  0  0  0  0  0  0  0  0  0  0  0  0  0  0  0
 ITRead=  0  0  0  0  0  0  0  0  0  0  0  0  0  0  0  0  0  0  0  0
 ITRead=  0  0  0  0  0  0  0  0  0  0
 MicOpt= -1 -1 -1 -1 -1 -1 -1 -1 -1 -1 -1 -1 -1 -1 -1 -1 -1 -1 -1 -1
 MicOpt= -1 -1 -1 -1 -1 -1 -1 -1 -1 -1 -1 -1 -1 -1 -1 -1 -1 -1 -1 -1
 MicOpt= -1 -1 -1 -1 -1 -1 -1 -1 -1 -1 -1 -1 -1 -1 -1 -1 -1 -1 -1 -1
 MicOpt= -1 -1 -1 -1 -1 -1 -1 -1 -1 -1
 NAtoms=     70 NQM=       70 NQMF=       0 NMMI=      0 NMMIF=      0
                NMic=       0 NMicF=      0.
                    Isotopes and Nuclear Properties:
 (Nuclear quadrupole moments (NQMom) in fm**2, nuclear magnetic moments (NMagM)
  in nuclear magnetons)

  Atom         1           2           3           4           5           6           7           8           9          10
 IAtWgt=          14          12          12          14          12           1          14          12           1          14
 AtmWgt=  14.0030740  12.0000000  12.0000000  14.0030740  12.0000000   1.0078250  14.0030740  12.0000000   1.0078250  14.0030740
 NucSpn=           2           0           0           2           0           1           2           0           1           2
 AtZEff=  -0.0000000  -0.0000000  -0.0000000  -0.0000000  -0.0000000  -0.0000000  -0.0000000  -0.0000000  -0.0000000  -0.0000000
 NQMom=    2.0440000   0.0000000   0.0000000   2.0440000   0.0000000   0.0000000   2.0440000   0.0000000   0.0000000   2.0440000
 NMagM=    0.4037610   0.0000000   0.0000000   0.4037610   0.0000000   2.7928460   0.4037610   0.0000000   2.7928460   0.4037610
 AtZNuc=   7.0000000   6.0000000   6.0000000   7.0000000   6.0000000   1.0000000   7.0000000   6.0000000   1.0000000   7.0000000

  Atom        11          12          13          14          15          16          17          18          19          20
 IAtWgt=          12          12          14           1           1           1           1           1          14          12
 AtmWgt=  12.0000000  12.0000000  14.0030740   1.0078250   1.0078250   1.0078250   1.0078250   1.0078250  14.0030740  12.0000000
 NucSpn=           0           0           2           1           1           1           1           1           2           0
 AtZEff=  -0.0000000  -0.0000000  -0.0000000  -0.0000000  -0.0000000  -0.0000000  -0.0000000  -0.0000000  -0.0000000  -0.0000000
 NQMom=    0.0000000   0.0000000   2.0440000   0.0000000   0.0000000   0.0000000   0.0000000   0.0000000   2.0440000   0.0000000
 NMagM=    0.0000000   0.0000000   0.4037610   2.7928460   2.7928460   2.7928460   2.7928460   2.7928460   0.4037610   0.0000000
 AtZNuc=   6.0000000   6.0000000   7.0000000   1.0000000   1.0000000   1.0000000   1.0000000   1.0000000   7.0000000   6.0000000

  Atom        21          22          23          24          25          26          27          28          29          30
 IAtWgt=          12          14           1           1          14          12          14           1          12          16
 AtmWgt=  12.0000000  14.0030740   1.0078250   1.0078250  14.0030740  12.0000000  14.0030740   1.0078250  12.0000000  15.9949146
 NucSpn=           0           2           1           1           2           0           2           1           0           0
 AtZEff=  -0.0000000  -0.0000000  -0.0000000  -0.0000000  -0.0000000  -0.0000000  -0.0000000  -0.0000000  -0.0000000  -0.0000000
 NQMom=    0.0000000   2.0440000   0.0000000   0.0000000   2.0440000   0.0000000   2.0440000   0.0000000   0.0000000   0.0000000
 NMagM=    0.0000000   0.4037610   2.7928460   2.7928460   0.4037610   0.0000000   0.4037610   2.7928460   0.0000000   0.0000000
 AtZNuc=   6.0000000   7.0000000   1.0000000   1.0000000   7.0000000   6.0000000   7.0000000   1.0000000   6.0000000   8.0000000

  Atom        31          32          33          34          35          36          37          38          39          40
 IAtWgt=          12          14          12           1           1           1           1           1           1           1
 AtmWgt=  12.0000000  14.0030740  12.0000000   1.0078250   1.0078250   1.0078250   1.0078250   1.0078250   1.0078250   1.0078250
 NucSpn=           0           2           0           1           1           1           1           1           1           1
 AtZEff=  -0.0000000  -0.0000000  -0.0000000  -0.0000000  -0.0000000  -0.0000000  -0.0000000  -0.0000000  -0.0000000  -0.0000000
 NQMom=    0.0000000   2.0440000   0.0000000   0.0000000   0.0000000   0.0000000   0.0000000   0.0000000   0.0000000   0.0000000
 NMagM=    0.0000000   0.4037610   0.0000000   2.7928460   2.7928460   2.7928460   2.7928460   2.7928460   2.7928460   2.7928460
 AtZNuc=   6.0000000   7.0000000   6.0000000   1.0000000   1.0000000   1.0000000   1.0000000   1.0000000   1.0000000   1.0000000

  Atom        41          42          43          44          45          46          47          48          49          50
 IAtWgt=           1          12          16          12           1          14          16          12           1          12
 AtmWgt=   1.0078250  12.0000000  15.9949146  12.0000000   1.0078250  14.0030740  15.9949146  12.0000000   1.0078250  12.0000000
 NucSpn=           1           0           0           0           1           2           0           0           1           0
 AtZEff=  -0.0000000  -0.0000000  -0.0000000  -0.0000000  -0.0000000  -0.0000000  -0.0000000  -0.0000000  -0.0000000  -0.0000000
 NQMom=    0.0000000   0.0000000   0.0000000   0.0000000   0.0000000   2.0440000   0.0000000   0.0000000   0.0000000   0.0000000
 NMagM=    2.7928460   0.0000000   0.0000000   0.0000000   2.7928460   0.4037610   0.0000000   0.0000000   2.7928460   0.0000000
 AtZNuc=   1.0000000   6.0000000   8.0000000   6.0000000   1.0000000   7.0000000   8.0000000   6.0000000   1.0000000   6.0000000

  Atom        51          52          53          54          55          56          57          58          59          60
 IAtWgt=          12          14           1           1           1           1           1          14          12          12
 AtmWgt=  12.0000000  14.0030740   1.0078250   1.0078250   1.0078250   1.0078250   1.0078250  14.0030740  12.0000000  12.0000000
 NucSpn=           0           2           1           1           1           1           1           2           0           0
 AtZEff=  -0.0000000  -0.0000000  -0.0000000  -0.0000000  -0.0000000  -0.0000000  -0.0000000  -0.0000000  -0.0000000  -0.0000000
 NQMom=    0.0000000   2.0440000   0.0000000   0.0000000   0.0000000   0.0000000   0.0000000   2.0440000   0.0000000   0.0000000
 NMagM=    0.0000000   0.4037610   2.7928460   2.7928460   2.7928460   2.7928460   2.7928460   0.4037610   0.0000000   0.0000000
 AtZNuc=   6.0000000   7.0000000   1.0000000   1.0000000   1.0000000   1.0000000   1.0000000   7.0000000   6.0000000   6.0000000

  Atom        61          62          63          64          65          66          67          68          69          70
 IAtWgt=          14           1          12          14           1          12          14          12          12          14
 AtmWgt=  14.0030740   1.0078250  12.0000000  14.0030740   1.0078250  12.0000000  14.0030740  12.0000000  12.0000000  14.0030740
 NucSpn=           2           1           0           2           1           0           2           0           0           2
 AtZEff=  -0.0000000  -0.0000000  -0.0000000  -0.0000000  -0.0000000  -0.0000000  -0.0000000  -0.0000000  -0.0000000  -0.0000000
 NQMom=    2.0440000   0.0000000   0.0000000   2.0440000   0.0000000   0.0000000   2.0440000   0.0000000   0.0000000   2.0440000
 NMagM=    0.4037610   2.7928460   0.0000000   0.4037610   2.7928460   0.0000000   0.4037610   0.0000000   0.0000000   0.4037610
 AtZNuc=   7.0000000   1.0000000   6.0000000   7.0000000   1.0000000   6.0000000   7.0000000   6.0000000   6.0000000   7.0000000
 Leave Link  101 at Mon Jan 22 00:36:45 2018, MaxMem=  4294967296 cpu:               7.5 elap:               0.3
 (Enter /share/apps/g16/l202.exe)
 Stoichiometry    C23H27N17O3
 Framework group  C1[X(C23H27N17O3)]
 Deg. of freedom   204
 Full point group                 C1      NOp   1
 Largest Abelian subgroup         C1      NOp   1
 Largest concise Abelian subgroup C1      NOp   1
                         Standard orientation:                         
 ---------------------------------------------------------------------
 Center     Atomic      Atomic             Coordinates (Angstroms)
 Number     Number       Type             X           Y           Z
 ---------------------------------------------------------------------
      1          7           0        5.794742   -1.484139   -1.045098
      2          6           0        7.161867   -0.928537   -1.061450
      3          6           0        3.607719   -1.700804   -1.130736
      4          7           0        4.114371   -2.969967   -0.891435
      5          6           0        5.411683   -2.788637   -0.849411
      6          1           0        6.142921   -3.578962   -0.677264
      7          7           0        2.136085    0.102372   -1.512561
      8          6           0        3.224050    0.876487   -1.580802
      9          1           0        3.032533    1.932356   -1.767098
     10          7           0        4.507053    0.543694   -1.454055
     11          6           0        4.631522   -0.774553   -1.227853
     12          6           0        2.294736   -1.219593   -1.283835
     13          7           0        1.209921   -1.993960   -1.215383
     14          1           0        1.280100   -2.977942   -1.047799
     15          1           0        0.290570   -1.617162   -1.329212
     16          1           0        7.692318   -1.366151   -1.787606
     17          1           0        7.120264    0.056250   -1.227582
     18          1           0        7.603282   -1.097845   -0.180276
     19          7           0        4.000718    2.068852    1.345376
     20          6           0        2.633074    1.972540    1.254148
     21          6           0        4.794197    3.274927    1.034785
     22          7           0       -0.441684    3.413494    0.525244
     23          1           0       -1.403183    3.140083    0.526127
     24          1           0       -0.237185    4.352291    0.246739
     25          7           0        1.791096    2.955629    0.868557
     26          6           0        0.530481    2.560277    0.881368
     27          7           0        0.123460    1.299119    1.243739
     28          1           0       -0.861809    1.085071    1.223749
     29          6           0        0.972287    0.271868    1.643904
     30          8           0        0.502539   -0.830858    1.950626
     31          6           0        2.329837    0.681559    1.635184
     32          7           0        3.483890   -0.018541    1.959103
     33          6           0        4.447443    0.842292    1.772749
     34          1           0        5.505862    0.633908    1.932761
     35          1           0        5.437406    3.071984    0.297285
     36          1           0        4.181160    4.009894    0.747969
     37          1           0        5.299482    3.562025    1.847850
     38          1           0       -5.822073    0.460890    0.297002
     39          1           0       -5.966492    0.714896    2.034607
     40          1           0       -4.679125    1.513850    1.131436
     41          1           0       -4.489919   -3.862879    1.933171
     42          6           0       -4.077195   -2.860233    1.820907
     43          8           0       -1.827386   -3.554656    2.109409
     44          6           0       -2.661518   -2.671677    1.911002
     45          1           0       -1.250954   -1.192199    1.811957
     46          7           0       -2.244702   -1.365123    1.754642
     47          8           0       -2.572192    0.854397    1.402960
     48          6           0       -3.034664   -0.265906    1.528296
     49          1           0       -5.956274   -1.897569    1.523995
     50          6           0       -4.873522   -1.807600    1.600832
     51          6           0       -5.272282    0.615217    1.213503
     52          7           0       -4.388415   -0.528724    1.454201
     53          1           0       -4.853639    3.634651   -2.674074
     54          1           0       -3.623565    3.683588   -1.603265
     55          1           0       -5.164637    3.597741   -1.072404
     56          1           0       -2.247515   -3.212038   -1.492326
     57          1           0       -3.893796   -2.891581   -1.804048
     58          7           0       -2.976102   -2.538661   -1.618280
     59          6           0       -2.735698   -1.228100   -1.542119
     60          6           0       -3.321590    1.077258   -1.603598
     61          7           0       -2.079287    1.522494   -1.352847
     62          1           0       -0.202886    0.774477   -1.006188
     63          6           0       -1.236739    0.501048   -1.212665
     64          7           0       -1.475585   -0.812257   -1.288590
     65          1           0       -6.491280    1.259416   -2.213600
     66          6           0       -5.468993    0.931508   -2.022936
     67          7           0       -5.084386   -0.320537   -1.976683
     68          6           0       -3.724857   -0.242308   -1.711509
     69          6           0       -4.529909    3.304419   -1.787431
     70          7           0       -4.453581    1.830707   -1.805907
 ---------------------------------------------------------------------
 Rotational constants (GHZ):           0.1502788           0.0557614           0.0515663
 Leave Link  202 at Mon Jan 22 00:36:45 2018, MaxMem=  4294967296 cpu:               0.3 elap:               0.0
 (Enter /share/apps/g16/l301.exe)
 Standard basis: CC-pVDZ (5D, 7F)
 Ernie: Thresh=  0.10000D-02 Tol=  0.10000D-05 Strict=F.
 Ernie:  86 primitive shells out of 1081 were deleted.
 There are   780 symmetry adapted cartesian basis functions of A   symmetry.
 There are   737 symmetry adapted basis functions of A   symmetry.
   737 basis functions,  1608 primitive gaussians,   780 cartesian basis functions
   154 alpha electrons      154 beta electrons
       nuclear repulsion energy      5574.4399245975 Hartrees.
 IExCor= 4639 DFT=T Ex+Corr=wB97XD ExCW=0 ScaHFX=  1.000000
 ScaDFX=  1.000000  1.000000  1.000000  1.000000 ScalE2=  1.000000  1.000000
 IRadAn=      5 IRanWt=     -1 IRanGd=            0 ICorTp=0 IEmpDi=121
 HFx  wShort=  0.000000 wLong=  0.200000 cFull=  0.222036 cShort=  0.000000 cLong=  0.777964
 DFx  wShort=  0.000000 wLong=  0.200000 cFull=  0.000000 cShort=  0.000000 cLong=  1.000000
 NAtoms=   70 NActive=   70 NUniq=   70 SFac= 1.00D+00 NAtFMM=   60 NAOKFM=T Big=T
 Integral buffers will be    131072 words long.
 Raffenetti 2 integral format.
 Two-electron integral symmetry is turned on.
 R6Disp:  Grimme-D2 Dispersion energy=       -0.0758458510 Hartrees.
 Nuclear repulsion after empirical dispersion term =     5574.3640787465 Hartrees.
 Leave Link  301 at Mon Jan 22 00:36:45 2018, MaxMem=  4294967296 cpu:               2.1 elap:               0.1
 (Enter /share/apps/g16/l302.exe)
 NPDir=0 NMtPBC=     1 NCelOv=     1 NCel=       1 NClECP=     1 NCelD=      1
         NCelK=      1 NCelE2=     1 NClLst=     1 CellRange=     0.0.
 One-electron integrals computed using PRISM.
 One-electron integral symmetry used in STVInt
 NBasis=   737 RedAO= T EigKep=  6.84D-04  NBF=   737
 NBsUse=   737 1.00D-06 EigRej= -1.00D+00 NBFU=   737
 Precomputing XC quadrature grid using
 IXCGrd= 4 IRadAn=           5 IRanWt=          -1 IRanGd=           0 AccXCQ= 0.00D+00.
 Generated NRdTot=       0 NPtTot=           0 NUsed=           0 NTot=          32
 NSgBfM=   770   770   770   770   770 MxSgAt=    70 MxSgA2=    70.
 Leave Link  302 at Mon Jan 22 00:36:49 2018, MaxMem=  4294967296 cpu:             134.3 elap:               4.2
 (Enter /share/apps/g16/l303.exe)
 DipDrv:  MaxL=1.
 Leave Link  303 at Mon Jan 22 00:36:49 2018, MaxMem=  4294967296 cpu:              12.5 elap:               0.4
 (Enter /share/apps/g16/l401.exe)
 ExpMin= 1.22D-01 ExpMax= 1.17D+04 ExpMxC= 4.01D+02 IAcc=3 IRadAn=         5 AccDes= 0.00D+00
 Harris functional with IExCor= 4639 and IRadAn=       5 diagonalized for initial guess.
 HarFok:  IExCor= 4639 AccDes= 0.00D+00 IRadAn=         5 IDoV= 1 UseB2=F ITyADJ=14
 ICtDFT=  3500011 ScaDFX=  1.000000  1.000000  1.000000  1.000000
 FoFCou: FMM=F IPFlag=           0 FMFlag=      100000 FMFlg1=        2001
         NFxFlg=           0 DoJE=T BraDBF=F KetDBF=T FulRan=T
         wScrn=  0.000000 ICntrl=       500 IOpCl=  0 I1Cent=   200000004 NGrid=           0
         NMat0=    1 NMatS0=      1 NMatT0=    0 NMatD0=    1 NMtDS0=    0 NMtDT0=    0
 Petite list used in FoFCou.
 Harris En= -1963.88361418945    
 JPrj=0 DoOrth=F DoCkMO=F.
 Leave Link  401 at Mon Jan 22 00:37:02 2018, MaxMem=  4294967296 cpu:             408.8 elap:              12.8
 (Enter /share/apps/g16/l502.exe)
 Integral symmetry usage will be decided dynamically.
 Closed shell SCF:
 Using DIIS extrapolation, IDIIS=  1040.
 NGot=  4294967296 LenX=  4293717438 LenY=  4293108258
 Requested convergence on RMS density matrix=1.00D-08 within  20 cycles.
 Requested convergence on MAX density matrix=1.00D-06.
 Requested convergence on             energy=1.00D-06.
 No special actions if energy rises.
 Fock matrices will be formed incrementally for  20 cycles.
 Integral accuracy reduced to 1.0D-05 until final iterations.

 Cycle   1  Pass 0  IDiag  1:
 FoFJK:  IHMeth= 1 ICntrl=       0 DoSepK=T KAlg= 0 I1Cent=           0 FoldK=F
 IRaf=         1 NMat=       1 IRICut=       1 DoRegI=T DoRafI=F ISym2E= 0 IDoP0=0 IntGTp=1.
 FoFCou: FMM=T IPFlag=           0 FMFlag=      100000 FMFlg1=        2001
         NFxFlg=           0 DoJE=T BraDBF=F KetDBF=F FulRan=T
         wScrn=  0.000000 ICntrl=       500 IOpCl=  0 I1Cent=           0 NGrid=           0
         NMat0=    1 NMatS0=      1 NMatT0=    0 NMatD0=    1 NMtDS0=    0 NMtDT0=    0
 Symmetry not used in FoFCou.
 FMM levels:  10  Number of levels for PrismC:   9
 E= -2048.31834381857    
 DIIS: error= 2.23D-02 at cycle   1 NSaved=   1.
 NSaved= 1 IEnMin= 1 EnMin= -2048.31834381857     IErMin= 1 ErrMin= 2.23D-02
 ErrMax= 2.23D-02  0.00D+00 EMaxC= 1.00D-01 BMatC= 8.30D-01 BMatP= 8.30D-01
 IDIUse=3 WtCom= 7.77D-01 WtEn= 2.23D-01
 Coeff-Com:  0.100D+01
 Coeff-En:   0.100D+01
 Coeff:      0.100D+01
 Gap=     0.252 Goal=   None    Shift=    0.000
 GapD=    0.252 DampG=1.000 DampE=0.500 DampFc=0.5000 IDamp=-1.
 Damping current iteration by 5.00D-01
 RMSDP=1.56D-03 MaxDP=1.32D-01              OVMax= 2.08D-01

 Cycle   2  Pass 0  IDiag  1:
 RMSU=  7.78D-04    CP:  9.98D-01
 E= -2048.51503988939     Delta-E=       -0.196696070821 Rises=F Damp=T
 DIIS: error= 1.11D-02 at cycle   2 NSaved=   2.
 NSaved= 2 IEnMin= 2 EnMin= -2048.51503988939     IErMin= 2 ErrMin= 1.11D-02
 ErrMax= 1.11D-02  0.00D+00 EMaxC= 1.00D-01 BMatC= 1.44D-01 BMatP= 8.30D-01
 IDIUse=3 WtCom= 8.89D-01 WtEn= 1.11D-01
 Coeff-Com: -0.200D+00 0.120D+01
 Coeff-En:   0.000D+00 0.100D+01
 Coeff:     -0.178D+00 0.118D+01
 Gap=     0.318 Goal=   None    Shift=    0.000
 RMSDP=5.83D-04 MaxDP=3.57D-02 DE=-1.97D-01 OVMax= 1.25D-01

 Cycle   3  Pass 0  IDiag  1:
 RMSU=  5.72D-04    CP:  9.94D-01  1.14D+00
 E= -2048.69302964702     Delta-E=       -0.177989757628 Rises=F Damp=F
 DIIS: error= 5.79D-03 at cycle   3 NSaved=   3.
 NSaved= 3 IEnMin= 3 EnMin= -2048.69302964702     IErMin= 3 ErrMin= 5.79D-03
 ErrMax= 5.79D-03  0.00D+00 EMaxC= 1.00D-01 BMatC= 6.31D-02 BMatP= 1.44D-01
 IDIUse=3 WtCom= 9.42D-01 WtEn= 5.79D-02
 Coeff-Com: -0.233D+00 0.552D+00 0.682D+00
 Coeff-En:   0.000D+00 0.000D+00 0.100D+01
 Coeff:     -0.220D+00 0.520D+00 0.700D+00
 Gap=     0.280 Goal=   None    Shift=    0.000
 RMSDP=3.52D-04 MaxDP=3.42D-02 DE=-1.78D-01 OVMax= 6.62D-02

 Cycle   4  Pass 0  IDiag  1:
 RMSU=  2.02D-04    CP:  9.95D-01  1.42D+00  6.74D-01
 E= -2048.74107087628     Delta-E=       -0.048041229261 Rises=F Damp=F
 DIIS: error= 2.56D-03 at cycle   4 NSaved=   4.
 NSaved= 4 IEnMin= 4 EnMin= -2048.74107087628     IErMin= 4 ErrMin= 2.56D-03
 ErrMax= 2.56D-03  0.00D+00 EMaxC= 1.00D-01 BMatC= 8.52D-03 BMatP= 6.31D-02
 IDIUse=3 WtCom= 9.74D-01 WtEn= 2.56D-02
 Coeff-Com: -0.989D-01 0.192D+00 0.374D+00 0.534D+00
 Coeff-En:   0.000D+00 0.000D+00 0.462D-01 0.954D+00
 Coeff:     -0.963D-01 0.187D+00 0.365D+00 0.544D+00
 Gap=     0.283 Goal=   None    Shift=    0.000
 RMSDP=1.24D-04 MaxDP=1.17D-02 DE=-4.80D-02 OVMax= 1.44D-02

 Cycle   5  Pass 0  IDiag  1:
 RMSU=  6.16D-05    CP:  9.94D-01  1.40D+00  8.01D-01  6.21D-01
 E= -2048.74806923673     Delta-E=       -0.006998360449 Rises=F Damp=F
 DIIS: error= 6.15D-04 at cycle   5 NSaved=   5.
 NSaved= 5 IEnMin= 5 EnMin= -2048.74806923673     IErMin= 5 ErrMin= 6.15D-04
 ErrMax= 6.15D-04  0.00D+00 EMaxC= 1.00D-01 BMatC= 2.90D-04 BMatP= 8.52D-03
 IDIUse=3 WtCom= 9.94D-01 WtEn= 6.15D-03
 Coeff-Com: -0.261D-01 0.451D-01 0.120D+00 0.240D+00 0.621D+00
 Coeff-En:   0.000D+00 0.000D+00 0.000D+00 0.000D+00 0.100D+01
 Coeff:     -0.259D-01 0.448D-01 0.119D+00 0.239D+00 0.623D+00
 Gap=     0.283 Goal=   None    Shift=    0.000
 RMSDP=2.61D-05 MaxDP=1.92D-03 DE=-7.00D-03 OVMax= 3.13D-03

 Failed to achieve initial convergence to 1.0D-08 in  6 cycles.
 Switch to full accuracy anyway.
 Cycle   6  Pass 1  IDiag  1:
 E= -2048.74836331106     Delta-E=       -0.000294074334 Rises=F Damp=F
 DIIS: error= 2.99D-04 at cycle   1 NSaved=   1.
 NSaved= 1 IEnMin= 1 EnMin= -2048.74836331106     IErMin= 1 ErrMin= 2.99D-04
 ErrMax= 2.99D-04  0.00D+00 EMaxC= 1.00D-01 BMatC= 7.79D-05 BMatP= 7.79D-05
 IDIUse=3 WtCom= 9.97D-01 WtEn= 2.99D-03
 Coeff-Com:  0.100D+01
 Coeff-En:   0.100D+01
 Coeff:      0.100D+01
 Gap=     0.283 Goal=   None    Shift=    0.000
 RMSDP=2.61D-05 MaxDP=1.92D-03 DE=-2.94D-04 OVMax= 2.06D-03

 Cycle   7  Pass 1  IDiag  1:
 RMSU=  1.15D-04    CP:  1.00D+00
 E= -2048.74842154679     Delta-E=       -0.000058235725 Rises=F Damp=F
 DIIS: error= 2.69D-04 at cycle   2 NSaved=   2.
 NSaved= 2 IEnMin= 2 EnMin= -2048.74842154679     IErMin= 2 ErrMin= 2.69D-04
 ErrMax= 2.69D-04  0.00D+00 EMaxC= 1.00D-01 BMatC= 4.38D-05 BMatP= 7.79D-05
 IDIUse=3 WtCom= 9.97D-01 WtEn= 2.69D-03
 Coeff-Com:  0.403D+00 0.597D+00
 Coeff-En:   0.000D+00 0.100D+01
 Coeff:      0.402D+00 0.598D+00
 Gap=     0.283 Goal=   None    Shift=    0.000
 RMSDP=1.14D-05 MaxDP=1.14D-03 DE=-5.82D-05 OVMax= 1.44D-03

 Cycle   8  Pass 1  IDiag  1:
 RMSU=  1.11D-05    CP:  1.00D+00  1.02D+00
 E= -2048.74845287923     Delta-E=       -0.000031332444 Rises=F Damp=F
 DIIS: error= 1.16D-04 at cycle   3 NSaved=   3.
 NSaved= 3 IEnMin= 3 EnMin= -2048.74845287923     IErMin= 3 ErrMin= 1.16D-04
 ErrMax= 1.16D-04  0.00D+00 EMaxC= 1.00D-01 BMatC= 1.09D-05 BMatP= 4.38D-05
 IDIUse=3 WtCom= 9.99D-01 WtEn= 1.16D-03
 Coeff-Com: -0.195D-01 0.320D+00 0.699D+00
 Coeff-En:   0.000D+00 0.148D+00 0.852D+00
 Coeff:     -0.195D-01 0.320D+00 0.699D+00
 Gap=     0.283 Goal=   None    Shift=    0.000
 RMSDP=5.67D-06 MaxDP=4.82D-04 DE=-3.13D-05 OVMax= 5.34D-04

 Cycle   9  Pass 1  IDiag  1:
 RMSU=  3.91D-06    CP:  1.00D+00  1.05D+00  7.57D-01
 E= -2048.74846302138     Delta-E=       -0.000010142146 Rises=F Damp=F
 DIIS: error= 1.95D-05 at cycle   4 NSaved=   4.
 NSaved= 4 IEnMin= 4 EnMin= -2048.74846302138     IErMin= 4 ErrMin= 1.95D-05
 ErrMax= 1.95D-05  0.00D+00 EMaxC= 1.00D-01 BMatC= 5.26D-07 BMatP= 1.09D-05
 IDIUse=1 WtCom= 1.00D+00 WtEn= 0.00D+00
 Coeff-Com: -0.303D-01 0.905D-01 0.263D+00 0.677D+00
 Coeff:     -0.303D-01 0.905D-01 0.263D+00 0.677D+00
 Gap=     0.283 Goal=   None    Shift=    0.000
 RMSDP=1.45D-06 MaxDP=1.41D-04 DE=-1.01D-05 OVMax= 4.36D-04

 Cycle  10  Pass 1  IDiag  1:
 RMSU=  1.30D-06    CP:  1.00D+00  1.05D+00  7.93D-01  1.10D+00
 E= -2048.74846388082     Delta-E=       -0.000000859437 Rises=F Damp=F
 DIIS: error= 1.25D-05 at cycle   5 NSaved=   5.
 NSaved= 5 IEnMin= 5 EnMin= -2048.74846388082     IErMin= 5 ErrMin= 1.25D-05
 ErrMax= 1.25D-05  0.00D+00 EMaxC= 1.00D-01 BMatC= 1.24D-07 BMatP= 5.26D-07
 IDIUse=1 WtCom= 1.00D+00 WtEn= 0.00D+00
 Coeff-Com: -0.284D-02-0.573D-01-0.119D+00 0.204D+00 0.976D+00
 Coeff:     -0.284D-02-0.573D-01-0.119D+00 0.204D+00 0.976D+00
 Gap=     0.283 Goal=   None    Shift=    0.000
 RMSDP=1.23D-06 MaxDP=7.95D-05 DE=-8.59D-07 OVMax= 2.08D-04

 Cycle  11  Pass 1  IDiag  1:
 RMSU=  5.05D-07    CP:  1.00D+00  1.05D+00  8.06D-01  1.38D+00  1.17D+00
 E= -2048.74846414766     Delta-E=       -0.000000266839 Rises=F Damp=F
 DIIS: error= 4.35D-06 at cycle   6 NSaved=   6.
 NSaved= 6 IEnMin= 6 EnMin= -2048.74846414766     IErMin= 6 ErrMin= 4.35D-06
 ErrMax= 4.35D-06  0.00D+00 EMaxC= 1.00D-01 BMatC= 2.98D-08 BMatP= 1.24D-07
 IDIUse=1 WtCom= 1.00D+00 WtEn= 0.00D+00
 Coeff-Com:  0.465D-02-0.471D-01-0.115D+00-0.192D-02 0.524D+00 0.635D+00
 Coeff:      0.465D-02-0.471D-01-0.115D+00-0.192D-02 0.524D+00 0.635D+00
 Gap=     0.283 Goal=   None    Shift=    0.000
 RMSDP=3.85D-07 MaxDP=3.91D-05 DE=-2.67D-07 OVMax= 1.12D-04

 Cycle  12  Pass 1  IDiag  1:
 RMSU=  1.91D-07    CP:  1.00D+00  1.05D+00  8.08D-01  1.45D+00  1.30D+00
                    CP:  9.21D-01
 E= -2048.74846419093     Delta-E=       -0.000000043271 Rises=F Damp=F
 DIIS: error= 1.33D-06 at cycle   7 NSaved=   7.
 NSaved= 7 IEnMin= 7 EnMin= -2048.74846419093     IErMin= 7 ErrMin= 1.33D-06
 ErrMax= 1.33D-06  0.00D+00 EMaxC= 1.00D-01 BMatC= 9.74D-10 BMatP= 2.98D-08
 IDIUse=1 WtCom= 1.00D+00 WtEn= 0.00D+00
 Coeff-Com:  0.131D-02-0.968D-02-0.250D-01-0.773D-02 0.807D-01 0.168D+00
 Coeff-Com:  0.793D+00
 Coeff:      0.131D-02-0.968D-02-0.250D-01-0.773D-02 0.807D-01 0.168D+00
 Coeff:      0.793D+00
 Gap=     0.283 Goal=   None    Shift=    0.000
 RMSDP=8.35D-08 MaxDP=5.20D-06 DE=-4.33D-08 OVMax= 1.89D-05

 Cycle  13  Pass 1  IDiag  1:
 RMSU=  5.22D-08    CP:  1.00D+00  1.05D+00  8.08D-01  1.46D+00  1.32D+00
                    CP:  1.01D+00  1.12D+00
 E= -2048.74846419266     Delta-E=       -0.000000001736 Rises=F Damp=F
 DIIS: error= 8.09D-07 at cycle   8 NSaved=   8.
 NSaved= 8 IEnMin= 8 EnMin= -2048.74846419266     IErMin= 8 ErrMin= 8.09D-07
 ErrMax= 8.09D-07  0.00D+00 EMaxC= 1.00D-01 BMatC= 3.74D-10 BMatP= 9.74D-10
 IDIUse=1 WtCom= 1.00D+00 WtEn= 0.00D+00
 Coeff-Com: -0.676D-03 0.867D-02 0.201D-01-0.206D-02-0.111D+00-0.925D-01
 Coeff-Com:  0.409D+00 0.769D+00
 Coeff:     -0.676D-03 0.867D-02 0.201D-01-0.206D-02-0.111D+00-0.925D-01
 Coeff:      0.409D+00 0.769D+00
 Gap=     0.283 Goal=   None    Shift=    0.000
 RMSDP=5.18D-08 MaxDP=3.04D-06 DE=-1.74D-09 OVMax= 1.13D-05

 Cycle  14  Pass 1  IDiag  1:
 RMSU=  2.98D-08    CP:  1.00D+00  1.05D+00  8.07D-01  1.46D+00  1.32D+00
                    CP:  1.05D+00  1.28D+00  1.05D+00
 E= -2048.74846419301     Delta-E=       -0.000000000347 Rises=F Damp=F
 DIIS: error= 1.32D-07 at cycle   9 NSaved=   9.
 NSaved= 9 IEnMin= 9 EnMin= -2048.74846419301     IErMin= 9 ErrMin= 1.32D-07
 ErrMax= 1.32D-07  0.00D+00 EMaxC= 1.00D-01 BMatC= 4.38D-11 BMatP= 3.74D-10
 IDIUse=1 WtCom= 1.00D+00 WtEn= 0.00D+00
 Coeff-Com: -0.470D-03 0.525D-02 0.125D-01 0.478D-03-0.607D-01-0.626D-01
 Coeff-Com:  0.911D-01 0.342D+00 0.672D+00
 Coeff:     -0.470D-03 0.525D-02 0.125D-01 0.478D-03-0.607D-01-0.626D-01
 Coeff:      0.911D-01 0.342D+00 0.672D+00
 Gap=     0.283 Goal=   None    Shift=    0.000
 RMSDP=1.48D-08 MaxDP=8.52D-07 DE=-3.47D-10 OVMax= 3.22D-06

 Cycle  15  Pass 1  IDiag  1:
 RMSU=  9.96D-09    CP:  1.00D+00  1.05D+00  8.07D-01  1.46D+00  1.33D+00
                    CP:  1.06D+00  1.31D+00  1.20D+00  1.08D+00
 E= -2048.74846419332     Delta-E=       -0.000000000311 Rises=F Damp=F
 DIIS: error= 7.73D-08 at cycle  10 NSaved=  10.
 NSaved=10 IEnMin=10 EnMin= -2048.74846419332     IErMin=10 ErrMin= 7.73D-08
 ErrMax= 7.73D-08  0.00D+00 EMaxC= 1.00D-01 BMatC= 5.28D-12 BMatP= 4.38D-11
 IDIUse=1 WtCom= 1.00D+00 WtEn= 0.00D+00
 Coeff-Com: -0.121D-04-0.113D-03-0.161D-03 0.187D-03 0.299D-02-0.112D-02
 Coeff-Com: -0.494D-01-0.449D-01 0.229D+00 0.864D+00
 Coeff:     -0.121D-04-0.113D-03-0.161D-03 0.187D-03 0.299D-02-0.112D-02
 Coeff:     -0.494D-01-0.449D-01 0.229D+00 0.864D+00
 Gap=     0.283 Goal=   None    Shift=    0.000
 RMSDP=7.19D-09 MaxDP=4.24D-07 DE=-3.11D-10 OVMax= 1.54D-06

 SCF Done:  E(RwB97XD) =  -2048.74846419     A.U. after   15 cycles
            NFock= 15  Conv=0.72D-08     -V/T= 2.0054
 KE= 2.037779032161D+03 PE=-1.592949287985D+04 EE= 6.268601304753D+03
 Leave Link  502 at Mon Jan 22 00:48:45 2018, MaxMem=  4294967296 cpu:           21751.8 elap:             702.5
 (Enter /share/apps/g16/l601.exe)
 Copying SCF densities to generalized density rwf, IOpCl= 0 IROHF=0.

 **********************************************************************

            Population analysis using the SCF density.

 **********************************************************************

 Orbital symmetries:
       Occupied  (A) (A) (A) (A) (A) (A) (A) (A) (A) (A) (A) (A)
                 (A) (A) (A) (A) (A) (A) (A) (A) (A) (A) (A) (A)
                 (A) (A) (A) (A) (A) (A) (A) (A) (A) (A) (A) (A)
                 (A) (A) (A) (A) (A) (A) (A) (A) (A) (A) (A) (A)
                 (A) (A) (A) (A) (A) (A) (A) (A) (A) (A) (A) (A)
                 (A) (A) (A) (A) (A) (A) (A) (A) (A) (A) (A) (A)
                 (A) (A) (A) (A) (A) (A) (A) (A) (A) (A) (A) (A)
                 (A) (A) (A) (A) (A) (A) (A) (A) (A) (A) (A) (A)
                 (A) (A) (A) (A) (A) (A) (A) (A) (A) (A) (A) (A)
                 (A) (A) (A) (A) (A) (A) (A) (A) (A) (A) (A) (A)
                 (A) (A) (A) (A) (A) (A) (A) (A) (A) (A) (A) (A)
                 (A) (A) (A) (A) (A) (A) (A) (A) (A) (A) (A) (A)
                 (A) (A) (A) (A) (A) (A) (A) (A) (A) (A)
       Virtual   (A) (A) (A) (A) (A) (A) (A) (A) (A) (A) (A) (A)
                 (A) (A) (A) (A) (A) (A) (A) (A) (A) (A) (A) (A)
                 (A) (A) (A) (A) (A) (A) (A) (A) (A) (A) (A) (A)
                 (A) (A) (A) (A) (A) (A) (A) (A) (A) (A) (A) (A)
                 (A) (A) (A) (A) (A) (A) (A) (A) (A) (A) (A) (A)
                 (A) (A) (A) (A) (A) (A) (A) (A) (A) (A) (A) (A)
                 (A) (A) (A) (A) (A) (A) (A) (A) (A) (A) (A) (A)
                 (A) (A) (A) (A) (A) (A) (A) (A) (A) (A) (A) (A)
                 (A) (A) (A) (A) (A) (A) (A) (A) (A) (A) (A) (A)
                 (A) (A) (A) (A) (A) (A) (A) (A) (A) (A) (A) (A)
                 (A) (A) (A) (A) (A) (A) (A) (A) (A) (A) (A) (A)
                 (A) (A) (A) (A) (A) (A) (A) (A) (A) (A) (A) (A)
                 (A) (A) (A) (A) (A) (A) (A) (A) (A) (A) (A) (A)
                 (A) (A) (A) (A) (A) (A) (A) (A) (A) (A) (A) (A)
                 (A) (A) (A) (A) (A) (A) (A) (A) (A) (A) (A) (A)
                 (A) (A) (A) (A) (A) (A) (A) (A) (A) (A) (A) (A)
                 (A) (A) (A) (A) (A) (A) (A) (A) (A) (A) (A) (A)
                 (A) (A) (A) (A) (A) (A) (A) (A) (A) (A) (A) (A)
                 (A) (A) (A) (A) (A) (A) (A) (A) (A) (A) (A) (A)
                 (A) (A) (A) (A) (A) (A) (A) (A) (A) (A) (A) (A)
                 (A) (A) (A) (A) (A) (A) (A) (A) (A) (A) (A) (A)
                 (A) (A) (A) (A) (A) (A) (A) (A) (A) (A) (A) (A)
                 (A) (A) (A) (A) (A) (A) (A) (A) (A) (A) (A) (A)
                 (A) (A) (A) (A) (A) (A) (A) (A) (A) (A) (A) (A)
                 (A) (A) (A) (A) (A) (A) (A) (A) (A) (A) (A) (A)
                 (A) (A) (A) (A) (A) (A) (A) (A) (A) (A) (A) (A)
                 (A) (A) (A) (A) (A) (A) (A) (A) (A) (A) (A) (A)
                 (A) (A) (A) (A) (A) (A) (A) (A) (A) (A) (A) (A)
                 (A) (A) (A) (A) (A) (A) (A) (A) (A) (A) (A) (A)
                 (A) (A) (A) (A) (A) (A) (A) (A) (A) (A) (A) (A)
                 (A) (A) (A) (A) (A) (A) (A) (A) (A) (A) (A) (A)
                 (A) (A) (A) (A) (A) (A) (A) (A) (A) (A) (A) (A)
                 (A) (A) (A) (A) (A) (A) (A) (A) (A) (A) (A) (A)
                 (A) (A) (A) (A) (A) (A) (A) (A) (A) (A) (A) (A)
                 (A) (A) (A) (A) (A) (A) (A) (A) (A) (A) (A) (A)
                 (A) (A) (A) (A) (A) (A) (A) (A) (A) (A) (A) (A)
                 (A) (A) (A) (A) (A) (A) (A) (A) (A) (A) (A) (A)
                 (A) (A) (A) (A) (A) (A) (A) (A) (A) (A) (A) (A)
                 (A) (A) (A) (A) (A) (A) (A) (A) (A) (A) (A) (A)
                 (A) (A) (A) (A) (A) (A) (A) (A) (A) (A) (A) (A)
                 (A) (A) (A) (A) (A) (A) (A) (A) (A) (A) (A) (A)
                 (A) (A) (A) (A) (A) (A) (A) (A) (A) (A) (A) (A)
                 (A) (A) (A) (A) (A) (A) (A) (A) (A) (A) (A) (A)
                 (A) (A) (A) (A) (A) (A) (A) (A) (A) (A) (A) (A)
                 (A) (A) (A) (A) (A) (A) (A) (A) (A) (A) (A) (A)
                 (A) (A) (A) (A) (A) (A) (A) (A) (A) (A) (A) (A)
                 (A) (A) (A) (A) (A) (A) (A) (A) (A) (A) (A) (A)
                 (A) (A) (A) (A) (A) (A) (A) (A) (A) (A) (A) (A)
                 (A) (A) (A) (A) (A) (A) (A)
 The electronic state is 1-A.
 Alpha  occ. eigenvalues --  -19.25534 -19.21699 -19.20417 -14.52635 -14.52079
 Alpha  occ. eigenvalues --  -14.48889 -14.48293 -14.48225 -14.47502 -14.46593
 Alpha  occ. eigenvalues --  -14.46044 -14.45649 -14.44323 -14.44306 -14.42606
 Alpha  occ. eigenvalues --  -14.41708 -14.41460 -14.41262 -14.40612 -14.40445
 Alpha  occ. eigenvalues --  -10.45106 -10.40865 -10.40019 -10.39813 -10.38154
 Alpha  occ. eigenvalues --  -10.37970 -10.37459 -10.37299 -10.35695 -10.35661
 Alpha  occ. eigenvalues --  -10.34723 -10.34265 -10.34144 -10.33925 -10.33498
 Alpha  occ. eigenvalues --  -10.33298 -10.33038 -10.32773 -10.31255 -10.30775
 Alpha  occ. eigenvalues --  -10.30364 -10.28616 -10.27744  -1.19176  -1.15375
 Alpha  occ. eigenvalues --   -1.12931  -1.12725  -1.11443  -1.10245  -1.09334
 Alpha  occ. eigenvalues --   -1.08985  -1.08229  -1.05261  -1.04844  -1.02162
 Alpha  occ. eigenvalues --   -1.01166  -1.00720  -0.99283  -0.98271  -0.97151
 Alpha  occ. eigenvalues --   -0.96822  -0.96223  -0.92951  -0.90719  -0.87808
 Alpha  occ. eigenvalues --   -0.86152  -0.84114  -0.83715  -0.83318  -0.82513
 Alpha  occ. eigenvalues --   -0.82071  -0.78536  -0.77157  -0.74997  -0.74255
 Alpha  occ. eigenvalues --   -0.73298  -0.73100  -0.73030  -0.71269  -0.70540
 Alpha  occ. eigenvalues --   -0.67022  -0.66886  -0.66530  -0.66203  -0.64405
 Alpha  occ. eigenvalues --   -0.64151  -0.63439  -0.62963  -0.62459  -0.61374
 Alpha  occ. eigenvalues --   -0.60954  -0.60709  -0.60572  -0.59620  -0.59199
 Alpha  occ. eigenvalues --   -0.58765  -0.57910  -0.56954  -0.56720  -0.56172
 Alpha  occ. eigenvalues --   -0.55778  -0.55722  -0.55454  -0.54301  -0.54115
 Alpha  occ. eigenvalues --   -0.53934  -0.53640  -0.53291  -0.53266  -0.52746
 Alpha  occ. eigenvalues --   -0.52574  -0.52177  -0.52013  -0.50984  -0.50405
 Alpha  occ. eigenvalues --   -0.49904  -0.49807  -0.49164  -0.49091  -0.48686
 Alpha  occ. eigenvalues --   -0.48465  -0.48395  -0.48043  -0.47198  -0.47131
 Alpha  occ. eigenvalues --   -0.47094  -0.45628  -0.44866  -0.44693  -0.43454
 Alpha  occ. eigenvalues --   -0.41211  -0.40912  -0.39237  -0.37850  -0.37729
 Alpha  occ. eigenvalues --   -0.37497  -0.36992  -0.36958  -0.35995  -0.34667
 Alpha  occ. eigenvalues --   -0.34495  -0.33775  -0.33661  -0.33253  -0.32905
 Alpha  occ. eigenvalues --   -0.32430  -0.32235  -0.31964  -0.31644  -0.31034
 Alpha  occ. eigenvalues --   -0.30705  -0.29643  -0.25885  -0.24935
 Alpha virt. eigenvalues --    0.03398   0.03736   0.07033   0.07482   0.08702
 Alpha virt. eigenvalues --    0.09265   0.09964   0.10423   0.11121   0.11880
 Alpha virt. eigenvalues --    0.12923   0.14100   0.14154   0.14608   0.15038
 Alpha virt. eigenvalues --    0.15274   0.16165   0.17101   0.17693   0.17936
 Alpha virt. eigenvalues --    0.19064   0.19246   0.19706   0.20082   0.20662
 Alpha virt. eigenvalues --    0.20703   0.21029   0.21153   0.21366   0.21937
 Alpha virt. eigenvalues --    0.22425   0.22523   0.23795   0.24014   0.24041
 Alpha virt. eigenvalues --    0.24147   0.24619   0.25214   0.25380   0.25446
 Alpha virt. eigenvalues --    0.25684   0.27204   0.27568   0.27760   0.28249
 Alpha virt. eigenvalues --    0.28785   0.29019   0.29855   0.30391   0.30739
 Alpha virt. eigenvalues --    0.31192   0.31791   0.32677   0.33017   0.33550
 Alpha virt. eigenvalues --    0.33951   0.34278   0.35228   0.36260   0.36424
 Alpha virt. eigenvalues --    0.36825   0.37754   0.38029   0.38819   0.39083
 Alpha virt. eigenvalues --    0.40071   0.40446   0.41088   0.41566   0.41967
 Alpha virt. eigenvalues --    0.42191   0.42573   0.42982   0.43456   0.44122
 Alpha virt. eigenvalues --    0.44759   0.45413   0.45946   0.46436   0.47230
 Alpha virt. eigenvalues --    0.47376   0.48295   0.48670   0.48976   0.49319
 Alpha virt. eigenvalues --    0.49583   0.50084   0.50821   0.51174   0.51522
 Alpha virt. eigenvalues --    0.51950   0.52139   0.52422   0.53082   0.53446
 Alpha virt. eigenvalues --    0.53737   0.54524   0.54644   0.55371   0.55794
 Alpha virt. eigenvalues --    0.55984   0.56376   0.56846   0.57509   0.57918
 Alpha virt. eigenvalues --    0.57971   0.58196   0.58576   0.59480   0.59650
 Alpha virt. eigenvalues --    0.59717   0.60434   0.60728   0.61450   0.61759
 Alpha virt. eigenvalues --    0.62165   0.62521   0.63130   0.63495   0.63646
 Alpha virt. eigenvalues --    0.64267   0.64602   0.64851   0.65154   0.65528
 Alpha virt. eigenvalues --    0.65651   0.66013   0.66532   0.66877   0.67647
 Alpha virt. eigenvalues --    0.68201   0.68633   0.68787   0.69214   0.70054
 Alpha virt. eigenvalues --    0.70569   0.70653   0.70887   0.71641   0.72298
 Alpha virt. eigenvalues --    0.72906   0.73071   0.73559   0.73783   0.74015
 Alpha virt. eigenvalues --    0.74158   0.75181   0.75309   0.75510   0.75867
 Alpha virt. eigenvalues --    0.76068   0.76451   0.77050   0.77139   0.77540
 Alpha virt. eigenvalues --    0.78071   0.78364   0.78672   0.79014   0.79141
 Alpha virt. eigenvalues --    0.79324   0.79998   0.80206   0.80983   0.81182
 Alpha virt. eigenvalues --    0.81390   0.82192   0.82343   0.83066   0.83743
 Alpha virt. eigenvalues --    0.83802   0.84580   0.84721   0.85116   0.85666
 Alpha virt. eigenvalues --    0.85827   0.86295   0.86847   0.86903   0.87408
 Alpha virt. eigenvalues --    0.88199   0.88521   0.89509   0.89706   0.90160
 Alpha virt. eigenvalues --    0.90683   0.91331   0.91632   0.92244   0.92520
 Alpha virt. eigenvalues --    0.92557   0.93203   0.93793   0.94072   0.94357
 Alpha virt. eigenvalues --    0.95016   0.95170   0.95916   0.96182   0.97118
 Alpha virt. eigenvalues --    0.97726   0.97998   0.98493   0.99351   0.99568
 Alpha virt. eigenvalues --    0.99941   1.00654   1.00922   1.01079   1.01568
 Alpha virt. eigenvalues --    1.02131   1.02418   1.03248   1.03759   1.03963
 Alpha virt. eigenvalues --    1.04599   1.04742   1.05083   1.05345   1.05733
 Alpha virt. eigenvalues --    1.06248   1.06639   1.06755   1.07175   1.07695
 Alpha virt. eigenvalues --    1.08916   1.09279   1.10644   1.10728   1.11436
 Alpha virt. eigenvalues --    1.11535   1.11937   1.12740   1.13261   1.13820
 Alpha virt. eigenvalues --    1.14150   1.14605   1.14981   1.15451   1.16030
 Alpha virt. eigenvalues --    1.16581   1.16912   1.17317   1.17635   1.18143
 Alpha virt. eigenvalues --    1.18377   1.19160   1.19539   1.19637   1.19973
 Alpha virt. eigenvalues --    1.20726   1.21002   1.21314   1.21846   1.22020
 Alpha virt. eigenvalues --    1.22144   1.22784   1.23110   1.23528   1.23943
 Alpha virt. eigenvalues --    1.24704   1.24773   1.25128   1.25510   1.25870
 Alpha virt. eigenvalues --    1.26441   1.26963   1.27587   1.27990   1.29280
 Alpha virt. eigenvalues --    1.29581   1.29961   1.30225   1.31194   1.32285
 Alpha virt. eigenvalues --    1.32587   1.33443   1.34096   1.34375   1.34607
 Alpha virt. eigenvalues --    1.35708   1.35886   1.36538   1.37189   1.37450
 Alpha virt. eigenvalues --    1.38710   1.38778   1.39298   1.39959   1.41204
 Alpha virt. eigenvalues --    1.41990   1.42611   1.43016   1.44266   1.45464
 Alpha virt. eigenvalues --    1.45953   1.47188   1.47745   1.47948   1.49371
 Alpha virt. eigenvalues --    1.49775   1.50361   1.51125   1.51624   1.51783
 Alpha virt. eigenvalues --    1.52976   1.53148   1.53521   1.53934   1.55537
 Alpha virt. eigenvalues --    1.55847   1.56275   1.56665   1.57299   1.57845
 Alpha virt. eigenvalues --    1.58917   1.59189   1.60444   1.60789   1.61107
 Alpha virt. eigenvalues --    1.62291   1.63070   1.63482   1.63836   1.64794
 Alpha virt. eigenvalues --    1.65212   1.65439   1.65676   1.65942   1.66884
 Alpha virt. eigenvalues --    1.67298   1.67832   1.68341   1.69186   1.70294
 Alpha virt. eigenvalues --    1.70517   1.70861   1.71327   1.71821   1.72541
 Alpha virt. eigenvalues --    1.72907   1.72992   1.73531   1.74109   1.74306
 Alpha virt. eigenvalues --    1.74780   1.74891   1.75405   1.75741   1.75964
 Alpha virt. eigenvalues --    1.76586   1.76792   1.77026   1.77307   1.77557
 Alpha virt. eigenvalues --    1.77788   1.78290   1.78850   1.79341   1.79477
 Alpha virt. eigenvalues --    1.79837   1.80168   1.80258   1.80529   1.80771
 Alpha virt. eigenvalues --    1.81098   1.81538   1.81882   1.82015   1.82578
 Alpha virt. eigenvalues --    1.83093   1.83447   1.83801   1.84639   1.84901
 Alpha virt. eigenvalues --    1.85556   1.85862   1.86804   1.86909   1.87446
 Alpha virt. eigenvalues --    1.87861   1.88410   1.89013   1.89174   1.89673
 Alpha virt. eigenvalues --    1.90166   1.90526   1.90997   1.91629   1.92253
 Alpha virt. eigenvalues --    1.92742   1.93304   1.93588   1.94123   1.95350
 Alpha virt. eigenvalues --    1.95681   1.96780   1.97349   1.97750   1.99010
 Alpha virt. eigenvalues --    1.99663   2.00116   2.00724   2.00909   2.01585
 Alpha virt. eigenvalues --    2.02216   2.02401   2.03119   2.03732   2.04596
 Alpha virt. eigenvalues --    2.04780   2.06346   2.06573   2.06644   2.07796
 Alpha virt. eigenvalues --    2.07907   2.08585   2.09150   2.09898   2.10639
 Alpha virt. eigenvalues --    2.11170   2.11867   2.12981   2.13554   2.14148
 Alpha virt. eigenvalues --    2.14703   2.15182   2.16084   2.17279   2.18205
 Alpha virt. eigenvalues --    2.18664   2.19310   2.19823   2.20174   2.21543
 Alpha virt. eigenvalues --    2.22356   2.22447   2.22946   2.23770   2.24093
 Alpha virt. eigenvalues --    2.24911   2.25787   2.26274   2.26492   2.27700
 Alpha virt. eigenvalues --    2.28244   2.28351   2.29485   2.29802   2.30412
 Alpha virt. eigenvalues --    2.30711   2.31312   2.31702   2.32431   2.33156
 Alpha virt. eigenvalues --    2.33402   2.34062   2.34186   2.34591   2.34923
 Alpha virt. eigenvalues --    2.35480   2.35751   2.36412   2.36922   2.37941
 Alpha virt. eigenvalues --    2.38250   2.39143   2.39758   2.40586   2.41498
 Alpha virt. eigenvalues --    2.42401   2.42588   2.42974   2.44013   2.44153
 Alpha virt. eigenvalues --    2.44752   2.45031   2.45811   2.46072   2.46895
 Alpha virt. eigenvalues --    2.47776   2.48860   2.50106   2.51231   2.52107
 Alpha virt. eigenvalues --    2.52812   2.54181   2.54664   2.56692   2.56998
 Alpha virt. eigenvalues --    2.58158   2.58691   2.58860   2.59452   2.60623
 Alpha virt. eigenvalues --    2.61409   2.62538   2.62939   2.63132   2.64088
 Alpha virt. eigenvalues --    2.64676   2.65489   2.65850   2.66127   2.66367
 Alpha virt. eigenvalues --    2.67517   2.68392   2.68967   2.69832   2.70327
 Alpha virt. eigenvalues --    2.70787   2.71671   2.71716   2.71962   2.72685
 Alpha virt. eigenvalues --    2.73009   2.74744   2.75736   2.76338   2.76867
 Alpha virt. eigenvalues --    2.77373   2.78463   2.79380   2.79825   2.79928
 Alpha virt. eigenvalues --    2.80154   2.80490   2.80788   2.81584   2.81689
 Alpha virt. eigenvalues --    2.82313   2.82687   2.83203   2.84282   2.85151
 Alpha virt. eigenvalues --    2.85350   2.86102   2.86445   2.87083   2.87242
 Alpha virt. eigenvalues --    2.88305   2.88510   2.89813   2.93076   2.94346
 Alpha virt. eigenvalues --    2.94696   2.97513   2.98588   2.98932   2.99526
 Alpha virt. eigenvalues --    3.00450   3.02079   3.02967   3.05761   3.05936
 Alpha virt. eigenvalues --    3.08675   3.09759   3.10419   3.13419   3.15038
 Alpha virt. eigenvalues --    3.15469   3.16279   3.16928   3.18719   3.22140
 Alpha virt. eigenvalues --    3.22705   3.22886   3.23812   3.24004   3.27290
 Alpha virt. eigenvalues --    3.44812   3.47235   3.48403   3.49500   3.50735
 Alpha virt. eigenvalues --    3.53273   3.54528   3.56437   3.57965   3.60444
 Alpha virt. eigenvalues --    3.63693   3.70983   3.75096
          Condensed to atoms (all electrons):
 Mulliken charges:
               1
     1  N   -0.313249
     2  C    0.179350
     3  C    0.066686
     4  N   -0.259649
     5  C    0.136668
     6  H    0.026782
     7  N   -0.288049
     8  C    0.139391
     9  H    0.011649
    10  N   -0.287021
    11  C    0.242662
    12  C    0.099287
    13  N   -0.053145
    14  H    0.109573
    15  H    0.084394
    16  H    0.026676
    17  H    0.030274
    18  H    0.026173
    19  N   -0.288135
    20  C    0.226793
    21  C    0.180985
    22  N   -0.100880
    23  H    0.112692
    24  H    0.112932
    25  N   -0.300089
    26  C    0.214839
    27  N   -0.144722
    28  H    0.126192
    29  C    0.175996
    30  O   -0.323562
    31  C   -0.002404
    32  N   -0.222389
    33  C    0.126608
    34  H    0.016064
    35  H    0.026264
    36  H    0.026434
    37  H    0.021577
    38  H    0.060959
    39  H    0.058612
    40  H    0.070143
    41  H    0.026725
    42  C   -0.111127
    43  O   -0.267379
    44  C    0.170156
    45  H    0.131394
    46  N   -0.119875
    47  O   -0.335910
    48  C    0.333147
    49  H    0.046673
    50  C    0.170206
    51  C    0.035518
    52  N   -0.279665
    53  H    0.036046
    54  H    0.036411
    55  H    0.026624
    56  H    0.125283
    57  H    0.117853
    58  N   -0.059556
    59  C    0.093640
    60  C    0.238660
    61  N   -0.272154
    62  H    0.050192
    63  C    0.143654
    64  N   -0.298252
    65  H    0.037731
    66  C    0.115747
    67  N   -0.255831
    68  C    0.026364
    69  C    0.181718
    70  N   -0.297355
 Sum of Mulliken charges =  -0.00000
 Mulliken charges with hydrogens summed into heavy atoms:
               1
     1  N   -0.313249
     2  C    0.262473
     3  C    0.066686
     4  N   -0.259649
     5  C    0.163450
     7  N   -0.288049
     8  C    0.151040
    10  N   -0.287021
    11  C    0.242662
    12  C    0.099287
    13  N    0.140823
    19  N   -0.288135
    20  C    0.226793
    21  C    0.255260
    22  N    0.124743
    25  N   -0.300089
    26  C    0.214839
    27  N   -0.018530
    29  C    0.175996
    30  O   -0.323562
    31  C   -0.002404
    32  N   -0.222389
    33  C    0.142672
    42  C   -0.084402
    43  O   -0.267379
    44  C    0.170156
    46  N    0.011518
    47  O   -0.335910
    48  C    0.333147
    50  C    0.216878
    51  C    0.225232
    52  N   -0.279665
    58  N    0.183580
    59  C    0.093640
    60  C    0.238660
    61  N   -0.272154
    63  C    0.193846
    64  N   -0.298252
    66  C    0.153478
    67  N   -0.255831
    68  C    0.026364
    69  C    0.280798
    70  N   -0.297355
 Electronic spatial extent (au):  <R**2>=          21800.0413
 Charge=             -0.0000 electrons
 Dipole moment (field-independent basis, Debye):
    X=             -7.0824    Y=              6.4025    Z=             -3.2631  Tot=             10.0896
 Quadrupole moment (field-independent basis, Debye-Ang):
   XX=           -149.1347   YY=           -224.8099   ZZ=           -257.0650
   XY=             -5.7023   XZ=              0.4900   YZ=             10.8586
 Traceless Quadrupole moment (field-independent basis, Debye-Ang):
   XX=             61.2018   YY=            -14.4734   ZZ=            -46.7284
   XY=             -5.7023   XZ=              0.4900   YZ=             10.8586
 Octapole moment (field-independent basis, Debye-Ang**2):
  XXX=             76.0154  YYY=            107.3795  ZZZ=             -5.9092  XYY=            -77.2930
  XXY=             46.8065  XXZ=             18.1603  XZZ=            -39.0160  YZZ=             31.6487
  YYZ=            -64.1457  XYZ=             47.9123
 Hexadecapole moment (field-independent basis, Debye-Ang**3):
 XXXX=         -15276.0632 YYYY=          -5002.8704 ZZZZ=          -3578.3072 XXXY=           -551.2108
 XXXZ=           -157.5312 YYYX=            -15.9822 YYYZ=            102.7248 ZZZX=             -2.5283
 ZZZY=             13.3761 XXYY=          -3508.3196 XXZZ=          -3822.8396 YYZZ=          -1502.8806
 XXYZ=            -62.7064 YYXZ=            193.2500 ZZXY=            -43.0025
 N-N= 5.574364078746D+03 E-N=-1.592949287789D+04  KE= 2.037779032161D+03
 No NMR shielding tensors so no spin-rotation constants.
 Leave Link  601 at Mon Jan 22 00:48:47 2018, MaxMem=  4294967296 cpu:              47.9 elap:               1.7
 (Enter /share/apps/g16/l9999.exe)
 1\1\GINC-COMPUTE-0-3\SP\RwB97XD\CC-pVDZ\C23H27N17O3\SATYA\22-Jan-2018\
 0\\#p wb97xd/cc-pvdz sp scf=(maxcycles=20)\\Base pair stacking\\0,1\N,
 0,3.8085,3.57395,-7.03488\C,0,4.51229,4.87016,-7.085\C,0,2.26534,2.021
 7,-6.81919\N,0,3.44194,1.35798,-7.13514\C,0,4.32454,2.31971,-7.25243\H
 ,0,5.37614,2.16953,-7.49848\N,0,0.01696,2.48886,-6.28115\C,0,0.37094,3
 .77787,-6.25412\H,0,-0.4315,4.47561,-6.01855\N,0,1.56175,4.33178,-6.47
 336\C,0,2.47565,3.3881,-6.75388\C,0,0.95939,1.56393,-6.56647\N,0,0.607
 98,0.27672,-6.59393\H,0,1.27271,-0.44206,-6.80062\H,0,-0.33119,-0.0129
 ,-6.40894\H,0,4.8971,5.00698,-7.9979\H,0,3.86898,5.60765,-6.88154\H,0,
 5.2498,4.87771,-6.40972\N,0,1.31915,4.67165,-3.27259\C,0,0.31877,3.736
 63,-3.15846\C,0,1.1244,6.13545,-3.26526\N,0,-3.04731,2.96216,-2.79585\
 H,0,-3.61198,2.14004,-2.72876\H,0,-3.5207,3.84242,-2.7538\N,0,-0.99959
 ,3.99595,-3.02153\C,0,-1.71507,2.88853,-2.93593\N,0,-1.18218,1.62302,-
 2.98078\H,0,-1.80537,0.83354,-2.9078\C,0,0.17128,1.33262,-3.12113\O,0,
 0.54854,0.15467,-3.15033\C,0,0.9526,2.51233,-3.21434\N,0,2.32333,2.675
 44,-3.36062\C,0,2.49372,3.96938,-3.39033\H,0,3.45858,4.46637,-3.49675\
 H,0,1.45761,6.52202,-4.12453\H,0,0.15158,6.33963,-3.16434\H,0,1.62906,
 6.5367,-2.50163\H,0,-5.49049,-2.66203,-3.13923\H,0,-5.12495,-2.85966,-
 1.42693\H,0,-4.93198,-1.28239,-2.19266\H,0,-1.48534,-5.31544,-3.3939\C
 ,0,-1.78003,-4.2819,-3.2117\O,0,0.39389,-3.40468,-3.57454\C,0,-0.79598
 ,-3.24689,-3.30232\H,0,-0.60813,-1.21824,-3.10829\N,0,-1.274,-1.9761,-
 3.05361\O,0,-2.89051,-0.46793,-2.53446\C,0,-2.56226,-1.62358,-2.73791\
 H,0,-3.83057,-4.71907,-2.82442\C,0,-3.04465,-3.96935,-2.90567\C,0,-4.8
 4129,-2.34897,-2.33512\N,0,-3.45263,-2.67703,-2.66942\H,0,-7.60349,0.8
 3605,-4.91027\H,0,-6.33193,1.48115,-4.11712\H,0,-7.2472,0.33704,-3.397
 83\H,0,-1.38985,-2.8076,-6.69354\H,0,-2.91083,-3.57271,-6.58709\N,0,-2
 .35738,-2.75096,-6.44693\C,0,-2.88704,-1.62993,-5.95305\C,0,-4.64199,-
 0.27281,-5.09276\N,0,-3.87476,0.81543,-4.91522\H,0,-1.92918,1.40287,-5
 .1802\C,0,-2.62145,0.56943,-5.2915\N,0,-2.089,-0.55269,-5.7864\H,0,-7.
 3296,-2.06926,-5.05101\C,0,-6.31372,-1.69001,-5.16549\N,0,-5.30641,-2.
 38659,-5.63216\C,0,-4.24025,-1.4998,-5.59138\C,0,-6.86158,0.6468,-4.26
 704\N,0,-5.98308,-0.4025,-4.81949\\Version=EM64L-G16RevA.03\State=1-A\
 HF=-2048.7484642\RMSD=7.188e-09\Dipole=-3.9530158,0.3105419,0.1856316\
 Quadrupole=18.1867548,5.5675045,-23.7542592,30.5605031,-19.4124835,2.4
 656596\PG=C01 [X(C23H27N17O3)]\\@


 IMAGINATION WILL OFTEN CARRY US TO WORLDS THAT NEVER WERE.
 BUT WITHOUT IT, WE GO NOWHERE. -- CARL SAGAN (COSMOS)
 Job cpu time:       0 days  6 hours 12 minutes 50.3 seconds.
 Elapsed time:       0 days  0 hours 12 minutes  2.2 seconds.
 File lengths (MBytes):  RWF=    298 Int=      0 D2E=      0 Chk=     33 Scr=      1
 Normal termination of Gaussian 16 at Mon Jan 22 00:48:47 2018.
