 Entering Gaussian System, Link 0=g16
 Input=str35.15.2.5.com
 Output=str35.15.2.5.log
 Initial command:
 /share/apps/g16/l1.exe "/state/partition1/scr/Gau-5046.inp" -scrdir="/state/partition1/scr/"
 Entering Link 1 = /share/apps/g16/l1.exe PID=      5047.
  
 Copyright (c) 1988,1990,1992,1993,1995,1998,2003,2009,2016,
            Gaussian, Inc.  All Rights Reserved.
  
 This is part of the Gaussian(R) 16 program.  It is based on
 the Gaussian(R) 09 system (copyright 2009, Gaussian, Inc.),
 the Gaussian(R) 03 system (copyright 2003, Gaussian, Inc.),
 the Gaussian(R) 98 system (copyright 1998, Gaussian, Inc.),
 the Gaussian(R) 94 system (copyright 1995, Gaussian, Inc.),
 the Gaussian 92(TM) system (copyright 1992, Gaussian, Inc.),
 the Gaussian 90(TM) system (copyright 1990, Gaussian, Inc.),
 the Gaussian 88(TM) system (copyright 1988, Gaussian, Inc.),
 the Gaussian 86(TM) system (copyright 1986, Carnegie Mellon
 University), and the Gaussian 82(TM) system (copyright 1983,
 Carnegie Mellon University). Gaussian is a federally registered
 trademark of Gaussian, Inc.
  
 This software contains proprietary and confidential information,
 including trade secrets, belonging to Gaussian, Inc.
  
 This software is provided under written license and may be
 used, copied, transmitted, or stored only in accord with that
 written license.
  
 The following legend is applicable only to US Government
 contracts under FAR:
  
                    RESTRICTED RIGHTS LEGEND
  
 Use, reproduction and disclosure by the US Government is
 subject to restrictions as set forth in subparagraphs (a)
 and (c) of the Commercial Computer Software - Restricted
 Rights clause in FAR 52.227-19.
  
 Gaussian, Inc.
 340 Quinnipiac St., Bldg. 40, Wallingford CT 06492
  
  
 ---------------------------------------------------------------
 Warning -- This program may not be used in any manner that
 competes with the business of Gaussian, Inc. or will provide
 assistance to any competitor of Gaussian, Inc.  The licensee
 of this program is prohibited from giving any competitor of
 Gaussian, Inc. access to this program.  By using this program,
 the user acknowledges that Gaussian, Inc. is engaged in the
 business of creating and licensing software in the field of
 computational chemistry and represents and warrants to the
 licensee that it is not a competitor of Gaussian, Inc. and that
 it will not use this program in any manner prohibited above.
 ---------------------------------------------------------------
  

 Cite this work as:
 Gaussian 16, Revision A.03,
 M. J. Frisch, G. W. Trucks, H. B. Schlegel, G. E. Scuseria, 
 M. A. Robb, J. R. Cheeseman, G. Scalmani, V. Barone, 
 G. A. Petersson, H. Nakatsuji, X. Li, M. Caricato, A. V. Marenich, 
 J. Bloino, B. G. Janesko, R. Gomperts, B. Mennucci, H. P. Hratchian, 
 J. V. Ortiz, A. F. Izmaylov, J. L. Sonnenberg, D. Williams-Young, 
 F. Ding, F. Lipparini, F. Egidi, J. Goings, B. Peng, A. Petrone, 
 T. Henderson, D. Ranasinghe, V. G. Zakrzewski, J. Gao, N. Rega, 
 G. Zheng, W. Liang, M. Hada, M. Ehara, K. Toyota, R. Fukuda, 
 J. Hasegawa, M. Ishida, T. Nakajima, Y. Honda, O. Kitao, H. Nakai, 
 T. Vreven, K. Throssell, J. A. Montgomery, Jr., J. E. Peralta, 
 F. Ogliaro, M. J. Bearpark, J. J. Heyd, E. N. Brothers, K. N. Kudin, 
 V. N. Staroverov, T. A. Keith, R. Kobayashi, J. Normand, 
 K. Raghavachari, A. P. Rendell, J. C. Burant, S. S. Iyengar, 
 J. Tomasi, M. Cossi, J. M. Millam, M. Klene, C. Adamo, R. Cammi, 
 J. W. Ochterski, R. L. Martin, K. Morokuma, O. Farkas, 
 J. B. Foresman, and D. J. Fox, Gaussian, Inc., Wallingford CT, 2016.
 
 ******************************************
 Gaussian 16:  EM64L-G16RevA.03 25-Dec-2016
                22-Jan-2018 
 ******************************************
 %nprocshared=32
 Will use up to   32 processors via shared memory.
 %mem=32GB
 %chk=allatoms_t.chk
 ---------------------------------------
 #p wb97xd/cc-pvdz sp scf=(maxcycles=20)
 ---------------------------------------
 1/38=1,172=1/1;
 2/12=2,17=6,18=5,40=1/2;
 3/5=16,11=2,25=1,30=1,74=-58/1,2,3;
 4//1;
 5/5=2,7=20,38=5/2;
 6/7=2,8=2,9=2,10=2,28=1/1;
 99/5=1,9=1/99;
 Leave Link    1 at Mon Jan 22 09:01:49 2018, MaxMem=  4294967296 cpu:               2.7 elap:               0.1
 (Enter /share/apps/g16/l101.exe)
 ------------------
 Base pair stacking
 ------------------
 Symbolic Z-matrix:
 Charge =  0 Multiplicity = 1
 N                     3.66841  -1.1624   -5.72711 
 C                     4.46299   0.0715   -5.88249 
 C                     2.06519  -2.66381  -5.84014 
 N                     3.0885   -3.24341  -5.10418 
 C                     4.01342  -2.31567  -5.06554 
 H                     4.97576  -2.42013  -4.5636 
 N                     0.02339  -2.30413  -6.96469 
 C                     0.4917   -1.08884  -7.26694 
 H                    -0.17979  -0.46478  -7.85508 
 N                     1.65945  -0.53132  -6.95321 
 C                     2.40814  -1.38117  -6.23096 
 C                     0.80066  -3.13551  -6.23685 
 N                     0.33494  -4.34903  -5.93415 
 H                     0.87601  -4.9974   -5.39742 
 H                    -0.57019  -4.65129  -6.23337 
 H                     5.31904  -0.13894  -6.35479 
 H                     3.94387   0.73807  -6.41665 
 H                     4.66683   0.45482  -4.98166 
 N                     1.31975   2.29081  -3.29777 
 C                     0.32756   1.35511  -3.46532 
 C                     1.17713   3.7398   -3.5443 
 N                    -2.93811   0.55717  -4.33734 
 H                    -3.5072   -0.26272  -4.39365 
 H                    -3.36701   1.4253   -4.58854 
 N                    -0.93419   1.60021  -3.87998 
 C                    -1.65728   0.49621  -3.94279 
 N                    -1.18291  -0.75321  -3.62432 
 H                    -1.80735  -1.54127  -3.70179 
 C                     0.1117   -1.02881  -3.19547 
 O                     0.43888  -2.19284  -2.93335 
 C                     0.90042   0.14744  -3.12303 
 N                     2.22559   0.32146  -2.74813 
 C                     2.42942   1.6054   -2.86708 
 H                     3.37394   2.10666  -2.65286 
 H                     1.82604   4.0252   -4.24876 
 H                     0.24646   3.93338  -3.85195 
 H                     1.35936   4.24275  -2.70012 
 H                    -5.21252  -5.119    -4.90897 
 H                    -5.5404   -5.09685  -3.17789 
 H                    -5.02447  -3.62164  -3.99578 
 H                    -1.49226  -7.69488  -3.27463 
 C                    -1.80614  -6.65352  -3.3474 
 O                     0.36277  -5.77988  -2.94778 
 C                    -0.83536  -5.61607  -3.17681 
 H                    -0.68162  -3.57532  -3.17381 
 N                    -1.33752  -4.33519  -3.28832 
 O                    -2.98755  -2.81061  -3.62035 
 C                    -2.63784  -3.97499  -3.53922 
 H                    -3.85868  -7.08483  -3.73065 
 C                    -3.08203  -6.33366  -3.59316 
 C                    -4.91497  -4.6954   -3.9613 
 N                    -3.51419  -5.03139  -3.69168 
 H                    -7.13772  -4.18435  -9.76925 
 H                    -6.47442  -3.11055  -8.73529 
 H                    -7.80073  -3.95429  -8.29585 
 H                    -1.68895  -7.4178   -5.90645 
 H                    -3.08939  -8.25442  -6.40539 
 N                    -2.59866  -7.38653  -6.32069 
 C                    -3.13448  -6.23903  -6.74176 
 C                    -4.82807  -4.88148  -7.71673 
 N                    -4.14601  -3.73117  -7.59023 
 H                    -2.34104  -3.06674  -6.88225 
 C                    -2.96161  -3.9507   -7.02286 
 N                    -2.42313  -5.09925  -6.60043 
 H                    -7.28725  -6.82073  -8.51916 
 C                    -6.34731  -6.39861  -8.16241 
 N                    -5.37808  -7.09238  -7.61748 
 C                    -4.40858  -6.1425   -7.33021 
 C                    -6.94239  -3.99082  -8.8078 
 N                    -6.08177  -5.05404  -8.2538 
 
 ITRead=  0  0  0  0  0  0  0  0  0  0  0  0  0  0  0  0  0  0  0  0
 ITRead=  0  0  0  0  0  0  0  0  0  0  0  0  0  0  0  0  0  0  0  0
 ITRead=  0  0  0  0  0  0  0  0  0  0  0  0  0  0  0  0  0  0  0  0
 ITRead=  0  0  0  0  0  0  0  0  0  0
 MicOpt= -1 -1 -1 -1 -1 -1 -1 -1 -1 -1 -1 -1 -1 -1 -1 -1 -1 -1 -1 -1
 MicOpt= -1 -1 -1 -1 -1 -1 -1 -1 -1 -1 -1 -1 -1 -1 -1 -1 -1 -1 -1 -1
 MicOpt= -1 -1 -1 -1 -1 -1 -1 -1 -1 -1 -1 -1 -1 -1 -1 -1 -1 -1 -1 -1
 MicOpt= -1 -1 -1 -1 -1 -1 -1 -1 -1 -1
 NAtoms=     70 NQM=       70 NQMF=       0 NMMI=      0 NMMIF=      0
                NMic=       0 NMicF=      0.
                    Isotopes and Nuclear Properties:
 (Nuclear quadrupole moments (NQMom) in fm**2, nuclear magnetic moments (NMagM)
  in nuclear magnetons)

  Atom         1           2           3           4           5           6           7           8           9          10
 IAtWgt=          14          12          12          14          12           1          14          12           1          14
 AtmWgt=  14.0030740  12.0000000  12.0000000  14.0030740  12.0000000   1.0078250  14.0030740  12.0000000   1.0078250  14.0030740
 NucSpn=           2           0           0           2           0           1           2           0           1           2
 AtZEff=  -0.0000000  -0.0000000  -0.0000000  -0.0000000  -0.0000000  -0.0000000  -0.0000000  -0.0000000  -0.0000000  -0.0000000
 NQMom=    2.0440000   0.0000000   0.0000000   2.0440000   0.0000000   0.0000000   2.0440000   0.0000000   0.0000000   2.0440000
 NMagM=    0.4037610   0.0000000   0.0000000   0.4037610   0.0000000   2.7928460   0.4037610   0.0000000   2.7928460   0.4037610
 AtZNuc=   7.0000000   6.0000000   6.0000000   7.0000000   6.0000000   1.0000000   7.0000000   6.0000000   1.0000000   7.0000000

  Atom        11          12          13          14          15          16          17          18          19          20
 IAtWgt=          12          12          14           1           1           1           1           1          14          12
 AtmWgt=  12.0000000  12.0000000  14.0030740   1.0078250   1.0078250   1.0078250   1.0078250   1.0078250  14.0030740  12.0000000
 NucSpn=           0           0           2           1           1           1           1           1           2           0
 AtZEff=  -0.0000000  -0.0000000  -0.0000000  -0.0000000  -0.0000000  -0.0000000  -0.0000000  -0.0000000  -0.0000000  -0.0000000
 NQMom=    0.0000000   0.0000000   2.0440000   0.0000000   0.0000000   0.0000000   0.0000000   0.0000000   2.0440000   0.0000000
 NMagM=    0.0000000   0.0000000   0.4037610   2.7928460   2.7928460   2.7928460   2.7928460   2.7928460   0.4037610   0.0000000
 AtZNuc=   6.0000000   6.0000000   7.0000000   1.0000000   1.0000000   1.0000000   1.0000000   1.0000000   7.0000000   6.0000000

  Atom        21          22          23          24          25          26          27          28          29          30
 IAtWgt=          12          14           1           1          14          12          14           1          12          16
 AtmWgt=  12.0000000  14.0030740   1.0078250   1.0078250  14.0030740  12.0000000  14.0030740   1.0078250  12.0000000  15.9949146
 NucSpn=           0           2           1           1           2           0           2           1           0           0
 AtZEff=  -0.0000000  -0.0000000  -0.0000000  -0.0000000  -0.0000000  -0.0000000  -0.0000000  -0.0000000  -0.0000000  -0.0000000
 NQMom=    0.0000000   2.0440000   0.0000000   0.0000000   2.0440000   0.0000000   2.0440000   0.0000000   0.0000000   0.0000000
 NMagM=    0.0000000   0.4037610   2.7928460   2.7928460   0.4037610   0.0000000   0.4037610   2.7928460   0.0000000   0.0000000
 AtZNuc=   6.0000000   7.0000000   1.0000000   1.0000000   7.0000000   6.0000000   7.0000000   1.0000000   6.0000000   8.0000000

  Atom        31          32          33          34          35          36          37          38          39          40
 IAtWgt=          12          14          12           1           1           1           1           1           1           1
 AtmWgt=  12.0000000  14.0030740  12.0000000   1.0078250   1.0078250   1.0078250   1.0078250   1.0078250   1.0078250   1.0078250
 NucSpn=           0           2           0           1           1           1           1           1           1           1
 AtZEff=  -0.0000000  -0.0000000  -0.0000000  -0.0000000  -0.0000000  -0.0000000  -0.0000000  -0.0000000  -0.0000000  -0.0000000
 NQMom=    0.0000000   2.0440000   0.0000000   0.0000000   0.0000000   0.0000000   0.0000000   0.0000000   0.0000000   0.0000000
 NMagM=    0.0000000   0.4037610   0.0000000   2.7928460   2.7928460   2.7928460   2.7928460   2.7928460   2.7928460   2.7928460
 AtZNuc=   6.0000000   7.0000000   6.0000000   1.0000000   1.0000000   1.0000000   1.0000000   1.0000000   1.0000000   1.0000000

  Atom        41          42          43          44          45          46          47          48          49          50
 IAtWgt=           1          12          16          12           1          14          16          12           1          12
 AtmWgt=   1.0078250  12.0000000  15.9949146  12.0000000   1.0078250  14.0030740  15.9949146  12.0000000   1.0078250  12.0000000
 NucSpn=           1           0           0           0           1           2           0           0           1           0
 AtZEff=  -0.0000000  -0.0000000  -0.0000000  -0.0000000  -0.0000000  -0.0000000  -0.0000000  -0.0000000  -0.0000000  -0.0000000
 NQMom=    0.0000000   0.0000000   0.0000000   0.0000000   0.0000000   2.0440000   0.0000000   0.0000000   0.0000000   0.0000000
 NMagM=    2.7928460   0.0000000   0.0000000   0.0000000   2.7928460   0.4037610   0.0000000   0.0000000   2.7928460   0.0000000
 AtZNuc=   1.0000000   6.0000000   8.0000000   6.0000000   1.0000000   7.0000000   8.0000000   6.0000000   1.0000000   6.0000000

  Atom        51          52          53          54          55          56          57          58          59          60
 IAtWgt=          12          14           1           1           1           1           1          14          12          12
 AtmWgt=  12.0000000  14.0030740   1.0078250   1.0078250   1.0078250   1.0078250   1.0078250  14.0030740  12.0000000  12.0000000
 NucSpn=           0           2           1           1           1           1           1           2           0           0
 AtZEff=  -0.0000000  -0.0000000  -0.0000000  -0.0000000  -0.0000000  -0.0000000  -0.0000000  -0.0000000  -0.0000000  -0.0000000
 NQMom=    0.0000000   2.0440000   0.0000000   0.0000000   0.0000000   0.0000000   0.0000000   2.0440000   0.0000000   0.0000000
 NMagM=    0.0000000   0.4037610   2.7928460   2.7928460   2.7928460   2.7928460   2.7928460   0.4037610   0.0000000   0.0000000
 AtZNuc=   6.0000000   7.0000000   1.0000000   1.0000000   1.0000000   1.0000000   1.0000000   7.0000000   6.0000000   6.0000000

  Atom        61          62          63          64          65          66          67          68          69          70
 IAtWgt=          14           1          12          14           1          12          14          12          12          14
 AtmWgt=  14.0030740   1.0078250  12.0000000  14.0030740   1.0078250  12.0000000  14.0030740  12.0000000  12.0000000  14.0030740
 NucSpn=           2           1           0           2           1           0           2           0           0           2
 AtZEff=  -0.0000000  -0.0000000  -0.0000000  -0.0000000  -0.0000000  -0.0000000  -0.0000000  -0.0000000  -0.0000000  -0.0000000
 NQMom=    2.0440000   0.0000000   0.0000000   2.0440000   0.0000000   0.0000000   2.0440000   0.0000000   0.0000000   2.0440000
 NMagM=    0.4037610   2.7928460   0.0000000   0.4037610   2.7928460   0.0000000   0.4037610   0.0000000   0.0000000   0.4037610
 AtZNuc=   7.0000000   1.0000000   6.0000000   7.0000000   1.0000000   6.0000000   7.0000000   6.0000000   6.0000000   7.0000000
 Leave Link  101 at Mon Jan 22 09:01:49 2018, MaxMem=  4294967296 cpu:               7.7 elap:               0.3
 (Enter /share/apps/g16/l202.exe)
 Stoichiometry    C23H27N17O3
 Framework group  C1[X(C23H27N17O3)]
 Deg. of freedom   204
 Full point group                 C1      NOp   1
 Largest Abelian subgroup         C1      NOp   1
 Largest concise Abelian subgroup C1      NOp   1
                         Standard orientation:                         
 ---------------------------------------------------------------------
 Center     Atomic      Atomic             Coordinates (Angstroms)
 Number     Number       Type             X           Y           Z
 ---------------------------------------------------------------------
      1          7           0        4.236972   -2.025325   -1.826874
      2          6           0        5.573823   -1.652376   -2.328619
      3          6           0        2.085750   -2.034454   -1.369179
      4          7           0        2.608918   -3.185494   -0.798094
      5          6           0        3.884006   -3.133924   -1.096694
      6          1           0        4.619503   -3.884949   -0.806936
      7          7           0        0.601535   -0.337160   -2.061442
      8          6           0        1.659164    0.249775   -2.631114
      9          1           0        1.450558    1.188422   -3.142666
     10          7           0        2.929814   -0.146824   -2.663580
     11          6           0        3.077273   -1.309260   -2.006750
     12          6           0        0.782757   -1.505672   -1.408120
     13          7           0       -0.271763   -2.093085   -0.838835
     14          1           0       -0.184090   -2.958886   -0.344950
     15          1           0       -1.184872   -1.687982   -0.886557
     16          1           0        5.912931   -2.366940   -2.940647
     17          1           0        5.514302   -0.788223   -2.827442
     18          1           0        6.203885   -1.548379   -1.559083
     19          7           0        5.508790    1.995778    0.530195
     20          6           0        4.147941    1.989566    0.720195
     21          6           0        6.307262    3.166097    0.113679
     22          7           0        1.101343    3.656831    0.705997
     23          1           0        0.143016    3.443801    0.894360
     24          1           0        1.312002    4.595419    0.431439
     25          7           0        3.318246    3.043059    0.559601
     26          6           0        2.061513    2.726345    0.816376
     27          7           0        1.646934    1.474308    1.201120
     28          1           0        0.665440    1.323083    1.376521
     29          6           0        2.483097    0.375541    1.372658
     30          8           0        2.007387   -0.711591    1.722749
     31          6           0        3.836348    0.700325    1.100414
     32          7           0        4.978597   -0.087010    1.148159
     33          6           0        5.943517    0.721742    0.803129
     34          1           0        6.994475    0.439577    0.731429
     35          1           0        6.770349    2.965792   -0.749008
     36          1           0        5.703309    3.952618   -0.008359
     37          1           0        6.986978    3.374956    0.815939
     38          1           0       -4.411423    1.060289    1.471491
     39          1           0       -4.180061    1.224087    3.210536
     40          1           0       -3.049491    1.991684    2.095197
     41          1           0       -3.089414   -3.423174    2.610531
     42          6           0       -2.636961   -2.443235    2.458043
     43          8           0       -0.431665   -3.290680    2.244461
     44          6           0       -1.222787   -2.347993    2.260922
     45          1           0        0.241003   -0.955369    1.935002
     46          7           0       -0.753409   -1.062976    2.077434
     47          8           0       -0.984637    1.188877    1.896103
     48          6           0       -1.491477    0.094031    2.066649
     49          1           0       -4.462648   -1.350946    2.598050
     50          6           0       -3.383347   -1.332612    2.452730
     51          6           0       -3.676764    1.128251    2.259976
     52          7           0       -2.847290   -0.079942    2.263423
     53          1           0       -6.396105    3.261767   -2.934960
     54          1           0       -4.950756    3.554898   -2.237017
     55          1           0       -6.328362    3.816520   -1.401638
     56          1           0       -3.722653   -2.972746    0.073198
     57          1           0       -5.389723   -2.615058    0.018024
     58          7           0       -4.447184   -2.314897   -0.132800
     59          6           0       -4.169885   -1.091512   -0.588423
     60          6           0       -4.708520    1.095150   -1.356627
     61          7           0       -3.433391    1.470910   -1.549686
     62          1           0       -1.542834    0.703504   -1.356034
     63          6           0       -2.601588    0.482035   -1.228540
     64          7           0       -2.877367   -0.743983   -0.772032
     65          1           0       -7.929070    1.375185   -1.314341
     66          6           0       -6.897095    1.031910   -1.236026
     67          7           0       -6.536991   -0.157944   -0.821004
     68          6           0       -5.151752   -0.131117   -0.892561
     69          6           0       -5.882397    3.229692   -2.077599
     70          7           0       -5.841497    1.842093   -1.576684
 ---------------------------------------------------------------------
 Rotational constants (GHZ):           0.1393545           0.0511416           0.0483719
 Leave Link  202 at Mon Jan 22 09:01:49 2018, MaxMem=  4294967296 cpu:               0.3 elap:               0.0
 (Enter /share/apps/g16/l301.exe)
 Standard basis: CC-pVDZ (5D, 7F)
 Ernie: Thresh=  0.10000D-02 Tol=  0.10000D-05 Strict=F.
 Ernie:  86 primitive shells out of 1081 were deleted.
 There are   780 symmetry adapted cartesian basis functions of A   symmetry.
 There are   737 symmetry adapted basis functions of A   symmetry.
   737 basis functions,  1608 primitive gaussians,   780 cartesian basis functions
   154 alpha electrons      154 beta electrons
       nuclear repulsion energy      5424.8896794094 Hartrees.
 IExCor= 4639 DFT=T Ex+Corr=wB97XD ExCW=0 ScaHFX=  1.000000
 ScaDFX=  1.000000  1.000000  1.000000  1.000000 ScalE2=  1.000000  1.000000
 IRadAn=      5 IRanWt=     -1 IRanGd=            0 ICorTp=0 IEmpDi=121
 HFx  wShort=  0.000000 wLong=  0.200000 cFull=  0.222036 cShort=  0.000000 cLong=  0.777964
 DFx  wShort=  0.000000 wLong=  0.200000 cFull=  0.000000 cShort=  0.000000 cLong=  1.000000
 NAtoms=   70 NActive=   70 NUniq=   70 SFac= 1.00D+00 NAtFMM=   60 NAOKFM=T Big=T
 Integral buffers will be    131072 words long.
 Raffenetti 2 integral format.
 Two-electron integral symmetry is turned on.
 R6Disp:  Grimme-D2 Dispersion energy=       -0.0670643829 Hartrees.
 Nuclear repulsion after empirical dispersion term =     5424.8226150265 Hartrees.
 Leave Link  301 at Mon Jan 22 09:01:49 2018, MaxMem=  4294967296 cpu:               2.2 elap:               0.1
 (Enter /share/apps/g16/l302.exe)
 NPDir=0 NMtPBC=     1 NCelOv=     1 NCel=       1 NClECP=     1 NCelD=      1
         NCelK=      1 NCelE2=     1 NClLst=     1 CellRange=     0.0.
 One-electron integrals computed using PRISM.
 One-electron integral symmetry used in STVInt
 NBasis=   737 RedAO= T EigKep=  7.13D-04  NBF=   737
 NBsUse=   737 1.00D-06 EigRej= -1.00D+00 NBFU=   737
 Precomputing XC quadrature grid using
 IXCGrd= 4 IRadAn=           5 IRanWt=          -1 IRanGd=           0 AccXCQ= 0.00D+00.
 Generated NRdTot=       0 NPtTot=           0 NUsed=           0 NTot=          32
 NSgBfM=   761   760   761   761   761 MxSgAt=    70 MxSgA2=    70.
 Leave Link  302 at Mon Jan 22 09:01:53 2018, MaxMem=  4294967296 cpu:             133.6 elap:               4.2
 (Enter /share/apps/g16/l303.exe)
 DipDrv:  MaxL=1.
 Leave Link  303 at Mon Jan 22 09:01:54 2018, MaxMem=  4294967296 cpu:              12.4 elap:               0.4
 (Enter /share/apps/g16/l401.exe)
 ExpMin= 1.22D-01 ExpMax= 1.17D+04 ExpMxC= 4.01D+02 IAcc=3 IRadAn=         5 AccDes= 0.00D+00
 Harris functional with IExCor= 4639 and IRadAn=       5 diagonalized for initial guess.
 HarFok:  IExCor= 4639 AccDes= 0.00D+00 IRadAn=         5 IDoV= 1 UseB2=F ITyADJ=14
 ICtDFT=  3500011 ScaDFX=  1.000000  1.000000  1.000000  1.000000
 FoFCou: FMM=F IPFlag=           0 FMFlag=      100000 FMFlg1=        2001
         NFxFlg=           0 DoJE=T BraDBF=F KetDBF=T FulRan=T
         wScrn=  0.000000 ICntrl=       500 IOpCl=  0 I1Cent=   200000004 NGrid=           0
         NMat0=    1 NMatS0=      1 NMatT0=    0 NMatD0=    1 NMtDS0=    0 NMtDT0=    0
 Petite list used in FoFCou.
 Harris En= -1963.88507837792    
 JPrj=0 DoOrth=F DoCkMO=F.
 Leave Link  401 at Mon Jan 22 09:02:06 2018, MaxMem=  4294967296 cpu:             389.9 elap:              12.2
 (Enter /share/apps/g16/l502.exe)
 Integral symmetry usage will be decided dynamically.
 Closed shell SCF:
 Using DIIS extrapolation, IDIIS=  1040.
 NGot=  4294967296 LenX=  4293717438 LenY=  4293108258
 Requested convergence on RMS density matrix=1.00D-08 within  20 cycles.
 Requested convergence on MAX density matrix=1.00D-06.
 Requested convergence on             energy=1.00D-06.
 No special actions if energy rises.
 Fock matrices will be formed incrementally for  20 cycles.
 Integral accuracy reduced to 1.0D-05 until final iterations.

 Cycle   1  Pass 0  IDiag  1:
 FoFJK:  IHMeth= 1 ICntrl=       0 DoSepK=T KAlg= 0 I1Cent=           0 FoldK=F
 IRaf=         1 NMat=       1 IRICut=       1 DoRegI=T DoRafI=F ISym2E= 0 IDoP0=0 IntGTp=1.
 FoFCou: FMM=T IPFlag=           0 FMFlag=      100000 FMFlg1=        2001
         NFxFlg=           0 DoJE=T BraDBF=F KetDBF=F FulRan=T
         wScrn=  0.000000 ICntrl=       500 IOpCl=  0 I1Cent=           0 NGrid=           0
         NMat0=    1 NMatS0=      1 NMatT0=    0 NMatD0=    1 NMtDS0=    0 NMtDT0=    0
 Symmetry not used in FoFCou.
 FMM levels:  10  Number of levels for PrismC:   9
 E= -2048.31862526883    
 DIIS: error= 2.51D-02 at cycle   1 NSaved=   1.
 NSaved= 1 IEnMin= 1 EnMin= -2048.31862526883     IErMin= 1 ErrMin= 2.51D-02
 ErrMax= 2.51D-02  0.00D+00 EMaxC= 1.00D-01 BMatC= 8.28D-01 BMatP= 8.28D-01
 IDIUse=3 WtCom= 7.49D-01 WtEn= 2.51D-01
 Coeff-Com:  0.100D+01
 Coeff-En:   0.100D+01
 Coeff:      0.100D+01
 Gap=     0.267 Goal=   None    Shift=    0.000
 GapD=    0.267 DampG=1.000 DampE=0.500 DampFc=0.5000 IDamp=-1.
 Damping current iteration by 5.00D-01
 RMSDP=1.54D-03 MaxDP=1.31D-01              OVMax= 2.03D-01

 Cycle   2  Pass 0  IDiag  1:
 RMSU=  7.70D-04    CP:  9.98D-01
 E= -2048.51513491120     Delta-E=       -0.196509642375 Rises=F Damp=T
 DIIS: error= 1.40D-02 at cycle   2 NSaved=   2.
 NSaved= 2 IEnMin= 2 EnMin= -2048.51513491120     IErMin= 2 ErrMin= 1.40D-02
 ErrMax= 1.40D-02  0.00D+00 EMaxC= 1.00D-01 BMatC= 1.44D-01 BMatP= 8.28D-01
 IDIUse=3 WtCom= 8.60D-01 WtEn= 1.40D-01
 Coeff-Com: -0.208D+00 0.121D+01
 Coeff-En:   0.000D+00 0.100D+01
 Coeff:     -0.179D+00 0.118D+01
 Gap=     0.305 Goal=   None    Shift=    0.000
 RMSDP=5.77D-04 MaxDP=3.53D-02 DE=-1.97D-01 OVMax= 1.22D-01

 Cycle   3  Pass 0  IDiag  1:
 RMSU=  5.62D-04    CP:  9.94D-01  1.16D+00
 E= -2048.69418832096     Delta-E=       -0.179053409759 Rises=F Damp=F
 DIIS: error= 6.95D-03 at cycle   3 NSaved=   3.
 NSaved= 3 IEnMin= 3 EnMin= -2048.69418832096     IErMin= 3 ErrMin= 6.95D-03
 ErrMax= 6.95D-03  0.00D+00 EMaxC= 1.00D-01 BMatC= 5.95D-02 BMatP= 1.44D-01
 IDIUse=3 WtCom= 9.31D-01 WtEn= 6.95D-02
 Coeff-Com: -0.232D+00 0.546D+00 0.686D+00
 Coeff-En:   0.000D+00 0.000D+00 0.100D+01
 Coeff:     -0.215D+00 0.508D+00 0.708D+00
 Gap=     0.278 Goal=   None    Shift=    0.000
 RMSDP=3.39D-04 MaxDP=3.46D-02 DE=-1.79D-01 OVMax= 6.74D-02

 Cycle   4  Pass 0  IDiag  1:
 RMSU=  1.94D-04    CP:  9.95D-01  1.44D+00  6.80D-01
 E= -2048.73899237718     Delta-E=       -0.044804056221 Rises=F Damp=F
 DIIS: error= 2.72D-03 at cycle   4 NSaved=   4.
 NSaved= 4 IEnMin= 4 EnMin= -2048.73899237718     IErMin= 4 ErrMin= 2.72D-03
 ErrMax= 2.72D-03  0.00D+00 EMaxC= 1.00D-01 BMatC= 8.35D-03 BMatP= 5.95D-02
 IDIUse=3 WtCom= 9.73D-01 WtEn= 2.72D-02
 Coeff-Com: -0.956D-01 0.185D+00 0.376D+00 0.534D+00
 Coeff-En:   0.000D+00 0.000D+00 0.499D-01 0.950D+00
 Coeff:     -0.930D-01 0.180D+00 0.367D+00 0.546D+00
 Gap=     0.285 Goal=   None    Shift=    0.000
 RMSDP=1.20D-04 MaxDP=1.25D-02 DE=-4.48D-02 OVMax= 1.32D-02

 Cycle   5  Pass 0  IDiag  1:
 RMSU=  6.17D-05    CP:  9.94D-01  1.42D+00  8.07D-01  6.31D-01
 E= -2048.74567175004     Delta-E=       -0.006679372860 Rises=F Damp=F
 DIIS: error= 7.94D-04 at cycle   5 NSaved=   5.
 NSaved= 5 IEnMin= 5 EnMin= -2048.74567175004     IErMin= 5 ErrMin= 7.94D-04
 ErrMax= 7.94D-04  0.00D+00 EMaxC= 1.00D-01 BMatC= 2.91D-04 BMatP= 8.35D-03
 IDIUse=3 WtCom= 9.92D-01 WtEn= 7.94D-03
 Coeff-Com: -0.250D-01 0.430D-01 0.122D+00 0.244D+00 0.616D+00
 Coeff-En:   0.000D+00 0.000D+00 0.000D+00 0.000D+00 0.100D+01
 Coeff:     -0.248D-01 0.426D-01 0.121D+00 0.242D+00 0.619D+00
 Gap=     0.284 Goal=   None    Shift=    0.000
 RMSDP=2.49D-05 MaxDP=2.31D-03 DE=-6.68D-03 OVMax= 3.32D-03

 Failed to achieve initial convergence to 1.0D-08 in  6 cycles.
 Switch to full accuracy anyway.
 Cycle   6  Pass 1  IDiag  1:
 E= -2048.74588907998     Delta-E=       -0.000217329939 Rises=F Damp=F
 DIIS: error= 2.42D-04 at cycle   1 NSaved=   1.
 NSaved= 1 IEnMin= 1 EnMin= -2048.74588907998     IErMin= 1 ErrMin= 2.42D-04
 ErrMax= 2.42D-04  0.00D+00 EMaxC= 1.00D-01 BMatC= 7.28D-05 BMatP= 7.28D-05
 IDIUse=3 WtCom= 9.98D-01 WtEn= 2.42D-03
 Coeff-Com:  0.100D+01
 Coeff-En:   0.100D+01
 Coeff:      0.100D+01
 Gap=     0.285 Goal=   None    Shift=    0.000
 RMSDP=2.49D-05 MaxDP=2.31D-03 DE=-2.17D-04 OVMax= 2.09D-03

 Cycle   7  Pass 1  IDiag  1:
 RMSU=  1.12D-04    CP:  1.00D+00
 E= -2048.74594040681     Delta-E=       -0.000051326826 Rises=F Damp=F
 DIIS: error= 3.42D-04 at cycle   2 NSaved=   2.
 NSaved= 2 IEnMin= 2 EnMin= -2048.74594040681     IErMin= 1 ErrMin= 2.42D-04
 ErrMax= 3.42D-04  0.00D+00 EMaxC= 1.00D-01 BMatC= 4.77D-05 BMatP= 7.28D-05
 IDIUse=3 WtCom= 9.97D-01 WtEn= 3.42D-03
 Coeff-Com:  0.430D+00 0.570D+00
 Coeff-En:   0.668D-02 0.993D+00
 Coeff:      0.428D+00 0.572D+00
 Gap=     0.285 Goal=   None    Shift=    0.000
 RMSDP=1.10D-05 MaxDP=1.38D-03 DE=-5.13D-05 OVMax= 1.58D-03

 Cycle   8  Pass 1  IDiag  1:
 RMSU=  1.07D-05    CP:  1.00D+00  1.02D+00
 E= -2048.74597390329     Delta-E=       -0.000033496479 Rises=F Damp=F
 DIIS: error= 1.19D-04 at cycle   3 NSaved=   3.
 NSaved= 3 IEnMin= 3 EnMin= -2048.74597390329     IErMin= 3 ErrMin= 1.19D-04
 ErrMax= 1.19D-04  0.00D+00 EMaxC= 1.00D-01 BMatC= 9.76D-06 BMatP= 4.77D-05
 IDIUse=3 WtCom= 9.99D-01 WtEn= 1.19D-03
 Coeff-Com: -0.192D-01 0.298D+00 0.722D+00
 Coeff-En:   0.000D+00 0.111D+00 0.889D+00
 Coeff:     -0.192D-01 0.297D+00 0.722D+00
 Gap=     0.285 Goal=   None    Shift=    0.000
 RMSDP=5.61D-06 MaxDP=5.49D-04 DE=-3.35D-05 OVMax= 5.15D-04

 Cycle   9  Pass 1  IDiag  1:
 RMSU=  3.78D-06    CP:  1.00D+00  1.05D+00  7.74D-01
 E= -2048.74598264577     Delta-E=       -0.000008742490 Rises=F Damp=F
 DIIS: error= 3.42D-05 at cycle   4 NSaved=   4.
 NSaved= 4 IEnMin= 4 EnMin= -2048.74598264577     IErMin= 4 ErrMin= 3.42D-05
 ErrMax= 3.42D-05  0.00D+00 EMaxC= 1.00D-01 BMatC= 4.56D-07 BMatP= 9.76D-06
 IDIUse=1 WtCom= 1.00D+00 WtEn= 0.00D+00
 Coeff-Com: -0.317D-01 0.795D-01 0.257D+00 0.695D+00
 Coeff:     -0.317D-01 0.795D-01 0.257D+00 0.695D+00
 Gap=     0.285 Goal=   None    Shift=    0.000
 RMSDP=1.40D-06 MaxDP=1.38D-04 DE=-8.74D-06 OVMax= 4.67D-04

 Cycle  10  Pass 1  IDiag  1:
 RMSU=  1.23D-06    CP:  1.00D+00  1.06D+00  8.04D-01  1.12D+00
 E= -2048.74598343400     Delta-E=       -0.000000788224 Rises=F Damp=F
 DIIS: error= 1.02D-05 at cycle   5 NSaved=   5.
 NSaved= 5 IEnMin= 5 EnMin= -2048.74598343400     IErMin= 5 ErrMin= 1.02D-05
 ErrMax= 1.02D-05  0.00D+00 EMaxC= 1.00D-01 BMatC= 1.07D-07 BMatP= 4.56D-07
 IDIUse=1 WtCom= 1.00D+00 WtEn= 0.00D+00
 Coeff-Com: -0.279D-02-0.518D-01-0.126D+00 0.191D+00 0.989D+00
 Coeff:     -0.279D-02-0.518D-01-0.126D+00 0.191D+00 0.989D+00
 Gap=     0.285 Goal=   None    Shift=    0.000
 RMSDP=1.18D-06 MaxDP=7.66D-05 DE=-7.88D-07 OVMax= 2.32D-04

 Cycle  11  Pass 1  IDiag  1:
 RMSU=  4.88D-07    CP:  1.00D+00  1.06D+00  8.11D-01  1.40D+00  1.18D+00
 E= -2048.74598367290     Delta-E=       -0.000000238902 Rises=F Damp=F
 DIIS: error= 8.88D-06 at cycle   6 NSaved=   6.
 NSaved= 6 IEnMin= 6 EnMin= -2048.74598367290     IErMin= 6 ErrMin= 8.88D-06
 ErrMax= 8.88D-06  0.00D+00 EMaxC= 1.00D-01 BMatC= 2.78D-08 BMatP= 1.07D-07
 IDIUse=1 WtCom= 1.00D+00 WtEn= 0.00D+00
 Coeff-Com:  0.475D-02-0.415D-01-0.115D+00-0.823D-02 0.535D+00 0.625D+00
 Coeff:      0.475D-02-0.415D-01-0.115D+00-0.823D-02 0.535D+00 0.625D+00
 Gap=     0.285 Goal=   None    Shift=    0.000
 RMSDP=3.56D-07 MaxDP=3.65D-05 DE=-2.39D-07 OVMax= 1.18D-04

 Cycle  12  Pass 1  IDiag  1:
 RMSU=  1.84D-07    CP:  1.00D+00  1.06D+00  8.12D-01  1.47D+00  1.31D+00
                    CP:  9.14D-01
 E= -2048.74598371214     Delta-E=       -0.000000039239 Rises=F Damp=F
 DIIS: error= 9.90D-07 at cycle   7 NSaved=   7.
 NSaved= 7 IEnMin= 7 EnMin= -2048.74598371214     IErMin= 7 ErrMin= 9.90D-07
 ErrMax= 9.90D-07  0.00D+00 EMaxC= 1.00D-01 BMatC= 8.35D-10 BMatP= 2.78D-08
 IDIUse=1 WtCom= 1.00D+00 WtEn= 0.00D+00
 Coeff-Com:  0.118D-02-0.701D-02-0.214D-01-0.876D-02 0.641D-01 0.147D+00
 Coeff-Com:  0.825D+00
 Coeff:      0.118D-02-0.701D-02-0.214D-01-0.876D-02 0.641D-01 0.147D+00
 Coeff:      0.825D+00
 Gap=     0.285 Goal=   None    Shift=    0.000
 RMSDP=8.25D-08 MaxDP=5.26D-06 DE=-3.92D-08 OVMax= 2.15D-05

 Cycle  13  Pass 1  IDiag  1:
 RMSU=  5.08D-08    CP:  1.00D+00  1.06D+00  8.11D-01  1.48D+00  1.33D+00
                    CP:  1.00D+00  1.13D+00
 E= -2048.74598371372     Delta-E=       -0.000000001581 Rises=F Damp=F
 DIIS: error= 6.14D-07 at cycle   8 NSaved=   8.
 NSaved= 8 IEnMin= 8 EnMin= -2048.74598371372     IErMin= 8 ErrMin= 6.14D-07
 ErrMax= 6.14D-07  0.00D+00 EMaxC= 1.00D-01 BMatC= 3.30D-10 BMatP= 8.35D-10
 IDIUse=1 WtCom= 1.00D+00 WtEn= 0.00D+00
 Coeff-Com: -0.739D-03 0.821D-02 0.214D-01-0.479D-03-0.119D+00-0.969D-01
 Coeff-Com:  0.418D+00 0.769D+00
 Coeff:     -0.739D-03 0.821D-02 0.214D-01-0.479D-03-0.119D+00-0.969D-01
 Coeff:      0.418D+00 0.769D+00
 Gap=     0.285 Goal=   None    Shift=    0.000
 RMSDP=4.90D-08 MaxDP=2.98D-06 DE=-1.58D-09 OVMax= 1.18D-05

 Cycle  14  Pass 1  IDiag  1:
 RMSU=  2.78D-08    CP:  1.00D+00  1.06D+00  8.11D-01  1.48D+00  1.34D+00
                    CP:  1.05D+00  1.28D+00  1.08D+00
 E= -2048.74598371433     Delta-E=       -0.000000000614 Rises=F Damp=F
 DIIS: error= 1.79D-07 at cycle   9 NSaved=   9.
 NSaved= 9 IEnMin= 9 EnMin= -2048.74598371433     IErMin= 9 ErrMin= 1.79D-07
 ErrMax= 1.79D-07  0.00D+00 EMaxC= 1.00D-01 BMatC= 3.43D-11 BMatP= 3.30D-10
 IDIUse=1 WtCom= 1.00D+00 WtEn= 0.00D+00
 Coeff-Com: -0.460D-03 0.445D-02 0.120D-01 0.120D-02-0.591D-01-0.589D-01
 Coeff-Com:  0.882D-01 0.324D+00 0.689D+00
 Coeff:     -0.460D-03 0.445D-02 0.120D-01 0.120D-02-0.591D-01-0.589D-01
 Coeff:      0.882D-01 0.324D+00 0.689D+00
 Gap=     0.285 Goal=   None    Shift=    0.000
 RMSDP=1.36D-08 MaxDP=8.79D-07 DE=-6.14D-10 OVMax= 3.36D-06

 Cycle  15  Pass 1  IDiag  1:
 RMSU=  9.12D-09    CP:  1.00D+00  1.06D+00  8.11D-01  1.48D+00  1.34D+00
                    CP:  1.06D+00  1.31D+00  1.23D+00  1.10D+00
 E= -2048.74598371428     Delta-E=        0.000000000055 Rises=F Damp=F
 DIIS: error= 7.32D-08 at cycle  10 NSaved=  10.
 NSaved=10 IEnMin= 9 EnMin= -2048.74598371433     IErMin=10 ErrMin= 7.32D-08
 ErrMax= 7.32D-08  0.00D+00 EMaxC= 1.00D-01 BMatC= 5.21D-12 BMatP= 3.43D-11
 IDIUse=1 WtCom= 1.00D+00 WtEn= 0.00D+00
 Coeff-Com:  0.448D-06-0.254D-03-0.505D-03 0.162D-03 0.492D-02 0.499D-03
 Coeff-Com: -0.551D-01-0.532D-01 0.252D+00 0.851D+00
 Coeff:      0.448D-06-0.254D-03-0.505D-03 0.162D-03 0.492D-02 0.499D-03
 Coeff:     -0.551D-01-0.532D-01 0.252D+00 0.851D+00
 Gap=     0.285 Goal=   None    Shift=    0.000
 RMSDP=6.92D-09 MaxDP=3.99D-07 DE= 5.46D-11 OVMax= 1.52D-06

 SCF Done:  E(RwB97XD) =  -2048.74598371     A.U. after   15 cycles
            NFock= 15  Conv=0.69D-08     -V/T= 2.0054
 KE= 2.037700480584D+03 PE=-1.563010934805D+04 EE= 6.118840268726D+03
 Leave Link  502 at Mon Jan 22 09:12:44 2018, MaxMem=  4294967296 cpu:           19696.7 elap:             637.7
 (Enter /share/apps/g16/l601.exe)
 Copying SCF densities to generalized density rwf, IOpCl= 0 IROHF=0.

 **********************************************************************

            Population analysis using the SCF density.

 **********************************************************************

 Orbital symmetries:
       Occupied  (A) (A) (A) (A) (A) (A) (A) (A) (A) (A) (A) (A)
                 (A) (A) (A) (A) (A) (A) (A) (A) (A) (A) (A) (A)
                 (A) (A) (A) (A) (A) (A) (A) (A) (A) (A) (A) (A)
                 (A) (A) (A) (A) (A) (A) (A) (A) (A) (A) (A) (A)
                 (A) (A) (A) (A) (A) (A) (A) (A) (A) (A) (A) (A)
                 (A) (A) (A) (A) (A) (A) (A) (A) (A) (A) (A) (A)
                 (A) (A) (A) (A) (A) (A) (A) (A) (A) (A) (A) (A)
                 (A) (A) (A) (A) (A) (A) (A) (A) (A) (A) (A) (A)
                 (A) (A) (A) (A) (A) (A) (A) (A) (A) (A) (A) (A)
                 (A) (A) (A) (A) (A) (A) (A) (A) (A) (A) (A) (A)
                 (A) (A) (A) (A) (A) (A) (A) (A) (A) (A) (A) (A)
                 (A) (A) (A) (A) (A) (A) (A) (A) (A) (A) (A) (A)
                 (A) (A) (A) (A) (A) (A) (A) (A) (A) (A)
       Virtual   (A) (A) (A) (A) (A) (A) (A) (A) (A) (A) (A) (A)
                 (A) (A) (A) (A) (A) (A) (A) (A) (A) (A) (A) (A)
                 (A) (A) (A) (A) (A) (A) (A) (A) (A) (A) (A) (A)
                 (A) (A) (A) (A) (A) (A) (A) (A) (A) (A) (A) (A)
                 (A) (A) (A) (A) (A) (A) (A) (A) (A) (A) (A) (A)
                 (A) (A) (A) (A) (A) (A) (A) (A) (A) (A) (A) (A)
                 (A) (A) (A) (A) (A) (A) (A) (A) (A) (A) (A) (A)
                 (A) (A) (A) (A) (A) (A) (A) (A) (A) (A) (A) (A)
                 (A) (A) (A) (A) (A) (A) (A) (A) (A) (A) (A) (A)
                 (A) (A) (A) (A) (A) (A) (A) (A) (A) (A) (A) (A)
                 (A) (A) (A) (A) (A) (A) (A) (A) (A) (A) (A) (A)
                 (A) (A) (A) (A) (A) (A) (A) (A) (A) (A) (A) (A)
                 (A) (A) (A) (A) (A) (A) (A) (A) (A) (A) (A) (A)
                 (A) (A) (A) (A) (A) (A) (A) (A) (A) (A) (A) (A)
                 (A) (A) (A) (A) (A) (A) (A) (A) (A) (A) (A) (A)
                 (A) (A) (A) (A) (A) (A) (A) (A) (A) (A) (A) (A)
                 (A) (A) (A) (A) (A) (A) (A) (A) (A) (A) (A) (A)
                 (A) (A) (A) (A) (A) (A) (A) (A) (A) (A) (A) (A)
                 (A) (A) (A) (A) (A) (A) (A) (A) (A) (A) (A) (A)
                 (A) (A) (A) (A) (A) (A) (A) (A) (A) (A) (A) (A)
                 (A) (A) (A) (A) (A) (A) (A) (A) (A) (A) (A) (A)
                 (A) (A) (A) (A) (A) (A) (A) (A) (A) (A) (A) (A)
                 (A) (A) (A) (A) (A) (A) (A) (A) (A) (A) (A) (A)
                 (A) (A) (A) (A) (A) (A) (A) (A) (A) (A) (A) (A)
                 (A) (A) (A) (A) (A) (A) (A) (A) (A) (A) (A) (A)
                 (A) (A) (A) (A) (A) (A) (A) (A) (A) (A) (A) (A)
                 (A) (A) (A) (A) (A) (A) (A) (A) (A) (A) (A) (A)
                 (A) (A) (A) (A) (A) (A) (A) (A) (A) (A) (A) (A)
                 (A) (A) (A) (A) (A) (A) (A) (A) (A) (A) (A) (A)
                 (A) (A) (A) (A) (A) (A) (A) (A) (A) (A) (A) (A)
                 (A) (A) (A) (A) (A) (A) (A) (A) (A) (A) (A) (A)
                 (A) (A) (A) (A) (A) (A) (A) (A) (A) (A) (A) (A)
                 (A) (A) (A) (A) (A) (A) (A) (A) (A) (A) (A) (A)
                 (A) (A) (A) (A) (A) (A) (A) (A) (A) (A) (A) (A)
                 (A) (A) (A) (A) (A) (A) (A) (A) (A) (A) (A) (A)
                 (A) (A) (A) (A) (A) (A) (A) (A) (A) (A) (A) (A)
                 (A) (A) (A) (A) (A) (A) (A) (A) (A) (A) (A) (A)
                 (A) (A) (A) (A) (A) (A) (A) (A) (A) (A) (A) (A)
                 (A) (A) (A) (A) (A) (A) (A) (A) (A) (A) (A) (A)
                 (A) (A) (A) (A) (A) (A) (A) (A) (A) (A) (A) (A)
                 (A) (A) (A) (A) (A) (A) (A) (A) (A) (A) (A) (A)
                 (A) (A) (A) (A) (A) (A) (A) (A) (A) (A) (A) (A)
                 (A) (A) (A) (A) (A) (A) (A) (A) (A) (A) (A) (A)
                 (A) (A) (A) (A) (A) (A) (A) (A) (A) (A) (A) (A)
                 (A) (A) (A) (A) (A) (A) (A) (A) (A) (A) (A) (A)
                 (A) (A) (A) (A) (A) (A) (A) (A) (A) (A) (A) (A)
                 (A) (A) (A) (A) (A) (A) (A) (A) (A) (A) (A) (A)
                 (A) (A) (A) (A) (A) (A) (A) (A) (A) (A) (A) (A)
                 (A) (A) (A) (A) (A) (A) (A)
 The electronic state is 1-A.
 Alpha  occ. eigenvalues --  -19.25581 -19.21756 -19.20821 -14.52509 -14.52131
 Alpha  occ. eigenvalues --  -14.49360 -14.48545 -14.47864 -14.47463 -14.47108
 Alpha  occ. eigenvalues --  -14.46933 -14.45456 -14.44804 -14.44634 -14.42326
 Alpha  occ. eigenvalues --  -14.42321 -14.41646 -14.40683 -14.40372 -14.40249
 Alpha  occ. eigenvalues --  -10.45144 -10.41546 -10.40315 -10.39882 -10.38504
 Alpha  occ. eigenvalues --  -10.38043 -10.37688 -10.37436 -10.36122 -10.35282
 Alpha  occ. eigenvalues --  -10.34828 -10.34740 -10.34016 -10.33837 -10.33183
 Alpha  occ. eigenvalues --  -10.32973 -10.32850 -10.32800 -10.31409 -10.30782
 Alpha  occ. eigenvalues --  -10.30106 -10.28590 -10.28018  -1.19105  -1.15313
 Alpha  occ. eigenvalues --   -1.13511  -1.12797  -1.11068  -1.10525  -1.09749
 Alpha  occ. eigenvalues --   -1.08981  -1.08820  -1.05183  -1.04843  -1.02131
 Alpha  occ. eigenvalues --   -1.01067  -1.00263  -1.00026  -0.98917  -0.97236
 Alpha  occ. eigenvalues --   -0.97115  -0.96170  -0.92549  -0.90843  -0.87819
 Alpha  occ. eigenvalues --   -0.85954  -0.84613  -0.83301  -0.83264  -0.82962
 Alpha  occ. eigenvalues --   -0.81636  -0.78632  -0.77274  -0.75096  -0.75047
 Alpha  occ. eigenvalues --   -0.73947  -0.73075  -0.72476  -0.70723  -0.70578
 Alpha  occ. eigenvalues --   -0.67735  -0.67077  -0.66304  -0.65891  -0.64674
 Alpha  occ. eigenvalues --   -0.64438  -0.63789  -0.62923  -0.62344  -0.62129
 Alpha  occ. eigenvalues --   -0.60762  -0.60440  -0.60104  -0.59467  -0.59327
 Alpha  occ. eigenvalues --   -0.59119  -0.58654  -0.57138  -0.56173  -0.55957
 Alpha  occ. eigenvalues --   -0.55490  -0.55426  -0.55201  -0.54678  -0.54344
 Alpha  occ. eigenvalues --   -0.53811  -0.53754  -0.53682  -0.53300  -0.52985
 Alpha  occ. eigenvalues --   -0.52707  -0.52121  -0.51138  -0.50509  -0.50275
 Alpha  occ. eigenvalues --   -0.50072  -0.49701  -0.49573  -0.49398  -0.49103
 Alpha  occ. eigenvalues --   -0.48523  -0.48415  -0.48255  -0.48009  -0.47394
 Alpha  occ. eigenvalues --   -0.46469  -0.45796  -0.45685  -0.44644  -0.43166
 Alpha  occ. eigenvalues --   -0.40912  -0.40840  -0.39280  -0.38077  -0.37774
 Alpha  occ. eigenvalues --   -0.37725  -0.37604  -0.36618  -0.35620  -0.35103
 Alpha  occ. eigenvalues --   -0.34644  -0.34302  -0.33336  -0.33110  -0.33026
 Alpha  occ. eigenvalues --   -0.32864  -0.32647  -0.32162  -0.31787  -0.30375
 Alpha  occ. eigenvalues --   -0.30205  -0.30095  -0.25965  -0.25451
 Alpha virt. eigenvalues --    0.03044   0.03846   0.06662   0.08297   0.08678
 Alpha virt. eigenvalues --    0.08847   0.09453   0.10375   0.11316   0.11695
 Alpha virt. eigenvalues --    0.13533   0.13891   0.14228   0.15009   0.15075
 Alpha virt. eigenvalues --    0.15721   0.16158   0.17063   0.17273   0.17848
 Alpha virt. eigenvalues --    0.18352   0.19145   0.19531   0.20318   0.20727
 Alpha virt. eigenvalues --    0.21008   0.21138   0.21284   0.21440   0.21924
 Alpha virt. eigenvalues --    0.22130   0.22852   0.22943   0.23264   0.23617
 Alpha virt. eigenvalues --    0.23671   0.24481   0.24632   0.24808   0.25261
 Alpha virt. eigenvalues --    0.25825   0.26166   0.27095   0.27483   0.27883
 Alpha virt. eigenvalues --    0.28900   0.29159   0.29525   0.30842   0.31135
 Alpha virt. eigenvalues --    0.31721   0.31976   0.32280   0.33243   0.33354
 Alpha virt. eigenvalues --    0.33572   0.34530   0.34744   0.36008   0.36098
 Alpha virt. eigenvalues --    0.36597   0.37351   0.37908   0.38396   0.39091
 Alpha virt. eigenvalues --    0.39433   0.40141   0.40529   0.40876   0.41512
 Alpha virt. eigenvalues --    0.42106   0.42424   0.42812   0.44016   0.44263
 Alpha virt. eigenvalues --    0.45375   0.45878   0.46173   0.46584   0.46631
 Alpha virt. eigenvalues --    0.47047   0.47484   0.47845   0.48520   0.49294
 Alpha virt. eigenvalues --    0.49817   0.49899   0.50345   0.50983   0.51067
 Alpha virt. eigenvalues --    0.51436   0.51852   0.52166   0.52392   0.52773
 Alpha virt. eigenvalues --    0.53693   0.54327   0.54614   0.54701   0.55042
 Alpha virt. eigenvalues --    0.55889   0.56202   0.56615   0.56788   0.56878
 Alpha virt. eigenvalues --    0.57862   0.58009   0.58225   0.58874   0.59289
 Alpha virt. eigenvalues --    0.59448   0.59873   0.60406   0.60751   0.60989
 Alpha virt. eigenvalues --    0.61131   0.61570   0.62353   0.62701   0.62712
 Alpha virt. eigenvalues --    0.63735   0.64518   0.64870   0.64958   0.65494
 Alpha virt. eigenvalues --    0.65784   0.66262   0.66473   0.66909   0.67599
 Alpha virt. eigenvalues --    0.67770   0.68020   0.68593   0.68753   0.69171
 Alpha virt. eigenvalues --    0.69683   0.69967   0.70214   0.71040   0.71688
 Alpha virt. eigenvalues --    0.71721   0.72057   0.72427   0.72971   0.73797
 Alpha virt. eigenvalues --    0.74241   0.74436   0.74552   0.75037   0.75484
 Alpha virt. eigenvalues --    0.75515   0.75752   0.76081   0.76523   0.76846
 Alpha virt. eigenvalues --    0.76978   0.77607   0.77745   0.78018   0.78371
 Alpha virt. eigenvalues --    0.78807   0.79639   0.79948   0.80088   0.80461
 Alpha virt. eigenvalues --    0.81019   0.81433   0.81939   0.82422   0.82966
 Alpha virt. eigenvalues --    0.83326   0.83900   0.84510   0.84787   0.84893
 Alpha virt. eigenvalues --    0.85707   0.85810   0.86363   0.86730   0.87349
 Alpha virt. eigenvalues --    0.88086   0.88163   0.88615   0.89142   0.89846
 Alpha virt. eigenvalues --    0.90200   0.90588   0.91001   0.91491   0.92328
 Alpha virt. eigenvalues --    0.92480   0.93014   0.93229   0.93738   0.93961
 Alpha virt. eigenvalues --    0.94477   0.94804   0.95264   0.95601   0.95918
 Alpha virt. eigenvalues --    0.97058   0.97307   0.97520   0.97911   0.98266
 Alpha virt. eigenvalues --    0.98456   0.98618   0.99010   0.99703   1.00235
 Alpha virt. eigenvalues --    1.00804   1.01027   1.01391   1.01862   1.02855
 Alpha virt. eigenvalues --    1.03010   1.03573   1.03875   1.04462   1.05015
 Alpha virt. eigenvalues --    1.05055   1.05398   1.05669   1.06445   1.07098
 Alpha virt. eigenvalues --    1.07564   1.07826   1.08070   1.09760   1.10298
 Alpha virt. eigenvalues --    1.10806   1.11245   1.11691   1.12478   1.12654
 Alpha virt. eigenvalues --    1.13254   1.13999   1.14135   1.14652   1.15288
 Alpha virt. eigenvalues --    1.15755   1.16141   1.16291   1.16768   1.17285
 Alpha virt. eigenvalues --    1.17841   1.18295   1.18462   1.19200   1.19209
 Alpha virt. eigenvalues --    1.19340   1.19567   1.19887   1.20199   1.20333
 Alpha virt. eigenvalues --    1.21234   1.21769   1.22468   1.22601   1.23011
 Alpha virt. eigenvalues --    1.23380   1.23524   1.23702   1.23955   1.24081
 Alpha virt. eigenvalues --    1.24807   1.25160   1.26013   1.26607   1.26742
 Alpha virt. eigenvalues --    1.27647   1.28483   1.28726   1.29085   1.29786
 Alpha virt. eigenvalues --    1.30937   1.31115   1.31584   1.32567   1.33208
 Alpha virt. eigenvalues --    1.33988   1.34042   1.34791   1.35194   1.35764
 Alpha virt. eigenvalues --    1.36503   1.37165   1.37485   1.37891   1.39152
 Alpha virt. eigenvalues --    1.40007   1.40935   1.41248   1.41670   1.43679
 Alpha virt. eigenvalues --    1.44554   1.45679   1.46309   1.46860   1.47623
 Alpha virt. eigenvalues --    1.48237   1.48467   1.48978   1.49328   1.50156
 Alpha virt. eigenvalues --    1.50760   1.52172   1.52365   1.53396   1.53571
 Alpha virt. eigenvalues --    1.54326   1.55463   1.55659   1.56337   1.56529
 Alpha virt. eigenvalues --    1.57197   1.58418   1.59037   1.59499   1.60292
 Alpha virt. eigenvalues --    1.61012   1.61530   1.61733   1.62543   1.62932
 Alpha virt. eigenvalues --    1.63888   1.64244   1.64975   1.65045   1.65476
 Alpha virt. eigenvalues --    1.65785   1.66610   1.66998   1.67697   1.68533
 Alpha virt. eigenvalues --    1.68939   1.69636   1.69685   1.70968   1.71390
 Alpha virt. eigenvalues --    1.71559   1.72000   1.72354   1.72632   1.73266
 Alpha virt. eigenvalues --    1.73493   1.74057   1.74111   1.74494   1.74781
 Alpha virt. eigenvalues --    1.75403   1.75782   1.75994   1.76149   1.76764
 Alpha virt. eigenvalues --    1.77268   1.77434   1.77459   1.77981   1.78532
 Alpha virt. eigenvalues --    1.78905   1.78963   1.79471   1.79738   1.79995
 Alpha virt. eigenvalues --    1.80471   1.80728   1.80792   1.81538   1.81669
 Alpha virt. eigenvalues --    1.82233   1.83288   1.83545   1.83974   1.84528
 Alpha virt. eigenvalues --    1.84611   1.84909   1.85404   1.85601   1.86011
 Alpha virt. eigenvalues --    1.87206   1.87637   1.88136   1.88536   1.89129
 Alpha virt. eigenvalues --    1.89316   1.89937   1.90131   1.90567   1.91081
 Alpha virt. eigenvalues --    1.91466   1.91992   1.92370   1.93038   1.93483
 Alpha virt. eigenvalues --    1.94277   1.94989   1.95434   1.96362   1.97070
 Alpha virt. eigenvalues --    1.98118   1.98622   1.98982   1.99776   1.99874
 Alpha virt. eigenvalues --    2.01093   2.01621   2.02090   2.02347   2.02659
 Alpha virt. eigenvalues --    2.03622   2.03973   2.05116   2.05873   2.06607
 Alpha virt. eigenvalues --    2.07400   2.07916   2.08053   2.09092   2.09507
 Alpha virt. eigenvalues --    2.09882   2.10257   2.11150   2.11262   2.12481
 Alpha virt. eigenvalues --    2.13502   2.14238   2.14488   2.15547   2.16803
 Alpha virt. eigenvalues --    2.17611   2.19136   2.20128   2.20625   2.21087
 Alpha virt. eigenvalues --    2.21502   2.21907   2.22191   2.22978   2.23298
 Alpha virt. eigenvalues --    2.23736   2.24825   2.25387   2.25521   2.26184
 Alpha virt. eigenvalues --    2.26470   2.27179   2.28200   2.28901   2.29716
 Alpha virt. eigenvalues --    2.29904   2.30489   2.30617   2.31258   2.31617
 Alpha virt. eigenvalues --    2.32089   2.32737   2.33373   2.33558   2.33793
 Alpha virt. eigenvalues --    2.34283   2.34429   2.35335   2.36024   2.36474
 Alpha virt. eigenvalues --    2.37285   2.38200   2.38360   2.39129   2.40856
 Alpha virt. eigenvalues --    2.41635   2.42869   2.43105   2.43383   2.43838
 Alpha virt. eigenvalues --    2.44109   2.44886   2.45534   2.45975   2.46325
 Alpha virt. eigenvalues --    2.47245   2.48165   2.49557   2.50892   2.50975
 Alpha virt. eigenvalues --    2.51358   2.52663   2.53717   2.55317   2.55516
 Alpha virt. eigenvalues --    2.56173   2.57339   2.57843   2.58079   2.59420
 Alpha virt. eigenvalues --    2.60838   2.62035   2.62372   2.62648   2.63604
 Alpha virt. eigenvalues --    2.63783   2.64288   2.64837   2.64897   2.65184
 Alpha virt. eigenvalues --    2.66539   2.66751   2.66971   2.68192   2.69155
 Alpha virt. eigenvalues --    2.69791   2.69956   2.70577   2.70802   2.71971
 Alpha virt. eigenvalues --    2.72815   2.73837   2.74955   2.76342   2.76405
 Alpha virt. eigenvalues --    2.76735   2.76973   2.77530   2.78689   2.78896
 Alpha virt. eigenvalues --    2.79391   2.79726   2.79917   2.80458   2.81484
 Alpha virt. eigenvalues --    2.81866   2.82186   2.83094   2.83282   2.83816
 Alpha virt. eigenvalues --    2.84229   2.85259   2.85796   2.86691   2.86911
 Alpha virt. eigenvalues --    2.87035   2.88108   2.88504   2.90827   2.92785
 Alpha virt. eigenvalues --    2.93590   2.94795   2.95087   2.95991   2.98067
 Alpha virt. eigenvalues --    2.99827   3.00748   3.02074   3.02663   3.04953
 Alpha virt. eigenvalues --    3.05143   3.08760   3.10339   3.12236   3.14229
 Alpha virt. eigenvalues --    3.15469   3.15676   3.16140   3.18587   3.19512
 Alpha virt. eigenvalues --    3.20625   3.22485   3.23418   3.24843   3.25380
 Alpha virt. eigenvalues --    3.44117   3.46947   3.47155   3.48992   3.50312
 Alpha virt. eigenvalues --    3.53277   3.54746   3.55903   3.57545   3.59910
 Alpha virt. eigenvalues --    3.62746   3.70581   3.75039
          Condensed to atoms (all electrons):
 Mulliken charges:
               1
     1  N   -0.306843
     2  C    0.182483
     3  C    0.053825
     4  N   -0.251286
     5  C    0.152202
     6  H    0.027380
     7  N   -0.298723
     8  C    0.128542
     9  H    0.009122
    10  N   -0.283490
    11  C    0.244961
    12  C    0.084148
    13  N   -0.067985
    14  H    0.117387
    15  H    0.084857
    16  H    0.021550
    17  H    0.029006
    18  H    0.025021
    19  N   -0.310458
    20  C    0.259933
    21  C    0.181700
    22  N   -0.123903
    23  H    0.119280
    24  H    0.119260
    25  N   -0.313021
    26  C    0.250880
    27  N   -0.148257
    28  H    0.121009
    29  C    0.197651
    30  O   -0.318036
    31  C   -0.017799
    32  N   -0.230557
    33  C    0.119514
    34  H    0.024214
    35  H    0.026659
    36  H    0.031442
    37  H    0.025797
    38  H    0.065428
    39  H    0.058562
    40  H    0.075235
    41  H    0.022788
    42  C   -0.130486
    43  O   -0.267234
    44  C    0.167232
    45  H    0.133584
    46  N   -0.122629
    47  O   -0.352901
    48  C    0.353592
    49  H    0.041811
    50  C    0.182382
    51  C    0.039337
    52  N   -0.278097
    53  H    0.034176
    54  H    0.042419
    55  H    0.029455
    56  H    0.121180
    57  H    0.117279
    58  N   -0.060290
    59  C    0.085686
    60  C    0.234377
    61  N   -0.265412
    62  H    0.033935
    63  C    0.171627
    64  N   -0.312159
    65  H    0.039649
    66  C    0.140035
    67  N   -0.260113
    68  C    0.021494
    69  C    0.180116
    70  N   -0.309523
 Sum of Mulliken charges =  -0.00000
 Mulliken charges with hydrogens summed into heavy atoms:
               1
     1  N   -0.306843
     2  C    0.258059
     3  C    0.053825
     4  N   -0.251286
     5  C    0.179582
     7  N   -0.298723
     8  C    0.137664
    10  N   -0.283490
    11  C    0.244961
    12  C    0.084148
    13  N    0.134259
    19  N   -0.310458
    20  C    0.259933
    21  C    0.265598
    22  N    0.114638
    25  N   -0.313021
    26  C    0.250880
    27  N   -0.027248
    29  C    0.197651
    30  O   -0.318036
    31  C   -0.017799
    32  N   -0.230557
    33  C    0.143728
    42  C   -0.107698
    43  O   -0.267234
    44  C    0.167232
    46  N    0.010955
    47  O   -0.352901
    48  C    0.353592
    50  C    0.224193
    51  C    0.238561
    52  N   -0.278097
    58  N    0.178168
    59  C    0.085686
    60  C    0.234377
    61  N   -0.265412
    63  C    0.205562
    64  N   -0.312159
    66  C    0.179684
    67  N   -0.260113
    68  C    0.021494
    69  C    0.286165
    70  N   -0.309523
 Electronic spatial extent (au):  <R**2>=          23395.7033
 Charge=             -0.0000 electrons
 Dipole moment (field-independent basis, Debye):
    X=             -7.1357    Y=              7.7722    Z=             -0.6432  Tot=             10.5706
 Quadrupole moment (field-independent basis, Debye-Ang):
   XX=           -157.6474   YY=           -222.5531   ZZ=           -250.8592
   XY=              0.4705   XZ=            -15.8948   YZ=              4.9405
 Traceless Quadrupole moment (field-independent basis, Debye-Ang):
   XX=             52.7058   YY=            -12.1999   ZZ=            -40.5059
   XY=              0.4705   XZ=            -15.8948   YZ=              4.9405
 Octapole moment (field-independent basis, Debye-Ang**2):
  XXX=             77.5185  YYY=            127.6922  ZZZ=             20.1692  XYY=            -72.6192
  XXY=            139.6773  XXZ=            -76.6523  XZZ=            -62.0759  YZZ=             31.0545
  YYZ=            -39.0938  XYZ=             80.5596
 Hexadecapole moment (field-independent basis, Debye-Ang**3):
 XXXX=         -17151.4401 YYYY=          -5070.3194 ZZZZ=          -4105.2192 XXXY=           -499.7387
 XXXZ=            -90.5335 YYYX=             43.2284 YYYZ=             12.3599 ZZZX=            -38.5237
 ZZZY=             -6.3359 XXYY=          -3439.3275 XXZZ=          -3996.3624 YYZZ=          -1613.6701
 XXYZ=           -184.4692 YYXZ=             12.9902 ZZXY=           -116.0600
 N-N= 5.424822615026D+03 E-N=-1.563010934893D+04  KE= 2.037700480584D+03
 No NMR shielding tensors so no spin-rotation constants.
 Leave Link  601 at Mon Jan 22 09:12:46 2018, MaxMem=  4294967296 cpu:              44.3 elap:               1.6
 (Enter /share/apps/g16/l9999.exe)
 1\1\GINC-COMPUTE-0-3\SP\RwB97XD\CC-pVDZ\C23H27N17O3\SATYA\22-Jan-2018\
 0\\#p wb97xd/cc-pvdz sp scf=(maxcycles=20)\\Base pair stacking\\0,1\N,
 0,3.66841,-1.1624,-5.72711\C,0,4.46299,0.0715,-5.88249\C,0,2.06519,-2.
 66381,-5.84014\N,0,3.0885,-3.24341,-5.10418\C,0,4.01342,-2.31567,-5.06
 554\H,0,4.97576,-2.42013,-4.5636\N,0,0.02339,-2.30413,-6.96469\C,0,0.4
 917,-1.08884,-7.26694\H,0,-0.17979,-0.46478,-7.85508\N,0,1.65945,-0.53
 132,-6.95321\C,0,2.40814,-1.38117,-6.23096\C,0,0.80066,-3.13551,-6.236
 85\N,0,0.33494,-4.34903,-5.93415\H,0,0.87601,-4.9974,-5.39742\H,0,-0.5
 7019,-4.65129,-6.23337\H,0,5.31904,-0.13894,-6.35479\H,0,3.94387,0.738
 07,-6.41665\H,0,4.66683,0.45482,-4.98166\N,0,1.31975,2.29081,-3.29777\
 C,0,0.32756,1.35511,-3.46532\C,0,1.17713,3.7398,-3.5443\N,0,-2.93811,0
 .55717,-4.33734\H,0,-3.5072,-0.26272,-4.39365\H,0,-3.36701,1.4253,-4.5
 8854\N,0,-0.93419,1.60021,-3.87998\C,0,-1.65728,0.49621,-3.94279\N,0,-
 1.18291,-0.75321,-3.62432\H,0,-1.80735,-1.54127,-3.70179\C,0,0.1117,-1
 .02881,-3.19547\O,0,0.43888,-2.19284,-2.93335\C,0,0.90042,0.14744,-3.1
 2303\N,0,2.22559,0.32146,-2.74813\C,0,2.42942,1.6054,-2.86708\H,0,3.37
 394,2.10666,-2.65286\H,0,1.82604,4.0252,-4.24876\H,0,0.24646,3.93338,-
 3.85195\H,0,1.35936,4.24275,-2.70012\H,0,-5.21252,-5.119,-4.90897\H,0,
 -5.5404,-5.09685,-3.17789\H,0,-5.02447,-3.62164,-3.99578\H,0,-1.49226,
 -7.69488,-3.27463\C,0,-1.80614,-6.65352,-3.3474\O,0,0.36277,-5.77988,-
 2.94778\C,0,-0.83536,-5.61607,-3.17681\H,0,-0.68162,-3.57532,-3.17381\
 N,0,-1.33752,-4.33519,-3.28832\O,0,-2.98755,-2.81061,-3.62035\C,0,-2.6
 3784,-3.97499,-3.53922\H,0,-3.85868,-7.08483,-3.73065\C,0,-3.08203,-6.
 33366,-3.59316\C,0,-4.91497,-4.6954,-3.9613\N,0,-3.51419,-5.03139,-3.6
 9168\H,0,-7.13772,-4.18435,-9.76925\H,0,-6.47442,-3.11055,-8.73529\H,0
 ,-7.80073,-3.95429,-8.29585\H,0,-1.68895,-7.4178,-5.90645\H,0,-3.08939
 ,-8.25442,-6.40539\N,0,-2.59866,-7.38653,-6.32069\C,0,-3.13448,-6.2390
 3,-6.74176\C,0,-4.82807,-4.88148,-7.71673\N,0,-4.14601,-3.73117,-7.590
 23\H,0,-2.34104,-3.06674,-6.88225\C,0,-2.96161,-3.9507,-7.02286\N,0,-2
 .42313,-5.09925,-6.60043\H,0,-7.28725,-6.82073,-8.51916\C,0,-6.34731,-
 6.39861,-8.16241\N,0,-5.37808,-7.09238,-7.61748\C,0,-4.40858,-6.1425,-
 7.33021\C,0,-6.94239,-3.99082,-8.8078\N,0,-6.08177,-5.05404,-8.2538\\V
 ersion=EM64L-G16RevA.03\State=1-A\HF=-2048.7459837\RMSD=6.917e-09\Dipo
 le=-3.9888637,0.415506,-1.1009326\Quadrupole=18.062587,13.5990008,-31.
 6615879,24.5290649,3.3868932,6.7559634\PG=C01 [X(C23H27N17O3)]\\@


 Just remember, when you're over the hill, you begin to pick up speed.
 -- Charles Schulz
 Job cpu time:       0 days  5 hours 38 minutes 12.2 seconds.
 Elapsed time:       0 days  0 hours 10 minutes 56.7 seconds.
 File lengths (MBytes):  RWF=    298 Int=      0 D2E=      0 Chk=     33 Scr=      1
 Normal termination of Gaussian 16 at Mon Jan 22 09:12:46 2018.
