 Entering Gaussian System, Link 0=g16
 Input=str20.-10.1.5.com
 Output=str20.-10.1.5.log
 Initial command:
 /share/apps/g16/l1.exe "/state/partition1/scr/Gau-4388.inp" -scrdir="/state/partition1/scr/"
 Entering Link 1 = /share/apps/g16/l1.exe PID=      4389.
  
 Copyright (c) 1988,1990,1992,1993,1995,1998,2003,2009,2016,
            Gaussian, Inc.  All Rights Reserved.
  
 This is part of the Gaussian(R) 16 program.  It is based on
 the Gaussian(R) 09 system (copyright 2009, Gaussian, Inc.),
 the Gaussian(R) 03 system (copyright 2003, Gaussian, Inc.),
 the Gaussian(R) 98 system (copyright 1998, Gaussian, Inc.),
 the Gaussian(R) 94 system (copyright 1995, Gaussian, Inc.),
 the Gaussian 92(TM) system (copyright 1992, Gaussian, Inc.),
 the Gaussian 90(TM) system (copyright 1990, Gaussian, Inc.),
 the Gaussian 88(TM) system (copyright 1988, Gaussian, Inc.),
 the Gaussian 86(TM) system (copyright 1986, Carnegie Mellon
 University), and the Gaussian 82(TM) system (copyright 1983,
 Carnegie Mellon University). Gaussian is a federally registered
 trademark of Gaussian, Inc.
  
 This software contains proprietary and confidential information,
 including trade secrets, belonging to Gaussian, Inc.
  
 This software is provided under written license and may be
 used, copied, transmitted, or stored only in accord with that
 written license.
  
 The following legend is applicable only to US Government
 contracts under FAR:
  
                    RESTRICTED RIGHTS LEGEND
  
 Use, reproduction and disclosure by the US Government is
 subject to restrictions as set forth in subparagraphs (a)
 and (c) of the Commercial Computer Software - Restricted
 Rights clause in FAR 52.227-19.
  
 Gaussian, Inc.
 340 Quinnipiac St., Bldg. 40, Wallingford CT 06492
  
  
 ---------------------------------------------------------------
 Warning -- This program may not be used in any manner that
 competes with the business of Gaussian, Inc. or will provide
 assistance to any competitor of Gaussian, Inc.  The licensee
 of this program is prohibited from giving any competitor of
 Gaussian, Inc. access to this program.  By using this program,
 the user acknowledges that Gaussian, Inc. is engaged in the
 business of creating and licensing software in the field of
 computational chemistry and represents and warrants to the
 licensee that it is not a competitor of Gaussian, Inc. and that
 it will not use this program in any manner prohibited above.
 ---------------------------------------------------------------
  

 Cite this work as:
 Gaussian 16, Revision A.03,
 M. J. Frisch, G. W. Trucks, H. B. Schlegel, G. E. Scuseria, 
 M. A. Robb, J. R. Cheeseman, G. Scalmani, V. Barone, 
 G. A. Petersson, H. Nakatsuji, X. Li, M. Caricato, A. V. Marenich, 
 J. Bloino, B. G. Janesko, R. Gomperts, B. Mennucci, H. P. Hratchian, 
 J. V. Ortiz, A. F. Izmaylov, J. L. Sonnenberg, D. Williams-Young, 
 F. Ding, F. Lipparini, F. Egidi, J. Goings, B. Peng, A. Petrone, 
 T. Henderson, D. Ranasinghe, V. G. Zakrzewski, J. Gao, N. Rega, 
 G. Zheng, W. Liang, M. Hada, M. Ehara, K. Toyota, R. Fukuda, 
 J. Hasegawa, M. Ishida, T. Nakajima, Y. Honda, O. Kitao, H. Nakai, 
 T. Vreven, K. Throssell, J. A. Montgomery, Jr., J. E. Peralta, 
 F. Ogliaro, M. J. Bearpark, J. J. Heyd, E. N. Brothers, K. N. Kudin, 
 V. N. Staroverov, T. A. Keith, R. Kobayashi, J. Normand, 
 K. Raghavachari, A. P. Rendell, J. C. Burant, S. S. Iyengar, 
 J. Tomasi, M. Cossi, J. M. Millam, M. Klene, C. Adamo, R. Cammi, 
 J. W. Ochterski, R. L. Martin, K. Morokuma, O. Farkas, 
 J. B. Foresman, and D. J. Fox, Gaussian, Inc., Wallingford CT, 2016.
 
 ******************************************
 Gaussian 16:  EM64L-G16RevA.03 25-Dec-2016
                19-Jan-2018 
 ******************************************
 %nprocshared=32
 Will use up to   32 processors via shared memory.
 %mem=32GB
 %chk=allatoms_t.chk
 ---------------------------------------
 #p wb97xd/cc-pvdz sp scf=(maxcycles=20)
 ---------------------------------------
 1/38=1,172=1/1;
 2/12=2,17=6,18=5,40=1/2;
 3/5=16,11=2,25=1,30=1,74=-58/1,2,3;
 4//1;
 5/5=2,7=20,38=5/2;
 6/7=2,8=2,9=2,10=2,28=1/1;
 99/5=1,9=1/99;
 Leave Link    1 at Fri Jan 19 15:32:26 2018, MaxMem=  4294967296 cpu:               2.7 elap:               0.1
 (Enter /share/apps/g16/l101.exe)
 ------------------
 Base pair stacking
 ------------------
 Symbolic Z-matrix:
 Charge =  0 Multiplicity = 1
 N                     0.52105   2.67357  -6.44338 
 C                     0.49595   4.14706  -6.36452 
 C                    -0.05843   0.55212  -6.41201 
 N                     1.29204   0.58091  -6.72845 
 C                     1.5871    1.85785  -6.73468 
 H                     2.57618   2.26461  -6.94734 
 N                    -2.24498  -0.19193  -5.9342 
 C                    -2.57096   1.09708  -5.79365 
 H                    -3.61254   1.28823  -5.53903 
 N                    -1.80707   2.18034  -5.91982 
 C                    -0.54752   1.83447  -6.23341 
 C                    -0.96982  -0.50713  -6.24994 
 N                    -0.64248  -1.7933   -6.39066 
 H                     0.28959  -2.07271  -6.62388 
 H                    -1.31739  -2.52101  -6.26783 
 H                     0.76243   4.53405  -7.24735 
 H                    -0.42668   4.45349  -6.13219 
 H                     1.13521   4.45619  -5.66041 
 N                    -0.19836   3.45473  -3.14 
 C                    -0.92346   2.29104  -3.04995 
 C                    -0.76396   4.81826  -3.10021 
 N                    -3.9749    0.66679  -2.71488 
 H                    -4.30828  -0.27443  -2.66803 
 H                    -4.65915   1.39403  -2.65438 
 N                    -2.26369   2.19847  -2.91111 
 C                    -2.66915   0.94237  -2.85264 
 N                    -1.82809  -0.14159  -2.92445 
 H                    -2.22641  -1.0665   -2.87115 
 C                    -0.44595  -0.06991  -3.06731 
 O                     0.22222  -1.10977  -3.12197 
 C                     0.00447   1.27317  -3.13157 
 N                     1.28635   1.78748  -3.27007 
 C                     1.11722   3.08193  -3.27007 
 H                     1.92098   3.81319  -3.36239 
 H                    -0.54425   5.29696  -3.94955 
 H                    -1.75624   4.76234  -2.99759 
 H                    -0.37759   5.31873  -2.32623 
 H                    -4.88618  -5.38798  -3.19231 
 H                    -4.47698  -5.52325  -1.48383 
 H                    -4.69953  -3.93269  -2.2132 
 H                    -0.33304  -6.91242  -3.49492 
 C                    -0.88373  -5.99421  -3.29033 
 O                     0.98938  -4.57811  -3.62684 
 C                    -0.20013  -4.73867  -3.35465 
 H                    -0.54117  -2.73511  -3.11434 
 N                    -0.98894  -3.64008  -3.07875 
 O                    -2.93813  -2.61186  -2.53049 
 C                    -2.32359  -3.63889  -2.75899 
 H                    -2.75104  -6.95398  -2.91908 
 C                    -2.18527  -6.02532  -2.98107 
 C                    -4.33729  -4.93633  -2.37942 
 N                    -2.912    -4.88757  -2.71693 
 H                    -8.06429  -5.48068  -5.01379 
 H                    -7.27361  -4.36714  -4.12107 
 H                    -7.50658  -5.87081  -3.53049 
 H                    -0.86443  -5.43874  -6.80984 
 H                    -1.81201  -6.85717  -6.82603 
 N                    -1.7343   -5.88546  -6.60028 
 C                    -2.7463   -5.21606  -6.04448 
 C                    -4.94071  -4.97457  -5.15679 
 N                    -4.80795  -3.67022  -4.86444 
 H                    -3.40351  -2.18388  -5.00205 
 C                    -3.59629  -3.2363   -5.20576 
 N                    -2.58131  -3.90519  -5.76253 
 H                    -6.39662  -7.85364  -5.36526 
 C                    -5.69894  -7.01675  -5.40777 
 N                    -4.47989  -7.08628  -5.88395 
 C                    -3.98795  -5.79816  -5.73079 
 C                    -7.32442  -5.33725  -4.35651 
 N                    -6.04408  -5.76833  -4.95057 
 
 ITRead=  0  0  0  0  0  0  0  0  0  0  0  0  0  0  0  0  0  0  0  0
 ITRead=  0  0  0  0  0  0  0  0  0  0  0  0  0  0  0  0  0  0  0  0
 ITRead=  0  0  0  0  0  0  0  0  0  0  0  0  0  0  0  0  0  0  0  0
 ITRead=  0  0  0  0  0  0  0  0  0  0
 MicOpt= -1 -1 -1 -1 -1 -1 -1 -1 -1 -1 -1 -1 -1 -1 -1 -1 -1 -1 -1 -1
 MicOpt= -1 -1 -1 -1 -1 -1 -1 -1 -1 -1 -1 -1 -1 -1 -1 -1 -1 -1 -1 -1
 MicOpt= -1 -1 -1 -1 -1 -1 -1 -1 -1 -1 -1 -1 -1 -1 -1 -1 -1 -1 -1 -1
 MicOpt= -1 -1 -1 -1 -1 -1 -1 -1 -1 -1
 NAtoms=     70 NQM=       70 NQMF=       0 NMMI=      0 NMMIF=      0
                NMic=       0 NMicF=      0.
                    Isotopes and Nuclear Properties:
 (Nuclear quadrupole moments (NQMom) in fm**2, nuclear magnetic moments (NMagM)
  in nuclear magnetons)

  Atom         1           2           3           4           5           6           7           8           9          10
 IAtWgt=          14          12          12          14          12           1          14          12           1          14
 AtmWgt=  14.0030740  12.0000000  12.0000000  14.0030740  12.0000000   1.0078250  14.0030740  12.0000000   1.0078250  14.0030740
 NucSpn=           2           0           0           2           0           1           2           0           1           2
 AtZEff=  -0.0000000  -0.0000000  -0.0000000  -0.0000000  -0.0000000  -0.0000000  -0.0000000  -0.0000000  -0.0000000  -0.0000000
 NQMom=    2.0440000   0.0000000   0.0000000   2.0440000   0.0000000   0.0000000   2.0440000   0.0000000   0.0000000   2.0440000
 NMagM=    0.4037610   0.0000000   0.0000000   0.4037610   0.0000000   2.7928460   0.4037610   0.0000000   2.7928460   0.4037610
 AtZNuc=   7.0000000   6.0000000   6.0000000   7.0000000   6.0000000   1.0000000   7.0000000   6.0000000   1.0000000   7.0000000

  Atom        11          12          13          14          15          16          17          18          19          20
 IAtWgt=          12          12          14           1           1           1           1           1          14          12
 AtmWgt=  12.0000000  12.0000000  14.0030740   1.0078250   1.0078250   1.0078250   1.0078250   1.0078250  14.0030740  12.0000000
 NucSpn=           0           0           2           1           1           1           1           1           2           0
 AtZEff=  -0.0000000  -0.0000000  -0.0000000  -0.0000000  -0.0000000  -0.0000000  -0.0000000  -0.0000000  -0.0000000  -0.0000000
 NQMom=    0.0000000   0.0000000   2.0440000   0.0000000   0.0000000   0.0000000   0.0000000   0.0000000   2.0440000   0.0000000
 NMagM=    0.0000000   0.0000000   0.4037610   2.7928460   2.7928460   2.7928460   2.7928460   2.7928460   0.4037610   0.0000000
 AtZNuc=   6.0000000   6.0000000   7.0000000   1.0000000   1.0000000   1.0000000   1.0000000   1.0000000   7.0000000   6.0000000

  Atom        21          22          23          24          25          26          27          28          29          30
 IAtWgt=          12          14           1           1          14          12          14           1          12          16
 AtmWgt=  12.0000000  14.0030740   1.0078250   1.0078250  14.0030740  12.0000000  14.0030740   1.0078250  12.0000000  15.9949146
 NucSpn=           0           2           1           1           2           0           2           1           0           0
 AtZEff=  -0.0000000  -0.0000000  -0.0000000  -0.0000000  -0.0000000  -0.0000000  -0.0000000  -0.0000000  -0.0000000  -0.0000000
 NQMom=    0.0000000   2.0440000   0.0000000   0.0000000   2.0440000   0.0000000   2.0440000   0.0000000   0.0000000   0.0000000
 NMagM=    0.0000000   0.4037610   2.7928460   2.7928460   0.4037610   0.0000000   0.4037610   2.7928460   0.0000000   0.0000000
 AtZNuc=   6.0000000   7.0000000   1.0000000   1.0000000   7.0000000   6.0000000   7.0000000   1.0000000   6.0000000   8.0000000

  Atom        31          32          33          34          35          36          37          38          39          40
 IAtWgt=          12          14          12           1           1           1           1           1           1           1
 AtmWgt=  12.0000000  14.0030740  12.0000000   1.0078250   1.0078250   1.0078250   1.0078250   1.0078250   1.0078250   1.0078250
 NucSpn=           0           2           0           1           1           1           1           1           1           1
 AtZEff=  -0.0000000  -0.0000000  -0.0000000  -0.0000000  -0.0000000  -0.0000000  -0.0000000  -0.0000000  -0.0000000  -0.0000000
 NQMom=    0.0000000   2.0440000   0.0000000   0.0000000   0.0000000   0.0000000   0.0000000   0.0000000   0.0000000   0.0000000
 NMagM=    0.0000000   0.4037610   0.0000000   2.7928460   2.7928460   2.7928460   2.7928460   2.7928460   2.7928460   2.7928460
 AtZNuc=   6.0000000   7.0000000   6.0000000   1.0000000   1.0000000   1.0000000   1.0000000   1.0000000   1.0000000   1.0000000

  Atom        41          42          43          44          45          46          47          48          49          50
 IAtWgt=           1          12          16          12           1          14          16          12           1          12
 AtmWgt=   1.0078250  12.0000000  15.9949146  12.0000000   1.0078250  14.0030740  15.9949146  12.0000000   1.0078250  12.0000000
 NucSpn=           1           0           0           0           1           2           0           0           1           0
 AtZEff=  -0.0000000  -0.0000000  -0.0000000  -0.0000000  -0.0000000  -0.0000000  -0.0000000  -0.0000000  -0.0000000  -0.0000000
 NQMom=    0.0000000   0.0000000   0.0000000   0.0000000   0.0000000   2.0440000   0.0000000   0.0000000   0.0000000   0.0000000
 NMagM=    2.7928460   0.0000000   0.0000000   0.0000000   2.7928460   0.4037610   0.0000000   0.0000000   2.7928460   0.0000000
 AtZNuc=   1.0000000   6.0000000   8.0000000   6.0000000   1.0000000   7.0000000   8.0000000   6.0000000   1.0000000   6.0000000

  Atom        51          52          53          54          55          56          57          58          59          60
 IAtWgt=          12          14           1           1           1           1           1          14          12          12
 AtmWgt=  12.0000000  14.0030740   1.0078250   1.0078250   1.0078250   1.0078250   1.0078250  14.0030740  12.0000000  12.0000000
 NucSpn=           0           2           1           1           1           1           1           2           0           0
 AtZEff=  -0.0000000  -0.0000000  -0.0000000  -0.0000000  -0.0000000  -0.0000000  -0.0000000  -0.0000000  -0.0000000  -0.0000000
 NQMom=    0.0000000   2.0440000   0.0000000   0.0000000   0.0000000   0.0000000   0.0000000   2.0440000   0.0000000   0.0000000
 NMagM=    0.0000000   0.4037610   2.7928460   2.7928460   2.7928460   2.7928460   2.7928460   0.4037610   0.0000000   0.0000000
 AtZNuc=   6.0000000   7.0000000   1.0000000   1.0000000   1.0000000   1.0000000   1.0000000   7.0000000   6.0000000   6.0000000

  Atom        61          62          63          64          65          66          67          68          69          70
 IAtWgt=          14           1          12          14           1          12          14          12          12          14
 AtmWgt=  14.0030740   1.0078250  12.0000000  14.0030740   1.0078250  12.0000000  14.0030740  12.0000000  12.0000000  14.0030740
 NucSpn=           2           1           0           2           1           0           2           0           0           2
 AtZEff=  -0.0000000  -0.0000000  -0.0000000  -0.0000000  -0.0000000  -0.0000000  -0.0000000  -0.0000000  -0.0000000  -0.0000000
 NQMom=    2.0440000   0.0000000   0.0000000   2.0440000   0.0000000   0.0000000   2.0440000   0.0000000   0.0000000   2.0440000
 NMagM=    0.4037610   2.7928460   0.0000000   0.4037610   2.7928460   0.0000000   0.4037610   0.0000000   0.0000000   0.4037610
 AtZNuc=   7.0000000   1.0000000   6.0000000   7.0000000   1.0000000   6.0000000   7.0000000   6.0000000   6.0000000   7.0000000
 Leave Link  101 at Fri Jan 19 15:32:27 2018, MaxMem=  4294967296 cpu:               6.4 elap:               0.2
 (Enter /share/apps/g16/l202.exe)
 Stoichiometry    C23H27N17O3
 Framework group  C1[X(C23H27N17O3)]
 Deg. of freedom   204
 Full point group                 C1      NOp   1
 Largest Abelian subgroup         C1      NOp   1
 Largest concise Abelian subgroup C1      NOp   1
                         Standard orientation:                         
 ---------------------------------------------------------------------
 Center     Atomic      Atomic             Coordinates (Angstroms)
 Number     Number       Type             X           Y           Z
 ---------------------------------------------------------------------
      1          7           0        4.868693   -1.124682   -1.637956
      2          6           0        6.189027   -0.493008   -1.826972
      3          6           0        2.703219   -1.468237   -1.464675
      4          7           0        3.309519   -2.697731   -1.251418
      5          6           0        4.589866   -2.441538   -1.364346
      6          1           0        5.382328   -3.182717   -1.256572
      7          7           0        1.091509    0.234371   -1.722410
      8          6           0        2.115901    1.066426   -1.936581
      9          1           0        1.841019    2.102821   -2.127849
     10          7           0        3.422735    0.811662   -1.949905
     11          6           0        3.651507   -0.489003   -1.704214
     12          6           0        1.354695   -1.067974   -1.478058
     13          7           0        0.333453   -1.900102   -1.264017
     14          1           0        0.481546   -2.872290   -1.079260
     15          1           0       -0.613951   -1.580276   -1.281040
     16          1           0        6.658955   -0.923896   -2.597468
     17          1           0        6.069399    0.481660   -2.013610
     18          1           0        6.737152   -0.607176   -0.998413
     19          7           0        5.243769    1.134538    0.968828
     20          6           0        3.881103    1.310946    0.977515
     21          6           0        6.233634    2.151368    0.560262
     22          7           0        1.104700    3.320305    0.415551
     23          1           0        0.111065    3.244172    0.493826
     24          1           0        1.468601    4.193397    0.089940
     25          7           0        3.222780    2.433807    0.617161
     26          6           0        1.913646    2.298097    0.732726
     27          7           0        1.294572    1.151346    1.167719
     28          1           0        0.287834    1.137672    1.224732
     29          6           0        1.951985   -0.015834    1.543693
     30          8           0        1.298638   -0.996044    1.921944
     31          6           0        3.359010    0.114675    1.424872
     32          7           0        4.373490   -0.794478    1.691680
     33          6           0        5.470915   -0.147162    1.407345
     34          1           0        6.476471   -0.558972    1.499887
     35          1           0        6.766189    1.808743   -0.212912
     36          1           0        5.757627    2.987595    0.291151
     37          1           0        6.845939    2.349053    1.324984
     38          1           0       -4.753904    1.495587    0.672026
     39          1           0       -4.712842    1.809893    2.405280
     40          1           0       -3.365622    2.316900    1.385805
     41          1           0       -4.180445   -2.971464    2.364118
     42          6           0       -3.587788   -2.073846    2.187299
     43          8           0       -1.503883   -3.196642    2.341537
     44          6           0       -2.160058   -2.169466    2.170816
     45          1           0       -0.497050   -1.003369    1.919955
     46          7           0       -1.506812   -0.975851    1.938882
     47          8           0       -1.415767    1.256470    1.531916
     48          6           0       -2.079270    0.253774    1.729467
     49          1           0       -5.257055   -0.762335    1.989015
     50          6           0       -4.175189   -0.888454    1.986247
     51          6           0       -4.116419    1.556501    1.541486
     52          7           0       -3.459898    0.264646    1.760198
     53          1           0       -6.185470    3.321957   -2.163774
     54          1           0       -4.846873    3.476830   -1.243845
     55          1           0       -6.309597    3.321310   -0.536502
     56          1           0       -3.053113   -3.321635   -1.107093
     57          1           0       -4.740491   -3.106083   -1.235177
     58          7           0       -3.830637   -2.695444   -1.166163
     59          6           0       -3.662741   -1.371508   -1.153529
     60          6           0       -4.390006    0.893390   -1.208932
     61          7           0       -3.156435    1.416809   -1.115354
     62          1           0       -1.211053    0.788902   -0.967649
     63          6           0       -2.243257    0.450271   -1.045965
     64          7           0       -2.409409   -0.876315   -1.058452
     65          1           0       -7.613661    0.874199   -1.453601
     66          6           0       -6.558399    0.611610   -1.373486
     67          7           0       -6.096100   -0.614240   -1.338289
     68          6           0       -4.722479   -0.449874   -1.234054
     69          6           0       -5.743699    3.040709   -1.311873
     70          7           0       -5.581088    1.573940   -1.299396
 ---------------------------------------------------------------------
 Rotational constants (GHZ):           0.1736517           0.0520355           0.0506781
 Leave Link  202 at Fri Jan 19 15:32:27 2018, MaxMem=  4294967296 cpu:               0.4 elap:               0.0
 (Enter /share/apps/g16/l301.exe)
 Standard basis: CC-pVDZ (5D, 7F)
 Ernie: Thresh=  0.10000D-02 Tol=  0.10000D-05 Strict=F.
 Ernie:  86 primitive shells out of 1081 were deleted.
 There are   780 symmetry adapted cartesian basis functions of A   symmetry.
 There are   737 symmetry adapted basis functions of A   symmetry.
   737 basis functions,  1608 primitive gaussians,   780 cartesian basis functions
   154 alpha electrons      154 beta electrons
       nuclear repulsion energy      5607.3282958154 Hartrees.
 IExCor= 4639 DFT=T Ex+Corr=wB97XD ExCW=0 ScaHFX=  1.000000
 ScaDFX=  1.000000  1.000000  1.000000  1.000000 ScalE2=  1.000000  1.000000
 IRadAn=      5 IRanWt=     -1 IRanGd=            0 ICorTp=0 IEmpDi=121
 HFx  wShort=  0.000000 wLong=  0.200000 cFull=  0.222036 cShort=  0.000000 cLong=  0.777964
 DFx  wShort=  0.000000 wLong=  0.200000 cFull=  0.000000 cShort=  0.000000 cLong=  1.000000
 NAtoms=   70 NActive=   70 NUniq=   70 SFac= 1.00D+00 NAtFMM=   60 NAOKFM=T Big=T
 Integral buffers will be    131072 words long.
 Raffenetti 2 integral format.
 Two-electron integral symmetry is turned on.
 R6Disp:  Grimme-D2 Dispersion energy=       -0.0799442625 Hartrees.
 Nuclear repulsion after empirical dispersion term =     5607.2483515529 Hartrees.
 Leave Link  301 at Fri Jan 19 15:32:27 2018, MaxMem=  4294967296 cpu:               2.1 elap:               0.1
 (Enter /share/apps/g16/l302.exe)
 NPDir=0 NMtPBC=     1 NCelOv=     1 NCel=       1 NClECP=     1 NCelD=      1
         NCelK=      1 NCelE2=     1 NClLst=     1 CellRange=     0.0.
 One-electron integrals computed using PRISM.
 One-electron integral symmetry used in STVInt
 NBasis=   737 RedAO= T EigKep=  6.42D-04  NBF=   737
 NBsUse=   737 1.00D-06 EigRej= -1.00D+00 NBFU=   737
 Precomputing XC quadrature grid using
 IXCGrd= 4 IRadAn=           5 IRanWt=          -1 IRanGd=           0 AccXCQ= 0.00D+00.
 Generated NRdTot=       0 NPtTot=           0 NUsed=           0 NTot=          32
 NSgBfM=   766   766   766   766   766 MxSgAt=    70 MxSgA2=    70.
 Leave Link  302 at Fri Jan 19 15:32:31 2018, MaxMem=  4294967296 cpu:             135.6 elap:               4.3
 (Enter /share/apps/g16/l303.exe)
 DipDrv:  MaxL=1.
 Leave Link  303 at Fri Jan 19 15:32:31 2018, MaxMem=  4294967296 cpu:              12.5 elap:               0.4
 (Enter /share/apps/g16/l401.exe)
 ExpMin= 1.22D-01 ExpMax= 1.17D+04 ExpMxC= 4.01D+02 IAcc=3 IRadAn=         5 AccDes= 0.00D+00
 Harris functional with IExCor= 4639 and IRadAn=       5 diagonalized for initial guess.
 HarFok:  IExCor= 4639 AccDes= 0.00D+00 IRadAn=         5 IDoV= 1 UseB2=F ITyADJ=14
 ICtDFT=  3500011 ScaDFX=  1.000000  1.000000  1.000000  1.000000
 FoFCou: FMM=F IPFlag=           0 FMFlag=      100000 FMFlg1=        2001
         NFxFlg=           0 DoJE=T BraDBF=F KetDBF=T FulRan=T
         wScrn=  0.000000 ICntrl=       500 IOpCl=  0 I1Cent=   200000004 NGrid=           0
         NMat0=    1 NMatS0=      1 NMatT0=    0 NMatD0=    1 NMtDS0=    0 NMtDT0=    0
 Petite list used in FoFCou.
 Harris En= -1963.86594918435    
 JPrj=0 DoOrth=F DoCkMO=F.
 Leave Link  401 at Fri Jan 19 15:32:44 2018, MaxMem=  4294967296 cpu:             413.6 elap:              13.0
 (Enter /share/apps/g16/l502.exe)
 Integral symmetry usage will be decided dynamically.
 Closed shell SCF:
 Using DIIS extrapolation, IDIIS=  1040.
 NGot=  4294967296 LenX=  4293717438 LenY=  4293108258
 Requested convergence on RMS density matrix=1.00D-08 within  20 cycles.
 Requested convergence on MAX density matrix=1.00D-06.
 Requested convergence on             energy=1.00D-06.
 No special actions if energy rises.
 Fock matrices will be formed incrementally for  20 cycles.
 Integral accuracy reduced to 1.0D-05 until final iterations.

 Cycle   1  Pass 0  IDiag  1:
 FoFJK:  IHMeth= 1 ICntrl=       0 DoSepK=T KAlg= 0 I1Cent=           0 FoldK=F
 IRaf=         1 NMat=       1 IRICut=       1 DoRegI=T DoRafI=F ISym2E= 0 IDoP0=0 IntGTp=1.
 FoFCou: FMM=T IPFlag=           0 FMFlag=      100000 FMFlg1=        2001
         NFxFlg=           0 DoJE=T BraDBF=F KetDBF=F FulRan=T
         wScrn=  0.000000 ICntrl=       500 IOpCl=  0 I1Cent=           0 NGrid=           0
         NMat0=    1 NMatS0=      1 NMatT0=    0 NMatD0=    1 NMtDS0=    0 NMtDT0=    0
 Symmetry not used in FoFCou.
 FMM levels:  10  Number of levels for PrismC:   9
 E= -2048.30348276087    
 DIIS: error= 2.05D-02 at cycle   1 NSaved=   1.
 NSaved= 1 IEnMin= 1 EnMin= -2048.30348276087     IErMin= 1 ErrMin= 2.05D-02
 ErrMax= 2.05D-02  0.00D+00 EMaxC= 1.00D-01 BMatC= 8.33D-01 BMatP= 8.33D-01
 IDIUse=3 WtCom= 7.95D-01 WtEn= 2.05D-01
 Coeff-Com:  0.100D+01
 Coeff-En:   0.100D+01
 Coeff:      0.100D+01
 Gap=     0.261 Goal=   None    Shift=    0.000
 GapD=    0.261 DampG=1.000 DampE=0.500 DampFc=0.5000 IDamp=-1.
 Damping current iteration by 5.00D-01
 RMSDP=1.59D-03 MaxDP=1.28D-01              OVMax= 2.05D-01

 Cycle   2  Pass 0  IDiag  1:
 RMSU=  7.95D-04    CP:  9.98D-01
 E= -2048.50004327179     Delta-E=       -0.196560510925 Rises=F Damp=T
 DIIS: error= 9.78D-03 at cycle   2 NSaved=   2.
 NSaved= 2 IEnMin= 2 EnMin= -2048.50004327179     IErMin= 2 ErrMin= 9.78D-03
 ErrMax= 9.78D-03  0.00D+00 EMaxC= 1.00D-01 BMatC= 1.45D-01 BMatP= 8.33D-01
 IDIUse=3 WtCom= 9.02D-01 WtEn= 9.78D-02
 Coeff-Com: -0.195D+00 0.120D+01
 Coeff-En:   0.000D+00 0.100D+01
 Coeff:     -0.176D+00 0.118D+01
 Gap=     0.297 Goal=   None    Shift=    0.000
 RMSDP=6.00D-04 MaxDP=3.54D-02 DE=-1.97D-01 OVMax= 1.58D-01

 Cycle   3  Pass 0  IDiag  1:
 RMSU=  5.88D-04    CP:  9.94D-01  1.14D+00
 E= -2048.67651364928     Delta-E=       -0.176470377487 Rises=F Damp=F
 DIIS: error= 7.79D-03 at cycle   3 NSaved=   3.
 NSaved= 3 IEnMin= 3 EnMin= -2048.67651364928     IErMin= 3 ErrMin= 7.79D-03
 ErrMax= 7.79D-03  0.00D+00 EMaxC= 1.00D-01 BMatC= 6.71D-02 BMatP= 1.45D-01
 IDIUse=3 WtCom= 9.22D-01 WtEn= 7.79D-02
 Coeff-Com: -0.236D+00 0.560D+00 0.675D+00
 Coeff-En:   0.000D+00 0.000D+00 0.100D+01
 Coeff:     -0.217D+00 0.516D+00 0.701D+00
 Gap=     0.284 Goal=   None    Shift=    0.000
 RMSDP=3.76D-04 MaxDP=3.40D-02 DE=-1.76D-01 OVMax= 5.80D-02

 Cycle   4  Pass 0  IDiag  1:
 RMSU=  2.10D-04    CP:  9.94D-01  1.43D+00  6.53D-01
 E= -2048.72646522443     Delta-E=       -0.049951575150 Rises=F Damp=F
 DIIS: error= 2.88D-03 at cycle   4 NSaved=   4.
 NSaved= 4 IEnMin= 4 EnMin= -2048.72646522443     IErMin= 4 ErrMin= 2.88D-03
 ErrMax= 2.88D-03  0.00D+00 EMaxC= 1.00D-01 BMatC= 1.00D-02 BMatP= 6.71D-02
 IDIUse=3 WtCom= 9.71D-01 WtEn= 2.88D-02
 Coeff-Com: -0.976D-01 0.189D+00 0.379D+00 0.529D+00
 Coeff-En:   0.000D+00 0.000D+00 0.763D-01 0.924D+00
 Coeff:     -0.948D-01 0.184D+00 0.371D+00 0.541D+00
 Gap=     0.285 Goal=   None    Shift=    0.000
 RMSDP=1.33D-04 MaxDP=1.14D-02 DE=-5.00D-02 OVMax= 1.49D-02

 Cycle   5  Pass 0  IDiag  1:
 RMSU=  6.27D-05    CP:  9.94D-01  1.40D+00  7.91D-01  6.15D-01
 E= -2048.73472087297     Delta-E=       -0.008255648538 Rises=F Damp=F
 DIIS: error= 4.82D-04 at cycle   5 NSaved=   5.
 NSaved= 5 IEnMin= 5 EnMin= -2048.73472087297     IErMin= 5 ErrMin= 4.82D-04
 ErrMax= 4.82D-04  0.00D+00 EMaxC= 1.00D-01 BMatC= 3.01D-04 BMatP= 1.00D-02
 IDIUse=3 WtCom= 9.95D-01 WtEn= 4.82D-03
 Coeff-Com: -0.257D-01 0.443D-01 0.124D+00 0.239D+00 0.619D+00
 Coeff-En:   0.000D+00 0.000D+00 0.000D+00 0.000D+00 0.100D+01
 Coeff:     -0.256D-01 0.441D-01 0.123D+00 0.238D+00 0.621D+00
 Gap=     0.284 Goal=   None    Shift=    0.000
 RMSDP=2.70D-05 MaxDP=1.70D-03 DE=-8.26D-03 OVMax= 3.20D-03

 Failed to achieve initial convergence to 1.0D-08 in  6 cycles.
 Switch to full accuracy anyway.
 Cycle   6  Pass 1  IDiag  1:
 E= -2048.73481328208     Delta-E=       -0.000092409113 Rises=F Damp=F
 DIIS: error= 2.47D-04 at cycle   1 NSaved=   1.
 NSaved= 1 IEnMin= 1 EnMin= -2048.73481328208     IErMin= 1 ErrMin= 2.47D-04
 ErrMax= 2.47D-04  0.00D+00 EMaxC= 1.00D-01 BMatC= 7.88D-05 BMatP= 7.88D-05
 IDIUse=3 WtCom= 9.98D-01 WtEn= 2.47D-03
 Coeff-Com:  0.100D+01
 Coeff-En:   0.100D+01
 Coeff:      0.100D+01
 Gap=     0.284 Goal=   None    Shift=    0.000
 RMSDP=2.70D-05 MaxDP=1.70D-03 DE=-9.24D-05 OVMax= 2.69D-03

 Cycle   7  Pass 1  IDiag  1:
 RMSU=  1.20D-04    CP:  1.00D+00
 E= -2048.73486745916     Delta-E=       -0.000054177078 Rises=F Damp=F
 DIIS: error= 1.72D-04 at cycle   2 NSaved=   2.
 NSaved= 2 IEnMin= 2 EnMin= -2048.73486745916     IErMin= 2 ErrMin= 1.72D-04
 ErrMax= 1.72D-04  0.00D+00 EMaxC= 1.00D-01 BMatC= 4.77D-05 BMatP= 7.88D-05
 IDIUse=3 WtCom= 9.98D-01 WtEn= 1.72D-03
 Coeff-Com:  0.416D+00 0.584D+00
 Coeff-En:   0.219D-01 0.978D+00
 Coeff:      0.415D+00 0.585D+00
 Gap=     0.285 Goal=   None    Shift=    0.000
 RMSDP=1.24D-05 MaxDP=9.27D-04 DE=-5.42D-05 OVMax= 1.68D-03

 Cycle   8  Pass 1  IDiag  1:
 RMSU=  1.21D-05    CP:  1.00D+00  1.02D+00
 E= -2048.73490240047     Delta-E=       -0.000034941315 Rises=F Damp=F
 DIIS: error= 7.60D-05 at cycle   3 NSaved=   3.
 NSaved= 3 IEnMin= 3 EnMin= -2048.73490240047     IErMin= 3 ErrMin= 7.60D-05
 ErrMax= 7.60D-05  0.00D+00 EMaxC= 1.00D-01 BMatC= 1.07D-05 BMatP= 4.77D-05
 IDIUse=1 WtCom= 1.00D+00 WtEn= 0.00D+00
 Coeff-Com: -0.188D-01 0.308D+00 0.711D+00
 Coeff:     -0.188D-01 0.308D+00 0.711D+00
 Gap=     0.285 Goal=   None    Shift=    0.000
 RMSDP=5.90D-06 MaxDP=4.14D-04 DE=-3.49D-05 OVMax= 6.35D-04

 Cycle   9  Pass 1  IDiag  1:
 RMSU=  3.88D-06    CP:  1.00D+00  1.05D+00  7.58D-01
 E= -2048.73491259013     Delta-E=       -0.000010189656 Rises=F Damp=F
 DIIS: error= 2.39D-05 at cycle   4 NSaved=   4.
 NSaved= 4 IEnMin= 4 EnMin= -2048.73491259013     IErMin= 4 ErrMin= 2.39D-05
 ErrMax= 2.39D-05  0.00D+00 EMaxC= 1.00D-01 BMatC= 5.32D-07 BMatP= 1.07D-05
 IDIUse=1 WtCom= 1.00D+00 WtEn= 0.00D+00
 Coeff-Com: -0.302D-01 0.881D-01 0.271D+00 0.672D+00
 Coeff:     -0.302D-01 0.881D-01 0.271D+00 0.672D+00
 Gap=     0.285 Goal=   None    Shift=    0.000
 RMSDP=1.45D-06 MaxDP=1.20D-04 DE=-1.02D-05 OVMax= 4.74D-04

 Cycle  10  Pass 1  IDiag  1:
 RMSU=  1.30D-06    CP:  1.00D+00  1.05D+00  7.93D-01  1.09D+00
 E= -2048.73491343294     Delta-E=       -0.000000842816 Rises=F Damp=F
 DIIS: error= 9.48D-06 at cycle   5 NSaved=   5.
 NSaved= 5 IEnMin= 5 EnMin= -2048.73491343294     IErMin= 5 ErrMin= 9.48D-06
 ErrMax= 9.48D-06  0.00D+00 EMaxC= 1.00D-01 BMatC= 1.14D-07 BMatP= 5.32D-07
 IDIUse=1 WtCom= 1.00D+00 WtEn= 0.00D+00
 Coeff-Com: -0.323D-02-0.522D-01-0.112D+00 0.195D+00 0.972D+00
 Coeff:     -0.323D-02-0.522D-01-0.112D+00 0.195D+00 0.972D+00
 Gap=     0.285 Goal=   None    Shift=    0.000
 RMSDP=1.18D-06 MaxDP=7.48D-05 DE=-8.43D-07 OVMax= 2.66D-04

 Cycle  11  Pass 1  IDiag  1:
 RMSU=  4.97D-07    CP:  1.00D+00  1.05D+00  8.02D-01  1.36D+00  1.18D+00
 E= -2048.73491368282     Delta-E=       -0.000000249873 Rises=F Damp=F
 DIIS: error= 6.47D-06 at cycle   6 NSaved=   6.
 NSaved= 6 IEnMin= 6 EnMin= -2048.73491368282     IErMin= 6 ErrMin= 6.47D-06
 ErrMax= 6.47D-06  0.00D+00 EMaxC= 1.00D-01 BMatC= 3.10D-08 BMatP= 1.14D-07
 IDIUse=1 WtCom= 1.00D+00 WtEn= 0.00D+00
 Coeff-Com:  0.467D-02-0.452D-01-0.115D+00-0.100D-01 0.533D+00 0.633D+00
 Coeff:      0.467D-02-0.452D-01-0.115D+00-0.100D-01 0.533D+00 0.633D+00
 Gap=     0.285 Goal=   None    Shift=    0.000
 RMSDP=3.86D-07 MaxDP=3.35D-05 DE=-2.50D-07 OVMax= 1.29D-04

 Cycle  12  Pass 1  IDiag  1:
 RMSU=  1.91D-07    CP:  1.00D+00  1.05D+00  8.04D-01  1.43D+00  1.32D+00
                    CP:  9.33D-01
 E= -2048.73491372614     Delta-E=       -0.000000043322 Rises=F Damp=F
 DIIS: error= 8.17D-07 at cycle   7 NSaved=   7.
 NSaved= 7 IEnMin= 7 EnMin= -2048.73491372614     IErMin= 7 ErrMin= 8.17D-07
 ErrMax= 8.17D-07  0.00D+00 EMaxC= 1.00D-01 BMatC= 7.27D-10 BMatP= 3.10D-08
 IDIUse=1 WtCom= 1.00D+00 WtEn= 0.00D+00
 Coeff-Com:  0.104D-02-0.683D-02-0.189D-01-0.974D-02 0.538D-01 0.124D+00
 Coeff-Com:  0.857D+00
 Coeff:      0.104D-02-0.683D-02-0.189D-01-0.974D-02 0.538D-01 0.124D+00
 Coeff:      0.857D+00
 Gap=     0.285 Goal=   None    Shift=    0.000
 RMSDP=8.68D-08 MaxDP=5.47D-06 DE=-4.33D-08 OVMax= 2.61D-05

 Cycle  13  Pass 1  IDiag  1:
 RMSU=  5.23D-08    CP:  1.00D+00  1.05D+00  8.04D-01  1.44D+00  1.34D+00
                    CP:  1.02D+00  1.14D+00
 E= -2048.73491372807     Delta-E=       -0.000000001934 Rises=F Damp=F
 DIIS: error= 4.91D-07 at cycle   8 NSaved=   8.
 NSaved= 8 IEnMin= 8 EnMin= -2048.73491372807     IErMin= 8 ErrMin= 4.91D-07
 ErrMax= 4.91D-07  0.00D+00 EMaxC= 1.00D-01 BMatC= 3.15D-10 BMatP= 7.27D-10
 IDIUse=1 WtCom= 1.00D+00 WtEn= 0.00D+00
 Coeff-Com: -0.740D-03 0.888D-02 0.217D-01-0.400D-03-0.116D+00-0.108D+00
 Coeff-Com:  0.420D+00 0.774D+00
 Coeff:     -0.740D-03 0.888D-02 0.217D-01-0.400D-03-0.116D+00-0.108D+00
 Coeff:      0.420D+00 0.774D+00
 Gap=     0.285 Goal=   None    Shift=    0.000
 RMSDP=4.92D-08 MaxDP=2.67D-06 DE=-1.93D-09 OVMax= 1.17D-05

 Cycle  14  Pass 1  IDiag  1:
 RMSU=  2.88D-08    CP:  1.00D+00  1.05D+00  8.04D-01  1.44D+00  1.34D+00
                    CP:  1.07D+00  1.30D+00  1.07D+00
 E= -2048.73491372873     Delta-E=       -0.000000000659 Rises=F Damp=F
 DIIS: error= 1.57D-07 at cycle   9 NSaved=   9.
 NSaved= 9 IEnMin= 9 EnMin= -2048.73491372873     IErMin= 9 ErrMin= 1.57D-07
 ErrMax= 1.57D-07  0.00D+00 EMaxC= 1.00D-01 BMatC= 2.55D-11 BMatP= 3.15D-10
 IDIUse=1 WtCom= 1.00D+00 WtEn= 0.00D+00
 Coeff-Com: -0.392D-03 0.411D-02 0.102D-01 0.996D-03-0.489D-01-0.542D-01
 Coeff-Com:  0.789D-01 0.282D+00 0.727D+00
 Coeff:     -0.392D-03 0.411D-02 0.102D-01 0.996D-03-0.489D-01-0.542D-01
 Coeff:      0.789D-01 0.282D+00 0.727D+00
 Gap=     0.285 Goal=   None    Shift=    0.000
 RMSDP=1.33D-08 MaxDP=6.84D-07 DE=-6.59D-10 OVMax= 3.42D-06

 Cycle  15  Pass 1  IDiag  1:
 RMSU=  9.15D-09    CP:  1.00D+00  1.05D+00  8.04D-01  1.44D+00  1.34D+00
                    CP:  1.07D+00  1.32D+00  1.21D+00  1.10D+00
 E= -2048.73491372870     Delta-E=        0.000000000036 Rises=F Damp=F
 DIIS: error= 5.79D-08 at cycle  10 NSaved=  10.
 NSaved=10 IEnMin= 9 EnMin= -2048.73491372873     IErMin=10 ErrMin= 5.79D-08
 ErrMax= 5.79D-08  0.00D+00 EMaxC= 1.00D-01 BMatC= 4.98D-12 BMatP= 2.55D-11
 IDIUse=1 WtCom= 1.00D+00 WtEn= 0.00D+00
 Coeff-Com:  0.199D-04-0.448D-03-0.101D-02 0.171D-03 0.719D-02 0.326D-02
 Coeff-Com: -0.614D-01-0.755D-01 0.263D+00 0.865D+00
 Coeff:      0.199D-04-0.448D-03-0.101D-02 0.171D-03 0.719D-02 0.326D-02
 Coeff:     -0.614D-01-0.755D-01 0.263D+00 0.865D+00
 Gap=     0.285 Goal=   None    Shift=    0.000
 RMSDP=7.25D-09 MaxDP=3.76D-07 DE= 3.64D-11 OVMax= 1.64D-06

 SCF Done:  E(RwB97XD) =  -2048.73491373     A.U. after   15 cycles
            NFock= 15  Conv=0.72D-08     -V/T= 2.0053
 KE= 2.037898747696D+03 PE=-1.599485785975D+04 EE= 6.300975846774D+03
 Leave Link  502 at Fri Jan 19 15:45:07 2018, MaxMem=  4294967296 cpu:           22665.9 elap:             742.3
 (Enter /share/apps/g16/l601.exe)
 Copying SCF densities to generalized density rwf, IOpCl= 0 IROHF=0.

 **********************************************************************

            Population analysis using the SCF density.

 **********************************************************************

 Orbital symmetries:
       Occupied  (A) (A) (A) (A) (A) (A) (A) (A) (A) (A) (A) (A)
                 (A) (A) (A) (A) (A) (A) (A) (A) (A) (A) (A) (A)
                 (A) (A) (A) (A) (A) (A) (A) (A) (A) (A) (A) (A)
                 (A) (A) (A) (A) (A) (A) (A) (A) (A) (A) (A) (A)
                 (A) (A) (A) (A) (A) (A) (A) (A) (A) (A) (A) (A)
                 (A) (A) (A) (A) (A) (A) (A) (A) (A) (A) (A) (A)
                 (A) (A) (A) (A) (A) (A) (A) (A) (A) (A) (A) (A)
                 (A) (A) (A) (A) (A) (A) (A) (A) (A) (A) (A) (A)
                 (A) (A) (A) (A) (A) (A) (A) (A) (A) (A) (A) (A)
                 (A) (A) (A) (A) (A) (A) (A) (A) (A) (A) (A) (A)
                 (A) (A) (A) (A) (A) (A) (A) (A) (A) (A) (A) (A)
                 (A) (A) (A) (A) (A) (A) (A) (A) (A) (A) (A) (A)
                 (A) (A) (A) (A) (A) (A) (A) (A) (A) (A)
       Virtual   (A) (A) (A) (A) (A) (A) (A) (A) (A) (A) (A) (A)
                 (A) (A) (A) (A) (A) (A) (A) (A) (A) (A) (A) (A)
                 (A) (A) (A) (A) (A) (A) (A) (A) (A) (A) (A) (A)
                 (A) (A) (A) (A) (A) (A) (A) (A) (A) (A) (A) (A)
                 (A) (A) (A) (A) (A) (A) (A) (A) (A) (A) (A) (A)
                 (A) (A) (A) (A) (A) (A) (A) (A) (A) (A) (A) (A)
                 (A) (A) (A) (A) (A) (A) (A) (A) (A) (A) (A) (A)
                 (A) (A) (A) (A) (A) (A) (A) (A) (A) (A) (A) (A)
                 (A) (A) (A) (A) (A) (A) (A) (A) (A) (A) (A) (A)
                 (A) (A) (A) (A) (A) (A) (A) (A) (A) (A) (A) (A)
                 (A) (A) (A) (A) (A) (A) (A) (A) (A) (A) (A) (A)
                 (A) (A) (A) (A) (A) (A) (A) (A) (A) (A) (A) (A)
                 (A) (A) (A) (A) (A) (A) (A) (A) (A) (A) (A) (A)
                 (A) (A) (A) (A) (A) (A) (A) (A) (A) (A) (A) (A)
                 (A) (A) (A) (A) (A) (A) (A) (A) (A) (A) (A) (A)
                 (A) (A) (A) (A) (A) (A) (A) (A) (A) (A) (A) (A)
                 (A) (A) (A) (A) (A) (A) (A) (A) (A) (A) (A) (A)
                 (A) (A) (A) (A) (A) (A) (A) (A) (A) (A) (A) (A)
                 (A) (A) (A) (A) (A) (A) (A) (A) (A) (A) (A) (A)
                 (A) (A) (A) (A) (A) (A) (A) (A) (A) (A) (A) (A)
                 (A) (A) (A) (A) (A) (A) (A) (A) (A) (A) (A) (A)
                 (A) (A) (A) (A) (A) (A) (A) (A) (A) (A) (A) (A)
                 (A) (A) (A) (A) (A) (A) (A) (A) (A) (A) (A) (A)
                 (A) (A) (A) (A) (A) (A) (A) (A) (A) (A) (A) (A)
                 (A) (A) (A) (A) (A) (A) (A) (A) (A) (A) (A) (A)
                 (A) (A) (A) (A) (A) (A) (A) (A) (A) (A) (A) (A)
                 (A) (A) (A) (A) (A) (A) (A) (A) (A) (A) (A) (A)
                 (A) (A) (A) (A) (A) (A) (A) (A) (A) (A) (A) (A)
                 (A) (A) (A) (A) (A) (A) (A) (A) (A) (A) (A) (A)
                 (A) (A) (A) (A) (A) (A) (A) (A) (A) (A) (A) (A)
                 (A) (A) (A) (A) (A) (A) (A) (A) (A) (A) (A) (A)
                 (A) (A) (A) (A) (A) (A) (A) (A) (A) (A) (A) (A)
                 (A) (A) (A) (A) (A) (A) (A) (A) (A) (A) (A) (A)
                 (A) (A) (A) (A) (A) (A) (A) (A) (A) (A) (A) (A)
                 (A) (A) (A) (A) (A) (A) (A) (A) (A) (A) (A) (A)
                 (A) (A) (A) (A) (A) (A) (A) (A) (A) (A) (A) (A)
                 (A) (A) (A) (A) (A) (A) (A) (A) (A) (A) (A) (A)
                 (A) (A) (A) (A) (A) (A) (A) (A) (A) (A) (A) (A)
                 (A) (A) (A) (A) (A) (A) (A) (A) (A) (A) (A) (A)
                 (A) (A) (A) (A) (A) (A) (A) (A) (A) (A) (A) (A)
                 (A) (A) (A) (A) (A) (A) (A) (A) (A) (A) (A) (A)
                 (A) (A) (A) (A) (A) (A) (A) (A) (A) (A) (A) (A)
                 (A) (A) (A) (A) (A) (A) (A) (A) (A) (A) (A) (A)
                 (A) (A) (A) (A) (A) (A) (A) (A) (A) (A) (A) (A)
                 (A) (A) (A) (A) (A) (A) (A) (A) (A) (A) (A) (A)
                 (A) (A) (A) (A) (A) (A) (A) (A) (A) (A) (A) (A)
                 (A) (A) (A) (A) (A) (A) (A) (A) (A) (A) (A) (A)
                 (A) (A) (A) (A) (A) (A) (A) (A) (A) (A) (A) (A)
                 (A) (A) (A) (A) (A) (A) (A)
 The electronic state is 1-A.
 Alpha  occ. eigenvalues --  -19.25116 -19.21399 -19.20616 -14.52899 -14.51660
 Alpha  occ. eigenvalues --  -14.49169 -14.48893 -14.48432 -14.47151 -14.46597
 Alpha  occ. eigenvalues --  -14.46594 -14.45780 -14.44703 -14.44611 -14.42925
 Alpha  occ. eigenvalues --  -14.41759 -14.41349 -14.41340 -14.41290 -14.40869
 Alpha  occ. eigenvalues --  -10.44743 -10.41007 -10.40361 -10.39485 -10.38331
 Alpha  occ. eigenvalues --  -10.38222 -10.37573 -10.37031 -10.36260 -10.35941
 Alpha  occ. eigenvalues --  -10.34445 -10.34384 -10.34114 -10.33792 -10.33738
 Alpha  occ. eigenvalues --  -10.33623 -10.33492 -10.33065 -10.31458 -10.31331
 Alpha  occ. eigenvalues --  -10.30390 -10.28752 -10.28285  -1.18803  -1.15774
 Alpha  occ. eigenvalues --   -1.13212  -1.12405  -1.11477  -1.10813  -1.09729
 Alpha  occ. eigenvalues --   -1.08607  -1.08468  -1.05560  -1.05228  -1.01792
 Alpha  occ. eigenvalues --   -1.01409  -1.00940  -0.99645  -0.98529  -0.97379
 Alpha  occ. eigenvalues --   -0.97114  -0.96807  -0.93250  -0.90292  -0.88125
 Alpha  occ. eigenvalues --   -0.86355  -0.84533  -0.84074  -0.82963  -0.82759
 Alpha  occ. eigenvalues --   -0.82606  -0.78162  -0.77461  -0.75313  -0.74768
 Alpha  occ. eigenvalues --   -0.73612  -0.73239  -0.72670  -0.71452  -0.70804
 Alpha  occ. eigenvalues --   -0.67421  -0.67192  -0.66678  -0.65919  -0.64644
 Alpha  occ. eigenvalues --   -0.64398  -0.63493  -0.63147  -0.62578  -0.61855
 Alpha  occ. eigenvalues --   -0.61741  -0.60957  -0.60783  -0.59914  -0.58934
 Alpha  occ. eigenvalues --   -0.58691  -0.58404  -0.58149  -0.56985  -0.56092
 Alpha  occ. eigenvalues --   -0.55697  -0.55646  -0.55535  -0.54432  -0.54291
 Alpha  occ. eigenvalues --   -0.54121  -0.53954  -0.53323  -0.53206  -0.52972
 Alpha  occ. eigenvalues --   -0.52725  -0.52073  -0.51585  -0.50855  -0.50472
 Alpha  occ. eigenvalues --   -0.50292  -0.50128  -0.49343  -0.49254  -0.48981
 Alpha  occ. eigenvalues --   -0.48587  -0.48286  -0.48135  -0.47915  -0.47316
 Alpha  occ. eigenvalues --   -0.47061  -0.45914  -0.45415  -0.44965  -0.42429
 Alpha  occ. eigenvalues --   -0.41376  -0.41071  -0.38856  -0.38051  -0.37881
 Alpha  occ. eigenvalues --   -0.37777  -0.37178  -0.36857  -0.35822  -0.35031
 Alpha  occ. eigenvalues --   -0.34609  -0.34295  -0.33818  -0.33479  -0.32950
 Alpha  occ. eigenvalues --   -0.32829  -0.32481  -0.31897  -0.31173  -0.31022
 Alpha  occ. eigenvalues --   -0.30643  -0.30419  -0.26688  -0.24988
 Alpha virt. eigenvalues --    0.03471   0.03825   0.06712   0.07079   0.08410
 Alpha virt. eigenvalues --    0.09072   0.09774   0.10019   0.11139   0.12712
 Alpha virt. eigenvalues --    0.12993   0.13459   0.14095   0.14427   0.14669
 Alpha virt. eigenvalues --    0.15089   0.16192   0.17574   0.17974   0.18066
 Alpha virt. eigenvalues --    0.18374   0.19240   0.19520   0.20389   0.20549
 Alpha virt. eigenvalues --    0.20636   0.21046   0.21161   0.21850   0.21938
 Alpha virt. eigenvalues --    0.22252   0.22785   0.23159   0.23457   0.23777
 Alpha virt. eigenvalues --    0.23950   0.24245   0.24972   0.25371   0.26245
 Alpha virt. eigenvalues --    0.26453   0.27496   0.27835   0.27996   0.28324
 Alpha virt. eigenvalues --    0.28611   0.28771   0.29695   0.30605   0.31309
 Alpha virt. eigenvalues --    0.31604   0.32073   0.32309   0.33331   0.33581
 Alpha virt. eigenvalues --    0.34147   0.34788   0.35526   0.35930   0.36609
 Alpha virt. eigenvalues --    0.36987   0.37037   0.37813   0.38374   0.38833
 Alpha virt. eigenvalues --    0.38978   0.39990   0.40854   0.41103   0.41648
 Alpha virt. eigenvalues --    0.42006   0.42577   0.43249   0.43739   0.44374
 Alpha virt. eigenvalues --    0.45393   0.45643   0.46112   0.46402   0.46680
 Alpha virt. eigenvalues --    0.46862   0.47538   0.48140   0.48595   0.49011
 Alpha virt. eigenvalues --    0.49444   0.49648   0.50827   0.51129   0.51476
 Alpha virt. eigenvalues --    0.51935   0.52627   0.53082   0.53344   0.53657
 Alpha virt. eigenvalues --    0.54502   0.54684   0.55105   0.55382   0.55915
 Alpha virt. eigenvalues --    0.56204   0.56346   0.56499   0.57217   0.57697
 Alpha virt. eigenvalues --    0.57843   0.58002   0.58195   0.58771   0.59721
 Alpha virt. eigenvalues --    0.60257   0.60721   0.61059   0.61311   0.61673
 Alpha virt. eigenvalues --    0.62259   0.62803   0.62999   0.63165   0.63357
 Alpha virt. eigenvalues --    0.64018   0.64850   0.64919   0.65616   0.65976
 Alpha virt. eigenvalues --    0.66445   0.66678   0.66936   0.68002   0.68321
 Alpha virt. eigenvalues --    0.68547   0.69389   0.69580   0.70081   0.70389
 Alpha virt. eigenvalues --    0.70590   0.70909   0.71639   0.72586   0.72793
 Alpha virt. eigenvalues --    0.73216   0.73658   0.74143   0.74566   0.74694
 Alpha virt. eigenvalues --    0.74868   0.75036   0.75297   0.75553   0.75811
 Alpha virt. eigenvalues --    0.76437   0.76813   0.77080   0.77362   0.77901
 Alpha virt. eigenvalues --    0.78301   0.78596   0.79005   0.79333   0.79647
 Alpha virt. eigenvalues --    0.79926   0.80132   0.80997   0.81283   0.81604
 Alpha virt. eigenvalues --    0.81975   0.82318   0.82790   0.82943   0.83475
 Alpha virt. eigenvalues --    0.84259   0.84717   0.85297   0.85388   0.85853
 Alpha virt. eigenvalues --    0.86225   0.87057   0.87201   0.87519   0.87881
 Alpha virt. eigenvalues --    0.88754   0.88768   0.89409   0.89888   0.90168
 Alpha virt. eigenvalues --    0.90542   0.91068   0.91817   0.92288   0.92793
 Alpha virt. eigenvalues --    0.93734   0.93771   0.94437   0.94837   0.95258
 Alpha virt. eigenvalues --    0.95680   0.95894   0.96555   0.97082   0.97448
 Alpha virt. eigenvalues --    0.97938   0.98647   0.99015   0.99488   0.99910
 Alpha virt. eigenvalues --    1.00131   1.00196   1.01334   1.01810   1.02105
 Alpha virt. eigenvalues --    1.02407   1.02686   1.03516   1.04005   1.04200
 Alpha virt. eigenvalues --    1.04632   1.05352   1.06136   1.06741   1.07102
 Alpha virt. eigenvalues --    1.07389   1.08122   1.08511   1.08999   1.09830
 Alpha virt. eigenvalues --    1.10051   1.10828   1.11299   1.11448   1.12047
 Alpha virt. eigenvalues --    1.12657   1.13069   1.13360   1.13878   1.14439
 Alpha virt. eigenvalues --    1.14650   1.15192   1.15687   1.16110   1.16370
 Alpha virt. eigenvalues --    1.17035   1.17188   1.17781   1.17840   1.18054
 Alpha virt. eigenvalues --    1.18614   1.19003   1.19290   1.19542   1.20667
 Alpha virt. eigenvalues --    1.20877   1.21138   1.21372   1.21782   1.21923
 Alpha virt. eigenvalues --    1.22374   1.23041   1.23663   1.23921   1.24315
 Alpha virt. eigenvalues --    1.24663   1.25667   1.26134   1.26310   1.26750
 Alpha virt. eigenvalues --    1.27501   1.27700   1.28616   1.29144   1.29318
 Alpha virt. eigenvalues --    1.29813   1.30392   1.31386   1.31884   1.32092
 Alpha virt. eigenvalues --    1.32503   1.33078   1.33548   1.34578   1.34919
 Alpha virt. eigenvalues --    1.35081   1.35547   1.36670   1.37335   1.38170
 Alpha virt. eigenvalues --    1.38702   1.40102   1.40789   1.41194   1.41820
 Alpha virt. eigenvalues --    1.42425   1.43280   1.43697   1.44386   1.45374
 Alpha virt. eigenvalues --    1.46393   1.46785   1.46945   1.47927   1.49032
 Alpha virt. eigenvalues --    1.50346   1.50635   1.51191   1.52021   1.52580
 Alpha virt. eigenvalues --    1.53184   1.54485   1.54880   1.55626   1.56358
 Alpha virt. eigenvalues --    1.56809   1.57025   1.58242   1.59108   1.60452
 Alpha virt. eigenvalues --    1.60590   1.60820   1.61113   1.61931   1.62222
 Alpha virt. eigenvalues --    1.62463   1.63853   1.64183   1.64802   1.65291
 Alpha virt. eigenvalues --    1.65695   1.67057   1.67406   1.67535   1.67698
 Alpha virt. eigenvalues --    1.68167   1.68935   1.69380   1.69972   1.70175
 Alpha virt. eigenvalues --    1.70531   1.71256   1.71688   1.72079   1.73039
 Alpha virt. eigenvalues --    1.73236   1.73481   1.73671   1.74150   1.74378
 Alpha virt. eigenvalues --    1.74579   1.75228   1.75436   1.76072   1.76605
 Alpha virt. eigenvalues --    1.76773   1.77043   1.77348   1.77524   1.77865
 Alpha virt. eigenvalues --    1.78768   1.78893   1.79791   1.79973   1.80078
 Alpha virt. eigenvalues --    1.80287   1.80971   1.81610   1.81816   1.82131
 Alpha virt. eigenvalues --    1.82506   1.82839   1.82931   1.83522   1.83943
 Alpha virt. eigenvalues --    1.84678   1.84932   1.85394   1.85807   1.85910
 Alpha virt. eigenvalues --    1.86989   1.87253   1.87859   1.88297   1.88590
 Alpha virt. eigenvalues --    1.88883   1.89149   1.89709   1.90126   1.90718
 Alpha virt. eigenvalues --    1.91068   1.91458   1.92006   1.93162   1.93775
 Alpha virt. eigenvalues --    1.94390   1.95050   1.95681   1.96017   1.96465
 Alpha virt. eigenvalues --    1.96833   1.97545   1.97981   1.98919   1.99724
 Alpha virt. eigenvalues --    2.00309   2.00837   2.00886   2.01804   2.02874
 Alpha virt. eigenvalues --    2.03252   2.03531   2.04270   2.04694   2.05570
 Alpha virt. eigenvalues --    2.06024   2.07035   2.07473   2.07845   2.09178
 Alpha virt. eigenvalues --    2.09739   2.09946   2.10263   2.11322   2.11582
 Alpha virt. eigenvalues --    2.12142   2.13245   2.14330   2.14821   2.15212
 Alpha virt. eigenvalues --    2.16617   2.17020   2.17662   2.17957   2.19324
 Alpha virt. eigenvalues --    2.20254   2.20929   2.21939   2.22488   2.22727
 Alpha virt. eigenvalues --    2.23066   2.23241   2.24045   2.24968   2.25420
 Alpha virt. eigenvalues --    2.25961   2.26436   2.26896   2.27212   2.27897
 Alpha virt. eigenvalues --    2.28242   2.29425   2.29541   2.29969   2.30734
 Alpha virt. eigenvalues --    2.31629   2.32212   2.32650   2.33097   2.33388
 Alpha virt. eigenvalues --    2.34022   2.34527   2.34800   2.35210   2.36071
 Alpha virt. eigenvalues --    2.36470   2.37010   2.37677   2.37818   2.38572
 Alpha virt. eigenvalues --    2.40415   2.40728   2.41333   2.41642   2.41896
 Alpha virt. eigenvalues --    2.42841   2.43657   2.43981   2.44450   2.44976
 Alpha virt. eigenvalues --    2.45845   2.45981   2.46456   2.47393   2.48615
 Alpha virt. eigenvalues --    2.49075   2.49794   2.50436   2.51795   2.52211
 Alpha virt. eigenvalues --    2.53453   2.54886   2.56105   2.56694   2.57084
 Alpha virt. eigenvalues --    2.58382   2.58731   2.59302   2.61074   2.61639
 Alpha virt. eigenvalues --    2.61957   2.63064   2.63818   2.65381   2.65437
 Alpha virt. eigenvalues --    2.65760   2.66083   2.66334   2.66776   2.67886
 Alpha virt. eigenvalues --    2.68615   2.69068   2.69424   2.70824   2.71360
 Alpha virt. eigenvalues --    2.71977   2.72734   2.73128   2.73474   2.74114
 Alpha virt. eigenvalues --    2.75321   2.75786   2.76456   2.77580   2.77822
 Alpha virt. eigenvalues --    2.78525   2.78690   2.79041   2.79596   2.80008
 Alpha virt. eigenvalues --    2.80536   2.81226   2.81341   2.82075   2.82844
 Alpha virt. eigenvalues --    2.83019   2.83088   2.84342   2.84491   2.85248
 Alpha virt. eigenvalues --    2.86096   2.86541   2.86931   2.87203   2.87883
 Alpha virt. eigenvalues --    2.88465   2.89236   2.89964   2.94588   2.94778
 Alpha virt. eigenvalues --    2.95306   2.97961   2.98722   2.99841   3.00075
 Alpha virt. eigenvalues --    3.01329   3.03343   3.04013   3.05004   3.06613
 Alpha virt. eigenvalues --    3.07398   3.09961   3.10794   3.12857   3.15513
 Alpha virt. eigenvalues --    3.15726   3.16794   3.17438   3.19554   3.21457
 Alpha virt. eigenvalues --    3.22004   3.23723   3.24575   3.25398   3.27228
 Alpha virt. eigenvalues --    3.44353   3.46994   3.48009   3.48914   3.51055
 Alpha virt. eigenvalues --    3.53160   3.54694   3.56642   3.58474   3.60445
 Alpha virt. eigenvalues --    3.64273   3.71857   3.75969
          Condensed to atoms (all electrons):
 Mulliken charges:
               1
     1  N   -0.297441
     2  C    0.179292
     3  C    0.068786
     4  N   -0.252977
     5  C    0.145161
     6  H    0.026344
     7  N   -0.283107
     8  C    0.131608
     9  H    0.004972
    10  N   -0.269729
    11  C    0.224448
    12  C    0.069976
    13  N   -0.050815
    14  H    0.113023
    15  H    0.084335
    16  H    0.027629
    17  H    0.037140
    18  H    0.007820
    19  N   -0.297446
    20  C    0.246882
    21  C    0.188787
    22  N   -0.109167
    23  H    0.120696
    24  H    0.118364
    25  N   -0.279819
    26  C    0.188426
    27  N   -0.113806
    28  H    0.119239
    29  C    0.170399
    30  O   -0.319874
    31  C   -0.002628
    32  N   -0.212218
    33  C    0.097331
    34  H    0.026384
    35  H    0.005270
    36  H    0.034481
    37  H    0.025371
    38  H    0.041592
    39  H    0.048025
    40  H    0.077570
    41  H    0.022230
    42  C   -0.099647
    43  O   -0.270476
    44  C    0.171792
    45  H    0.129289
    46  N   -0.113509
    47  O   -0.344759
    48  C    0.322905
    49  H    0.045135
    50  C    0.159049
    51  C    0.061624
    52  N   -0.274401
    53  H    0.037584
    54  H    0.042067
    55  H    0.029902
    56  H    0.124160
    57  H    0.119287
    58  N   -0.058595
    59  C    0.103573
    60  C    0.184533
    61  N   -0.258796
    62  H    0.018186
    63  C    0.177809
    64  N   -0.307530
    65  H    0.037575
    66  C    0.130679
    67  N   -0.251680
    68  C    0.046842
    69  C    0.177955
    70  N   -0.303104
 Sum of Mulliken charges =  -0.00000
 Mulliken charges with hydrogens summed into heavy atoms:
               1
     1  N   -0.297441
     2  C    0.251882
     3  C    0.068786
     4  N   -0.252977
     5  C    0.171505
     7  N   -0.283107
     8  C    0.136581
    10  N   -0.269729
    11  C    0.224448
    12  C    0.069976
    13  N    0.146543
    19  N   -0.297446
    20  C    0.246882
    21  C    0.253909
    22  N    0.129893
    25  N   -0.279819
    26  C    0.188426
    27  N    0.005433
    29  C    0.170399
    30  O   -0.319874
    31  C   -0.002628
    32  N   -0.212218
    33  C    0.123715
    42  C   -0.077417
    43  O   -0.270476
    44  C    0.171792
    46  N    0.015780
    47  O   -0.344759
    48  C    0.322905
    50  C    0.204183
    51  C    0.228811
    52  N   -0.274401
    58  N    0.184852
    59  C    0.103573
    60  C    0.184533
    61  N   -0.258796
    63  C    0.195995
    64  N   -0.307530
    66  C    0.168253
    67  N   -0.251680
    68  C    0.046842
    69  C    0.287507
    70  N   -0.303104
 Electronic spatial extent (au):  <R**2>=          22125.0428
 Charge=             -0.0000 electrons
 Dipole moment (field-independent basis, Debye):
    X=             -5.9129    Y=              7.2664    Z=             -3.0071  Tot=              9.8390
 Quadrupole moment (field-independent basis, Debye-Ang):
   XX=           -149.1091   YY=           -229.1358   ZZ=           -258.0261
   XY=             -5.1919   XZ=             -8.1333   YZ=             13.8688
 Traceless Quadrupole moment (field-independent basis, Debye-Ang):
   XX=             62.9812   YY=            -17.0455   ZZ=            -45.9357
   XY=             -5.1919   XZ=             -8.1333   YZ=             13.8688
 Octapole moment (field-independent basis, Debye-Ang**2):
  XXX=             86.2396  YYY=             90.0446  ZZZ=              0.0788  XYY=            -93.9004
  XXY=            120.7526  XXZ=            -36.6765  XZZ=            -31.7562  YZZ=             31.2764
  YYZ=            -59.4150  XYZ=             36.0058
 Hexadecapole moment (field-independent basis, Debye-Ang**3):
 XXXX=         -16764.9594 YYYY=          -3809.1038 ZZZZ=          -3617.6262 XXXY=           -708.8177
 XXXZ=           -159.7053 YYYX=             68.0365 YYYZ=            109.7227 ZZZX=            -51.3260
 ZZZY=             45.1923 XXYY=          -3672.7476 XXZZ=          -4065.3272 YYZZ=          -1364.3816
 XXYZ=            -21.3379 YYXZ=            117.3577 ZZXY=            -46.3355
 N-N= 5.607248351553D+03 E-N=-1.599485784691D+04  KE= 2.037898747696D+03
 No NMR shielding tensors so no spin-rotation constants.
 Leave Link  601 at Fri Jan 19 15:45:09 2018, MaxMem=  4294967296 cpu:              50.0 elap:               1.8
 (Enter /share/apps/g16/l9999.exe)
 1\1\GINC-COMPUTE-0-3\SP\RwB97XD\CC-pVDZ\C23H27N17O3\SATYA\19-Jan-2018\
 0\\#p wb97xd/cc-pvdz sp scf=(maxcycles=20)\\Base pair stacking\\0,1\N,
 0,0.52105,2.67357,-6.44338\C,0,0.49595,4.14706,-6.36452\C,0,-0.05843,0
 .55212,-6.41201\N,0,1.29204,0.58091,-6.72845\C,0,1.5871,1.85785,-6.734
 68\H,0,2.57618,2.26461,-6.94734\N,0,-2.24498,-0.19193,-5.9342\C,0,-2.5
 7096,1.09708,-5.79365\H,0,-3.61254,1.28823,-5.53903\N,0,-1.80707,2.180
 34,-5.91982\C,0,-0.54752,1.83447,-6.23341\C,0,-0.96982,-0.50713,-6.249
 94\N,0,-0.64248,-1.7933,-6.39066\H,0,0.28959,-2.07271,-6.62388\H,0,-1.
 31739,-2.52101,-6.26783\H,0,0.76243,4.53405,-7.24735\H,0,-0.42668,4.45
 349,-6.13219\H,0,1.13521,4.45619,-5.66041\N,0,-0.19836,3.45473,-3.14\C
 ,0,-0.92346,2.29104,-3.04995\C,0,-0.76396,4.81826,-3.10021\N,0,-3.9749
 ,0.66679,-2.71488\H,0,-4.30828,-0.27443,-2.66803\H,0,-4.65915,1.39403,
 -2.65438\N,0,-2.26369,2.19847,-2.91111\C,0,-2.66915,0.94237,-2.85264\N
 ,0,-1.82809,-0.14159,-2.92445\H,0,-2.22641,-1.0665,-2.87115\C,0,-0.445
 95,-0.06991,-3.06731\O,0,0.22222,-1.10977,-3.12197\C,0,0.00447,1.27317
 ,-3.13157\N,0,1.28635,1.78748,-3.27007\C,0,1.11722,3.08193,-3.27007\H,
 0,1.92098,3.81319,-3.36239\H,0,-0.54425,5.29696,-3.94955\H,0,-1.75624,
 4.76234,-2.99759\H,0,-0.37759,5.31873,-2.32623\H,0,-4.88618,-5.38798,-
 3.19231\H,0,-4.47698,-5.52325,-1.48383\H,0,-4.69953,-3.93269,-2.2132\H
 ,0,-0.33304,-6.91242,-3.49492\C,0,-0.88373,-5.99421,-3.29033\O,0,0.989
 38,-4.57811,-3.62684\C,0,-0.20013,-4.73867,-3.35465\H,0,-0.54117,-2.73
 511,-3.11434\N,0,-0.98894,-3.64008,-3.07875\O,0,-2.93813,-2.61186,-2.5
 3049\C,0,-2.32359,-3.63889,-2.75899\H,0,-2.75104,-6.95398,-2.91908\C,0
 ,-2.18527,-6.02532,-2.98107\C,0,-4.33729,-4.93633,-2.37942\N,0,-2.912,
 -4.88757,-2.71693\H,0,-8.06429,-5.48068,-5.01379\H,0,-7.27361,-4.36714
 ,-4.12107\H,0,-7.50658,-5.87081,-3.53049\H,0,-0.86443,-5.43874,-6.8098
 4\H,0,-1.81201,-6.85717,-6.82603\N,0,-1.7343,-5.88546,-6.60028\C,0,-2.
 7463,-5.21606,-6.04448\C,0,-4.94071,-4.97457,-5.15679\N,0,-4.80795,-3.
 67022,-4.86444\H,0,-3.40351,-2.18388,-5.00205\C,0,-3.59629,-3.2363,-5.
 20576\N,0,-2.58131,-3.90519,-5.76253\H,0,-6.39662,-7.85364,-5.36526\C,
 0,-5.69894,-7.01675,-5.40777\N,0,-4.47989,-7.08628,-5.88395\C,0,-3.987
 95,-5.79816,-5.73079\C,0,-7.32442,-5.33725,-4.35651\N,0,-6.04408,-5.76
 833,-4.95057\\Version=EM64L-G16RevA.03\State=1-A\HF=-2048.7349137\RMSD
 =7.248e-09\Dipole=-3.7901911,-0.7779607,0.1159786\Quadrupole=-10.37597
 72,33.038365,-22.6623878,27.9684981,-16.6942742,-0.482454\PG=C01 [X(C2
 3H27N17O3)]\\@


 IF YOU PERCEIVE THAT THERE ARE FOUR POSSIBLE WAYS IN
 WHICH A PROCEDURE CAN GO WRONG AND CIRCUMVENT THESE, 
 THEN A FIFTH WAY WILL DEVELOP.

                              -- MURPHY'S TWELFTH LAW
 Job cpu time:       0 days  6 hours 28 minutes 11.8 seconds.
 Elapsed time:       0 days  0 hours 12 minutes 42.3 seconds.
 File lengths (MBytes):  RWF=    298 Int=      0 D2E=      0 Chk=     33 Scr=      1
 Normal termination of Gaussian 16 at Fri Jan 19 15:45:09 2018.
