 Entering Gaussian System, Link 0=g16
 Input=str20.5.0.5.com
 Output=str20.5.0.5.log
 Initial command:
 /share/apps/g16/l1.exe "/state/partition1/scr/Gau-5634.inp" -scrdir="/state/partition1/scr/"
 Entering Link 1 = /share/apps/g16/l1.exe PID=      5635.
  
 Copyright (c) 1988,1990,1992,1993,1995,1998,2003,2009,2016,
            Gaussian, Inc.  All Rights Reserved.
  
 This is part of the Gaussian(R) 16 program.  It is based on
 the Gaussian(R) 09 system (copyright 2009, Gaussian, Inc.),
 the Gaussian(R) 03 system (copyright 2003, Gaussian, Inc.),
 the Gaussian(R) 98 system (copyright 1998, Gaussian, Inc.),
 the Gaussian(R) 94 system (copyright 1995, Gaussian, Inc.),
 the Gaussian 92(TM) system (copyright 1992, Gaussian, Inc.),
 the Gaussian 90(TM) system (copyright 1990, Gaussian, Inc.),
 the Gaussian 88(TM) system (copyright 1988, Gaussian, Inc.),
 the Gaussian 86(TM) system (copyright 1986, Carnegie Mellon
 University), and the Gaussian 82(TM) system (copyright 1983,
 Carnegie Mellon University). Gaussian is a federally registered
 trademark of Gaussian, Inc.
  
 This software contains proprietary and confidential information,
 including trade secrets, belonging to Gaussian, Inc.
  
 This software is provided under written license and may be
 used, copied, transmitted, or stored only in accord with that
 written license.
  
 The following legend is applicable only to US Government
 contracts under FAR:
  
                    RESTRICTED RIGHTS LEGEND
  
 Use, reproduction and disclosure by the US Government is
 subject to restrictions as set forth in subparagraphs (a)
 and (c) of the Commercial Computer Software - Restricted
 Rights clause in FAR 52.227-19.
  
 Gaussian, Inc.
 340 Quinnipiac St., Bldg. 40, Wallingford CT 06492
  
  
 ---------------------------------------------------------------
 Warning -- This program may not be used in any manner that
 competes with the business of Gaussian, Inc. or will provide
 assistance to any competitor of Gaussian, Inc.  The licensee
 of this program is prohibited from giving any competitor of
 Gaussian, Inc. access to this program.  By using this program,
 the user acknowledges that Gaussian, Inc. is engaged in the
 business of creating and licensing software in the field of
 computational chemistry and represents and warrants to the
 licensee that it is not a competitor of Gaussian, Inc. and that
 it will not use this program in any manner prohibited above.
 ---------------------------------------------------------------
  

 Cite this work as:
 Gaussian 16, Revision A.03,
 M. J. Frisch, G. W. Trucks, H. B. Schlegel, G. E. Scuseria, 
 M. A. Robb, J. R. Cheeseman, G. Scalmani, V. Barone, 
 G. A. Petersson, H. Nakatsuji, X. Li, M. Caricato, A. V. Marenich, 
 J. Bloino, B. G. Janesko, R. Gomperts, B. Mennucci, H. P. Hratchian, 
 J. V. Ortiz, A. F. Izmaylov, J. L. Sonnenberg, D. Williams-Young, 
 F. Ding, F. Lipparini, F. Egidi, J. Goings, B. Peng, A. Petrone, 
 T. Henderson, D. Ranasinghe, V. G. Zakrzewski, J. Gao, N. Rega, 
 G. Zheng, W. Liang, M. Hada, M. Ehara, K. Toyota, R. Fukuda, 
 J. Hasegawa, M. Ishida, T. Nakajima, Y. Honda, O. Kitao, H. Nakai, 
 T. Vreven, K. Throssell, J. A. Montgomery, Jr., J. E. Peralta, 
 F. Ogliaro, M. J. Bearpark, J. J. Heyd, E. N. Brothers, K. N. Kudin, 
 V. N. Staroverov, T. A. Keith, R. Kobayashi, J. Normand, 
 K. Raghavachari, A. P. Rendell, J. C. Burant, S. S. Iyengar, 
 J. Tomasi, M. Cossi, J. M. Millam, M. Klene, C. Adamo, R. Cammi, 
 J. W. Ochterski, R. L. Martin, K. Morokuma, O. Farkas, 
 J. B. Foresman, and D. J. Fox, Gaussian, Inc., Wallingford CT, 2016.
 
 ******************************************
 Gaussian 16:  EM64L-G16RevA.03 25-Dec-2016
                20-Jan-2018 
 ******************************************
 %nprocshared=32
 Will use up to   32 processors via shared memory.
 %mem=32GB
 %chk=allatoms_t.chk
 ---------------------------------------
 #p wb97xd/cc-pvdz sp scf=(maxcycles=20)
 ---------------------------------------
 1/38=1,172=1/1;
 2/12=2,17=6,18=5,40=1/2;
 3/5=16,11=2,25=1,30=1,74=-58/1,2,3;
 4//1;
 5/5=2,7=20,38=5/2;
 6/7=2,8=2,9=2,10=2,28=1/1;
 99/5=1,9=1/99;
 Leave Link    1 at Sat Jan 20 03:41:19 2018, MaxMem=  4294967296 cpu:               2.7 elap:               0.1
 (Enter /share/apps/g16/l101.exe)
 ------------------
 Base pair stacking
 ------------------
 Symbolic Z-matrix:
 Charge =  0 Multiplicity = 1
 N                     2.84245   4.21309  -6.34851 
 C                     2.83606   5.67652  -6.53915 
 C                     2.23824   2.10176  -6.22793 
 N                     3.58424   2.13992  -5.89395 
 C                     3.89439   3.41039  -5.97996 
 H                     4.88506   3.82142  -5.78362 
 N                     0.0501    1.34721  -6.68142 
 C                    -0.25843   2.62528  -6.92418 
 H                    -1.29387   2.80777  -7.20847 
 N                     0.51643   3.70668  -6.86877 
 C                     1.7671    3.37205  -6.51064 
 C                     1.31672   1.04316  -6.32322 
 N                     1.62663  -0.23207  -6.08047 
 H                     2.55184  -0.50301  -5.81252 
 H                     0.94495  -0.95968  -6.15813 
 H                     3.48975   5.9237   -7.25453 
 H                     1.9206    5.97437  -6.80812 
 H                     3.09368   6.12722  -5.68445 
 N                     0.40272   4.43106  -3.30949 
 C                    -0.32731   3.26777  -3.3526 
 C                    -0.14829   5.79128  -3.47352 
 N                    -3.37288   1.63994  -3.7219 
 H                    -3.71182   0.69954  -3.7184 
 H                    -4.04695   2.36463  -3.86738 
 N                    -1.65992   3.17264  -3.55045 
 C                    -2.07304   1.91772  -3.53979 
 N                    -1.24602   0.83718  -3.35006 
 H                    -1.64936  -0.08706  -3.35733 
 C                     0.12808   0.91153  -3.14466 
 O                     0.78364  -0.12532  -2.98367 
 C                     0.58658   2.25339  -3.15349 
 N                     1.86463   2.76947  -2.9887 
 C                     1.70706   4.06152  -3.08866 
 H                     2.51174   4.79323  -3.00881 
 H                     0.27977   6.23339  -4.26099 
 H                    -1.13483   5.73345  -3.62073 
 H                     0.0339    6.32801  -2.65039 
 H                    -4.16396  -4.43587  -4.14307 
 H                    -4.19718  -4.49277  -2.3823 
 H                    -4.22204  -2.93752  -3.21412 
 H                     0.31216  -5.9423   -3.22569 
 C                    -0.26789  -5.01957  -3.20682 
 O                     1.63645  -3.60749  -3.12526 
 C                     0.41595  -3.76365  -3.15333 
 H                     0.03503  -1.7537   -3.09556 
 N                    -0.41163  -2.65913  -3.13325 
 O                    -2.43113  -1.62048  -3.13778 
 C                    -1.78379  -2.65255  -3.15892 
 H                    -2.17314  -5.97421  -3.27361 
 C                    -1.60552  -5.04551  -3.23289 
 C                    -3.83446  -3.94512  -3.23937 
 N                    -2.36986  -3.90199  -3.21035 
 H                    -5.72963  -3.97835  -7.63821 
 H                    -5.3952   -2.697    -6.68512 
 H                    -5.92499  -4.09109  -6.02187 
 H                     1.49228  -3.90287  -5.93413 
 H                     0.60734  -5.34651  -6.14125 
 N                     0.60758  -4.34829  -6.07214 
 C                    -0.52226  -3.64339  -6.16024 
 C                    -2.86982  -3.35951  -6.42501 
 N                    -2.83933  -2.02004  -6.32862 
 H                    -1.47565  -0.51392  -6.05918 
 C                    -1.59108  -1.59331  -6.14786 
 N                    -0.45815  -2.29773  -6.05935 
 H                    -4.1703   -6.29732  -6.78587 
 C                    -3.5012   -5.4478   -6.64602 
 N                    -2.20253  -5.53903  -6.495 
 C                    -1.78977  -4.22205  -6.35385 
 C                    -5.36704  -3.69401  -6.7507 
 N                    -3.9728   -4.15811  -6.6139 
 
 ITRead=  0  0  0  0  0  0  0  0  0  0  0  0  0  0  0  0  0  0  0  0
 ITRead=  0  0  0  0  0  0  0  0  0  0  0  0  0  0  0  0  0  0  0  0
 ITRead=  0  0  0  0  0  0  0  0  0  0  0  0  0  0  0  0  0  0  0  0
 ITRead=  0  0  0  0  0  0  0  0  0  0
 MicOpt= -1 -1 -1 -1 -1 -1 -1 -1 -1 -1 -1 -1 -1 -1 -1 -1 -1 -1 -1 -1
 MicOpt= -1 -1 -1 -1 -1 -1 -1 -1 -1 -1 -1 -1 -1 -1 -1 -1 -1 -1 -1 -1
 MicOpt= -1 -1 -1 -1 -1 -1 -1 -1 -1 -1 -1 -1 -1 -1 -1 -1 -1 -1 -1 -1
 MicOpt= -1 -1 -1 -1 -1 -1 -1 -1 -1 -1
 NAtoms=     70 NQM=       70 NQMF=       0 NMMI=      0 NMMIF=      0
                NMic=       0 NMicF=      0.
                    Isotopes and Nuclear Properties:
 (Nuclear quadrupole moments (NQMom) in fm**2, nuclear magnetic moments (NMagM)
  in nuclear magnetons)

  Atom         1           2           3           4           5           6           7           8           9          10
 IAtWgt=          14          12          12          14          12           1          14          12           1          14
 AtmWgt=  14.0030740  12.0000000  12.0000000  14.0030740  12.0000000   1.0078250  14.0030740  12.0000000   1.0078250  14.0030740
 NucSpn=           2           0           0           2           0           1           2           0           1           2
 AtZEff=  -0.0000000  -0.0000000  -0.0000000  -0.0000000  -0.0000000  -0.0000000  -0.0000000  -0.0000000  -0.0000000  -0.0000000
 NQMom=    2.0440000   0.0000000   0.0000000   2.0440000   0.0000000   0.0000000   2.0440000   0.0000000   0.0000000   2.0440000
 NMagM=    0.4037610   0.0000000   0.0000000   0.4037610   0.0000000   2.7928460   0.4037610   0.0000000   2.7928460   0.4037610
 AtZNuc=   7.0000000   6.0000000   6.0000000   7.0000000   6.0000000   1.0000000   7.0000000   6.0000000   1.0000000   7.0000000

  Atom        11          12          13          14          15          16          17          18          19          20
 IAtWgt=          12          12          14           1           1           1           1           1          14          12
 AtmWgt=  12.0000000  12.0000000  14.0030740   1.0078250   1.0078250   1.0078250   1.0078250   1.0078250  14.0030740  12.0000000
 NucSpn=           0           0           2           1           1           1           1           1           2           0
 AtZEff=  -0.0000000  -0.0000000  -0.0000000  -0.0000000  -0.0000000  -0.0000000  -0.0000000  -0.0000000  -0.0000000  -0.0000000
 NQMom=    0.0000000   0.0000000   2.0440000   0.0000000   0.0000000   0.0000000   0.0000000   0.0000000   2.0440000   0.0000000
 NMagM=    0.0000000   0.0000000   0.4037610   2.7928460   2.7928460   2.7928460   2.7928460   2.7928460   0.4037610   0.0000000
 AtZNuc=   6.0000000   6.0000000   7.0000000   1.0000000   1.0000000   1.0000000   1.0000000   1.0000000   7.0000000   6.0000000

  Atom        21          22          23          24          25          26          27          28          29          30
 IAtWgt=          12          14           1           1          14          12          14           1          12          16
 AtmWgt=  12.0000000  14.0030740   1.0078250   1.0078250  14.0030740  12.0000000  14.0030740   1.0078250  12.0000000  15.9949146
 NucSpn=           0           2           1           1           2           0           2           1           0           0
 AtZEff=  -0.0000000  -0.0000000  -0.0000000  -0.0000000  -0.0000000  -0.0000000  -0.0000000  -0.0000000  -0.0000000  -0.0000000
 NQMom=    0.0000000   2.0440000   0.0000000   0.0000000   2.0440000   0.0000000   2.0440000   0.0000000   0.0000000   0.0000000
 NMagM=    0.0000000   0.4037610   2.7928460   2.7928460   0.4037610   0.0000000   0.4037610   2.7928460   0.0000000   0.0000000
 AtZNuc=   6.0000000   7.0000000   1.0000000   1.0000000   7.0000000   6.0000000   7.0000000   1.0000000   6.0000000   8.0000000

  Atom        31          32          33          34          35          36          37          38          39          40
 IAtWgt=          12          14          12           1           1           1           1           1           1           1
 AtmWgt=  12.0000000  14.0030740  12.0000000   1.0078250   1.0078250   1.0078250   1.0078250   1.0078250   1.0078250   1.0078250
 NucSpn=           0           2           0           1           1           1           1           1           1           1
 AtZEff=  -0.0000000  -0.0000000  -0.0000000  -0.0000000  -0.0000000  -0.0000000  -0.0000000  -0.0000000  -0.0000000  -0.0000000
 NQMom=    0.0000000   2.0440000   0.0000000   0.0000000   0.0000000   0.0000000   0.0000000   0.0000000   0.0000000   0.0000000
 NMagM=    0.0000000   0.4037610   0.0000000   2.7928460   2.7928460   2.7928460   2.7928460   2.7928460   2.7928460   2.7928460
 AtZNuc=   6.0000000   7.0000000   6.0000000   1.0000000   1.0000000   1.0000000   1.0000000   1.0000000   1.0000000   1.0000000

  Atom        41          42          43          44          45          46          47          48          49          50
 IAtWgt=           1          12          16          12           1          14          16          12           1          12
 AtmWgt=   1.0078250  12.0000000  15.9949146  12.0000000   1.0078250  14.0030740  15.9949146  12.0000000   1.0078250  12.0000000
 NucSpn=           1           0           0           0           1           2           0           0           1           0
 AtZEff=  -0.0000000  -0.0000000  -0.0000000  -0.0000000  -0.0000000  -0.0000000  -0.0000000  -0.0000000  -0.0000000  -0.0000000
 NQMom=    0.0000000   0.0000000   0.0000000   0.0000000   0.0000000   2.0440000   0.0000000   0.0000000   0.0000000   0.0000000
 NMagM=    2.7928460   0.0000000   0.0000000   0.0000000   2.7928460   0.4037610   0.0000000   0.0000000   2.7928460   0.0000000
 AtZNuc=   1.0000000   6.0000000   8.0000000   6.0000000   1.0000000   7.0000000   8.0000000   6.0000000   1.0000000   6.0000000

  Atom        51          52          53          54          55          56          57          58          59          60
 IAtWgt=          12          14           1           1           1           1           1          14          12          12
 AtmWgt=  12.0000000  14.0030740   1.0078250   1.0078250   1.0078250   1.0078250   1.0078250  14.0030740  12.0000000  12.0000000
 NucSpn=           0           2           1           1           1           1           1           2           0           0
 AtZEff=  -0.0000000  -0.0000000  -0.0000000  -0.0000000  -0.0000000  -0.0000000  -0.0000000  -0.0000000  -0.0000000  -0.0000000
 NQMom=    0.0000000   2.0440000   0.0000000   0.0000000   0.0000000   0.0000000   0.0000000   2.0440000   0.0000000   0.0000000
 NMagM=    0.0000000   0.4037610   2.7928460   2.7928460   2.7928460   2.7928460   2.7928460   0.4037610   0.0000000   0.0000000
 AtZNuc=   6.0000000   7.0000000   1.0000000   1.0000000   1.0000000   1.0000000   1.0000000   7.0000000   6.0000000   6.0000000

  Atom        61          62          63          64          65          66          67          68          69          70
 IAtWgt=          14           1          12          14           1          12          14          12          12          14
 AtmWgt=  14.0030740   1.0078250  12.0000000  14.0030740   1.0078250  12.0000000  14.0030740  12.0000000  12.0000000  14.0030740
 NucSpn=           2           1           0           2           1           0           2           0           0           2
 AtZEff=  -0.0000000  -0.0000000  -0.0000000  -0.0000000  -0.0000000  -0.0000000  -0.0000000  -0.0000000  -0.0000000  -0.0000000
 NQMom=    2.0440000   0.0000000   0.0000000   2.0440000   0.0000000   0.0000000   2.0440000   0.0000000   0.0000000   2.0440000
 NMagM=    0.4037610   2.7928460   0.0000000   0.4037610   2.7928460   0.0000000   0.4037610   0.0000000   0.0000000   0.4037610
 AtZNuc=   7.0000000   1.0000000   6.0000000   7.0000000   1.0000000   6.0000000   7.0000000   6.0000000   6.0000000   7.0000000
 Leave Link  101 at Sat Jan 20 03:41:19 2018, MaxMem=  4294967296 cpu:               7.7 elap:               0.3
 (Enter /share/apps/g16/l202.exe)
 Stoichiometry    C23H27N17O3
 Framework group  C1[X(C23H27N17O3)]
 Deg. of freedom   204
 Full point group                 C1      NOp   1
 Largest Abelian subgroup         C1      NOp   1
 Largest concise Abelian subgroup C1      NOp   1
                         Standard orientation:                         
 ---------------------------------------------------------------------
 Center     Atomic      Atomic             Coordinates (Angstroms)
 Number     Number       Type             X           Y           Z
 ---------------------------------------------------------------------
      1          7           0        5.468181   -1.607932   -0.976261
      2          6           0        6.786630   -1.114908   -1.419692
      3          6           0        3.302363   -1.876565   -0.703507
      4          7           0        3.915333   -2.835144    0.090288
      5          6           0        5.195627   -2.634942   -0.105802
      6          1           0        5.992504   -3.212664    0.363397
      7          7           0        1.680674   -0.549366   -1.785923
      8          6           0        2.701918    0.099834   -2.354419
      9          1           0        2.421633    0.907942   -3.028705
     10          7           0        4.011253   -0.098420   -2.215706
     11          6           0        4.246692   -1.112622   -1.366959
     12          6           0        1.950577   -1.564871   -0.936816
     13          7           0        0.932491   -2.214115   -0.368338
     14          1           0        1.085545   -2.972202    0.266562
     15          1           0       -0.017391   -1.965033   -0.557594
     16          1           0        7.283904   -1.853076   -1.875767
     17          1           0        6.662061   -0.354875   -2.056842
     18          1           0        7.311093   -0.801452   -0.628052
     19          7           0        4.646055    1.740195    0.853927
     20          6           0        3.281980    1.874831    0.757916
     21          6           0        5.638458    2.653675    0.252756
     22          7           0        0.504870    3.606384   -0.404450
     23          1           0       -0.490071    3.523693   -0.354470
     24          1           0        0.870357    4.383167   -0.918004
     25          7           0        2.624344    2.856331    0.103534
     26          6           0        1.313449    2.716116    0.190137
     27          7           0        0.692113    1.693645    0.865429
     28          1           0       -0.315858    1.665920    0.878891
     29          6           0        1.348776    0.672973    1.545789
     30          8           0        0.693350   -0.202927    2.123675
     31          6           0        2.757679    0.810128    1.461707
     32          7           0        3.772184    0.022913    1.988943
     33          6           0        4.871792    0.611702    1.603710
     34          1           0        5.878013    0.263603    1.839573
     35          1           0        6.214819    2.147460   -0.387836
     36          1           0        5.162984    3.384855   -0.234663
     37          1           0        6.208158    3.049673    0.972091
     38          1           0       -5.328549    1.735216    0.029844
     39          1           0       -5.379984    2.465112    1.632735
     40          1           0       -3.991617    2.745079    0.581354
     41          1           0       -4.767964   -2.163985    2.791825
     42          6           0       -4.181933   -1.320545    2.426555
     43          8           0       -2.090339   -2.312184    2.945225
     44          6           0       -2.753810   -1.376955    2.498071
     45          1           0       -1.099599   -0.261199    2.043085
     46          7           0       -2.109345   -0.258414    2.009412
     47          8           0       -2.034489    1.808128    1.070797
     48          6           0       -2.690580    0.865921    1.478787
     49          1           0       -5.860340   -0.145096    1.837449
     50          6           0       -4.777793   -0.237452    1.914241
     51          6           0       -4.736742    2.025011    0.885334
     52          7           0       -4.071007    0.845003    1.444021
     53          1           0       -5.612970    1.766143   -3.816557
     54          1           0       -4.304073    2.378071   -3.058656
     55          1           0       -5.785401    2.548809   -2.394892
     56          1           0       -2.441651   -3.463243    0.386040
     57          1           0       -4.126710   -3.376720    0.134636
     58          7           0       -3.223809   -2.962276    0.015364
     59          6           0       -3.070713   -1.793423   -0.610358
     60          6           0       -3.820491    0.144749   -1.769260
     61          7           0       -2.595991    0.677482   -1.914850
     62          1           0       -0.649164    0.245702   -1.441511
     63          6           0       -1.674864   -0.113140   -1.367728
     64          7           0       -1.826200   -1.284188   -0.740580
     65          1           0       -7.035052   -0.067156   -2.041081
     66          6           0       -5.979862   -0.233101   -1.822055
     67          7           0       -5.505564   -1.277963   -1.188827
     68          6           0       -4.137505   -1.050976   -1.148541
     69          6           0       -5.193703    1.942111   -2.925914
     70          7           0       -5.015656    0.668269   -2.202289
 ---------------------------------------------------------------------
 Rotational constants (GHZ):           0.1620790           0.0528586           0.0513329
 Leave Link  202 at Sat Jan 20 03:41:19 2018, MaxMem=  4294967296 cpu:               0.3 elap:               0.0
 (Enter /share/apps/g16/l301.exe)
 Standard basis: CC-pVDZ (5D, 7F)
 Ernie: Thresh=  0.10000D-02 Tol=  0.10000D-05 Strict=F.
 Ernie:  86 primitive shells out of 1081 were deleted.
 There are   780 symmetry adapted cartesian basis functions of A   symmetry.
 There are   737 symmetry adapted basis functions of A   symmetry.
   737 basis functions,  1608 primitive gaussians,   780 cartesian basis functions
   154 alpha electrons      154 beta electrons
       nuclear repulsion energy      5565.8809511629 Hartrees.
 IExCor= 4639 DFT=T Ex+Corr=wB97XD ExCW=0 ScaHFX=  1.000000
 ScaDFX=  1.000000  1.000000  1.000000  1.000000 ScalE2=  1.000000  1.000000
 IRadAn=      5 IRanWt=     -1 IRanGd=            0 ICorTp=0 IEmpDi=121
 HFx  wShort=  0.000000 wLong=  0.200000 cFull=  0.222036 cShort=  0.000000 cLong=  0.777964
 DFx  wShort=  0.000000 wLong=  0.200000 cFull=  0.000000 cShort=  0.000000 cLong=  1.000000
 NAtoms=   70 NActive=   70 NUniq=   70 SFac= 1.00D+00 NAtFMM=   60 NAOKFM=T Big=T
 Integral buffers will be    131072 words long.
 Raffenetti 2 integral format.
 Two-electron integral symmetry is turned on.
 R6Disp:  Grimme-D2 Dispersion energy=       -0.0759365128 Hartrees.
 Nuclear repulsion after empirical dispersion term =     5565.8050146500 Hartrees.
 Leave Link  301 at Sat Jan 20 03:41:19 2018, MaxMem=  4294967296 cpu:               2.1 elap:               0.1
 (Enter /share/apps/g16/l302.exe)
 NPDir=0 NMtPBC=     1 NCelOv=     1 NCel=       1 NClECP=     1 NCelD=      1
         NCelK=      1 NCelE2=     1 NClLst=     1 CellRange=     0.0.
 One-electron integrals computed using PRISM.
 One-electron integral symmetry used in STVInt
 NBasis=   737 RedAO= T EigKep=  6.74D-04  NBF=   737
 NBsUse=   737 1.00D-06 EigRej= -1.00D+00 NBFU=   737
 Precomputing XC quadrature grid using
 IXCGrd= 4 IRadAn=           5 IRanWt=          -1 IRanGd=           0 AccXCQ= 0.00D+00.
 Generated NRdTot=       0 NPtTot=           0 NUsed=           0 NTot=          32
 NSgBfM=   769   768   769   769   769 MxSgAt=    70 MxSgA2=    70.
 Leave Link  302 at Sat Jan 20 03:41:23 2018, MaxMem=  4294967296 cpu:             134.3 elap:               4.2
 (Enter /share/apps/g16/l303.exe)
 DipDrv:  MaxL=1.
 Leave Link  303 at Sat Jan 20 03:41:24 2018, MaxMem=  4294967296 cpu:              12.6 elap:               0.4
 (Enter /share/apps/g16/l401.exe)
 ExpMin= 1.22D-01 ExpMax= 1.17D+04 ExpMxC= 4.01D+02 IAcc=3 IRadAn=         5 AccDes= 0.00D+00
 Harris functional with IExCor= 4639 and IRadAn=       5 diagonalized for initial guess.
 HarFok:  IExCor= 4639 AccDes= 0.00D+00 IRadAn=         5 IDoV= 1 UseB2=F ITyADJ=14
 ICtDFT=  3500011 ScaDFX=  1.000000  1.000000  1.000000  1.000000
 FoFCou: FMM=F IPFlag=           0 FMFlag=      100000 FMFlg1=        2001
         NFxFlg=           0 DoJE=T BraDBF=F KetDBF=T FulRan=T
         wScrn=  0.000000 ICntrl=       500 IOpCl=  0 I1Cent=   200000004 NGrid=           0
         NMat0=    1 NMatS0=      1 NMatT0=    0 NMatD0=    1 NMtDS0=    0 NMtDT0=    0
 Petite list used in FoFCou.
 Harris En= -1963.88939413478    
 JPrj=0 DoOrth=F DoCkMO=F.
 Leave Link  401 at Sat Jan 20 03:41:37 2018, MaxMem=  4294967296 cpu:             408.1 elap:              12.8
 (Enter /share/apps/g16/l502.exe)
 Integral symmetry usage will be decided dynamically.
 Closed shell SCF:
 Using DIIS extrapolation, IDIIS=  1040.
 NGot=  4294967296 LenX=  4293717438 LenY=  4293108258
 Requested convergence on RMS density matrix=1.00D-08 within  20 cycles.
 Requested convergence on MAX density matrix=1.00D-06.
 Requested convergence on             energy=1.00D-06.
 No special actions if energy rises.
 Fock matrices will be formed incrementally for  20 cycles.
 Integral accuracy reduced to 1.0D-05 until final iterations.

 Cycle   1  Pass 0  IDiag  1:
 FoFJK:  IHMeth= 1 ICntrl=       0 DoSepK=T KAlg= 0 I1Cent=           0 FoldK=F
 IRaf=         1 NMat=       1 IRICut=       1 DoRegI=T DoRafI=F ISym2E= 0 IDoP0=0 IntGTp=1.
 FoFCou: FMM=T IPFlag=           0 FMFlag=      100000 FMFlg1=        2001
         NFxFlg=           0 DoJE=T BraDBF=F KetDBF=F FulRan=T
         wScrn=  0.000000 ICntrl=       500 IOpCl=  0 I1Cent=           0 NGrid=           0
         NMat0=    1 NMatS0=      1 NMatT0=    0 NMatD0=    1 NMtDS0=    0 NMtDT0=    0
 Symmetry not used in FoFCou.
 FMM levels:  10  Number of levels for PrismC:   9
 E= -2048.31972082218    
 DIIS: error= 2.08D-02 at cycle   1 NSaved=   1.
 NSaved= 1 IEnMin= 1 EnMin= -2048.31972082218     IErMin= 1 ErrMin= 2.08D-02
 ErrMax= 2.08D-02  0.00D+00 EMaxC= 1.00D-01 BMatC= 8.35D-01 BMatP= 8.35D-01
 IDIUse=3 WtCom= 7.92D-01 WtEn= 2.08D-01
 Coeff-Com:  0.100D+01
 Coeff-En:   0.100D+01
 Coeff:      0.100D+01
 Gap=     0.262 Goal=   None    Shift=    0.000
 GapD=    0.262 DampG=1.000 DampE=0.500 DampFc=0.5000 IDamp=-1.
 Damping current iteration by 5.00D-01
 RMSDP=1.59D-03 MaxDP=1.22D-01              OVMax= 1.93D-01

 Cycle   2  Pass 0  IDiag  1:
 RMSU=  7.93D-04    CP:  9.98D-01
 E= -2048.51586786015     Delta-E=       -0.196147037967 Rises=F Damp=T
 DIIS: error= 1.16D-02 at cycle   2 NSaved=   2.
 NSaved= 2 IEnMin= 2 EnMin= -2048.51586786015     IErMin= 2 ErrMin= 1.16D-02
 ErrMax= 1.16D-02  0.00D+00 EMaxC= 1.00D-01 BMatC= 1.46D-01 BMatP= 8.35D-01
 IDIUse=3 WtCom= 8.84D-01 WtEn= 1.16D-01
 Coeff-Com: -0.190D+00 0.119D+01
 Coeff-En:   0.000D+00 0.100D+01
 Coeff:     -0.168D+00 0.117D+01
 Gap=     0.351 Goal=   None    Shift=    0.000
 RMSDP=5.95D-04 MaxDP=3.34D-02 DE=-1.96D-01 OVMax= 1.37D-01

 Cycle   3  Pass 0  IDiag  1:
 RMSU=  5.86D-04    CP:  9.94D-01  1.12D+00
 E= -2048.69336065662     Delta-E=       -0.177492796471 Rises=F Damp=F
 DIIS: error= 6.82D-03 at cycle   3 NSaved=   3.
 NSaved= 3 IEnMin= 3 EnMin= -2048.69336065662     IErMin= 3 ErrMin= 6.82D-03
 ErrMax= 6.82D-03  0.00D+00 EMaxC= 1.00D-01 BMatC= 6.75D-02 BMatP= 1.46D-01
 IDIUse=3 WtCom= 9.32D-01 WtEn= 6.82D-02
 Coeff-Com: -0.233D+00 0.557D+00 0.676D+00
 Coeff-En:   0.000D+00 0.000D+00 0.100D+01
 Coeff:     -0.217D+00 0.519D+00 0.698D+00
 Gap=     0.283 Goal=   None    Shift=    0.000
 RMSDP=3.73D-04 MaxDP=3.02D-02 DE=-1.77D-01 OVMax= 7.15D-02

 Cycle   4  Pass 0  IDiag  1:
 RMSU=  2.09D-04    CP:  9.94D-01  1.42D+00  6.56D-01
 E= -2048.74438638155     Delta-E=       -0.051025724935 Rises=F Damp=F
 DIIS: error= 2.36D-03 at cycle   4 NSaved=   4.
 NSaved= 4 IEnMin= 4 EnMin= -2048.74438638155     IErMin= 4 ErrMin= 2.36D-03
 ErrMax= 2.36D-03  0.00D+00 EMaxC= 1.00D-01 BMatC= 9.54D-03 BMatP= 6.75D-02
 IDIUse=3 WtCom= 9.76D-01 WtEn= 2.36D-02
 Coeff-Com: -0.971D-01 0.188D+00 0.374D+00 0.535D+00
 Coeff-En:   0.000D+00 0.000D+00 0.665D-01 0.933D+00
 Coeff:     -0.948D-01 0.184D+00 0.367D+00 0.544D+00
 Gap=     0.288 Goal=   None    Shift=    0.000
 RMSDP=1.29D-04 MaxDP=1.04D-02 DE=-5.10D-02 OVMax= 1.51D-02

 Cycle   5  Pass 0  IDiag  1:
 RMSU=  6.15D-05    CP:  9.94D-01  1.39D+00  7.91D-01  6.23D-01
 E= -2048.75236838694     Delta-E=       -0.007982005388 Rises=F Damp=F
 DIIS: error= 5.43D-04 at cycle   5 NSaved=   5.
 NSaved= 5 IEnMin= 5 EnMin= -2048.75236838694     IErMin= 5 ErrMin= 5.43D-04
 ErrMax= 5.43D-04  0.00D+00 EMaxC= 1.00D-01 BMatC= 2.80D-04 BMatP= 9.54D-03
 IDIUse=3 WtCom= 9.95D-01 WtEn= 5.43D-03
 Coeff-Com: -0.251D-01 0.431D-01 0.119D+00 0.235D+00 0.628D+00
 Coeff-En:   0.000D+00 0.000D+00 0.000D+00 0.000D+00 0.100D+01
 Coeff:     -0.249D-01 0.428D-01 0.118D+00 0.233D+00 0.630D+00
 Gap=     0.288 Goal=   None    Shift=    0.000
 RMSDP=2.66D-05 MaxDP=1.28D-03 DE=-7.98D-03 OVMax= 3.01D-03

 Failed to achieve initial convergence to 1.0D-08 in  6 cycles.
 Switch to full accuracy anyway.
 Cycle   6  Pass 1  IDiag  1:
 E= -2048.75256998225     Delta-E=       -0.000201595310 Rises=F Damp=F
 DIIS: error= 2.23D-04 at cycle   1 NSaved=   1.
 NSaved= 1 IEnMin= 1 EnMin= -2048.75256998225     IErMin= 1 ErrMin= 2.23D-04
 ErrMax= 2.23D-04  0.00D+00 EMaxC= 1.00D-01 BMatC= 7.48D-05 BMatP= 7.48D-05
 IDIUse=3 WtCom= 9.98D-01 WtEn= 2.23D-03
 Coeff-Com:  0.100D+01
 Coeff-En:   0.100D+01
 Coeff:      0.100D+01
 Gap=     0.288 Goal=   None    Shift=    0.000
 RMSDP=2.66D-05 MaxDP=1.28D-03 DE=-2.02D-04 OVMax= 2.65D-03

 Cycle   7  Pass 1  IDiag  1:
 RMSU=  1.15D-04    CP:  1.00D+00
 E= -2048.75262245234     Delta-E=       -0.000052470094 Rises=F Damp=F
 DIIS: error= 2.26D-04 at cycle   2 NSaved=   2.
 NSaved= 2 IEnMin= 2 EnMin= -2048.75262245234     IErMin= 1 ErrMin= 2.23D-04
 ErrMax= 2.26D-04  0.00D+00 EMaxC= 1.00D-01 BMatC= 4.45D-05 BMatP= 7.48D-05
 IDIUse=3 WtCom= 9.98D-01 WtEn= 2.26D-03
 Coeff-Com:  0.413D+00 0.587D+00
 Coeff-En:   0.867D-02 0.991D+00
 Coeff:      0.412D+00 0.588D+00
 Gap=     0.288 Goal=   None    Shift=    0.000
 RMSDP=1.18D-05 MaxDP=7.66D-04 DE=-5.25D-05 OVMax= 1.62D-03

 Cycle   8  Pass 1  IDiag  1:
 RMSU=  1.15D-05    CP:  1.00D+00  1.02D+00
 E= -2048.75265578147     Delta-E=       -0.000033329125 Rises=F Damp=F
 DIIS: error= 7.57D-05 at cycle   3 NSaved=   3.
 NSaved= 3 IEnMin= 3 EnMin= -2048.75265578147     IErMin= 3 ErrMin= 7.57D-05
 ErrMax= 7.57D-05  0.00D+00 EMaxC= 1.00D-01 BMatC= 9.82D-06 BMatP= 4.45D-05
 IDIUse=1 WtCom= 1.00D+00 WtEn= 0.00D+00
 Coeff-Com: -0.186D-01 0.306D+00 0.713D+00
 Coeff:     -0.186D-01 0.306D+00 0.713D+00
 Gap=     0.288 Goal=   None    Shift=    0.000
 RMSDP=5.72D-06 MaxDP=3.85D-04 DE=-3.33D-05 OVMax= 5.78D-04

 Cycle   9  Pass 1  IDiag  1:
 RMSU=  3.82D-06    CP:  1.00D+00  1.05D+00  7.61D-01
 E= -2048.75266538340     Delta-E=       -0.000009601935 Rises=F Damp=F
 DIIS: error= 2.15D-05 at cycle   4 NSaved=   4.
 NSaved= 4 IEnMin= 4 EnMin= -2048.75266538340     IErMin= 4 ErrMin= 2.15D-05
 ErrMax= 2.15D-05  0.00D+00 EMaxC= 1.00D-01 BMatC= 5.23D-07 BMatP= 9.82D-06
 IDIUse=1 WtCom= 1.00D+00 WtEn= 0.00D+00
 Coeff-Com: -0.308D-01 0.856D-01 0.271D+00 0.674D+00
 Coeff:     -0.308D-01 0.856D-01 0.271D+00 0.674D+00
 Gap=     0.288 Goal=   None    Shift=    0.000
 RMSDP=1.45D-06 MaxDP=1.00D-04 DE=-9.60D-06 OVMax= 4.58D-04

 Cycle  10  Pass 1  IDiag  1:
 RMSU=  1.30D-06    CP:  1.00D+00  1.05D+00  7.97D-01  1.10D+00
 E= -2048.75266623193     Delta-E=       -0.000000848526 Rises=F Damp=F
 DIIS: error= 1.24D-05 at cycle   5 NSaved=   5.
 NSaved= 5 IEnMin= 5 EnMin= -2048.75266623193     IErMin= 5 ErrMin= 1.24D-05
 ErrMax= 1.24D-05  0.00D+00 EMaxC= 1.00D-01 BMatC= 1.19D-07 BMatP= 5.23D-07
 IDIUse=1 WtCom= 1.00D+00 WtEn= 0.00D+00
 Coeff-Com: -0.366D-02-0.533D-01-0.114D+00 0.206D+00 0.965D+00
 Coeff:     -0.366D-02-0.533D-01-0.114D+00 0.206D+00 0.965D+00
 Gap=     0.288 Goal=   None    Shift=    0.000
 RMSDP=1.19D-06 MaxDP=6.44D-05 DE=-8.49D-07 OVMax= 2.51D-04

 Cycle  11  Pass 1  IDiag  1:
 RMSU=  4.91D-07    CP:  1.00D+00  1.05D+00  8.07D-01  1.37D+00  1.17D+00
 E= -2048.75266649057     Delta-E=       -0.000000258642 Rises=F Damp=F
 DIIS: error= 5.17D-06 at cycle   6 NSaved=   6.
 NSaved= 6 IEnMin= 6 EnMin= -2048.75266649057     IErMin= 6 ErrMin= 5.17D-06
 ErrMax= 5.17D-06  0.00D+00 EMaxC= 1.00D-01 BMatC= 2.96D-08 BMatP= 1.19D-07
 IDIUse=1 WtCom= 1.00D+00 WtEn= 0.00D+00
 Coeff-Com:  0.469D-02-0.451D-01-0.117D+00-0.577D-02 0.522D+00 0.641D+00
 Coeff:      0.469D-02-0.451D-01-0.117D+00-0.577D-02 0.522D+00 0.641D+00
 Gap=     0.288 Goal=   None    Shift=    0.000
 RMSDP=3.89D-07 MaxDP=3.05D-05 DE=-2.59D-07 OVMax= 1.25D-04

 Cycle  12  Pass 1  IDiag  1:
 RMSU=  1.88D-07    CP:  1.00D+00  1.05D+00  8.10D-01  1.45D+00  1.31D+00
                    CP:  9.37D-01
 E= -2048.75266653416     Delta-E=       -0.000000043584 Rises=F Damp=F
 DIIS: error= 1.18D-06 at cycle   7 NSaved=   7.
 NSaved= 7 IEnMin= 7 EnMin= -2048.75266653416     IErMin= 7 ErrMin= 1.18D-06
 ErrMax= 1.18D-06  0.00D+00 EMaxC= 1.00D-01 BMatC= 7.54D-10 BMatP= 2.96D-08
 IDIUse=1 WtCom= 1.00D+00 WtEn= 0.00D+00
 Coeff-Com:  0.108D-02-0.696D-02-0.193D-01-0.950D-02 0.532D-01 0.127D+00
 Coeff-Com:  0.855D+00
 Coeff:      0.108D-02-0.696D-02-0.193D-01-0.950D-02 0.532D-01 0.127D+00
 Coeff:      0.855D+00
 Gap=     0.288 Goal=   None    Shift=    0.000
 RMSDP=8.80D-08 MaxDP=4.70D-06 DE=-4.36D-08 OVMax= 2.32D-05

 Cycle  13  Pass 1  IDiag  1:
 RMSU=  5.23D-08    CP:  1.00D+00  1.05D+00  8.09D-01  1.46D+00  1.33D+00
                    CP:  1.03D+00  1.15D+00
 E= -2048.75266653607     Delta-E=       -0.000000001918 Rises=F Damp=F
 DIIS: error= 6.24D-07 at cycle   8 NSaved=   8.
 NSaved= 8 IEnMin= 8 EnMin= -2048.75266653607     IErMin= 8 ErrMin= 6.24D-07
 ErrMax= 6.24D-07  0.00D+00 EMaxC= 1.00D-01 BMatC= 3.33D-10 BMatP= 7.54D-10
 IDIUse=1 WtCom= 1.00D+00 WtEn= 0.00D+00
 Coeff-Com: -0.760D-03 0.910D-02 0.227D-01-0.136D-02-0.116D+00-0.113D+00
 Coeff-Com:  0.428D+00 0.772D+00
 Coeff:     -0.760D-03 0.910D-02 0.227D-01-0.136D-02-0.116D+00-0.113D+00
 Coeff:      0.428D+00 0.772D+00
 Gap=     0.288 Goal=   None    Shift=    0.000
 RMSDP=4.90D-08 MaxDP=2.35D-06 DE=-1.92D-09 OVMax= 1.12D-05

 Cycle  14  Pass 1  IDiag  1:
 RMSU=  2.81D-08    CP:  1.00D+00  1.05D+00  8.09D-01  1.46D+00  1.34D+00
                    CP:  1.07D+00  1.31D+00  1.09D+00
 E= -2048.75266653634     Delta-E=       -0.000000000270 Rises=F Damp=F
 DIIS: error= 2.07D-07 at cycle   9 NSaved=   9.
 NSaved= 9 IEnMin= 9 EnMin= -2048.75266653634     IErMin= 9 ErrMin= 2.07D-07
 ErrMax= 2.07D-07  0.00D+00 EMaxC= 1.00D-01 BMatC= 2.65D-11 BMatP= 3.33D-10
 IDIUse=1 WtCom= 1.00D+00 WtEn= 0.00D+00
 Coeff-Com: -0.406D-03 0.424D-02 0.108D-01 0.461D-03-0.500D-01-0.571D-01
 Coeff-Com:  0.805D-01 0.282D+00 0.729D+00
 Coeff:     -0.406D-03 0.424D-02 0.108D-01 0.461D-03-0.500D-01-0.571D-01
 Coeff:      0.805D-01 0.282D+00 0.729D+00
 Gap=     0.288 Goal=   None    Shift=    0.000
 RMSDP=1.35D-08 MaxDP=7.27D-07 DE=-2.70D-10 OVMax= 3.18D-06

 Cycle  15  Pass 1  IDiag  1:
 RMSU=  8.92D-09    CP:  1.00D+00  1.05D+00  8.09D-01  1.46D+00  1.34D+00
                    CP:  1.08D+00  1.34D+00  1.22D+00  1.12D+00
 E= -2048.75266653656     Delta-E=       -0.000000000213 Rises=F Damp=F
 DIIS: error= 7.31D-08 at cycle  10 NSaved=  10.
 NSaved=10 IEnMin=10 EnMin= -2048.75266653656     IErMin=10 ErrMin= 7.31D-08
 ErrMax= 7.31D-08  0.00D+00 EMaxC= 1.00D-01 BMatC= 4.78D-12 BMatP= 2.65D-11
 IDIUse=1 WtCom= 1.00D+00 WtEn= 0.00D+00
 Coeff-Com:  0.300D-04-0.567D-03-0.132D-02 0.165D-03 0.852D-02 0.527D-02
 Coeff-Com: -0.610D-01-0.794D-01 0.252D+00 0.877D+00
 Coeff:      0.300D-04-0.567D-03-0.132D-02 0.165D-03 0.852D-02 0.527D-02
 Coeff:     -0.610D-01-0.794D-01 0.252D+00 0.877D+00
 Gap=     0.288 Goal=   None    Shift=    0.000
 RMSDP=6.92D-09 MaxDP=3.54D-07 DE=-2.13D-10 OVMax= 1.36D-06

 SCF Done:  E(RwB97XD) =  -2048.75266654     A.U. after   15 cycles
            NFock= 15  Conv=0.69D-08     -V/T= 2.0054
 KE= 2.037735524668D+03 PE=-1.591221001233D+04 EE= 6.259916806472D+03
 Leave Link  502 at Sat Jan 20 03:53:19 2018, MaxMem=  4294967296 cpu:           21805.2 elap:             702.7
 (Enter /share/apps/g16/l601.exe)
 Copying SCF densities to generalized density rwf, IOpCl= 0 IROHF=0.

 **********************************************************************

            Population analysis using the SCF density.

 **********************************************************************

 Orbital symmetries:
       Occupied  (A) (A) (A) (A) (A) (A) (A) (A) (A) (A) (A) (A)
                 (A) (A) (A) (A) (A) (A) (A) (A) (A) (A) (A) (A)
                 (A) (A) (A) (A) (A) (A) (A) (A) (A) (A) (A) (A)
                 (A) (A) (A) (A) (A) (A) (A) (A) (A) (A) (A) (A)
                 (A) (A) (A) (A) (A) (A) (A) (A) (A) (A) (A) (A)
                 (A) (A) (A) (A) (A) (A) (A) (A) (A) (A) (A) (A)
                 (A) (A) (A) (A) (A) (A) (A) (A) (A) (A) (A) (A)
                 (A) (A) (A) (A) (A) (A) (A) (A) (A) (A) (A) (A)
                 (A) (A) (A) (A) (A) (A) (A) (A) (A) (A) (A) (A)
                 (A) (A) (A) (A) (A) (A) (A) (A) (A) (A) (A) (A)
                 (A) (A) (A) (A) (A) (A) (A) (A) (A) (A) (A) (A)
                 (A) (A) (A) (A) (A) (A) (A) (A) (A) (A) (A) (A)
                 (A) (A) (A) (A) (A) (A) (A) (A) (A) (A)
       Virtual   (A) (A) (A) (A) (A) (A) (A) (A) (A) (A) (A) (A)
                 (A) (A) (A) (A) (A) (A) (A) (A) (A) (A) (A) (A)
                 (A) (A) (A) (A) (A) (A) (A) (A) (A) (A) (A) (A)
                 (A) (A) (A) (A) (A) (A) (A) (A) (A) (A) (A) (A)
                 (A) (A) (A) (A) (A) (A) (A) (A) (A) (A) (A) (A)
                 (A) (A) (A) (A) (A) (A) (A) (A) (A) (A) (A) (A)
                 (A) (A) (A) (A) (A) (A) (A) (A) (A) (A) (A) (A)
                 (A) (A) (A) (A) (A) (A) (A) (A) (A) (A) (A) (A)
                 (A) (A) (A) (A) (A) (A) (A) (A) (A) (A) (A) (A)
                 (A) (A) (A) (A) (A) (A) (A) (A) (A) (A) (A) (A)
                 (A) (A) (A) (A) (A) (A) (A) (A) (A) (A) (A) (A)
                 (A) (A) (A) (A) (A) (A) (A) (A) (A) (A) (A) (A)
                 (A) (A) (A) (A) (A) (A) (A) (A) (A) (A) (A) (A)
                 (A) (A) (A) (A) (A) (A) (A) (A) (A) (A) (A) (A)
                 (A) (A) (A) (A) (A) (A) (A) (A) (A) (A) (A) (A)
                 (A) (A) (A) (A) (A) (A) (A) (A) (A) (A) (A) (A)
                 (A) (A) (A) (A) (A) (A) (A) (A) (A) (A) (A) (A)
                 (A) (A) (A) (A) (A) (A) (A) (A) (A) (A) (A) (A)
                 (A) (A) (A) (A) (A) (A) (A) (A) (A) (A) (A) (A)
                 (A) (A) (A) (A) (A) (A) (A) (A) (A) (A) (A) (A)
                 (A) (A) (A) (A) (A) (A) (A) (A) (A) (A) (A) (A)
                 (A) (A) (A) (A) (A) (A) (A) (A) (A) (A) (A) (A)
                 (A) (A) (A) (A) (A) (A) (A) (A) (A) (A) (A) (A)
                 (A) (A) (A) (A) (A) (A) (A) (A) (A) (A) (A) (A)
                 (A) (A) (A) (A) (A) (A) (A) (A) (A) (A) (A) (A)
                 (A) (A) (A) (A) (A) (A) (A) (A) (A) (A) (A) (A)
                 (A) (A) (A) (A) (A) (A) (A) (A) (A) (A) (A) (A)
                 (A) (A) (A) (A) (A) (A) (A) (A) (A) (A) (A) (A)
                 (A) (A) (A) (A) (A) (A) (A) (A) (A) (A) (A) (A)
                 (A) (A) (A) (A) (A) (A) (A) (A) (A) (A) (A) (A)
                 (A) (A) (A) (A) (A) (A) (A) (A) (A) (A) (A) (A)
                 (A) (A) (A) (A) (A) (A) (A) (A) (A) (A) (A) (A)
                 (A) (A) (A) (A) (A) (A) (A) (A) (A) (A) (A) (A)
                 (A) (A) (A) (A) (A) (A) (A) (A) (A) (A) (A) (A)
                 (A) (A) (A) (A) (A) (A) (A) (A) (A) (A) (A) (A)
                 (A) (A) (A) (A) (A) (A) (A) (A) (A) (A) (A) (A)
                 (A) (A) (A) (A) (A) (A) (A) (A) (A) (A) (A) (A)
                 (A) (A) (A) (A) (A) (A) (A) (A) (A) (A) (A) (A)
                 (A) (A) (A) (A) (A) (A) (A) (A) (A) (A) (A) (A)
                 (A) (A) (A) (A) (A) (A) (A) (A) (A) (A) (A) (A)
                 (A) (A) (A) (A) (A) (A) (A) (A) (A) (A) (A) (A)
                 (A) (A) (A) (A) (A) (A) (A) (A) (A) (A) (A) (A)
                 (A) (A) (A) (A) (A) (A) (A) (A) (A) (A) (A) (A)
                 (A) (A) (A) (A) (A) (A) (A) (A) (A) (A) (A) (A)
                 (A) (A) (A) (A) (A) (A) (A) (A) (A) (A) (A) (A)
                 (A) (A) (A) (A) (A) (A) (A) (A) (A) (A) (A) (A)
                 (A) (A) (A) (A) (A) (A) (A) (A) (A) (A) (A) (A)
                 (A) (A) (A) (A) (A) (A) (A) (A) (A) (A) (A) (A)
                 (A) (A) (A) (A) (A) (A) (A)
 The electronic state is 1-A.
 Alpha  occ. eigenvalues --  -19.25524 -19.21810 -19.20639 -14.52406 -14.52082
 Alpha  occ. eigenvalues --  -14.48918 -14.48864 -14.47593 -14.47523 -14.46876
 Alpha  occ. eigenvalues --  -14.46661 -14.45363 -14.44143 -14.44112 -14.42442
 Alpha  occ. eigenvalues --  -14.42007 -14.41332 -14.41182 -14.41000 -14.40538
 Alpha  occ. eigenvalues --  -10.45109 -10.41237 -10.39933 -10.39604 -10.38272
 Alpha  occ. eigenvalues --  -10.37911 -10.37264 -10.37053 -10.35637 -10.35627
 Alpha  occ. eigenvalues --  -10.35046 -10.34415 -10.34085 -10.33995 -10.33517
 Alpha  occ. eigenvalues --  -10.33501 -10.33317 -10.32484 -10.31459 -10.30971
 Alpha  occ. eigenvalues --  -10.30706 -10.28634 -10.28176  -1.19127  -1.15154
 Alpha  occ. eigenvalues --   -1.13214  -1.12858  -1.11443  -1.10650  -1.09051
 Alpha  occ. eigenvalues --   -1.08987  -1.08569  -1.05257  -1.04520  -1.02229
 Alpha  occ. eigenvalues --   -1.00866  -1.00625  -0.99735  -0.98553  -0.97102
 Alpha  occ. eigenvalues --   -0.96648  -0.96594  -0.92926  -0.90667  -0.87521
 Alpha  occ. eigenvalues --   -0.85864  -0.84196  -0.84124  -0.83443  -0.82638
 Alpha  occ. eigenvalues --   -0.82499  -0.78511  -0.76848  -0.74706  -0.74626
 Alpha  occ. eigenvalues --   -0.73635  -0.73081  -0.73074  -0.71233  -0.70188
 Alpha  occ. eigenvalues --   -0.67410  -0.66574  -0.66492  -0.66220  -0.64359
 Alpha  occ. eigenvalues --   -0.63998  -0.63698  -0.62907  -0.62625  -0.61797
 Alpha  occ. eigenvalues --   -0.61152  -0.60558  -0.60261  -0.59343  -0.59135
 Alpha  occ. eigenvalues --   -0.58602  -0.58380  -0.57304  -0.56774  -0.56185
 Alpha  occ. eigenvalues --   -0.55781  -0.55670  -0.55182  -0.54410  -0.54138
 Alpha  occ. eigenvalues --   -0.53722  -0.53586  -0.53459  -0.53133  -0.52961
 Alpha  occ. eigenvalues --   -0.52682  -0.52224  -0.52051  -0.50956  -0.50479
 Alpha  occ. eigenvalues --   -0.50185  -0.49891  -0.49322  -0.49061  -0.48988
 Alpha  occ. eigenvalues --   -0.48820  -0.48380  -0.48113  -0.47607  -0.47317
 Alpha  occ. eigenvalues --   -0.47131  -0.46064  -0.44960  -0.44778  -0.43153
 Alpha  occ. eigenvalues --   -0.41234  -0.40574  -0.39166  -0.37769  -0.37375
 Alpha  occ. eigenvalues --   -0.37284  -0.37250  -0.37172  -0.36109  -0.34425
 Alpha  occ. eigenvalues --   -0.34349  -0.34018  -0.33613  -0.33470  -0.33091
 Alpha  occ. eigenvalues --   -0.32670  -0.32304  -0.31871  -0.31756  -0.31083
 Alpha  occ. eigenvalues --   -0.30647  -0.29507  -0.26156  -0.25284
 Alpha virt. eigenvalues --    0.03510   0.04136   0.07238   0.07665   0.08500
 Alpha virt. eigenvalues --    0.09194   0.09689   0.10513   0.10791   0.12216
 Alpha virt. eigenvalues --    0.13248   0.13340   0.14163   0.14378   0.14901
 Alpha virt. eigenvalues --    0.15151   0.16132   0.17381   0.18116   0.18197
 Alpha virt. eigenvalues --    0.18568   0.19206   0.19554   0.20069   0.20175
 Alpha virt. eigenvalues --    0.20563   0.20983   0.21335   0.21713   0.21996
 Alpha virt. eigenvalues --    0.22743   0.22843   0.22950   0.23317   0.23934
 Alpha virt. eigenvalues --    0.23981   0.24257   0.24890   0.25628   0.25789
 Alpha virt. eigenvalues --    0.26240   0.26842   0.27552   0.27783   0.27887
 Alpha virt. eigenvalues --    0.28614   0.29061   0.29428   0.30046   0.30432
 Alpha virt. eigenvalues --    0.30845   0.31646   0.32402   0.33045   0.33421
 Alpha virt. eigenvalues --    0.33885   0.34174   0.35425   0.35883   0.36322
 Alpha virt. eigenvalues --    0.36462   0.36863   0.37802   0.38231   0.38750
 Alpha virt. eigenvalues --    0.39487   0.40010   0.40834   0.41346   0.42089
 Alpha virt. eigenvalues --    0.42300   0.42423   0.43358   0.43728   0.43919
 Alpha virt. eigenvalues --    0.44781   0.45588   0.45971   0.46246   0.46658
 Alpha virt. eigenvalues --    0.47003   0.47481   0.48110   0.48664   0.49110
 Alpha virt. eigenvalues --    0.49864   0.50317   0.50656   0.50987   0.51222
 Alpha virt. eigenvalues --    0.52009   0.52096   0.52674   0.52886   0.53513
 Alpha virt. eigenvalues --    0.53674   0.53988   0.54273   0.55134   0.55751
 Alpha virt. eigenvalues --    0.55945   0.56253   0.56652   0.57018   0.57276
 Alpha virt. eigenvalues --    0.57803   0.58214   0.59010   0.59490   0.59634
 Alpha virt. eigenvalues --    0.60047   0.60101   0.61076   0.61277   0.61520
 Alpha virt. eigenvalues --    0.61954   0.62218   0.62660   0.62994   0.63079
 Alpha virt. eigenvalues --    0.63773   0.64036   0.64700   0.65216   0.65583
 Alpha virt. eigenvalues --    0.66005   0.66196   0.66538   0.67490   0.67837
 Alpha virt. eigenvalues --    0.68190   0.68579   0.68953   0.69116   0.69967
 Alpha virt. eigenvalues --    0.70186   0.70994   0.71441   0.71767   0.72420
 Alpha virt. eigenvalues --    0.72603   0.73040   0.73082   0.73576   0.74141
 Alpha virt. eigenvalues --    0.74330   0.74860   0.75163   0.75367   0.75807
 Alpha virt. eigenvalues --    0.76110   0.76406   0.76591   0.76928   0.77764
 Alpha virt. eigenvalues --    0.78011   0.78576   0.78887   0.79021   0.79712
 Alpha virt. eigenvalues --    0.79867   0.80462   0.80675   0.81014   0.81358
 Alpha virt. eigenvalues --    0.81596   0.82139   0.82870   0.83131   0.83755
 Alpha virt. eigenvalues --    0.83819   0.83929   0.84225   0.84779   0.85437
 Alpha virt. eigenvalues --    0.86123   0.86251   0.86882   0.87041   0.87881
 Alpha virt. eigenvalues --    0.88276   0.88888   0.89118   0.89465   0.90188
 Alpha virt. eigenvalues --    0.90826   0.91169   0.91520   0.92365   0.92842
 Alpha virt. eigenvalues --    0.93163   0.93704   0.94011   0.94279   0.94470
 Alpha virt. eigenvalues --    0.94864   0.95810   0.96081   0.96422   0.96827
 Alpha virt. eigenvalues --    0.96995   0.97906   0.98285   0.98613   0.99063
 Alpha virt. eigenvalues --    0.99678   0.99982   1.00595   1.00869   1.01067
 Alpha virt. eigenvalues --    1.01720   1.01855   1.02332   1.02858   1.03242
 Alpha virt. eigenvalues --    1.03698   1.04138   1.04866   1.05226   1.06065
 Alpha virt. eigenvalues --    1.06391   1.07021   1.07390   1.07691   1.07993
 Alpha virt. eigenvalues --    1.08641   1.09078   1.10226   1.10533   1.11081
 Alpha virt. eigenvalues --    1.11817   1.11978   1.12365   1.12894   1.13763
 Alpha virt. eigenvalues --    1.14182   1.15157   1.15210   1.15476   1.15852
 Alpha virt. eigenvalues --    1.16308   1.17123   1.17508   1.17664   1.18214
 Alpha virt. eigenvalues --    1.18404   1.18858   1.19196   1.19485   1.19809
 Alpha virt. eigenvalues --    1.20382   1.20634   1.21475   1.21984   1.22144
 Alpha virt. eigenvalues --    1.22542   1.22595   1.23013   1.23271   1.23492
 Alpha virt. eigenvalues --    1.24094   1.24314   1.25002   1.25488   1.25881
 Alpha virt. eigenvalues --    1.26491   1.26841   1.27225   1.27904   1.28237
 Alpha virt. eigenvalues --    1.28351   1.29057   1.30088   1.30664   1.30999
 Alpha virt. eigenvalues --    1.31618   1.32049   1.32692   1.33430   1.33938
 Alpha virt. eigenvalues --    1.35398   1.35646   1.36207   1.36521   1.37121
 Alpha virt. eigenvalues --    1.37606   1.38439   1.38945   1.39769   1.40450
 Alpha virt. eigenvalues --    1.41071   1.41688   1.42599   1.43088   1.44138
 Alpha virt. eigenvalues --    1.45494   1.46057   1.46822   1.47203   1.48476
 Alpha virt. eigenvalues --    1.49224   1.50045   1.50508   1.50785   1.51318
 Alpha virt. eigenvalues --    1.51523   1.53269   1.53990   1.54305   1.54712
 Alpha virt. eigenvalues --    1.55306   1.55852   1.56237   1.57339   1.58177
 Alpha virt. eigenvalues --    1.58512   1.59418   1.60058   1.60741   1.61286
 Alpha virt. eigenvalues --    1.61942   1.62648   1.62896   1.63640   1.63847
 Alpha virt. eigenvalues --    1.64406   1.64829   1.65528   1.65654   1.66946
 Alpha virt. eigenvalues --    1.67332   1.67910   1.68054   1.68930   1.69558
 Alpha virt. eigenvalues --    1.70379   1.70705   1.70956   1.71451   1.71651
 Alpha virt. eigenvalues --    1.71808   1.72432   1.72541   1.73990   1.74111
 Alpha virt. eigenvalues --    1.74548   1.75021   1.75294   1.75692   1.76513
 Alpha virt. eigenvalues --    1.76641   1.76769   1.77188   1.77568   1.77693
 Alpha virt. eigenvalues --    1.78193   1.78472   1.78748   1.79275   1.79587
 Alpha virt. eigenvalues --    1.79751   1.80150   1.80389   1.80731   1.81227
 Alpha virt. eigenvalues --    1.81883   1.82061   1.82799   1.82997   1.83453
 Alpha virt. eigenvalues --    1.83621   1.83816   1.84129   1.84681   1.85309
 Alpha virt. eigenvalues --    1.85558   1.85964   1.86824   1.87105   1.87588
 Alpha virt. eigenvalues --    1.88013   1.88259   1.88703   1.89173   1.89708
 Alpha virt. eigenvalues --    1.90177   1.90565   1.90873   1.92138   1.92585
 Alpha virt. eigenvalues --    1.92998   1.93266   1.93848   1.94042   1.94188
 Alpha virt. eigenvalues --    1.95458   1.96230   1.96985   1.97622   1.97822
 Alpha virt. eigenvalues --    1.99091   1.99735   2.00215   2.00993   2.01947
 Alpha virt. eigenvalues --    2.02488   2.03334   2.03953   2.04170   2.04665
 Alpha virt. eigenvalues --    2.05869   2.06282   2.06646   2.07212   2.07813
 Alpha virt. eigenvalues --    2.08772   2.09258   2.09821   2.10731   2.11524
 Alpha virt. eigenvalues --    2.11963   2.12270   2.12920   2.14310   2.14750
 Alpha virt. eigenvalues --    2.15278   2.16335   2.17298   2.17443   2.18367
 Alpha virt. eigenvalues --    2.19059   2.19498   2.20391   2.21326   2.21573
 Alpha virt. eigenvalues --    2.22003   2.22456   2.23177   2.23383   2.24787
 Alpha virt. eigenvalues --    2.25423   2.25610   2.25968   2.26086   2.27077
 Alpha virt. eigenvalues --    2.27478   2.28370   2.28884   2.29516   2.29980
 Alpha virt. eigenvalues --    2.30531   2.30727   2.31534   2.31932   2.32175
 Alpha virt. eigenvalues --    2.33296   2.33578   2.33862   2.34381   2.34747
 Alpha virt. eigenvalues --    2.34831   2.35646   2.36006   2.36695   2.37346
 Alpha virt. eigenvalues --    2.38725   2.39219   2.40457   2.40862   2.41042
 Alpha virt. eigenvalues --    2.41784   2.42875   2.43283   2.43877   2.44305
 Alpha virt. eigenvalues --    2.45184   2.45223   2.46381   2.46789   2.47086
 Alpha virt. eigenvalues --    2.47880   2.48635   2.50220   2.50398   2.51822
 Alpha virt. eigenvalues --    2.52547   2.53961   2.54664   2.55853   2.56643
 Alpha virt. eigenvalues --    2.56970   2.58106   2.58383   2.59269   2.60186
 Alpha virt. eigenvalues --    2.61192   2.62039   2.62826   2.63004   2.64193
 Alpha virt. eigenvalues --    2.64997   2.65352   2.66111   2.66465   2.67452
 Alpha virt. eigenvalues --    2.67902   2.68335   2.68533   2.69028   2.69689
 Alpha virt. eigenvalues --    2.70085   2.70872   2.71370   2.71732   2.72487
 Alpha virt. eigenvalues --    2.73836   2.75137   2.75573   2.76238   2.76543
 Alpha virt. eigenvalues --    2.77446   2.77580   2.79268   2.79617   2.79851
 Alpha virt. eigenvalues --    2.79919   2.80236   2.80756   2.81293   2.81909
 Alpha virt. eigenvalues --    2.82291   2.82422   2.83270   2.83878   2.84335
 Alpha virt. eigenvalues --    2.85062   2.85239   2.86294   2.86592   2.86775
 Alpha virt. eigenvalues --    2.87165   2.88595   2.89477   2.92756   2.93814
 Alpha virt. eigenvalues --    2.94416   2.96450   2.97102   2.98774   2.99775
 Alpha virt. eigenvalues --    3.00757   3.01330   3.02207   3.04395   3.05621
 Alpha virt. eigenvalues --    3.07144   3.09817   3.10497   3.12940   3.15183
 Alpha virt. eigenvalues --    3.15467   3.15904   3.16561   3.17500   3.20773
 Alpha virt. eigenvalues --    3.22101   3.22990   3.23981   3.24542   3.26861
 Alpha virt. eigenvalues --    3.45206   3.47376   3.47865   3.49589   3.50734
 Alpha virt. eigenvalues --    3.53078   3.54893   3.56208   3.57854   3.60113
 Alpha virt. eigenvalues --    3.63132   3.70979   3.75300
          Condensed to atoms (all electrons):
 Mulliken charges:
               1
     1  N   -0.305418
     2  C    0.177119
     3  C    0.065488
     4  N   -0.247076
     5  C    0.131866
     6  H    0.025201
     7  N   -0.291908
     8  C    0.135173
     9  H    0.011049
    10  N   -0.286421
    11  C    0.227088
    12  C    0.087842
    13  N   -0.044659
    14  H    0.113387
    15  H    0.085137
    16  H    0.028145
    17  H    0.035979
    18  H    0.017654
    19  N   -0.301303
    20  C    0.257514
    21  C    0.184150
    22  N   -0.122898
    23  H    0.118352
    24  H    0.118158
    25  N   -0.308554
    26  C    0.244563
    27  N   -0.142784
    28  H    0.117285
    29  C    0.186906
    30  O   -0.324108
    31  C   -0.018977
    32  N   -0.215168
    33  C    0.117288
    34  H    0.018056
    35  H    0.021284
    36  H    0.031340
    37  H    0.022916
    38  H    0.046885
    39  H    0.060420
    40  H    0.075779
    41  H    0.020942
    42  C   -0.103266
    43  O   -0.274123
    44  C    0.159516
    45  H    0.129937
    46  N   -0.106585
    47  O   -0.345103
    48  C    0.334747
    49  H    0.044738
    50  C    0.173156
    51  C    0.043919
    52  N   -0.276712
    53  H    0.035112
    54  H    0.042163
    55  H    0.021523
    56  H    0.126978
    57  H    0.116937
    58  N   -0.047540
    59  C    0.079864
    60  C    0.217455
    61  N   -0.263264
    62  H    0.028531
    63  C    0.159120
    64  N   -0.297119
    65  H    0.035004
    66  C    0.117160
    67  N   -0.252061
    68  C    0.047210
    69  C    0.180719
    70  N   -0.301713
 Sum of Mulliken charges =  -0.00000
 Mulliken charges with hydrogens summed into heavy atoms:
               1
     1  N   -0.305418
     2  C    0.258897
     3  C    0.065488
     4  N   -0.247076
     5  C    0.157068
     7  N   -0.291908
     8  C    0.146223
    10  N   -0.286421
    11  C    0.227088
    12  C    0.087842
    13  N    0.153864
    19  N   -0.301303
    20  C    0.257514
    21  C    0.259691
    22  N    0.113612
    25  N   -0.308554
    26  C    0.244563
    27  N   -0.025499
    29  C    0.186906
    30  O   -0.324108
    31  C   -0.018977
    32  N   -0.215168
    33  C    0.135344
    42  C   -0.082323
    43  O   -0.274123
    44  C    0.159516
    46  N    0.023353
    47  O   -0.345103
    48  C    0.334747
    50  C    0.217895
    51  C    0.227003
    52  N   -0.276712
    58  N    0.196374
    59  C    0.079864
    60  C    0.217455
    61  N   -0.263264
    63  C    0.187651
    64  N   -0.297119
    66  C    0.152164
    67  N   -0.252061
    68  C    0.047210
    69  C    0.279517
    70  N   -0.301713
 Electronic spatial extent (au):  <R**2>=          22079.5433
 Charge=             -0.0000 electrons
 Dipole moment (field-independent basis, Debye):
    X=             -5.7685    Y=              6.1913    Z=             -4.3470  Tot=              9.5133
 Quadrupole moment (field-independent basis, Debye-Ang):
   XX=           -147.2501   YY=           -223.9319   ZZ=           -260.0997
   XY=             -9.0303   XZ=              2.4610   YZ=              0.0888
 Traceless Quadrupole moment (field-independent basis, Debye-Ang):
   XX=             63.1771   YY=            -13.5046   ZZ=            -49.6725
   XY=             -9.0303   XZ=              2.4610   YZ=              0.0888
 Octapole moment (field-independent basis, Debye-Ang**2):
  XXX=             93.7659  YYY=             49.6684  ZZZ=            -51.4443  XYY=            -38.5866
  XXY=             89.7077  XXZ=            -42.9053  XZZ=            -74.5650  YZZ=             57.6880
  YYZ=            -32.0346  XYZ=             44.3156
 Hexadecapole moment (field-independent basis, Debye-Ang**3):
 XXXX=         -16064.6795 YYYY=          -4043.7929 ZZZZ=          -3871.1681 XXXY=           -637.9483
 XXXZ=            146.6243 YYYX=            114.9475 YYYZ=           -140.3246 ZZZX=            151.8257
 ZZZY=              5.2014 XXYY=          -3824.0277 XXZZ=          -3866.8645 YYZZ=          -1405.6946
 XXYZ=           -119.2720 YYXZ=             10.1522 ZZXY=           -126.7416
 N-N= 5.565805014650D+03 E-N=-1.591221000994D+04  KE= 2.037735524668D+03
 No NMR shielding tensors so no spin-rotation constants.
 Leave Link  601 at Sat Jan 20 03:53:21 2018, MaxMem=  4294967296 cpu:              45.5 elap:               1.6
 (Enter /share/apps/g16/l9999.exe)
 1\1\GINC-COMPUTE-0-3\SP\RwB97XD\CC-pVDZ\C23H27N17O3\SATYA\20-Jan-2018\
 0\\#p wb97xd/cc-pvdz sp scf=(maxcycles=20)\\Base pair stacking\\0,1\N,
 0,2.84245,4.21309,-6.34851\C,0,2.83606,5.67652,-6.53915\C,0,2.23824,2.
 10176,-6.22793\N,0,3.58424,2.13992,-5.89395\C,0,3.89439,3.41039,-5.979
 96\H,0,4.88506,3.82142,-5.78362\N,0,0.0501,1.34721,-6.68142\C,0,-0.258
 43,2.62528,-6.92418\H,0,-1.29387,2.80777,-7.20847\N,0,0.51643,3.70668,
 -6.86877\C,0,1.7671,3.37205,-6.51064\C,0,1.31672,1.04316,-6.32322\N,0,
 1.62663,-0.23207,-6.08047\H,0,2.55184,-0.50301,-5.81252\H,0,0.94495,-0
 .95968,-6.15813\H,0,3.48975,5.9237,-7.25453\H,0,1.9206,5.97437,-6.8081
 2\H,0,3.09368,6.12722,-5.68445\N,0,0.40272,4.43106,-3.30949\C,0,-0.327
 31,3.26777,-3.3526\C,0,-0.14829,5.79128,-3.47352\N,0,-3.37288,1.63994,
 -3.7219\H,0,-3.71182,0.69954,-3.7184\H,0,-4.04695,2.36463,-3.86738\N,0
 ,-1.65992,3.17264,-3.55045\C,0,-2.07304,1.91772,-3.53979\N,0,-1.24602,
 0.83718,-3.35006\H,0,-1.64936,-0.08706,-3.35733\C,0,0.12808,0.91153,-3
 .14466\O,0,0.78364,-0.12532,-2.98367\C,0,0.58658,2.25339,-3.15349\N,0,
 1.86463,2.76947,-2.9887\C,0,1.70706,4.06152,-3.08866\H,0,2.51174,4.793
 23,-3.00881\H,0,0.27977,6.23339,-4.26099\H,0,-1.13483,5.73345,-3.62073
 \H,0,0.0339,6.32801,-2.65039\H,0,-4.16396,-4.43587,-4.14307\H,0,-4.197
 18,-4.49277,-2.3823\H,0,-4.22204,-2.93752,-3.21412\H,0,0.31216,-5.9423
 ,-3.22569\C,0,-0.26789,-5.01957,-3.20682\O,0,1.63645,-3.60749,-3.12526
 \C,0,0.41595,-3.76365,-3.15333\H,0,0.03503,-1.7537,-3.09556\N,0,-0.411
 63,-2.65913,-3.13325\O,0,-2.43113,-1.62048,-3.13778\C,0,-1.78379,-2.65
 255,-3.15892\H,0,-2.17314,-5.97421,-3.27361\C,0,-1.60552,-5.04551,-3.2
 3289\C,0,-3.83446,-3.94512,-3.23937\N,0,-2.36986,-3.90199,-3.21035\H,0
 ,-5.72963,-3.97835,-7.63821\H,0,-5.3952,-2.697,-6.68512\H,0,-5.92499,-
 4.09109,-6.02187\H,0,1.49228,-3.90287,-5.93413\H,0,0.60734,-5.34651,-6
 .14125\N,0,0.60758,-4.34829,-6.07214\C,0,-0.52226,-3.64339,-6.16024\C,
 0,-2.86982,-3.35951,-6.42501\N,0,-2.83933,-2.02004,-6.32862\H,0,-1.475
 65,-0.51392,-6.05918\C,0,-1.59108,-1.59331,-6.14786\N,0,-0.45815,-2.29
 773,-6.05935\H,0,-4.1703,-6.29732,-6.78587\C,0,-3.5012,-5.4478,-6.6460
 2\N,0,-2.20253,-5.53903,-6.495\C,0,-1.78977,-4.22205,-6.35385\C,0,-5.3
 6704,-3.69401,-6.7507\N,0,-3.9728,-4.15811,-6.6139\\Version=EM64L-G16R
 evA.03\State=1-A\HF=-2048.7526665\RMSD=6.922e-09\Dipole=-3.6116604,-0.
 7964742,-0.5747322\Quadrupole=2.0123381,30.3280715,-32.3404095,28.2372
 733,-9.298929,3.8975334\PG=C01 [X(C23H27N17O3)]\\@


 HE THAT IS UNAWARE OF HIS IGNORANCE WILL BE MISLED BY HIS KNOWLEDGE.

                                        -- WHATLEY
 Job cpu time:       0 days  6 hours 13 minutes 41.0 seconds.
 Elapsed time:       0 days  0 hours 12 minutes  2.4 seconds.
 File lengths (MBytes):  RWF=    298 Int=      0 D2E=      0 Chk=     33 Scr=      1
 Normal termination of Gaussian 16 at Sat Jan 20 03:53:21 2018.
