 Entering Gaussian System, Link 0=g16
 Input=str20.-10.0.0.com
 Output=str20.-10.0.0.log
 Initial command:
 /share/apps/g16/l1.exe "/state/partition1/scr/Gau-24504.inp" -scrdir="/state/partition1/scr/"
 Entering Link 1 = /share/apps/g16/l1.exe PID=     24505.
  
 Copyright (c) 1988,1990,1992,1993,1995,1998,2003,2009,2016,
            Gaussian, Inc.  All Rights Reserved.
  
 This is part of the Gaussian(R) 16 program.  It is based on
 the Gaussian(R) 09 system (copyright 2009, Gaussian, Inc.),
 the Gaussian(R) 03 system (copyright 2003, Gaussian, Inc.),
 the Gaussian(R) 98 system (copyright 1998, Gaussian, Inc.),
 the Gaussian(R) 94 system (copyright 1995, Gaussian, Inc.),
 the Gaussian 92(TM) system (copyright 1992, Gaussian, Inc.),
 the Gaussian 90(TM) system (copyright 1990, Gaussian, Inc.),
 the Gaussian 88(TM) system (copyright 1988, Gaussian, Inc.),
 the Gaussian 86(TM) system (copyright 1986, Carnegie Mellon
 University), and the Gaussian 82(TM) system (copyright 1983,
 Carnegie Mellon University). Gaussian is a federally registered
 trademark of Gaussian, Inc.
  
 This software contains proprietary and confidential information,
 including trade secrets, belonging to Gaussian, Inc.
  
 This software is provided under written license and may be
 used, copied, transmitted, or stored only in accord with that
 written license.
  
 The following legend is applicable only to US Government
 contracts under FAR:
  
                    RESTRICTED RIGHTS LEGEND
  
 Use, reproduction and disclosure by the US Government is
 subject to restrictions as set forth in subparagraphs (a)
 and (c) of the Commercial Computer Software - Restricted
 Rights clause in FAR 52.227-19.
  
 Gaussian, Inc.
 340 Quinnipiac St., Bldg. 40, Wallingford CT 06492
  
  
 ---------------------------------------------------------------
 Warning -- This program may not be used in any manner that
 competes with the business of Gaussian, Inc. or will provide
 assistance to any competitor of Gaussian, Inc.  The licensee
 of this program is prohibited from giving any competitor of
 Gaussian, Inc. access to this program.  By using this program,
 the user acknowledges that Gaussian, Inc. is engaged in the
 business of creating and licensing software in the field of
 computational chemistry and represents and warrants to the
 licensee that it is not a competitor of Gaussian, Inc. and that
 it will not use this program in any manner prohibited above.
 ---------------------------------------------------------------
  

 Cite this work as:
 Gaussian 16, Revision A.03,
 M. J. Frisch, G. W. Trucks, H. B. Schlegel, G. E. Scuseria, 
 M. A. Robb, J. R. Cheeseman, G. Scalmani, V. Barone, 
 G. A. Petersson, H. Nakatsuji, X. Li, M. Caricato, A. V. Marenich, 
 J. Bloino, B. G. Janesko, R. Gomperts, B. Mennucci, H. P. Hratchian, 
 J. V. Ortiz, A. F. Izmaylov, J. L. Sonnenberg, D. Williams-Young, 
 F. Ding, F. Lipparini, F. Egidi, J. Goings, B. Peng, A. Petrone, 
 T. Henderson, D. Ranasinghe, V. G. Zakrzewski, J. Gao, N. Rega, 
 G. Zheng, W. Liang, M. Hada, M. Ehara, K. Toyota, R. Fukuda, 
 J. Hasegawa, M. Ishida, T. Nakajima, Y. Honda, O. Kitao, H. Nakai, 
 T. Vreven, K. Throssell, J. A. Montgomery, Jr., J. E. Peralta, 
 F. Ogliaro, M. J. Bearpark, J. J. Heyd, E. N. Brothers, K. N. Kudin, 
 V. N. Staroverov, T. A. Keith, R. Kobayashi, J. Normand, 
 K. Raghavachari, A. P. Rendell, J. C. Burant, S. S. Iyengar, 
 J. Tomasi, M. Cossi, J. M. Millam, M. Klene, C. Adamo, R. Cammi, 
 J. W. Ochterski, R. L. Martin, K. Morokuma, O. Farkas, 
 J. B. Foresman, and D. J. Fox, Gaussian, Inc., Wallingford CT, 2016.
 
 ******************************************
 Gaussian 16:  EM64L-G16RevA.03 25-Dec-2016
                19-Jan-2018 
 ******************************************
 %nprocshared=32
 Will use up to   32 processors via shared memory.
 %mem=32GB
 %chk=allatoms_t.chk
 ---------------------------------------
 #p wb97xd/cc-pvdz sp scf=(maxcycles=20)
 ---------------------------------------
 1/38=1,172=1/1;
 2/12=2,17=6,18=5,40=1/2;
 3/5=16,11=2,25=1,30=1,74=-58/1,2,3;
 4//1;
 5/5=2,7=20,38=5/2;
 6/7=2,8=2,9=2,10=2,28=1/1;
 99/5=1,9=1/99;
 Leave Link    1 at Fri Jan 19 13:16:55 2018, MaxMem=  4294967296 cpu:               2.7 elap:               0.1
 (Enter /share/apps/g16/l101.exe)
 ------------------
 Base pair stacking
 ------------------
 Symbolic Z-matrix:
 Charge =  0 Multiplicity = 1
 N                     1.51645   5.4408   -6.57543 
 C                     1.49136   6.91429  -6.49658 
 C                     0.93698   3.31936  -6.54407 
 N                     2.28745   3.34814  -6.86051 
 C                     2.58251   4.62508  -6.86674 
 H                     3.57158   5.03184  -7.0794 
 N                    -1.24958   2.5753   -6.06626 
 C                    -1.57555   3.86431  -5.92571 
 H                    -2.61714   4.05546  -5.67109 
 N                    -0.81166   4.94757  -6.05188 
 C                     0.44789   4.6017   -6.36547 
 C                     0.02559   2.2601   -6.382 
 N                     0.35292   0.97393  -6.52272 
 H                     1.28499   0.69452  -6.75593 
 H                    -0.32198   0.24622  -6.39989 
 H                     1.75784   7.30128  -7.37941 
 H                     0.56873   7.22072  -6.26425 
 H                     2.13062   7.22342  -5.79247 
 N                     0.0602    4.92645  -3.16247 
 C                    -0.66491   3.76276  -3.07242 
 C                    -0.50541   6.28998  -3.12269 
 N                    -3.71635   2.13851  -2.73735 
 H                    -4.04972   1.19728  -2.69051 
 H                    -4.40059   2.86574  -2.67686 
 N                    -2.00513   3.67019  -2.93358 
 C                    -2.4106    2.41409  -2.87511 
 N                    -1.56953   1.33013  -2.94693 
 H                    -1.96785   0.40522  -2.89363 
 C                    -0.18739   1.4018   -3.08979 
 O                     0.48078   0.36195  -3.14445 
 C                     0.26303   2.74489  -3.15405 
 N                     1.5449    3.2592   -3.29255 
 C                     1.37578   4.55365  -3.29254 
 H                     2.17953   5.28491  -3.38487 
 H                    -0.28569   6.76868  -3.97203 
 H                    -1.49768   6.23406  -3.02006 
 H                    -0.11903   6.79045  -2.3487 
 H                    -4.62762  -3.91626  -3.21479 
 H                    -4.21843  -4.05153  -1.50631 
 H                    -4.44097  -2.46097  -2.23567 
 H                    -0.07448  -5.4407   -3.5174 
 C                    -0.62518  -4.52249  -3.3128 
 O                     1.24794  -3.1064   -3.64932 
 C                     0.05843  -3.26695  -3.37713 
 H                    -0.28262  -1.26339  -3.13682 
 N                    -0.73038  -2.16836  -3.10123 
 O                    -2.67958  -1.14014  -2.55297 
 C                    -2.06503  -2.16717  -2.78147 
 H                    -2.49248  -5.48226  -2.94156 
 C                    -1.92671  -4.5536   -3.00354 
 C                    -4.07873  -3.46461  -2.40189 
 N                    -2.65344  -3.41585  -2.7394 
 H                    -7.06888  -2.71345  -5.14585 
 H                    -6.2782   -1.59991  -4.25313 
 H                    -6.51117  -3.10358  -3.66255 
 H                     0.13098  -2.67151  -6.9419 
 H                    -0.8166   -4.08994  -6.95809 
 N                    -0.73889  -3.11823  -6.73234 
 C                    -1.7509   -2.44883  -6.17654 
 C                    -3.9453   -2.20734  -5.28885 
 N                    -3.81254  -0.90299  -4.9965 
 H                    -2.4081    0.58335  -5.13411 
 C                    -2.60088  -0.46907  -5.33782 
 N                    -1.58591  -1.13796  -5.89459 
 H                    -5.40121  -5.08641  -5.49732 
 C                    -4.70353  -4.24953  -5.53983 
 N                    -3.48448  -4.31906  -6.01601 
 C                    -2.99254  -3.03093  -5.86284 
 C                    -6.32901  -2.57002  -4.48857 
 N                    -5.04867  -3.0011   -5.08263 
 
 ITRead=  0  0  0  0  0  0  0  0  0  0  0  0  0  0  0  0  0  0  0  0
 ITRead=  0  0  0  0  0  0  0  0  0  0  0  0  0  0  0  0  0  0  0  0
 ITRead=  0  0  0  0  0  0  0  0  0  0  0  0  0  0  0  0  0  0  0  0
 ITRead=  0  0  0  0  0  0  0  0  0  0
 MicOpt= -1 -1 -1 -1 -1 -1 -1 -1 -1 -1 -1 -1 -1 -1 -1 -1 -1 -1 -1 -1
 MicOpt= -1 -1 -1 -1 -1 -1 -1 -1 -1 -1 -1 -1 -1 -1 -1 -1 -1 -1 -1 -1
 MicOpt= -1 -1 -1 -1 -1 -1 -1 -1 -1 -1 -1 -1 -1 -1 -1 -1 -1 -1 -1 -1
 MicOpt= -1 -1 -1 -1 -1 -1 -1 -1 -1 -1
 NAtoms=     70 NQM=       70 NQMF=       0 NMMI=      0 NMMIF=      0
                NMic=       0 NMicF=      0.
                    Isotopes and Nuclear Properties:
 (Nuclear quadrupole moments (NQMom) in fm**2, nuclear magnetic moments (NMagM)
  in nuclear magnetons)

  Atom         1           2           3           4           5           6           7           8           9          10
 IAtWgt=          14          12          12          14          12           1          14          12           1          14
 AtmWgt=  14.0030740  12.0000000  12.0000000  14.0030740  12.0000000   1.0078250  14.0030740  12.0000000   1.0078250  14.0030740
 NucSpn=           2           0           0           2           0           1           2           0           1           2
 AtZEff=  -0.0000000  -0.0000000  -0.0000000  -0.0000000  -0.0000000  -0.0000000  -0.0000000  -0.0000000  -0.0000000  -0.0000000
 NQMom=    2.0440000   0.0000000   0.0000000   2.0440000   0.0000000   0.0000000   2.0440000   0.0000000   0.0000000   2.0440000
 NMagM=    0.4037610   0.0000000   0.0000000   0.4037610   0.0000000   2.7928460   0.4037610   0.0000000   2.7928460   0.4037610
 AtZNuc=   7.0000000   6.0000000   6.0000000   7.0000000   6.0000000   1.0000000   7.0000000   6.0000000   1.0000000   7.0000000

  Atom        11          12          13          14          15          16          17          18          19          20
 IAtWgt=          12          12          14           1           1           1           1           1          14          12
 AtmWgt=  12.0000000  12.0000000  14.0030740   1.0078250   1.0078250   1.0078250   1.0078250   1.0078250  14.0030740  12.0000000
 NucSpn=           0           0           2           1           1           1           1           1           2           0
 AtZEff=  -0.0000000  -0.0000000  -0.0000000  -0.0000000  -0.0000000  -0.0000000  -0.0000000  -0.0000000  -0.0000000  -0.0000000
 NQMom=    0.0000000   0.0000000   2.0440000   0.0000000   0.0000000   0.0000000   0.0000000   0.0000000   2.0440000   0.0000000
 NMagM=    0.0000000   0.0000000   0.4037610   2.7928460   2.7928460   2.7928460   2.7928460   2.7928460   0.4037610   0.0000000
 AtZNuc=   6.0000000   6.0000000   7.0000000   1.0000000   1.0000000   1.0000000   1.0000000   1.0000000   7.0000000   6.0000000

  Atom        21          22          23          24          25          26          27          28          29          30
 IAtWgt=          12          14           1           1          14          12          14           1          12          16
 AtmWgt=  12.0000000  14.0030740   1.0078250   1.0078250  14.0030740  12.0000000  14.0030740   1.0078250  12.0000000  15.9949146
 NucSpn=           0           2           1           1           2           0           2           1           0           0
 AtZEff=  -0.0000000  -0.0000000  -0.0000000  -0.0000000  -0.0000000  -0.0000000  -0.0000000  -0.0000000  -0.0000000  -0.0000000
 NQMom=    0.0000000   2.0440000   0.0000000   0.0000000   2.0440000   0.0000000   2.0440000   0.0000000   0.0000000   0.0000000
 NMagM=    0.0000000   0.4037610   2.7928460   2.7928460   0.4037610   0.0000000   0.4037610   2.7928460   0.0000000   0.0000000
 AtZNuc=   6.0000000   7.0000000   1.0000000   1.0000000   7.0000000   6.0000000   7.0000000   1.0000000   6.0000000   8.0000000

  Atom        31          32          33          34          35          36          37          38          39          40
 IAtWgt=          12          14          12           1           1           1           1           1           1           1
 AtmWgt=  12.0000000  14.0030740  12.0000000   1.0078250   1.0078250   1.0078250   1.0078250   1.0078250   1.0078250   1.0078250
 NucSpn=           0           2           0           1           1           1           1           1           1           1
 AtZEff=  -0.0000000  -0.0000000  -0.0000000  -0.0000000  -0.0000000  -0.0000000  -0.0000000  -0.0000000  -0.0000000  -0.0000000
 NQMom=    0.0000000   2.0440000   0.0000000   0.0000000   0.0000000   0.0000000   0.0000000   0.0000000   0.0000000   0.0000000
 NMagM=    0.0000000   0.4037610   0.0000000   2.7928460   2.7928460   2.7928460   2.7928460   2.7928460   2.7928460   2.7928460
 AtZNuc=   6.0000000   7.0000000   6.0000000   1.0000000   1.0000000   1.0000000   1.0000000   1.0000000   1.0000000   1.0000000

  Atom        41          42          43          44          45          46          47          48          49          50
 IAtWgt=           1          12          16          12           1          14          16          12           1          12
 AtmWgt=   1.0078250  12.0000000  15.9949146  12.0000000   1.0078250  14.0030740  15.9949146  12.0000000   1.0078250  12.0000000
 NucSpn=           1           0           0           0           1           2           0           0           1           0
 AtZEff=  -0.0000000  -0.0000000  -0.0000000  -0.0000000  -0.0000000  -0.0000000  -0.0000000  -0.0000000  -0.0000000  -0.0000000
 NQMom=    0.0000000   0.0000000   0.0000000   0.0000000   0.0000000   2.0440000   0.0000000   0.0000000   0.0000000   0.0000000
 NMagM=    2.7928460   0.0000000   0.0000000   0.0000000   2.7928460   0.4037610   0.0000000   0.0000000   2.7928460   0.0000000
 AtZNuc=   1.0000000   6.0000000   8.0000000   6.0000000   1.0000000   7.0000000   8.0000000   6.0000000   1.0000000   6.0000000

  Atom        51          52          53          54          55          56          57          58          59          60
 IAtWgt=          12          14           1           1           1           1           1          14          12          12
 AtmWgt=  12.0000000  14.0030740   1.0078250   1.0078250   1.0078250   1.0078250   1.0078250  14.0030740  12.0000000  12.0000000
 NucSpn=           0           2           1           1           1           1           1           2           0           0
 AtZEff=  -0.0000000  -0.0000000  -0.0000000  -0.0000000  -0.0000000  -0.0000000  -0.0000000  -0.0000000  -0.0000000  -0.0000000
 NQMom=    0.0000000   2.0440000   0.0000000   0.0000000   0.0000000   0.0000000   0.0000000   2.0440000   0.0000000   0.0000000
 NMagM=    0.0000000   0.4037610   2.7928460   2.7928460   2.7928460   2.7928460   2.7928460   0.4037610   0.0000000   0.0000000
 AtZNuc=   6.0000000   7.0000000   1.0000000   1.0000000   1.0000000   1.0000000   1.0000000   7.0000000   6.0000000   6.0000000

  Atom        61          62          63          64          65          66          67          68          69          70
 IAtWgt=          14           1          12          14           1          12          14          12          12          14
 AtmWgt=  14.0030740   1.0078250  12.0000000  14.0030740   1.0078250  12.0000000  14.0030740  12.0000000  12.0000000  14.0030740
 NucSpn=           2           1           0           2           1           0           2           0           0           2
 AtZEff=  -0.0000000  -0.0000000  -0.0000000  -0.0000000  -0.0000000  -0.0000000  -0.0000000  -0.0000000  -0.0000000  -0.0000000
 NQMom=    2.0440000   0.0000000   0.0000000   2.0440000   0.0000000   0.0000000   2.0440000   0.0000000   0.0000000   2.0440000
 NMagM=    0.4037610   2.7928460   0.0000000   0.4037610   2.7928460   0.0000000   0.4037610   0.0000000   0.0000000   0.4037610
 AtZNuc=   7.0000000   1.0000000   6.0000000   7.0000000   1.0000000   6.0000000   7.0000000   6.0000000   6.0000000   7.0000000
 Leave Link  101 at Fri Jan 19 13:16:55 2018, MaxMem=  4294967296 cpu:               7.2 elap:               0.3
 (Enter /share/apps/g16/l202.exe)
 Stoichiometry    C23H27N17O3
 Framework group  C1[X(C23H27N17O3)]
 Deg. of freedom   204
 Full point group                 C1      NOp   1
 Largest Abelian subgroup         C1      NOp   1
 Largest concise Abelian subgroup C1      NOp   1
                         Standard orientation:                         
 ---------------------------------------------------------------------
 Center     Atomic      Atomic             Coordinates (Angstroms)
 Number     Number       Type             X           Y           Z
 ---------------------------------------------------------------------
      1          7           0        5.753988   -1.202770   -1.008176
      2          6           0        7.070674   -0.555094   -1.165888
      3          6           0        3.590360   -1.596367   -0.975412
      4          7           0        4.204101   -2.766352   -0.552106
      5          6           0        5.483046   -2.482399   -0.588789
      6          1           0        6.280040   -3.175503   -0.317968
      7          7           0        1.968237    0.001787   -1.589899
      8          6           0        2.987744    0.834522   -1.823809
      9          1           0        2.706604    1.827503   -2.171990
     10          7           0        4.296249    0.625814   -1.692833
     11          6           0        4.532859   -0.623675   -1.260139
     12          6           0        2.239278   -1.248348   -1.155386
     13          7           0        1.222921   -2.081063   -0.921328
     14          1           0        1.376869   -3.015648   -0.598740
     15          1           0        0.273498   -1.799272   -1.060358
     16          1           0        7.616960   -1.064902   -1.830591
     17          1           0        6.945178    0.382703   -1.488240
     18          1           0        7.545823   -0.542567   -0.286081
     19          7           0        4.355647    1.479763    1.201389
     20          6           0        2.993792    1.608281    1.071377
     21          6           0        5.353634    2.469424    0.748283
     22          7           0        0.231614    3.430758    0.017482
     23          1           0       -0.762989    3.330765    0.020603
     24          1           0        0.602300    4.266824   -0.387848
     25          7           0        2.343768    2.651839    0.512367
     26          6           0        1.033090    2.486637    0.533404
     27          7           0        0.405048    1.384513    1.061052
     28          1           0       -0.602184    1.343246    1.033870
     29          6           0        1.053818    0.298998    1.641235
     30          8           0        0.392763   -0.646547    2.088087
     31          6           0        2.462392    0.462045    1.625951
     32          7           0        3.470337   -0.369345    2.094699
     33          6           0        4.573120    0.273820    1.821917
     34          1           0        5.575926   -0.087400    2.052526
     35          1           0        5.960452    2.048920    0.074668
     36          1           0        4.883815    3.246995    0.332455
     37          1           0        5.891024    2.785041    1.529576
     38          1           0       -5.582204    1.451336    0.013857
     39          1           0       -5.702148    1.987258    1.688085
     40          1           0       -4.282242    2.405488    0.728752
     41          1           0       -5.056035   -2.738211    2.319810
     42          6           0       -4.471303   -1.850703    2.077613
     43          8           0       -2.383444   -2.871105    2.553805
     44          6           0       -3.045865   -1.897897    2.194831
     45          1           0       -1.395032   -0.716572    1.934949
     46          7           0       -2.402868   -0.722026    1.864492
     47          8           0       -2.328614    1.441201    1.177367
     48          6           0       -2.983261    0.449758    1.447833
     49          1           0       -6.146800   -0.634529    1.568281
     50          6           0       -5.066275   -0.722209    1.673756
     51          6           0       -5.025805    1.645762    0.918674
     52          7           0       -4.361063    0.416426    1.359802
     53          1           0       -5.311596    2.751693   -3.047407
     54          1           0       -4.063706    3.070137   -2.045679
     55          1           0       -5.579250    2.956080   -1.450532
     56          1           0       -2.129908   -3.587635   -0.866738
     57          1           0       -3.803917   -3.449230   -1.164483
     58          7           0       -2.913643   -3.001699   -1.073106
     59          6           0       -2.778672   -1.682097   -1.220097
     60          6           0       -3.551170    0.530141   -1.633563
     61          7           0       -2.343363    1.103876   -1.505294
     62          1           0       -0.404486    0.568301   -1.112214
     63          6           0       -1.417464    0.186679   -1.232591
     64          7           0       -1.550657   -1.135455   -1.084970
     65          1           0       -6.739162    0.367414   -2.145818
     66          6           0       -5.689270    0.154209   -1.942834
     67          7           0       -5.203238   -1.040081   -1.708082
     68          6           0       -3.848471   -0.815941   -1.510311
     69          6           0       -4.940496    2.597931   -2.131635
     70          7           0       -4.745221    1.151515   -1.913107
 ---------------------------------------------------------------------
 Rotational constants (GHZ):           0.1729231           0.0533702           0.0516243
 Leave Link  202 at Fri Jan 19 13:16:55 2018, MaxMem=  4294967296 cpu:               0.3 elap:               0.0
 (Enter /share/apps/g16/l301.exe)
 Standard basis: CC-pVDZ (5D, 7F)
 Ernie: Thresh=  0.10000D-02 Tol=  0.10000D-05 Strict=F.
 Ernie:  86 primitive shells out of 1081 were deleted.
 There are   780 symmetry adapted cartesian basis functions of A   symmetry.
 There are   737 symmetry adapted basis functions of A   symmetry.
   737 basis functions,  1608 primitive gaussians,   780 cartesian basis functions
   154 alpha electrons      154 beta electrons
       nuclear repulsion energy      5629.6137813757 Hartrees.
 IExCor= 4639 DFT=T Ex+Corr=wB97XD ExCW=0 ScaHFX=  1.000000
 ScaDFX=  1.000000  1.000000  1.000000  1.000000 ScalE2=  1.000000  1.000000
 IRadAn=      5 IRanWt=     -1 IRanGd=            0 ICorTp=0 IEmpDi=121
 HFx  wShort=  0.000000 wLong=  0.200000 cFull=  0.222036 cShort=  0.000000 cLong=  0.777964
 DFx  wShort=  0.000000 wLong=  0.200000 cFull=  0.000000 cShort=  0.000000 cLong=  1.000000
 NAtoms=   70 NActive=   70 NUniq=   70 SFac= 1.00D+00 NAtFMM=   60 NAOKFM=T Big=T
 Integral buffers will be    131072 words long.
 Raffenetti 2 integral format.
 Two-electron integral symmetry is turned on.
 R6Disp:  Grimme-D2 Dispersion energy=       -0.0810429050 Hartrees.
 Nuclear repulsion after empirical dispersion term =     5629.5327384708 Hartrees.
 Leave Link  301 at Fri Jan 19 13:16:55 2018, MaxMem=  4294967296 cpu:               2.1 elap:               0.1
 (Enter /share/apps/g16/l302.exe)
 NPDir=0 NMtPBC=     1 NCelOv=     1 NCel=       1 NClECP=     1 NCelD=      1
         NCelK=      1 NCelE2=     1 NClLst=     1 CellRange=     0.0.
 One-electron integrals computed using PRISM.
 One-electron integral symmetry used in STVInt
 NBasis=   737 RedAO= T EigKep=  6.48D-04  NBF=   737
 NBsUse=   737 1.00D-06 EigRej= -1.00D+00 NBFU=   737
 Precomputing XC quadrature grid using
 IXCGrd= 4 IRadAn=           5 IRanWt=          -1 IRanGd=           0 AccXCQ= 0.00D+00.
 Generated NRdTot=       0 NPtTot=           0 NUsed=           0 NTot=          32
 NSgBfM=   770   769   769   770   770 MxSgAt=    70 MxSgA2=    70.
 Leave Link  302 at Fri Jan 19 13:16:59 2018, MaxMem=  4294967296 cpu:             135.3 elap:               4.3
 (Enter /share/apps/g16/l303.exe)
 DipDrv:  MaxL=1.
 Leave Link  303 at Fri Jan 19 13:17:00 2018, MaxMem=  4294967296 cpu:              12.6 elap:               0.4
 (Enter /share/apps/g16/l401.exe)
 ExpMin= 1.22D-01 ExpMax= 1.17D+04 ExpMxC= 4.01D+02 IAcc=3 IRadAn=         5 AccDes= 0.00D+00
 Harris functional with IExCor= 4639 and IRadAn=       5 diagonalized for initial guess.
 HarFok:  IExCor= 4639 AccDes= 0.00D+00 IRadAn=         5 IDoV= 1 UseB2=F ITyADJ=14
 ICtDFT=  3500011 ScaDFX=  1.000000  1.000000  1.000000  1.000000
 FoFCou: FMM=F IPFlag=           0 FMFlag=      100000 FMFlg1=        2001
         NFxFlg=           0 DoJE=T BraDBF=F KetDBF=T FulRan=T
         wScrn=  0.000000 ICntrl=       500 IOpCl=  0 I1Cent=   200000004 NGrid=           0
         NMat0=    1 NMatS0=      1 NMatT0=    0 NMatD0=    1 NMtDS0=    0 NMtDT0=    0
 Petite list used in FoFCou.
 Harris En= -1963.87470239512    
 JPrj=0 DoOrth=F DoCkMO=F.
 Leave Link  401 at Fri Jan 19 13:17:13 2018, MaxMem=  4294967296 cpu:             417.9 elap:              13.2
 (Enter /share/apps/g16/l502.exe)
 Integral symmetry usage will be decided dynamically.
 Closed shell SCF:
 Using DIIS extrapolation, IDIIS=  1040.
 NGot=  4294967296 LenX=  4293717438 LenY=  4293108258
 Requested convergence on RMS density matrix=1.00D-08 within  20 cycles.
 Requested convergence on MAX density matrix=1.00D-06.
 Requested convergence on             energy=1.00D-06.
 No special actions if energy rises.
 Fock matrices will be formed incrementally for  20 cycles.
 Integral accuracy reduced to 1.0D-05 until final iterations.

 Cycle   1  Pass 0  IDiag  1:
 FoFJK:  IHMeth= 1 ICntrl=       0 DoSepK=T KAlg= 0 I1Cent=           0 FoldK=F
 IRaf=         1 NMat=       1 IRICut=       1 DoRegI=T DoRafI=F ISym2E= 0 IDoP0=0 IntGTp=1.
 FoFCou: FMM=T IPFlag=           0 FMFlag=      100000 FMFlg1=        2001
         NFxFlg=           0 DoJE=T BraDBF=F KetDBF=F FulRan=T
         wScrn=  0.000000 ICntrl=       500 IOpCl=  0 I1Cent=           0 NGrid=           0
         NMat0=    1 NMatS0=      1 NMatT0=    0 NMatD0=    1 NMtDS0=    0 NMtDT0=    0
 Symmetry not used in FoFCou.
 FMM levels:  10  Number of levels for PrismC:   9
 E= -2048.30603222198    
 DIIS: error= 2.45D-02 at cycle   1 NSaved=   1.
 NSaved= 1 IEnMin= 1 EnMin= -2048.30603222198     IErMin= 1 ErrMin= 2.45D-02
 ErrMax= 2.45D-02  0.00D+00 EMaxC= 1.00D-01 BMatC= 8.37D-01 BMatP= 8.37D-01
 IDIUse=3 WtCom= 7.55D-01 WtEn= 2.45D-01
 Coeff-Com:  0.100D+01
 Coeff-En:   0.100D+01
 Coeff:      0.100D+01
 Gap=     0.259 Goal=   None    Shift=    0.000
 GapD=    0.259 DampG=1.000 DampE=0.500 DampFc=0.5000 IDamp=-1.
 Damping current iteration by 5.00D-01
 RMSDP=1.61D-03 MaxDP=1.29D-01              OVMax= 2.02D-01

 Cycle   2  Pass 0  IDiag  1:
 RMSU=  8.03D-04    CP:  9.98D-01
 E= -2048.50237603791     Delta-E=       -0.196343815927 Rises=F Damp=T
 DIIS: error= 1.37D-02 at cycle   2 NSaved=   2.
 NSaved= 2 IEnMin= 2 EnMin= -2048.50237603791     IErMin= 2 ErrMin= 1.37D-02
 ErrMax= 1.37D-02  0.00D+00 EMaxC= 1.00D-01 BMatC= 1.46D-01 BMatP= 8.37D-01
 IDIUse=3 WtCom= 8.63D-01 WtEn= 1.37D-01
 Coeff-Com: -0.183D+00 0.118D+01
 Coeff-En:   0.000D+00 0.100D+01
 Coeff:     -0.158D+00 0.116D+01
 Gap=     0.323 Goal=   None    Shift=    0.000
 RMSDP=6.05D-04 MaxDP=3.51D-02 DE=-1.96D-01 OVMax= 1.35D-01

 Cycle   3  Pass 0  IDiag  1:
 RMSU=  5.96D-04    CP:  9.94D-01  1.12D+00
 E= -2048.68195304705     Delta-E=       -0.179577009139 Rises=F Damp=F
 DIIS: error= 7.51D-03 at cycle   3 NSaved=   3.
 NSaved= 3 IEnMin= 3 EnMin= -2048.68195304705     IErMin= 3 ErrMin= 7.51D-03
 ErrMax= 7.51D-03  0.00D+00 EMaxC= 1.00D-01 BMatC= 6.79D-02 BMatP= 1.46D-01
 IDIUse=3 WtCom= 9.25D-01 WtEn= 7.51D-02
 Coeff-Com: -0.230D+00 0.554D+00 0.677D+00
 Coeff-En:   0.000D+00 0.000D+00 0.100D+01
 Coeff:     -0.213D+00 0.512D+00 0.701D+00
 Gap=     0.288 Goal=   None    Shift=    0.000
 RMSDP=3.81D-04 MaxDP=3.28D-02 DE=-1.80D-01 OVMax= 6.78D-02

 Cycle   4  Pass 0  IDiag  1:
 RMSU=  2.14D-04    CP:  9.94D-01  1.41D+00  6.55D-01
 E= -2048.73281298294     Delta-E=       -0.050859935894 Rises=F Damp=F
 DIIS: error= 2.48D-03 at cycle   4 NSaved=   4.
 NSaved= 4 IEnMin= 4 EnMin= -2048.73281298294     IErMin= 4 ErrMin= 2.48D-03
 ErrMax= 2.48D-03  0.00D+00 EMaxC= 1.00D-01 BMatC= 1.02D-02 BMatP= 6.79D-02
 IDIUse=3 WtCom= 9.75D-01 WtEn= 2.48D-02
 Coeff-Com: -0.952D-01 0.184D+00 0.378D+00 0.533D+00
 Coeff-En:   0.000D+00 0.000D+00 0.811D-01 0.919D+00
 Coeff:     -0.928D-01 0.180D+00 0.371D+00 0.542D+00
 Gap=     0.289 Goal=   None    Shift=    0.000
 RMSDP=1.35D-04 MaxDP=1.12D-02 DE=-5.09D-02 OVMax= 1.62D-02

 Cycle   5  Pass 0  IDiag  1:
 RMSU=  6.30D-05    CP:  9.94D-01  1.38D+00  7.93D-01  6.18D-01
 E= -2048.74135296359     Delta-E=       -0.008539980653 Rises=F Damp=F
 DIIS: error= 4.96D-04 at cycle   5 NSaved=   5.
 NSaved= 5 IEnMin= 5 EnMin= -2048.74135296359     IErMin= 5 ErrMin= 4.96D-04
 ErrMax= 4.96D-04  0.00D+00 EMaxC= 1.00D-01 BMatC= 2.99D-04 BMatP= 1.02D-02
 IDIUse=3 WtCom= 9.95D-01 WtEn= 4.96D-03
 Coeff-Com: -0.250D-01 0.428D-01 0.123D+00 0.237D+00 0.622D+00
 Coeff-En:   0.000D+00 0.000D+00 0.000D+00 0.000D+00 0.100D+01
 Coeff:     -0.249D-01 0.426D-01 0.122D+00 0.236D+00 0.624D+00
 Gap=     0.290 Goal=   None    Shift=    0.000
 RMSDP=2.74D-05 MaxDP=1.55D-03 DE=-8.54D-03 OVMax= 3.44D-03

 Failed to achieve initial convergence to 1.0D-08 in  6 cycles.
 Switch to full accuracy anyway.
 Cycle   6  Pass 1  IDiag  1:
 E= -2048.74142179945     Delta-E=       -0.000068835858 Rises=F Damp=F
 DIIS: error= 3.84D-04 at cycle   1 NSaved=   1.
 NSaved= 1 IEnMin= 1 EnMin= -2048.74142179945     IErMin= 1 ErrMin= 3.84D-04
 ErrMax= 3.84D-04  0.00D+00 EMaxC= 1.00D-01 BMatC= 8.36D-05 BMatP= 8.36D-05
 IDIUse=3 WtCom= 9.96D-01 WtEn= 3.84D-03
 Coeff-Com:  0.100D+01
 Coeff-En:   0.100D+01
 Coeff:      0.100D+01
 Gap=     0.289 Goal=   None    Shift=    0.000
 RMSDP=2.74D-05 MaxDP=1.55D-03 DE=-6.88D-05 OVMax= 2.51D-03

 Cycle   7  Pass 1  IDiag  1:
 RMSU=  1.30D-04    CP:  1.00D+00
 E= -2048.74148113579     Delta-E=       -0.000059336337 Rises=F Damp=F
 DIIS: error= 1.98D-04 at cycle   2 NSaved=   2.
 NSaved= 2 IEnMin= 2 EnMin= -2048.74148113579     IErMin= 2 ErrMin= 1.98D-04
 ErrMax= 1.98D-04  0.00D+00 EMaxC= 1.00D-01 BMatC= 4.72D-05 BMatP= 8.36D-05
 IDIUse=3 WtCom= 9.98D-01 WtEn= 1.98D-03
 Coeff-Com:  0.403D+00 0.597D+00
 Coeff-En:   0.000D+00 0.100D+01
 Coeff:      0.403D+00 0.597D+00
 Gap=     0.290 Goal=   None    Shift=    0.000
 RMSDP=1.26D-05 MaxDP=8.74D-04 DE=-5.93D-05 OVMax= 1.82D-03

 Cycle   8  Pass 1  IDiag  1:
 RMSU=  1.22D-05    CP:  1.00D+00  1.02D+00
 E= -2048.74151568774     Delta-E=       -0.000034551952 Rises=F Damp=F
 DIIS: error= 8.69D-05 at cycle   3 NSaved=   3.
 NSaved= 3 IEnMin= 3 EnMin= -2048.74151568774     IErMin= 3 ErrMin= 8.69D-05
 ErrMax= 8.69D-05  0.00D+00 EMaxC= 1.00D-01 BMatC= 1.16D-05 BMatP= 4.72D-05
 IDIUse=1 WtCom= 1.00D+00 WtEn= 0.00D+00
 Coeff-Com: -0.188D-01 0.319D+00 0.700D+00
 Coeff:     -0.188D-01 0.319D+00 0.700D+00
 Gap=     0.290 Goal=   None    Shift=    0.000
 RMSDP=6.15D-06 MaxDP=4.06D-04 DE=-3.46D-05 OVMax= 7.04D-04

 Cycle   9  Pass 1  IDiag  1:
 RMSU=  4.01D-06    CP:  1.00D+00  1.05D+00  7.50D-01
 E= -2048.74152692723     Delta-E=       -0.000011239492 Rises=F Damp=F
 DIIS: error= 2.94D-05 at cycle   4 NSaved=   4.
 NSaved= 4 IEnMin= 4 EnMin= -2048.74152692723     IErMin= 4 ErrMin= 2.94D-05
 ErrMax= 2.94D-05  0.00D+00 EMaxC= 1.00D-01 BMatC= 5.81D-07 BMatP= 1.16D-05
 IDIUse=1 WtCom= 1.00D+00 WtEn= 0.00D+00
 Coeff-Com: -0.291D-01 0.934D-01 0.271D+00 0.664D+00
 Coeff:     -0.291D-01 0.934D-01 0.271D+00 0.664D+00
 Gap=     0.290 Goal=   None    Shift=    0.000
 RMSDP=1.52D-06 MaxDP=1.18D-04 DE=-1.12D-05 OVMax= 4.40D-04

 Cycle  10  Pass 1  IDiag  1:
 RMSU=  1.36D-06    CP:  1.00D+00  1.05D+00  7.87D-01  1.09D+00
 E= -2048.74152784643     Delta-E=       -0.000000919192 Rises=F Damp=F
 DIIS: error= 1.24D-05 at cycle   5 NSaved=   5.
 NSaved= 5 IEnMin= 5 EnMin= -2048.74152784643     IErMin= 5 ErrMin= 1.24D-05
 ErrMax= 1.24D-05  0.00D+00 EMaxC= 1.00D-01 BMatC= 1.29D-07 BMatP= 5.81D-07
 IDIUse=1 WtCom= 1.00D+00 WtEn= 0.00D+00
 Coeff-Com: -0.333D-02-0.554D-01-0.111D+00 0.205D+00 0.964D+00
 Coeff:     -0.333D-02-0.554D-01-0.111D+00 0.205D+00 0.964D+00
 Gap=     0.290 Goal=   None    Shift=    0.000
 RMSDP=1.24D-06 MaxDP=7.33D-05 DE=-9.19D-07 OVMax= 2.44D-04

 Cycle  11  Pass 1  IDiag  1:
 RMSU=  5.23D-07    CP:  1.00D+00  1.06D+00  7.99D-01  1.36D+00  1.17D+00
 E= -2048.74152813034     Delta-E=       -0.000000283916 Rises=F Damp=F
 DIIS: error= 5.91D-06 at cycle   6 NSaved=   6.
 NSaved= 6 IEnMin= 6 EnMin= -2048.74152813034     IErMin= 6 ErrMin= 5.91D-06
 ErrMax= 5.91D-06  0.00D+00 EMaxC= 1.00D-01 BMatC= 3.32D-08 BMatP= 1.29D-07
 IDIUse=1 WtCom= 1.00D+00 WtEn= 0.00D+00
 Coeff-Com:  0.462D-02-0.486D-01-0.116D+00-0.734D-02 0.525D+00 0.642D+00
 Coeff:      0.462D-02-0.486D-01-0.116D+00-0.734D-02 0.525D+00 0.642D+00
 Gap=     0.290 Goal=   None    Shift=    0.000
 RMSDP=4.18D-07 MaxDP=3.47D-05 DE=-2.84D-07 OVMax= 1.22D-04

 Cycle  12  Pass 1  IDiag  1:
 RMSU=  2.06D-07    CP:  1.00D+00  1.06D+00  8.01D-01  1.44D+00  1.31D+00
                    CP:  9.64D-01
 E= -2048.74152817906     Delta-E=       -0.000000048723 Rises=F Damp=F
 DIIS: error= 1.24D-06 at cycle   7 NSaved=   7.
 NSaved= 7 IEnMin= 7 EnMin= -2048.74152817906     IErMin= 7 ErrMin= 1.24D-06
 ErrMax= 1.24D-06  0.00D+00 EMaxC= 1.00D-01 BMatC= 8.38D-10 BMatP= 3.32D-08
 IDIUse=1 WtCom= 1.00D+00 WtEn= 0.00D+00
 Coeff-Com:  0.113D-02-0.844D-02-0.214D-01-0.103D-01 0.646D-01 0.138D+00
 Coeff-Com:  0.837D+00
 Coeff:      0.113D-02-0.844D-02-0.214D-01-0.103D-01 0.646D-01 0.138D+00
 Coeff:      0.837D+00
 Gap=     0.290 Goal=   None    Shift=    0.000
 RMSDP=8.98D-08 MaxDP=5.23D-06 DE=-4.87D-08 OVMax= 2.28D-05

 Cycle  13  Pass 1  IDiag  1:
 RMSU=  5.31D-08    CP:  1.00D+00  1.05D+00  8.01D-01  1.45D+00  1.33D+00
                    CP:  1.05D+00  1.14D+00
 E= -2048.74152818082     Delta-E=       -0.000000001761 Rises=F Damp=F
 DIIS: error= 6.08D-07 at cycle   8 NSaved=   8.
 NSaved= 8 IEnMin= 8 EnMin= -2048.74152818082     IErMin= 8 ErrMin= 6.08D-07
 ErrMax= 6.08D-07  0.00D+00 EMaxC= 1.00D-01 BMatC= 3.59D-10 BMatP= 8.38D-10
 IDIUse=1 WtCom= 1.00D+00 WtEn= 0.00D+00
 Coeff-Com: -0.744D-03 0.957D-02 0.222D-01-0.138D-02-0.114D+00-0.112D+00
 Coeff-Com:  0.414D+00 0.782D+00
 Coeff:     -0.744D-03 0.957D-02 0.222D-01-0.138D-02-0.114D+00-0.112D+00
 Coeff:      0.414D+00 0.782D+00
 Gap=     0.290 Goal=   None    Shift=    0.000
 RMSDP=5.25D-08 MaxDP=2.63D-06 DE=-1.76D-09 OVMax= 1.13D-05

 Cycle  14  Pass 1  IDiag  1:
 RMSU=  3.04D-08    CP:  1.00D+00  1.05D+00  8.01D-01  1.45D+00  1.34D+00
                    CP:  1.10D+00  1.29D+00  1.11D+00
 E= -2048.74152818152     Delta-E=       -0.000000000696 Rises=F Damp=F
 DIIS: error= 2.04D-07 at cycle   9 NSaved=   9.
 NSaved= 9 IEnMin= 9 EnMin= -2048.74152818152     IErMin= 9 ErrMin= 2.04D-07
 ErrMax= 2.04D-07  0.00D+00 EMaxC= 1.00D-01 BMatC= 3.01D-11 BMatP= 3.59D-10
 IDIUse=1 WtCom= 1.00D+00 WtEn= 0.00D+00
 Coeff-Com: -0.407D-03 0.460D-02 0.109D-01 0.631D-03-0.500D-01-0.580D-01
 Coeff-Com:  0.748D-01 0.288D+00 0.730D+00
 Coeff:     -0.407D-03 0.460D-02 0.109D-01 0.631D-03-0.500D-01-0.580D-01
 Coeff:      0.748D-01 0.288D+00 0.730D+00
 Gap=     0.290 Goal=   None    Shift=    0.000
 RMSDP=1.44D-08 MaxDP=6.93D-07 DE=-6.96D-10 OVMax= 3.26D-06

 Cycle  15  Pass 1  IDiag  1:
 RMSU=  9.72D-09    CP:  1.00D+00  1.05D+00  8.01D-01  1.45D+00  1.34D+00
                    CP:  1.10D+00  1.31D+00  1.26D+00  1.12D+00
 E= -2048.74152818161     Delta-E=       -0.000000000087 Rises=F Damp=F
 DIIS: error= 6.79D-08 at cycle  10 NSaved=  10.
 NSaved=10 IEnMin=10 EnMin= -2048.74152818161     IErMin=10 ErrMin= 6.79D-08
 ErrMax= 6.79D-08  0.00D+00 EMaxC= 1.00D-01 BMatC= 5.13D-12 BMatP= 3.01D-11
 IDIUse=1 WtCom= 1.00D+00 WtEn= 0.00D+00
 Coeff-Com:  0.246D-04-0.532D-03-0.116D-02 0.193D-03 0.768D-02 0.415D-02
 Coeff-Com: -0.606D-01-0.764D-01 0.248D+00 0.879D+00
 Coeff:      0.246D-04-0.532D-03-0.116D-02 0.193D-03 0.768D-02 0.415D-02
 Coeff:     -0.606D-01-0.764D-01 0.248D+00 0.879D+00
 Gap=     0.290 Goal=   None    Shift=    0.000
 RMSDP=7.49D-09 MaxDP=4.00D-07 DE=-8.73D-11 OVMax= 1.52D-06

 SCF Done:  E(RwB97XD) =  -2048.74152818     A.U. after   15 cycles
            NFock= 15  Conv=0.75D-08     -V/T= 2.0053
 KE= 2.037854562316D+03 PE=-1.603961174955D+04 EE= 6.323482920580D+03
 Leave Link  502 at Fri Jan 19 13:29:34 2018, MaxMem=  4294967296 cpu:           22907.5 elap:             741.6
 (Enter /share/apps/g16/l601.exe)
 Copying SCF densities to generalized density rwf, IOpCl= 0 IROHF=0.

 **********************************************************************

            Population analysis using the SCF density.

 **********************************************************************

 Orbital symmetries:
       Occupied  (A) (A) (A) (A) (A) (A) (A) (A) (A) (A) (A) (A)
                 (A) (A) (A) (A) (A) (A) (A) (A) (A) (A) (A) (A)
                 (A) (A) (A) (A) (A) (A) (A) (A) (A) (A) (A) (A)
                 (A) (A) (A) (A) (A) (A) (A) (A) (A) (A) (A) (A)
                 (A) (A) (A) (A) (A) (A) (A) (A) (A) (A) (A) (A)
                 (A) (A) (A) (A) (A) (A) (A) (A) (A) (A) (A) (A)
                 (A) (A) (A) (A) (A) (A) (A) (A) (A) (A) (A) (A)
                 (A) (A) (A) (A) (A) (A) (A) (A) (A) (A) (A) (A)
                 (A) (A) (A) (A) (A) (A) (A) (A) (A) (A) (A) (A)
                 (A) (A) (A) (A) (A) (A) (A) (A) (A) (A) (A) (A)
                 (A) (A) (A) (A) (A) (A) (A) (A) (A) (A) (A) (A)
                 (A) (A) (A) (A) (A) (A) (A) (A) (A) (A) (A) (A)
                 (A) (A) (A) (A) (A) (A) (A) (A) (A) (A)
       Virtual   (A) (A) (A) (A) (A) (A) (A) (A) (A) (A) (A) (A)
                 (A) (A) (A) (A) (A) (A) (A) (A) (A) (A) (A) (A)
                 (A) (A) (A) (A) (A) (A) (A) (A) (A) (A) (A) (A)
                 (A) (A) (A) (A) (A) (A) (A) (A) (A) (A) (A) (A)
                 (A) (A) (A) (A) (A) (A) (A) (A) (A) (A) (A) (A)
                 (A) (A) (A) (A) (A) (A) (A) (A) (A) (A) (A) (A)
                 (A) (A) (A) (A) (A) (A) (A) (A) (A) (A) (A) (A)
                 (A) (A) (A) (A) (A) (A) (A) (A) (A) (A) (A) (A)
                 (A) (A) (A) (A) (A) (A) (A) (A) (A) (A) (A) (A)
                 (A) (A) (A) (A) (A) (A) (A) (A) (A) (A) (A) (A)
                 (A) (A) (A) (A) (A) (A) (A) (A) (A) (A) (A) (A)
                 (A) (A) (A) (A) (A) (A) (A) (A) (A) (A) (A) (A)
                 (A) (A) (A) (A) (A) (A) (A) (A) (A) (A) (A) (A)
                 (A) (A) (A) (A) (A) (A) (A) (A) (A) (A) (A) (A)
                 (A) (A) (A) (A) (A) (A) (A) (A) (A) (A) (A) (A)
                 (A) (A) (A) (A) (A) (A) (A) (A) (A) (A) (A) (A)
                 (A) (A) (A) (A) (A) (A) (A) (A) (A) (A) (A) (A)
                 (A) (A) (A) (A) (A) (A) (A) (A) (A) (A) (A) (A)
                 (A) (A) (A) (A) (A) (A) (A) (A) (A) (A) (A) (A)
                 (A) (A) (A) (A) (A) (A) (A) (A) (A) (A) (A) (A)
                 (A) (A) (A) (A) (A) (A) (A) (A) (A) (A) (A) (A)
                 (A) (A) (A) (A) (A) (A) (A) (A) (A) (A) (A) (A)
                 (A) (A) (A) (A) (A) (A) (A) (A) (A) (A) (A) (A)
                 (A) (A) (A) (A) (A) (A) (A) (A) (A) (A) (A) (A)
                 (A) (A) (A) (A) (A) (A) (A) (A) (A) (A) (A) (A)
                 (A) (A) (A) (A) (A) (A) (A) (A) (A) (A) (A) (A)
                 (A) (A) (A) (A) (A) (A) (A) (A) (A) (A) (A) (A)
                 (A) (A) (A) (A) (A) (A) (A) (A) (A) (A) (A) (A)
                 (A) (A) (A) (A) (A) (A) (A) (A) (A) (A) (A) (A)
                 (A) (A) (A) (A) (A) (A) (A) (A) (A) (A) (A) (A)
                 (A) (A) (A) (A) (A) (A) (A) (A) (A) (A) (A) (A)
                 (A) (A) (A) (A) (A) (A) (A) (A) (A) (A) (A) (A)
                 (A) (A) (A) (A) (A) (A) (A) (A) (A) (A) (A) (A)
                 (A) (A) (A) (A) (A) (A) (A) (A) (A) (A) (A) (A)
                 (A) (A) (A) (A) (A) (A) (A) (A) (A) (A) (A) (A)
                 (A) (A) (A) (A) (A) (A) (A) (A) (A) (A) (A) (A)
                 (A) (A) (A) (A) (A) (A) (A) (A) (A) (A) (A) (A)
                 (A) (A) (A) (A) (A) (A) (A) (A) (A) (A) (A) (A)
                 (A) (A) (A) (A) (A) (A) (A) (A) (A) (A) (A) (A)
                 (A) (A) (A) (A) (A) (A) (A) (A) (A) (A) (A) (A)
                 (A) (A) (A) (A) (A) (A) (A) (A) (A) (A) (A) (A)
                 (A) (A) (A) (A) (A) (A) (A) (A) (A) (A) (A) (A)
                 (A) (A) (A) (A) (A) (A) (A) (A) (A) (A) (A) (A)
                 (A) (A) (A) (A) (A) (A) (A) (A) (A) (A) (A) (A)
                 (A) (A) (A) (A) (A) (A) (A) (A) (A) (A) (A) (A)
                 (A) (A) (A) (A) (A) (A) (A) (A) (A) (A) (A) (A)
                 (A) (A) (A) (A) (A) (A) (A) (A) (A) (A) (A) (A)
                 (A) (A) (A) (A) (A) (A) (A) (A) (A) (A) (A) (A)
                 (A) (A) (A) (A) (A) (A) (A)
 The electronic state is 1-A.
 Alpha  occ. eigenvalues --  -19.25320 -19.21570 -19.20541 -14.52499 -14.52056
 Alpha  occ. eigenvalues --  -14.49351 -14.48459 -14.47806 -14.47402 -14.46750
 Alpha  occ. eigenvalues --  -14.46510 -14.45622 -14.44193 -14.44190 -14.42872
 Alpha  occ. eigenvalues --  -14.41846 -14.41814 -14.41417 -14.40703 -14.40665
 Alpha  occ. eigenvalues --  -10.44936 -10.41099 -10.39752 -10.39696 -10.38135
 Alpha  occ. eigenvalues --  -10.38101 -10.37295 -10.37195 -10.35972 -10.35646
 Alpha  occ. eigenvalues --  -10.34855 -10.34514 -10.34299 -10.34101 -10.33863
 Alpha  occ. eigenvalues --  -10.33463 -10.33181 -10.32643 -10.31846 -10.30593
 Alpha  occ. eigenvalues --  -10.30385 -10.28974 -10.27932  -1.19074  -1.15404
 Alpha  occ. eigenvalues --   -1.13079  -1.12600  -1.11866  -1.10382  -1.09191
 Alpha  occ. eigenvalues --   -1.08893  -1.08427  -1.05555  -1.04641  -1.02099
 Alpha  occ. eigenvalues --   -1.01126  -1.01007  -0.99578  -0.98393  -0.97524
 Alpha  occ. eigenvalues --   -0.96717  -0.96339  -0.93222  -0.90598  -0.87762
 Alpha  occ. eigenvalues --   -0.86149  -0.84528  -0.83884  -0.83473  -0.82957
 Alpha  occ. eigenvalues --   -0.82151  -0.78444  -0.77062  -0.74879  -0.74422
 Alpha  occ. eigenvalues --   -0.73504  -0.73406  -0.72986  -0.71555  -0.70408
 Alpha  occ. eigenvalues --   -0.67223  -0.66874  -0.66741  -0.66176  -0.64327
 Alpha  occ. eigenvalues --   -0.64181  -0.63620  -0.63275  -0.62520  -0.62041
 Alpha  occ. eigenvalues --   -0.61602  -0.60896  -0.60495  -0.59544  -0.59153
 Alpha  occ. eigenvalues --   -0.58255  -0.58080  -0.57698  -0.57132  -0.56215
 Alpha  occ. eigenvalues --   -0.55969  -0.55685  -0.55377  -0.54362  -0.54030
 Alpha  occ. eigenvalues --   -0.53892  -0.53471  -0.53356  -0.52962  -0.52858
 Alpha  occ. eigenvalues --   -0.52722  -0.52388  -0.52228  -0.51234  -0.50746
 Alpha  occ. eigenvalues --   -0.50014  -0.49864  -0.49360  -0.49142  -0.48764
 Alpha  occ. eigenvalues --   -0.48527  -0.48357  -0.48118  -0.47548  -0.47163
 Alpha  occ. eigenvalues --   -0.46989  -0.45894  -0.45402  -0.44740  -0.43001
 Alpha  occ. eigenvalues --   -0.41535  -0.40762  -0.39105  -0.37753  -0.37657
 Alpha  occ. eigenvalues --   -0.37550  -0.37120  -0.36991  -0.36081  -0.34674
 Alpha  occ. eigenvalues --   -0.34297  -0.34202  -0.33861  -0.33580  -0.32868
 Alpha  occ. eigenvalues --   -0.32468  -0.32182  -0.31692  -0.31623  -0.31198
 Alpha  occ. eigenvalues --   -0.30969  -0.29411  -0.26190  -0.25354
 Alpha virt. eigenvalues --    0.03611   0.03857   0.07062   0.07331   0.08539
 Alpha virt. eigenvalues --    0.09025   0.09829   0.10317   0.10752   0.12493
 Alpha virt. eigenvalues --    0.13272   0.13644   0.13936   0.14250   0.14617
 Alpha virt. eigenvalues --    0.15121   0.16164   0.17481   0.17813   0.18315
 Alpha virt. eigenvalues --    0.18422   0.19194   0.19681   0.19957   0.20225
 Alpha virt. eigenvalues --    0.20614   0.21212   0.21358   0.21499   0.22350
 Alpha virt. eigenvalues --    0.22574   0.22835   0.23050   0.23524   0.24148
 Alpha virt. eigenvalues --    0.24449   0.24609   0.25448   0.25549   0.25925
 Alpha virt. eigenvalues --    0.26586   0.27447   0.27777   0.27943   0.28683
 Alpha virt. eigenvalues --    0.28842   0.28966   0.29617   0.30292   0.30551
 Alpha virt. eigenvalues --    0.31173   0.31689   0.32655   0.33272   0.33648
 Alpha virt. eigenvalues --    0.33842   0.34216   0.35407   0.35970   0.36490
 Alpha virt. eigenvalues --    0.36745   0.37011   0.38124   0.38795   0.39105
 Alpha virt. eigenvalues --    0.39338   0.39970   0.40567   0.41628   0.41645
 Alpha virt. eigenvalues --    0.42547   0.42833   0.43424   0.43679   0.44018
 Alpha virt. eigenvalues --    0.45201   0.45870   0.46119   0.46719   0.47077
 Alpha virt. eigenvalues --    0.47286   0.47967   0.48620   0.48873   0.49728
 Alpha virt. eigenvalues --    0.49950   0.50445   0.50977   0.51378   0.51583
 Alpha virt. eigenvalues --    0.51756   0.52240   0.52377   0.53362   0.53662
 Alpha virt. eigenvalues --    0.54088   0.54444   0.54688   0.55608   0.56115
 Alpha virt. eigenvalues --    0.56293   0.56509   0.57123   0.57243   0.57608
 Alpha virt. eigenvalues --    0.57763   0.58431   0.59051   0.59610   0.59842
 Alpha virt. eigenvalues --    0.60552   0.60947   0.61106   0.61560   0.61584
 Alpha virt. eigenvalues --    0.62295   0.62702   0.62796   0.63697   0.64355
 Alpha virt. eigenvalues --    0.64493   0.64830   0.65108   0.65537   0.65762
 Alpha virt. eigenvalues --    0.66037   0.66334   0.66870   0.67311   0.68177
 Alpha virt. eigenvalues --    0.68401   0.68810   0.69681   0.69992   0.70552
 Alpha virt. eigenvalues --    0.70732   0.70836   0.71227   0.72168   0.72323
 Alpha virt. eigenvalues --    0.73056   0.73221   0.73679   0.74111   0.74229
 Alpha virt. eigenvalues --    0.74694   0.74787   0.75560   0.75814   0.75953
 Alpha virt. eigenvalues --    0.76222   0.76636   0.76970   0.77035   0.78099
 Alpha virt. eigenvalues --    0.78354   0.78749   0.79125   0.79499   0.79540
 Alpha virt. eigenvalues --    0.80123   0.80283   0.80764   0.80888   0.81690
 Alpha virt. eigenvalues --    0.81974   0.82641   0.83160   0.83424   0.83795
 Alpha virt. eigenvalues --    0.83998   0.84185   0.85001   0.85115   0.85568
 Alpha virt. eigenvalues --    0.85635   0.87086   0.87296   0.87726   0.87994
 Alpha virt. eigenvalues --    0.88455   0.88772   0.89314   0.89749   0.89848
 Alpha virt. eigenvalues --    0.90601   0.90893   0.92155   0.92360   0.93050
 Alpha virt. eigenvalues --    0.93610   0.94159   0.94513   0.94816   0.95046
 Alpha virt. eigenvalues --    0.96077   0.96478   0.96616   0.97111   0.97446
 Alpha virt. eigenvalues --    0.98223   0.98688   0.98998   0.99241   0.99580
 Alpha virt. eigenvalues --    0.99936   1.00603   1.00649   1.01841   1.02052
 Alpha virt. eigenvalues --    1.02625   1.03388   1.03557   1.03745   1.04239
 Alpha virt. eigenvalues --    1.04397   1.05386   1.05580   1.05615   1.06231
 Alpha virt. eigenvalues --    1.07389   1.07920   1.08541   1.08733   1.09230
 Alpha virt. eigenvalues --    1.09653   1.10680   1.11092   1.11316   1.11737
 Alpha virt. eigenvalues --    1.12139   1.13514   1.13676   1.14304   1.14516
 Alpha virt. eigenvalues --    1.14748   1.14896   1.15163   1.16173   1.16402
 Alpha virt. eigenvalues --    1.17020   1.17334   1.17835   1.17982   1.18487
 Alpha virt. eigenvalues --    1.18822   1.19233   1.20106   1.20436   1.20747
 Alpha virt. eigenvalues --    1.21269   1.21723   1.22108   1.22182   1.22731
 Alpha virt. eigenvalues --    1.23059   1.23579   1.23946   1.24197   1.24466
 Alpha virt. eigenvalues --    1.25210   1.25956   1.26042   1.26476   1.26997
 Alpha virt. eigenvalues --    1.27153   1.27670   1.27994   1.28384   1.29356
 Alpha virt. eigenvalues --    1.29913   1.30529   1.31082   1.32291   1.32453
 Alpha virt. eigenvalues --    1.32774   1.33755   1.34205   1.34522   1.34917
 Alpha virt. eigenvalues --    1.35362   1.35977   1.36749   1.37697   1.38588
 Alpha virt. eigenvalues --    1.38975   1.39611   1.40068   1.40377   1.41293
 Alpha virt. eigenvalues --    1.42293   1.43198   1.44339   1.44873   1.45321
 Alpha virt. eigenvalues --    1.46596   1.47582   1.48034   1.48928   1.49753
 Alpha virt. eigenvalues --    1.50405   1.50682   1.51119   1.52010   1.52361
 Alpha virt. eigenvalues --    1.53435   1.54248   1.54902   1.55319   1.56232
 Alpha virt. eigenvalues --    1.56761   1.57497   1.57786   1.58008   1.58821
 Alpha virt. eigenvalues --    1.59804   1.60126   1.61196   1.61489   1.62127
 Alpha virt. eigenvalues --    1.62387   1.63375   1.63744   1.63969   1.64157
 Alpha virt. eigenvalues --    1.64714   1.65608   1.65901   1.66470   1.67659
 Alpha virt. eigenvalues --    1.68185   1.68974   1.69230   1.70081   1.70518
 Alpha virt. eigenvalues --    1.70641   1.71196   1.71622   1.72087   1.72476
 Alpha virt. eigenvalues --    1.72685   1.73150   1.73763   1.74030   1.74325
 Alpha virt. eigenvalues --    1.74939   1.75381   1.76276   1.76546   1.76840
 Alpha virt. eigenvalues --    1.76929   1.76990   1.77512   1.77915   1.78171
 Alpha virt. eigenvalues --    1.78579   1.78902   1.79082   1.79368   1.79832
 Alpha virt. eigenvalues --    1.80511   1.80629   1.81661   1.82195   1.82228
 Alpha virt. eigenvalues --    1.82589   1.83018   1.83372   1.83703   1.83932
 Alpha virt. eigenvalues --    1.84447   1.84892   1.85445   1.85914   1.86456
 Alpha virt. eigenvalues --    1.86589   1.87075   1.87335   1.87660   1.88260
 Alpha virt. eigenvalues --    1.88506   1.89339   1.89542   1.90116   1.90504
 Alpha virt. eigenvalues --    1.90871   1.91446   1.91738   1.92073   1.92967
 Alpha virt. eigenvalues --    1.93259   1.93692   1.94149   1.94710   1.95635
 Alpha virt. eigenvalues --    1.96385   1.97436   1.97766   1.98548   1.99452
 Alpha virt. eigenvalues --    1.99707   2.01463   2.02045   2.02541   2.02652
 Alpha virt. eigenvalues --    2.03345   2.03389   2.04038   2.04594   2.05556
 Alpha virt. eigenvalues --    2.06256   2.07207   2.07325   2.07710   2.08386
 Alpha virt. eigenvalues --    2.08624   2.10825   2.11283   2.11829   2.12232
 Alpha virt. eigenvalues --    2.12459   2.13198   2.13652   2.13877   2.14603
 Alpha virt. eigenvalues --    2.15841   2.16373   2.17559   2.17957   2.18696
 Alpha virt. eigenvalues --    2.18977   2.19942   2.20257   2.21584   2.22075
 Alpha virt. eigenvalues --    2.23210   2.23636   2.24337   2.25158   2.25192
 Alpha virt. eigenvalues --    2.26037   2.26646   2.27040   2.27333   2.27757
 Alpha virt. eigenvalues --    2.28117   2.28776   2.29394   2.29738   2.30500
 Alpha virt. eigenvalues --    2.30932   2.32363   2.32670   2.32817   2.33584
 Alpha virt. eigenvalues --    2.33966   2.34422   2.34897   2.35206   2.35496
 Alpha virt. eigenvalues --    2.36197   2.36366   2.36722   2.36857   2.37951
 Alpha virt. eigenvalues --    2.38719   2.39683   2.39882   2.41308   2.41757
 Alpha virt. eigenvalues --    2.42280   2.43433   2.43609   2.44556   2.44687
 Alpha virt. eigenvalues --    2.45347   2.45423   2.45822   2.46363   2.47920
 Alpha virt. eigenvalues --    2.48062   2.49926   2.50781   2.51935   2.52362
 Alpha virt. eigenvalues --    2.53883   2.54014   2.55789   2.56622   2.57203
 Alpha virt. eigenvalues --    2.57517   2.57923   2.58815   2.60076   2.61132
 Alpha virt. eigenvalues --    2.61527   2.63031   2.63737   2.63959   2.64414
 Alpha virt. eigenvalues --    2.65127   2.65745   2.66482   2.67514   2.68450
 Alpha virt. eigenvalues --    2.68740   2.68918   2.69238   2.70737   2.71290
 Alpha virt. eigenvalues --    2.71797   2.72221   2.72562   2.72817   2.73727
 Alpha virt. eigenvalues --    2.74398   2.75551   2.76185   2.76951   2.77825
 Alpha virt. eigenvalues --    2.78235   2.78803   2.79710   2.79947   2.80480
 Alpha virt. eigenvalues --    2.80754   2.80955   2.81474   2.81717   2.82189
 Alpha virt. eigenvalues --    2.82806   2.83408   2.84044   2.84358   2.85377
 Alpha virt. eigenvalues --    2.86268   2.86499   2.86836   2.87142   2.87816
 Alpha virt. eigenvalues --    2.88637   2.89034   2.90074   2.93831   2.94811
 Alpha virt. eigenvalues --    2.95243   2.98353   2.99104   2.99530   3.00539
 Alpha virt. eigenvalues --    3.01227   3.02672   3.03012   3.04683   3.06594
 Alpha virt. eigenvalues --    3.08020   3.10374   3.10605   3.13269   3.15248
 Alpha virt. eigenvalues --    3.15655   3.17125   3.17287   3.18469   3.21103
 Alpha virt. eigenvalues --    3.22529   3.22982   3.24168   3.24533   3.27925
 Alpha virt. eigenvalues --    3.45107   3.47820   3.48327   3.49621   3.50999
 Alpha virt. eigenvalues --    3.53112   3.54994   3.56453   3.58249   3.60475
 Alpha virt. eigenvalues --    3.63995   3.70955   3.75448
          Condensed to atoms (all electrons):
 Mulliken charges:
               1
     1  N   -0.305722
     2  C    0.173495
     3  C    0.076121
     4  N   -0.251492
     5  C    0.130160
     6  H    0.027108
     7  N   -0.285181
     8  C    0.136858
     9  H    0.012217
    10  N   -0.284408
    11  C    0.218379
    12  C    0.086846
    13  N   -0.047215
    14  H    0.110382
    15  H    0.086098
    16  H    0.029298
    17  H    0.041776
    18  H    0.020704
    19  N   -0.282187
    20  C    0.228274
    21  C    0.191011
    22  N   -0.111905
    23  H    0.116515
    24  H    0.116428
    25  N   -0.297925
    26  C    0.225733
    27  N   -0.138485
    28  H    0.118825
    29  C    0.177728
    30  O   -0.323024
    31  C   -0.007009
    32  N   -0.215567
    33  C    0.116562
    34  H    0.015376
    35  H    0.008566
    36  H    0.029497
    37  H    0.020364
    38  H    0.041849
    39  H    0.058246
    40  H    0.073411
    41  H    0.025233
    42  C   -0.106168
    43  O   -0.268671
    44  C    0.166379
    45  H    0.131419
    46  N   -0.114835
    47  O   -0.333784
    48  C    0.329664
    49  H    0.043048
    50  C    0.172916
    51  C    0.046508
    52  N   -0.274073
    53  H    0.037348
    54  H    0.042023
    55  H    0.020168
    56  H    0.124341
    57  H    0.119172
    58  N   -0.057259
    59  C    0.100222
    60  C    0.197309
    61  N   -0.250901
    62  H    0.034281
    63  C    0.147151
    64  N   -0.296646
    65  H    0.036884
    66  C    0.109545
    67  N   -0.245557
    68  C    0.048608
    69  C    0.176209
    70  N   -0.298239
 Sum of Mulliken charges =  -0.00000
 Mulliken charges with hydrogens summed into heavy atoms:
               1
     1  N   -0.305722
     2  C    0.265273
     3  C    0.076121
     4  N   -0.251492
     5  C    0.157268
     7  N   -0.285181
     8  C    0.149075
    10  N   -0.284408
    11  C    0.218379
    12  C    0.086846
    13  N    0.149264
    19  N   -0.282187
    20  C    0.228274
    21  C    0.249438
    22  N    0.121038
    25  N   -0.297925
    26  C    0.225733
    27  N   -0.019660
    29  C    0.177728
    30  O   -0.323024
    31  C   -0.007009
    32  N   -0.215567
    33  C    0.131938
    42  C   -0.080934
    43  O   -0.268671
    44  C    0.166379
    46  N    0.016584
    47  O   -0.333784
    48  C    0.329664
    50  C    0.215964
    51  C    0.220014
    52  N   -0.274073
    58  N    0.186254
    59  C    0.100222
    60  C    0.197309
    61  N   -0.250901
    63  C    0.181431
    64  N   -0.296646
    66  C    0.146429
    67  N   -0.245557
    68  C    0.048608
    69  C    0.275748
    70  N   -0.298239
 Electronic spatial extent (au):  <R**2>=          21756.0432
 Charge=             -0.0000 electrons
 Dipole moment (field-independent basis, Debye):
    X=             -5.5887    Y=              6.3469    Z=             -4.3352  Tot=              9.5032
 Quadrupole moment (field-independent basis, Debye-Ang):
   XX=           -147.0436   YY=           -225.8763   ZZ=           -261.3835
   XY=            -10.8582   XZ=              3.6184   YZ=              8.6622
 Traceless Quadrupole moment (field-independent basis, Debye-Ang):
   XX=             64.3909   YY=            -14.4419   ZZ=            -49.9490
   XY=            -10.8582   XZ=              3.6184   YZ=              8.6622
 Octapole moment (field-independent basis, Debye-Ang**2):
  XXX=             88.2337  YYY=             53.3798  ZZZ=            -24.8907  XYY=            -61.9381
  XXY=             85.6829  XXZ=             -8.9159  XZZ=            -40.4666  YZZ=             49.5521
  YYZ=            -60.4073  XYZ=             35.2631
 Hexadecapole moment (field-independent basis, Debye-Ang**3):
 XXXX=         -15936.5974 YYYY=          -3825.1369 ZZZZ=          -3576.6032 XXXY=           -651.3076
 XXXZ=            -21.8263 YYYX=             64.4818 YYYZ=             26.9158 ZZZX=             42.2290
 ZZZY=             26.3712 XXYY=          -3841.7747 XXZZ=          -3964.0512 YYZZ=          -1354.8454
 XXYZ=            -78.6946 YYXZ=            135.6784 ZZXY=           -105.3093
 N-N= 5.629532738471D+03 E-N=-1.603961173766D+04  KE= 2.037854562316D+03
 No NMR shielding tensors so no spin-rotation constants.
 Leave Link  601 at Fri Jan 19 13:29:36 2018, MaxMem=  4294967296 cpu:              51.5 elap:               1.8
 (Enter /share/apps/g16/l9999.exe)
 1\1\GINC-COMPUTE-0-3\SP\RwB97XD\CC-pVDZ\C23H27N17O3\SATYA\19-Jan-2018\
 0\\#p wb97xd/cc-pvdz sp scf=(maxcycles=20)\\Base pair stacking\\0,1\N,
 0,1.51645,5.4408,-6.57543\C,0,1.49136,6.91429,-6.49658\C,0,0.93698,3.3
 1936,-6.54407\N,0,2.28745,3.34814,-6.86051\C,0,2.58251,4.62508,-6.8667
 4\H,0,3.57158,5.03184,-7.0794\N,0,-1.24958,2.5753,-6.06626\C,0,-1.5755
 5,3.86431,-5.92571\H,0,-2.61714,4.05546,-5.67109\N,0,-0.81166,4.94757,
 -6.05188\C,0,0.44789,4.6017,-6.36547\C,0,0.02559,2.2601,-6.382\N,0,0.3
 5292,0.97393,-6.52272\H,0,1.28499,0.69452,-6.75593\H,0,-0.32198,0.2462
 2,-6.39989\H,0,1.75784,7.30128,-7.37941\H,0,0.56873,7.22072,-6.26425\H
 ,0,2.13062,7.22342,-5.79247\N,0,0.0602,4.92645,-3.16247\C,0,-0.66491,3
 .76276,-3.07242\C,0,-0.50541,6.28998,-3.12269\N,0,-3.71635,2.13851,-2.
 73735\H,0,-4.04972,1.19728,-2.69051\H,0,-4.40059,2.86574,-2.67686\N,0,
 -2.00513,3.67019,-2.93358\C,0,-2.4106,2.41409,-2.87511\N,0,-1.56953,1.
 33013,-2.94693\H,0,-1.96785,0.40522,-2.89363\C,0,-0.18739,1.4018,-3.08
 979\O,0,0.48078,0.36195,-3.14445\C,0,0.26303,2.74489,-3.15405\N,0,1.54
 49,3.2592,-3.29255\C,0,1.37578,4.55365,-3.29254\H,0,2.17953,5.28491,-3
 .38487\H,0,-0.28569,6.76868,-3.97203\H,0,-1.49768,6.23406,-3.02006\H,0
 ,-0.11903,6.79045,-2.3487\H,0,-4.62762,-3.91626,-3.21479\H,0,-4.21843,
 -4.05153,-1.50631\H,0,-4.44097,-2.46097,-2.23567\H,0,-0.07448,-5.4407,
 -3.5174\C,0,-0.62518,-4.52249,-3.3128\O,0,1.24794,-3.1064,-3.64932\C,0
 ,0.05843,-3.26695,-3.37713\H,0,-0.28262,-1.26339,-3.13682\N,0,-0.73038
 ,-2.16836,-3.10123\O,0,-2.67958,-1.14014,-2.55297\C,0,-2.06503,-2.1671
 7,-2.78147\H,0,-2.49248,-5.48226,-2.94156\C,0,-1.92671,-4.5536,-3.0035
 4\C,0,-4.07873,-3.46461,-2.40189\N,0,-2.65344,-3.41585,-2.7394\H,0,-7.
 06888,-2.71345,-5.14585\H,0,-6.2782,-1.59991,-4.25313\H,0,-6.51117,-3.
 10358,-3.66255\H,0,0.13098,-2.67151,-6.9419\H,0,-0.8166,-4.08994,-6.95
 809\N,0,-0.73889,-3.11823,-6.73234\C,0,-1.7509,-2.44883,-6.17654\C,0,-
 3.9453,-2.20734,-5.28885\N,0,-3.81254,-0.90299,-4.9965\H,0,-2.4081,0.5
 8335,-5.13411\C,0,-2.60088,-0.46907,-5.33782\N,0,-1.58591,-1.13796,-5.
 89459\H,0,-5.40121,-5.08641,-5.49732\C,0,-4.70353,-4.24953,-5.53983\N,
 0,-3.48448,-4.31906,-6.01601\C,0,-2.99254,-3.03093,-5.86284\C,0,-6.329
 01,-2.57002,-4.48857\N,0,-5.04867,-3.0011,-5.08263\\Version=EM64L-G16R
 evA.03\State=1-A\HF=-2048.7415282\RMSD=7.494e-09\Dipole=-3.6615815,-0.
 7514801,0.0837318\Quadrupole=-6.5965267,29.5419416,-22.9454149,31.1230
 172,-17.7216561,-1.7065913\PG=C01 [X(C23H27N17O3)]\\@


 You can't act like a skunk without someone's getting wind of it.
 -- Lorene Workman
 Job cpu time:       0 days  6 hours 32 minutes 19.4 seconds.
 Elapsed time:       0 days  0 hours 12 minutes 41.9 seconds.
 File lengths (MBytes):  RWF=    298 Int=      0 D2E=      0 Chk=     33 Scr=      1
 Normal termination of Gaussian 16 at Fri Jan 19 13:29:37 2018.
