 Entering Gaussian System, Link 0=g16
 Input=str20.0.-0.5.com
 Output=str20.0.-0.5.log
 Initial command:
 /share/apps/g16/l1.exe "/state/partition1/scr/Gau-13681.inp" -scrdir="/state/partition1/scr/"
 Entering Link 1 = /share/apps/g16/l1.exe PID=     13682.
  
 Copyright (c) 1988,1990,1992,1993,1995,1998,2003,2009,2016,
            Gaussian, Inc.  All Rights Reserved.
  
 This is part of the Gaussian(R) 16 program.  It is based on
 the Gaussian(R) 09 system (copyright 2009, Gaussian, Inc.),
 the Gaussian(R) 03 system (copyright 2003, Gaussian, Inc.),
 the Gaussian(R) 98 system (copyright 1998, Gaussian, Inc.),
 the Gaussian(R) 94 system (copyright 1995, Gaussian, Inc.),
 the Gaussian 92(TM) system (copyright 1992, Gaussian, Inc.),
 the Gaussian 90(TM) system (copyright 1990, Gaussian, Inc.),
 the Gaussian 88(TM) system (copyright 1988, Gaussian, Inc.),
 the Gaussian 86(TM) system (copyright 1986, Carnegie Mellon
 University), and the Gaussian 82(TM) system (copyright 1983,
 Carnegie Mellon University). Gaussian is a federally registered
 trademark of Gaussian, Inc.
  
 This software contains proprietary and confidential information,
 including trade secrets, belonging to Gaussian, Inc.
  
 This software is provided under written license and may be
 used, copied, transmitted, or stored only in accord with that
 written license.
  
 The following legend is applicable only to US Government
 contracts under FAR:
  
                    RESTRICTED RIGHTS LEGEND
  
 Use, reproduction and disclosure by the US Government is
 subject to restrictions as set forth in subparagraphs (a)
 and (c) of the Commercial Computer Software - Restricted
 Rights clause in FAR 52.227-19.
  
 Gaussian, Inc.
 340 Quinnipiac St., Bldg. 40, Wallingford CT 06492
  
  
 ---------------------------------------------------------------
 Warning -- This program may not be used in any manner that
 competes with the business of Gaussian, Inc. or will provide
 assistance to any competitor of Gaussian, Inc.  The licensee
 of this program is prohibited from giving any competitor of
 Gaussian, Inc. access to this program.  By using this program,
 the user acknowledges that Gaussian, Inc. is engaged in the
 business of creating and licensing software in the field of
 computational chemistry and represents and warrants to the
 licensee that it is not a competitor of Gaussian, Inc. and that
 it will not use this program in any manner prohibited above.
 ---------------------------------------------------------------
  

 Cite this work as:
 Gaussian 16, Revision A.03,
 M. J. Frisch, G. W. Trucks, H. B. Schlegel, G. E. Scuseria, 
 M. A. Robb, J. R. Cheeseman, G. Scalmani, V. Barone, 
 G. A. Petersson, H. Nakatsuji, X. Li, M. Caricato, A. V. Marenich, 
 J. Bloino, B. G. Janesko, R. Gomperts, B. Mennucci, H. P. Hratchian, 
 J. V. Ortiz, A. F. Izmaylov, J. L. Sonnenberg, D. Williams-Young, 
 F. Ding, F. Lipparini, F. Egidi, J. Goings, B. Peng, A. Petrone, 
 T. Henderson, D. Ranasinghe, V. G. Zakrzewski, J. Gao, N. Rega, 
 G. Zheng, W. Liang, M. Hada, M. Ehara, K. Toyota, R. Fukuda, 
 J. Hasegawa, M. Ishida, T. Nakajima, Y. Honda, O. Kitao, H. Nakai, 
 T. Vreven, K. Throssell, J. A. Montgomery, Jr., J. E. Peralta, 
 F. Ogliaro, M. J. Bearpark, J. J. Heyd, E. N. Brothers, K. N. Kudin, 
 V. N. Staroverov, T. A. Keith, R. Kobayashi, J. Normand, 
 K. Raghavachari, A. P. Rendell, J. C. Burant, S. S. Iyengar, 
 J. Tomasi, M. Cossi, J. M. Millam, M. Klene, C. Adamo, R. Cammi, 
 J. W. Ochterski, R. L. Martin, K. Morokuma, O. Farkas, 
 J. B. Foresman, and D. J. Fox, Gaussian, Inc., Wallingford CT, 2016.
 
 ******************************************
 Gaussian 16:  EM64L-G16RevA.03 25-Dec-2016
                19-Jan-2018 
 ******************************************
 %nprocshared=32
 Will use up to   32 processors via shared memory.
 %mem=32GB
 %chk=allatoms_t.chk
 ---------------------------------------
 #p wb97xd/cc-pvdz sp scf=(maxcycles=20)
 ---------------------------------------
 1/38=1,172=1/1;
 2/12=2,17=6,18=5,40=1/2;
 3/5=16,11=2,25=1,30=1,74=-58/1,2,3;
 4//1;
 5/5=2,7=20,38=5/2;
 6/7=2,8=2,9=2,10=2,28=1/1;
 99/5=1,9=1/99;
 Leave Link    1 at Fri Jan 19 11:14:45 2018, MaxMem=  4294967296 cpu:               2.7 elap:               0.1
 (Enter /share/apps/g16/l101.exe)
 ------------------
 Base pair stacking
 ------------------
 Symbolic Z-matrix:
 Charge =  0 Multiplicity = 1
 N                     2.95729   6.16805  -6.47105 
 C                     2.92461   7.63992  -6.57363 
 C                     2.37431   4.04934  -6.37851 
 N                     3.75627   4.07716  -6.25948 
 C                     4.05217   5.35248  -6.32 
 H                     5.06248   5.7581   -6.25909 
 N                     0.1401    3.30763  -6.52372 
 C                    -0.19963   4.59545  -6.6407 
 H                    -1.2665    4.78711  -6.74702 
 N                     0.57701   5.67698  -6.64603 
 C                     1.86769   5.33062  -6.50964 
 C                     1.44661   2.99189  -6.38803 
 N                     1.78772   1.70692  -6.27112 
 H                     2.74294   1.42716  -6.1686 
 H                     1.10047   0.98048  -6.28203 
 H                     3.45776   7.93199  -7.36775 
 H                     1.97893   7.94666  -6.67715 
 H                     3.31512   8.04258  -5.74576 
 N                     0.4262    5.41754  -3.26456 
 C                    -0.30514   4.25427  -3.26328 
 C                    -0.13635   6.77948  -3.36129 
 N                    -3.37141   2.62903  -3.39872 
 H                    -3.70907   1.68834  -3.38065 
 H                    -4.05517   3.35512  -3.47605 
 N                    -1.64971   4.16074  -3.34948 
 C                    -2.06078   2.90538  -3.32272 
 N                    -1.22097   1.82299  -3.21948 
 H                    -1.62371   0.89855  -3.20649 
 C                     0.16557   1.89567  -3.12957 
 O                     0.83212   0.85721  -3.03986 
 C                     0.62203   3.23797  -3.15705 
 N                     1.90955   3.75284  -3.09292 
 C                     1.74443   5.04607  -3.16 
 H                     2.55315   5.77733  -3.13738 
 H                     0.22391   7.23367  -4.17537 
 H                    -1.13179   6.72284  -3.42565 
 H                     0.11472   7.30411  -2.54855 
 H                    -4.19667  -3.44065  -3.84208 
 H                    -4.08133  -3.52373  -2.08582 
 H                    -4.17586  -1.95632  -2.88935 
 H                     0.34049  -4.95601  -3.32784 
 C                    -0.23567  -4.03426  -3.2464 
 O                     1.6691   -2.62161  -3.30466 
 C                     0.45055  -2.77857  -3.23206 
 H                     0.07635  -0.77009  -3.11248 
 N                    -0.37212  -1.67531  -3.12585 
 O                    -2.38456  -0.63875  -2.94466 
 C                    -1.74156  -1.66974  -3.03565 
 H                    -2.14001  -4.98973  -3.16654 
 C                    -1.57074  -4.06116  -3.16 
 C                    -3.79202  -2.96305  -2.96218 
 N                    -2.33018  -2.91887  -3.05609 
 H                    -5.73178  -1.99229  -6.86174 
 H                    -5.24775  -0.76549  -5.90113 
 H                    -5.66971  -2.19876  -5.24405 
 H                     1.66879  -1.96704  -6.31721 
 H                     0.75857  -3.40223  -6.46493 
 N                     0.77226  -2.40963  -6.33931 
 C                    -0.35551  -1.70829  -6.20724 
 C                    -2.71469  -1.42518  -6.08142 
 N                    -2.66595  -0.09325  -5.91402 
 H                    -1.27298   1.40389  -5.77681 
 C                    -1.40373   0.33062  -5.90822 
 N                    -0.27283  -0.37024  -6.04035 
 H                    -4.06334  -4.34597  -6.40123 
 C                    -3.37838  -3.50148  -6.32 
 N                    -2.07239  -3.59266  -6.38132 
 C                    -1.63916  -2.28324  -6.23142 
 C                    -5.23285  -1.75689  -6.02768 
 N                    -3.83569  -2.21888  -6.1396 
 
 ITRead=  0  0  0  0  0  0  0  0  0  0  0  0  0  0  0  0  0  0  0  0
 ITRead=  0  0  0  0  0  0  0  0  0  0  0  0  0  0  0  0  0  0  0  0
 ITRead=  0  0  0  0  0  0  0  0  0  0  0  0  0  0  0  0  0  0  0  0
 ITRead=  0  0  0  0  0  0  0  0  0  0
 MicOpt= -1 -1 -1 -1 -1 -1 -1 -1 -1 -1 -1 -1 -1 -1 -1 -1 -1 -1 -1 -1
 MicOpt= -1 -1 -1 -1 -1 -1 -1 -1 -1 -1 -1 -1 -1 -1 -1 -1 -1 -1 -1 -1
 MicOpt= -1 -1 -1 -1 -1 -1 -1 -1 -1 -1 -1 -1 -1 -1 -1 -1 -1 -1 -1 -1
 MicOpt= -1 -1 -1 -1 -1 -1 -1 -1 -1 -1
 NAtoms=     70 NQM=       70 NQMF=       0 NMMI=      0 NMMIF=      0
                NMic=       0 NMicF=      0.
                    Isotopes and Nuclear Properties:
 (Nuclear quadrupole moments (NQMom) in fm**2, nuclear magnetic moments (NMagM)
  in nuclear magnetons)

  Atom         1           2           3           4           5           6           7           8           9          10
 IAtWgt=          14          12          12          14          12           1          14          12           1          14
 AtmWgt=  14.0030740  12.0000000  12.0000000  14.0030740  12.0000000   1.0078250  14.0030740  12.0000000   1.0078250  14.0030740
 NucSpn=           2           0           0           2           0           1           2           0           1           2
 AtZEff=  -0.0000000  -0.0000000  -0.0000000  -0.0000000  -0.0000000  -0.0000000  -0.0000000  -0.0000000  -0.0000000  -0.0000000
 NQMom=    2.0440000   0.0000000   0.0000000   2.0440000   0.0000000   0.0000000   2.0440000   0.0000000   0.0000000   2.0440000
 NMagM=    0.4037610   0.0000000   0.0000000   0.4037610   0.0000000   2.7928460   0.4037610   0.0000000   2.7928460   0.4037610
 AtZNuc=   7.0000000   6.0000000   6.0000000   7.0000000   6.0000000   1.0000000   7.0000000   6.0000000   1.0000000   7.0000000

  Atom        11          12          13          14          15          16          17          18          19          20
 IAtWgt=          12          12          14           1           1           1           1           1          14          12
 AtmWgt=  12.0000000  12.0000000  14.0030740   1.0078250   1.0078250   1.0078250   1.0078250   1.0078250  14.0030740  12.0000000
 NucSpn=           0           0           2           1           1           1           1           1           2           0
 AtZEff=  -0.0000000  -0.0000000  -0.0000000  -0.0000000  -0.0000000  -0.0000000  -0.0000000  -0.0000000  -0.0000000  -0.0000000
 NQMom=    0.0000000   0.0000000   2.0440000   0.0000000   0.0000000   0.0000000   0.0000000   0.0000000   2.0440000   0.0000000
 NMagM=    0.0000000   0.0000000   0.4037610   2.7928460   2.7928460   2.7928460   2.7928460   2.7928460   0.4037610   0.0000000
 AtZNuc=   6.0000000   6.0000000   7.0000000   1.0000000   1.0000000   1.0000000   1.0000000   1.0000000   7.0000000   6.0000000

  Atom        21          22          23          24          25          26          27          28          29          30
 IAtWgt=          12          14           1           1          14          12          14           1          12          16
 AtmWgt=  12.0000000  14.0030740   1.0078250   1.0078250  14.0030740  12.0000000  14.0030740   1.0078250  12.0000000  15.9949146
 NucSpn=           0           2           1           1           2           0           2           1           0           0
 AtZEff=  -0.0000000  -0.0000000  -0.0000000  -0.0000000  -0.0000000  -0.0000000  -0.0000000  -0.0000000  -0.0000000  -0.0000000
 NQMom=    0.0000000   2.0440000   0.0000000   0.0000000   2.0440000   0.0000000   2.0440000   0.0000000   0.0000000   0.0000000
 NMagM=    0.0000000   0.4037610   2.7928460   2.7928460   0.4037610   0.0000000   0.4037610   2.7928460   0.0000000   0.0000000
 AtZNuc=   6.0000000   7.0000000   1.0000000   1.0000000   7.0000000   6.0000000   7.0000000   1.0000000   6.0000000   8.0000000

  Atom        31          32          33          34          35          36          37          38          39          40
 IAtWgt=          12          14          12           1           1           1           1           1           1           1
 AtmWgt=  12.0000000  14.0030740  12.0000000   1.0078250   1.0078250   1.0078250   1.0078250   1.0078250   1.0078250   1.0078250
 NucSpn=           0           2           0           1           1           1           1           1           1           1
 AtZEff=  -0.0000000  -0.0000000  -0.0000000  -0.0000000  -0.0000000  -0.0000000  -0.0000000  -0.0000000  -0.0000000  -0.0000000
 NQMom=    0.0000000   2.0440000   0.0000000   0.0000000   0.0000000   0.0000000   0.0000000   0.0000000   0.0000000   0.0000000
 NMagM=    0.0000000   0.4037610   0.0000000   2.7928460   2.7928460   2.7928460   2.7928460   2.7928460   2.7928460   2.7928460
 AtZNuc=   6.0000000   7.0000000   6.0000000   1.0000000   1.0000000   1.0000000   1.0000000   1.0000000   1.0000000   1.0000000

  Atom        41          42          43          44          45          46          47          48          49          50
 IAtWgt=           1          12          16          12           1          14          16          12           1          12
 AtmWgt=   1.0078250  12.0000000  15.9949146  12.0000000   1.0078250  14.0030740  15.9949146  12.0000000   1.0078250  12.0000000
 NucSpn=           1           0           0           0           1           2           0           0           1           0
 AtZEff=  -0.0000000  -0.0000000  -0.0000000  -0.0000000  -0.0000000  -0.0000000  -0.0000000  -0.0000000  -0.0000000  -0.0000000
 NQMom=    0.0000000   0.0000000   0.0000000   0.0000000   0.0000000   2.0440000   0.0000000   0.0000000   0.0000000   0.0000000
 NMagM=    2.7928460   0.0000000   0.0000000   0.0000000   2.7928460   0.4037610   0.0000000   0.0000000   2.7928460   0.0000000
 AtZNuc=   1.0000000   6.0000000   8.0000000   6.0000000   1.0000000   7.0000000   8.0000000   6.0000000   1.0000000   6.0000000

  Atom        51          52          53          54          55          56          57          58          59          60
 IAtWgt=          12          14           1           1           1           1           1          14          12          12
 AtmWgt=  12.0000000  14.0030740   1.0078250   1.0078250   1.0078250   1.0078250   1.0078250  14.0030740  12.0000000  12.0000000
 NucSpn=           0           2           1           1           1           1           1           2           0           0
 AtZEff=  -0.0000000  -0.0000000  -0.0000000  -0.0000000  -0.0000000  -0.0000000  -0.0000000  -0.0000000  -0.0000000  -0.0000000
 NQMom=    0.0000000   2.0440000   0.0000000   0.0000000   0.0000000   0.0000000   0.0000000   2.0440000   0.0000000   0.0000000
 NMagM=    0.0000000   0.4037610   2.7928460   2.7928460   2.7928460   2.7928460   2.7928460   0.4037610   0.0000000   0.0000000
 AtZNuc=   6.0000000   7.0000000   1.0000000   1.0000000   1.0000000   1.0000000   1.0000000   7.0000000   6.0000000   6.0000000

  Atom        61          62          63          64          65          66          67          68          69          70
 IAtWgt=          14           1          12          14           1          12          14          12          12          14
 AtmWgt=  14.0030740   1.0078250  12.0000000  14.0030740   1.0078250  12.0000000  14.0030740  12.0000000  12.0000000  14.0030740
 NucSpn=           2           1           0           2           1           0           2           0           0           2
 AtZEff=  -0.0000000  -0.0000000  -0.0000000  -0.0000000  -0.0000000  -0.0000000  -0.0000000  -0.0000000  -0.0000000  -0.0000000
 NQMom=    2.0440000   0.0000000   0.0000000   2.0440000   0.0000000   0.0000000   2.0440000   0.0000000   0.0000000   2.0440000
 NMagM=    0.4037610   2.7928460   0.0000000   0.4037610   2.7928460   0.0000000   0.4037610   0.0000000   0.0000000   0.4037610
 AtZNuc=   7.0000000   1.0000000   6.0000000   7.0000000   1.0000000   6.0000000   7.0000000   6.0000000   6.0000000   7.0000000
 Leave Link  101 at Fri Jan 19 11:14:46 2018, MaxMem=  4294967296 cpu:               7.3 elap:               0.3
 (Enter /share/apps/g16/l202.exe)
 Stoichiometry    C23H27N17O3
 Framework group  C1[X(C23H27N17O3)]
 Deg. of freedom   204
 Full point group                 C1      NOp   1
 Largest Abelian subgroup         C1      NOp   1
 Largest concise Abelian subgroup C1      NOp   1
                         Standard orientation:                         
 ---------------------------------------------------------------------
 Center     Atomic      Atomic             Coordinates (Angstroms)
 Number     Number       Type             X           Y           Z
 ---------------------------------------------------------------------
      1          7           0       -6.056833   -1.285829    0.738983
      2          6           0       -7.372725   -0.680153    1.021080
      3          6           0       -3.894682   -1.678067    0.646172
      4          7           0       -4.507606   -2.719123   -0.035946
      5          6           0       -5.785675   -2.441143    0.047278
      6          1           0       -6.581856   -3.050199   -0.381803
      7          7           0       -2.274292   -0.269917    1.623086
      8          6           0       -3.293302    0.496876    2.024616
      9          1           0       -3.012689    1.384677    2.589696
     10          7           0       -4.600761    0.332417    1.833805
     11          6           0       -4.836800   -0.786803    1.129494
     12          6           0       -2.544729   -1.389110    0.916444
     13          7           0       -1.528880   -2.155829    0.514740
     14          1           0       -1.682410   -2.993399   -0.010737
     15          1           0       -0.580255   -1.919302    0.725244
     16          1           0       -7.930441   -1.321716    1.547891
     17          1           0       -7.247629    0.160798    1.546693
     18          1           0       -7.835536   -0.467596    0.160484
     19          7           0       -4.026309    1.788462   -1.178557
     20          6           0       -2.665374    1.880389   -1.012833
     21          6           0       -5.013855    2.773265   -0.693154
     22          7           0        0.109015    3.583023    0.197770
     23          1           0        1.101201    3.461985    0.210268
     24          1           0       -0.253573    4.403603    0.640367
     25          7           0       -2.006936    2.877784   -0.383780
     26          6           0       -0.699739    2.685809   -0.386028
     27          7           0       -0.082588    1.600759   -0.959872
     28          1           0        0.922737    1.536409   -0.913624
     29          6           0       -0.740152    0.562598   -1.612322
     30          8           0       -0.088622   -0.371253   -2.096229
     31          6           0       -2.145105    0.754838   -1.618019
     32          7           0       -3.159009   -0.027964   -2.152929
     33          6           0       -4.254316    0.622997   -1.868743
     34          1           0       -5.258846    0.296504   -2.140042
     35          1           0       -5.644004    2.329918   -0.056634
     36          1           0       -4.537748    3.516784   -0.225443
     37          1           0       -5.527119    3.142381   -1.467190
     38          1           0        5.879878    1.481728    0.216207
     39          1           0        6.048085    2.105175   -1.423206
     40          1           0        4.615885    2.501078   -0.472714
     41          1           0        5.320364   -2.563959   -2.326615
     42          6           0        4.748523   -1.678571   -2.048583
     43          8           0        2.651523   -2.626403   -2.624196
     44          6           0        3.325391   -1.688639   -2.198435
     45          1           0        1.693509   -0.487949   -1.909256
     46          7           0        2.699199   -0.518903   -1.817841
     47          8           0        2.653576    1.604858   -1.014874
     48          6           0        3.293820    0.615736   -1.325344
     49          1           0        6.436583   -0.528205   -1.437910
     50          6           0        5.357125   -0.586759   -1.570931
     51          6           0        5.347911    1.736975   -0.688186
     52          7           0        4.668353    0.548025   -1.210056
     53          1           0        4.996536    2.030408    3.750513
     54          1           0        3.764100    2.574090    2.829857
     55          1           0        5.287256    2.584902    2.243389
     56          1           0        1.817767   -3.636690    0.166519
     57          1           0        3.488056   -3.580766    0.508717
     58          7           0        2.601108   -3.117575    0.508625
     59          6           0        2.469876   -1.863350    0.945528
     60          6           0        3.246236    0.194540    1.853310
     61          7           0        2.042847    0.791325    1.841526
     62          1           0        0.107293    0.371593    1.314195
     63          6           0        1.116830   -0.034750    1.358834
     64          7           0        1.246272   -1.291297    0.920733
     65          1           0        6.426049   -0.102183    2.356196
     66          6           0        5.378158   -0.256820    2.097461
     67          7           0        4.890209   -1.364699    1.595272
     68          6           0        3.539319   -1.092008    1.435663
     69          6           0        4.637530    2.088176    2.818967
     70          7           0        4.438982    0.728792    2.279828
 ---------------------------------------------------------------------
 Rotational constants (GHZ):           0.1675252           0.0526754           0.0507483
 Leave Link  202 at Fri Jan 19 11:14:46 2018, MaxMem=  4294967296 cpu:               0.3 elap:               0.0
 (Enter /share/apps/g16/l301.exe)
 Standard basis: CC-pVDZ (5D, 7F)
 Ernie: Thresh=  0.10000D-02 Tol=  0.10000D-05 Strict=F.
 Ernie:  86 primitive shells out of 1081 were deleted.
 There are   780 symmetry adapted cartesian basis functions of A   symmetry.
 There are   737 symmetry adapted basis functions of A   symmetry.
   737 basis functions,  1608 primitive gaussians,   780 cartesian basis functions
   154 alpha electrons      154 beta electrons
       nuclear repulsion energy      5579.9894869781 Hartrees.
 IExCor= 4639 DFT=T Ex+Corr=wB97XD ExCW=0 ScaHFX=  1.000000
 ScaDFX=  1.000000  1.000000  1.000000  1.000000 ScalE2=  1.000000  1.000000
 IRadAn=      5 IRanWt=     -1 IRanGd=            0 ICorTp=0 IEmpDi=121
 HFx  wShort=  0.000000 wLong=  0.200000 cFull=  0.222036 cShort=  0.000000 cLong=  0.777964
 DFx  wShort=  0.000000 wLong=  0.200000 cFull=  0.000000 cShort=  0.000000 cLong=  1.000000
 NAtoms=   70 NActive=   70 NUniq=   70 SFac= 1.00D+00 NAtFMM=   60 NAOKFM=T Big=T
 Integral buffers will be    131072 words long.
 Raffenetti 2 integral format.
 Two-electron integral symmetry is turned on.
 R6Disp:  Grimme-D2 Dispersion energy=       -0.0775444818 Hartrees.
 Nuclear repulsion after empirical dispersion term =     5579.9119424963 Hartrees.
 Leave Link  301 at Fri Jan 19 11:14:46 2018, MaxMem=  4294967296 cpu:               2.1 elap:               0.1
 (Enter /share/apps/g16/l302.exe)
 NPDir=0 NMtPBC=     1 NCelOv=     1 NCel=       1 NClECP=     1 NCelD=      1
         NCelK=      1 NCelE2=     1 NClLst=     1 CellRange=     0.0.
 One-electron integrals computed using PRISM.
 One-electron integral symmetry used in STVInt
 NBasis=   737 RedAO= T EigKep=  6.88D-04  NBF=   737
 NBsUse=   737 1.00D-06 EigRej= -1.00D+00 NBFU=   737
 Precomputing XC quadrature grid using
 IXCGrd= 4 IRadAn=           5 IRanWt=          -1 IRanGd=           0 AccXCQ= 0.00D+00.
 Generated NRdTot=       0 NPtTot=           0 NUsed=           0 NTot=          32
 NSgBfM=   767   767   767   767   767 MxSgAt=    70 MxSgA2=    70.
 Leave Link  302 at Fri Jan 19 11:14:50 2018, MaxMem=  4294967296 cpu:             134.6 elap:               4.2
 (Enter /share/apps/g16/l303.exe)
 DipDrv:  MaxL=1.
 Leave Link  303 at Fri Jan 19 11:14:51 2018, MaxMem=  4294967296 cpu:              12.5 elap:               0.4
 (Enter /share/apps/g16/l401.exe)
 ExpMin= 1.22D-01 ExpMax= 1.17D+04 ExpMxC= 4.01D+02 IAcc=3 IRadAn=         5 AccDes= 0.00D+00
 Harris functional with IExCor= 4639 and IRadAn=       5 diagonalized for initial guess.
 HarFok:  IExCor= 4639 AccDes= 0.00D+00 IRadAn=         5 IDoV= 1 UseB2=F ITyADJ=14
 ICtDFT=  3500011 ScaDFX=  1.000000  1.000000  1.000000  1.000000
 FoFCou: FMM=F IPFlag=           0 FMFlag=      100000 FMFlg1=        2001
         NFxFlg=           0 DoJE=T BraDBF=F KetDBF=T FulRan=T
         wScrn=  0.000000 ICntrl=       500 IOpCl=  0 I1Cent=   200000004 NGrid=           0
         NMat0=    1 NMatS0=      1 NMatT0=    0 NMatD0=    1 NMtDS0=    0 NMtDT0=    0
 Petite list used in FoFCou.
 Harris En= -1963.89308012611    
 JPrj=0 DoOrth=F DoCkMO=F.
 Leave Link  401 at Fri Jan 19 11:15:03 2018, MaxMem=  4294967296 cpu:             410.6 elap:              12.9
 (Enter /share/apps/g16/l502.exe)
 Integral symmetry usage will be decided dynamically.
 Closed shell SCF:
 Using DIIS extrapolation, IDIIS=  1040.
 NGot=  4294967296 LenX=  4293717438 LenY=  4293108258
 Requested convergence on RMS density matrix=1.00D-08 within  20 cycles.
 Requested convergence on MAX density matrix=1.00D-06.
 Requested convergence on             energy=1.00D-06.
 No special actions if energy rises.
 Fock matrices will be formed incrementally for  20 cycles.
 Integral accuracy reduced to 1.0D-05 until final iterations.

 Cycle   1  Pass 0  IDiag  1:
 FoFJK:  IHMeth= 1 ICntrl=       0 DoSepK=T KAlg= 0 I1Cent=           0 FoldK=F
 IRaf=         1 NMat=       1 IRICut=       1 DoRegI=T DoRafI=F ISym2E= 0 IDoP0=0 IntGTp=1.
 FoFCou: FMM=T IPFlag=           0 FMFlag=      100000 FMFlg1=        2001
         NFxFlg=           0 DoJE=T BraDBF=F KetDBF=F FulRan=T
         wScrn=  0.000000 ICntrl=       500 IOpCl=  0 I1Cent=           0 NGrid=           0
         NMat0=    1 NMatS0=      1 NMatT0=    0 NMatD0=    1 NMtDS0=    0 NMtDT0=    0
 Symmetry not used in FoFCou.
 FMM levels:  10  Number of levels for PrismC:   9
 E= -2048.31832504593    
 DIIS: error= 2.51D-02 at cycle   1 NSaved=   1.
 NSaved= 1 IEnMin= 1 EnMin= -2048.31832504593     IErMin= 1 ErrMin= 2.51D-02
 ErrMax= 2.51D-02  0.00D+00 EMaxC= 1.00D-01 BMatC= 8.38D-01 BMatP= 8.38D-01
 IDIUse=3 WtCom= 7.49D-01 WtEn= 2.51D-01
 Coeff-Com:  0.100D+01
 Coeff-En:   0.100D+01
 Coeff:      0.100D+01
 Gap=     0.256 Goal=   None    Shift=    0.000
 GapD=    0.256 DampG=1.000 DampE=0.500 DampFc=0.5000 IDamp=-1.
 Damping current iteration by 5.00D-01
 RMSDP=1.60D-03 MaxDP=1.27D-01              OVMax= 1.76D-01

 Cycle   2  Pass 0  IDiag  1:
 RMSU=  7.98D-04    CP:  9.98D-01
 E= -2048.51531530949     Delta-E=       -0.196990263560 Rises=F Damp=T
 DIIS: error= 1.19D-02 at cycle   2 NSaved=   2.
 NSaved= 2 IEnMin= 2 EnMin= -2048.51531530949     IErMin= 2 ErrMin= 1.19D-02
 ErrMax= 1.19D-02  0.00D+00 EMaxC= 1.00D-01 BMatC= 1.46D-01 BMatP= 8.38D-01
 IDIUse=3 WtCom= 8.81D-01 WtEn= 1.19D-01
 Coeff-Com: -0.184D+00 0.118D+01
 Coeff-En:   0.000D+00 0.100D+01
 Coeff:     -0.162D+00 0.116D+01
 Gap=     0.362 Goal=   None    Shift=    0.000
 RMSDP=5.98D-04 MaxDP=3.42D-02 DE=-1.97D-01 OVMax= 1.37D-01

 Cycle   3  Pass 0  IDiag  1:
 RMSU=  5.90D-04    CP:  9.94D-01  1.11D+00
 E= -2048.69477551166     Delta-E=       -0.179460202165 Rises=F Damp=F
 DIIS: error= 8.96D-03 at cycle   3 NSaved=   3.
 NSaved= 3 IEnMin= 3 EnMin= -2048.69477551166     IErMin= 3 ErrMin= 8.96D-03
 ErrMax= 8.96D-03  0.00D+00 EMaxC= 1.00D-01 BMatC= 6.81D-02 BMatP= 1.46D-01
 IDIUse=3 WtCom= 9.10D-01 WtEn= 8.96D-02
 Coeff-Com: -0.232D+00 0.555D+00 0.677D+00
 Coeff-En:   0.000D+00 0.000D+00 0.100D+01
 Coeff:     -0.211D+00 0.505D+00 0.706D+00
 Gap=     0.281 Goal=   None    Shift=    0.000
 RMSDP=3.83D-04 MaxDP=3.22D-02 DE=-1.79D-01 OVMax= 7.58D-02

 Cycle   4  Pass 0  IDiag  1:
 RMSU=  2.12D-04    CP:  9.94D-01  1.41D+00  6.50D-01
 E= -2048.74563809535     Delta-E=       -0.050862583690 Rises=F Damp=F
 DIIS: error= 3.21D-03 at cycle   4 NSaved=   4.
 NSaved= 4 IEnMin= 4 EnMin= -2048.74563809535     IErMin= 4 ErrMin= 3.21D-03
 ErrMax= 3.21D-03  0.00D+00 EMaxC= 1.00D-01 BMatC= 1.07D-02 BMatP= 6.81D-02
 IDIUse=3 WtCom= 9.68D-01 WtEn= 3.21D-02
 Coeff-Com: -0.939D-01 0.182D+00 0.382D+00 0.530D+00
 Coeff-En:   0.000D+00 0.000D+00 0.910D-01 0.909D+00
 Coeff:     -0.908D-01 0.176D+00 0.373D+00 0.542D+00
 Gap=     0.286 Goal=   None    Shift=    0.000
 RMSDP=1.37D-04 MaxDP=1.15D-02 DE=-5.09D-02 OVMax= 1.62D-02

 Cycle   5  Pass 0  IDiag  1:
 RMSU=  6.21D-05    CP:  9.94D-01  1.37D+00  7.94D-01  6.14D-01
 E= -2048.75457127455     Delta-E=       -0.008933179197 Rises=F Damp=F
 DIIS: error= 5.84D-04 at cycle   5 NSaved=   5.
 NSaved= 5 IEnMin= 5 EnMin= -2048.75457127455     IErMin= 5 ErrMin= 5.84D-04
 ErrMax= 5.84D-04  0.00D+00 EMaxC= 1.00D-01 BMatC= 2.99D-04 BMatP= 1.07D-02
 IDIUse=3 WtCom= 9.94D-01 WtEn= 5.84D-03
 Coeff-Com: -0.236D-01 0.401D-01 0.122D+00 0.236D+00 0.626D+00
 Coeff-En:   0.000D+00 0.000D+00 0.000D+00 0.000D+00 0.100D+01
 Coeff:     -0.235D-01 0.398D-01 0.121D+00 0.235D+00 0.628D+00
 Gap=     0.286 Goal=   None    Shift=    0.000
 RMSDP=2.70D-05 MaxDP=1.64D-03 DE=-8.93D-03 OVMax= 3.43D-03

 Failed to achieve initial convergence to 1.0D-08 in  6 cycles.
 Switch to full accuracy anyway.
 Cycle   6  Pass 1  IDiag  1:
 E= -2048.75474341516     Delta-E=       -0.000172140618 Rises=F Damp=F
 DIIS: error= 2.61D-04 at cycle   1 NSaved=   1.
 NSaved= 1 IEnMin= 1 EnMin= -2048.75474341516     IErMin= 1 ErrMin= 2.61D-04
 ErrMax= 2.61D-04  0.00D+00 EMaxC= 1.00D-01 BMatC= 8.00D-05 BMatP= 8.00D-05
 IDIUse=3 WtCom= 9.97D-01 WtEn= 2.61D-03
 Coeff-Com:  0.100D+01
 Coeff-En:   0.100D+01
 Coeff:      0.100D+01
 Gap=     0.286 Goal=   None    Shift=    0.000
 RMSDP=2.70D-05 MaxDP=1.64D-03 DE=-1.72D-04 OVMax= 2.68D-03

 Cycle   7  Pass 1  IDiag  1:
 RMSU=  1.21D-04    CP:  1.00D+00
 E= -2048.75480151116     Delta-E=       -0.000058095999 Rises=F Damp=F
 DIIS: error= 2.32D-04 at cycle   2 NSaved=   2.
 NSaved= 2 IEnMin= 2 EnMin= -2048.75480151116     IErMin= 2 ErrMin= 2.32D-04
 ErrMax= 2.32D-04  0.00D+00 EMaxC= 1.00D-01 BMatC= 4.48D-05 BMatP= 8.00D-05
 IDIUse=3 WtCom= 9.98D-01 WtEn= 2.32D-03
 Coeff-Com:  0.402D+00 0.598D+00
 Coeff-En:   0.000D+00 0.100D+01
 Coeff:      0.401D+00 0.599D+00
 Gap=     0.286 Goal=   None    Shift=    0.000
 RMSDP=1.20D-05 MaxDP=9.53D-04 DE=-5.81D-05 OVMax= 1.69D-03

 Cycle   8  Pass 1  IDiag  1:
 RMSU=  1.16D-05    CP:  1.00D+00  1.03D+00
 E= -2048.75483408341     Delta-E=       -0.000032572245 Rises=F Damp=F
 DIIS: error= 9.13D-05 at cycle   3 NSaved=   3.
 NSaved= 3 IEnMin= 3 EnMin= -2048.75483408341     IErMin= 3 ErrMin= 9.13D-05
 ErrMax= 9.13D-05  0.00D+00 EMaxC= 1.00D-01 BMatC= 1.09D-05 BMatP= 4.48D-05
 IDIUse=1 WtCom= 1.00D+00 WtEn= 0.00D+00
 Coeff-Com: -0.193D-01 0.318D+00 0.702D+00
 Coeff:     -0.193D-01 0.318D+00 0.702D+00
 Gap=     0.286 Goal=   None    Shift=    0.000
 RMSDP=5.80D-06 MaxDP=4.27D-04 DE=-3.26D-05 OVMax= 6.39D-04

 Cycle   9  Pass 1  IDiag  1:
 RMSU=  3.87D-06    CP:  1.00D+00  1.05D+00  7.52D-01
 E= -2048.75484443540     Delta-E=       -0.000010351990 Rises=F Damp=F
 DIIS: error= 3.19D-05 at cycle   4 NSaved=   4.
 NSaved= 4 IEnMin= 4 EnMin= -2048.75484443540     IErMin= 4 ErrMin= 3.19D-05
 ErrMax= 3.19D-05  0.00D+00 EMaxC= 1.00D-01 BMatC= 5.29D-07 BMatP= 1.09D-05
 IDIUse=1 WtCom= 1.00D+00 WtEn= 0.00D+00
 Coeff-Com: -0.292D-01 0.906D-01 0.265D+00 0.673D+00
 Coeff:     -0.292D-01 0.906D-01 0.265D+00 0.673D+00
 Gap=     0.286 Goal=   None    Shift=    0.000
 RMSDP=1.45D-06 MaxDP=1.16D-04 DE=-1.04D-05 OVMax= 4.94D-04

 Cycle  10  Pass 1  IDiag  1:
 RMSU=  1.31D-06    CP:  1.00D+00  1.05D+00  7.88D-01  1.09D+00
 E= -2048.75484528620     Delta-E=       -0.000000850804 Rises=F Damp=F
 DIIS: error= 1.14D-05 at cycle   5 NSaved=   5.
 NSaved= 5 IEnMin= 5 EnMin= -2048.75484528620     IErMin= 5 ErrMin= 1.14D-05
 ErrMax= 1.14D-05  0.00D+00 EMaxC= 1.00D-01 BMatC= 1.25D-07 BMatP= 5.29D-07
 IDIUse=1 WtCom= 1.00D+00 WtEn= 0.00D+00
 Coeff-Com: -0.322D-02-0.551D-01-0.113D+00 0.212D+00 0.959D+00
 Coeff:     -0.322D-02-0.551D-01-0.113D+00 0.212D+00 0.959D+00
 Gap=     0.286 Goal=   None    Shift=    0.000
 RMSDP=1.20D-06 MaxDP=6.79D-05 DE=-8.51D-07 OVMax= 2.49D-04

 Cycle  11  Pass 1  IDiag  1:
 RMSU=  4.99D-07    CP:  1.00D+00  1.06D+00  7.98D-01  1.37D+00  1.16D+00
 E= -2048.75484555077     Delta-E=       -0.000000264566 Rises=F Damp=F
 DIIS: error= 8.75D-06 at cycle   6 NSaved=   6.
 NSaved= 6 IEnMin= 6 EnMin= -2048.75484555077     IErMin= 6 ErrMin= 8.75D-06
 ErrMax= 8.75D-06  0.00D+00 EMaxC= 1.00D-01 BMatC= 3.01D-08 BMatP= 1.25D-07
 IDIUse=1 WtCom= 1.00D+00 WtEn= 0.00D+00
 Coeff-Com:  0.461D-02-0.472D-01-0.115D+00-0.257D-02 0.517D+00 0.643D+00
 Coeff:      0.461D-02-0.472D-01-0.115D+00-0.257D-02 0.517D+00 0.643D+00
 Gap=     0.286 Goal=   None    Shift=    0.000
 RMSDP=3.90D-07 MaxDP=3.38D-05 DE=-2.65D-07 OVMax= 1.34D-04

 Cycle  12  Pass 1  IDiag  1:
 RMSU=  1.90D-07    CP:  1.00D+00  1.05D+00  8.00D-01  1.44D+00  1.29D+00
                    CP:  9.44D-01
 E= -2048.75484559524     Delta-E=       -0.000000044470 Rises=F Damp=F
 DIIS: error= 1.10D-06 at cycle   7 NSaved=   7.
 NSaved= 7 IEnMin= 7 EnMin= -2048.75484559524     IErMin= 7 ErrMin= 1.10D-06
 ErrMax= 1.10D-06  0.00D+00 EMaxC= 1.00D-01 BMatC= 8.24D-10 BMatP= 3.01D-08
 IDIUse=1 WtCom= 1.00D+00 WtEn= 0.00D+00
 Coeff-Com:  0.114D-02-0.830D-02-0.215D-01-0.882D-02 0.630D-01 0.142D+00
 Coeff-Com:  0.832D+00
 Coeff:      0.114D-02-0.830D-02-0.215D-01-0.882D-02 0.630D-01 0.142D+00
 Coeff:      0.832D+00
 Gap=     0.286 Goal=   None    Shift=    0.000
 RMSDP=8.60D-08 MaxDP=4.71D-06 DE=-4.45D-08 OVMax= 2.39D-05

 Cycle  13  Pass 1  IDiag  1:
 RMSU=  5.11D-08    CP:  1.00D+00  1.05D+00  8.00D-01  1.45D+00  1.31D+00
                    CP:  1.03D+00  1.15D+00
 E= -2048.75484559698     Delta-E=       -0.000000001744 Rises=F Damp=F
 DIIS: error= 7.11D-07 at cycle   8 NSaved=   8.
 NSaved= 8 IEnMin= 8 EnMin= -2048.75484559698     IErMin= 8 ErrMin= 7.11D-07
 ErrMax= 7.11D-07  0.00D+00 EMaxC= 1.00D-01 BMatC= 3.40D-10 BMatP= 8.24D-10
 IDIUse=1 WtCom= 1.00D+00 WtEn= 0.00D+00
 Coeff-Com: -0.727D-03 0.919D-02 0.216D-01-0.179D-02-0.112D+00-0.107D+00
 Coeff-Com:  0.417D+00 0.774D+00
 Coeff:     -0.727D-03 0.919D-02 0.216D-01-0.179D-02-0.112D+00-0.107D+00
 Coeff:      0.417D+00 0.774D+00
 Gap=     0.286 Goal=   None    Shift=    0.000
 RMSDP=4.90D-08 MaxDP=2.82D-06 DE=-1.74D-09 OVMax= 1.18D-05

 Cycle  14  Pass 1  IDiag  1:
 RMSU=  2.79D-08    CP:  1.00D+00  1.05D+00  7.99D-01  1.45D+00  1.32D+00
                    CP:  1.08D+00  1.30D+00  1.10D+00
 E= -2048.75484559769     Delta-E=       -0.000000000712 Rises=F Damp=F
 DIIS: error= 1.88D-07 at cycle   9 NSaved=   9.
 NSaved= 9 IEnMin= 9 EnMin= -2048.75484559769     IErMin= 9 ErrMin= 1.88D-07
 ErrMax= 1.88D-07  0.00D+00 EMaxC= 1.00D-01 BMatC= 2.93D-11 BMatP= 3.40D-10
 IDIUse=1 WtCom= 1.00D+00 WtEn= 0.00D+00
 Coeff-Com: -0.415D-03 0.461D-02 0.110D-01 0.331D-03-0.516D-01-0.585D-01
 Coeff-Com:  0.788D-01 0.293D+00 0.722D+00
 Coeff:     -0.415D-03 0.461D-02 0.110D-01 0.331D-03-0.516D-01-0.585D-01
 Coeff:      0.788D-01 0.293D+00 0.722D+00
 Gap=     0.286 Goal=   None    Shift=    0.000
 RMSDP=1.38D-08 MaxDP=8.72D-07 DE=-7.12D-10 OVMax= 3.53D-06

 Cycle  15  Pass 1  IDiag  1:
 RMSU=  9.07D-09    CP:  1.00D+00  1.05D+00  7.99D-01  1.45D+00  1.32D+00
                    CP:  1.08D+00  1.33D+00  1.23D+00  1.13D+00
 E= -2048.75484559758     Delta-E=        0.000000000110 Rises=F Damp=F
 DIIS: error= 5.74D-08 at cycle  10 NSaved=  10.
 NSaved=10 IEnMin= 9 EnMin= -2048.75484559769     IErMin=10 ErrMin= 5.74D-08
 ErrMax= 5.74D-08  0.00D+00 EMaxC= 1.00D-01 BMatC= 4.90D-12 BMatP= 2.93D-11
 IDIUse=1 WtCom= 1.00D+00 WtEn= 0.00D+00
 Coeff-Com:  0.173D-04-0.432D-03-0.940D-03 0.182D-03 0.665D-02 0.309D-02
 Coeff-Com: -0.551D-01-0.680D-01 0.253D+00 0.862D+00
 Coeff:      0.173D-04-0.432D-03-0.940D-03 0.182D-03 0.665D-02 0.309D-02
 Coeff:     -0.551D-01-0.680D-01 0.253D+00 0.862D+00
 Gap=     0.286 Goal=   None    Shift=    0.000
 RMSDP=6.75D-09 MaxDP=3.76D-07 DE= 1.10D-10 OVMax= 1.46D-06

 SCF Done:  E(RwB97XD) =  -2048.75484560     A.U. after   15 cycles
            NFock= 15  Conv=0.67D-08     -V/T= 2.0054
 KE= 2.037729928050D+03 PE=-1.594051774418D+04 EE= 6.274121028040D+03
 Leave Link  502 at Fri Jan 19 11:27:05 2018, MaxMem=  4294967296 cpu:           22276.0 elap:             721.5
 (Enter /share/apps/g16/l601.exe)
 Copying SCF densities to generalized density rwf, IOpCl= 0 IROHF=0.

 **********************************************************************

            Population analysis using the SCF density.

 **********************************************************************

 Orbital symmetries:
       Occupied  (A) (A) (A) (A) (A) (A) (A) (A) (A) (A) (A) (A)
                 (A) (A) (A) (A) (A) (A) (A) (A) (A) (A) (A) (A)
                 (A) (A) (A) (A) (A) (A) (A) (A) (A) (A) (A) (A)
                 (A) (A) (A) (A) (A) (A) (A) (A) (A) (A) (A) (A)
                 (A) (A) (A) (A) (A) (A) (A) (A) (A) (A) (A) (A)
                 (A) (A) (A) (A) (A) (A) (A) (A) (A) (A) (A) (A)
                 (A) (A) (A) (A) (A) (A) (A) (A) (A) (A) (A) (A)
                 (A) (A) (A) (A) (A) (A) (A) (A) (A) (A) (A) (A)
                 (A) (A) (A) (A) (A) (A) (A) (A) (A) (A) (A) (A)
                 (A) (A) (A) (A) (A) (A) (A) (A) (A) (A) (A) (A)
                 (A) (A) (A) (A) (A) (A) (A) (A) (A) (A) (A) (A)
                 (A) (A) (A) (A) (A) (A) (A) (A) (A) (A) (A) (A)
                 (A) (A) (A) (A) (A) (A) (A) (A) (A) (A)
       Virtual   (A) (A) (A) (A) (A) (A) (A) (A) (A) (A) (A) (A)
                 (A) (A) (A) (A) (A) (A) (A) (A) (A) (A) (A) (A)
                 (A) (A) (A) (A) (A) (A) (A) (A) (A) (A) (A) (A)
                 (A) (A) (A) (A) (A) (A) (A) (A) (A) (A) (A) (A)
                 (A) (A) (A) (A) (A) (A) (A) (A) (A) (A) (A) (A)
                 (A) (A) (A) (A) (A) (A) (A) (A) (A) (A) (A) (A)
                 (A) (A) (A) (A) (A) (A) (A) (A) (A) (A) (A) (A)
                 (A) (A) (A) (A) (A) (A) (A) (A) (A) (A) (A) (A)
                 (A) (A) (A) (A) (A) (A) (A) (A) (A) (A) (A) (A)
                 (A) (A) (A) (A) (A) (A) (A) (A) (A) (A) (A) (A)
                 (A) (A) (A) (A) (A) (A) (A) (A) (A) (A) (A) (A)
                 (A) (A) (A) (A) (A) (A) (A) (A) (A) (A) (A) (A)
                 (A) (A) (A) (A) (A) (A) (A) (A) (A) (A) (A) (A)
                 (A) (A) (A) (A) (A) (A) (A) (A) (A) (A) (A) (A)
                 (A) (A) (A) (A) (A) (A) (A) (A) (A) (A) (A) (A)
                 (A) (A) (A) (A) (A) (A) (A) (A) (A) (A) (A) (A)
                 (A) (A) (A) (A) (A) (A) (A) (A) (A) (A) (A) (A)
                 (A) (A) (A) (A) (A) (A) (A) (A) (A) (A) (A) (A)
                 (A) (A) (A) (A) (A) (A) (A) (A) (A) (A) (A) (A)
                 (A) (A) (A) (A) (A) (A) (A) (A) (A) (A) (A) (A)
                 (A) (A) (A) (A) (A) (A) (A) (A) (A) (A) (A) (A)
                 (A) (A) (A) (A) (A) (A) (A) (A) (A) (A) (A) (A)
                 (A) (A) (A) (A) (A) (A) (A) (A) (A) (A) (A) (A)
                 (A) (A) (A) (A) (A) (A) (A) (A) (A) (A) (A) (A)
                 (A) (A) (A) (A) (A) (A) (A) (A) (A) (A) (A) (A)
                 (A) (A) (A) (A) (A) (A) (A) (A) (A) (A) (A) (A)
                 (A) (A) (A) (A) (A) (A) (A) (A) (A) (A) (A) (A)
                 (A) (A) (A) (A) (A) (A) (A) (A) (A) (A) (A) (A)
                 (A) (A) (A) (A) (A) (A) (A) (A) (A) (A) (A) (A)
                 (A) (A) (A) (A) (A) (A) (A) (A) (A) (A) (A) (A)
                 (A) (A) (A) (A) (A) (A) (A) (A) (A) (A) (A) (A)
                 (A) (A) (A) (A) (A) (A) (A) (A) (A) (A) (A) (A)
                 (A) (A) (A) (A) (A) (A) (A) (A) (A) (A) (A) (A)
                 (A) (A) (A) (A) (A) (A) (A) (A) (A) (A) (A) (A)
                 (A) (A) (A) (A) (A) (A) (A) (A) (A) (A) (A) (A)
                 (A) (A) (A) (A) (A) (A) (A) (A) (A) (A) (A) (A)
                 (A) (A) (A) (A) (A) (A) (A) (A) (A) (A) (A) (A)
                 (A) (A) (A) (A) (A) (A) (A) (A) (A) (A) (A) (A)
                 (A) (A) (A) (A) (A) (A) (A) (A) (A) (A) (A) (A)
                 (A) (A) (A) (A) (A) (A) (A) (A) (A) (A) (A) (A)
                 (A) (A) (A) (A) (A) (A) (A) (A) (A) (A) (A) (A)
                 (A) (A) (A) (A) (A) (A) (A) (A) (A) (A) (A) (A)
                 (A) (A) (A) (A) (A) (A) (A) (A) (A) (A) (A) (A)
                 (A) (A) (A) (A) (A) (A) (A) (A) (A) (A) (A) (A)
                 (A) (A) (A) (A) (A) (A) (A) (A) (A) (A) (A) (A)
                 (A) (A) (A) (A) (A) (A) (A) (A) (A) (A) (A) (A)
                 (A) (A) (A) (A) (A) (A) (A) (A) (A) (A) (A) (A)
                 (A) (A) (A) (A) (A) (A) (A) (A) (A) (A) (A) (A)
                 (A) (A) (A) (A) (A) (A) (A)
 The electronic state is 1-A.
 Alpha  occ. eigenvalues --  -19.25638 -19.21766 -19.20572 -14.52310 -14.52172
 Alpha  occ. eigenvalues --  -14.49353 -14.48542 -14.47609 -14.47246 -14.46805
 Alpha  occ. eigenvalues --  -14.46486 -14.45134 -14.43774 -14.43648 -14.42697
 Alpha  occ. eigenvalues --  -14.41867 -14.41841 -14.41503 -14.40692 -14.40680
 Alpha  occ. eigenvalues --  -10.45278 -10.41090 -10.39907 -10.39295 -10.38143
 Alpha  occ. eigenvalues --  -10.37671 -10.37491 -10.36786 -10.35908 -10.35466
 Alpha  occ. eigenvalues --  -10.35281 -10.34542 -10.34140 -10.33918 -10.33869
 Alpha  occ. eigenvalues --  -10.33546 -10.33171 -10.32173 -10.31689 -10.30681
 Alpha  occ. eigenvalues --  -10.30395 -10.28988 -10.27920  -1.19271  -1.14873
 Alpha  occ. eigenvalues --   -1.13094  -1.12819  -1.11878  -1.10415  -1.09161
 Alpha  occ. eigenvalues --   -1.08624  -1.08440  -1.05514  -1.04147  -1.02319
 Alpha  occ. eigenvalues --   -1.00936  -1.00607  -0.99580  -0.98399  -0.97478
 Alpha  occ. eigenvalues --   -0.96354  -0.96215  -0.93170  -0.90763  -0.87289
 Alpha  occ. eigenvalues --   -0.85685  -0.84490  -0.83887  -0.83704  -0.82881
 Alpha  occ. eigenvalues --   -0.82177  -0.78636  -0.76569  -0.74504  -0.74296
 Alpha  occ. eigenvalues --   -0.73498  -0.73387  -0.73169  -0.71546  -0.69926
 Alpha  occ. eigenvalues --   -0.67223  -0.66808  -0.66340  -0.66250  -0.64296
 Alpha  occ. eigenvalues --   -0.63760  -0.63591  -0.63193  -0.62517  -0.61597
 Alpha  occ. eigenvalues --   -0.61235  -0.60745  -0.60063  -0.59275  -0.59098
 Alpha  occ. eigenvalues --   -0.58258  -0.58187  -0.57321  -0.57051  -0.56237
 Alpha  occ. eigenvalues --   -0.55887  -0.55771  -0.55020  -0.54774  -0.54179
 Alpha  occ. eigenvalues --   -0.53704  -0.53433  -0.53083  -0.52739  -0.52692
 Alpha  occ. eigenvalues --   -0.52448  -0.52402  -0.52333  -0.51287  -0.50730
 Alpha  occ. eigenvalues --   -0.49953  -0.49768  -0.49306  -0.49168  -0.49011
 Alpha  occ. eigenvalues --   -0.48597  -0.48287  -0.48090  -0.47453  -0.47304
 Alpha  occ. eigenvalues --   -0.47256  -0.45674  -0.45338  -0.44268  -0.43335
 Alpha  occ. eigenvalues --   -0.41662  -0.40289  -0.39267  -0.37653  -0.37348
 Alpha  occ. eigenvalues --   -0.37159  -0.37125  -0.37062  -0.35941  -0.34409
 Alpha  occ. eigenvalues --   -0.34119  -0.33977  -0.33740  -0.33671  -0.33022
 Alpha  occ. eigenvalues --   -0.32535  -0.32197  -0.31748  -0.31689  -0.31360
 Alpha  occ. eigenvalues --   -0.30934  -0.29252  -0.26206  -0.25282
 Alpha virt. eigenvalues --    0.03343   0.04457   0.07379   0.07534   0.08359
 Alpha virt. eigenvalues --    0.08911   0.09910   0.10610   0.10878   0.11995
 Alpha virt. eigenvalues --    0.13277   0.13646   0.13936   0.14517   0.15003
 Alpha virt. eigenvalues --    0.15115   0.16196   0.17373   0.18172   0.18312
 Alpha virt. eigenvalues --    0.18592   0.19386   0.19423   0.19826   0.19940
 Alpha virt. eigenvalues --    0.20615   0.20868   0.21268   0.21481   0.22439
 Alpha virt. eigenvalues --    0.22788   0.22939   0.23227   0.23372   0.23853
 Alpha virt. eigenvalues --    0.24353   0.24791   0.25048   0.25388   0.25577
 Alpha virt. eigenvalues --    0.25920   0.26684   0.27524   0.27909   0.27969
 Alpha virt. eigenvalues --    0.28684   0.28943   0.29691   0.30150   0.30386
 Alpha virt. eigenvalues --    0.31024   0.31488   0.32410   0.33168   0.33494
 Alpha virt. eigenvalues --    0.33945   0.34073   0.35270   0.35854   0.36369
 Alpha virt. eigenvalues --    0.36654   0.37289   0.38040   0.38729   0.39416
 Alpha virt. eigenvalues --    0.39639   0.40057   0.40722   0.41373   0.41568
 Alpha virt. eigenvalues --    0.42367   0.42533   0.42952   0.43739   0.43908
 Alpha virt. eigenvalues --    0.44669   0.45198   0.45906   0.46264   0.46871
 Alpha virt. eigenvalues --    0.47421   0.47785   0.48467   0.49085   0.49657
 Alpha virt. eigenvalues --    0.49976   0.50490   0.50670   0.51272   0.51382
 Alpha virt. eigenvalues --    0.51606   0.52125   0.52206   0.53336   0.53493
 Alpha virt. eigenvalues --    0.53961   0.54084   0.54509   0.55039   0.55540
 Alpha virt. eigenvalues --    0.55784   0.55988   0.56753   0.57057   0.57530
 Alpha virt. eigenvalues --    0.57627   0.57855   0.59005   0.59268   0.59350
 Alpha virt. eigenvalues --    0.59978   0.60467   0.60654   0.61492   0.61822
 Alpha virt. eigenvalues --    0.62078   0.62145   0.62863   0.63543   0.63922
 Alpha virt. eigenvalues --    0.64129   0.64633   0.65153   0.65469   0.65814
 Alpha virt. eigenvalues --    0.65869   0.66527   0.67052   0.67180   0.67803
 Alpha virt. eigenvalues --    0.67922   0.68330   0.68893   0.69335   0.69728
 Alpha virt. eigenvalues --    0.70577   0.70880   0.70943   0.71837   0.72479
 Alpha virt. eigenvalues --    0.73002   0.73262   0.73448   0.73909   0.74328
 Alpha virt. eigenvalues --    0.74522   0.74811   0.75003   0.75691   0.75837
 Alpha virt. eigenvalues --    0.76093   0.76384   0.76525   0.76843   0.78149
 Alpha virt. eigenvalues --    0.78423   0.78554   0.78923   0.79127   0.79458
 Alpha virt. eigenvalues --    0.79896   0.79981   0.80305   0.80757   0.81165
 Alpha virt. eigenvalues --    0.81579   0.82200   0.82965   0.83314   0.83486
 Alpha virt. eigenvalues --    0.84013   0.84342   0.84403   0.85037   0.85226
 Alpha virt. eigenvalues --    0.85760   0.86592   0.87088   0.87499   0.88010
 Alpha virt. eigenvalues --    0.88202   0.89557   0.89590   0.89826   0.90520
 Alpha virt. eigenvalues --    0.90700   0.91670   0.92417   0.92807   0.93354
 Alpha virt. eigenvalues --    0.93398   0.94055   0.94681   0.95194   0.95562
 Alpha virt. eigenvalues --    0.95810   0.96143   0.96449   0.96667   0.97113
 Alpha virt. eigenvalues --    0.97712   0.98060   0.98441   0.99027   0.99208
 Alpha virt. eigenvalues --    0.99386   0.99833   1.00360   1.00866   1.01273
 Alpha virt. eigenvalues --    1.01719   1.02197   1.02749   1.02907   1.03138
 Alpha virt. eigenvalues --    1.03901   1.04206   1.04855   1.06083   1.06262
 Alpha virt. eigenvalues --    1.06557   1.07014   1.07562   1.08057   1.08494
 Alpha virt. eigenvalues --    1.08755   1.09209   1.09833   1.10740   1.11436
 Alpha virt. eigenvalues --    1.11738   1.12101   1.12150   1.13173   1.13889
 Alpha virt. eigenvalues --    1.14081   1.14648   1.15214   1.15585   1.16022
 Alpha virt. eigenvalues --    1.16859   1.16914   1.17285   1.17934   1.18157
 Alpha virt. eigenvalues --    1.18791   1.18971   1.19521   1.19751   1.20281
 Alpha virt. eigenvalues --    1.20791   1.21106   1.21747   1.21789   1.21859
 Alpha virt. eigenvalues --    1.22555   1.22799   1.23041   1.23742   1.24266
 Alpha virt. eigenvalues --    1.24307   1.25160   1.25545   1.25671   1.26180
 Alpha virt. eigenvalues --    1.26659   1.27302   1.27540   1.28011   1.28362
 Alpha virt. eigenvalues --    1.28720   1.29665   1.30022   1.30861   1.30916
 Alpha virt. eigenvalues --    1.31869   1.32690   1.32908   1.33328   1.34162
 Alpha virt. eigenvalues --    1.34381   1.35391   1.35836   1.36334   1.37116
 Alpha virt. eigenvalues --    1.37716   1.37941   1.39271   1.39776   1.40706
 Alpha virt. eigenvalues --    1.41074   1.42451   1.43047   1.43619   1.43831
 Alpha virt. eigenvalues --    1.46201   1.47085   1.47359   1.48260   1.48949
 Alpha virt. eigenvalues --    1.49587   1.49678   1.50627   1.50884   1.51447
 Alpha virt. eigenvalues --    1.52666   1.53038   1.53393   1.54535   1.55068
 Alpha virt. eigenvalues --    1.55394   1.55579   1.56998   1.57325   1.58103
 Alpha virt. eigenvalues --    1.58442   1.59233   1.60420   1.61347   1.61876
 Alpha virt. eigenvalues --    1.62382   1.62471   1.63176   1.63863   1.64123
 Alpha virt. eigenvalues --    1.64561   1.64904   1.65348   1.66205   1.66907
 Alpha virt. eigenvalues --    1.67435   1.68676   1.68989   1.69566   1.70010
 Alpha virt. eigenvalues --    1.70108   1.70318   1.71077   1.71579   1.71710
 Alpha virt. eigenvalues --    1.71953   1.73099   1.73428   1.74122   1.74338
 Alpha virt. eigenvalues --    1.74851   1.75091   1.75296   1.75570   1.75767
 Alpha virt. eigenvalues --    1.76346   1.76385   1.76985   1.77147   1.77656
 Alpha virt. eigenvalues --    1.78113   1.78527   1.78868   1.79085   1.79509
 Alpha virt. eigenvalues --    1.79948   1.80195   1.80726   1.80883   1.81339
 Alpha virt. eigenvalues --    1.81973   1.82310   1.82421   1.82975   1.83108
 Alpha virt. eigenvalues --    1.83339   1.84078   1.84358   1.85200   1.85779
 Alpha virt. eigenvalues --    1.86045   1.86550   1.86725   1.86976   1.87364
 Alpha virt. eigenvalues --    1.87862   1.88834   1.89161   1.89234   1.89596
 Alpha virt. eigenvalues --    1.89915   1.90785   1.91175   1.91432   1.92105
 Alpha virt. eigenvalues --    1.92752   1.93223   1.93764   1.93864   1.94898
 Alpha virt. eigenvalues --    1.95174   1.95966   1.96333   1.97098   1.98376
 Alpha virt. eigenvalues --    1.99792   2.00643   2.00917   2.01523   2.01543
 Alpha virt. eigenvalues --    2.02337   2.03167   2.03771   2.04060   2.04353
 Alpha virt. eigenvalues --    2.05047   2.06047   2.06589   2.07446   2.07862
 Alpha virt. eigenvalues --    2.08810   2.09534   2.10103   2.10422   2.11037
 Alpha virt. eigenvalues --    2.11636   2.12343   2.12562   2.13440   2.14346
 Alpha virt. eigenvalues --    2.15014   2.16694   2.16961   2.17826   2.18602
 Alpha virt. eigenvalues --    2.19019   2.19123   2.20158   2.20849   2.21465
 Alpha virt. eigenvalues --    2.22653   2.22952   2.23713   2.24241   2.24661
 Alpha virt. eigenvalues --    2.25640   2.25799   2.26374   2.26807   2.27126
 Alpha virt. eigenvalues --    2.27326   2.27861   2.29125   2.29387   2.29828
 Alpha virt. eigenvalues --    2.30259   2.30986   2.31574   2.32559   2.32889
 Alpha virt. eigenvalues --    2.33501   2.33984   2.34065   2.34588   2.35038
 Alpha virt. eigenvalues --    2.35333   2.35959   2.36482   2.36814   2.37554
 Alpha virt. eigenvalues --    2.38440   2.39087   2.40177   2.41216   2.41582
 Alpha virt. eigenvalues --    2.41942   2.42806   2.43652   2.43837   2.44149
 Alpha virt. eigenvalues --    2.45107   2.45504   2.46158   2.46403   2.47175
 Alpha virt. eigenvalues --    2.47983   2.49147   2.49856   2.50445   2.52074
 Alpha virt. eigenvalues --    2.52209   2.54922   2.55489   2.55865   2.56528
 Alpha virt. eigenvalues --    2.56946   2.57537   2.58834   2.60233   2.60549
 Alpha virt. eigenvalues --    2.61541   2.62106   2.62330   2.63241   2.63564
 Alpha virt. eigenvalues --    2.65069   2.65476   2.66137   2.66272   2.66963
 Alpha virt. eigenvalues --    2.67443   2.67863   2.68518   2.69770   2.70268
 Alpha virt. eigenvalues --    2.71181   2.71719   2.72286   2.72733   2.73349
 Alpha virt. eigenvalues --    2.73554   2.74200   2.75898   2.76227   2.77200
 Alpha virt. eigenvalues --    2.77790   2.78137   2.79268   2.79458   2.80102
 Alpha virt. eigenvalues --    2.80346   2.80639   2.81179   2.81429   2.81902
 Alpha virt. eigenvalues --    2.82272   2.82735   2.83133   2.84386   2.84886
 Alpha virt. eigenvalues --    2.85473   2.85726   2.86705   2.86940   2.87370
 Alpha virt. eigenvalues --    2.87910   2.88462   2.89590   2.93479   2.94276
 Alpha virt. eigenvalues --    2.95077   2.96585   2.97003   2.98540   2.99295
 Alpha virt. eigenvalues --    2.99755   3.01535   3.02959   3.05265   3.05489
 Alpha virt. eigenvalues --    3.07252   3.10092   3.11171   3.13378   3.15009
 Alpha virt. eigenvalues --    3.15487   3.16839   3.17305   3.18641   3.20610
 Alpha virt. eigenvalues --    3.22666   3.22889   3.23683   3.24096   3.28027
 Alpha virt. eigenvalues --    3.45507   3.47421   3.47947   3.49618   3.50645
 Alpha virt. eigenvalues --    3.53029   3.55111   3.56322   3.57833   3.60250
 Alpha virt. eigenvalues --    3.63613   3.70748   3.75232
          Condensed to atoms (all electrons):
 Mulliken charges:
               1
     1  N   -0.308973
     2  C    0.177767
     3  C    0.062804
     4  N   -0.249731
     5  C    0.126823
     6  H    0.027374
     7  N   -0.286111
     8  C    0.135154
     9  H    0.013801
    10  N   -0.289185
    11  C    0.226693
    12  C    0.094658
    13  N   -0.043750
    14  H    0.111401
    15  H    0.089824
    16  H    0.028858
    17  H    0.036277
    18  H    0.022100
    19  N   -0.295867
    20  C    0.248782
    21  C    0.184404
    22  N   -0.115729
    23  H    0.115280
    24  H    0.116814
    25  N   -0.304333
    26  C    0.230596
    27  N   -0.143927
    28  H    0.125003
    29  C    0.176477
    30  O   -0.324781
    31  C   -0.014253
    32  N   -0.218396
    33  C    0.125330
    34  H    0.018889
    35  H    0.020157
    36  H    0.028297
    37  H    0.020276
    38  H    0.039731
    39  H    0.062478
    40  H    0.075541
    41  H    0.025196
    42  C   -0.101475
    43  O   -0.272451
    44  C    0.162068
    45  H    0.134182
    46  N   -0.119809
    47  O   -0.340346
    48  C    0.337114
    49  H    0.042988
    50  C    0.179229
    51  C    0.043836
    52  N   -0.277073
    53  H    0.035358
    54  H    0.040138
    55  H    0.014737
    56  H    0.124750
    57  H    0.118499
    58  N   -0.047780
    59  C    0.102693
    60  C    0.228890
    61  N   -0.265894
    62  H    0.038232
    63  C    0.148686
    64  N   -0.301573
    65  H    0.035006
    66  C    0.109368
    67  N   -0.246607
    68  C    0.023011
    69  C    0.182669
    70  N   -0.300196
 Sum of Mulliken charges =  -0.00000
 Mulliken charges with hydrogens summed into heavy atoms:
               1
     1  N   -0.308973
     2  C    0.265001
     3  C    0.062804
     4  N   -0.249731
     5  C    0.154197
     7  N   -0.286111
     8  C    0.148955
    10  N   -0.289185
    11  C    0.226693
    12  C    0.094658
    13  N    0.157475
    19  N   -0.295867
    20  C    0.248782
    21  C    0.253134
    22  N    0.116365
    25  N   -0.304333
    26  C    0.230596
    27  N   -0.018924
    29  C    0.176477
    30  O   -0.324781
    31  C   -0.014253
    32  N   -0.218396
    33  C    0.144218
    42  C   -0.076279
    43  O   -0.272451
    44  C    0.162068
    46  N    0.014373
    47  O   -0.340346
    48  C    0.337114
    50  C    0.222217
    51  C    0.221587
    52  N   -0.277073
    58  N    0.195469
    59  C    0.102693
    60  C    0.228890
    61  N   -0.265894
    63  C    0.186918
    64  N   -0.301573
    66  C    0.144374
    67  N   -0.246607
    68  C    0.023011
    69  C    0.272901
    70  N   -0.300196
 Electronic spatial extent (au):  <R**2>=          22128.9326
 Charge=             -0.0000 electrons
 Dipole moment (field-independent basis, Debye):
    X=              5.6342    Y=              5.9373    Z=              4.3247  Tot=              9.2574
 Quadrupole moment (field-independent basis, Debye-Ang):
   XX=           -145.3012   YY=           -224.5907   ZZ=           -260.0415
   XY=             11.0038   XZ=              8.8794   YZ=             -3.1227
 Traceless Quadrupole moment (field-independent basis, Debye-Ang):
   XX=             64.6766   YY=            -14.6129   ZZ=            -50.0637
   XY=             11.0038   XZ=              8.8794   YZ=             -3.1227
 Octapole moment (field-independent basis, Debye-Ang**2):
  XXX=            -72.7572  YYY=             43.3373  ZZZ=             44.2262  XYY=             41.6917
  XXY=             81.6692  XXZ=              2.9492  XZZ=             54.2624  YZZ=             57.0092
  YYZ=             40.6681  XYZ=             38.5332
 Hexadecapole moment (field-independent basis, Debye-Ang**3):
 XXXX=         -15852.5132 YYYY=          -3966.5568 ZZZZ=          -3614.4804 XXXY=            604.5826
 XXXZ=            106.3961 YYYX=            -76.9799 YYYZ=             71.1180 ZZZX=            140.4703
 ZZZY=              2.0184 XXYY=          -3983.9366 XXZZ=          -3970.2222 YYZZ=          -1385.5662
 XXYZ=             79.2125 YYXZ=             85.6975 ZZXY=            134.1480
 N-N= 5.579911942496D+03 E-N=-1.594051774371D+04  KE= 2.037729928050D+03
 No NMR shielding tensors so no spin-rotation constants.
 Leave Link  601 at Fri Jan 19 11:27:07 2018, MaxMem=  4294967296 cpu:              50.3 elap:               1.8
 (Enter /share/apps/g16/l9999.exe)
 1\1\GINC-COMPUTE-0-3\SP\RwB97XD\CC-pVDZ\C23H27N17O3\SATYA\19-Jan-2018\
 0\\#p wb97xd/cc-pvdz sp scf=(maxcycles=20)\\Base pair stacking\\0,1\N,
 0,2.95729,6.16805,-6.47105\C,0,2.92461,7.63992,-6.57363\C,0,2.37431,4.
 04934,-6.37851\N,0,3.75627,4.07716,-6.25948\C,0,4.05217,5.35248,-6.32\
 H,0,5.06248,5.7581,-6.25909\N,0,0.1401,3.30763,-6.52372\C,0,-0.19963,4
 .59545,-6.6407\H,0,-1.2665,4.78711,-6.74702\N,0,0.57701,5.67698,-6.646
 03\C,0,1.86769,5.33062,-6.50964\C,0,1.44661,2.99189,-6.38803\N,0,1.787
 72,1.70692,-6.27112\H,0,2.74294,1.42716,-6.1686\H,0,1.10047,0.98048,-6
 .28203\H,0,3.45776,7.93199,-7.36775\H,0,1.97893,7.94666,-6.67715\H,0,3
 .31512,8.04258,-5.74576\N,0,0.4262,5.41754,-3.26456\C,0,-0.30514,4.254
 27,-3.26328\C,0,-0.13635,6.77948,-3.36129\N,0,-3.37141,2.62903,-3.3987
 2\H,0,-3.70907,1.68834,-3.38065\H,0,-4.05517,3.35512,-3.47605\N,0,-1.6
 4971,4.16074,-3.34948\C,0,-2.06078,2.90538,-3.32272\N,0,-1.22097,1.822
 99,-3.21948\H,0,-1.62371,0.89855,-3.20649\C,0,0.16557,1.89567,-3.12957
 \O,0,0.83212,0.85721,-3.03986\C,0,0.62203,3.23797,-3.15705\N,0,1.90955
 ,3.75284,-3.09292\C,0,1.74443,5.04607,-3.16\H,0,2.55315,5.77733,-3.137
 38\H,0,0.22391,7.23367,-4.17537\H,0,-1.13179,6.72284,-3.42565\H,0,0.11
 472,7.30411,-2.54855\H,0,-4.19667,-3.44065,-3.84208\H,0,-4.08133,-3.52
 373,-2.08582\H,0,-4.17586,-1.95632,-2.88935\H,0,0.34049,-4.95601,-3.32
 784\C,0,-0.23567,-4.03426,-3.2464\O,0,1.6691,-2.62161,-3.30466\C,0,0.4
 5055,-2.77857,-3.23206\H,0,0.07635,-0.77009,-3.11248\N,0,-0.37212,-1.6
 7531,-3.12585\O,0,-2.38456,-0.63875,-2.94466\C,0,-1.74156,-1.66974,-3.
 03565\H,0,-2.14001,-4.98973,-3.16654\C,0,-1.57074,-4.06116,-3.16\C,0,-
 3.79202,-2.96305,-2.96218\N,0,-2.33018,-2.91887,-3.05609\H,0,-5.73178,
 -1.99229,-6.86174\H,0,-5.24775,-0.76549,-5.90113\H,0,-5.66971,-2.19876
 ,-5.24405\H,0,1.66879,-1.96704,-6.31721\H,0,0.75857,-3.40223,-6.46493\
 N,0,0.77226,-2.40963,-6.33931\C,0,-0.35551,-1.70829,-6.20724\C,0,-2.71
 469,-1.42518,-6.08142\N,0,-2.66595,-0.09325,-5.91402\H,0,-1.27298,1.40
 389,-5.77681\C,0,-1.40373,0.33062,-5.90822\N,0,-0.27283,-0.37024,-6.04
 035\H,0,-4.06334,-4.34597,-6.40123\C,0,-3.37838,-3.50148,-6.32\N,0,-2.
 07239,-3.59266,-6.38132\C,0,-1.63916,-2.28324,-6.23142\C,0,-5.23285,-1
 .75689,-6.02768\N,0,-3.83569,-2.21888,-6.1396\\Version=EM64L-G16RevA.0
 3\State=1-A\HF=-2048.7548456\RMSD=6.750e-09\Dipole=-3.5362532,-0.79750
 29,-0.3522464\Quadrupole=2.0355891,28.4125608,-30.4481499,31.3523837,-
 12.9682345,1.8249009\PG=C01 [X(C23H27N17O3)]\\@


 BRING ME INTO THE COMPANY OF THOSE WHO SEEK TRUTH,
 AND DELIVER ME FROM THOSE WHO HAVE FOUND IT.
 Job cpu time:       0 days  6 hours 21 minutes 38.9 seconds.
 Elapsed time:       0 days  0 hours 12 minutes 21.4 seconds.
 File lengths (MBytes):  RWF=    298 Int=      0 D2E=      0 Chk=     33 Scr=      1
 Normal termination of Gaussian 16 at Fri Jan 19 11:27:07 2018.
