 Entering Gaussian System, Link 0=g16
 Input=str20.15.1.0.com
 Output=str20.15.1.0.log
 Initial command:
 /share/apps/g16/l1.exe "/state/partition1/scr/Gau-26069.inp" -scrdir="/state/partition1/scr/"
 Entering Link 1 = /share/apps/g16/l1.exe PID=     26070.
  
 Copyright (c) 1988,1990,1992,1993,1995,1998,2003,2009,2016,
            Gaussian, Inc.  All Rights Reserved.
  
 This is part of the Gaussian(R) 16 program.  It is based on
 the Gaussian(R) 09 system (copyright 2009, Gaussian, Inc.),
 the Gaussian(R) 03 system (copyright 2003, Gaussian, Inc.),
 the Gaussian(R) 98 system (copyright 1998, Gaussian, Inc.),
 the Gaussian(R) 94 system (copyright 1995, Gaussian, Inc.),
 the Gaussian 92(TM) system (copyright 1992, Gaussian, Inc.),
 the Gaussian 90(TM) system (copyright 1990, Gaussian, Inc.),
 the Gaussian 88(TM) system (copyright 1988, Gaussian, Inc.),
 the Gaussian 86(TM) system (copyright 1986, Carnegie Mellon
 University), and the Gaussian 82(TM) system (copyright 1983,
 Carnegie Mellon University). Gaussian is a federally registered
 trademark of Gaussian, Inc.
  
 This software contains proprietary and confidential information,
 including trade secrets, belonging to Gaussian, Inc.
  
 This software is provided under written license and may be
 used, copied, transmitted, or stored only in accord with that
 written license.
  
 The following legend is applicable only to US Government
 contracts under FAR:
  
                    RESTRICTED RIGHTS LEGEND
  
 Use, reproduction and disclosure by the US Government is
 subject to restrictions as set forth in subparagraphs (a)
 and (c) of the Commercial Computer Software - Restricted
 Rights clause in FAR 52.227-19.
  
 Gaussian, Inc.
 340 Quinnipiac St., Bldg. 40, Wallingford CT 06492
  
  
 ---------------------------------------------------------------
 Warning -- This program may not be used in any manner that
 competes with the business of Gaussian, Inc. or will provide
 assistance to any competitor of Gaussian, Inc.  The licensee
 of this program is prohibited from giving any competitor of
 Gaussian, Inc. access to this program.  By using this program,
 the user acknowledges that Gaussian, Inc. is engaged in the
 business of creating and licensing software in the field of
 computational chemistry and represents and warrants to the
 licensee that it is not a competitor of Gaussian, Inc. and that
 it will not use this program in any manner prohibited above.
 ---------------------------------------------------------------
  

 Cite this work as:
 Gaussian 16, Revision A.03,
 M. J. Frisch, G. W. Trucks, H. B. Schlegel, G. E. Scuseria, 
 M. A. Robb, J. R. Cheeseman, G. Scalmani, V. Barone, 
 G. A. Petersson, H. Nakatsuji, X. Li, M. Caricato, A. V. Marenich, 
 J. Bloino, B. G. Janesko, R. Gomperts, B. Mennucci, H. P. Hratchian, 
 J. V. Ortiz, A. F. Izmaylov, J. L. Sonnenberg, D. Williams-Young, 
 F. Ding, F. Lipparini, F. Egidi, J. Goings, B. Peng, A. Petrone, 
 T. Henderson, D. Ranasinghe, V. G. Zakrzewski, J. Gao, N. Rega, 
 G. Zheng, W. Liang, M. Hada, M. Ehara, K. Toyota, R. Fukuda, 
 J. Hasegawa, M. Ishida, T. Nakajima, Y. Honda, O. Kitao, H. Nakai, 
 T. Vreven, K. Throssell, J. A. Montgomery, Jr., J. E. Peralta, 
 F. Ogliaro, M. J. Bearpark, J. J. Heyd, E. N. Brothers, K. N. Kudin, 
 V. N. Staroverov, T. A. Keith, R. Kobayashi, J. Normand, 
 K. Raghavachari, A. P. Rendell, J. C. Burant, S. S. Iyengar, 
 J. Tomasi, M. Cossi, J. M. Millam, M. Klene, C. Adamo, R. Cammi, 
 J. W. Ochterski, R. L. Martin, K. Morokuma, O. Farkas, 
 J. B. Foresman, and D. J. Fox, Gaussian, Inc., Wallingford CT, 2016.
 
 ******************************************
 Gaussian 16:  EM64L-G16RevA.03 25-Dec-2016
                19-Jan-2018 
 ******************************************
 %nprocshared=32
 Will use up to   32 processors via shared memory.
 %mem=32GB
 %chk=allatoms_t.chk
 ---------------------------------------
 #p wb97xd/cc-pvdz sp scf=(maxcycles=20)
 ---------------------------------------
 1/38=1,172=1/1;
 2/12=2,17=6,18=5,40=1/2;
 3/5=16,11=2,25=1,30=1,74=-58/1,2,3;
 4//1;
 5/5=2,7=20,38=5/2;
 6/7=2,8=2,9=2,10=2,28=1/1;
 99/5=1,9=1/99;
 Leave Link    1 at Fri Jan 19 19:35:46 2018, MaxMem=  4294967296 cpu:               2.7 elap:               0.1
 (Enter /share/apps/g16/l101.exe)
 ------------------
 Base pair stacking
 ------------------
 Symbolic Z-matrix:
 Charge =  0 Multiplicity = 1
 N                     3.61835   3.08487  -5.97116 
 C                     3.71984   4.51654  -6.3147 
 C                     2.93765   0.99941  -5.81357 
 N                     4.1128    1.08051  -5.08065 
 C                     4.47586   2.33368  -5.20492 
 H                     5.3688    2.76806  -4.75446 
 N                     0.9766    0.18998  -6.84414 
 C                     0.80137   1.43046  -7.31113 
 H                    -0.08714   1.57535  -7.92417 
 N                     1.55536   2.51375  -7.13537 
 C                     2.62021   2.227    -6.36837 
 C                     2.05758  -0.06633  -6.07546 
 N                     2.23423  -1.30399  -5.60836 
 H                     3.02026  -1.53901  -5.03552 
 H                     1.58726  -2.03808  -5.81498 
 H                     4.57182   4.6819   -6.81166 
 H                     2.94427   4.7782   -6.88842 
 H                     3.71265   5.06364  -5.47767 
 N                     0.63844   3.93992  -3.38769 
 C                    -0.07958   2.77579  -3.51912 
 C                     0.12977   5.29457  -3.68245 
 N                    -3.02716   1.13735  -4.34923 
 H                    -3.36648   0.19744  -4.37527 
 H                    -3.6634    1.8573   -4.62775 
 N                    -1.36014   2.67465  -3.93626 
 C                    -1.77535   1.42057  -3.95851 
 N                    -0.99758   0.34628  -3.60007 
 H                    -1.39848  -0.57781  -3.64809 
 C                     0.32249   0.42687  -3.16787 
 O                     0.93633  -0.60464  -2.86799 
 C                     0.78255   1.7679   -3.13873 
 N                     2.01699   2.28881  -2.77579 
 C                     1.88495   3.57728  -2.93898 
 H                     2.66822   4.31113  -2.74602 
 H                     0.68679   5.71298  -4.39902 
 H                    -0.81804   5.23227  -3.99236 
 H                     0.17307   5.85569  -2.85657 
 H                    -3.76589  -4.94841  -4.71855 
 H                    -4.09611  -4.95264  -2.98777 
 H                    -3.97251  -3.42296  -3.85735 
 H                     0.48365  -6.4263   -3.01449 
 C                    -0.08668  -5.50348  -3.12105 
 O                     1.78353  -4.0894   -2.76078 
 C                     0.58453  -4.24645  -2.98993 
 H                     0.20929  -2.23571  -3.05661 
 N                    -0.22908  -3.1419   -3.14246 
 O                    -2.21367  -2.10405  -3.51857 
 C                    -1.57718  -3.13623  -3.39965 
 H                    -1.95804  -6.45988  -3.48042 
 C                    -1.40083  -5.53032  -3.37185 
 C                    -3.59122  -4.43083  -3.78706 
 N                    -2.15234  -4.38671  -3.51243 
 H                    -4.38796  -5.23053  -8.97061 
 H                    -4.32561  -3.8467   -8.1085 
 H                    -5.08137  -5.1569   -7.49508 
 H                     1.9404   -4.93391  -5.10674 
 H                     1.11729  -6.39488  -5.42005 
 N                     1.12876  -5.39535  -5.46514 
 C                     0.10658  -4.70925  -5.98051 
 C                    -2.03059  -4.46599  -6.99789 
 N                    -1.9877   -3.12423  -7.04549 
 H                    -0.72739  -1.59235  -6.53014 
 C                    -0.8448   -2.67516  -6.53067 
 N                     0.1802   -3.36072  -6.014 
 H                    -3.2494   -7.43034  -7.42138 
 C                    -2.62978  -6.56802  -7.17353 
 N                    -1.44675  -6.6367   -6.61369 
 C                    -1.05558  -5.3108   -6.49669 
 C                    -4.31117  -4.84452  -8.05132 
 N                    -3.04522  -5.28489  -7.43371 
 
 ITRead=  0  0  0  0  0  0  0  0  0  0  0  0  0  0  0  0  0  0  0  0
 ITRead=  0  0  0  0  0  0  0  0  0  0  0  0  0  0  0  0  0  0  0  0
 ITRead=  0  0  0  0  0  0  0  0  0  0  0  0  0  0  0  0  0  0  0  0
 ITRead=  0  0  0  0  0  0  0  0  0  0
 MicOpt= -1 -1 -1 -1 -1 -1 -1 -1 -1 -1 -1 -1 -1 -1 -1 -1 -1 -1 -1 -1
 MicOpt= -1 -1 -1 -1 -1 -1 -1 -1 -1 -1 -1 -1 -1 -1 -1 -1 -1 -1 -1 -1
 MicOpt= -1 -1 -1 -1 -1 -1 -1 -1 -1 -1 -1 -1 -1 -1 -1 -1 -1 -1 -1 -1
 MicOpt= -1 -1 -1 -1 -1 -1 -1 -1 -1 -1
 NAtoms=     70 NQM=       70 NQMF=       0 NMMI=      0 NMMIF=      0
                NMic=       0 NMicF=      0.
                    Isotopes and Nuclear Properties:
 (Nuclear quadrupole moments (NQMom) in fm**2, nuclear magnetic moments (NMagM)
  in nuclear magnetons)

  Atom         1           2           3           4           5           6           7           8           9          10
 IAtWgt=          14          12          12          14          12           1          14          12           1          14
 AtmWgt=  14.0030740  12.0000000  12.0000000  14.0030740  12.0000000   1.0078250  14.0030740  12.0000000   1.0078250  14.0030740
 NucSpn=           2           0           0           2           0           1           2           0           1           2
 AtZEff=  -0.0000000  -0.0000000  -0.0000000  -0.0000000  -0.0000000  -0.0000000  -0.0000000  -0.0000000  -0.0000000  -0.0000000
 NQMom=    2.0440000   0.0000000   0.0000000   2.0440000   0.0000000   0.0000000   2.0440000   0.0000000   0.0000000   2.0440000
 NMagM=    0.4037610   0.0000000   0.0000000   0.4037610   0.0000000   2.7928460   0.4037610   0.0000000   2.7928460   0.4037610
 AtZNuc=   7.0000000   6.0000000   6.0000000   7.0000000   6.0000000   1.0000000   7.0000000   6.0000000   1.0000000   7.0000000

  Atom        11          12          13          14          15          16          17          18          19          20
 IAtWgt=          12          12          14           1           1           1           1           1          14          12
 AtmWgt=  12.0000000  12.0000000  14.0030740   1.0078250   1.0078250   1.0078250   1.0078250   1.0078250  14.0030740  12.0000000
 NucSpn=           0           0           2           1           1           1           1           1           2           0
 AtZEff=  -0.0000000  -0.0000000  -0.0000000  -0.0000000  -0.0000000  -0.0000000  -0.0000000  -0.0000000  -0.0000000  -0.0000000
 NQMom=    0.0000000   0.0000000   2.0440000   0.0000000   0.0000000   0.0000000   0.0000000   0.0000000   2.0440000   0.0000000
 NMagM=    0.0000000   0.0000000   0.4037610   2.7928460   2.7928460   2.7928460   2.7928460   2.7928460   0.4037610   0.0000000
 AtZNuc=   6.0000000   6.0000000   7.0000000   1.0000000   1.0000000   1.0000000   1.0000000   1.0000000   7.0000000   6.0000000

  Atom        21          22          23          24          25          26          27          28          29          30
 IAtWgt=          12          14           1           1          14          12          14           1          12          16
 AtmWgt=  12.0000000  14.0030740   1.0078250   1.0078250  14.0030740  12.0000000  14.0030740   1.0078250  12.0000000  15.9949146
 NucSpn=           0           2           1           1           2           0           2           1           0           0
 AtZEff=  -0.0000000  -0.0000000  -0.0000000  -0.0000000  -0.0000000  -0.0000000  -0.0000000  -0.0000000  -0.0000000  -0.0000000
 NQMom=    0.0000000   2.0440000   0.0000000   0.0000000   2.0440000   0.0000000   2.0440000   0.0000000   0.0000000   0.0000000
 NMagM=    0.0000000   0.4037610   2.7928460   2.7928460   0.4037610   0.0000000   0.4037610   2.7928460   0.0000000   0.0000000
 AtZNuc=   6.0000000   7.0000000   1.0000000   1.0000000   7.0000000   6.0000000   7.0000000   1.0000000   6.0000000   8.0000000

  Atom        31          32          33          34          35          36          37          38          39          40
 IAtWgt=          12          14          12           1           1           1           1           1           1           1
 AtmWgt=  12.0000000  14.0030740  12.0000000   1.0078250   1.0078250   1.0078250   1.0078250   1.0078250   1.0078250   1.0078250
 NucSpn=           0           2           0           1           1           1           1           1           1           1
 AtZEff=  -0.0000000  -0.0000000  -0.0000000  -0.0000000  -0.0000000  -0.0000000  -0.0000000  -0.0000000  -0.0000000  -0.0000000
 NQMom=    0.0000000   2.0440000   0.0000000   0.0000000   0.0000000   0.0000000   0.0000000   0.0000000   0.0000000   0.0000000
 NMagM=    0.0000000   0.4037610   0.0000000   2.7928460   2.7928460   2.7928460   2.7928460   2.7928460   2.7928460   2.7928460
 AtZNuc=   6.0000000   7.0000000   6.0000000   1.0000000   1.0000000   1.0000000   1.0000000   1.0000000   1.0000000   1.0000000

  Atom        41          42          43          44          45          46          47          48          49          50
 IAtWgt=           1          12          16          12           1          14          16          12           1          12
 AtmWgt=   1.0078250  12.0000000  15.9949146  12.0000000   1.0078250  14.0030740  15.9949146  12.0000000   1.0078250  12.0000000
 NucSpn=           1           0           0           0           1           2           0           0           1           0
 AtZEff=  -0.0000000  -0.0000000  -0.0000000  -0.0000000  -0.0000000  -0.0000000  -0.0000000  -0.0000000  -0.0000000  -0.0000000
 NQMom=    0.0000000   0.0000000   0.0000000   0.0000000   0.0000000   2.0440000   0.0000000   0.0000000   0.0000000   0.0000000
 NMagM=    2.7928460   0.0000000   0.0000000   0.0000000   2.7928460   0.4037610   0.0000000   0.0000000   2.7928460   0.0000000
 AtZNuc=   1.0000000   6.0000000   8.0000000   6.0000000   1.0000000   7.0000000   8.0000000   6.0000000   1.0000000   6.0000000

  Atom        51          52          53          54          55          56          57          58          59          60
 IAtWgt=          12          14           1           1           1           1           1          14          12          12
 AtmWgt=  12.0000000  14.0030740   1.0078250   1.0078250   1.0078250   1.0078250   1.0078250  14.0030740  12.0000000  12.0000000
 NucSpn=           0           2           1           1           1           1           1           2           0           0
 AtZEff=  -0.0000000  -0.0000000  -0.0000000  -0.0000000  -0.0000000  -0.0000000  -0.0000000  -0.0000000  -0.0000000  -0.0000000
 NQMom=    0.0000000   2.0440000   0.0000000   0.0000000   0.0000000   0.0000000   0.0000000   2.0440000   0.0000000   0.0000000
 NMagM=    0.0000000   0.4037610   2.7928460   2.7928460   2.7928460   2.7928460   2.7928460   0.4037610   0.0000000   0.0000000
 AtZNuc=   6.0000000   7.0000000   1.0000000   1.0000000   1.0000000   1.0000000   1.0000000   7.0000000   6.0000000   6.0000000

  Atom        61          62          63          64          65          66          67          68          69          70
 IAtWgt=          14           1          12          14           1          12          14          12          12          14
 AtmWgt=  14.0030740   1.0078250  12.0000000  14.0030740   1.0078250  12.0000000  14.0030740  12.0000000  12.0000000  14.0030740
 NucSpn=           2           1           0           2           1           0           2           0           0           2
 AtZEff=  -0.0000000  -0.0000000  -0.0000000  -0.0000000  -0.0000000  -0.0000000  -0.0000000  -0.0000000  -0.0000000  -0.0000000
 NQMom=    2.0440000   0.0000000   0.0000000   2.0440000   0.0000000   0.0000000   2.0440000   0.0000000   0.0000000   2.0440000
 NMagM=    0.4037610   2.7928460   0.0000000   0.4037610   2.7928460   0.0000000   0.4037610   0.0000000   0.0000000   0.4037610
 AtZNuc=   7.0000000   1.0000000   6.0000000   7.0000000   1.0000000   6.0000000   7.0000000   6.0000000   6.0000000   7.0000000
 Leave Link  101 at Fri Jan 19 19:35:47 2018, MaxMem=  4294967296 cpu:               7.2 elap:               0.3
 (Enter /share/apps/g16/l202.exe)
 Stoichiometry    C23H27N17O3
 Framework group  C1[X(C23H27N17O3)]
 Deg. of freedom   204
 Full point group                 C1      NOp   1
 Largest Abelian subgroup         C1      NOp   1
 Largest concise Abelian subgroup C1      NOp   1
                         Standard orientation:                         
 ---------------------------------------------------------------------
 Center     Atomic      Atomic             Coordinates (Angstroms)
 Number     Number       Type             X           Y           Z
 ---------------------------------------------------------------------
      1          7           0       -5.159411   -2.029570    0.731229
      2          6           0       -6.468138   -1.773229    1.363306
      3          6           0       -3.002616   -2.097292    0.305810
      4          7           0       -3.626317   -2.753596   -0.745374
      5          6           0       -4.900745   -2.686522   -0.447007
      6          1           0       -5.702993   -3.103317   -1.056615
      7          7           0       -1.368057   -1.150182    1.717960
      8          6           0       -2.378335   -0.777113    2.510256
      9          1           0       -2.088396   -0.235588    3.409672
     10          7           0       -3.686851   -0.971621    2.359050
     11          6           0       -3.934709   -1.645474    1.223749
     12          6           0       -1.650307   -1.826602    0.583116
     13          7           0       -0.643180   -2.199865   -0.209071
     14          1           0       -0.805570   -2.702406   -1.058956
     15          1           0        0.307461   -1.990022    0.019833
     16          1           0       -6.922321   -2.642919    1.557061
     17          1           0       -6.334128   -1.270836    2.216988
     18          1           0       -7.038510   -1.231616    0.745795
     19          7           0       -4.948908    1.851865   -0.352950
     20          6           0       -3.585917    2.007184   -0.274481
     21          6           0       -5.941651    2.616660    0.428239
     22          7           0       -0.812621    3.588319    1.093232
     23          1           0        0.181736    3.544620    1.000539
     24          1           0       -1.178726    4.252162    1.745905
     25          7           0       -2.929812    2.877568    0.523031
     26          6           0       -1.619651    2.792863    0.375000
     27          7           0       -0.997611    1.923006   -0.487509
     28          1           0        0.009711    1.927375   -0.534958
     29          6           0       -1.652690    1.018656   -1.317508
     30          8           0       -0.996734    0.276962   -2.059366
     31          6           0       -3.060779    1.097935   -1.169636
     32          7           0       -4.073725    0.386108   -1.797455
     33          6           0       -5.173240    0.866095   -1.282771
     34          1           0       -6.178388    0.535599   -1.546837
     35          1           0       -6.484011    1.989515    0.986221
     36          1           0       -5.467318    3.264651    1.022702
     37          1           0       -6.544451    3.115818   -0.193276
     38          1           0        5.045180    1.992543    0.166806
     39          1           0        5.025324    2.993134   -1.283396
     40          1           0        3.667034    3.044108   -0.159199
     41          1           0        4.483501   -1.377127   -3.220880
     42          6           0        3.890472   -0.628118   -2.695969
     43          8           0        1.806449   -1.573920   -3.319997
     44          6           0        2.462467   -0.712616   -2.734701
     45          1           0        0.798786    0.257614   -2.042495
     46          7           0        1.808744    0.283809   -2.038252
     47          8           0        1.717061    2.150896   -0.748767
     48          6           0        2.380979    1.314217   -1.335144
     49          1           0        5.559723    0.474241   -1.958243
     50          6           0        4.477664    0.365327   -2.018560
     51          6           0        4.418195    2.410393   -0.606734
     52          7           0        3.761904    1.327664   -1.344788
     53          1           0        5.948007    0.643017    4.155573
     54          1           0        4.587768    1.420277    3.699808
     55          1           0        6.030194    1.869333    3.081878
     56          1           0        2.724025   -2.973510   -1.465129
     57          1           0        4.416185   -2.906356   -1.259724
     58          7           0        3.508952   -2.595906   -0.973762
     59          6           0        3.353872   -1.717357    0.018857
     60          6           0        4.104660   -0.259318    1.742856
     61          7           0        2.874317    0.139665    2.105476
     62          1           0        0.919665   -0.187381    1.582979
     63          6           0        1.950153   -0.455875    1.354357
     64          7           0        2.103466   -1.336074    0.359717
     65          1           0        7.333202   -0.414624    1.810743
     66          6           0        6.273682   -0.540692    1.586071
     67          7           0        5.798542   -1.326808    0.651211
     68          6           0        4.424385   -1.157866    0.739892
     69          6           0        5.481695    1.093629    3.394327
     70          7           0        5.304339    0.135744    2.285724
 ---------------------------------------------------------------------
 Rotational constants (GHZ):           0.1555840           0.0522488           0.0506087
 Leave Link  202 at Fri Jan 19 19:35:47 2018, MaxMem=  4294967296 cpu:               0.3 elap:               0.0
 (Enter /share/apps/g16/l301.exe)
 Standard basis: CC-pVDZ (5D, 7F)
 Ernie: Thresh=  0.10000D-02 Tol=  0.10000D-05 Strict=F.
 Ernie:  86 primitive shells out of 1081 were deleted.
 There are   780 symmetry adapted cartesian basis functions of A   symmetry.
 There are   737 symmetry adapted basis functions of A   symmetry.
   737 basis functions,  1608 primitive gaussians,   780 cartesian basis functions
   154 alpha electrons      154 beta electrons
       nuclear repulsion energy      5523.6254267721 Hartrees.
 IExCor= 4639 DFT=T Ex+Corr=wB97XD ExCW=0 ScaHFX=  1.000000
 ScaDFX=  1.000000  1.000000  1.000000  1.000000 ScalE2=  1.000000  1.000000
 IRadAn=      5 IRanWt=     -1 IRanGd=            0 ICorTp=0 IEmpDi=121
 HFx  wShort=  0.000000 wLong=  0.200000 cFull=  0.222036 cShort=  0.000000 cLong=  0.777964
 DFx  wShort=  0.000000 wLong=  0.200000 cFull=  0.000000 cShort=  0.000000 cLong=  1.000000
 NAtoms=   70 NActive=   70 NUniq=   70 SFac= 1.00D+00 NAtFMM=   60 NAOKFM=T Big=T
 Integral buffers will be    131072 words long.
 Raffenetti 2 integral format.
 Two-electron integral symmetry is turned on.
 R6Disp:  Grimme-D2 Dispersion energy=       -0.0722436359 Hartrees.
 Nuclear repulsion after empirical dispersion term =     5523.5531831363 Hartrees.
 Leave Link  301 at Fri Jan 19 19:35:47 2018, MaxMem=  4294967296 cpu:               2.1 elap:               0.1
 (Enter /share/apps/g16/l302.exe)
 NPDir=0 NMtPBC=     1 NCelOv=     1 NCel=       1 NClECP=     1 NCelD=      1
         NCelK=      1 NCelE2=     1 NClLst=     1 CellRange=     0.0.
 One-electron integrals computed using PRISM.
 One-electron integral symmetry used in STVInt
 NBasis=   737 RedAO= T EigKep=  6.72D-04  NBF=   737
 NBsUse=   737 1.00D-06 EigRej= -1.00D+00 NBFU=   737
 Precomputing XC quadrature grid using
 IXCGrd= 4 IRadAn=           5 IRanWt=          -1 IRanGd=           0 AccXCQ= 0.00D+00.
 Generated NRdTot=       0 NPtTot=           0 NUsed=           0 NTot=          32
 NSgBfM=   763   761   762   763   763 MxSgAt=    70 MxSgA2=    70.
 Leave Link  302 at Fri Jan 19 19:35:51 2018, MaxMem=  4294967296 cpu:             134.2 elap:               4.2
 (Enter /share/apps/g16/l303.exe)
 DipDrv:  MaxL=1.
 Leave Link  303 at Fri Jan 19 19:35:52 2018, MaxMem=  4294967296 cpu:              12.6 elap:               0.4
 (Enter /share/apps/g16/l401.exe)
 ExpMin= 1.22D-01 ExpMax= 1.17D+04 ExpMxC= 4.01D+02 IAcc=3 IRadAn=         5 AccDes= 0.00D+00
 Harris functional with IExCor= 4639 and IRadAn=       5 diagonalized for initial guess.
 HarFok:  IExCor= 4639 AccDes= 0.00D+00 IRadAn=         5 IDoV= 1 UseB2=F ITyADJ=14
 ICtDFT=  3500011 ScaDFX=  1.000000  1.000000  1.000000  1.000000
 FoFCou: FMM=F IPFlag=           0 FMFlag=      100000 FMFlg1=        2001
         NFxFlg=           0 DoJE=T BraDBF=F KetDBF=T FulRan=T
         wScrn=  0.000000 ICntrl=       500 IOpCl=  0 I1Cent=   200000004 NGrid=           0
         NMat0=    1 NMatS0=      1 NMatT0=    0 NMatD0=    1 NMtDS0=    0 NMtDT0=    0
 Petite list used in FoFCou.
 Harris En= -1963.87544770606    
 JPrj=0 DoOrth=F DoCkMO=F.
 Leave Link  401 at Fri Jan 19 19:36:04 2018, MaxMem=  4294967296 cpu:             402.1 elap:              12.6
 (Enter /share/apps/g16/l502.exe)
 Integral symmetry usage will be decided dynamically.
 Closed shell SCF:
 Using DIIS extrapolation, IDIIS=  1040.
 NGot=  4294967296 LenX=  4293717438 LenY=  4293108258
 Requested convergence on RMS density matrix=1.00D-08 within  20 cycles.
 Requested convergence on MAX density matrix=1.00D-06.
 Requested convergence on             energy=1.00D-06.
 No special actions if energy rises.
 Fock matrices will be formed incrementally for  20 cycles.
 Integral accuracy reduced to 1.0D-05 until final iterations.

 Cycle   1  Pass 0  IDiag  1:
 FoFJK:  IHMeth= 1 ICntrl=       0 DoSepK=T KAlg= 0 I1Cent=           0 FoldK=F
 IRaf=         1 NMat=       1 IRICut=       1 DoRegI=T DoRafI=F ISym2E= 0 IDoP0=0 IntGTp=1.
 FoFCou: FMM=T IPFlag=           0 FMFlag=      100000 FMFlg1=        2001
         NFxFlg=           0 DoJE=T BraDBF=F KetDBF=F FulRan=T
         wScrn=  0.000000 ICntrl=       500 IOpCl=  0 I1Cent=           0 NGrid=           0
         NMat0=    1 NMatS0=      1 NMatT0=    0 NMatD0=    1 NMtDS0=    0 NMtDT0=    0
 Symmetry not used in FoFCou.
 FMM levels:  10  Number of levels for PrismC:   9
 E= -2048.31522116671    
 DIIS: error= 2.23D-02 at cycle   1 NSaved=   1.
 NSaved= 1 IEnMin= 1 EnMin= -2048.31522116671     IErMin= 1 ErrMin= 2.23D-02
 ErrMax= 2.23D-02  0.00D+00 EMaxC= 1.00D-01 BMatC= 8.30D-01 BMatP= 8.30D-01
 IDIUse=3 WtCom= 7.77D-01 WtEn= 2.23D-01
 Coeff-Com:  0.100D+01
 Coeff-En:   0.100D+01
 Coeff:      0.100D+01
 Gap=     0.266 Goal=   None    Shift=    0.000
 GapD=    0.266 DampG=1.000 DampE=0.500 DampFc=0.5000 IDamp=-1.
 Damping current iteration by 5.00D-01
 RMSDP=1.56D-03 MaxDP=1.12D-01              OVMax= 1.77D-01

 Cycle   2  Pass 0  IDiag  1:
 RMSU=  7.81D-04    CP:  9.98D-01
 E= -2048.51005584333     Delta-E=       -0.194834676618 Rises=F Damp=T
 DIIS: error= 1.24D-02 at cycle   2 NSaved=   2.
 NSaved= 2 IEnMin= 2 EnMin= -2048.51005584333     IErMin= 2 ErrMin= 1.24D-02
 ErrMax= 1.24D-02  0.00D+00 EMaxC= 1.00D-01 BMatC= 1.45D-01 BMatP= 8.30D-01
 IDIUse=3 WtCom= 8.76D-01 WtEn= 1.24D-01
 Coeff-Com: -0.199D+00 0.120D+01
 Coeff-En:   0.000D+00 0.100D+01
 Coeff:     -0.174D+00 0.117D+01
 Gap=     0.332 Goal=   None    Shift=    0.000
 RMSDP=5.88D-04 MaxDP=3.09D-02 DE=-1.95D-01 OVMax= 1.23D-01

 Cycle   3  Pass 0  IDiag  1:
 RMSU=  5.77D-04    CP:  9.94D-01  1.14D+00
 E= -2048.68533496209     Delta-E=       -0.175279118759 Rises=F Damp=F
 DIIS: error= 6.47D-03 at cycle   3 NSaved=   3.
 NSaved= 3 IEnMin= 3 EnMin= -2048.68533496209     IErMin= 3 ErrMin= 6.47D-03
 ErrMax= 6.47D-03  0.00D+00 EMaxC= 1.00D-01 BMatC= 6.52D-02 BMatP= 1.45D-01
 IDIUse=3 WtCom= 9.35D-01 WtEn= 6.47D-02
 Coeff-Com: -0.234D+00 0.557D+00 0.677D+00
 Coeff-En:   0.000D+00 0.000D+00 0.100D+01
 Coeff:     -0.219D+00 0.521D+00 0.698D+00
 Gap=     0.281 Goal=   None    Shift=    0.000
 RMSDP=3.63D-04 MaxDP=2.63D-02 DE=-1.75D-01 OVMax= 5.47D-02

 Cycle   4  Pass 0  IDiag  1:
 RMSU=  2.05D-04    CP:  9.94D-01  1.43D+00  6.60D-01
 E= -2048.73472317930     Delta-E=       -0.049388217212 Rises=F Damp=F
 DIIS: error= 2.46D-03 at cycle   4 NSaved=   4.
 NSaved= 4 IEnMin= 4 EnMin= -2048.73472317930     IErMin= 4 ErrMin= 2.46D-03
 ErrMax= 2.46D-03  0.00D+00 EMaxC= 1.00D-01 BMatC= 9.08D-03 BMatP= 6.52D-02
 IDIUse=3 WtCom= 9.75D-01 WtEn= 2.46D-02
 Coeff-Com: -0.976D-01 0.189D+00 0.373D+00 0.535D+00
 Coeff-En:   0.000D+00 0.000D+00 0.621D-01 0.938D+00
 Coeff:     -0.952D-01 0.184D+00 0.366D+00 0.545D+00
 Gap=     0.286 Goal=   None    Shift=    0.000
 RMSDP=1.26D-04 MaxDP=9.68D-03 DE=-4.94D-02 OVMax= 1.47D-02

 Cycle   5  Pass 0  IDiag  1:
 RMSU=  6.08D-05    CP:  9.94D-01  1.40D+00  7.92D-01  6.25D-01
 E= -2048.74233537097     Delta-E=       -0.007612191666 Rises=F Damp=F
 DIIS: error= 3.95D-04 at cycle   5 NSaved=   5.
 NSaved= 5 IEnMin= 5 EnMin= -2048.74233537097     IErMin= 5 ErrMin= 3.95D-04
 ErrMax= 3.95D-04  0.00D+00 EMaxC= 1.00D-01 BMatC= 2.65D-04 BMatP= 9.08D-03
 IDIUse=3 WtCom= 9.96D-01 WtEn= 3.95D-03
 Coeff-Com: -0.246D-01 0.423D-01 0.116D+00 0.232D+00 0.634D+00
 Coeff-En:   0.000D+00 0.000D+00 0.000D+00 0.000D+00 0.100D+01
 Coeff:     -0.245D-01 0.421D-01 0.116D+00 0.231D+00 0.636D+00
 Gap=     0.286 Goal=   None    Shift=    0.000
 RMSDP=2.60D-05 MaxDP=1.27D-03 DE=-7.61D-03 OVMax= 3.14D-03

 Failed to achieve initial convergence to 1.0D-08 in  6 cycles.
 Switch to full accuracy anyway.
 Cycle   6  Pass 1  IDiag  1:
 E= -2048.74252509531     Delta-E=       -0.000189724345 Rises=F Damp=F
 DIIS: error= 2.14D-04 at cycle   1 NSaved=   1.
 NSaved= 1 IEnMin= 1 EnMin= -2048.74252509531     IErMin= 1 ErrMin= 2.14D-04
 ErrMax= 2.14D-04  0.00D+00 EMaxC= 1.00D-01 BMatC= 7.38D-05 BMatP= 7.38D-05
 IDIUse=3 WtCom= 9.98D-01 WtEn= 2.14D-03
 Coeff-Com:  0.100D+01
 Coeff-En:   0.100D+01
 Coeff:      0.100D+01
 Gap=     0.286 Goal=   None    Shift=    0.000
 RMSDP=2.60D-05 MaxDP=1.27D-03 DE=-1.90D-04 OVMax= 2.58D-03

 Cycle   7  Pass 1  IDiag  1:
 RMSU=  1.11D-04    CP:  1.00D+00
 E= -2048.74257734235     Delta-E=       -0.000052247040 Rises=F Damp=F
 DIIS: error= 1.73D-04 at cycle   2 NSaved=   2.
 NSaved= 2 IEnMin= 2 EnMin= -2048.74257734235     IErMin= 2 ErrMin= 1.73D-04
 ErrMax= 1.73D-04  0.00D+00 EMaxC= 1.00D-01 BMatC= 4.33D-05 BMatP= 7.38D-05
 IDIUse=3 WtCom= 9.98D-01 WtEn= 1.73D-03
 Coeff-Com:  0.411D+00 0.589D+00
 Coeff-En:   0.000D+00 0.100D+01
 Coeff:      0.410D+00 0.590D+00
 Gap=     0.286 Goal=   None    Shift=    0.000
 RMSDP=1.16D-05 MaxDP=7.64D-04 DE=-5.22D-05 OVMax= 1.59D-03

 Cycle   8  Pass 1  IDiag  1:
 RMSU=  1.13D-05    CP:  1.00D+00  1.02D+00
 E= -2048.74260948894     Delta-E=       -0.000032146583 Rises=F Damp=F
 DIIS: error= 8.95D-05 at cycle   3 NSaved=   3.
 NSaved= 3 IEnMin= 3 EnMin= -2048.74260948894     IErMin= 3 ErrMin= 8.95D-05
 ErrMax= 8.95D-05  0.00D+00 EMaxC= 1.00D-01 BMatC= 9.71D-06 BMatP= 4.33D-05
 IDIUse=1 WtCom= 1.00D+00 WtEn= 0.00D+00
 Coeff-Com: -0.188D-01 0.308D+00 0.711D+00
 Coeff:     -0.188D-01 0.308D+00 0.711D+00
 Gap=     0.286 Goal=   None    Shift=    0.000
 RMSDP=5.65D-06 MaxDP=3.86D-04 DE=-3.21D-05 OVMax= 5.87D-04

 Cycle   9  Pass 1  IDiag  1:
 RMSU=  3.78D-06    CP:  1.00D+00  1.05D+00  7.59D-01
 E= -2048.74261888296     Delta-E=       -0.000009394025 Rises=F Damp=F
 DIIS: error= 2.88D-05 at cycle   4 NSaved=   4.
 NSaved= 4 IEnMin= 4 EnMin= -2048.74261888296     IErMin= 4 ErrMin= 2.88D-05
 ErrMax= 2.88D-05  0.00D+00 EMaxC= 1.00D-01 BMatC= 4.92D-07 BMatP= 9.71D-06
 IDIUse=1 WtCom= 1.00D+00 WtEn= 0.00D+00
 Coeff-Com: -0.303D-01 0.847D-01 0.266D+00 0.680D+00
 Coeff:     -0.303D-01 0.847D-01 0.266D+00 0.680D+00
 Gap=     0.286 Goal=   None    Shift=    0.000
 RMSDP=1.43D-06 MaxDP=8.10D-05 DE=-9.39D-06 OVMax= 4.26D-04

 Cycle  10  Pass 1  IDiag  1:
 RMSU=  1.27D-06    CP:  1.00D+00  1.06D+00  7.95D-01  1.10D+00
 E= -2048.74261969327     Delta-E=       -0.000000810304 Rises=F Damp=F
 DIIS: error= 9.22D-06 at cycle   5 NSaved=   5.
 NSaved= 5 IEnMin= 5 EnMin= -2048.74261969327     IErMin= 5 ErrMin= 9.22D-06
 ErrMax= 9.22D-06  0.00D+00 EMaxC= 1.00D-01 BMatC= 1.13D-07 BMatP= 4.92D-07
 IDIUse=1 WtCom= 1.00D+00 WtEn= 0.00D+00
 Coeff-Com: -0.321D-02-0.540D-01-0.116D+00 0.203D+00 0.970D+00
 Coeff:     -0.321D-02-0.540D-01-0.116D+00 0.203D+00 0.970D+00
 Gap=     0.286 Goal=   None    Shift=    0.000
 RMSDP=1.18D-06 MaxDP=6.35D-05 DE=-8.10D-07 OVMax= 2.35D-04

 Cycle  11  Pass 1  IDiag  1:
 RMSU=  4.90D-07    CP:  1.00D+00  1.06D+00  8.04D-01  1.38D+00  1.18D+00
 E= -2048.74261994074     Delta-E=       -0.000000247475 Rises=F Damp=F
 DIIS: error= 6.43D-06 at cycle   6 NSaved=   6.
 NSaved= 6 IEnMin= 6 EnMin= -2048.74261994074     IErMin= 6 ErrMin= 6.43D-06
 ErrMax= 6.43D-06  0.00D+00 EMaxC= 1.00D-01 BMatC= 2.85D-08 BMatP= 1.13D-07
 IDIUse=1 WtCom= 1.00D+00 WtEn= 0.00D+00
 Coeff-Com:  0.469D-02-0.453D-01-0.116D+00-0.652D-02 0.526D+00 0.637D+00
 Coeff:      0.469D-02-0.453D-01-0.116D+00-0.652D-02 0.526D+00 0.637D+00
 Gap=     0.286 Goal=   None    Shift=    0.000
 RMSDP=3.80D-07 MaxDP=2.51D-05 DE=-2.47D-07 OVMax= 1.17D-04

 Cycle  12  Pass 1  IDiag  1:
 RMSU=  1.89D-07    CP:  1.00D+00  1.06D+00  8.06D-01  1.45D+00  1.31D+00
                    CP:  9.43D-01
 E= -2048.74261998226     Delta-E=       -0.000000041524 Rises=F Damp=F
 DIIS: error= 9.38D-07 at cycle   7 NSaved=   7.
 NSaved= 7 IEnMin= 7 EnMin= -2048.74261998226     IErMin= 7 ErrMin= 9.38D-07
 ErrMax= 9.38D-07  0.00D+00 EMaxC= 1.00D-01 BMatC= 7.28D-10 BMatP= 2.85D-08
 IDIUse=1 WtCom= 1.00D+00 WtEn= 0.00D+00
 Coeff-Com:  0.102D-02-0.639D-02-0.177D-01-0.909D-02 0.467D-01 0.122D+00
 Coeff-Com:  0.864D+00
 Coeff:      0.102D-02-0.639D-02-0.177D-01-0.909D-02 0.467D-01 0.122D+00
 Coeff:      0.864D+00
 Gap=     0.286 Goal=   None    Shift=    0.000
 RMSDP=8.87D-08 MaxDP=3.65D-06 DE=-4.15D-08 OVMax= 2.10D-05

 Cycle  13  Pass 1  IDiag  1:
 RMSU=  5.30D-08    CP:  1.00D+00  1.06D+00  8.06D-01  1.46D+00  1.33D+00
                    CP:  1.04D+00  1.15D+00
 E= -2048.74261998409     Delta-E=       -0.000000001830 Rises=F Damp=F
 DIIS: error= 6.74D-07 at cycle   8 NSaved=   8.
 NSaved= 8 IEnMin= 8 EnMin= -2048.74261998409     IErMin= 8 ErrMin= 6.74D-07
 ErrMax= 6.74D-07  0.00D+00 EMaxC= 1.00D-01 BMatC= 3.16D-10 BMatP= 7.28D-10
 IDIUse=1 WtCom= 1.00D+00 WtEn= 0.00D+00
 Coeff-Com: -0.754D-03 0.904D-02 0.224D-01-0.108D-02-0.117D+00-0.108D+00
 Coeff-Com:  0.432D+00 0.764D+00
 Coeff:     -0.754D-03 0.904D-02 0.224D-01-0.108D-02-0.117D+00-0.108D+00
 Coeff:      0.432D+00 0.764D+00
 Gap=     0.286 Goal=   None    Shift=    0.000
 RMSDP=4.88D-08 MaxDP=2.13D-06 DE=-1.83D-09 OVMax= 1.03D-05

 Cycle  14  Pass 1  IDiag  1:
 RMSU=  2.81D-08    CP:  1.00D+00  1.06D+00  8.06D-01  1.46D+00  1.34D+00
                    CP:  1.08D+00  1.30D+00  1.10D+00
 E= -2048.74261998496     Delta-E=       -0.000000000870 Rises=F Damp=F
 DIIS: error= 1.86D-07 at cycle   9 NSaved=   9.
 NSaved= 9 IEnMin= 9 EnMin= -2048.74261998496     IErMin= 9 ErrMin= 1.86D-07
 ErrMax= 1.86D-07  0.00D+00 EMaxC= 1.00D-01 BMatC= 2.56D-11 BMatP= 3.16D-10
 IDIUse=1 WtCom= 1.00D+00 WtEn= 0.00D+00
 Coeff-Com: -0.394D-03 0.409D-02 0.104D-01 0.562D-03-0.490D-01-0.543D-01
 Coeff-Com:  0.719D-01 0.271D+00 0.745D+00
 Coeff:     -0.394D-03 0.409D-02 0.104D-01 0.562D-03-0.490D-01-0.543D-01
 Coeff:      0.719D-01 0.271D+00 0.745D+00
 Gap=     0.286 Goal=   None    Shift=    0.000
 RMSDP=1.41D-08 MaxDP=7.14D-07 DE=-8.70D-10 OVMax= 3.74D-06

 Cycle  15  Pass 1  IDiag  1:
 RMSU=  8.74D-09    CP:  1.00D+00  1.06D+00  8.06D-01  1.46D+00  1.34D+00
                    CP:  1.09D+00  1.33D+00  1.24D+00  1.14D+00
 E= -2048.74261998457     Delta-E=        0.000000000391 Rises=F Damp=F
 DIIS: error= 7.27D-08 at cycle  10 NSaved=  10.
 NSaved=10 IEnMin= 9 EnMin= -2048.74261998496     IErMin=10 ErrMin= 7.27D-08
 ErrMax= 7.27D-08  0.00D+00 EMaxC= 1.00D-01 BMatC= 5.15D-12 BMatP= 2.56D-11
 IDIUse=1 WtCom= 1.00D+00 WtEn= 0.00D+00
 Coeff-Com:  0.279D-04-0.558D-03-0.126D-02 0.218D-03 0.853D-02 0.480D-02
 Coeff-Com: -0.647D-01-0.787D-01 0.274D+00 0.857D+00
 Coeff:      0.279D-04-0.558D-03-0.126D-02 0.218D-03 0.853D-02 0.480D-02
 Coeff:     -0.647D-01-0.787D-01 0.274D+00 0.857D+00
 Gap=     0.286 Goal=   None    Shift=    0.000
 RMSDP=7.07D-09 MaxDP=2.95D-07 DE= 3.91D-10 OVMax= 1.58D-06

 SCF Done:  E(RwB97XD) =  -2048.74261998     A.U. after   15 cycles
            NFock= 15  Conv=0.71D-08     -V/T= 2.0054
 KE= 2.037779724274D+03 PE=-1.582770821445D+04 EE= 6.217632687060D+03
 Leave Link  502 at Fri Jan 19 19:47:15 2018, MaxMem=  4294967296 cpu:           20756.0 elap:             671.3
 (Enter /share/apps/g16/l601.exe)
 Copying SCF densities to generalized density rwf, IOpCl= 0 IROHF=0.

 **********************************************************************

            Population analysis using the SCF density.

 **********************************************************************

 Orbital symmetries:
       Occupied  (A) (A) (A) (A) (A) (A) (A) (A) (A) (A) (A) (A)
                 (A) (A) (A) (A) (A) (A) (A) (A) (A) (A) (A) (A)
                 (A) (A) (A) (A) (A) (A) (A) (A) (A) (A) (A) (A)
                 (A) (A) (A) (A) (A) (A) (A) (A) (A) (A) (A) (A)
                 (A) (A) (A) (A) (A) (A) (A) (A) (A) (A) (A) (A)
                 (A) (A) (A) (A) (A) (A) (A) (A) (A) (A) (A) (A)
                 (A) (A) (A) (A) (A) (A) (A) (A) (A) (A) (A) (A)
                 (A) (A) (A) (A) (A) (A) (A) (A) (A) (A) (A) (A)
                 (A) (A) (A) (A) (A) (A) (A) (A) (A) (A) (A) (A)
                 (A) (A) (A) (A) (A) (A) (A) (A) (A) (A) (A) (A)
                 (A) (A) (A) (A) (A) (A) (A) (A) (A) (A) (A) (A)
                 (A) (A) (A) (A) (A) (A) (A) (A) (A) (A) (A) (A)
                 (A) (A) (A) (A) (A) (A) (A) (A) (A) (A)
       Virtual   (A) (A) (A) (A) (A) (A) (A) (A) (A) (A) (A) (A)
                 (A) (A) (A) (A) (A) (A) (A) (A) (A) (A) (A) (A)
                 (A) (A) (A) (A) (A) (A) (A) (A) (A) (A) (A) (A)
                 (A) (A) (A) (A) (A) (A) (A) (A) (A) (A) (A) (A)
                 (A) (A) (A) (A) (A) (A) (A) (A) (A) (A) (A) (A)
                 (A) (A) (A) (A) (A) (A) (A) (A) (A) (A) (A) (A)
                 (A) (A) (A) (A) (A) (A) (A) (A) (A) (A) (A) (A)
                 (A) (A) (A) (A) (A) (A) (A) (A) (A) (A) (A) (A)
                 (A) (A) (A) (A) (A) (A) (A) (A) (A) (A) (A) (A)
                 (A) (A) (A) (A) (A) (A) (A) (A) (A) (A) (A) (A)
                 (A) (A) (A) (A) (A) (A) (A) (A) (A) (A) (A) (A)
                 (A) (A) (A) (A) (A) (A) (A) (A) (A) (A) (A) (A)
                 (A) (A) (A) (A) (A) (A) (A) (A) (A) (A) (A) (A)
                 (A) (A) (A) (A) (A) (A) (A) (A) (A) (A) (A) (A)
                 (A) (A) (A) (A) (A) (A) (A) (A) (A) (A) (A) (A)
                 (A) (A) (A) (A) (A) (A) (A) (A) (A) (A) (A) (A)
                 (A) (A) (A) (A) (A) (A) (A) (A) (A) (A) (A) (A)
                 (A) (A) (A) (A) (A) (A) (A) (A) (A) (A) (A) (A)
                 (A) (A) (A) (A) (A) (A) (A) (A) (A) (A) (A) (A)
                 (A) (A) (A) (A) (A) (A) (A) (A) (A) (A) (A) (A)
                 (A) (A) (A) (A) (A) (A) (A) (A) (A) (A) (A) (A)
                 (A) (A) (A) (A) (A) (A) (A) (A) (A) (A) (A) (A)
                 (A) (A) (A) (A) (A) (A) (A) (A) (A) (A) (A) (A)
                 (A) (A) (A) (A) (A) (A) (A) (A) (A) (A) (A) (A)
                 (A) (A) (A) (A) (A) (A) (A) (A) (A) (A) (A) (A)
                 (A) (A) (A) (A) (A) (A) (A) (A) (A) (A) (A) (A)
                 (A) (A) (A) (A) (A) (A) (A) (A) (A) (A) (A) (A)
                 (A) (A) (A) (A) (A) (A) (A) (A) (A) (A) (A) (A)
                 (A) (A) (A) (A) (A) (A) (A) (A) (A) (A) (A) (A)
                 (A) (A) (A) (A) (A) (A) (A) (A) (A) (A) (A) (A)
                 (A) (A) (A) (A) (A) (A) (A) (A) (A) (A) (A) (A)
                 (A) (A) (A) (A) (A) (A) (A) (A) (A) (A) (A) (A)
                 (A) (A) (A) (A) (A) (A) (A) (A) (A) (A) (A) (A)
                 (A) (A) (A) (A) (A) (A) (A) (A) (A) (A) (A) (A)
                 (A) (A) (A) (A) (A) (A) (A) (A) (A) (A) (A) (A)
                 (A) (A) (A) (A) (A) (A) (A) (A) (A) (A) (A) (A)
                 (A) (A) (A) (A) (A) (A) (A) (A) (A) (A) (A) (A)
                 (A) (A) (A) (A) (A) (A) (A) (A) (A) (A) (A) (A)
                 (A) (A) (A) (A) (A) (A) (A) (A) (A) (A) (A) (A)
                 (A) (A) (A) (A) (A) (A) (A) (A) (A) (A) (A) (A)
                 (A) (A) (A) (A) (A) (A) (A) (A) (A) (A) (A) (A)
                 (A) (A) (A) (A) (A) (A) (A) (A) (A) (A) (A) (A)
                 (A) (A) (A) (A) (A) (A) (A) (A) (A) (A) (A) (A)
                 (A) (A) (A) (A) (A) (A) (A) (A) (A) (A) (A) (A)
                 (A) (A) (A) (A) (A) (A) (A) (A) (A) (A) (A) (A)
                 (A) (A) (A) (A) (A) (A) (A) (A) (A) (A) (A) (A)
                 (A) (A) (A) (A) (A) (A) (A) (A) (A) (A) (A) (A)
                 (A) (A) (A) (A) (A) (A) (A) (A) (A) (A) (A) (A)
                 (A) (A) (A) (A) (A) (A) (A)
 The electronic state is 1-A.
 Alpha  occ. eigenvalues --  -19.25546 -19.22242 -19.20784 -14.52405 -14.51988
 Alpha  occ. eigenvalues --  -14.49105 -14.48588 -14.47651 -14.47494 -14.47020
 Alpha  occ. eigenvalues --  -14.46816 -14.45346 -14.44265 -14.44225 -14.42162
 Alpha  occ. eigenvalues --  -14.42159 -14.41217 -14.40949 -14.40935 -14.40365
 Alpha  occ. eigenvalues --  -10.45109 -10.41394 -10.40212 -10.39604 -10.38415
 Alpha  occ. eigenvalues --  -10.37897 -10.37097 -10.36935 -10.35691 -10.35394
 Alpha  occ. eigenvalues --  -10.34987 -10.34606 -10.33865 -10.33737 -10.33713
 Alpha  occ. eigenvalues --  -10.33255 -10.33119 -10.32570 -10.31251 -10.31158
 Alpha  occ. eigenvalues --  -10.30844 -10.28373 -10.28369  -1.19128  -1.15140
 Alpha  occ. eigenvalues --   -1.13381  -1.13249  -1.11124  -1.10855  -1.09202
 Alpha  occ. eigenvalues --   -1.08924  -1.08715  -1.05034  -1.04641  -1.02359
 Alpha  occ. eigenvalues --   -1.00862  -1.00364  -0.99899  -0.98730  -0.96900
 Alpha  occ. eigenvalues --   -0.96830  -0.96615  -0.92701  -0.90690  -0.87529
 Alpha  occ. eigenvalues --   -0.85816  -0.84395  -0.83848  -0.83389  -0.82796
 Alpha  occ. eigenvalues --   -0.82282  -0.78535  -0.76892  -0.74871  -0.74726
 Alpha  occ. eigenvalues --   -0.73799  -0.73163  -0.72807  -0.70985  -0.70226
 Alpha  occ. eigenvalues --   -0.67587  -0.66733  -0.66240  -0.66157  -0.64539
 Alpha  occ. eigenvalues --   -0.64068  -0.63765  -0.62770  -0.62632  -0.61973
 Alpha  occ. eigenvalues --   -0.60727  -0.60394  -0.60235  -0.59358  -0.59097
 Alpha  occ. eigenvalues --   -0.58860  -0.58534  -0.57203  -0.56515  -0.56185
 Alpha  occ. eigenvalues --   -0.55892  -0.55436  -0.55131  -0.54455  -0.54234
 Alpha  occ. eigenvalues --   -0.53787  -0.53747  -0.53515  -0.53242  -0.53141
 Alpha  occ. eigenvalues --   -0.52679  -0.52211  -0.51749  -0.50745  -0.50405
 Alpha  occ. eigenvalues --   -0.50263  -0.49845  -0.49615  -0.49233  -0.49033
 Alpha  occ. eigenvalues --   -0.48816  -0.48619  -0.47985  -0.47876  -0.47458
 Alpha  occ. eigenvalues --   -0.46900  -0.46092  -0.45101  -0.44738  -0.42863
 Alpha  occ. eigenvalues --   -0.41006  -0.40605  -0.39227  -0.38066  -0.37454
 Alpha  occ. eigenvalues --   -0.37395  -0.37341  -0.36984  -0.36104  -0.34468
 Alpha  occ. eigenvalues --   -0.34365  -0.33915  -0.33474  -0.33460  -0.33298
 Alpha  occ. eigenvalues --   -0.32893  -0.32455  -0.31929  -0.31799  -0.30844
 Alpha  occ. eigenvalues --   -0.30402  -0.29443  -0.26236  -0.25129
 Alpha virt. eigenvalues --    0.03474   0.04107   0.07320   0.07824   0.08481
 Alpha virt. eigenvalues --    0.09056   0.09552   0.10475   0.11082   0.11991
 Alpha virt. eigenvalues --    0.13062   0.13115   0.14269   0.14565   0.14835
 Alpha virt. eigenvalues --    0.15537   0.16205   0.17137   0.18115   0.18373
 Alpha virt. eigenvalues --    0.18584   0.19129   0.19701   0.20106   0.20508
 Alpha virt. eigenvalues --    0.20646   0.21226   0.21553   0.21627   0.22041
 Alpha virt. eigenvalues --    0.22542   0.22986   0.23132   0.23403   0.23675
 Alpha virt. eigenvalues --    0.24088   0.24136   0.24507   0.24947   0.25403
 Alpha virt. eigenvalues --    0.26202   0.26898   0.27534   0.27558   0.27569
 Alpha virt. eigenvalues --    0.28856   0.29079   0.29437   0.30150   0.30682
 Alpha virt. eigenvalues --    0.31073   0.31587   0.32380   0.32990   0.33317
 Alpha virt. eigenvalues --    0.34064   0.34350   0.35410   0.35806   0.36268
 Alpha virt. eigenvalues --    0.36347   0.36976   0.37736   0.38399   0.38679
 Alpha virt. eigenvalues --    0.39443   0.40144   0.40991   0.41360   0.42056
 Alpha virt. eigenvalues --    0.42156   0.42430   0.43221   0.43848   0.44526
 Alpha virt. eigenvalues --    0.44784   0.45651   0.45974   0.46422   0.46629
 Alpha virt. eigenvalues --    0.46828   0.47546   0.47771   0.48421   0.49003
 Alpha virt. eigenvalues --    0.49618   0.50198   0.50593   0.51011   0.51390
 Alpha virt. eigenvalues --    0.51780   0.51929   0.52527   0.52897   0.52991
 Alpha virt. eigenvalues --    0.53676   0.54074   0.54440   0.54786   0.55403
 Alpha virt. eigenvalues --    0.55556   0.55880   0.56105   0.57029   0.57653
 Alpha virt. eigenvalues --    0.57791   0.58372   0.58515   0.59235   0.59404
 Alpha virt. eigenvalues --    0.59967   0.60488   0.60662   0.60929   0.61555
 Alpha virt. eigenvalues --    0.61806   0.62196   0.62560   0.62647   0.63123
 Alpha virt. eigenvalues --    0.63620   0.64097   0.64264   0.65284   0.65468
 Alpha virt. eigenvalues --    0.65894   0.66018   0.66892   0.67196   0.67765
 Alpha virt. eigenvalues --    0.67885   0.68717   0.68879   0.69236   0.70210
 Alpha virt. eigenvalues --    0.70493   0.70919   0.71527   0.71690   0.71971
 Alpha virt. eigenvalues --    0.72190   0.72287   0.72893   0.73556   0.73801
 Alpha virt. eigenvalues --    0.74114   0.74648   0.75408   0.75456   0.75687
 Alpha virt. eigenvalues --    0.75847   0.76336   0.76481   0.76532   0.77210
 Alpha virt. eigenvalues --    0.77748   0.77913   0.78290   0.78630   0.78765
 Alpha virt. eigenvalues --    0.79348   0.79733   0.80557   0.80651   0.81365
 Alpha virt. eigenvalues --    0.81787   0.82072   0.82262   0.82609   0.82838
 Alpha virt. eigenvalues --    0.83577   0.84365   0.84494   0.84899   0.85445
 Alpha virt. eigenvalues --    0.85531   0.85981   0.86523   0.86849   0.87195
 Alpha virt. eigenvalues --    0.87618   0.88101   0.88922   0.89394   0.89899
 Alpha virt. eigenvalues --    0.90080   0.90472   0.90966   0.91151   0.91958
 Alpha virt. eigenvalues --    0.92370   0.92757   0.93581   0.93850   0.94200
 Alpha virt. eigenvalues --    0.94760   0.95003   0.96129   0.96321   0.96637
 Alpha virt. eigenvalues --    0.96878   0.97480   0.97674   0.97935   0.98595
 Alpha virt. eigenvalues --    0.98920   0.99177   0.99466   1.00472   1.00571
 Alpha virt. eigenvalues --    1.01529   1.01819   1.02435   1.02905   1.02986
 Alpha virt. eigenvalues --    1.03356   1.04370   1.04476   1.05056   1.05769
 Alpha virt. eigenvalues --    1.05947   1.06576   1.06945   1.07169   1.07547
 Alpha virt. eigenvalues --    1.08315   1.08967   1.09147   1.10438   1.10959
 Alpha virt. eigenvalues --    1.11130   1.11740   1.12511   1.12990   1.13778
 Alpha virt. eigenvalues --    1.14275   1.14909   1.15140   1.15562   1.15833
 Alpha virt. eigenvalues --    1.16189   1.16273   1.17062   1.17593   1.17997
 Alpha virt. eigenvalues --    1.18377   1.18636   1.18799   1.19459   1.19619
 Alpha virt. eigenvalues --    1.20117   1.20517   1.20816   1.21298   1.21748
 Alpha virt. eigenvalues --    1.22486   1.22536   1.22815   1.23087   1.23633
 Alpha virt. eigenvalues --    1.23834   1.24320   1.24578   1.24733   1.25081
 Alpha virt. eigenvalues --    1.26400   1.26632   1.27823   1.28032   1.28303
 Alpha virt. eigenvalues --    1.29256   1.29835   1.30093   1.30129   1.30868
 Alpha virt. eigenvalues --    1.31698   1.32469   1.33108   1.34140   1.34345
 Alpha virt. eigenvalues --    1.34797   1.35200   1.35852   1.36564   1.36768
 Alpha virt. eigenvalues --    1.37808   1.38687   1.39624   1.39832   1.40624
 Alpha virt. eigenvalues --    1.41044   1.41948   1.42172   1.42995   1.43816
 Alpha virt. eigenvalues --    1.45406   1.46219   1.46574   1.46920   1.47507
 Alpha virt. eigenvalues --    1.48327   1.49230   1.49584   1.50411   1.50579
 Alpha virt. eigenvalues --    1.51312   1.52713   1.53424   1.53530   1.54087
 Alpha virt. eigenvalues --    1.55791   1.56043   1.56085   1.56776   1.57253
 Alpha virt. eigenvalues --    1.58098   1.58587   1.59098   1.60102   1.60509
 Alpha virt. eigenvalues --    1.61421   1.62079   1.62362   1.62638   1.63337
 Alpha virt. eigenvalues --    1.63781   1.64522   1.64914   1.65856   1.66442
 Alpha virt. eigenvalues --    1.67028   1.68208   1.68294   1.68906   1.69706
 Alpha virt. eigenvalues --    1.70314   1.70467   1.70753   1.71158   1.71359
 Alpha virt. eigenvalues --    1.72335   1.72446   1.73203   1.73393   1.73586
 Alpha virt. eigenvalues --    1.74336   1.74600   1.75137   1.75649   1.75805
 Alpha virt. eigenvalues --    1.76314   1.76751   1.77010   1.77276   1.77724
 Alpha virt. eigenvalues --    1.77771   1.77928   1.78468   1.78721   1.78995
 Alpha virt. eigenvalues --    1.79250   1.79567   1.80109   1.80308   1.80888
 Alpha virt. eigenvalues --    1.81043   1.81286   1.81594   1.82137   1.82496
 Alpha virt. eigenvalues --    1.83748   1.83773   1.84344   1.84426   1.84982
 Alpha virt. eigenvalues --    1.85188   1.86031   1.86054   1.86514   1.87336
 Alpha virt. eigenvalues --    1.87727   1.88739   1.89232   1.89725   1.90024
 Alpha virt. eigenvalues --    1.90302   1.90458   1.91445   1.91996   1.92126
 Alpha virt. eigenvalues --    1.92611   1.93159   1.93627   1.93843   1.94559
 Alpha virt. eigenvalues --    1.95153   1.96407   1.96601   1.97100   1.98230
 Alpha virt. eigenvalues --    1.98779   1.99069   2.00036   2.01080   2.01358
 Alpha virt. eigenvalues --    2.02206   2.02313   2.02891   2.03698   2.04446
 Alpha virt. eigenvalues --    2.05203   2.05817   2.06341   2.07081   2.07490
 Alpha virt. eigenvalues --    2.07849   2.09025   2.09716   2.10098   2.10264
 Alpha virt. eigenvalues --    2.10775   2.11143   2.12176   2.12836   2.14205
 Alpha virt. eigenvalues --    2.15543   2.15611   2.17331   2.17560   2.18044
 Alpha virt. eigenvalues --    2.18877   2.19731   2.20429   2.21178   2.21887
 Alpha virt. eigenvalues --    2.22346   2.22377   2.22729   2.23654   2.24652
 Alpha virt. eigenvalues --    2.24918   2.25552   2.25819   2.26135   2.27063
 Alpha virt. eigenvalues --    2.27161   2.28239   2.28955   2.29681   2.30003
 Alpha virt. eigenvalues --    2.30367   2.30740   2.31161   2.31674   2.32379
 Alpha virt. eigenvalues --    2.32673   2.33357   2.33604   2.33705   2.34104
 Alpha virt. eigenvalues --    2.34430   2.35707   2.35845   2.36995   2.37331
 Alpha virt. eigenvalues --    2.38192   2.39331   2.40368   2.41070   2.41407
 Alpha virt. eigenvalues --    2.42013   2.42485   2.43570   2.43845   2.44310
 Alpha virt. eigenvalues --    2.45081   2.45405   2.46138   2.46916   2.47329
 Alpha virt. eigenvalues --    2.47627   2.49395   2.50497   2.50518   2.51381
 Alpha virt. eigenvalues --    2.52219   2.53886   2.54485   2.55441   2.55862
 Alpha virt. eigenvalues --    2.56838   2.57375   2.58467   2.59794   2.60563
 Alpha virt. eigenvalues --    2.61303   2.62278   2.62356   2.63232   2.64064
 Alpha virt. eigenvalues --    2.64746   2.65016   2.65198   2.65786   2.66285
 Alpha virt. eigenvalues --    2.67332   2.67568   2.68155   2.68534   2.68726
 Alpha virt. eigenvalues --    2.69279   2.70576   2.70803   2.71810   2.72349
 Alpha virt. eigenvalues --    2.73534   2.74837   2.75523   2.76054   2.76615
 Alpha virt. eigenvalues --    2.77084   2.78461   2.79072   2.79237   2.79616
 Alpha virt. eigenvalues --    2.79875   2.80043   2.80367   2.81347   2.81715
 Alpha virt. eigenvalues --    2.82060   2.82345   2.83253   2.83430   2.84325
 Alpha virt. eigenvalues --    2.84804   2.84920   2.86293   2.86431   2.86561
 Alpha virt. eigenvalues --    2.87249   2.88213   2.88991   2.92128   2.93490
 Alpha virt. eigenvalues --    2.94435   2.95436   2.96478   2.97441   2.99575
 Alpha virt. eigenvalues --    3.00090   3.01086   3.01649   3.04435   3.05542
 Alpha virt. eigenvalues --    3.06654   3.09626   3.10601   3.12960   3.14709
 Alpha virt. eigenvalues --    3.15603   3.15831   3.16792   3.17917   3.21080
 Alpha virt. eigenvalues --    3.21720   3.22897   3.23944   3.24335   3.26780
 Alpha virt. eigenvalues --    3.45093   3.47108   3.47637   3.49633   3.50501
 Alpha virt. eigenvalues --    3.53146   3.54728   3.56007   3.57570   3.59874
 Alpha virt. eigenvalues --    3.62917   3.70929   3.75460
          Condensed to atoms (all electrons):
 Mulliken charges:
               1
     1  N   -0.305811
     2  C    0.180546
     3  C    0.055026
     4  N   -0.243438
     5  C    0.137660
     6  H    0.023876
     7  N   -0.295031
     8  C    0.133508
     9  H    0.010238
    10  N   -0.287986
    11  C    0.235320
    12  C    0.085315
    13  N   -0.044506
    14  H    0.116513
    15  H    0.084805
    16  H    0.026746
    17  H    0.033566
    18  H    0.015104
    19  N   -0.308626
    20  C    0.261196
    21  C    0.182443
    22  N   -0.124786
    23  H    0.118215
    24  H    0.119075
    25  N   -0.311752
    26  C    0.250334
    27  N   -0.147078
    28  H    0.119817
    29  C    0.190881
    30  O   -0.323108
    31  C   -0.017888
    32  N   -0.215099
    33  C    0.116431
    34  H    0.020163
    35  H    0.023354
    36  H    0.031870
    37  H    0.024708
    38  H    0.050196
    39  H    0.059071
    40  H    0.075221
    41  H    0.017483
    42  C   -0.102266
    43  O   -0.278405
    44  C    0.160969
    45  H    0.128534
    46  N   -0.104422
    47  O   -0.350708
    48  C    0.338015
    49  H    0.044037
    50  C    0.169912
    51  C    0.045540
    52  N   -0.279096
    53  H    0.034873
    54  H    0.042543
    55  H    0.024762
    56  H    0.126751
    57  H    0.114673
    58  N   -0.044235
    59  C    0.076429
    60  C    0.228069
    61  N   -0.265704
    62  H    0.031293
    63  C    0.162160
    64  N   -0.300136
    65  H    0.036141
    66  C    0.126515
    67  N   -0.256769
    68  C    0.043086
    69  C    0.180304
    70  N   -0.306438
 Sum of Mulliken charges =  -0.00000
 Mulliken charges with hydrogens summed into heavy atoms:
               1
     1  N   -0.305811
     2  C    0.255962
     3  C    0.055026
     4  N   -0.243438
     5  C    0.161536
     7  N   -0.295031
     8  C    0.143746
    10  N   -0.287986
    11  C    0.235320
    12  C    0.085315
    13  N    0.156813
    19  N   -0.308626
    20  C    0.261196
    21  C    0.262375
    22  N    0.112504
    25  N   -0.311752
    26  C    0.250334
    27  N   -0.027261
    29  C    0.190881
    30  O   -0.323108
    31  C   -0.017888
    32  N   -0.215099
    33  C    0.136594
    42  C   -0.084783
    43  O   -0.278405
    44  C    0.160969
    46  N    0.024111
    47  O   -0.350708
    48  C    0.338015
    50  C    0.213950
    51  C    0.230028
    52  N   -0.279096
    58  N    0.197189
    59  C    0.076429
    60  C    0.228069
    61  N   -0.265704
    63  C    0.193454
    64  N   -0.300136
    66  C    0.162656
    67  N   -0.256769
    68  C    0.043086
    69  C    0.282482
    70  N   -0.306438
 Electronic spatial extent (au):  <R**2>=          22438.5131
 Charge=              0.0000 electrons
 Dipole moment (field-independent basis, Debye):
    X=              5.8090    Y=              5.8023    Z=              5.0622  Tot=              9.6456
 Quadrupole moment (field-independent basis, Debye-Ang):
   XX=           -147.9175   YY=           -226.3645   ZZ=           -255.8494
   XY=              8.2001   XZ=              1.3615   YZ=              7.7552
 Traceless Quadrupole moment (field-independent basis, Debye-Ang):
   XX=             62.1263   YY=            -16.3207   ZZ=            -45.8056
   XY=              8.2001   XZ=              1.3615   YZ=              7.7552
 Octapole moment (field-independent basis, Debye-Ang**2):
  XXX=            -97.8370  YYY=             56.6090  ZZZ=             77.3692  XYY=             11.9570
  XXY=             76.2187  XXZ=             85.6356  XZZ=            106.3677  YZZ=             48.2153
  YYZ=             16.2912  XYZ=             31.6373
 Hexadecapole moment (field-independent basis, Debye-Ang**3):
 XXXX=         -16297.8198 YYYY=          -4393.5333 ZZZZ=          -4001.2411 XXXY=            558.8481
 XXXZ=            348.9200 YYYX=            -47.4419 YYYZ=            220.0875 ZZZX=            223.2910
 ZZZY=             47.3332 XXYY=          -3883.9439 XXZZ=          -3781.4662 YYZZ=          -1375.7696
 XXYZ=            148.6354 YYXZ=            -89.3161 ZZXY=             39.9736
 N-N= 5.523553183136D+03 E-N=-1.582770821717D+04  KE= 2.037779724274D+03
 No NMR shielding tensors so no spin-rotation constants.
 Leave Link  601 at Fri Jan 19 19:47:17 2018, MaxMem=  4294967296 cpu:              47.9 elap:               1.7
 (Enter /share/apps/g16/l9999.exe)
 1\1\GINC-COMPUTE-0-3\SP\RwB97XD\CC-pVDZ\C23H27N17O3\SATYA\19-Jan-2018\
 0\\#p wb97xd/cc-pvdz sp scf=(maxcycles=20)\\Base pair stacking\\0,1\N,
 0,3.61835,3.08487,-5.97116\C,0,3.71984,4.51654,-6.3147\C,0,2.93765,0.9
 9941,-5.81357\N,0,4.1128,1.08051,-5.08065\C,0,4.47586,2.33368,-5.20492
 \H,0,5.3688,2.76806,-4.75446\N,0,0.9766,0.18998,-6.84414\C,0,0.80137,1
 .43046,-7.31113\H,0,-0.08714,1.57535,-7.92417\N,0,1.55536,2.51375,-7.1
 3537\C,0,2.62021,2.227,-6.36837\C,0,2.05758,-0.06633,-6.07546\N,0,2.23
 423,-1.30399,-5.60836\H,0,3.02026,-1.53901,-5.03552\H,0,1.58726,-2.038
 08,-5.81498\H,0,4.57182,4.6819,-6.81166\H,0,2.94427,4.7782,-6.88842\H,
 0,3.71265,5.06364,-5.47767\N,0,0.63844,3.93992,-3.38769\C,0,-0.07958,2
 .77579,-3.51912\C,0,0.12977,5.29457,-3.68245\N,0,-3.02716,1.13735,-4.3
 4923\H,0,-3.36648,0.19744,-4.37527\H,0,-3.6634,1.8573,-4.62775\N,0,-1.
 36014,2.67465,-3.93626\C,0,-1.77535,1.42057,-3.95851\N,0,-0.99758,0.34
 628,-3.60007\H,0,-1.39848,-0.57781,-3.64809\C,0,0.32249,0.42687,-3.167
 87\O,0,0.93633,-0.60464,-2.86799\C,0,0.78255,1.7679,-3.13873\N,0,2.016
 99,2.28881,-2.77579\C,0,1.88495,3.57728,-2.93898\H,0,2.66822,4.31113,-
 2.74602\H,0,0.68679,5.71298,-4.39902\H,0,-0.81804,5.23227,-3.99236\H,0
 ,0.17307,5.85569,-2.85657\H,0,-3.76589,-4.94841,-4.71855\H,0,-4.09611,
 -4.95264,-2.98777\H,0,-3.97251,-3.42296,-3.85735\H,0,0.48365,-6.4263,-
 3.01449\C,0,-0.08668,-5.50348,-3.12105\O,0,1.78353,-4.0894,-2.76078\C,
 0,0.58453,-4.24645,-2.98993\H,0,0.20929,-2.23571,-3.05661\N,0,-0.22908
 ,-3.1419,-3.14246\O,0,-2.21367,-2.10405,-3.51857\C,0,-1.57718,-3.13623
 ,-3.39965\H,0,-1.95804,-6.45988,-3.48042\C,0,-1.40083,-5.53032,-3.3718
 5\C,0,-3.59122,-4.43083,-3.78706\N,0,-2.15234,-4.38671,-3.51243\H,0,-4
 .38796,-5.23053,-8.97061\H,0,-4.32561,-3.8467,-8.1085\H,0,-5.08137,-5.
 1569,-7.49508\H,0,1.9404,-4.93391,-5.10674\H,0,1.11729,-6.39488,-5.420
 05\N,0,1.12876,-5.39535,-5.46514\C,0,0.10658,-4.70925,-5.98051\C,0,-2.
 03059,-4.46599,-6.99789\N,0,-1.9877,-3.12423,-7.04549\H,0,-0.72739,-1.
 59235,-6.53014\C,0,-0.8448,-2.67516,-6.53067\N,0,0.1802,-3.36072,-6.01
 4\H,0,-3.2494,-7.43034,-7.42138\C,0,-2.62978,-6.56802,-7.17353\N,0,-1.
 44675,-6.6367,-6.61369\C,0,-1.05558,-5.3108,-6.49669\C,0,-4.31117,-4.8
 4452,-8.05132\N,0,-3.04522,-5.28489,-7.43371\\Version=EM64L-G16RevA.03
 \State=1-A\HF=-2048.74262\RMSD=7.070e-09\Dipole=-3.5556736,-0.8023937,
 -1.0555943\Quadrupole=2.9410625,31.2597098,-34.2007723,25.7671254,-1.3
 05213,6.9470136\PG=C01 [X(C23H27N17O3)]\\@


 TRUTH, IN SCIENCE, CAN BE DEFINED AS THE WORKING HYPOTHESIS 
 BEST FITTED TO OPEN THE WAY TO THE NEXT BETTER ONE.

                              -- KONRAD LORENZ
 Job cpu time:       0 days  5 hours 56 minutes  7.6 seconds.
 Elapsed time:       0 days  0 hours 11 minutes 30.9 seconds.
 File lengths (MBytes):  RWF=    298 Int=      0 D2E=      0 Chk=     33 Scr=      1
 Normal termination of Gaussian 16 at Fri Jan 19 19:47:18 2018.
