 Entering Gaussian System, Link 0=g16
 Input=str20.-15.0.5.com
 Output=str20.-15.0.5.log
 Initial command:
 /share/apps/g16/l1.exe "/state/partition1/scr/Gau-19582.inp" -scrdir="/state/partition1/scr/"
 Entering Link 1 = /share/apps/g16/l1.exe PID=     19583.
  
 Copyright (c) 1988,1990,1992,1993,1995,1998,2003,2009,2016,
            Gaussian, Inc.  All Rights Reserved.
  
 This is part of the Gaussian(R) 16 program.  It is based on
 the Gaussian(R) 09 system (copyright 2009, Gaussian, Inc.),
 the Gaussian(R) 03 system (copyright 2003, Gaussian, Inc.),
 the Gaussian(R) 98 system (copyright 1998, Gaussian, Inc.),
 the Gaussian(R) 94 system (copyright 1995, Gaussian, Inc.),
 the Gaussian 92(TM) system (copyright 1992, Gaussian, Inc.),
 the Gaussian 90(TM) system (copyright 1990, Gaussian, Inc.),
 the Gaussian 88(TM) system (copyright 1988, Gaussian, Inc.),
 the Gaussian 86(TM) system (copyright 1986, Carnegie Mellon
 University), and the Gaussian 82(TM) system (copyright 1983,
 Carnegie Mellon University). Gaussian is a federally registered
 trademark of Gaussian, Inc.
  
 This software contains proprietary and confidential information,
 including trade secrets, belonging to Gaussian, Inc.
  
 This software is provided under written license and may be
 used, copied, transmitted, or stored only in accord with that
 written license.
  
 The following legend is applicable only to US Government
 contracts under FAR:
  
                    RESTRICTED RIGHTS LEGEND
  
 Use, reproduction and disclosure by the US Government is
 subject to restrictions as set forth in subparagraphs (a)
 and (c) of the Commercial Computer Software - Restricted
 Rights clause in FAR 52.227-19.
  
 Gaussian, Inc.
 340 Quinnipiac St., Bldg. 40, Wallingford CT 06492
  
  
 ---------------------------------------------------------------
 Warning -- This program may not be used in any manner that
 competes with the business of Gaussian, Inc. or will provide
 assistance to any competitor of Gaussian, Inc.  The licensee
 of this program is prohibited from giving any competitor of
 Gaussian, Inc. access to this program.  By using this program,
 the user acknowledges that Gaussian, Inc. is engaged in the
 business of creating and licensing software in the field of
 computational chemistry and represents and warrants to the
 licensee that it is not a competitor of Gaussian, Inc. and that
 it will not use this program in any manner prohibited above.
 ---------------------------------------------------------------
  

 Cite this work as:
 Gaussian 16, Revision A.03,
 M. J. Frisch, G. W. Trucks, H. B. Schlegel, G. E. Scuseria, 
 M. A. Robb, J. R. Cheeseman, G. Scalmani, V. Barone, 
 G. A. Petersson, H. Nakatsuji, X. Li, M. Caricato, A. V. Marenich, 
 J. Bloino, B. G. Janesko, R. Gomperts, B. Mennucci, H. P. Hratchian, 
 J. V. Ortiz, A. F. Izmaylov, J. L. Sonnenberg, D. Williams-Young, 
 F. Ding, F. Lipparini, F. Egidi, J. Goings, B. Peng, A. Petrone, 
 T. Henderson, D. Ranasinghe, V. G. Zakrzewski, J. Gao, N. Rega, 
 G. Zheng, W. Liang, M. Hada, M. Ehara, K. Toyota, R. Fukuda, 
 J. Hasegawa, M. Ishida, T. Nakajima, Y. Honda, O. Kitao, H. Nakai, 
 T. Vreven, K. Throssell, J. A. Montgomery, Jr., J. E. Peralta, 
 F. Ogliaro, M. J. Bearpark, J. J. Heyd, E. N. Brothers, K. N. Kudin, 
 V. N. Staroverov, T. A. Keith, R. Kobayashi, J. Normand, 
 K. Raghavachari, A. P. Rendell, J. C. Burant, S. S. Iyengar, 
 J. Tomasi, M. Cossi, J. M. Millam, M. Klene, C. Adamo, R. Cammi, 
 J. W. Ochterski, R. L. Martin, K. Morokuma, O. Farkas, 
 J. B. Foresman, and D. J. Fox, Gaussian, Inc., Wallingford CT, 2016.
 
 ******************************************
 Gaussian 16:  EM64L-G16RevA.03 25-Dec-2016
                19-Jan-2018 
 ******************************************
 %nprocshared=32
 Will use up to   32 processors via shared memory.
 %mem=32GB
 %chk=allatoms_t.chk
 ---------------------------------------
 #p wb97xd/cc-pvdz sp scf=(maxcycles=20)
 ---------------------------------------
 1/38=1,172=1/1;
 2/12=2,17=6,18=5,40=1/2;
 3/5=16,11=2,25=1,30=1,74=-58/1,2,3;
 4//1;
 5/5=2,7=20,38=5/2;
 6/7=2,8=2,9=2,10=2,28=1/1;
 99/5=1,9=1/99;
 Leave Link    1 at Fri Jan 19 18:22:03 2018, MaxMem=  4294967296 cpu:               2.7 elap:               0.1
 (Enter /share/apps/g16/l101.exe)
 ------------------
 Base pair stacking
 ------------------
 Symbolic Z-matrix:
 Charge =  0 Multiplicity = 1
 N                     0.65838   4.6149   -6.47561 
 C                     0.66642   6.08152  -6.31134 
 C                     0.06198   2.49792  -6.47145 
 N                     1.34554   2.53848  -6.99638 
 C                     1.65348   3.81226  -6.97787 
 H                     2.6019    4.22589  -7.32189 
 N                    -2.03134   1.73796  -5.69466 
 C                    -2.31313   3.01829  -5.43211 
 H                    -3.2985    3.19939  -5.00489 
 N                    -1.56399   4.10338  -5.61719 
 C                    -0.37491   3.77018  -6.14584 
 C                    -0.82676   1.43542  -6.2262 
 N                    -0.54362   0.15794  -6.48899 
 H                     0.3358   -0.112    -6.88265 
 H                    -1.20053  -0.57243  -6.30143 
 H                     0.79502   6.51738  -7.20222 
 H                    -0.20344   6.37844  -5.91854 
 H                     1.41335   6.34662  -5.70158 
 N                    -0.15424   4.43763  -3.09182 
 C                    -0.87162   3.27337  -2.95791 
 C                    -0.71151   5.80091  -2.98412 
 N                    -3.88723   1.64703  -2.38971 
 H                    -4.21748   0.70551  -2.32873 
 H                    -4.56233   2.3739   -2.26074 
 N                    -2.19548   3.17994  -2.70746 
 C                    -2.59724   1.92347  -2.63345 
 N                    -1.76761   0.83995  -2.79225 
 H                    -2.16198  -0.0853   -2.7191 
 C                    -0.40237   0.91251  -3.05057 
 O                     0.25653  -0.12701  -3.17698 
 C                     0.04388   2.256    -3.13286 
 N                     1.31053   2.77118  -3.3718 
 C                     1.1448    4.06564  -3.33832 
 H                     1.93943   4.79747  -3.48756 
 H                    -0.56345   6.29204  -3.84184 
 H                    -1.69165   5.74436  -2.79868 
 H                    -0.25991   6.28944  -2.23832 
 H                    -4.8487   -4.39912  -2.87776 
 H                    -4.29663  -4.56023  -1.21225 
 H                    -4.57669  -2.95877  -1.89655 
 H                    -0.34082  -5.92295  -3.58736 
 C                    -0.87023  -5.0074   -3.32331 
 O                     0.97071  -3.58812  -3.79624 
 C                    -0.19182  -3.75165  -3.42671 
 H                    -0.50699  -1.7516   -3.12878 
 N                    -0.95207  -2.65659  -3.06879 
 O                    -2.84564  -1.63493  -2.34229 
 C                    -2.25486  -2.65898  -2.63718 
 H                    -2.70147  -5.97093  -2.80951 
 C                    -2.14098  -5.04195  -2.90543 
 C                    -4.23199  -3.96014  -2.10767 
 N                    -2.84029  -3.90763  -2.56391 
 H                    -7.7038   -3.56741  -4.15889 
 H                    -6.76642  -2.5108   -3.34221 
 H                    -6.92363  -4.04482  -2.80729 
 H                    -0.87943  -3.45628  -7.07113 
 H                    -1.83709  -4.86693  -7.01597 
 N                    -1.71121  -3.9102   -6.75135 
 C                    -2.61307  -3.26908  -6.00517 
 C                    -4.63563  -3.06868  -4.7679 
 N                    -4.44025  -1.78394  -4.42776 
 H                    -3.05497  -0.29879  -4.70332 
 C                    -3.29208  -1.33684  -4.93244 
 N                    -2.38744  -1.9774   -5.68003 
 H                    -6.14576  -5.92409  -4.90331 
 C                    -5.45214  -5.08945  -5.00921 
 N                    -4.32498  -5.13724  -5.67621 
 C                    -3.79726  -3.86239  -5.53125 
 C                    -6.86726  -3.46551  -3.62055 
 N                    -5.70325  -3.86776  -4.43375 
 
 ITRead=  0  0  0  0  0  0  0  0  0  0  0  0  0  0  0  0  0  0  0  0
 ITRead=  0  0  0  0  0  0  0  0  0  0  0  0  0  0  0  0  0  0  0  0
 ITRead=  0  0  0  0  0  0  0  0  0  0  0  0  0  0  0  0  0  0  0  0
 ITRead=  0  0  0  0  0  0  0  0  0  0
 MicOpt= -1 -1 -1 -1 -1 -1 -1 -1 -1 -1 -1 -1 -1 -1 -1 -1 -1 -1 -1 -1
 MicOpt= -1 -1 -1 -1 -1 -1 -1 -1 -1 -1 -1 -1 -1 -1 -1 -1 -1 -1 -1 -1
 MicOpt= -1 -1 -1 -1 -1 -1 -1 -1 -1 -1 -1 -1 -1 -1 -1 -1 -1 -1 -1 -1
 MicOpt= -1 -1 -1 -1 -1 -1 -1 -1 -1 -1
 NAtoms=     70 NQM=       70 NQMF=       0 NMMI=      0 NMMIF=      0
                NMic=       0 NMicF=      0.
                    Isotopes and Nuclear Properties:
 (Nuclear quadrupole moments (NQMom) in fm**2, nuclear magnetic moments (NMagM)
  in nuclear magnetons)

  Atom         1           2           3           4           5           6           7           8           9          10
 IAtWgt=          14          12          12          14          12           1          14          12           1          14
 AtmWgt=  14.0030740  12.0000000  12.0000000  14.0030740  12.0000000   1.0078250  14.0030740  12.0000000   1.0078250  14.0030740
 NucSpn=           2           0           0           2           0           1           2           0           1           2
 AtZEff=  -0.0000000  -0.0000000  -0.0000000  -0.0000000  -0.0000000  -0.0000000  -0.0000000  -0.0000000  -0.0000000  -0.0000000
 NQMom=    2.0440000   0.0000000   0.0000000   2.0440000   0.0000000   0.0000000   2.0440000   0.0000000   0.0000000   2.0440000
 NMagM=    0.4037610   0.0000000   0.0000000   0.4037610   0.0000000   2.7928460   0.4037610   0.0000000   2.7928460   0.4037610
 AtZNuc=   7.0000000   6.0000000   6.0000000   7.0000000   6.0000000   1.0000000   7.0000000   6.0000000   1.0000000   7.0000000

  Atom        11          12          13          14          15          16          17          18          19          20
 IAtWgt=          12          12          14           1           1           1           1           1          14          12
 AtmWgt=  12.0000000  12.0000000  14.0030740   1.0078250   1.0078250   1.0078250   1.0078250   1.0078250  14.0030740  12.0000000
 NucSpn=           0           0           2           1           1           1           1           1           2           0
 AtZEff=  -0.0000000  -0.0000000  -0.0000000  -0.0000000  -0.0000000  -0.0000000  -0.0000000  -0.0000000  -0.0000000  -0.0000000
 NQMom=    0.0000000   0.0000000   2.0440000   0.0000000   0.0000000   0.0000000   0.0000000   0.0000000   2.0440000   0.0000000
 NMagM=    0.0000000   0.0000000   0.4037610   2.7928460   2.7928460   2.7928460   2.7928460   2.7928460   0.4037610   0.0000000
 AtZNuc=   6.0000000   6.0000000   7.0000000   1.0000000   1.0000000   1.0000000   1.0000000   1.0000000   7.0000000   6.0000000

  Atom        21          22          23          24          25          26          27          28          29          30
 IAtWgt=          12          14           1           1          14          12          14           1          12          16
 AtmWgt=  12.0000000  14.0030740   1.0078250   1.0078250  14.0030740  12.0000000  14.0030740   1.0078250  12.0000000  15.9949146
 NucSpn=           0           2           1           1           2           0           2           1           0           0
 AtZEff=  -0.0000000  -0.0000000  -0.0000000  -0.0000000  -0.0000000  -0.0000000  -0.0000000  -0.0000000  -0.0000000  -0.0000000
 NQMom=    0.0000000   2.0440000   0.0000000   0.0000000   2.0440000   0.0000000   2.0440000   0.0000000   0.0000000   0.0000000
 NMagM=    0.0000000   0.4037610   2.7928460   2.7928460   0.4037610   0.0000000   0.4037610   2.7928460   0.0000000   0.0000000
 AtZNuc=   6.0000000   7.0000000   1.0000000   1.0000000   7.0000000   6.0000000   7.0000000   1.0000000   6.0000000   8.0000000

  Atom        31          32          33          34          35          36          37          38          39          40
 IAtWgt=          12          14          12           1           1           1           1           1           1           1
 AtmWgt=  12.0000000  14.0030740  12.0000000   1.0078250   1.0078250   1.0078250   1.0078250   1.0078250   1.0078250   1.0078250
 NucSpn=           0           2           0           1           1           1           1           1           1           1
 AtZEff=  -0.0000000  -0.0000000  -0.0000000  -0.0000000  -0.0000000  -0.0000000  -0.0000000  -0.0000000  -0.0000000  -0.0000000
 NQMom=    0.0000000   2.0440000   0.0000000   0.0000000   0.0000000   0.0000000   0.0000000   0.0000000   0.0000000   0.0000000
 NMagM=    0.0000000   0.4037610   0.0000000   2.7928460   2.7928460   2.7928460   2.7928460   2.7928460   2.7928460   2.7928460
 AtZNuc=   6.0000000   7.0000000   6.0000000   1.0000000   1.0000000   1.0000000   1.0000000   1.0000000   1.0000000   1.0000000

  Atom        41          42          43          44          45          46          47          48          49          50
 IAtWgt=           1          12          16          12           1          14          16          12           1          12
 AtmWgt=   1.0078250  12.0000000  15.9949146  12.0000000   1.0078250  14.0030740  15.9949146  12.0000000   1.0078250  12.0000000
 NucSpn=           1           0           0           0           1           2           0           0           1           0
 AtZEff=  -0.0000000  -0.0000000  -0.0000000  -0.0000000  -0.0000000  -0.0000000  -0.0000000  -0.0000000  -0.0000000  -0.0000000
 NQMom=    0.0000000   0.0000000   0.0000000   0.0000000   0.0000000   2.0440000   0.0000000   0.0000000   0.0000000   0.0000000
 NMagM=    2.7928460   0.0000000   0.0000000   0.0000000   2.7928460   0.4037610   0.0000000   0.0000000   2.7928460   0.0000000
 AtZNuc=   1.0000000   6.0000000   8.0000000   6.0000000   1.0000000   7.0000000   8.0000000   6.0000000   1.0000000   6.0000000

  Atom        51          52          53          54          55          56          57          58          59          60
 IAtWgt=          12          14           1           1           1           1           1          14          12          12
 AtmWgt=  12.0000000  14.0030740   1.0078250   1.0078250   1.0078250   1.0078250   1.0078250  14.0030740  12.0000000  12.0000000
 NucSpn=           0           2           1           1           1           1           1           2           0           0
 AtZEff=  -0.0000000  -0.0000000  -0.0000000  -0.0000000  -0.0000000  -0.0000000  -0.0000000  -0.0000000  -0.0000000  -0.0000000
 NQMom=    0.0000000   2.0440000   0.0000000   0.0000000   0.0000000   0.0000000   0.0000000   2.0440000   0.0000000   0.0000000
 NMagM=    0.0000000   0.4037610   2.7928460   2.7928460   2.7928460   2.7928460   2.7928460   0.4037610   0.0000000   0.0000000
 AtZNuc=   6.0000000   7.0000000   1.0000000   1.0000000   1.0000000   1.0000000   1.0000000   7.0000000   6.0000000   6.0000000

  Atom        61          62          63          64          65          66          67          68          69          70
 IAtWgt=          14           1          12          14           1          12          14          12          12          14
 AtmWgt=  14.0030740   1.0078250  12.0000000  14.0030740   1.0078250  12.0000000  14.0030740  12.0000000  12.0000000  14.0030740
 NucSpn=           2           1           0           2           1           0           2           0           0           2
 AtZEff=  -0.0000000  -0.0000000  -0.0000000  -0.0000000  -0.0000000  -0.0000000  -0.0000000  -0.0000000  -0.0000000  -0.0000000
 NQMom=    2.0440000   0.0000000   0.0000000   2.0440000   0.0000000   0.0000000   2.0440000   0.0000000   0.0000000   2.0440000
 NMagM=    0.4037610   2.7928460   0.0000000   0.4037610   2.7928460   0.0000000   0.4037610   0.0000000   0.0000000   0.4037610
 AtZNuc=   7.0000000   1.0000000   6.0000000   7.0000000   1.0000000   6.0000000   7.0000000   6.0000000   6.0000000   7.0000000
 Leave Link  101 at Fri Jan 19 18:22:03 2018, MaxMem=  4294967296 cpu:               7.8 elap:               0.3
 (Enter /share/apps/g16/l202.exe)
 Stoichiometry    C23H27N17O3
 Framework group  C1[X(C23H27N17O3)]
 Deg. of freedom   204
 Full point group                 C1      NOp   1
 Largest Abelian subgroup         C1      NOp   1
 Largest concise Abelian subgroup C1      NOp   1
                         Standard orientation:                         
 ---------------------------------------------------------------------
 Center     Atomic      Atomic             Coordinates (Angstroms)
 Number     Number       Type             X           Y           Z
 ---------------------------------------------------------------------
      1          7           0        5.460981   -1.132187   -1.230343
      2          6           0        6.780186   -0.478057   -1.329522
      3          6           0        3.294908   -1.512716   -1.205053
      4          7           0        3.906087   -2.731603   -0.949127
      5          6           0        5.186606   -2.453563   -0.974599
      6          1           0        5.982359   -3.181046   -0.811857
      7          7           0        1.675786    0.162004   -1.574768
      8          6           0        2.698094    1.011417   -1.719569
      9          1           0        2.419286    2.042913   -1.930637
     10          7           0        4.006928    0.779040   -1.643146
     11          6           0        4.240522   -0.517452   -1.380568
     12          6           0        1.943824   -1.135591   -1.311172
     13          7           0        0.924678   -1.985024   -1.166301
     14          1           0        1.076349   -2.954491   -0.970484
     15          1           0       -0.024659   -1.681462   -1.248516
     16          1           0        7.308999   -0.901021   -2.065482
     17          1           0        6.656998    0.494373   -1.525266
     18          1           0        7.272229   -0.582651   -0.465263
     19          7           0        4.660636    1.284893    1.148519
     20          6           0        3.297631    1.434721    1.060009
     21          6           0        5.659120    2.282023    0.713269
     22          7           0        0.532632    3.333711    0.159810
     23          1           0       -0.462752    3.245172    0.184599
     24          1           0        0.903368    4.182548   -0.218032
     25          7           0        2.646750    2.509392    0.564533
     26          6           0        1.335058    2.358543    0.612647
     27          7           0        0.706846    1.241509    1.107728
     28          1           0       -0.301198    1.213101    1.105163
     29          6           0        1.356488    0.124006    1.622532
     30          8           0        0.695184   -0.832665    2.044656
     31          6           0        2.766151    0.271318    1.577514
     32          7           0        3.775185   -0.591543    1.982761
     33          6           0        4.878667    0.050291    1.709646
     34          1           0        5.882401   -0.332318    1.897832
     35          1           0        6.243073    1.884721    0.006188
     36          1           0        5.188682    3.082572    0.344392
     37          1           0        6.220359    2.556593    1.493297
     38          1           0       -5.303988    1.423584    0.221719
     39          1           0       -5.374106    1.886368    1.920417
     40          1           0       -3.974110    2.330158    0.943466
     41          1           0       -4.771949   -2.869533    2.327104
     42          6           0       -4.182416   -1.979007    2.108830
     43          8           0       -2.096129   -3.043444    2.484936
     44          6           0       -2.755152   -2.047763    2.186478
     45          1           0       -1.096700   -0.875230    1.935486
     46          7           0       -2.105988   -0.865944    1.891296
     47          8           0       -2.021990    1.324525    1.298010
     48          6           0       -2.681990    0.329722    1.541782
     49          1           0       -5.854887   -0.722265    1.697415
     50          6           0       -4.773205   -0.826971    1.770594
     51          6           0       -4.722124    1.571417    1.119300
     52          7           0       -4.061919    0.316204    1.488506
     53          1           0       -5.605570    3.124502   -2.516996
     54          1           0       -4.335865    3.302473   -1.507915
     55          1           0       -5.840671    3.122113   -0.902026
     56          1           0       -2.439953   -3.464269   -1.239308
     57          1           0       -4.118043   -3.277654   -1.482779
     58          7           0       -3.222190   -2.851486   -1.352282
     59          6           0       -3.078146   -1.524863   -1.330059
     60          6           0       -3.838455    0.727242   -1.438227
     61          7           0       -2.623275    1.271708   -1.261255
     62          1           0       -0.682118    0.677230   -0.979994
     63          6           0       -1.700628    0.320960   -1.128228
     64          7           0       -1.842895   -1.008272   -1.150198
     65          1           0       -7.037034    0.652829   -1.902720
     66          6           0       -5.985399    0.408349   -1.750273
     67          7           0       -5.505747   -0.809400   -1.681831
     68          6           0       -4.145465   -0.621528   -1.484140
     69          6           0       -5.218365    2.851059   -1.636488
     70          7           0       -5.031992    1.387288   -1.610876
 ---------------------------------------------------------------------
 Rotational constants (GHZ):           0.1758926           0.0534889           0.0518885
 Leave Link  202 at Fri Jan 19 18:22:03 2018, MaxMem=  4294967296 cpu:               0.4 elap:               0.0
 (Enter /share/apps/g16/l301.exe)
 Standard basis: CC-pVDZ (5D, 7F)
 Ernie: Thresh=  0.10000D-02 Tol=  0.10000D-05 Strict=F.
 Ernie:  86 primitive shells out of 1081 were deleted.
 There are   780 symmetry adapted cartesian basis functions of A   symmetry.
 There are   737 symmetry adapted basis functions of A   symmetry.
   737 basis functions,  1608 primitive gaussians,   780 cartesian basis functions
   154 alpha electrons      154 beta electrons
       nuclear repulsion energy      5654.7908983539 Hartrees.
 IExCor= 4639 DFT=T Ex+Corr=wB97XD ExCW=0 ScaHFX=  1.000000
 ScaDFX=  1.000000  1.000000  1.000000  1.000000 ScalE2=  1.000000  1.000000
 IRadAn=      5 IRanWt=     -1 IRanGd=            0 ICorTp=0 IEmpDi=121
 HFx  wShort=  0.000000 wLong=  0.200000 cFull=  0.222036 cShort=  0.000000 cLong=  0.777964
 DFx  wShort=  0.000000 wLong=  0.200000 cFull=  0.000000 cShort=  0.000000 cLong=  1.000000
 NAtoms=   70 NActive=   70 NUniq=   70 SFac= 1.00D+00 NAtFMM=   60 NAOKFM=T Big=T
 Integral buffers will be    131072 words long.
 Raffenetti 2 integral format.
 Two-electron integral symmetry is turned on.
 R6Disp:  Grimme-D2 Dispersion energy=       -0.0822546187 Hartrees.
 Nuclear repulsion after empirical dispersion term =     5654.7086437353 Hartrees.
 Leave Link  301 at Fri Jan 19 18:22:04 2018, MaxMem=  4294967296 cpu:               3.0 elap:               0.1
 (Enter /share/apps/g16/l302.exe)
 NPDir=0 NMtPBC=     1 NCelOv=     1 NCel=       1 NClECP=     1 NCelD=      1
         NCelK=      1 NCelE2=     1 NClLst=     1 CellRange=     0.0.
 One-electron integrals computed using PRISM.
 One-electron integral symmetry used in STVInt
 NBasis=   737 RedAO= T EigKep=  6.72D-04  NBF=   737
 NBsUse=   737 1.00D-06 EigRej= -1.00D+00 NBFU=   737
 Precomputing XC quadrature grid using
 IXCGrd= 4 IRadAn=           5 IRanWt=          -1 IRanGd=           0 AccXCQ= 0.00D+00.
 Generated NRdTot=       0 NPtTot=           0 NUsed=           0 NTot=          32
 NSgBfM=   771   770   770   771   771 MxSgAt=    70 MxSgA2=    70.
 Leave Link  302 at Fri Jan 19 18:22:08 2018, MaxMem=  4294967296 cpu:             135.9 elap:               4.3
 (Enter /share/apps/g16/l303.exe)
 DipDrv:  MaxL=1.
 Leave Link  303 at Fri Jan 19 18:22:08 2018, MaxMem=  4294967296 cpu:              12.6 elap:               0.4
 (Enter /share/apps/g16/l401.exe)
 ExpMin= 1.22D-01 ExpMax= 1.17D+04 ExpMxC= 4.01D+02 IAcc=3 IRadAn=         5 AccDes= 0.00D+00
 Harris functional with IExCor= 4639 and IRadAn=       5 diagonalized for initial guess.
 HarFok:  IExCor= 4639 AccDes= 0.00D+00 IRadAn=         5 IDoV= 1 UseB2=F ITyADJ=14
 ICtDFT=  3500011 ScaDFX=  1.000000  1.000000  1.000000  1.000000
 FoFCou: FMM=F IPFlag=           0 FMFlag=      100000 FMFlg1=        2001
         NFxFlg=           0 DoJE=T BraDBF=F KetDBF=T FulRan=T
         wScrn=  0.000000 ICntrl=       500 IOpCl=  0 I1Cent=   200000004 NGrid=           0
         NMat0=    1 NMatS0=      1 NMatT0=    0 NMatD0=    1 NMtDS0=    0 NMtDT0=    0
 Petite list used in FoFCou.
 Harris En= -1963.84530029554    
 JPrj=0 DoOrth=F DoCkMO=F.
 Leave Link  401 at Fri Jan 19 18:22:25 2018, MaxMem=  4294967296 cpu:             501.7 elap:              16.2
 (Enter /share/apps/g16/l502.exe)
 Integral symmetry usage will be decided dynamically.
 Closed shell SCF:
 Using DIIS extrapolation, IDIIS=  1040.
 NGot=  4294967296 LenX=  4293717438 LenY=  4293108258
 Requested convergence on RMS density matrix=1.00D-08 within  20 cycles.
 Requested convergence on MAX density matrix=1.00D-06.
 Requested convergence on             energy=1.00D-06.
 No special actions if energy rises.
 Fock matrices will be formed incrementally for  20 cycles.
 Integral accuracy reduced to 1.0D-05 until final iterations.

 Cycle   1  Pass 0  IDiag  1:
 FoFJK:  IHMeth= 1 ICntrl=       0 DoSepK=T KAlg= 0 I1Cent=           0 FoldK=F
 IRaf=         1 NMat=       1 IRICut=       1 DoRegI=T DoRafI=F ISym2E= 0 IDoP0=0 IntGTp=1.
 FoFCou: FMM=T IPFlag=           0 FMFlag=      100000 FMFlg1=        2001
         NFxFlg=           0 DoJE=T BraDBF=F KetDBF=F FulRan=T
         wScrn=  0.000000 ICntrl=       500 IOpCl=  0 I1Cent=           0 NGrid=           0
         NMat0=    1 NMatS0=      1 NMatT0=    0 NMatD0=    1 NMtDS0=    0 NMtDT0=    0
 Symmetry not used in FoFCou.
 FMM levels:  10  Number of levels for PrismC:   9
 E= -2048.28649923067    
 DIIS: error= 1.97D-02 at cycle   1 NSaved=   1.
 NSaved= 1 IEnMin= 1 EnMin= -2048.28649923067     IErMin= 1 ErrMin= 1.97D-02
 ErrMax= 1.97D-02  0.00D+00 EMaxC= 1.00D-01 BMatC= 8.35D-01 BMatP= 8.35D-01
 IDIUse=3 WtCom= 8.03D-01 WtEn= 1.97D-01
 Coeff-Com:  0.100D+01
 Coeff-En:   0.100D+01
 Coeff:      0.100D+01
 Gap=     0.258 Goal=   None    Shift=    0.000
 GapD=    0.258 DampG=1.000 DampE=0.500 DampFc=0.5000 IDamp=-1.
 Damping current iteration by 5.00D-01
 RMSDP=1.62D-03 MaxDP=1.29D-01              OVMax= 2.06D-01

 Cycle   2  Pass 0  IDiag  1:
 RMSU=  8.07D-04    CP:  9.97D-01
 E= -2048.48208368722     Delta-E=       -0.195584456551 Rises=F Damp=T
 DIIS: error= 1.09D-02 at cycle   2 NSaved=   2.
 NSaved= 2 IEnMin= 2 EnMin= -2048.48208368722     IErMin= 2 ErrMin= 1.09D-02
 ErrMax= 1.09D-02  0.00D+00 EMaxC= 1.00D-01 BMatC= 1.46D-01 BMatP= 8.35D-01
 IDIUse=3 WtCom= 8.91D-01 WtEn= 1.09D-01
 Coeff-Com: -0.186D+00 0.119D+01
 Coeff-En:   0.000D+00 0.100D+01
 Coeff:     -0.166D+00 0.117D+01
 Gap=     0.303 Goal=   None    Shift=    0.000
 RMSDP=6.12D-04 MaxDP=3.58D-02 DE=-1.96D-01 OVMax= 1.20D-01

 Cycle   3  Pass 0  IDiag  1:
 RMSU=  6.02D-04    CP:  9.93D-01  1.12D+00
 E= -2048.65855736405     Delta-E=       -0.176473676834 Rises=F Damp=F
 DIIS: error= 7.61D-03 at cycle   3 NSaved=   3.
 NSaved= 3 IEnMin= 3 EnMin= -2048.65855736405     IErMin= 3 ErrMin= 7.61D-03
 ErrMax= 7.61D-03  0.00D+00 EMaxC= 1.00D-01 BMatC= 7.00D-02 BMatP= 1.46D-01
 IDIUse=3 WtCom= 9.24D-01 WtEn= 7.61D-02
 Coeff-Com: -0.234D+00 0.562D+00 0.673D+00
 Coeff-En:   0.000D+00 0.000D+00 0.100D+01
 Coeff:     -0.217D+00 0.519D+00 0.697D+00
 Gap=     0.283 Goal=   None    Shift=    0.000
 RMSDP=3.88D-04 MaxDP=3.37D-02 DE=-1.76D-01 OVMax= 6.98D-02

 Cycle   4  Pass 0  IDiag  1:
 RMSU=  2.16D-04    CP:  9.94D-01  1.43D+00  6.49D-01
 E= -2048.71068134028     Delta-E=       -0.052123976228 Rises=F Damp=F
 DIIS: error= 2.31D-03 at cycle   4 NSaved=   4.
 NSaved= 4 IEnMin= 4 EnMin= -2048.71068134028     IErMin= 4 ErrMin= 2.31D-03
 ErrMax= 2.31D-03  0.00D+00 EMaxC= 1.00D-01 BMatC= 1.05D-02 BMatP= 7.00D-02
 IDIUse=3 WtCom= 9.77D-01 WtEn= 2.31D-02
 Coeff-Com: -0.974D-01 0.189D+00 0.378D+00 0.530D+00
 Coeff-En:   0.000D+00 0.000D+00 0.815D-01 0.919D+00
 Coeff:     -0.951D-01 0.184D+00 0.371D+00 0.539D+00
 Gap=     0.285 Goal=   None    Shift=    0.000
 RMSDP=1.36D-04 MaxDP=1.12D-02 DE=-5.21D-02 OVMax= 1.62D-02

 Cycle   5  Pass 0  IDiag  1:
 RMSU=  6.36D-05    CP:  9.93D-01  1.39D+00  7.88D-01  6.15D-01
 E= -2048.71941220791     Delta-E=       -0.008730867628 Rises=F Damp=F
 DIIS: error= 5.96D-04 at cycle   5 NSaved=   5.
 NSaved= 5 IEnMin= 5 EnMin= -2048.71941220791     IErMin= 5 ErrMin= 5.96D-04
 ErrMax= 5.96D-04  0.00D+00 EMaxC= 1.00D-01 BMatC= 3.05D-04 BMatP= 1.05D-02
 IDIUse=3 WtCom= 9.94D-01 WtEn= 5.96D-03
 Coeff-Com: -0.262D-01 0.451D-01 0.125D+00 0.238D+00 0.618D+00
 Coeff-En:   0.000D+00 0.000D+00 0.000D+00 0.000D+00 0.100D+01
 Coeff:     -0.260D-01 0.448D-01 0.124D+00 0.236D+00 0.620D+00
 Gap=     0.285 Goal=   None    Shift=    0.000
 RMSDP=2.80D-05 MaxDP=1.73D-03 DE=-8.73D-03 OVMax= 3.35D-03

 Failed to achieve initial convergence to 1.0D-08 in  6 cycles.
 Switch to full accuracy anyway.
 Cycle   6  Pass 1  IDiag  1:
 E= -2048.71955967747     Delta-E=       -0.000147469565 Rises=F Damp=F
 DIIS: error= 2.45D-04 at cycle   1 NSaved=   1.
 NSaved= 1 IEnMin= 1 EnMin= -2048.71955967747     IErMin= 1 ErrMin= 2.45D-04
 ErrMax= 2.45D-04  0.00D+00 EMaxC= 1.00D-01 BMatC= 8.09D-05 BMatP= 8.09D-05
 IDIUse=3 WtCom= 9.98D-01 WtEn= 2.45D-03
 Coeff-Com:  0.100D+01
 Coeff-En:   0.100D+01
 Coeff:      0.100D+01
 Gap=     0.285 Goal=   None    Shift=    0.000
 RMSDP=2.80D-05 MaxDP=1.73D-03 DE=-1.47D-04 OVMax= 2.57D-03

 Cycle   7  Pass 1  IDiag  1:
 RMSU=  1.21D-04    CP:  1.00D+00
 E= -2048.71961277415     Delta-E=       -0.000053096679 Rises=F Damp=F
 DIIS: error= 2.26D-04 at cycle   2 NSaved=   2.
 NSaved= 2 IEnMin= 2 EnMin= -2048.71961277415     IErMin= 2 ErrMin= 2.26D-04
 ErrMax= 2.26D-04  0.00D+00 EMaxC= 1.00D-01 BMatC= 5.12D-05 BMatP= 8.09D-05
 IDIUse=3 WtCom= 9.98D-01 WtEn= 2.26D-03
 Coeff-Com:  0.424D+00 0.576D+00
 Coeff-En:   0.785D-01 0.921D+00
 Coeff:      0.423D+00 0.577D+00
 Gap=     0.285 Goal=   None    Shift=    0.000
 RMSDP=1.29D-05 MaxDP=9.89D-04 DE=-5.31D-05 OVMax= 1.85D-03

 Cycle   8  Pass 1  IDiag  1:
 RMSU=  1.26D-05    CP:  1.00D+00  1.02D+00
 E= -2048.71965173278     Delta-E=       -0.000038958629 Rises=F Damp=F
 DIIS: error= 7.92D-05 at cycle   3 NSaved=   3.
 NSaved= 3 IEnMin= 3 EnMin= -2048.71965173278     IErMin= 3 ErrMin= 7.92D-05
 ErrMax= 7.92D-05  0.00D+00 EMaxC= 1.00D-01 BMatC= 1.07D-05 BMatP= 5.12D-05
 IDIUse=1 WtCom= 1.00D+00 WtEn= 0.00D+00
 Coeff-Com: -0.177D-01 0.300D+00 0.718D+00
 Coeff:     -0.177D-01 0.300D+00 0.718D+00
 Gap=     0.285 Goal=   None    Shift=    0.000
 RMSDP=6.17D-06 MaxDP=3.65D-04 DE=-3.90D-05 OVMax= 6.59D-04

 Cycle   9  Pass 1  IDiag  1:
 RMSU=  4.05D-06    CP:  1.00D+00  1.05D+00  7.64D-01
 E= -2048.71966241107     Delta-E=       -0.000010678283 Rises=F Damp=F
 DIIS: error= 2.63D-05 at cycle   4 NSaved=   4.
 NSaved= 4 IEnMin= 4 EnMin= -2048.71966241107     IErMin= 4 ErrMin= 2.63D-05
 ErrMax= 2.63D-05  0.00D+00 EMaxC= 1.00D-01 BMatC= 6.15D-07 BMatP= 1.07D-05
 IDIUse=1 WtCom= 1.00D+00 WtEn= 0.00D+00
 Coeff-Com: -0.314D-01 0.879D-01 0.285D+00 0.658D+00
 Coeff:     -0.314D-01 0.879D-01 0.285D+00 0.658D+00
 Gap=     0.285 Goal=   None    Shift=    0.000
 RMSDP=1.54D-06 MaxDP=1.21D-04 DE=-1.07D-05 OVMax= 4.22D-04

 Cycle  10  Pass 1  IDiag  1:
 RMSU=  1.39D-06    CP:  1.00D+00  1.05D+00  8.00D-01  1.08D+00
 E= -2048.71966336099     Delta-E=       -0.000000949925 Rises=F Damp=F
 DIIS: error= 1.17D-05 at cycle   5 NSaved=   5.
 NSaved= 5 IEnMin= 5 EnMin= -2048.71966336099     IErMin= 5 ErrMin= 1.17D-05
 ErrMax= 1.17D-05  0.00D+00 EMaxC= 1.00D-01 BMatC= 1.28D-07 BMatP= 6.15D-07
 IDIUse=1 WtCom= 1.00D+00 WtEn= 0.00D+00
 Coeff-Com: -0.450D-02-0.492D-01-0.104D+00 0.203D+00 0.955D+00
 Coeff:     -0.450D-02-0.492D-01-0.104D+00 0.203D+00 0.955D+00
 Gap=     0.285 Goal=   None    Shift=    0.000
 RMSDP=1.22D-06 MaxDP=7.47D-05 DE=-9.50D-07 OVMax= 2.52D-04

 Cycle  11  Pass 1  IDiag  1:
 RMSU=  5.12D-07    CP:  1.00D+00  1.05D+00  8.11D-01  1.35D+00  1.18D+00
 E= -2048.71966363928     Delta-E=       -0.000000278288 Rises=F Damp=F
 DIIS: error= 5.01D-06 at cycle   6 NSaved=   6.
 NSaved= 6 IEnMin= 6 EnMin= -2048.71966363928     IErMin= 6 ErrMin= 5.01D-06
 ErrMax= 5.01D-06  0.00D+00 EMaxC= 1.00D-01 BMatC= 3.43D-08 BMatP= 1.28D-07
 IDIUse=1 WtCom= 1.00D+00 WtEn= 0.00D+00
 Coeff-Com:  0.471D-02-0.449D-01-0.118D+00-0.124D-01 0.524D+00 0.647D+00
 Coeff:      0.471D-02-0.449D-01-0.118D+00-0.124D-01 0.524D+00 0.647D+00
 Gap=     0.285 Goal=   None    Shift=    0.000
 RMSDP=4.33D-07 MaxDP=3.49D-05 DE=-2.78D-07 OVMax= 1.22D-04

 Cycle  12  Pass 1  IDiag  1:
 RMSU=  2.04D-07    CP:  1.00D+00  1.05D+00  8.13D-01  1.43D+00  1.32D+00
                    CP:  9.36D-01
 E= -2048.71966368946     Delta-E=       -0.000000050182 Rises=F Damp=F
 DIIS: error= 1.06D-06 at cycle   7 NSaved=   7.
 NSaved= 7 IEnMin= 7 EnMin= -2048.71966368946     IErMin= 7 ErrMin= 1.06D-06
 ErrMax= 1.06D-06  0.00D+00 EMaxC= 1.00D-01 BMatC= 8.20D-10 BMatP= 3.43D-08
 IDIUse=1 WtCom= 1.00D+00 WtEn= 0.00D+00
 Coeff-Com:  0.121D-02-0.826D-02-0.230D-01-0.111D-01 0.707D-01 0.141D+00
 Coeff-Com:  0.829D+00
 Coeff:      0.121D-02-0.826D-02-0.230D-01-0.111D-01 0.707D-01 0.141D+00
 Coeff:      0.829D+00
 Gap=     0.285 Goal=   None    Shift=    0.000
 RMSDP=8.82D-08 MaxDP=5.56D-06 DE=-5.02D-08 OVMax= 2.36D-05

 Cycle  13  Pass 1  IDiag  1:
 RMSU=  5.47D-08    CP:  1.00D+00  1.05D+00  8.13D-01  1.44D+00  1.34D+00
                    CP:  1.02D+00  1.14D+00
 E= -2048.71966369140     Delta-E=       -0.000000001940 Rises=F Damp=F
 DIIS: error= 7.57D-07 at cycle   8 NSaved=   8.
 NSaved= 8 IEnMin= 8 EnMin= -2048.71966369140     IErMin= 8 ErrMin= 7.57D-07
 ErrMax= 7.57D-07  0.00D+00 EMaxC= 1.00D-01 BMatC= 3.70D-10 BMatP= 8.20D-10
 IDIUse=1 WtCom= 1.00D+00 WtEn= 0.00D+00
 Coeff-Com: -0.731D-03 0.869D-02 0.221D-01-0.537D-03-0.112D+00-0.114D+00
 Coeff-Com:  0.414D+00 0.782D+00
 Coeff:     -0.731D-03 0.869D-02 0.221D-01-0.537D-03-0.112D+00-0.114D+00
 Coeff:      0.414D+00 0.782D+00
 Gap=     0.285 Goal=   None    Shift=    0.000
 RMSDP=5.39D-08 MaxDP=2.85D-06 DE=-1.94D-09 OVMax= 1.17D-05

 Cycle  14  Pass 1  IDiag  1:
 RMSU=  3.10D-08    CP:  1.00D+00  1.05D+00  8.13D-01  1.44D+00  1.35D+00
                    CP:  1.06D+00  1.30D+00  1.07D+00
 E= -2048.71966369171     Delta-E=       -0.000000000310 Rises=F Damp=F
 DIIS: error= 1.55D-07 at cycle   9 NSaved=   9.
 NSaved= 9 IEnMin= 9 EnMin= -2048.71966369171     IErMin= 9 ErrMin= 1.55D-07
 ErrMax= 1.55D-07  0.00D+00 EMaxC= 1.00D-01 BMatC= 3.29D-11 BMatP= 3.70D-10
 IDIUse=1 WtCom= 1.00D+00 WtEn= 0.00D+00
 Coeff-Com: -0.427D-03 0.442D-02 0.115D-01 0.109D-02-0.518D-01-0.612D-01
 Coeff-Com:  0.880D-01 0.306D+00 0.703D+00
 Coeff:     -0.427D-03 0.442D-02 0.115D-01 0.109D-02-0.518D-01-0.612D-01
 Coeff:      0.880D-01 0.306D+00 0.703D+00
 Gap=     0.285 Goal=   None    Shift=    0.000
 RMSDP=1.44D-08 MaxDP=6.83D-07 DE=-3.10D-10 OVMax= 3.21D-06

 Cycle  15  Pass 1  IDiag  1:
 RMSU=  1.01D-08    CP:  1.00D+00  1.05D+00  8.13D-01  1.44D+00  1.35D+00
                    CP:  1.07D+00  1.32D+00  1.21D+00  1.09D+00
 E= -2048.71966369209     Delta-E=       -0.000000000381 Rises=F Damp=F
 DIIS: error= 8.38D-08 at cycle  10 NSaved=  10.
 NSaved=10 IEnMin=10 EnMin= -2048.71966369209     IErMin=10 ErrMin= 8.38D-08
 ErrMax= 8.38D-08  0.00D+00 EMaxC= 1.00D-01 BMatC= 5.76D-12 BMatP= 3.29D-11
 IDIUse=1 WtCom= 1.00D+00 WtEn= 0.00D+00
 Coeff-Com:  0.407D-05-0.284D-03-0.645D-03 0.192D-03 0.507D-02 0.183D-02
 Coeff-Com: -0.566D-01-0.662D-01 0.251D+00 0.865D+00
 Coeff:      0.407D-05-0.284D-03-0.645D-03 0.192D-03 0.507D-02 0.183D-02
 Coeff:     -0.566D-01-0.662D-01 0.251D+00 0.865D+00
 Gap=     0.285 Goal=   None    Shift=    0.000
 RMSDP=7.84D-09 MaxDP=4.14D-07 DE=-3.81D-10 OVMax= 1.72D-06

 SCF Done:  E(RwB97XD) =  -2048.71966369     A.U. after   15 cycles
            NFock= 15  Conv=0.78D-08     -V/T= 2.0053
 KE= 2.038010152787D+03 PE=-1.608990620245D+04 EE= 6.348467742234D+03
 Leave Link  502 at Fri Jan 19 18:34:56 2018, MaxMem=  4294967296 cpu:           23231.1 elap:             751.9
 (Enter /share/apps/g16/l601.exe)
 Copying SCF densities to generalized density rwf, IOpCl= 0 IROHF=0.

 **********************************************************************

            Population analysis using the SCF density.

 **********************************************************************

 Orbital symmetries:
       Occupied  (A) (A) (A) (A) (A) (A) (A) (A) (A) (A) (A) (A)
                 (A) (A) (A) (A) (A) (A) (A) (A) (A) (A) (A) (A)
                 (A) (A) (A) (A) (A) (A) (A) (A) (A) (A) (A) (A)
                 (A) (A) (A) (A) (A) (A) (A) (A) (A) (A) (A) (A)
                 (A) (A) (A) (A) (A) (A) (A) (A) (A) (A) (A) (A)
                 (A) (A) (A) (A) (A) (A) (A) (A) (A) (A) (A) (A)
                 (A) (A) (A) (A) (A) (A) (A) (A) (A) (A) (A) (A)
                 (A) (A) (A) (A) (A) (A) (A) (A) (A) (A) (A) (A)
                 (A) (A) (A) (A) (A) (A) (A) (A) (A) (A) (A) (A)
                 (A) (A) (A) (A) (A) (A) (A) (A) (A) (A) (A) (A)
                 (A) (A) (A) (A) (A) (A) (A) (A) (A) (A) (A) (A)
                 (A) (A) (A) (A) (A) (A) (A) (A) (A) (A) (A) (A)
                 (A) (A) (A) (A) (A) (A) (A) (A) (A) (A)
       Virtual   (A) (A) (A) (A) (A) (A) (A) (A) (A) (A) (A) (A)
                 (A) (A) (A) (A) (A) (A) (A) (A) (A) (A) (A) (A)
                 (A) (A) (A) (A) (A) (A) (A) (A) (A) (A) (A) (A)
                 (A) (A) (A) (A) (A) (A) (A) (A) (A) (A) (A) (A)
                 (A) (A) (A) (A) (A) (A) (A) (A) (A) (A) (A) (A)
                 (A) (A) (A) (A) (A) (A) (A) (A) (A) (A) (A) (A)
                 (A) (A) (A) (A) (A) (A) (A) (A) (A) (A) (A) (A)
                 (A) (A) (A) (A) (A) (A) (A) (A) (A) (A) (A) (A)
                 (A) (A) (A) (A) (A) (A) (A) (A) (A) (A) (A) (A)
                 (A) (A) (A) (A) (A) (A) (A) (A) (A) (A) (A) (A)
                 (A) (A) (A) (A) (A) (A) (A) (A) (A) (A) (A) (A)
                 (A) (A) (A) (A) (A) (A) (A) (A) (A) (A) (A) (A)
                 (A) (A) (A) (A) (A) (A) (A) (A) (A) (A) (A) (A)
                 (A) (A) (A) (A) (A) (A) (A) (A) (A) (A) (A) (A)
                 (A) (A) (A) (A) (A) (A) (A) (A) (A) (A) (A) (A)
                 (A) (A) (A) (A) (A) (A) (A) (A) (A) (A) (A) (A)
                 (A) (A) (A) (A) (A) (A) (A) (A) (A) (A) (A) (A)
                 (A) (A) (A) (A) (A) (A) (A) (A) (A) (A) (A) (A)
                 (A) (A) (A) (A) (A) (A) (A) (A) (A) (A) (A) (A)
                 (A) (A) (A) (A) (A) (A) (A) (A) (A) (A) (A) (A)
                 (A) (A) (A) (A) (A) (A) (A) (A) (A) (A) (A) (A)
                 (A) (A) (A) (A) (A) (A) (A) (A) (A) (A) (A) (A)
                 (A) (A) (A) (A) (A) (A) (A) (A) (A) (A) (A) (A)
                 (A) (A) (A) (A) (A) (A) (A) (A) (A) (A) (A) (A)
                 (A) (A) (A) (A) (A) (A) (A) (A) (A) (A) (A) (A)
                 (A) (A) (A) (A) (A) (A) (A) (A) (A) (A) (A) (A)
                 (A) (A) (A) (A) (A) (A) (A) (A) (A) (A) (A) (A)
                 (A) (A) (A) (A) (A) (A) (A) (A) (A) (A) (A) (A)
                 (A) (A) (A) (A) (A) (A) (A) (A) (A) (A) (A) (A)
                 (A) (A) (A) (A) (A) (A) (A) (A) (A) (A) (A) (A)
                 (A) (A) (A) (A) (A) (A) (A) (A) (A) (A) (A) (A)
                 (A) (A) (A) (A) (A) (A) (A) (A) (A) (A) (A) (A)
                 (A) (A) (A) (A) (A) (A) (A) (A) (A) (A) (A) (A)
                 (A) (A) (A) (A) (A) (A) (A) (A) (A) (A) (A) (A)
                 (A) (A) (A) (A) (A) (A) (A) (A) (A) (A) (A) (A)
                 (A) (A) (A) (A) (A) (A) (A) (A) (A) (A) (A) (A)
                 (A) (A) (A) (A) (A) (A) (A) (A) (A) (A) (A) (A)
                 (A) (A) (A) (A) (A) (A) (A) (A) (A) (A) (A) (A)
                 (A) (A) (A) (A) (A) (A) (A) (A) (A) (A) (A) (A)
                 (A) (A) (A) (A) (A) (A) (A) (A) (A) (A) (A) (A)
                 (A) (A) (A) (A) (A) (A) (A) (A) (A) (A) (A) (A)
                 (A) (A) (A) (A) (A) (A) (A) (A) (A) (A) (A) (A)
                 (A) (A) (A) (A) (A) (A) (A) (A) (A) (A) (A) (A)
                 (A) (A) (A) (A) (A) (A) (A) (A) (A) (A) (A) (A)
                 (A) (A) (A) (A) (A) (A) (A) (A) (A) (A) (A) (A)
                 (A) (A) (A) (A) (A) (A) (A) (A) (A) (A) (A) (A)
                 (A) (A) (A) (A) (A) (A) (A) (A) (A) (A) (A) (A)
                 (A) (A) (A) (A) (A) (A) (A) (A) (A) (A) (A) (A)
                 (A) (A) (A) (A) (A) (A) (A)
 The electronic state is 1-A.
 Alpha  occ. eigenvalues --  -19.25071 -19.21441 -19.20549 -14.52645 -14.51834
 Alpha  occ. eigenvalues --  -14.49186 -14.48612 -14.48152 -14.47265 -14.46654
 Alpha  occ. eigenvalues --  -14.46646 -14.45840 -14.44599 -14.44426 -14.42961
 Alpha  occ. eigenvalues --  -14.41833 -14.41658 -14.41223 -14.40882 -14.40707
 Alpha  occ. eigenvalues --  -10.44713 -10.41080 -10.40072 -10.39559 -10.38283
 Alpha  occ. eigenvalues --  -10.38155 -10.37385 -10.37145 -10.36080 -10.35989
 Alpha  occ. eigenvalues --  -10.34520 -10.34354 -10.34203 -10.33947 -10.33748
 Alpha  occ. eigenvalues --  -10.33414 -10.33402 -10.32869 -10.31860 -10.30662
 Alpha  occ. eigenvalues --  -10.30559 -10.28857 -10.28073  -1.18953  -1.15792
 Alpha  occ. eigenvalues --   -1.13134  -1.12475  -1.11731  -1.10486  -1.09521
 Alpha  occ. eigenvalues --   -1.08753  -1.08487  -1.05576  -1.04979  -1.01946
 Alpha  occ. eigenvalues --   -1.01453  -1.01010  -0.99659  -0.98445  -0.97468
 Alpha  occ. eigenvalues --   -0.97060  -0.96485  -0.93256  -0.90461  -0.88023
 Alpha  occ. eigenvalues --   -0.86418  -0.84500  -0.84019  -0.83195  -0.82972
 Alpha  occ. eigenvalues --   -0.82306  -0.78314  -0.77341  -0.75176  -0.74541
 Alpha  occ. eigenvalues --   -0.73544  -0.73400  -0.72853  -0.71535  -0.70701
 Alpha  occ. eigenvalues --   -0.67338  -0.67051  -0.66838  -0.66125  -0.64598
 Alpha  occ. eigenvalues --   -0.64285  -0.63825  -0.63264  -0.62583  -0.62354
 Alpha  occ. eigenvalues --   -0.61710  -0.61007  -0.60732  -0.59822  -0.59102
 Alpha  occ. eigenvalues --   -0.58422  -0.58230  -0.58041  -0.57126  -0.56265
 Alpha  occ. eigenvalues --   -0.55930  -0.55794  -0.55457  -0.54176  -0.54012
 Alpha  occ. eigenvalues --   -0.53945  -0.53752  -0.53445  -0.53171  -0.53038
 Alpha  occ. eigenvalues --   -0.52827  -0.52271  -0.51928  -0.51107  -0.50623
 Alpha  occ. eigenvalues --   -0.50262  -0.49878  -0.49397  -0.49100  -0.48828
 Alpha  occ. eigenvalues --   -0.48558  -0.48118  -0.48083  -0.47702  -0.47101
 Alpha  occ. eigenvalues --   -0.47021  -0.45931  -0.45344  -0.44932  -0.42828
 Alpha  occ. eigenvalues --   -0.41341  -0.41095  -0.38952  -0.37840  -0.37737
 Alpha  occ. eigenvalues --   -0.37622  -0.37121  -0.36850  -0.36078  -0.34967
 Alpha  occ. eigenvalues --   -0.34604  -0.34297  -0.34012  -0.33477  -0.32837
 Alpha  occ. eigenvalues --   -0.32454  -0.32040  -0.31734  -0.31359  -0.31286
 Alpha  occ. eigenvalues --   -0.30858  -0.29571  -0.26311  -0.25244
 Alpha virt. eigenvalues --    0.03264   0.03934   0.06932   0.07616   0.08738
 Alpha virt. eigenvalues --    0.09077   0.09644   0.10034   0.10667   0.12736
 Alpha virt. eigenvalues --    0.13237   0.13465   0.14135   0.14237   0.14446
 Alpha virt. eigenvalues --    0.15098   0.16162   0.17528   0.17837   0.18158
 Alpha virt. eigenvalues --    0.18324   0.19123   0.19876   0.20131   0.20499
 Alpha virt. eigenvalues --    0.20612   0.21168   0.21368   0.21570   0.21951
 Alpha virt. eigenvalues --    0.22652   0.23064   0.23174   0.23694   0.24134
 Alpha virt. eigenvalues --    0.24236   0.24503   0.25340   0.25832   0.26183
 Alpha virt. eigenvalues --    0.27212   0.27601   0.27790   0.28109   0.28748
 Alpha virt. eigenvalues --    0.28907   0.29095   0.29601   0.30570   0.30724
 Alpha virt. eigenvalues --    0.31546   0.31979   0.32776   0.33248   0.33636
 Alpha virt. eigenvalues --    0.33965   0.34738   0.35388   0.36158   0.36294
 Alpha virt. eigenvalues --    0.36876   0.37062   0.37991   0.38693   0.38873
 Alpha virt. eigenvalues --    0.39324   0.39935   0.40714   0.41641   0.41812
 Alpha virt. eigenvalues --    0.42641   0.42841   0.43437   0.43748   0.44158
 Alpha virt. eigenvalues --    0.45397   0.46063   0.46632   0.46810   0.46987
 Alpha virt. eigenvalues --    0.47732   0.48075   0.48777   0.48988   0.49085
 Alpha virt. eigenvalues --    0.49696   0.50584   0.51007   0.51405   0.51715
 Alpha virt. eigenvalues --    0.51979   0.52503   0.52941   0.53584   0.53952
 Alpha virt. eigenvalues --    0.54217   0.54733   0.55018   0.55887   0.56207
 Alpha virt. eigenvalues --    0.56549   0.56660   0.57088   0.57555   0.57653
 Alpha virt. eigenvalues --    0.58253   0.58335   0.59159   0.59483   0.59744
 Alpha virt. eigenvalues --    0.60494   0.60924   0.61429   0.61680   0.61904
 Alpha virt. eigenvalues --    0.62133   0.62773   0.63495   0.64117   0.64336
 Alpha virt. eigenvalues --    0.64583   0.65410   0.65590   0.65836   0.65917
 Alpha virt. eigenvalues --    0.66194   0.66759   0.66898   0.67753   0.68526
 Alpha virt. eigenvalues --    0.68624   0.69208   0.70056   0.70398   0.70806
 Alpha virt. eigenvalues --    0.71017   0.71316   0.71347   0.72254   0.72550
 Alpha virt. eigenvalues --    0.73025   0.73462   0.73645   0.73933   0.74285
 Alpha virt. eigenvalues --    0.74441   0.75189   0.75278   0.75627   0.76036
 Alpha virt. eigenvalues --    0.76500   0.76761   0.77124   0.77558   0.78242
 Alpha virt. eigenvalues --    0.78363   0.79083   0.79215   0.79521   0.79747
 Alpha virt. eigenvalues --    0.79964   0.80392   0.80470   0.81137   0.81677
 Alpha virt. eigenvalues --    0.82034   0.82526   0.82620   0.83466   0.83985
 Alpha virt. eigenvalues --    0.84089   0.84442   0.85032   0.85341   0.85632
 Alpha virt. eigenvalues --    0.86035   0.86745   0.86901   0.87204   0.88151
 Alpha virt. eigenvalues --    0.88595   0.89101   0.89342   0.89656   0.90333
 Alpha virt. eigenvalues --    0.90466   0.91282   0.91726   0.92717   0.92770
 Alpha virt. eigenvalues --    0.93552   0.94186   0.94628   0.94811   0.95306
 Alpha virt. eigenvalues --    0.95846   0.96401   0.96875   0.97289   0.97572
 Alpha virt. eigenvalues --    0.97806   0.98579   0.98864   0.99678   0.99785
 Alpha virt. eigenvalues --    1.00357   1.00941   1.01778   1.02375   1.02654
 Alpha virt. eigenvalues --    1.03152   1.03360   1.03648   1.03954   1.04430
 Alpha virt. eigenvalues --    1.04788   1.05042   1.05566   1.05981   1.06723
 Alpha virt. eigenvalues --    1.07311   1.07967   1.09042   1.09620   1.10029
 Alpha virt. eigenvalues --    1.10127   1.10819   1.11103   1.11448   1.11886
 Alpha virt. eigenvalues --    1.12846   1.13254   1.14082   1.14245   1.14765
 Alpha virt. eigenvalues --    1.15472   1.15970   1.16256   1.16617   1.17133
 Alpha virt. eigenvalues --    1.17792   1.18078   1.18646   1.18649   1.18860
 Alpha virt. eigenvalues --    1.19282   1.20362   1.20557   1.21086   1.21356
 Alpha virt. eigenvalues --    1.21597   1.22154   1.22328   1.22764   1.23206
 Alpha virt. eigenvalues --    1.23518   1.23896   1.24179   1.24797   1.24904
 Alpha virt. eigenvalues --    1.25306   1.26160   1.26294   1.27174   1.27620
 Alpha virt. eigenvalues --    1.27818   1.28856   1.28998   1.29691   1.29794
 Alpha virt. eigenvalues --    1.30402   1.30844   1.31583   1.32100   1.32778
 Alpha virt. eigenvalues --    1.33412   1.34062   1.34428   1.34908   1.35603
 Alpha virt. eigenvalues --    1.36403   1.37679   1.38093   1.38421   1.39317
 Alpha virt. eigenvalues --    1.39787   1.40126   1.40179   1.41187   1.41777
 Alpha virt. eigenvalues --    1.43702   1.45274   1.45568   1.45889   1.47060
 Alpha virt. eigenvalues --    1.47435   1.48226   1.48908   1.49064   1.49574
 Alpha virt. eigenvalues --    1.50681   1.51117   1.52270   1.53018   1.53207
 Alpha virt. eigenvalues --    1.54630   1.54915   1.55346   1.56385   1.56980
 Alpha virt. eigenvalues --    1.57317   1.57709   1.58604   1.59090   1.59268
 Alpha virt. eigenvalues --    1.60085   1.60648   1.61093   1.61600   1.62661
 Alpha virt. eigenvalues --    1.63155   1.63786   1.64152   1.65008   1.65312
 Alpha virt. eigenvalues --    1.65817   1.66440   1.66574   1.67877   1.68237
 Alpha virt. eigenvalues --    1.68726   1.69159   1.69526   1.69861   1.70636
 Alpha virt. eigenvalues --    1.71189   1.71526   1.71906   1.72028   1.72468
 Alpha virt. eigenvalues --    1.72798   1.72913   1.74002   1.74173   1.74827
 Alpha virt. eigenvalues --    1.74858   1.75784   1.76049   1.76800   1.76965
 Alpha virt. eigenvalues --    1.77129   1.77288   1.77659   1.77877   1.78351
 Alpha virt. eigenvalues --    1.78532   1.79015   1.79385   1.80219   1.80572
 Alpha virt. eigenvalues --    1.81060   1.82060   1.82091   1.82357   1.82436
 Alpha virt. eigenvalues --    1.82952   1.83371   1.83782   1.84030   1.84367
 Alpha virt. eigenvalues --    1.85105   1.85323   1.85766   1.86415   1.86623
 Alpha virt. eigenvalues --    1.86793   1.87768   1.88119   1.88680   1.88844
 Alpha virt. eigenvalues --    1.89710   1.90085   1.90625   1.91097   1.91347
 Alpha virt. eigenvalues --    1.91613   1.92039   1.92631   1.93170   1.93551
 Alpha virt. eigenvalues --    1.93985   1.94471   1.94763   1.95919   1.96277
 Alpha virt. eigenvalues --    1.97347   1.98314   1.98550   1.99539   1.99919
 Alpha virt. eigenvalues --    2.00268   2.02074   2.02319   2.03253   2.03549
 Alpha virt. eigenvalues --    2.04279   2.04661   2.05698   2.05877   2.06519
 Alpha virt. eigenvalues --    2.06764   2.07458   2.08000   2.08156   2.09147
 Alpha virt. eigenvalues --    2.09583   2.10656   2.11547   2.12018   2.12618
 Alpha virt. eigenvalues --    2.13410   2.14135   2.14923   2.15218   2.15732
 Alpha virt. eigenvalues --    2.16448   2.17814   2.17819   2.18179   2.19732
 Alpha virt. eigenvalues --    2.19916   2.20665   2.20698   2.22064   2.22504
 Alpha virt. eigenvalues --    2.22681   2.23623   2.24863   2.25170   2.25320
 Alpha virt. eigenvalues --    2.26018   2.26285   2.26646   2.27750   2.28221
 Alpha virt. eigenvalues --    2.28459   2.29349   2.29899   2.30541   2.30990
 Alpha virt. eigenvalues --    2.31626   2.32132   2.32850   2.33787   2.34404
 Alpha virt. eigenvalues --    2.34903   2.35015   2.35319   2.35534   2.36165
 Alpha virt. eigenvalues --    2.36633   2.36917   2.37394   2.37942   2.38158
 Alpha virt. eigenvalues --    2.39199   2.39415   2.40072   2.41371   2.41742
 Alpha virt. eigenvalues --    2.42779   2.43833   2.44176   2.44788   2.44922
 Alpha virt. eigenvalues --    2.45245   2.45859   2.46365   2.48017   2.48247
 Alpha virt. eigenvalues --    2.49080   2.50538   2.51054   2.52262   2.52608
 Alpha virt. eigenvalues --    2.53470   2.55260   2.55856   2.57196   2.57619
 Alpha virt. eigenvalues --    2.58592   2.58879   2.59726   2.61271   2.62284
 Alpha virt. eigenvalues --    2.62624   2.64006   2.64451   2.65029   2.65157
 Alpha virt. eigenvalues --    2.65804   2.66879   2.67204   2.67634   2.68636
 Alpha virt. eigenvalues --    2.69051   2.69653   2.70112   2.70799   2.71814
 Alpha virt. eigenvalues --    2.72317   2.72589   2.72991   2.73325   2.74411
 Alpha virt. eigenvalues --    2.75856   2.75892   2.76211   2.77214   2.78117
 Alpha virt. eigenvalues --    2.78425   2.78713   2.79795   2.80033   2.80467
 Alpha virt. eigenvalues --    2.81151   2.81305   2.81755   2.82204   2.83000
 Alpha virt. eigenvalues --    2.83282   2.83708   2.84412   2.84979   2.85091
 Alpha virt. eigenvalues --    2.86272   2.86681   2.86890   2.87431   2.87763
 Alpha virt. eigenvalues --    2.88703   2.89637   2.90674   2.94108   2.94822
 Alpha virt. eigenvalues --    2.95991   2.98759   2.99692   3.00634   3.01355
 Alpha virt. eigenvalues --    3.01870   3.02747   3.03282   3.05311   3.07797
 Alpha virt. eigenvalues --    3.08257   3.10444   3.10881   3.13458   3.15307
 Alpha virt. eigenvalues --    3.16009   3.16676   3.17371   3.18776   3.20967
 Alpha virt. eigenvalues --    3.22370   3.23262   3.24361   3.24628   3.27925
 Alpha virt. eigenvalues --    3.44739   3.47825   3.48592   3.49516   3.51282
 Alpha virt. eigenvalues --    3.53216   3.54975   3.56665   3.58748   3.60683
 Alpha virt. eigenvalues --    3.64336   3.71376   3.75772
          Condensed to atoms (all electrons):
 Mulliken charges:
               1
     1  N   -0.300884
     2  C    0.172833
     3  C    0.082526
     4  N   -0.253633
     5  C    0.133768
     6  H    0.026032
     7  N   -0.283160
     8  C    0.136518
     9  H    0.010400
    10  N   -0.280703
    11  C    0.213991
    12  C    0.076805
    13  N   -0.047762
    14  H    0.110171
    15  H    0.084426
    16  H    0.028524
    17  H    0.044448
    18  H    0.017430
    19  N   -0.279121
    20  C    0.223525
    21  C    0.198316
    22  N   -0.111011
    23  H    0.118987
    24  H    0.117192
    25  N   -0.288185
    26  C    0.214636
    27  N   -0.121564
    28  H    0.113315
    29  C    0.171670
    30  O   -0.321325
    31  C    0.002163
    32  N   -0.214543
    33  C    0.107456
    34  H    0.016687
    35  H   -0.006582
    36  H    0.031901
    37  H    0.022312
    38  H    0.052795
    39  H    0.051026
    40  H    0.072991
    41  H    0.025055
    42  C   -0.103913
    43  O   -0.268599
    44  C    0.169506
    45  H    0.129341
    46  N   -0.111913
    47  O   -0.334061
    48  C    0.326791
    49  H    0.044217
    50  C    0.168337
    51  C    0.046710
    52  N   -0.272465
    53  H    0.037864
    54  H    0.043383
    55  H    0.025474
    56  H    0.123904
    57  H    0.119495
    58  N   -0.060266
    59  C    0.097541
    60  C    0.166378
    61  N   -0.245617
    62  H    0.016274
    63  C    0.161475
    64  N   -0.295329
    65  H    0.035944
    66  C    0.114612
    67  N   -0.246698
    68  C    0.064158
    69  C    0.175405
    70  N   -0.297375
 Sum of Mulliken charges =  -0.00000
 Mulliken charges with hydrogens summed into heavy atoms:
               1
     1  N   -0.300884
     2  C    0.263236
     3  C    0.082526
     4  N   -0.253633
     5  C    0.159800
     7  N   -0.283160
     8  C    0.146918
    10  N   -0.280703
    11  C    0.213991
    12  C    0.076805
    13  N    0.146835
    19  N   -0.279121
    20  C    0.223525
    21  C    0.245946
    22  N    0.125168
    25  N   -0.288185
    26  C    0.214636
    27  N   -0.008249
    29  C    0.171670
    30  O   -0.321325
    31  C    0.002163
    32  N   -0.214543
    33  C    0.124144
    42  C   -0.078858
    43  O   -0.268599
    44  C    0.169506
    46  N    0.017428
    47  O   -0.334061
    48  C    0.326791
    50  C    0.212554
    51  C    0.223521
    52  N   -0.272465
    58  N    0.183132
    59  C    0.097541
    60  C    0.166378
    61  N   -0.245617
    63  C    0.177749
    64  N   -0.295329
    66  C    0.150556
    67  N   -0.246698
    68  C    0.064158
    69  C    0.282127
    70  N   -0.297375
 Electronic spatial extent (au):  <R**2>=          21636.3417
 Charge=             -0.0000 electrons
 Dipole moment (field-independent basis, Debye):
    X=             -5.6503    Y=              6.7604    Z=             -4.0996  Tot=              9.7178
 Quadrupole moment (field-independent basis, Debye-Ang):
   XX=           -148.6487   YY=           -227.6147   ZZ=           -260.9824
   XY=             -8.9813   XZ=             -0.6937   YZ=             12.1156
 Traceless Quadrupole moment (field-independent basis, Debye-Ang):
   XX=             63.7666   YY=            -15.1994   ZZ=            -48.5672
   XY=             -8.9813   XZ=             -0.6937   YZ=             12.1156
 Octapole moment (field-independent basis, Debye-Ang**2):
  XXX=             92.0437  YYY=             69.3343  ZZZ=            -14.0271  XYY=            -76.4911
  XXY=             94.8029  XXZ=            -14.8897  XZZ=            -33.9351  YZZ=             39.3748
  YYZ=            -67.9415  XYZ=             31.5039
 Hexadecapole moment (field-independent basis, Debye-Ang**3):
 XXXX=         -16142.6839 YYYY=          -3772.0340 ZZZZ=          -3551.2015 XXXY=           -671.1016
 XXXZ=           -109.5573 YYYX=             50.1563 YYYZ=             84.7026 ZZZX=             -8.0952
 ZZZY=             46.7654 XXYY=          -3740.5163 XXZZ=          -3982.4560 YYZZ=          -1336.6911
 XXYZ=            -57.8255 YYXZ=            151.8953 ZZXY=            -63.0698
 N-N= 5.654708643735D+03 E-N=-1.608990618482D+04  KE= 2.038010152787D+03
 No NMR shielding tensors so no spin-rotation constants.
 Leave Link  601 at Fri Jan 19 18:34:58 2018, MaxMem=  4294967296 cpu:              48.3 elap:               1.7
 (Enter /share/apps/g16/l9999.exe)
 1\1\GINC-COMPUTE-0-3\SP\RwB97XD\CC-pVDZ\C23H27N17O3\SATYA\19-Jan-2018\
 0\\#p wb97xd/cc-pvdz sp scf=(maxcycles=20)\\Base pair stacking\\0,1\N,
 0,0.65838,4.6149,-6.47561\C,0,0.66642,6.08152,-6.31134\C,0,0.06198,2.4
 9792,-6.47145\N,0,1.34554,2.53848,-6.99638\C,0,1.65348,3.81226,-6.9778
 7\H,0,2.6019,4.22589,-7.32189\N,0,-2.03134,1.73796,-5.69466\C,0,-2.313
 13,3.01829,-5.43211\H,0,-3.2985,3.19939,-5.00489\N,0,-1.56399,4.10338,
 -5.61719\C,0,-0.37491,3.77018,-6.14584\C,0,-0.82676,1.43542,-6.2262\N,
 0,-0.54362,0.15794,-6.48899\H,0,0.3358,-0.112,-6.88265\H,0,-1.20053,-0
 .57243,-6.30143\H,0,0.79502,6.51738,-7.20222\H,0,-0.20344,6.37844,-5.9
 1854\H,0,1.41335,6.34662,-5.70158\N,0,-0.15424,4.43763,-3.09182\C,0,-0
 .87162,3.27337,-2.95791\C,0,-0.71151,5.80091,-2.98412\N,0,-3.88723,1.6
 4703,-2.38971\H,0,-4.21748,0.70551,-2.32873\H,0,-4.56233,2.3739,-2.260
 74\N,0,-2.19548,3.17994,-2.70746\C,0,-2.59724,1.92347,-2.63345\N,0,-1.
 76761,0.83995,-2.79225\H,0,-2.16198,-0.0853,-2.7191\C,0,-0.40237,0.912
 51,-3.05057\O,0,0.25653,-0.12701,-3.17698\C,0,0.04388,2.256,-3.13286\N
 ,0,1.31053,2.77118,-3.3718\C,0,1.1448,4.06564,-3.33832\H,0,1.93943,4.7
 9747,-3.48756\H,0,-0.56345,6.29204,-3.84184\H,0,-1.69165,5.74436,-2.79
 868\H,0,-0.25991,6.28944,-2.23832\H,0,-4.8487,-4.39912,-2.87776\H,0,-4
 .29663,-4.56023,-1.21225\H,0,-4.57669,-2.95877,-1.89655\H,0,-0.34082,-
 5.92295,-3.58736\C,0,-0.87023,-5.0074,-3.32331\O,0,0.97071,-3.58812,-3
 .79624\C,0,-0.19182,-3.75165,-3.42671\H,0,-0.50699,-1.7516,-3.12878\N,
 0,-0.95207,-2.65659,-3.06879\O,0,-2.84564,-1.63493,-2.34229\C,0,-2.254
 86,-2.65898,-2.63718\H,0,-2.70147,-5.97093,-2.80951\C,0,-2.14098,-5.04
 195,-2.90543\C,0,-4.23199,-3.96014,-2.10767\N,0,-2.84029,-3.90763,-2.5
 6391\H,0,-7.7038,-3.56741,-4.15889\H,0,-6.76642,-2.5108,-3.34221\H,0,-
 6.92363,-4.04482,-2.80729\H,0,-0.87943,-3.45628,-7.07113\H,0,-1.83709,
 -4.86693,-7.01597\N,0,-1.71121,-3.9102,-6.75135\C,0,-2.61307,-3.26908,
 -6.00517\C,0,-4.63563,-3.06868,-4.7679\N,0,-4.44025,-1.78394,-4.42776\
 H,0,-3.05497,-0.29879,-4.70332\C,0,-3.29208,-1.33684,-4.93244\N,0,-2.3
 8744,-1.9774,-5.68003\H,0,-6.14576,-5.92409,-4.90331\C,0,-5.45214,-5.0
 8945,-5.00921\N,0,-4.32498,-5.13724,-5.67621\C,0,-3.79726,-3.86239,-5.
 53125\C,0,-6.86726,-3.46551,-3.62055\N,0,-5.70325,-3.86776,-4.43375\\V
 ersion=EM64L-G16RevA.03\State=1-A\HF=-2048.7196637\RMSD=7.841e-09\Dipo
 le=-3.7372137,-0.7236156,0.3563714\Quadrupole=-12.0547951,30.6961496,-
 18.6413546,30.1887062,-18.1067592,-2.9672879\PG=C01 [X(C23H27N17O3)]\\
 @


 In the race for quality, there is no finish line.
                               -- David T. Kearns
 Job cpu time:       0 days  6 hours 39 minutes  5.9 seconds.
 Elapsed time:       0 days  0 hours 12 minutes 55.2 seconds.
 File lengths (MBytes):  RWF=    298 Int=      0 D2E=      0 Chk=     33 Scr=      1
 Normal termination of Gaussian 16 at Fri Jan 19 18:34:59 2018.
