 Entering Gaussian System, Link 0=g16
 Input=str20.20.-2.5.com
 Output=str20.20.-2.5.log
 Initial command:
 /share/apps/g16/l1.exe "/state/partition1/scr/Gau-29627.inp" -scrdir="/state/partition1/scr/"
 Entering Link 1 = /share/apps/g16/l1.exe PID=     29628.
  
 Copyright (c) 1988,1990,1992,1993,1995,1998,2003,2009,2016,
            Gaussian, Inc.  All Rights Reserved.
  
 This is part of the Gaussian(R) 16 program.  It is based on
 the Gaussian(R) 09 system (copyright 2009, Gaussian, Inc.),
 the Gaussian(R) 03 system (copyright 2003, Gaussian, Inc.),
 the Gaussian(R) 98 system (copyright 1998, Gaussian, Inc.),
 the Gaussian(R) 94 system (copyright 1995, Gaussian, Inc.),
 the Gaussian 92(TM) system (copyright 1992, Gaussian, Inc.),
 the Gaussian 90(TM) system (copyright 1990, Gaussian, Inc.),
 the Gaussian 88(TM) system (copyright 1988, Gaussian, Inc.),
 the Gaussian 86(TM) system (copyright 1986, Carnegie Mellon
 University), and the Gaussian 82(TM) system (copyright 1983,
 Carnegie Mellon University). Gaussian is a federally registered
 trademark of Gaussian, Inc.
  
 This software contains proprietary and confidential information,
 including trade secrets, belonging to Gaussian, Inc.
  
 This software is provided under written license and may be
 used, copied, transmitted, or stored only in accord with that
 written license.
  
 The following legend is applicable only to US Government
 contracts under FAR:
  
                    RESTRICTED RIGHTS LEGEND
  
 Use, reproduction and disclosure by the US Government is
 subject to restrictions as set forth in subparagraphs (a)
 and (c) of the Commercial Computer Software - Restricted
 Rights clause in FAR 52.227-19.
  
 Gaussian, Inc.
 340 Quinnipiac St., Bldg. 40, Wallingford CT 06492
  
  
 ---------------------------------------------------------------
 Warning -- This program may not be used in any manner that
 competes with the business of Gaussian, Inc. or will provide
 assistance to any competitor of Gaussian, Inc.  The licensee
 of this program is prohibited from giving any competitor of
 Gaussian, Inc. access to this program.  By using this program,
 the user acknowledges that Gaussian, Inc. is engaged in the
 business of creating and licensing software in the field of
 computational chemistry and represents and warrants to the
 licensee that it is not a competitor of Gaussian, Inc. and that
 it will not use this program in any manner prohibited above.
 ---------------------------------------------------------------
  

 Cite this work as:
 Gaussian 16, Revision A.03,
 M. J. Frisch, G. W. Trucks, H. B. Schlegel, G. E. Scuseria, 
 M. A. Robb, J. R. Cheeseman, G. Scalmani, V. Barone, 
 G. A. Petersson, H. Nakatsuji, X. Li, M. Caricato, A. V. Marenich, 
 J. Bloino, B. G. Janesko, R. Gomperts, B. Mennucci, H. P. Hratchian, 
 J. V. Ortiz, A. F. Izmaylov, J. L. Sonnenberg, D. Williams-Young, 
 F. Ding, F. Lipparini, F. Egidi, J. Goings, B. Peng, A. Petrone, 
 T. Henderson, D. Ranasinghe, V. G. Zakrzewski, J. Gao, N. Rega, 
 G. Zheng, W. Liang, M. Hada, M. Ehara, K. Toyota, R. Fukuda, 
 J. Hasegawa, M. Ishida, T. Nakajima, Y. Honda, O. Kitao, H. Nakai, 
 T. Vreven, K. Throssell, J. A. Montgomery, Jr., J. E. Peralta, 
 F. Ogliaro, M. J. Bearpark, J. J. Heyd, E. N. Brothers, K. N. Kudin, 
 V. N. Staroverov, T. A. Keith, R. Kobayashi, J. Normand, 
 K. Raghavachari, A. P. Rendell, J. C. Burant, S. S. Iyengar, 
 J. Tomasi, M. Cossi, J. M. Millam, M. Klene, C. Adamo, R. Cammi, 
 J. W. Ochterski, R. L. Martin, K. Morokuma, O. Farkas, 
 J. B. Foresman, and D. J. Fox, Gaussian, Inc., Wallingford CT, 2016.
 
 ******************************************
 Gaussian 16:  EM64L-G16RevA.03 25-Dec-2016
                20-Jan-2018 
 ******************************************
 %nprocshared=32
 Will use up to   32 processors via shared memory.
 %mem=32GB
 %chk=allatoms_t.chk
 ---------------------------------------
 #p wb97xd/cc-pvdz sp scf=(maxcycles=20)
 ---------------------------------------
 1/38=1,172=1/1;
 2/12=2,17=6,18=5,40=1/2;
 3/5=16,11=2,25=1,30=1,74=-58/1,2,3;
 4//1;
 5/5=2,7=20,38=5/2;
 6/7=2,8=2,9=2,10=2,28=1/1;
 99/5=1,9=1/99;
 Leave Link    1 at Sat Jan 20 02:17:05 2018, MaxMem=  4294967296 cpu:               2.7 elap:               0.1
 (Enter /share/apps/g16/l101.exe)
 ------------------
 Base pair stacking
 ------------------
 Symbolic Z-matrix:
 Charge =  0 Multiplicity = 1
 N                     6.36957   9.37654  -5.07373 
 C                     6.54967   10.78557  -5.47399 
 C                     5.63512   7.30964  -4.91308 
 N                     6.68135   7.42112  -4.0088 
 C                     7.08195   8.66189  -4.14178 
 H                     7.90041   9.11275  -3.57983 
 N                     3.84675   6.46145  -6.19575 
 C                     3.76965   7.67518  -6.75116 
 H                     2.9916    7.79344  -7.50411 
 N                     4.50589   8.75967  -6.51723 
 C                     5.43123   8.50685  -5.57687 
 C                     4.78829   6.23895  -5.25284 
 N                     4.86682   5.02803  -4.69725 
 H                     5.54839   4.81847  -3.99528 
 H                     4.2474    4.28944  -4.96359 
 H                     7.47216   10.9148  -5.83799 
 H                     5.87904   11.02158  -6.17661 
 H                     6.42051   11.37904  -4.67957 
 N                     1.4       7.33634  -3.3078 
 C                     0.6919    6.17178  -3.48231 
 C                     0.92224   8.68748  -3.66401 
 N                    -2.18048   4.52697  -4.53387 
 H                    -2.51937   3.58744  -4.57475 
 H                    -2.78873   5.24397  -4.87543 
 N                    -0.54929   6.06698  -4.00433 
 C                    -0.96512   4.81351  -4.04325 
 N                    -0.2237    3.74312  -3.60499 
 H                    -0.62206   2.8192   -3.67317 
 C                     1.05553   3.82753  -3.06434 
 O                     1.63867   2.79937  -2.69886 
 C                     1.51575   5.16796  -3.01604 
 N                     2.71689   5.69177  -2.55801 
 C                     2.60315   6.97795  -2.75045 
 H                     3.3697    7.71305  -2.50287 
 H                     1.53894   9.09419  -4.33712 
 H                     0.0037    8.62244  -4.05172 
 H                     0.89762   9.26063  -2.84566 
 H                    -2.90475  -1.56213  -4.87563 
 H                    -3.37954  -1.5402   -3.17894 
 H                    -3.17832  -0.02375  -4.05716 
 H                     1.18151  -3.02293  -2.79835 
 C                     0.6251   -2.10068  -2.96598 
 O                     2.46281  -0.68506  -2.47003 
 C                     1.28686  -0.84316  -2.79706 
 H                     0.92494   1.1671   -2.92433 
 N                     0.49249   0.26059  -3.03362 
 O                    -1.45009   1.29661  -3.59062 
 C                    -0.82914   0.26507  -3.40352 
 H                    -1.21236  -3.05866  -3.46778 
 C                    -0.66334  -2.12868  -3.32617 
 C                    -2.80749  -1.03121  -3.94036 
 N                    -1.39671  -0.98582  -3.54617 
 H                    -1.21232   0.97922  -8.84778 
 H                    -1.26172   2.40882  -8.06299 
 H                    -2.12816   1.1423   -7.50686 
 H                     4.43234   1.43503  -4.0524 
 H                     3.64274  -0.03365  -4.41242 
 N                     3.67915   0.9616   -4.50925 
 C                     2.76348   1.62691  -5.21642 
 C                     0.81808   1.83206  -6.57106 
 N                     0.89207   3.16855  -6.68394 
 H                     2.08277   4.7154   -6.05936 
 C                     1.94744   3.63541  -6.01976 
 N                     2.86571   2.97068  -5.31089 
 H                    -0.3719   -1.14011  -7.02083 
 C                     0.21633  -0.27093  -6.72511 
 N                     1.29492  -0.31881  -5.98212 
 C                     1.68655   1.00793  -5.87672 
 C                    -1.27443   1.41572  -7.95023 
 N                    -0.12976   0.99926  -7.11699 
 
 ITRead=  0  0  0  0  0  0  0  0  0  0  0  0  0  0  0  0  0  0  0  0
 ITRead=  0  0  0  0  0  0  0  0  0  0  0  0  0  0  0  0  0  0  0  0
 ITRead=  0  0  0  0  0  0  0  0  0  0  0  0  0  0  0  0  0  0  0  0
 ITRead=  0  0  0  0  0  0  0  0  0  0
 MicOpt= -1 -1 -1 -1 -1 -1 -1 -1 -1 -1 -1 -1 -1 -1 -1 -1 -1 -1 -1 -1
 MicOpt= -1 -1 -1 -1 -1 -1 -1 -1 -1 -1 -1 -1 -1 -1 -1 -1 -1 -1 -1 -1
 MicOpt= -1 -1 -1 -1 -1 -1 -1 -1 -1 -1 -1 -1 -1 -1 -1 -1 -1 -1 -1 -1
 MicOpt= -1 -1 -1 -1 -1 -1 -1 -1 -1 -1
 NAtoms=     70 NQM=       70 NQMF=       0 NMMI=      0 NMMIF=      0
                NMic=       0 NMicF=      0.
                    Isotopes and Nuclear Properties:
 (Nuclear quadrupole moments (NQMom) in fm**2, nuclear magnetic moments (NMagM)
  in nuclear magnetons)

  Atom         1           2           3           4           5           6           7           8           9          10
 IAtWgt=          14          12          12          14          12           1          14          12           1          14
 AtmWgt=  14.0030740  12.0000000  12.0000000  14.0030740  12.0000000   1.0078250  14.0030740  12.0000000   1.0078250  14.0030740
 NucSpn=           2           0           0           2           0           1           2           0           1           2
 AtZEff=  -0.0000000  -0.0000000  -0.0000000  -0.0000000  -0.0000000  -0.0000000  -0.0000000  -0.0000000  -0.0000000  -0.0000000
 NQMom=    2.0440000   0.0000000   0.0000000   2.0440000   0.0000000   0.0000000   2.0440000   0.0000000   0.0000000   2.0440000
 NMagM=    0.4037610   0.0000000   0.0000000   0.4037610   0.0000000   2.7928460   0.4037610   0.0000000   2.7928460   0.4037610
 AtZNuc=   7.0000000   6.0000000   6.0000000   7.0000000   6.0000000   1.0000000   7.0000000   6.0000000   1.0000000   7.0000000

  Atom        11          12          13          14          15          16          17          18          19          20
 IAtWgt=          12          12          14           1           1           1           1           1          14          12
 AtmWgt=  12.0000000  12.0000000  14.0030740   1.0078250   1.0078250   1.0078250   1.0078250   1.0078250  14.0030740  12.0000000
 NucSpn=           0           0           2           1           1           1           1           1           2           0
 AtZEff=  -0.0000000  -0.0000000  -0.0000000  -0.0000000  -0.0000000  -0.0000000  -0.0000000  -0.0000000  -0.0000000  -0.0000000
 NQMom=    0.0000000   0.0000000   2.0440000   0.0000000   0.0000000   0.0000000   0.0000000   0.0000000   2.0440000   0.0000000
 NMagM=    0.0000000   0.0000000   0.4037610   2.7928460   2.7928460   2.7928460   2.7928460   2.7928460   0.4037610   0.0000000
 AtZNuc=   6.0000000   6.0000000   7.0000000   1.0000000   1.0000000   1.0000000   1.0000000   1.0000000   7.0000000   6.0000000

  Atom        21          22          23          24          25          26          27          28          29          30
 IAtWgt=          12          14           1           1          14          12          14           1          12          16
 AtmWgt=  12.0000000  14.0030740   1.0078250   1.0078250  14.0030740  12.0000000  14.0030740   1.0078250  12.0000000  15.9949146
 NucSpn=           0           2           1           1           2           0           2           1           0           0
 AtZEff=  -0.0000000  -0.0000000  -0.0000000  -0.0000000  -0.0000000  -0.0000000  -0.0000000  -0.0000000  -0.0000000  -0.0000000
 NQMom=    0.0000000   2.0440000   0.0000000   0.0000000   2.0440000   0.0000000   2.0440000   0.0000000   0.0000000   0.0000000
 NMagM=    0.0000000   0.4037610   2.7928460   2.7928460   0.4037610   0.0000000   0.4037610   2.7928460   0.0000000   0.0000000
 AtZNuc=   6.0000000   7.0000000   1.0000000   1.0000000   7.0000000   6.0000000   7.0000000   1.0000000   6.0000000   8.0000000

  Atom        31          32          33          34          35          36          37          38          39          40
 IAtWgt=          12          14          12           1           1           1           1           1           1           1
 AtmWgt=  12.0000000  14.0030740  12.0000000   1.0078250   1.0078250   1.0078250   1.0078250   1.0078250   1.0078250   1.0078250
 NucSpn=           0           2           0           1           1           1           1           1           1           1
 AtZEff=  -0.0000000  -0.0000000  -0.0000000  -0.0000000  -0.0000000  -0.0000000  -0.0000000  -0.0000000  -0.0000000  -0.0000000
 NQMom=    0.0000000   2.0440000   0.0000000   0.0000000   0.0000000   0.0000000   0.0000000   0.0000000   0.0000000   0.0000000
 NMagM=    0.0000000   0.4037610   0.0000000   2.7928460   2.7928460   2.7928460   2.7928460   2.7928460   2.7928460   2.7928460
 AtZNuc=   6.0000000   7.0000000   6.0000000   1.0000000   1.0000000   1.0000000   1.0000000   1.0000000   1.0000000   1.0000000

  Atom        41          42          43          44          45          46          47          48          49          50
 IAtWgt=           1          12          16          12           1          14          16          12           1          12
 AtmWgt=   1.0078250  12.0000000  15.9949146  12.0000000   1.0078250  14.0030740  15.9949146  12.0000000   1.0078250  12.0000000
 NucSpn=           1           0           0           0           1           2           0           0           1           0
 AtZEff=  -0.0000000  -0.0000000  -0.0000000  -0.0000000  -0.0000000  -0.0000000  -0.0000000  -0.0000000  -0.0000000  -0.0000000
 NQMom=    0.0000000   0.0000000   0.0000000   0.0000000   0.0000000   2.0440000   0.0000000   0.0000000   0.0000000   0.0000000
 NMagM=    2.7928460   0.0000000   0.0000000   0.0000000   2.7928460   0.4037610   0.0000000   0.0000000   2.7928460   0.0000000
 AtZNuc=   1.0000000   6.0000000   8.0000000   6.0000000   1.0000000   7.0000000   8.0000000   6.0000000   1.0000000   6.0000000

  Atom        51          52          53          54          55          56          57          58          59          60
 IAtWgt=          12          14           1           1           1           1           1          14          12          12
 AtmWgt=  12.0000000  14.0030740   1.0078250   1.0078250   1.0078250   1.0078250   1.0078250  14.0030740  12.0000000  12.0000000
 NucSpn=           0           2           1           1           1           1           1           2           0           0
 AtZEff=  -0.0000000  -0.0000000  -0.0000000  -0.0000000  -0.0000000  -0.0000000  -0.0000000  -0.0000000  -0.0000000  -0.0000000
 NQMom=    0.0000000   2.0440000   0.0000000   0.0000000   0.0000000   0.0000000   0.0000000   2.0440000   0.0000000   0.0000000
 NMagM=    0.0000000   0.4037610   2.7928460   2.7928460   2.7928460   2.7928460   2.7928460   0.4037610   0.0000000   0.0000000
 AtZNuc=   6.0000000   7.0000000   1.0000000   1.0000000   1.0000000   1.0000000   1.0000000   7.0000000   6.0000000   6.0000000

  Atom        61          62          63          64          65          66          67          68          69          70
 IAtWgt=          14           1          12          14           1          12          14          12          12          14
 AtmWgt=  14.0030740   1.0078250  12.0000000  14.0030740   1.0078250  12.0000000  14.0030740  12.0000000  12.0000000  14.0030740
 NucSpn=           2           1           0           2           1           0           2           0           0           2
 AtZEff=  -0.0000000  -0.0000000  -0.0000000  -0.0000000  -0.0000000  -0.0000000  -0.0000000  -0.0000000  -0.0000000  -0.0000000
 NQMom=    2.0440000   0.0000000   0.0000000   2.0440000   0.0000000   0.0000000   2.0440000   0.0000000   0.0000000   2.0440000
 NMagM=    0.4037610   2.7928460   0.0000000   0.4037610   2.7928460   0.0000000   0.4037610   0.0000000   0.0000000   0.4037610
 AtZNuc=   7.0000000   1.0000000   6.0000000   7.0000000   1.0000000   6.0000000   7.0000000   6.0000000   6.0000000   7.0000000
 Leave Link  101 at Sat Jan 20 02:17:06 2018, MaxMem=  4294967296 cpu:               6.8 elap:               0.2
 (Enter /share/apps/g16/l202.exe)
 Stoichiometry    C23H27N17O3
 Framework group  C1[X(C23H27N17O3)]
 Deg. of freedom   204
 Full point group                 C1      NOp   1
 Largest Abelian subgroup         C1      NOp   1
 Largest concise Abelian subgroup C1      NOp   1
                         Standard orientation:                         
 ---------------------------------------------------------------------
 Center     Atomic      Atomic             Coordinates (Angstroms)
 Number     Number       Type             X           Y           Z
 ---------------------------------------------------------------------
      1          7           0       -7.169179   -0.928314    0.050360
      2          6           0       -8.481544   -0.367979    0.426835
      3          6           0       -5.019624   -1.386393   -0.032577
      4          7           0       -5.616014   -2.140574   -1.032716
      5          6           0       -6.887170   -1.834408   -0.942719
      6          1           0       -7.670239   -2.243820   -1.581565
      7          7           0       -3.427793   -0.423801    1.417397
      8          6           0       -4.447410    0.238566    1.973468
      9          1           0       -4.178985    0.899321    2.796652
     10          7           0       -5.742741    0.207418    1.666809
     11          6           0       -5.964347   -0.634124    0.643507
     12          6           0       -3.683522   -1.262823    0.389911
     13          7           0       -2.667032   -1.924901   -0.166485
     14          1           0       -2.809942   -2.556340   -0.929424
     15          1           0       -1.728527   -1.812379    0.160133
     16          1           0       -9.095412   -1.108400    0.700927
     17          1           0       -8.366877    0.268130    1.189290
     18          1           0       -8.875356    0.117464   -0.353709
     19          7           0       -2.731322    2.335122   -1.227512
     20          6           0       -1.379631    2.304883   -0.982408
     21          6           0       -3.646473    3.424545   -0.832067
     22          7           0        1.470580    3.781443    0.343418
     23          1           0        2.444273    3.568476    0.419585
     24          1           0        1.163244    4.647400    0.738871
     25          7           0       -0.666134    3.257628   -0.344255
     26          6           0        0.614669    2.944046   -0.261641
     27          7           0        1.157234    1.786487   -0.764821
     28          1           0        2.147473    1.629886   -0.655870
     29          6           0        0.442051    0.792283   -1.425070
     30          8           0        1.028067   -0.214906   -1.840879
     31          6           0       -0.935420    1.115009   -1.521545
     32          7           0       -1.987062    0.412382   -2.093620
     33          6           0       -3.029645    1.172678   -1.895629
     34          1           0       -4.043504    0.932441   -2.217565
     35          1           0       -4.351694    3.064784   -0.222112
     36          1           0       -3.129154    4.136124   -0.358462
     37          1           0       -4.076696    3.812764   -1.646314
     38          1           0        7.003406    1.150577    0.773400
     39          1           0        7.324508    1.697655   -0.870456
     40          1           0        5.884419    2.259100   -0.020571
     41          1           0        6.206859   -2.911531   -1.678404
     42          6           0        5.707246   -1.967245   -1.461728
     43          8           0        3.565839   -2.734016   -2.135196
     44          6           0        4.300676   -1.849169   -1.697174
     45          1           0        2.777150   -0.491451   -1.542910
     46          7           0        3.768335   -0.613284   -1.389851
     47          8           0        3.879868    1.532249   -0.654016
     48          6           0        4.439400    0.477212   -0.895843
     49          1           0        7.459620   -0.959428   -0.784025
     50          6           0        6.388966   -0.921198   -0.980434
     51          6           0        6.551208    1.422688   -0.168692
     52          7           0        5.792239    0.285082   -0.695536
     53          1           0        3.744894    0.748119    4.557694
     54          1           0        2.598679    1.607001    3.776284
     55          1           0        4.159005    1.714517    3.309491
     56          1           0        0.646472   -3.404388   -0.754752
     57          1           0        2.289364   -3.541017   -0.316183
     58          7           0        1.419994   -3.053774   -0.226664
     59          6           0        1.298663   -1.984106    0.562176
     60          6           0        2.074777   -0.338081    2.095136
     61          7           0        0.895051    0.296361    2.195887
     62          1           0       -1.010934    0.156079    1.455513
     63          6           0       -0.020668   -0.296814    1.432670
     64          7           0        0.098894   -1.368239    0.641888
     65          1           0        5.199948   -0.937429    2.666303
     66          6           0        4.168508   -0.952283    2.312961
     67          7           0        3.681853   -1.830741    1.470843
     68          6           0        2.355087   -1.452744    1.324104
     69          6           0        3.454616    1.102115    3.668644
     70          7           0        3.251002   -0.019756    2.731657
 ---------------------------------------------------------------------
 Rotational constants (GHZ):           0.1677698           0.0469504           0.0446551
 Leave Link  202 at Sat Jan 20 02:17:06 2018, MaxMem=  4294967296 cpu:               0.4 elap:               0.0
 (Enter /share/apps/g16/l301.exe)
 Standard basis: CC-pVDZ (5D, 7F)
 Ernie: Thresh=  0.10000D-02 Tol=  0.10000D-05 Strict=F.
 Ernie:  86 primitive shells out of 1081 were deleted.
 There are   780 symmetry adapted cartesian basis functions of A   symmetry.
 There are   737 symmetry adapted basis functions of A   symmetry.
   737 basis functions,  1608 primitive gaussians,   780 cartesian basis functions
   154 alpha electrons      154 beta electrons
       nuclear repulsion energy      5435.1941631285 Hartrees.
 IExCor= 4639 DFT=T Ex+Corr=wB97XD ExCW=0 ScaHFX=  1.000000
 ScaDFX=  1.000000  1.000000  1.000000  1.000000 ScalE2=  1.000000  1.000000
 IRadAn=      5 IRanWt=     -1 IRanGd=            0 ICorTp=0 IEmpDi=121
 HFx  wShort=  0.000000 wLong=  0.200000 cFull=  0.222036 cShort=  0.000000 cLong=  0.777964
 DFx  wShort=  0.000000 wLong=  0.200000 cFull=  0.000000 cShort=  0.000000 cLong=  1.000000
 NAtoms=   70 NActive=   70 NUniq=   70 SFac= 1.00D+00 NAtFMM=   60 NAOKFM=T Big=T
 Integral buffers will be    131072 words long.
 Raffenetti 2 integral format.
 Two-electron integral symmetry is turned on.
 R6Disp:  Grimme-D2 Dispersion energy=       -0.0679335083 Hartrees.
 Nuclear repulsion after empirical dispersion term =     5435.1262296202 Hartrees.
 Leave Link  301 at Sat Jan 20 02:17:06 2018, MaxMem=  4294967296 cpu:               2.1 elap:               0.1
 (Enter /share/apps/g16/l302.exe)
 NPDir=0 NMtPBC=     1 NCelOv=     1 NCel=       1 NClECP=     1 NCelD=      1
         NCelK=      1 NCelE2=     1 NClLst=     1 CellRange=     0.0.
 One-electron integrals computed using PRISM.
 One-electron integral symmetry used in STVInt
 NBasis=   737 RedAO= T EigKep=  7.17D-04  NBF=   737
 NBsUse=   737 1.00D-06 EigRej= -1.00D+00 NBFU=   737
 Precomputing XC quadrature grid using
 IXCGrd= 4 IRadAn=           5 IRanWt=          -1 IRanGd=           0 AccXCQ= 0.00D+00.
 Generated NRdTot=       0 NPtTot=           0 NUsed=           0 NTot=          32
 NSgBfM=   754   751   751   752   754 MxSgAt=    70 MxSgA2=    70.
 Leave Link  302 at Sat Jan 20 02:17:10 2018, MaxMem=  4294967296 cpu:             133.7 elap:               4.2
 (Enter /share/apps/g16/l303.exe)
 DipDrv:  MaxL=1.
 Leave Link  303 at Sat Jan 20 02:17:10 2018, MaxMem=  4294967296 cpu:              12.4 elap:               0.4
 (Enter /share/apps/g16/l401.exe)
 ExpMin= 1.22D-01 ExpMax= 1.17D+04 ExpMxC= 4.01D+02 IAcc=3 IRadAn=         5 AccDes= 0.00D+00
 Harris functional with IExCor= 4639 and IRadAn=       5 diagonalized for initial guess.
 HarFok:  IExCor= 4639 AccDes= 0.00D+00 IRadAn=         5 IDoV= 1 UseB2=F ITyADJ=14
 ICtDFT=  3500011 ScaDFX=  1.000000  1.000000  1.000000  1.000000
 FoFCou: FMM=F IPFlag=           0 FMFlag=      100000 FMFlg1=        2001
         NFxFlg=           0 DoJE=T BraDBF=F KetDBF=T FulRan=T
         wScrn=  0.000000 ICntrl=       500 IOpCl=  0 I1Cent=   200000004 NGrid=           0
         NMat0=    1 NMatS0=      1 NMatT0=    0 NMatD0=    1 NMtDS0=    0 NMtDT0=    0
 Petite list used in FoFCou.
 Harris En= -1963.88465191668    
 JPrj=0 DoOrth=F DoCkMO=F.
 Leave Link  401 at Sat Jan 20 02:17:23 2018, MaxMem=  4294967296 cpu:             392.1 elap:              12.3
 (Enter /share/apps/g16/l502.exe)
 Integral symmetry usage will be decided dynamically.
 Closed shell SCF:
 Using DIIS extrapolation, IDIIS=  1040.
 NGot=  4294967296 LenX=  4293717438 LenY=  4293108258
 Requested convergence on RMS density matrix=1.00D-08 within  20 cycles.
 Requested convergence on MAX density matrix=1.00D-06.
 Requested convergence on             energy=1.00D-06.
 No special actions if energy rises.
 Fock matrices will be formed incrementally for  20 cycles.
 Integral accuracy reduced to 1.0D-05 until final iterations.

 Cycle   1  Pass 0  IDiag  1:
 FoFJK:  IHMeth= 1 ICntrl=       0 DoSepK=T KAlg= 0 I1Cent=           0 FoldK=F
 IRaf=         1 NMat=       1 IRICut=       1 DoRegI=T DoRafI=F ISym2E= 0 IDoP0=0 IntGTp=1.
 FoFCou: FMM=T IPFlag=           0 FMFlag=      100000 FMFlg1=        2001
         NFxFlg=           0 DoJE=T BraDBF=F KetDBF=F FulRan=T
         wScrn=  0.000000 ICntrl=       500 IOpCl=  0 I1Cent=           0 NGrid=           0
         NMat0=    1 NMatS0=      1 NMatT0=    0 NMatD0=    1 NMtDS0=    0 NMtDT0=    0
 Symmetry not used in FoFCou.
 FMM levels:  10  Number of levels for PrismC:   9
 E= -2048.31636079806    
 DIIS: error= 2.48D-02 at cycle   1 NSaved=   1.
 NSaved= 1 IEnMin= 1 EnMin= -2048.31636079806     IErMin= 1 ErrMin= 2.48D-02
 ErrMax= 2.48D-02  0.00D+00 EMaxC= 1.00D-01 BMatC= 8.34D-01 BMatP= 8.34D-01
 IDIUse=3 WtCom= 7.52D-01 WtEn= 2.48D-01
 Coeff-Com:  0.100D+01
 Coeff-En:   0.100D+01
 Coeff:      0.100D+01
 Gap=     0.256 Goal=   None    Shift=    0.000
 GapD=    0.256 DampG=1.000 DampE=0.500 DampFc=0.5000 IDamp=-1.
 Damping current iteration by 5.00D-01
 RMSDP=1.57D-03 MaxDP=1.27D-01              OVMax= 2.02D-01

 Cycle   2  Pass 0  IDiag  1:
 RMSU=  7.85D-04    CP:  9.98D-01
 E= -2048.51282293725     Delta-E=       -0.196462139188 Rises=F Damp=T
 DIIS: error= 1.39D-02 at cycle   2 NSaved=   2.
 NSaved= 2 IEnMin= 2 EnMin= -2048.51282293725     IErMin= 2 ErrMin= 1.39D-02
 ErrMax= 1.39D-02  0.00D+00 EMaxC= 1.00D-01 BMatC= 1.45D-01 BMatP= 8.34D-01
 IDIUse=3 WtCom= 8.61D-01 WtEn= 1.39D-01
 Coeff-Com: -0.190D+00 0.119D+01
 Coeff-En:   0.000D+00 0.100D+01
 Coeff:     -0.164D+00 0.116D+01
 Gap=     0.369 Goal=   None    Shift=    0.000
 RMSDP=5.83D-04 MaxDP=3.36D-02 DE=-1.96D-01 OVMax= 1.55D-01

 Cycle   3  Pass 0  IDiag  1:
 RMSU=  5.75D-04    CP:  9.94D-01  1.11D+00
 E= -2048.69285164347     Delta-E=       -0.180028706221 Rises=F Damp=F
 DIIS: error= 6.55D-03 at cycle   3 NSaved=   3.
 NSaved= 3 IEnMin= 3 EnMin= -2048.69285164347     IErMin= 3 ErrMin= 6.55D-03
 ErrMax= 6.55D-03  0.00D+00 EMaxC= 1.00D-01 BMatC= 6.38D-02 BMatP= 1.45D-01
 IDIUse=3 WtCom= 9.35D-01 WtEn= 6.55D-02
 Coeff-Com: -0.230D+00 0.547D+00 0.683D+00
 Coeff-En:   0.000D+00 0.000D+00 0.100D+01
 Coeff:     -0.215D+00 0.511D+00 0.703D+00
 Gap=     0.282 Goal=   None    Shift=    0.000
 RMSDP=3.60D-04 MaxDP=3.08D-02 DE=-1.80D-01 OVMax= 4.94D-02

 Cycle   4  Pass 0  IDiag  1:
 RMSU=  2.06D-04    CP:  9.94D-01  1.40D+00  6.67D-01
 E= -2048.74193732192     Delta-E=       -0.049085678450 Rises=F Damp=F
 DIIS: error= 2.07D-03 at cycle   4 NSaved=   4.
 NSaved= 4 IEnMin= 4 EnMin= -2048.74193732192     IErMin= 4 ErrMin= 2.07D-03
 ErrMax= 2.07D-03  0.00D+00 EMaxC= 1.00D-01 BMatC= 8.95D-03 BMatP= 6.38D-02
 IDIUse=3 WtCom= 9.79D-01 WtEn= 2.07D-02
 Coeff-Com: -0.960D-01 0.186D+00 0.375D+00 0.535D+00
 Coeff-En:   0.000D+00 0.000D+00 0.599D-01 0.940D+00
 Coeff:     -0.940D-01 0.182D+00 0.369D+00 0.543D+00
 Gap=     0.286 Goal=   None    Shift=    0.000
 RMSDP=1.26D-04 MaxDP=9.87D-03 DE=-4.91D-02 OVMax= 1.52D-02

 Cycle   5  Pass 0  IDiag  1:
 RMSU=  5.95D-05    CP:  9.94D-01  1.37D+00  8.00D-01  6.23D-01
 E= -2048.74946903810     Delta-E=       -0.007531716172 Rises=F Damp=F
 DIIS: error= 4.45D-04 at cycle   5 NSaved=   5.
 NSaved= 5 IEnMin= 5 EnMin= -2048.74946903810     IErMin= 5 ErrMin= 4.45D-04
 ErrMax= 4.45D-04  0.00D+00 EMaxC= 1.00D-01 BMatC= 2.79D-04 BMatP= 8.95D-03
 IDIUse=3 WtCom= 9.96D-01 WtEn= 4.45D-03
 Coeff-Com: -0.249D-01 0.426D-01 0.120D+00 0.235D+00 0.627D+00
 Coeff-En:   0.000D+00 0.000D+00 0.000D+00 0.000D+00 0.100D+01
 Coeff:     -0.248D-01 0.424D-01 0.119D+00 0.234D+00 0.629D+00
 Gap=     0.287 Goal=   None    Shift=    0.000
 RMSDP=2.67D-05 MaxDP=1.60D-03 DE=-7.53D-03 OVMax= 3.14D-03

 Failed to achieve initial convergence to 1.0D-08 in  6 cycles.
 Switch to full accuracy anyway.
 Cycle   6  Pass 1  IDiag  1:
 E= -2048.74970352915     Delta-E=       -0.000234491057 Rises=F Damp=F
 DIIS: error= 1.90D-04 at cycle   1 NSaved=   1.
 NSaved= 1 IEnMin= 1 EnMin= -2048.74970352915     IErMin= 1 ErrMin= 1.90D-04
 ErrMax= 1.90D-04  0.00D+00 EMaxC= 1.00D-01 BMatC= 7.09D-05 BMatP= 7.09D-05
 IDIUse=3 WtCom= 9.98D-01 WtEn= 1.90D-03
 Coeff-Com:  0.100D+01
 Coeff-En:   0.100D+01
 Coeff:      0.100D+01
 Gap=     0.286 Goal=   None    Shift=    0.000
 RMSDP=2.67D-05 MaxDP=1.60D-03 DE=-2.34D-04 OVMax= 2.02D-03

 Cycle   7  Pass 1  IDiag  1:
 RMSU=  1.02D-04    CP:  1.00D+00
 E= -2048.74975417343     Delta-E=       -0.000050644273 Rises=F Damp=F
 DIIS: error= 1.91D-04 at cycle   2 NSaved=   2.
 NSaved= 2 IEnMin= 2 EnMin= -2048.74975417343     IErMin= 1 ErrMin= 1.90D-04
 ErrMax= 1.91D-04  0.00D+00 EMaxC= 1.00D-01 BMatC= 4.34D-05 BMatP= 7.09D-05
 IDIUse=3 WtCom= 9.98D-01 WtEn= 1.91D-03
 Coeff-Com:  0.418D+00 0.582D+00
 Coeff-En:   0.000D+00 0.100D+01
 Coeff:      0.417D+00 0.583D+00
 Gap=     0.287 Goal=   None    Shift=    0.000
 RMSDP=1.15D-05 MaxDP=1.02D-03 DE=-5.06D-05 OVMax= 1.56D-03

 Cycle   8  Pass 1  IDiag  1:
 RMSU=  1.13D-05    CP:  1.00D+00  1.02D+00
 E= -2048.74978635726     Delta-E=       -0.000032183832 Rises=F Damp=F
 DIIS: error= 8.33D-05 at cycle   3 NSaved=   3.
 NSaved= 3 IEnMin= 3 EnMin= -2048.74978635726     IErMin= 3 ErrMin= 8.33D-05
 ErrMax= 8.33D-05  0.00D+00 EMaxC= 1.00D-01 BMatC= 9.42D-06 BMatP= 4.34D-05
 IDIUse=1 WtCom= 1.00D+00 WtEn= 0.00D+00
 Coeff-Com: -0.201D-01 0.303D+00 0.717D+00
 Coeff:     -0.201D-01 0.303D+00 0.717D+00
 Gap=     0.287 Goal=   None    Shift=    0.000
 RMSDP=5.51D-06 MaxDP=3.66D-04 DE=-3.22D-05 OVMax= 6.22D-04

 Cycle   9  Pass 1  IDiag  1:
 RMSU=  3.78D-06    CP:  1.00D+00  1.05D+00  7.72D-01
 E= -2048.74979546466     Delta-E=       -0.000009107400 Rises=F Damp=F
 DIIS: error= 2.54D-05 at cycle   4 NSaved=   4.
 NSaved= 4 IEnMin= 4 EnMin= -2048.74979546466     IErMin= 4 ErrMin= 2.54D-05
 ErrMax= 2.54D-05  0.00D+00 EMaxC= 1.00D-01 BMatC= 4.83D-07 BMatP= 9.42D-06
 IDIUse=1 WtCom= 1.00D+00 WtEn= 0.00D+00
 Coeff-Com: -0.325D-01 0.786D-01 0.259D+00 0.695D+00
 Coeff:     -0.325D-01 0.786D-01 0.259D+00 0.695D+00
 Gap=     0.287 Goal=   None    Shift=    0.000
 RMSDP=1.45D-06 MaxDP=1.09D-04 DE=-9.11D-06 OVMax= 3.55D-04

 Cycle  10  Pass 1  IDiag  1:
 RMSU=  1.27D-06    CP:  1.00D+00  1.05D+00  8.08D-01  1.12D+00
 E= -2048.74979631310     Delta-E=       -0.000000848443 Rises=F Damp=F
 DIIS: error= 1.41D-05 at cycle   5 NSaved=   5.
 NSaved= 5 IEnMin= 5 EnMin= -2048.74979631310     IErMin= 5 ErrMin= 1.41D-05
 ErrMax= 1.41D-05  0.00D+00 EMaxC= 1.00D-01 BMatC= 1.18D-07 BMatP= 4.83D-07
 IDIUse=1 WtCom= 1.00D+00 WtEn= 0.00D+00
 Coeff-Com: -0.329D-02-0.568D-01-0.127D+00 0.205D+00 0.982D+00
 Coeff:     -0.329D-02-0.568D-01-0.127D+00 0.205D+00 0.982D+00
 Gap=     0.287 Goal=   None    Shift=    0.000
 RMSDP=1.21D-06 MaxDP=7.26D-05 DE=-8.48D-07 OVMax= 1.96D-04

 Cycle  11  Pass 1  IDiag  1:
 RMSU=  4.75D-07    CP:  1.00D+00  1.06D+00  8.18D-01  1.40D+00  1.17D+00
 E= -2048.74979657463     Delta-E=       -0.000000261530 Rises=F Damp=F
 DIIS: error= 7.93D-06 at cycle   6 NSaved=   6.
 NSaved= 6 IEnMin= 6 EnMin= -2048.74979657463     IErMin= 6 ErrMin= 7.93D-06
 ErrMax= 7.93D-06  0.00D+00 EMaxC= 1.00D-01 BMatC= 2.87D-08 BMatP= 1.18D-07
 IDIUse=1 WtCom= 1.00D+00 WtEn= 0.00D+00
 Coeff-Com:  0.463D-02-0.437D-01-0.115D+00 0.167D-02 0.528D+00 0.625D+00
 Coeff:      0.463D-02-0.437D-01-0.115D+00 0.167D-02 0.528D+00 0.625D+00
 Gap=     0.287 Goal=   None    Shift=    0.000
 RMSDP=3.50D-07 MaxDP=3.21D-05 DE=-2.62D-07 OVMax= 8.80D-05

 Cycle  12  Pass 1  IDiag  1:
 RMSU=  1.79D-07    CP:  1.00D+00  1.06D+00  8.21D-01  1.47D+00  1.29D+00
                    CP:  9.19D-01
 E= -2048.74979661453     Delta-E=       -0.000000039900 Rises=F Damp=F
 DIIS: error= 9.24D-07 at cycle   7 NSaved=   7.
 NSaved= 7 IEnMin= 7 EnMin= -2048.74979661453     IErMin= 7 ErrMin= 9.24D-07
 ErrMax= 9.24D-07  0.00D+00 EMaxC= 1.00D-01 BMatC= 7.19D-10 BMatP= 2.87D-08
 IDIUse=1 WtCom= 1.00D+00 WtEn= 0.00D+00
 Coeff-Com:  0.103D-02-0.622D-02-0.180D-01-0.798D-02 0.494D-01 0.124D+00
 Coeff-Com:  0.858D+00
 Coeff:      0.103D-02-0.622D-02-0.180D-01-0.798D-02 0.494D-01 0.124D+00
 Coeff:      0.858D+00
 Gap=     0.287 Goal=   None    Shift=    0.000
 RMSDP=8.35D-08 MaxDP=4.61D-06 DE=-3.99D-08 OVMax= 1.66D-05

 Cycle  13  Pass 1  IDiag  1:
 RMSU=  5.05D-08    CP:  1.00D+00  1.06D+00  8.20D-01  1.48D+00  1.31D+00
                    CP:  1.01D+00  1.14D+00
 E= -2048.74979661628     Delta-E=       -0.000000001749 Rises=F Damp=F
 DIIS: error= 4.21D-07 at cycle   8 NSaved=   8.
 NSaved= 8 IEnMin= 8 EnMin= -2048.74979661628     IErMin= 8 ErrMin= 4.21D-07
 ErrMax= 4.21D-07  0.00D+00 EMaxC= 1.00D-01 BMatC= 3.06D-10 BMatP= 7.19D-10
 IDIUse=1 WtCom= 1.00D+00 WtEn= 0.00D+00
 Coeff-Com: -0.726D-03 0.871D-02 0.220D-01-0.258D-02-0.116D+00-0.104D+00
 Coeff-Com:  0.423D+00 0.770D+00
 Coeff:     -0.726D-03 0.871D-02 0.220D-01-0.258D-02-0.116D+00-0.104D+00
 Coeff:      0.423D+00 0.770D+00
 Gap=     0.287 Goal=   None    Shift=    0.000
 RMSDP=4.50D-08 MaxDP=2.37D-06 DE=-1.75D-09 OVMax= 8.22D-06

 Cycle  14  Pass 1  IDiag  1:
 RMSU=  2.58D-08    CP:  1.00D+00  1.06D+00  8.20D-01  1.48D+00  1.32D+00
                    CP:  1.05D+00  1.29D+00  1.07D+00
 E= -2048.74979661684     Delta-E=       -0.000000000558 Rises=F Damp=F
 DIIS: error= 1.30D-07 at cycle   9 NSaved=   9.
 NSaved= 9 IEnMin= 9 EnMin= -2048.74979661684     IErMin= 9 ErrMin= 1.30D-07
 ErrMax= 1.30D-07  0.00D+00 EMaxC= 1.00D-01 BMatC= 2.19D-11 BMatP= 3.06D-10
 IDIUse=1 WtCom= 1.00D+00 WtEn= 0.00D+00
 Coeff-Com: -0.374D-03 0.389D-02 0.100D-01-0.177D-03-0.479D-01-0.513D-01
 Coeff-Com:  0.804D-01 0.272D+00 0.734D+00
 Coeff:     -0.374D-03 0.389D-02 0.100D-01-0.177D-03-0.479D-01-0.513D-01
 Coeff:      0.804D-01 0.272D+00 0.734D+00
 Gap=     0.287 Goal=   None    Shift=    0.000
 RMSDP=1.20D-08 MaxDP=5.94D-07 DE=-5.58D-10 OVMax= 2.19D-06

 Cycle  15  Pass 1  IDiag  1:
 RMSU=  8.32D-09    CP:  1.00D+00  1.06D+00  8.20D-01  1.48D+00  1.32D+00
                    CP:  1.05D+00  1.32D+00  1.19D+00  1.10D+00
 E= -2048.74979661663     Delta-E=        0.000000000211 Rises=F Damp=F
 DIIS: error= 4.71D-08 at cycle  10 NSaved=  10.
 NSaved=10 IEnMin= 9 EnMin= -2048.74979661684     IErMin=10 ErrMin= 4.71D-08
 ErrMax= 4.71D-08  0.00D+00 EMaxC= 1.00D-01 BMatC= 4.15D-12 BMatP= 2.19D-11
 IDIUse=1 WtCom= 1.00D+00 WtEn= 0.00D+00
 Coeff-Com:  0.304D-04-0.567D-03-0.133D-02 0.207D-03 0.864D-02 0.484D-02
 Coeff-Com: -0.590D-01-0.803D-01 0.256D+00 0.871D+00
 Coeff:      0.304D-04-0.567D-03-0.133D-02 0.207D-03 0.864D-02 0.484D-02
 Coeff:     -0.590D-01-0.803D-01 0.256D+00 0.871D+00
 Gap=     0.287 Goal=   None    Shift=    0.000
 RMSDP=6.11D-09 MaxDP=3.58D-07 DE= 2.11D-10 OVMax= 1.03D-06

 SCF Done:  E(RwB97XD) =  -2048.74979662     A.U. after   15 cycles
            NFock= 15  Conv=0.61D-08     -V/T= 2.0054
 KE= 2.037708981860D+03 PE=-1.565150394051D+04 EE= 6.129918932409D+03
 Leave Link  502 at Sat Jan 20 02:28:27 2018, MaxMem=  4294967296 cpu:           20342.2 elap:             664.1
 (Enter /share/apps/g16/l601.exe)
 Copying SCF densities to generalized density rwf, IOpCl= 0 IROHF=0.

 **********************************************************************

            Population analysis using the SCF density.

 **********************************************************************

 Orbital symmetries:
       Occupied  (A) (A) (A) (A) (A) (A) (A) (A) (A) (A) (A) (A)
                 (A) (A) (A) (A) (A) (A) (A) (A) (A) (A) (A) (A)
                 (A) (A) (A) (A) (A) (A) (A) (A) (A) (A) (A) (A)
                 (A) (A) (A) (A) (A) (A) (A) (A) (A) (A) (A) (A)
                 (A) (A) (A) (A) (A) (A) (A) (A) (A) (A) (A) (A)
                 (A) (A) (A) (A) (A) (A) (A) (A) (A) (A) (A) (A)
                 (A) (A) (A) (A) (A) (A) (A) (A) (A) (A) (A) (A)
                 (A) (A) (A) (A) (A) (A) (A) (A) (A) (A) (A) (A)
                 (A) (A) (A) (A) (A) (A) (A) (A) (A) (A) (A) (A)
                 (A) (A) (A) (A) (A) (A) (A) (A) (A) (A) (A) (A)
                 (A) (A) (A) (A) (A) (A) (A) (A) (A) (A) (A) (A)
                 (A) (A) (A) (A) (A) (A) (A) (A) (A) (A) (A) (A)
                 (A) (A) (A) (A) (A) (A) (A) (A) (A) (A)
       Virtual   (A) (A) (A) (A) (A) (A) (A) (A) (A) (A) (A) (A)
                 (A) (A) (A) (A) (A) (A) (A) (A) (A) (A) (A) (A)
                 (A) (A) (A) (A) (A) (A) (A) (A) (A) (A) (A) (A)
                 (A) (A) (A) (A) (A) (A) (A) (A) (A) (A) (A) (A)
                 (A) (A) (A) (A) (A) (A) (A) (A) (A) (A) (A) (A)
                 (A) (A) (A) (A) (A) (A) (A) (A) (A) (A) (A) (A)
                 (A) (A) (A) (A) (A) (A) (A) (A) (A) (A) (A) (A)
                 (A) (A) (A) (A) (A) (A) (A) (A) (A) (A) (A) (A)
                 (A) (A) (A) (A) (A) (A) (A) (A) (A) (A) (A) (A)
                 (A) (A) (A) (A) (A) (A) (A) (A) (A) (A) (A) (A)
                 (A) (A) (A) (A) (A) (A) (A) (A) (A) (A) (A) (A)
                 (A) (A) (A) (A) (A) (A) (A) (A) (A) (A) (A) (A)
                 (A) (A) (A) (A) (A) (A) (A) (A) (A) (A) (A) (A)
                 (A) (A) (A) (A) (A) (A) (A) (A) (A) (A) (A) (A)
                 (A) (A) (A) (A) (A) (A) (A) (A) (A) (A) (A) (A)
                 (A) (A) (A) (A) (A) (A) (A) (A) (A) (A) (A) (A)
                 (A) (A) (A) (A) (A) (A) (A) (A) (A) (A) (A) (A)
                 (A) (A) (A) (A) (A) (A) (A) (A) (A) (A) (A) (A)
                 (A) (A) (A) (A) (A) (A) (A) (A) (A) (A) (A) (A)
                 (A) (A) (A) (A) (A) (A) (A) (A) (A) (A) (A) (A)
                 (A) (A) (A) (A) (A) (A) (A) (A) (A) (A) (A) (A)
                 (A) (A) (A) (A) (A) (A) (A) (A) (A) (A) (A) (A)
                 (A) (A) (A) (A) (A) (A) (A) (A) (A) (A) (A) (A)
                 (A) (A) (A) (A) (A) (A) (A) (A) (A) (A) (A) (A)
                 (A) (A) (A) (A) (A) (A) (A) (A) (A) (A) (A) (A)
                 (A) (A) (A) (A) (A) (A) (A) (A) (A) (A) (A) (A)
                 (A) (A) (A) (A) (A) (A) (A) (A) (A) (A) (A) (A)
                 (A) (A) (A) (A) (A) (A) (A) (A) (A) (A) (A) (A)
                 (A) (A) (A) (A) (A) (A) (A) (A) (A) (A) (A) (A)
                 (A) (A) (A) (A) (A) (A) (A) (A) (A) (A) (A) (A)
                 (A) (A) (A) (A) (A) (A) (A) (A) (A) (A) (A) (A)
                 (A) (A) (A) (A) (A) (A) (A) (A) (A) (A) (A) (A)
                 (A) (A) (A) (A) (A) (A) (A) (A) (A) (A) (A) (A)
                 (A) (A) (A) (A) (A) (A) (A) (A) (A) (A) (A) (A)
                 (A) (A) (A) (A) (A) (A) (A) (A) (A) (A) (A) (A)
                 (A) (A) (A) (A) (A) (A) (A) (A) (A) (A) (A) (A)
                 (A) (A) (A) (A) (A) (A) (A) (A) (A) (A) (A) (A)
                 (A) (A) (A) (A) (A) (A) (A) (A) (A) (A) (A) (A)
                 (A) (A) (A) (A) (A) (A) (A) (A) (A) (A) (A) (A)
                 (A) (A) (A) (A) (A) (A) (A) (A) (A) (A) (A) (A)
                 (A) (A) (A) (A) (A) (A) (A) (A) (A) (A) (A) (A)
                 (A) (A) (A) (A) (A) (A) (A) (A) (A) (A) (A) (A)
                 (A) (A) (A) (A) (A) (A) (A) (A) (A) (A) (A) (A)
                 (A) (A) (A) (A) (A) (A) (A) (A) (A) (A) (A) (A)
                 (A) (A) (A) (A) (A) (A) (A) (A) (A) (A) (A) (A)
                 (A) (A) (A) (A) (A) (A) (A) (A) (A) (A) (A) (A)
                 (A) (A) (A) (A) (A) (A) (A) (A) (A) (A) (A) (A)
                 (A) (A) (A) (A) (A) (A) (A) (A) (A) (A) (A) (A)
                 (A) (A) (A) (A) (A) (A) (A)
 The electronic state is 1-A.
 Alpha  occ. eigenvalues --  -19.26121 -19.22349 -19.20874 -14.52623 -14.50794
 Alpha  occ. eigenvalues --  -14.49553 -14.48749 -14.47956 -14.47154 -14.46986
 Alpha  occ. eigenvalues --  -14.45047 -14.43762 -14.42417 -14.42255 -14.42213
 Alpha  occ. eigenvalues --  -14.42202 -14.41980 -14.41569 -14.40908 -14.40730
 Alpha  occ. eigenvalues --  -10.45680 -10.41445 -10.40405 -10.38490 -10.37731
 Alpha  occ. eigenvalues --  -10.37494 -10.36366 -10.35948 -10.35778 -10.35266
 Alpha  occ. eigenvalues --  -10.34880 -10.34480 -10.34138 -10.33810 -10.33698
 Alpha  occ. eigenvalues --  -10.33285 -10.32798 -10.31609 -10.31062 -10.30668
 Alpha  occ. eigenvalues --  -10.30595 -10.29305 -10.28270  -1.19655  -1.13506
 Alpha  occ. eigenvalues --   -1.13405  -1.13314  -1.12149  -1.10697  -1.09521
 Alpha  occ. eigenvalues --   -1.08823  -1.06868  -1.05596  -1.02685  -1.02373
 Alpha  occ. eigenvalues --   -1.00970  -1.00019  -0.99123  -0.98708  -0.97658
 Alpha  occ. eigenvalues --   -0.96614  -0.94524  -0.93184  -0.91070  -0.85847
 Alpha  occ. eigenvalues --   -0.84666  -0.84340  -0.84170  -0.83977  -0.83003
 Alpha  occ. eigenvalues --   -0.82457  -0.78980  -0.75016  -0.74712  -0.73866
 Alpha  occ. eigenvalues --   -0.73522  -0.73503  -0.72733  -0.71706  -0.68329
 Alpha  occ. eigenvalues --   -0.67569  -0.66903  -0.66692  -0.64687  -0.64535
 Alpha  occ. eigenvalues --   -0.63875  -0.63299  -0.62826  -0.62141  -0.61919
 Alpha  occ. eigenvalues --   -0.60700  -0.60011  -0.59643  -0.58629  -0.58563
 Alpha  occ. eigenvalues --   -0.58229  -0.57690  -0.57137  -0.56905  -0.56557
 Alpha  occ. eigenvalues --   -0.56188  -0.55773  -0.54556  -0.54326  -0.53784
 Alpha  occ. eigenvalues --   -0.53691  -0.53593  -0.53034  -0.52775  -0.52480
 Alpha  occ. eigenvalues --   -0.52134  -0.51853  -0.51487  -0.50997  -0.50763
 Alpha  occ. eigenvalues --   -0.50333  -0.49645  -0.49625  -0.49051  -0.48573
 Alpha  occ. eigenvalues --   -0.48416  -0.48161  -0.47909  -0.47735  -0.47557
 Alpha  occ. eigenvalues --   -0.47403  -0.45712  -0.44897  -0.44118  -0.42778
 Alpha  occ. eigenvalues --   -0.41845  -0.39695  -0.38887  -0.37845  -0.37458
 Alpha  occ. eigenvalues --   -0.37347  -0.36701  -0.35653  -0.35143  -0.34614
 Alpha  occ. eigenvalues --   -0.34299  -0.34150  -0.33503  -0.32991  -0.32637
 Alpha  occ. eigenvalues --   -0.32491  -0.32241  -0.32037  -0.31870  -0.31657
 Alpha  occ. eigenvalues --   -0.30901  -0.27662  -0.26294  -0.25623
 Alpha virt. eigenvalues --    0.03050   0.05786   0.07262   0.08148   0.08954
 Alpha virt. eigenvalues --    0.09275   0.09611   0.10356   0.10816   0.12585
 Alpha virt. eigenvalues --    0.12974   0.13414   0.14436   0.14776   0.15962
 Alpha virt. eigenvalues --    0.16491   0.16637   0.16944   0.17093   0.18360
 Alpha virt. eigenvalues --    0.19165   0.19337   0.19719   0.20195   0.20726
 Alpha virt. eigenvalues --    0.20780   0.21140   0.21889   0.21915   0.22656
 Alpha virt. eigenvalues --    0.22776   0.23123   0.23298   0.23351   0.23581
 Alpha virt. eigenvalues --    0.23832   0.23929   0.24033   0.24695   0.25039
 Alpha virt. eigenvalues --    0.25894   0.26828   0.26994   0.27513   0.27805
 Alpha virt. eigenvalues --    0.28510   0.29130   0.29726   0.30532   0.30919
 Alpha virt. eigenvalues --    0.31369   0.31803   0.32989   0.33187   0.33952
 Alpha virt. eigenvalues --    0.34066   0.34784   0.35218   0.36169   0.36514
 Alpha virt. eigenvalues --    0.37039   0.37548   0.38305   0.38807   0.39724
 Alpha virt. eigenvalues --    0.40487   0.40996   0.41405   0.41506   0.41832
 Alpha virt. eigenvalues --    0.42578   0.42858   0.43465   0.43544   0.44450
 Alpha virt. eigenvalues --    0.45398   0.45853   0.46042   0.46363   0.46731
 Alpha virt. eigenvalues --    0.47100   0.48262   0.48642   0.49265   0.49327
 Alpha virt. eigenvalues --    0.49622   0.50308   0.50739   0.50803   0.50978
 Alpha virt. eigenvalues --    0.51648   0.52196   0.52393   0.53232   0.53678
 Alpha virt. eigenvalues --    0.53851   0.54028   0.54280   0.54687   0.54882
 Alpha virt. eigenvalues --    0.55318   0.56451   0.56679   0.57041   0.57213
 Alpha virt. eigenvalues --    0.58078   0.58533   0.58907   0.59252   0.59592
 Alpha virt. eigenvalues --    0.60191   0.60537   0.60745   0.61146   0.61196
 Alpha virt. eigenvalues --    0.61547   0.62201   0.62558   0.63142   0.63857
 Alpha virt. eigenvalues --    0.63991   0.64313   0.64934   0.65207   0.65512
 Alpha virt. eigenvalues --    0.65651   0.66053   0.66290   0.66417   0.66959
 Alpha virt. eigenvalues --    0.67478   0.67833   0.68290   0.68634   0.69014
 Alpha virt. eigenvalues --    0.69402   0.70203   0.70716   0.71098   0.71350
 Alpha virt. eigenvalues --    0.71676   0.72237   0.73095   0.73715   0.73997
 Alpha virt. eigenvalues --    0.74129   0.74378   0.74645   0.75116   0.75303
 Alpha virt. eigenvalues --    0.75661   0.75962   0.76259   0.76457   0.76857
 Alpha virt. eigenvalues --    0.77322   0.77839   0.78436   0.78767   0.79084
 Alpha virt. eigenvalues --    0.79254   0.79790   0.80162   0.80508   0.81054
 Alpha virt. eigenvalues --    0.81558   0.81889   0.82188   0.82473   0.82974
 Alpha virt. eigenvalues --    0.83521   0.83714   0.84163   0.84748   0.85035
 Alpha virt. eigenvalues --    0.85418   0.85827   0.86113   0.86770   0.87170
 Alpha virt. eigenvalues --    0.87453   0.87837   0.88643   0.88978   0.89659
 Alpha virt. eigenvalues --    0.90712   0.91048   0.91129   0.91597   0.92108
 Alpha virt. eigenvalues --    0.92326   0.92872   0.93204   0.93502   0.93896
 Alpha virt. eigenvalues --    0.94553   0.95193   0.95532   0.96111   0.96296
 Alpha virt. eigenvalues --    0.96666   0.97355   0.97553   0.98317   0.98711
 Alpha virt. eigenvalues --    0.98862   0.99735   0.99927   1.00303   1.00987
 Alpha virt. eigenvalues --    1.01191   1.01842   1.02126   1.02328   1.02742
 Alpha virt. eigenvalues --    1.03186   1.03770   1.04126   1.04474   1.05075
 Alpha virt. eigenvalues --    1.05269   1.06049   1.06450   1.07639   1.08400
 Alpha virt. eigenvalues --    1.08822   1.09713   1.09914   1.10612   1.10730
 Alpha virt. eigenvalues --    1.11081   1.12065   1.12531   1.12832   1.13436
 Alpha virt. eigenvalues --    1.13619   1.14303   1.14535   1.15074   1.15136
 Alpha virt. eigenvalues --    1.15621   1.16103   1.16461   1.17204   1.17837
 Alpha virt. eigenvalues --    1.18135   1.18797   1.19058   1.19354   1.19759
 Alpha virt. eigenvalues --    1.20236   1.20391   1.20893   1.21135   1.21504
 Alpha virt. eigenvalues --    1.21793   1.22041   1.22127   1.22548   1.23057
 Alpha virt. eigenvalues --    1.23424   1.24200   1.24270   1.24757   1.24965
 Alpha virt. eigenvalues --    1.25485   1.26042   1.26472   1.26541   1.28297
 Alpha virt. eigenvalues --    1.29059   1.29682   1.30694   1.30744   1.31384
 Alpha virt. eigenvalues --    1.32383   1.32744   1.33398   1.34229   1.34505
 Alpha virt. eigenvalues --    1.34958   1.35874   1.36141   1.36444   1.37141
 Alpha virt. eigenvalues --    1.37337   1.38488   1.39496   1.39969   1.40274
 Alpha virt. eigenvalues --    1.41574   1.41892   1.42510   1.43475   1.44331
 Alpha virt. eigenvalues --    1.44643   1.45668   1.47461   1.47560   1.47889
 Alpha virt. eigenvalues --    1.48548   1.48661   1.49589   1.49765   1.50831
 Alpha virt. eigenvalues --    1.51269   1.52643   1.53515   1.53860   1.54361
 Alpha virt. eigenvalues --    1.54562   1.55453   1.55493   1.56421   1.56896
 Alpha virt. eigenvalues --    1.58155   1.59144   1.59742   1.60336   1.61142
 Alpha virt. eigenvalues --    1.61849   1.62304   1.62500   1.62800   1.63662
 Alpha virt. eigenvalues --    1.64125   1.64622   1.65358   1.66706   1.66942
 Alpha virt. eigenvalues --    1.67329   1.67680   1.67942   1.68598   1.68845
 Alpha virt. eigenvalues --    1.69483   1.70110   1.70257   1.70610   1.71317
 Alpha virt. eigenvalues --    1.71805   1.72098   1.72458   1.72898   1.72956
 Alpha virt. eigenvalues --    1.73775   1.74011   1.74465   1.74835   1.74993
 Alpha virt. eigenvalues --    1.75282   1.75632   1.76208   1.76648   1.77330
 Alpha virt. eigenvalues --    1.77405   1.77726   1.78027   1.78115   1.78628
 Alpha virt. eigenvalues --    1.78966   1.79405   1.79567   1.79894   1.80302
 Alpha virt. eigenvalues --    1.80573   1.80848   1.81456   1.81966   1.82246
 Alpha virt. eigenvalues --    1.82552   1.82722   1.82932   1.83551   1.83872
 Alpha virt. eigenvalues --    1.85081   1.85805   1.86633   1.86924   1.87008
 Alpha virt. eigenvalues --    1.87428   1.87740   1.88108   1.88935   1.89208
 Alpha virt. eigenvalues --    1.89426   1.89876   1.90159   1.90669   1.91267
 Alpha virt. eigenvalues --    1.91812   1.92291   1.93051   1.93214   1.93849
 Alpha virt. eigenvalues --    1.94077   1.94737   1.96342   1.96652   1.97309
 Alpha virt. eigenvalues --    1.98212   1.98557   1.98976   2.00169   2.00738
 Alpha virt. eigenvalues --    2.01502   2.01998   2.02298   2.03249   2.03874
 Alpha virt. eigenvalues --    2.04265   2.05744   2.06411   2.06750   2.07363
 Alpha virt. eigenvalues --    2.08111   2.08322   2.08570   2.09127   2.09605
 Alpha virt. eigenvalues --    2.10043   2.10228   2.11089   2.11790   2.12790
 Alpha virt. eigenvalues --    2.13038   2.13607   2.15572   2.16442   2.16719
 Alpha virt. eigenvalues --    2.18713   2.19272   2.19962   2.20893   2.21662
 Alpha virt. eigenvalues --    2.21820   2.22087   2.22931   2.23180   2.23582
 Alpha virt. eigenvalues --    2.23774   2.24753   2.25330   2.26272   2.26507
 Alpha virt. eigenvalues --    2.27113   2.28085   2.28819   2.29006   2.29223
 Alpha virt. eigenvalues --    2.29921   2.30245   2.30717   2.31649   2.32614
 Alpha virt. eigenvalues --    2.33179   2.33635   2.33717   2.34003   2.34292
 Alpha virt. eigenvalues --    2.34542   2.35486   2.36439   2.37120   2.37487
 Alpha virt. eigenvalues --    2.37951   2.38707   2.40330   2.40670   2.41296
 Alpha virt. eigenvalues --    2.41614   2.42745   2.42824   2.43353   2.44209
 Alpha virt. eigenvalues --    2.45473   2.45660   2.46243   2.46941   2.47017
 Alpha virt. eigenvalues --    2.47722   2.48866   2.49123   2.50296   2.51492
 Alpha virt. eigenvalues --    2.52838   2.54001   2.54331   2.54605   2.55430
 Alpha virt. eigenvalues --    2.56752   2.57089   2.57197   2.57996   2.59759
 Alpha virt. eigenvalues --    2.60210   2.60845   2.61559   2.62036   2.63181
 Alpha virt. eigenvalues --    2.64324   2.64545   2.64987   2.65496   2.66933
 Alpha virt. eigenvalues --    2.67376   2.67871   2.68003   2.68384   2.69087
 Alpha virt. eigenvalues --    2.70116   2.70411   2.71389   2.71973   2.72083
 Alpha virt. eigenvalues --    2.73419   2.74115   2.74805   2.75074   2.75860
 Alpha virt. eigenvalues --    2.77554   2.78442   2.78642   2.79380   2.79474
 Alpha virt. eigenvalues --    2.79742   2.80462   2.80767   2.81585   2.81945
 Alpha virt. eigenvalues --    2.82241   2.82428   2.82854   2.83611   2.83748
 Alpha virt. eigenvalues --    2.84690   2.85710   2.85915   2.86442   2.87110
 Alpha virt. eigenvalues --    2.87781   2.88115   2.88693   2.90836   2.92233
 Alpha virt. eigenvalues --    2.93957   2.96253   2.97439   2.98194   2.98851
 Alpha virt. eigenvalues --    3.00045   3.00812   3.01363   3.04162   3.06053
 Alpha virt. eigenvalues --    3.06572   3.09496   3.11427   3.14305   3.14652
 Alpha virt. eigenvalues --    3.15276   3.15698   3.16455   3.17219   3.19646
 Alpha virt. eigenvalues --    3.22730   3.23094   3.23750   3.24228   3.26561
 Alpha virt. eigenvalues --    3.46498   3.46840   3.47711   3.50012   3.51326
 Alpha virt. eigenvalues --    3.52824   3.54566   3.56089   3.57857   3.59889
 Alpha virt. eigenvalues --    3.62299   3.71165   3.74493
          Condensed to atoms (all electrons):
 Mulliken charges:
               1
     1  N   -0.309869
     2  C    0.180708
     3  C    0.027966
     4  N   -0.256009
     5  C    0.129930
     6  H    0.028468
     7  N   -0.283244
     8  C    0.130244
     9  H    0.016764
    10  N   -0.290021
    11  C    0.233974
    12  C    0.096122
    13  N   -0.033412
    14  H    0.107667
    15  H    0.090810
    16  H    0.027783
    17  H    0.036123
    18  H    0.024894
    19  N   -0.306593
    20  C    0.250992
    21  C    0.180002
    22  N   -0.124032
    23  H    0.112199
    24  H    0.118835
    25  N   -0.307458
    26  C    0.248210
    27  N   -0.133983
    28  H    0.118083
    29  C    0.170262
    30  O   -0.326073
    31  C   -0.008416
    32  N   -0.228100
    33  C    0.127441
    34  H    0.031659
    35  H    0.033985
    36  H    0.027804
    37  H    0.022920
    38  H    0.053463
    39  H    0.063205
    40  H    0.073937
    41  H    0.029969
    42  C   -0.084278
    43  O   -0.287128
    44  C    0.188290
    45  H    0.135675
    46  N   -0.128219
    47  O   -0.352912
    48  C    0.352812
    49  H    0.046011
    50  C    0.167415
    51  C    0.040093
    52  N   -0.292126
    53  H    0.030255
    54  H    0.040128
    55  H    0.017959
    56  H    0.115062
    57  H    0.118197
    58  N   -0.029985
    59  C    0.112023
    60  C    0.243554
    61  N   -0.274093
    62  H    0.034591
    63  C    0.155326
    64  N   -0.303860
    65  H    0.022847
    66  C    0.120092
    67  N   -0.255057
    68  C    0.007614
    69  C    0.180955
    70  N   -0.308452
 Sum of Mulliken charges =  -0.00000
 Mulliken charges with hydrogens summed into heavy atoms:
               1
     1  N   -0.309869
     2  C    0.269508
     3  C    0.027966
     4  N   -0.256009
     5  C    0.158398
     7  N   -0.283244
     8  C    0.147008
    10  N   -0.290021
    11  C    0.233974
    12  C    0.096122
    13  N    0.165066
    19  N   -0.306593
    20  C    0.250992
    21  C    0.264711
    22  N    0.107002
    25  N   -0.307458
    26  C    0.248210
    27  N   -0.015900
    29  C    0.170262
    30  O   -0.326073
    31  C   -0.008416
    32  N   -0.228100
    33  C    0.159100
    42  C   -0.054309
    43  O   -0.287128
    44  C    0.188290
    46  N    0.007456
    47  O   -0.352912
    48  C    0.352812
    50  C    0.213426
    51  C    0.230698
    52  N   -0.292126
    58  N    0.203274
    59  C    0.112023
    60  C    0.243554
    61  N   -0.274093
    63  C    0.189916
    64  N   -0.303860
    66  C    0.142939
    67  N   -0.255057
    68  C    0.007614
    69  C    0.269298
    70  N   -0.308452
 Electronic spatial extent (au):  <R**2>=          24516.4547
 Charge=             -0.0000 electrons
 Dipole moment (field-independent basis, Debye):
    X=              5.9571    Y=              5.8704    Z=              3.4704  Tot=              9.0550
 Quadrupole moment (field-independent basis, Debye-Ang):
   XX=           -138.2453   YY=           -227.2831   ZZ=           -251.2899
   XY=              9.4905   XZ=             23.0120   YZ=              1.8023
 Traceless Quadrupole moment (field-independent basis, Debye-Ang):
   XX=             67.3608   YY=            -21.6770   ZZ=            -45.6838
   XY=              9.4905   XZ=             23.0120   YZ=              1.8023
 Octapole moment (field-independent basis, Debye-Ang**2):
  XXX=             28.5932  YYY=             68.6271  ZZZ=             59.9138  XYY=             13.5259
  XXY=             73.6938  XXZ=            -24.0188  XZZ=             60.0425  YZZ=             40.7188
  YYZ=             11.5066  XYZ=             29.2358
 Hexadecapole moment (field-independent basis, Debye-Ang**3):
 XXXX=         -16760.1013 YYYY=          -4218.6844 ZZZZ=          -3242.8395 XXXY=            357.4590
 XXXZ=            435.4462 YYYX=             48.9828 YYYZ=            136.5450 ZZZX=            250.8452
 ZZZY=             35.3096 XXYY=          -4669.2330 XXZZ=          -4526.8956 YYZZ=          -1357.7061
 XXYZ=             12.5506 YYXZ=             86.5400 ZZXY=             85.4806
 N-N= 5.435126229620D+03 E-N=-1.565150392981D+04  KE= 2.037708981860D+03
 No NMR shielding tensors so no spin-rotation constants.
 Leave Link  601 at Sat Jan 20 02:28:29 2018, MaxMem=  4294967296 cpu:              50.1 elap:               1.8
 (Enter /share/apps/g16/l9999.exe)
 1\1\GINC-COMPUTE-0-3\SP\RwB97XD\CC-pVDZ\C23H27N17O3\SATYA\20-Jan-2018\
 0\\#p wb97xd/cc-pvdz sp scf=(maxcycles=20)\\Base pair stacking\\0,1\N,
 0,6.36957,9.37654,-5.07373\C,0,6.54967,10.78557,-5.47399\C,0,5.63512,7
 .30964,-4.91308\N,0,6.68135,7.42112,-4.0088\C,0,7.08195,8.66189,-4.141
 78\H,0,7.90041,9.11275,-3.57983\N,0,3.84675,6.46145,-6.19575\C,0,3.769
 65,7.67518,-6.75116\H,0,2.9916,7.79344,-7.50411\N,0,4.50589,8.75967,-6
 .51723\C,0,5.43123,8.50685,-5.57687\C,0,4.78829,6.23895,-5.25284\N,0,4
 .86682,5.02803,-4.69725\H,0,5.54839,4.81847,-3.99528\H,0,4.2474,4.2894
 4,-4.96359\H,0,7.47216,10.9148,-5.83799\H,0,5.87904,11.02158,-6.17661\
 H,0,6.42051,11.37904,-4.67957\N,0,1.4,7.33634,-3.3078\C,0,0.6919,6.171
 78,-3.48231\C,0,0.92224,8.68748,-3.66401\N,0,-2.18048,4.52697,-4.53387
 \H,0,-2.51937,3.58744,-4.57475\H,0,-2.78873,5.24397,-4.87543\N,0,-0.54
 929,6.06698,-4.00433\C,0,-0.96512,4.81351,-4.04325\N,0,-0.2237,3.74312
 ,-3.60499\H,0,-0.62206,2.8192,-3.67317\C,0,1.05553,3.82753,-3.06434\O,
 0,1.63867,2.79937,-2.69886\C,0,1.51575,5.16796,-3.01604\N,0,2.71689,5.
 69177,-2.55801\C,0,2.60315,6.97795,-2.75045\H,0,3.3697,7.71305,-2.5028
 7\H,0,1.53894,9.09419,-4.33712\H,0,0.0037,8.62244,-4.05172\H,0,0.89762
 ,9.26063,-2.84566\H,0,-2.90475,-1.56213,-4.87563\H,0,-3.37954,-1.5402,
 -3.17894\H,0,-3.17832,-0.02375,-4.05716\H,0,1.18151,-3.02293,-2.79835\
 C,0,0.6251,-2.10068,-2.96598\O,0,2.46281,-0.68506,-2.47003\C,0,1.28686
 ,-0.84316,-2.79706\H,0,0.92494,1.1671,-2.92433\N,0,0.49249,0.26059,-3.
 03362\O,0,-1.45009,1.29661,-3.59062\C,0,-0.82914,0.26507,-3.40352\H,0,
 -1.21236,-3.05866,-3.46778\C,0,-0.66334,-2.12868,-3.32617\C,0,-2.80749
 ,-1.03121,-3.94036\N,0,-1.39671,-0.98582,-3.54617\H,0,-1.21232,0.97922
 ,-8.84778\H,0,-1.26172,2.40882,-8.06299\H,0,-2.12816,1.1423,-7.50686\H
 ,0,4.43234,1.43503,-4.0524\H,0,3.64274,-0.03365,-4.41242\N,0,3.67915,0
 .9616,-4.50925\C,0,2.76348,1.62691,-5.21642\C,0,0.81808,1.83206,-6.571
 06\N,0,0.89207,3.16855,-6.68394\H,0,2.08277,4.7154,-6.05936\C,0,1.9474
 4,3.63541,-6.01976\N,0,2.86571,2.97068,-5.31089\H,0,-0.3719,-1.14011,-
 7.02083\C,0,0.21633,-0.27093,-6.72511\N,0,1.29492,-0.31881,-5.98212\C,
 0,1.68655,1.00793,-5.87672\C,0,-1.27443,1.41572,-7.95023\N,0,-0.12976,
 0.99926,-7.11699\\Version=EM64L-G16RevA.03\State=1-A\HF=-2048.7497966\
 RMSD=6.114e-09\Dipole=-3.3142485,-0.7748422,-1.052022\Quadrupole=10.20
 06573,25.3776788,-35.5783361,33.9901613,5.8299492,10.4286196\PG=C01 [X
 (C23H27N17O3)]\\@


 FLOATING POINT NUMBERS ARE LIKE SANDPILES:
 EVERY TIME THAT YOU MOVE ONE, YOU LOSE A LITTLE SAND 
 AND YOU PICK UP A LITTLE DIRT.
 Job cpu time:       0 days  5 hours 49 minutes  5.1 seconds.
 Elapsed time:       0 days  0 hours 11 minutes 23.3 seconds.
 File lengths (MBytes):  RWF=    298 Int=      0 D2E=      0 Chk=     33 Scr=      1
 Normal termination of Gaussian 16 at Sat Jan 20 02:28:30 2018.
