 Entering Gaussian System, Link 0=g16
 Input=str20.-20.-1.0.com
 Output=str20.-20.-1.0.log
 Initial command:
 /share/apps/g16/l1.exe "/state/partition1/scr/Gau-14418.inp" -scrdir="/state/partition1/scr/"
 Entering Link 1 = /share/apps/g16/l1.exe PID=     14419.
  
 Copyright (c) 1988,1990,1992,1993,1995,1998,2003,2009,2016,
            Gaussian, Inc.  All Rights Reserved.
  
 This is part of the Gaussian(R) 16 program.  It is based on
 the Gaussian(R) 09 system (copyright 2009, Gaussian, Inc.),
 the Gaussian(R) 03 system (copyright 2003, Gaussian, Inc.),
 the Gaussian(R) 98 system (copyright 1998, Gaussian, Inc.),
 the Gaussian(R) 94 system (copyright 1995, Gaussian, Inc.),
 the Gaussian 92(TM) system (copyright 1992, Gaussian, Inc.),
 the Gaussian 90(TM) system (copyright 1990, Gaussian, Inc.),
 the Gaussian 88(TM) system (copyright 1988, Gaussian, Inc.),
 the Gaussian 86(TM) system (copyright 1986, Carnegie Mellon
 University), and the Gaussian 82(TM) system (copyright 1983,
 Carnegie Mellon University). Gaussian is a federally registered
 trademark of Gaussian, Inc.
  
 This software contains proprietary and confidential information,
 including trade secrets, belonging to Gaussian, Inc.
  
 This software is provided under written license and may be
 used, copied, transmitted, or stored only in accord with that
 written license.
  
 The following legend is applicable only to US Government
 contracts under FAR:
  
                    RESTRICTED RIGHTS LEGEND
  
 Use, reproduction and disclosure by the US Government is
 subject to restrictions as set forth in subparagraphs (a)
 and (c) of the Commercial Computer Software - Restricted
 Rights clause in FAR 52.227-19.
  
 Gaussian, Inc.
 340 Quinnipiac St., Bldg. 40, Wallingford CT 06492
  
  
 ---------------------------------------------------------------
 Warning -- This program may not be used in any manner that
 competes with the business of Gaussian, Inc. or will provide
 assistance to any competitor of Gaussian, Inc.  The licensee
 of this program is prohibited from giving any competitor of
 Gaussian, Inc. access to this program.  By using this program,
 the user acknowledges that Gaussian, Inc. is engaged in the
 business of creating and licensing software in the field of
 computational chemistry and represents and warrants to the
 licensee that it is not a competitor of Gaussian, Inc. and that
 it will not use this program in any manner prohibited above.
 ---------------------------------------------------------------
  

 Cite this work as:
 Gaussian 16, Revision A.03,
 M. J. Frisch, G. W. Trucks, H. B. Schlegel, G. E. Scuseria, 
 M. A. Robb, J. R. Cheeseman, G. Scalmani, V. Barone, 
 G. A. Petersson, H. Nakatsuji, X. Li, M. Caricato, A. V. Marenich, 
 J. Bloino, B. G. Janesko, R. Gomperts, B. Mennucci, H. P. Hratchian, 
 J. V. Ortiz, A. F. Izmaylov, J. L. Sonnenberg, D. Williams-Young, 
 F. Ding, F. Lipparini, F. Egidi, J. Goings, B. Peng, A. Petrone, 
 T. Henderson, D. Ranasinghe, V. G. Zakrzewski, J. Gao, N. Rega, 
 G. Zheng, W. Liang, M. Hada, M. Ehara, K. Toyota, R. Fukuda, 
 J. Hasegawa, M. Ishida, T. Nakajima, Y. Honda, O. Kitao, H. Nakai, 
 T. Vreven, K. Throssell, J. A. Montgomery, Jr., J. E. Peralta, 
 F. Ogliaro, M. J. Bearpark, J. J. Heyd, E. N. Brothers, K. N. Kudin, 
 V. N. Staroverov, T. A. Keith, R. Kobayashi, J. Normand, 
 K. Raghavachari, A. P. Rendell, J. C. Burant, S. S. Iyengar, 
 J. Tomasi, M. Cossi, J. M. Millam, M. Klene, C. Adamo, R. Cammi, 
 J. W. Ochterski, R. L. Martin, K. Morokuma, O. Farkas, 
 J. B. Foresman, and D. J. Fox, Gaussian, Inc., Wallingford CT, 2016.
 
 ******************************************
 Gaussian 16:  EM64L-G16RevA.03 25-Dec-2016
                19-Jan-2018 
 ******************************************
 %nprocshared=32
 Will use up to   32 processors via shared memory.
 %mem=32GB
 %chk=allatoms_t.chk
 ---------------------------------------
 #p wb97xd/cc-pvdz sp scf=(maxcycles=20)
 ---------------------------------------
 1/38=1,172=1/1;
 2/12=2,17=6,18=5,40=1/2;
 3/5=16,11=2,25=1,30=1,74=-58/1,2,3;
 4//1;
 5/5=2,7=20,38=5/2;
 6/7=2,8=2,9=2,10=2,28=1/1;
 99/5=1,9=1/99;
 Leave Link    1 at Fri Jan 19 23:25:35 2018, MaxMem=  4294967296 cpu:               2.7 elap:               0.1
 (Enter /share/apps/g16/l101.exe)
 ------------------
 Base pair stacking
 ------------------
 Symbolic Z-matrix:
 Charge =  0 Multiplicity = 1
 N                     1.11435   7.44471  -6.627 
 C                     1.17457   8.89959  -6.3868 
 C                     0.48805   5.33644  -6.64326 
 N                     1.67337   5.39473  -7.36182 
 C                     2.00325   6.66255  -7.32327 
 H                     2.89289   7.08618  -7.79019 
 N                    -1.47003   4.55317  -5.58715 
 C                    -1.68383   5.81919  -5.21426 
 H                    -2.58613   5.98497  -4.62721 
 N                    -0.95382   6.90606  -5.45651 
 C                     0.13091   6.59227  -6.18406 
 C                    -0.36991   4.27001  -6.31834 
 N                    -0.15475   3.00684  -6.69153 
 H                     0.64664   2.75145  -7.23353 
 H                    -0.78692   2.27312  -6.4422 
 H                     1.16898   9.38379  -7.26184 
 H                     0.38296   9.18188  -5.84569 
 H                     2.0129    9.12302  -5.88953 
 N                    -0.01921   5.89414  -3.0692 
 C                    -0.72645   4.72943  -2.89227 
 C                    -0.56111   7.25677  -2.89514 
 N                    -3.68864   3.10071  -2.09575 
 H                    -4.01556   2.15903  -2.02086 
 H                    -4.34818   3.82689  -1.89982 
 N                    -2.02481   4.63487  -2.53258 
 C                    -2.42289   3.37822  -2.44325 
 N                    -1.61301   2.29556  -2.68711 
 H                    -2.00275   1.3701   -2.59445 
 C                    -0.27415   2.36929  -3.05843 
 O                     0.36847   1.33048  -3.25499 
 C                     0.16784   3.71298  -3.15849 
 N                     1.4115    4.22918  -3.49577 
 C                     1.25328   5.52332  -3.42964 
 H                     2.03483   6.25574  -3.63463 
 H                    -0.48425   7.7602   -3.75505 
 H                    -1.52233   7.19938  -2.62863 
 H                    -0.04678   7.73337  -2.18301 
 H                    -4.70692  -2.93572  -2.58889 
 H                    -4.01709  -3.12244  -0.97832 
 H                    -4.34871  -1.51053  -1.61325 
 H                    -0.27965  -4.45762  -3.69778 
 C                    -0.78205  -3.54504  -3.37679 
 O                     1.01702  -2.1225   -3.98245 
 C                    -0.11079  -2.28922  -3.51872 
 H                    -0.39341  -0.29317  -3.16626 
 N                    -0.83473  -1.19809  -3.08214 
 O                    -2.65715  -0.1836   -2.18395 
 C                    -2.09655  -1.20433  -2.5424 
 H                    -2.56656  -4.51251  -2.72461 
 C                    -2.0132   -3.5833   -2.8539 
 C                    -4.02618  -2.50934  -1.86719 
 N                    -2.67767  -2.45279  -2.43823 
 H                    -6.92411  -0.77797  -3.46249 
 H                    -5.85088   0.22225  -2.74847 
 H                    -5.9494   -1.33799  -2.27938 
 H                    -0.64309  -0.56557  -7.40826 
 H                    -1.60532  -1.96822  -7.27873 
 N                    -1.4221   -1.02912  -6.9859 
 C                    -2.18342  -0.42284  -6.07267 
 C                    -3.98178  -0.27393  -4.52172 
 N                    -3.71216   0.98774  -4.14764 
 H                    -2.36111   2.47326  -4.55815 
 C                    -2.65001   1.452    -4.80278 
 N                    -1.88616   0.84633  -5.7178 
 H                    -5.54552  -3.10315  -4.57092 
 C                    -4.86235  -2.27028  -4.73989 
 N                    -3.85543  -2.29075  -5.57857 
 C                    -3.28861  -1.03101  -5.45008 
 C                    -6.01149  -0.71429  -3.05869 
 N                    -4.99761  -1.08073  -4.06655 
 
 ITRead=  0  0  0  0  0  0  0  0  0  0  0  0  0  0  0  0  0  0  0  0
 ITRead=  0  0  0  0  0  0  0  0  0  0  0  0  0  0  0  0  0  0  0  0
 ITRead=  0  0  0  0  0  0  0  0  0  0  0  0  0  0  0  0  0  0  0  0
 ITRead=  0  0  0  0  0  0  0  0  0  0
 MicOpt= -1 -1 -1 -1 -1 -1 -1 -1 -1 -1 -1 -1 -1 -1 -1 -1 -1 -1 -1 -1
 MicOpt= -1 -1 -1 -1 -1 -1 -1 -1 -1 -1 -1 -1 -1 -1 -1 -1 -1 -1 -1 -1
 MicOpt= -1 -1 -1 -1 -1 -1 -1 -1 -1 -1 -1 -1 -1 -1 -1 -1 -1 -1 -1 -1
 MicOpt= -1 -1 -1 -1 -1 -1 -1 -1 -1 -1
 NAtoms=     70 NQM=       70 NQMF=       0 NMMI=      0 NMMIF=      0
                NMic=       0 NMicF=      0.
                    Isotopes and Nuclear Properties:
 (Nuclear quadrupole moments (NQMom) in fm**2, nuclear magnetic moments (NMagM)
  in nuclear magnetons)

  Atom         1           2           3           4           5           6           7           8           9          10
 IAtWgt=          14          12          12          14          12           1          14          12           1          14
 AtmWgt=  14.0030740  12.0000000  12.0000000  14.0030740  12.0000000   1.0078250  14.0030740  12.0000000   1.0078250  14.0030740
 NucSpn=           2           0           0           2           0           1           2           0           1           2
 AtZEff=  -0.0000000  -0.0000000  -0.0000000  -0.0000000  -0.0000000  -0.0000000  -0.0000000  -0.0000000  -0.0000000  -0.0000000
 NQMom=    2.0440000   0.0000000   0.0000000   2.0440000   0.0000000   0.0000000   2.0440000   0.0000000   0.0000000   2.0440000
 NMagM=    0.4037610   0.0000000   0.0000000   0.4037610   0.0000000   2.7928460   0.4037610   0.0000000   2.7928460   0.4037610
 AtZNuc=   7.0000000   6.0000000   6.0000000   7.0000000   6.0000000   1.0000000   7.0000000   6.0000000   1.0000000   7.0000000

  Atom        11          12          13          14          15          16          17          18          19          20
 IAtWgt=          12          12          14           1           1           1           1           1          14          12
 AtmWgt=  12.0000000  12.0000000  14.0030740   1.0078250   1.0078250   1.0078250   1.0078250   1.0078250  14.0030740  12.0000000
 NucSpn=           0           0           2           1           1           1           1           1           2           0
 AtZEff=  -0.0000000  -0.0000000  -0.0000000  -0.0000000  -0.0000000  -0.0000000  -0.0000000  -0.0000000  -0.0000000  -0.0000000
 NQMom=    0.0000000   0.0000000   2.0440000   0.0000000   0.0000000   0.0000000   0.0000000   0.0000000   2.0440000   0.0000000
 NMagM=    0.0000000   0.0000000   0.4037610   2.7928460   2.7928460   2.7928460   2.7928460   2.7928460   0.4037610   0.0000000
 AtZNuc=   6.0000000   6.0000000   7.0000000   1.0000000   1.0000000   1.0000000   1.0000000   1.0000000   7.0000000   6.0000000

  Atom        21          22          23          24          25          26          27          28          29          30
 IAtWgt=          12          14           1           1          14          12          14           1          12          16
 AtmWgt=  12.0000000  14.0030740   1.0078250   1.0078250  14.0030740  12.0000000  14.0030740   1.0078250  12.0000000  15.9949146
 NucSpn=           0           2           1           1           2           0           2           1           0           0
 AtZEff=  -0.0000000  -0.0000000  -0.0000000  -0.0000000  -0.0000000  -0.0000000  -0.0000000  -0.0000000  -0.0000000  -0.0000000
 NQMom=    0.0000000   2.0440000   0.0000000   0.0000000   2.0440000   0.0000000   2.0440000   0.0000000   0.0000000   0.0000000
 NMagM=    0.0000000   0.4037610   2.7928460   2.7928460   0.4037610   0.0000000   0.4037610   2.7928460   0.0000000   0.0000000
 AtZNuc=   6.0000000   7.0000000   1.0000000   1.0000000   7.0000000   6.0000000   7.0000000   1.0000000   6.0000000   8.0000000

  Atom        31          32          33          34          35          36          37          38          39          40
 IAtWgt=          12          14          12           1           1           1           1           1           1           1
 AtmWgt=  12.0000000  14.0030740  12.0000000   1.0078250   1.0078250   1.0078250   1.0078250   1.0078250   1.0078250   1.0078250
 NucSpn=           0           2           0           1           1           1           1           1           1           1
 AtZEff=  -0.0000000  -0.0000000  -0.0000000  -0.0000000  -0.0000000  -0.0000000  -0.0000000  -0.0000000  -0.0000000  -0.0000000
 NQMom=    0.0000000   2.0440000   0.0000000   0.0000000   0.0000000   0.0000000   0.0000000   0.0000000   0.0000000   0.0000000
 NMagM=    0.0000000   0.4037610   0.0000000   2.7928460   2.7928460   2.7928460   2.7928460   2.7928460   2.7928460   2.7928460
 AtZNuc=   6.0000000   7.0000000   6.0000000   1.0000000   1.0000000   1.0000000   1.0000000   1.0000000   1.0000000   1.0000000

  Atom        41          42          43          44          45          46          47          48          49          50
 IAtWgt=           1          12          16          12           1          14          16          12           1          12
 AtmWgt=   1.0078250  12.0000000  15.9949146  12.0000000   1.0078250  14.0030740  15.9949146  12.0000000   1.0078250  12.0000000
 NucSpn=           1           0           0           0           1           2           0           0           1           0
 AtZEff=  -0.0000000  -0.0000000  -0.0000000  -0.0000000  -0.0000000  -0.0000000  -0.0000000  -0.0000000  -0.0000000  -0.0000000
 NQMom=    0.0000000   0.0000000   0.0000000   0.0000000   0.0000000   2.0440000   0.0000000   0.0000000   0.0000000   0.0000000
 NMagM=    2.7928460   0.0000000   0.0000000   0.0000000   2.7928460   0.4037610   0.0000000   0.0000000   2.7928460   0.0000000
 AtZNuc=   1.0000000   6.0000000   8.0000000   6.0000000   1.0000000   7.0000000   8.0000000   6.0000000   1.0000000   6.0000000

  Atom        51          52          53          54          55          56          57          58          59          60
 IAtWgt=          12          14           1           1           1           1           1          14          12          12
 AtmWgt=  12.0000000  14.0030740   1.0078250   1.0078250   1.0078250   1.0078250   1.0078250  14.0030740  12.0000000  12.0000000
 NucSpn=           0           2           1           1           1           1           1           2           0           0
 AtZEff=  -0.0000000  -0.0000000  -0.0000000  -0.0000000  -0.0000000  -0.0000000  -0.0000000  -0.0000000  -0.0000000  -0.0000000
 NQMom=    0.0000000   2.0440000   0.0000000   0.0000000   0.0000000   0.0000000   0.0000000   2.0440000   0.0000000   0.0000000
 NMagM=    0.0000000   0.4037610   2.7928460   2.7928460   2.7928460   2.7928460   2.7928460   0.4037610   0.0000000   0.0000000
 AtZNuc=   6.0000000   7.0000000   1.0000000   1.0000000   1.0000000   1.0000000   1.0000000   7.0000000   6.0000000   6.0000000

  Atom        61          62          63          64          65          66          67          68          69          70
 IAtWgt=          14           1          12          14           1          12          14          12          12          14
 AtmWgt=  14.0030740   1.0078250  12.0000000  14.0030740   1.0078250  12.0000000  14.0030740  12.0000000  12.0000000  14.0030740
 NucSpn=           2           1           0           2           1           0           2           0           0           2
 AtZEff=  -0.0000000  -0.0000000  -0.0000000  -0.0000000  -0.0000000  -0.0000000  -0.0000000  -0.0000000  -0.0000000  -0.0000000
 NQMom=    2.0440000   0.0000000   0.0000000   2.0440000   0.0000000   0.0000000   2.0440000   0.0000000   0.0000000   2.0440000
 NMagM=    0.4037610   2.7928460   0.0000000   0.4037610   2.7928460   0.0000000   0.4037610   0.0000000   0.0000000   0.4037610
 AtZNuc=   7.0000000   1.0000000   6.0000000   7.0000000   1.0000000   6.0000000   7.0000000   6.0000000   6.0000000   7.0000000
 Leave Link  101 at Fri Jan 19 23:25:36 2018, MaxMem=  4294967296 cpu:               7.6 elap:               0.3
 (Enter /share/apps/g16/l202.exe)
 Stoichiometry    C23H27N17O3
 Framework group  C1[X(C23H27N17O3)]
 Deg. of freedom   204
 Full point group                 C1      NOp   1
 Largest Abelian subgroup         C1      NOp   1
 Largest concise Abelian subgroup C1      NOp   1
                         Standard orientation:                         
 ---------------------------------------------------------------------
 Center     Atomic      Atomic             Coordinates (Angstroms)
 Number     Number       Type             X           Y           Z
 ---------------------------------------------------------------------
      1          7           0        6.290378   -0.989713   -0.657057
      2          6           0        7.588353   -0.288352   -0.620280
      3          6           0        4.145566   -1.443873   -0.832667
      4          7           0        4.776728   -2.649489   -0.562787
      5          6           0        6.043635   -2.327624   -0.467795
      6          1           0        6.848566   -3.032969   -0.259204
      7          7           0        2.503953    0.186912   -1.289397
      8          6           0        3.503102    1.074864   -1.317797
      9          1           0        3.205870    2.103002   -1.519891
     10          7           0        4.808147    0.884371   -1.134888
     11          6           0        5.065648   -0.411768   -0.893744
     12          6           0        2.795695   -1.109191   -1.044277
     13          7           0        1.799698   -1.997069   -1.015528
     14          1           0        1.969393   -2.967023   -0.837747
     15          1           0        0.850462   -1.723124   -1.170622
     16          1           0        8.193654   -0.667603   -1.320248
     17          1           0        7.446900    0.685534   -0.795411
     18          1           0        8.007740   -0.405934    0.279878
     19          7           0        3.779277    1.456523    1.357259
     20          6           0        2.424495    1.558364    1.151743
     21          6           0        4.782286    2.461289    0.950896
     22          7           0       -0.308669    3.320334   -0.067690
     23          1           0       -1.299938    3.201664   -0.118185
     24          1           0        0.068285    4.160100   -0.459376
     25          7           0        1.787078    2.585169    0.548893
     26          6           0        0.480480    2.395475    0.499559
     27          7           0       -0.155228    1.285809    1.001598
     28          1           0       -1.158518    1.225374    0.919648
     29          6           0        0.480550    0.217200    1.625875
     30          8           0       -0.186559   -0.737158    2.044073
     31          6           0        1.884591    0.406625    1.686345
     32          7           0        2.880392   -0.402012    2.216814
     33          6           0        3.984481    0.259697    1.999250
     34          1           0        4.979577   -0.080791    2.287577
     35          1           0        5.432809    2.047129    0.315218
     36          1           0        4.321803    3.226655    0.503196
     37          1           0        5.270065    2.792970    1.757663
     38          1           0       -6.076139    1.231804   -0.372490
     39          1           0       -6.297688    1.778235    1.287930
     40          1           0       -4.835173    2.215739    0.404188
     41          1           0       -5.600489   -2.929235    1.995220
     42          6           0       -5.019743   -2.032765    1.777693
     43          8           0       -2.942790   -3.009962    2.376395
     44          6           0       -3.602276   -2.052197    1.973208
     45          1           0       -1.961656   -0.842025    1.793857
     46          7           0       -2.963827   -0.866994    1.668362
     47          8           0       -2.891728    1.291888    0.967517
     48          6           0       -3.541907    0.290413    1.210343
     49          1           0       -6.686816   -0.852309    1.166788
     50          6           0       -5.612282   -0.918807    1.332042
     51          6           0       -5.573950    1.443629    0.559709
     52          7           0       -4.911950    0.230453    1.047277
     53          1           0       -4.773037    2.932311   -2.769403
     54          1           0       -3.602211    3.118244   -1.648385
     55          1           0       -5.145938    2.866369   -1.181944
     56          1           0       -1.489701   -3.585792   -1.427961
     57          1           0       -3.146337   -3.447728   -1.810830
     58          7           0       -2.281237   -2.996278   -1.589416
     59          6           0       -2.188374   -1.667096   -1.513109
     60          6           0       -3.018589    0.560411   -1.616437
     61          7           0       -1.843913    1.139234   -1.317201
     62          1           0        0.086339    0.601356   -0.886573
     63          6           0       -0.901907    0.216183   -1.134144
     64          7           0       -0.992933   -1.115548   -1.210120
     65          1           0       -6.160471    0.393984   -2.360119
     66          6           0       -5.117597    0.180089   -2.124307
     67          7           0       -4.601299   -1.022399   -2.052557
     68          6           0       -3.270872   -0.795569   -1.731227
     69          6           0       -4.453250    2.641950   -1.867510
     70          7           0       -4.216243    1.185302   -1.871687
 ---------------------------------------------------------------------
 Rotational constants (GHZ):           0.1829697           0.0525244           0.0504266
 Leave Link  202 at Fri Jan 19 23:25:36 2018, MaxMem=  4294967296 cpu:               0.4 elap:               0.0
 (Enter /share/apps/g16/l301.exe)
 Standard basis: CC-pVDZ (5D, 7F)
 Ernie: Thresh=  0.10000D-02 Tol=  0.10000D-05 Strict=F.
 Ernie:  86 primitive shells out of 1081 were deleted.
 There are   780 symmetry adapted cartesian basis functions of A   symmetry.
 There are   737 symmetry adapted basis functions of A   symmetry.
   737 basis functions,  1608 primitive gaussians,   780 cartesian basis functions
   154 alpha electrons      154 beta electrons
       nuclear repulsion energy      5658.1754769301 Hartrees.
 IExCor= 4639 DFT=T Ex+Corr=wB97XD ExCW=0 ScaHFX=  1.000000
 ScaDFX=  1.000000  1.000000  1.000000  1.000000 ScalE2=  1.000000  1.000000
 IRadAn=      5 IRanWt=     -1 IRanGd=            0 ICorTp=0 IEmpDi=121
 HFx  wShort=  0.000000 wLong=  0.200000 cFull=  0.222036 cShort=  0.000000 cLong=  0.777964
 DFx  wShort=  0.000000 wLong=  0.200000 cFull=  0.000000 cShort=  0.000000 cLong=  1.000000
 NAtoms=   70 NActive=   70 NUniq=   70 SFac= 1.00D+00 NAtFMM=   60 NAOKFM=T Big=T
 Integral buffers will be    131072 words long.
 Raffenetti 2 integral format.
 Two-electron integral symmetry is turned on.
 R6Disp:  Grimme-D2 Dispersion energy=       -0.0813831432 Hartrees.
 Nuclear repulsion after empirical dispersion term =     5658.0940937869 Hartrees.
 Leave Link  301 at Fri Jan 19 23:25:36 2018, MaxMem=  4294967296 cpu:               3.0 elap:               0.1
 (Enter /share/apps/g16/l302.exe)
 NPDir=0 NMtPBC=     1 NCelOv=     1 NCel=       1 NClECP=     1 NCelD=      1
         NCelK=      1 NCelE2=     1 NClLst=     1 CellRange=     0.0.
 One-electron integrals computed using PRISM.
 One-electron integral symmetry used in STVInt
 NBasis=   737 RedAO= T EigKep=  6.69D-04  NBF=   737
 NBsUse=   737 1.00D-06 EigRej= -1.00D+00 NBFU=   737
 Precomputing XC quadrature grid using
 IXCGrd= 4 IRadAn=           5 IRanWt=          -1 IRanGd=           0 AccXCQ= 0.00D+00.
 Generated NRdTot=       0 NPtTot=           0 NUsed=           0 NTot=          32
 NSgBfM=   768   767   767   768   768 MxSgAt=    70 MxSgA2=    70.
 Leave Link  302 at Fri Jan 19 23:25:40 2018, MaxMem=  4294967296 cpu:             135.7 elap:               4.3
 (Enter /share/apps/g16/l303.exe)
 DipDrv:  MaxL=1.
 Leave Link  303 at Fri Jan 19 23:25:41 2018, MaxMem=  4294967296 cpu:              12.6 elap:               0.4
 (Enter /share/apps/g16/l401.exe)
 ExpMin= 1.22D-01 ExpMax= 1.17D+04 ExpMxC= 4.01D+02 IAcc=3 IRadAn=         5 AccDes= 0.00D+00
 Harris functional with IExCor= 4639 and IRadAn=       5 diagonalized for initial guess.
 HarFok:  IExCor= 4639 AccDes= 0.00D+00 IRadAn=         5 IDoV= 1 UseB2=F ITyADJ=14
 ICtDFT=  3500011 ScaDFX=  1.000000  1.000000  1.000000  1.000000
 FoFCou: FMM=F IPFlag=           0 FMFlag=      100000 FMFlg1=        2001
         NFxFlg=           0 DoJE=T BraDBF=F KetDBF=T FulRan=T
         wScrn=  0.000000 ICntrl=       500 IOpCl=  0 I1Cent=   200000004 NGrid=           0
         NMat0=    1 NMatS0=      1 NMatT0=    0 NMatD0=    1 NMtDS0=    0 NMtDT0=    0
 Petite list used in FoFCou.
 Harris En= -1963.80428122148    
 JPrj=0 DoOrth=F DoCkMO=F.
 Leave Link  401 at Fri Jan 19 23:25:54 2018, MaxMem=  4294967296 cpu:             417.6 elap:              13.1
 (Enter /share/apps/g16/l502.exe)
 Integral symmetry usage will be decided dynamically.
 Closed shell SCF:
 Using DIIS extrapolation, IDIIS=  1040.
 NGot=  4294967296 LenX=  4293717438 LenY=  4293108258
 Requested convergence on RMS density matrix=1.00D-08 within  20 cycles.
 Requested convergence on MAX density matrix=1.00D-06.
 Requested convergence on             energy=1.00D-06.
 No special actions if energy rises.
 Fock matrices will be formed incrementally for  20 cycles.
 Integral accuracy reduced to 1.0D-05 until final iterations.

 Cycle   1  Pass 0  IDiag  1:
 FoFJK:  IHMeth= 1 ICntrl=       0 DoSepK=T KAlg= 0 I1Cent=           0 FoldK=F
 IRaf=         1 NMat=       1 IRICut=       1 DoRegI=T DoRafI=F ISym2E= 0 IDoP0=0 IntGTp=1.
 FoFCou: FMM=T IPFlag=           0 FMFlag=      100000 FMFlg1=        2001
         NFxFlg=           0 DoJE=T BraDBF=F KetDBF=F FulRan=T
         wScrn=  0.000000 ICntrl=       500 IOpCl=  0 I1Cent=           0 NGrid=           0
         NMat0=    1 NMatS0=      1 NMatT0=    0 NMatD0=    1 NMtDS0=    0 NMtDT0=    0
 Symmetry not used in FoFCou.
 FMM levels:  10  Number of levels for PrismC:   9
 E= -2048.25341670828    
 DIIS: error= 1.75D-02 at cycle   1 NSaved=   1.
 NSaved= 1 IEnMin= 1 EnMin= -2048.25341670828     IErMin= 1 ErrMin= 1.75D-02
 ErrMax= 1.75D-02  0.00D+00 EMaxC= 1.00D-01 BMatC= 8.37D-01 BMatP= 8.37D-01
 IDIUse=3 WtCom= 8.25D-01 WtEn= 1.75D-01
 Coeff-Com:  0.100D+01
 Coeff-En:   0.100D+01
 Coeff:      0.100D+01
 Gap=     0.247 Goal=   None    Shift=    0.000
 GapD=    0.247 DampG=1.000 DampE=0.500 DampFc=0.5000 IDamp=-1.
 Damping current iteration by 5.00D-01
 RMSDP=1.62D-03 MaxDP=1.28D-01              OVMax= 2.11D-01

 Cycle   2  Pass 0  IDiag  1:
 RMSU=  8.08D-04    CP:  9.97D-01
 E= -2048.45030617416     Delta-E=       -0.196889465881 Rises=F Damp=T
 DIIS: error= 9.77D-03 at cycle   2 NSaved=   2.
 NSaved= 2 IEnMin= 2 EnMin= -2048.45030617416     IErMin= 2 ErrMin= 9.77D-03
 ErrMax= 9.77D-03  0.00D+00 EMaxC= 1.00D-01 BMatC= 1.47D-01 BMatP= 8.37D-01
 IDIUse=3 WtCom= 9.02D-01 WtEn= 9.77D-02
 Coeff-Com: -0.182D+00 0.118D+01
 Coeff-En:   0.000D+00 0.100D+01
 Coeff:     -0.164D+00 0.116D+01
 Gap=     0.351 Goal=   None    Shift=    0.000
 RMSDP=6.10D-04 MaxDP=3.53D-02 DE=-1.97D-01 OVMax= 1.38D-01

 Cycle   3  Pass 0  IDiag  1:
 RMSU=  6.03D-04    CP:  9.94D-01  1.10D+00
 E= -2048.62869583179     Delta-E=       -0.178389657632 Rises=F Damp=F
 DIIS: error= 7.53D-03 at cycle   3 NSaved=   3.
 NSaved= 3 IEnMin= 3 EnMin= -2048.62869583179     IErMin= 3 ErrMin= 7.53D-03
 ErrMax= 7.53D-03  0.00D+00 EMaxC= 1.00D-01 BMatC= 7.00D-02 BMatP= 1.47D-01
 IDIUse=3 WtCom= 9.25D-01 WtEn= 7.53D-02
 Coeff-Com: -0.234D+00 0.559D+00 0.674D+00
 Coeff-En:   0.000D+00 0.000D+00 0.100D+01
 Coeff:     -0.216D+00 0.517D+00 0.699D+00
 Gap=     0.276 Goal=   None    Shift=    0.000
 RMSDP=3.88D-04 MaxDP=3.32D-02 DE=-1.78D-01 OVMax= 6.02D-02

 Cycle   4  Pass 0  IDiag  1:
 RMSU=  2.15D-04    CP:  9.94D-01  1.40D+00  6.53D-01
 E= -2048.68158897823     Delta-E=       -0.052893146434 Rises=F Damp=F
 DIIS: error= 2.52D-03 at cycle   4 NSaved=   4.
 NSaved= 4 IEnMin= 4 EnMin= -2048.68158897823     IErMin= 4 ErrMin= 2.52D-03
 ErrMax= 2.52D-03  0.00D+00 EMaxC= 1.00D-01 BMatC= 1.02D-02 BMatP= 7.00D-02
 IDIUse=3 WtCom= 9.75D-01 WtEn= 2.52D-02
 Coeff-Com: -0.968D-01 0.187D+00 0.377D+00 0.532D+00
 Coeff-En:   0.000D+00 0.000D+00 0.752D-01 0.925D+00
 Coeff:     -0.944D-01 0.183D+00 0.369D+00 0.542D+00
 Gap=     0.279 Goal=   None    Shift=    0.000
 RMSDP=1.37D-04 MaxDP=1.19D-02 DE=-5.29D-02 OVMax= 1.59D-02

 Cycle   5  Pass 0  IDiag  1:
 RMSU=  6.38D-05    CP:  9.94D-01  1.37D+00  7.92D-01  6.14D-01
 E= -2048.69016063687     Delta-E=       -0.008571658641 Rises=F Damp=F
 DIIS: error= 5.07D-04 at cycle   5 NSaved=   5.
 NSaved= 5 IEnMin= 5 EnMin= -2048.69016063687     IErMin= 5 ErrMin= 5.07D-04
 ErrMax= 5.07D-04  0.00D+00 EMaxC= 1.00D-01 BMatC= 2.96D-04 BMatP= 1.02D-02
 IDIUse=3 WtCom= 9.95D-01 WtEn= 5.07D-03
 Coeff-Com: -0.248D-01 0.423D-01 0.120D+00 0.235D+00 0.628D+00
 Coeff-En:   0.000D+00 0.000D+00 0.000D+00 0.000D+00 0.100D+01
 Coeff:     -0.246D-01 0.421D-01 0.119D+00 0.234D+00 0.630D+00
 Gap=     0.279 Goal=   None    Shift=    0.000
 RMSDP=2.72D-05 MaxDP=1.74D-03 DE=-8.57D-03 OVMax= 3.36D-03

 Failed to achieve initial convergence to 1.0D-08 in  6 cycles.
 Switch to full accuracy anyway.
 Cycle   6  Pass 1  IDiag  1:
 E= -2048.69030035144     Delta-E=       -0.000139714573 Rises=F Damp=F
 DIIS: error= 1.97D-04 at cycle   1 NSaved=   1.
 NSaved= 1 IEnMin= 1 EnMin= -2048.69030035144     IErMin= 1 ErrMin= 1.97D-04
 ErrMax= 1.97D-04  0.00D+00 EMaxC= 1.00D-01 BMatC= 7.88D-05 BMatP= 7.88D-05
 IDIUse=3 WtCom= 9.98D-01 WtEn= 1.97D-03
 Coeff-Com:  0.100D+01
 Coeff-En:   0.100D+01
 Coeff:      0.100D+01
 Gap=     0.279 Goal=   None    Shift=    0.000
 RMSDP=2.72D-05 MaxDP=1.74D-03 DE=-1.40D-04 OVMax= 2.60D-03

 Cycle   7  Pass 1  IDiag  1:
 RMSU=  1.11D-04    CP:  1.00D+00
 E= -2048.69035500440     Delta-E=       -0.000054652959 Rises=F Damp=F
 DIIS: error= 2.11D-04 at cycle   2 NSaved=   2.
 NSaved= 2 IEnMin= 2 EnMin= -2048.69035500440     IErMin= 1 ErrMin= 1.97D-04
 ErrMax= 2.11D-04  0.00D+00 EMaxC= 1.00D-01 BMatC= 4.70D-05 BMatP= 7.88D-05
 IDIUse=3 WtCom= 9.98D-01 WtEn= 2.11D-03
 Coeff-Com:  0.414D+00 0.586D+00
 Coeff-En:   0.143D-01 0.986D+00
 Coeff:      0.413D+00 0.587D+00
 Gap=     0.280 Goal=   None    Shift=    0.000
 RMSDP=1.21D-05 MaxDP=9.80D-04 DE=-5.47D-05 OVMax= 1.75D-03

 Cycle   8  Pass 1  IDiag  1:
 RMSU=  1.18D-05    CP:  1.00D+00  1.02D+00
 E= -2048.69039010532     Delta-E=       -0.000035100916 Rises=F Damp=F
 DIIS: error= 7.19D-05 at cycle   3 NSaved=   3.
 NSaved= 3 IEnMin= 3 EnMin= -2048.69039010532     IErMin= 3 ErrMin= 7.19D-05
 ErrMax= 7.19D-05  0.00D+00 EMaxC= 1.00D-01 BMatC= 1.03D-05 BMatP= 4.70D-05
 IDIUse=1 WtCom= 1.00D+00 WtEn= 0.00D+00
 Coeff-Com: -0.180D-01 0.305D+00 0.713D+00
 Coeff:     -0.180D-01 0.305D+00 0.713D+00
 Gap=     0.280 Goal=   None    Shift=    0.000
 RMSDP=5.83D-06 MaxDP=4.24D-04 DE=-3.51D-05 OVMax= 6.72D-04

 Cycle   9  Pass 1  IDiag  1:
 RMSU=  3.96D-06    CP:  1.00D+00  1.05D+00  7.61D-01
 E= -2048.69040019069     Delta-E=       -0.000010085376 Rises=F Damp=F
 DIIS: error= 2.23D-05 at cycle   4 NSaved=   4.
 NSaved= 4 IEnMin= 4 EnMin= -2048.69040019069     IErMin= 4 ErrMin= 2.23D-05
 ErrMax= 2.23D-05  0.00D+00 EMaxC= 1.00D-01 BMatC= 5.60D-07 BMatP= 1.03D-05
 IDIUse=1 WtCom= 1.00D+00 WtEn= 0.00D+00
 Coeff-Com: -0.308D-01 0.856D-01 0.274D+00 0.671D+00
 Coeff:     -0.308D-01 0.856D-01 0.274D+00 0.671D+00
 Gap=     0.280 Goal=   None    Shift=    0.000
 RMSDP=1.49D-06 MaxDP=1.12D-04 DE=-1.01D-05 OVMax= 4.56D-04

 Cycle  10  Pass 1  IDiag  1:
 RMSU=  1.35D-06    CP:  1.00D+00  1.05D+00  7.98D-01  1.09D+00
 E= -2048.69040108749     Delta-E=       -0.000000896794 Rises=F Damp=F
 DIIS: error= 1.01D-05 at cycle   5 NSaved=   5.
 NSaved= 5 IEnMin= 5 EnMin= -2048.69040108749     IErMin= 5 ErrMin= 1.01D-05
 ErrMax= 1.01D-05  0.00D+00 EMaxC= 1.00D-01 BMatC= 1.25D-07 BMatP= 5.60D-07
 IDIUse=1 WtCom= 1.00D+00 WtEn= 0.00D+00
 Coeff-Com: -0.420D-02-0.511D-01-0.107D+00 0.209D+00 0.953D+00
 Coeff:     -0.420D-02-0.511D-01-0.107D+00 0.209D+00 0.953D+00
 Gap=     0.280 Goal=   None    Shift=    0.000
 RMSDP=1.21D-06 MaxDP=6.94D-05 DE=-8.97D-07 OVMax= 2.30D-04

 Cycle  11  Pass 1  IDiag  1:
 RMSU=  5.05D-07    CP:  1.00D+00  1.06D+00  8.08D-01  1.35D+00  1.17D+00
 E= -2048.69040135327     Delta-E=       -0.000000265782 Rises=F Damp=F
 DIIS: error= 5.15D-06 at cycle   6 NSaved=   6.
 NSaved= 6 IEnMin= 6 EnMin= -2048.69040135327     IErMin= 6 ErrMin= 5.15D-06
 ErrMax= 5.15D-06  0.00D+00 EMaxC= 1.00D-01 BMatC= 3.21D-08 BMatP= 1.25D-07
 IDIUse=1 WtCom= 1.00D+00 WtEn= 0.00D+00
 Coeff-Com:  0.462D-02-0.450D-01-0.116D+00-0.743D-02 0.519D+00 0.644D+00
 Coeff:      0.462D-02-0.450D-01-0.116D+00-0.743D-02 0.519D+00 0.644D+00
 Gap=     0.280 Goal=   None    Shift=    0.000
 RMSDP=4.07D-07 MaxDP=3.48D-05 DE=-2.66D-07 OVMax= 1.24D-04

 Cycle  12  Pass 1  IDiag  1:
 RMSU=  1.94D-07    CP:  1.00D+00  1.06D+00  8.11D-01  1.43D+00  1.31D+00
                    CP:  9.35D-01
 E= -2048.69040139986     Delta-E=       -0.000000046593 Rises=F Damp=F
 DIIS: error= 1.20D-06 at cycle   7 NSaved=   7.
 NSaved= 7 IEnMin= 7 EnMin= -2048.69040139986     IErMin= 7 ErrMin= 1.20D-06
 ErrMax= 1.20D-06  0.00D+00 EMaxC= 1.00D-01 BMatC= 8.42D-10 BMatP= 3.21D-08
 IDIUse=1 WtCom= 1.00D+00 WtEn= 0.00D+00
 Coeff-Com:  0.122D-02-0.845D-02-0.230D-01-0.986D-02 0.705D-01 0.148D+00
 Coeff-Com:  0.822D+00
 Coeff:      0.122D-02-0.845D-02-0.230D-01-0.986D-02 0.705D-01 0.148D+00
 Coeff:      0.822D+00
 Gap=     0.280 Goal=   None    Shift=    0.000
 RMSDP=8.56D-08 MaxDP=4.72D-06 DE=-4.66D-08 OVMax= 2.23D-05

 Cycle  13  Pass 1  IDiag  1:
 RMSU=  5.16D-08    CP:  1.00D+00  1.06D+00  8.10D-01  1.44D+00  1.33D+00
                    CP:  1.02D+00  1.14D+00
 E= -2048.69040140184     Delta-E=       -0.000000001976 Rises=F Damp=F
 DIIS: error= 6.74D-07 at cycle   8 NSaved=   8.
 NSaved= 8 IEnMin= 8 EnMin= -2048.69040140184     IErMin= 8 ErrMin= 6.74D-07
 ErrMax= 6.74D-07  0.00D+00 EMaxC= 1.00D-01 BMatC= 3.55D-10 BMatP= 8.42D-10
 IDIUse=1 WtCom= 1.00D+00 WtEn= 0.00D+00
 Coeff-Com: -0.713D-03 0.867D-02 0.216D-01-0.113D-02-0.112D+00-0.108D+00
 Coeff-Com:  0.415D+00 0.776D+00
 Coeff:     -0.713D-03 0.867D-02 0.216D-01-0.113D-02-0.112D+00-0.108D+00
 Coeff:      0.415D+00 0.776D+00
 Gap=     0.280 Goal=   None    Shift=    0.000
 RMSDP=5.06D-08 MaxDP=2.91D-06 DE=-1.98D-09 OVMax= 1.07D-05

 Cycle  14  Pass 1  IDiag  1:
 RMSU=  2.90D-08    CP:  1.00D+00  1.05D+00  8.10D-01  1.44D+00  1.34D+00
                    CP:  1.06D+00  1.30D+00  1.08D+00
 E= -2048.69040140245     Delta-E=       -0.000000000612 Rises=F Damp=F
 DIIS: error= 1.78D-07 at cycle   9 NSaved=   9.
 NSaved= 9 IEnMin= 9 EnMin= -2048.69040140245     IErMin= 9 ErrMin= 1.78D-07
 ErrMax= 1.78D-07  0.00D+00 EMaxC= 1.00D-01 BMatC= 2.83D-11 BMatP= 3.55D-10
 IDIUse=1 WtCom= 1.00D+00 WtEn= 0.00D+00
 Coeff-Com: -0.405D-03 0.428D-02 0.109D-01 0.756D-03-0.501D-01-0.577D-01
 Coeff-Com:  0.734D-01 0.282D+00 0.737D+00
 Coeff:     -0.405D-03 0.428D-02 0.109D-01 0.756D-03-0.501D-01-0.577D-01
 Coeff:      0.734D-01 0.282D+00 0.737D+00
 Gap=     0.280 Goal=   None    Shift=    0.000
 RMSDP=1.40D-08 MaxDP=7.87D-07 DE=-6.12D-10 OVMax= 3.27D-06

 Cycle  15  Pass 1  IDiag  1:
 RMSU=  9.36D-09    CP:  1.00D+00  1.05D+00  8.10D-01  1.44D+00  1.34D+00
                    CP:  1.07D+00  1.32D+00  1.22D+00  1.13D+00
 E= -2048.69040140230     Delta-E=        0.000000000147 Rises=F Damp=F
 DIIS: error= 5.69D-08 at cycle  10 NSaved=  10.
 NSaved=10 IEnMin= 9 EnMin= -2048.69040140245     IErMin=10 ErrMin= 5.69D-08
 ErrMax= 5.69D-08  0.00D+00 EMaxC= 1.00D-01 BMatC= 4.74D-12 BMatP= 2.83D-11
 IDIUse=1 WtCom= 1.00D+00 WtEn= 0.00D+00
 Coeff-Com:  0.128D-04-0.378D-03-0.871D-03 0.171D-03 0.627D-02 0.273D-02
 Coeff-Com: -0.553D-01-0.680D-01 0.250D+00 0.865D+00
 Coeff:      0.128D-04-0.378D-03-0.871D-03 0.171D-03 0.627D-02 0.273D-02
 Coeff:     -0.553D-01-0.680D-01 0.250D+00 0.865D+00
 Gap=     0.280 Goal=   None    Shift=    0.000
 RMSDP=7.03D-09 MaxDP=3.80D-07 DE= 1.47D-10 OVMax= 1.33D-06

 SCF Done:  E(RwB97XD) =  -2048.69040140     A.U. after   15 cycles
            NFock= 15  Conv=0.70D-08     -V/T= 2.0051
 KE= 2.038218680167D+03 PE=-1.609691876404D+04 EE= 6.351915588687D+03
 Leave Link  502 at Fri Jan 19 23:38:21 2018, MaxMem=  4294967296 cpu:           23198.3 elap:             747.2
 (Enter /share/apps/g16/l601.exe)
 Copying SCF densities to generalized density rwf, IOpCl= 0 IROHF=0.

 **********************************************************************

            Population analysis using the SCF density.

 **********************************************************************

 Orbital symmetries:
       Occupied  (A) (A) (A) (A) (A) (A) (A) (A) (A) (A) (A) (A)
                 (A) (A) (A) (A) (A) (A) (A) (A) (A) (A) (A) (A)
                 (A) (A) (A) (A) (A) (A) (A) (A) (A) (A) (A) (A)
                 (A) (A) (A) (A) (A) (A) (A) (A) (A) (A) (A) (A)
                 (A) (A) (A) (A) (A) (A) (A) (A) (A) (A) (A) (A)
                 (A) (A) (A) (A) (A) (A) (A) (A) (A) (A) (A) (A)
                 (A) (A) (A) (A) (A) (A) (A) (A) (A) (A) (A) (A)
                 (A) (A) (A) (A) (A) (A) (A) (A) (A) (A) (A) (A)
                 (A) (A) (A) (A) (A) (A) (A) (A) (A) (A) (A) (A)
                 (A) (A) (A) (A) (A) (A) (A) (A) (A) (A) (A) (A)
                 (A) (A) (A) (A) (A) (A) (A) (A) (A) (A) (A) (A)
                 (A) (A) (A) (A) (A) (A) (A) (A) (A) (A) (A) (A)
                 (A) (A) (A) (A) (A) (A) (A) (A) (A) (A)
       Virtual   (A) (A) (A) (A) (A) (A) (A) (A) (A) (A) (A) (A)
                 (A) (A) (A) (A) (A) (A) (A) (A) (A) (A) (A) (A)
                 (A) (A) (A) (A) (A) (A) (A) (A) (A) (A) (A) (A)
                 (A) (A) (A) (A) (A) (A) (A) (A) (A) (A) (A) (A)
                 (A) (A) (A) (A) (A) (A) (A) (A) (A) (A) (A) (A)
                 (A) (A) (A) (A) (A) (A) (A) (A) (A) (A) (A) (A)
                 (A) (A) (A) (A) (A) (A) (A) (A) (A) (A) (A) (A)
                 (A) (A) (A) (A) (A) (A) (A) (A) (A) (A) (A) (A)
                 (A) (A) (A) (A) (A) (A) (A) (A) (A) (A) (A) (A)
                 (A) (A) (A) (A) (A) (A) (A) (A) (A) (A) (A) (A)
                 (A) (A) (A) (A) (A) (A) (A) (A) (A) (A) (A) (A)
                 (A) (A) (A) (A) (A) (A) (A) (A) (A) (A) (A) (A)
                 (A) (A) (A) (A) (A) (A) (A) (A) (A) (A) (A) (A)
                 (A) (A) (A) (A) (A) (A) (A) (A) (A) (A) (A) (A)
                 (A) (A) (A) (A) (A) (A) (A) (A) (A) (A) (A) (A)
                 (A) (A) (A) (A) (A) (A) (A) (A) (A) (A) (A) (A)
                 (A) (A) (A) (A) (A) (A) (A) (A) (A) (A) (A) (A)
                 (A) (A) (A) (A) (A) (A) (A) (A) (A) (A) (A) (A)
                 (A) (A) (A) (A) (A) (A) (A) (A) (A) (A) (A) (A)
                 (A) (A) (A) (A) (A) (A) (A) (A) (A) (A) (A) (A)
                 (A) (A) (A) (A) (A) (A) (A) (A) (A) (A) (A) (A)
                 (A) (A) (A) (A) (A) (A) (A) (A) (A) (A) (A) (A)
                 (A) (A) (A) (A) (A) (A) (A) (A) (A) (A) (A) (A)
                 (A) (A) (A) (A) (A) (A) (A) (A) (A) (A) (A) (A)
                 (A) (A) (A) (A) (A) (A) (A) (A) (A) (A) (A) (A)
                 (A) (A) (A) (A) (A) (A) (A) (A) (A) (A) (A) (A)
                 (A) (A) (A) (A) (A) (A) (A) (A) (A) (A) (A) (A)
                 (A) (A) (A) (A) (A) (A) (A) (A) (A) (A) (A) (A)
                 (A) (A) (A) (A) (A) (A) (A) (A) (A) (A) (A) (A)
                 (A) (A) (A) (A) (A) (A) (A) (A) (A) (A) (A) (A)
                 (A) (A) (A) (A) (A) (A) (A) (A) (A) (A) (A) (A)
                 (A) (A) (A) (A) (A) (A) (A) (A) (A) (A) (A) (A)
                 (A) (A) (A) (A) (A) (A) (A) (A) (A) (A) (A) (A)
                 (A) (A) (A) (A) (A) (A) (A) (A) (A) (A) (A) (A)
                 (A) (A) (A) (A) (A) (A) (A) (A) (A) (A) (A) (A)
                 (A) (A) (A) (A) (A) (A) (A) (A) (A) (A) (A) (A)
                 (A) (A) (A) (A) (A) (A) (A) (A) (A) (A) (A) (A)
                 (A) (A) (A) (A) (A) (A) (A) (A) (A) (A) (A) (A)
                 (A) (A) (A) (A) (A) (A) (A) (A) (A) (A) (A) (A)
                 (A) (A) (A) (A) (A) (A) (A) (A) (A) (A) (A) (A)
                 (A) (A) (A) (A) (A) (A) (A) (A) (A) (A) (A) (A)
                 (A) (A) (A) (A) (A) (A) (A) (A) (A) (A) (A) (A)
                 (A) (A) (A) (A) (A) (A) (A) (A) (A) (A) (A) (A)
                 (A) (A) (A) (A) (A) (A) (A) (A) (A) (A) (A) (A)
                 (A) (A) (A) (A) (A) (A) (A) (A) (A) (A) (A) (A)
                 (A) (A) (A) (A) (A) (A) (A) (A) (A) (A) (A) (A)
                 (A) (A) (A) (A) (A) (A) (A) (A) (A) (A) (A) (A)
                 (A) (A) (A) (A) (A) (A) (A) (A) (A) (A) (A) (A)
                 (A) (A) (A) (A) (A) (A) (A)
 The electronic state is 1-A.
 Alpha  occ. eigenvalues --  -19.25477 -19.21709 -19.20436 -14.52327 -14.52237
 Alpha  occ. eigenvalues --  -14.49868 -14.48079 -14.47690 -14.47602 -14.46365
 Alpha  occ. eigenvalues --  -14.45935 -14.45290 -14.43783 -14.43753 -14.43254
 Alpha  occ. eigenvalues --  -14.42370 -14.41645 -14.41602 -14.41021 -14.40407
 Alpha  occ. eigenvalues --  -10.45167 -10.40752 -10.39818 -10.39532 -10.37873
 Alpha  occ. eigenvalues --  -10.37808 -10.37507 -10.36911 -10.36383 -10.35444
 Alpha  occ. eigenvalues --  -10.35147 -10.35012 -10.34304 -10.34054 -10.33770
 Alpha  occ. eigenvalues --  -10.33762 -10.32947 -10.32253 -10.32141 -10.30753
 Alpha  occ. eigenvalues --  -10.29476 -10.28805 -10.27566  -1.19399  -1.15047
 Alpha  occ. eigenvalues --   -1.13039  -1.12742  -1.12398  -1.10258  -1.09304
 Alpha  occ. eigenvalues --   -1.08787  -1.08231  -1.06000  -1.04433  -1.02315
 Alpha  occ. eigenvalues --   -1.01573  -1.00859  -0.99267  -0.98301  -0.97995
 Alpha  occ. eigenvalues --   -0.96457  -0.96031  -0.93699  -0.90852  -0.87685
 Alpha  occ. eigenvalues --   -0.86074  -0.85030  -0.83896  -0.83553  -0.83325
 Alpha  occ. eigenvalues --   -0.81485  -0.78693  -0.76887  -0.74814  -0.74250
 Alpha  occ. eigenvalues --   -0.73887  -0.73357  -0.73165  -0.72043  -0.70274
 Alpha  occ. eigenvalues --   -0.67362  -0.66973  -0.66615  -0.66352  -0.64740
 Alpha  occ. eigenvalues --   -0.64170  -0.63744  -0.63374  -0.62615  -0.61906
 Alpha  occ. eigenvalues --   -0.61408  -0.61135  -0.60624  -0.59483  -0.59441
 Alpha  occ. eigenvalues --   -0.58195  -0.57848  -0.57737  -0.57561  -0.56744
 Alpha  occ. eigenvalues --   -0.56392  -0.56030  -0.55210  -0.54974  -0.54729
 Alpha  occ. eigenvalues --   -0.54045  -0.53658  -0.53180  -0.53035  -0.52661
 Alpha  occ. eigenvalues --   -0.52367  -0.52168  -0.51649  -0.51542  -0.50770
 Alpha  occ. eigenvalues --   -0.50075  -0.49601  -0.49270  -0.49049  -0.48741
 Alpha  occ. eigenvalues --   -0.48454  -0.48263  -0.47992  -0.47824  -0.47076
 Alpha  occ. eigenvalues --   -0.46926  -0.45652  -0.45247  -0.44392  -0.43029
 Alpha  occ. eigenvalues --   -0.41781  -0.40681  -0.39384  -0.38083  -0.37590
 Alpha  occ. eigenvalues --   -0.37453  -0.37157  -0.36866  -0.35768  -0.34713
 Alpha  occ. eigenvalues --   -0.34375  -0.34131  -0.33854  -0.33119  -0.32905
 Alpha  occ. eigenvalues --   -0.32400  -0.31981  -0.31735  -0.31561  -0.31315
 Alpha  occ. eigenvalues --   -0.31088  -0.29228  -0.26616  -0.24828
 Alpha virt. eigenvalues --    0.03129   0.04438   0.06753   0.07406   0.08132
 Alpha virt. eigenvalues --    0.08660   0.10066   0.10173   0.11269   0.12287
 Alpha virt. eigenvalues --    0.13140   0.13397   0.14078   0.14427   0.14729
 Alpha virt. eigenvalues --    0.15502   0.16182   0.17457   0.17992   0.18362
 Alpha virt. eigenvalues --    0.18491   0.19229   0.19382   0.19856   0.19982
 Alpha virt. eigenvalues --    0.20723   0.20969   0.21195   0.21468   0.22045
 Alpha virt. eigenvalues --    0.22906   0.23220   0.23695   0.24236   0.24531
 Alpha virt. eigenvalues --    0.24666   0.25604   0.25823   0.25937   0.26397
 Alpha virt. eigenvalues --    0.26818   0.27153   0.27887   0.28598   0.28740
 Alpha virt. eigenvalues --    0.29375   0.29599   0.30419   0.30586   0.31332
 Alpha virt. eigenvalues --    0.31842   0.31888   0.32952   0.33642   0.34131
 Alpha virt. eigenvalues --    0.34302   0.35118   0.35855   0.36252   0.36586
 Alpha virt. eigenvalues --    0.36932   0.38022   0.38487   0.38989   0.39636
 Alpha virt. eigenvalues --    0.39983   0.40481   0.41177   0.41263   0.41570
 Alpha virt. eigenvalues --    0.42490   0.43304   0.43440   0.44089   0.44450
 Alpha virt. eigenvalues --    0.45290   0.45840   0.46412   0.46579   0.47707
 Alpha virt. eigenvalues --    0.47958   0.48666   0.49378   0.49583   0.49818
 Alpha virt. eigenvalues --    0.50138   0.50867   0.51021   0.51279   0.51751
 Alpha virt. eigenvalues --    0.52508   0.52843   0.53360   0.53584   0.53935
 Alpha virt. eigenvalues --    0.54411   0.54790   0.55105   0.55617   0.55841
 Alpha virt. eigenvalues --    0.56374   0.56852   0.57190   0.57678   0.57886
 Alpha virt. eigenvalues --    0.58434   0.58478   0.59653   0.59921   0.60125
 Alpha virt. eigenvalues --    0.60597   0.61140   0.61354   0.61777   0.62154
 Alpha virt. eigenvalues --    0.62217   0.63069   0.63217   0.64011   0.64137
 Alpha virt. eigenvalues --    0.64593   0.64864   0.64987   0.65359   0.65804
 Alpha virt. eigenvalues --    0.66144   0.66855   0.67350   0.67633   0.67988
 Alpha virt. eigenvalues --    0.68406   0.68828   0.69386   0.69812   0.70214
 Alpha virt. eigenvalues --    0.70609   0.71497   0.71700   0.72409   0.73046
 Alpha virt. eigenvalues --    0.73758   0.73916   0.74035   0.74289   0.74630
 Alpha virt. eigenvalues --    0.74767   0.75494   0.75634   0.75847   0.76189
 Alpha virt. eigenvalues --    0.76736   0.76996   0.77618   0.77967   0.78110
 Alpha virt. eigenvalues --    0.78309   0.78480   0.79063   0.79192   0.79539
 Alpha virt. eigenvalues --    0.79865   0.80425   0.80866   0.81710   0.81861
 Alpha virt. eigenvalues --    0.82312   0.82537   0.82773   0.83121   0.83327
 Alpha virt. eigenvalues --    0.83774   0.84279   0.84867   0.85338   0.85513
 Alpha virt. eigenvalues --    0.86452   0.86506   0.87113   0.87595   0.88137
 Alpha virt. eigenvalues --    0.88589   0.89160   0.89398   0.89942   0.90733
 Alpha virt. eigenvalues --    0.91051   0.91597   0.91928   0.92355   0.93061
 Alpha virt. eigenvalues --    0.93342   0.93646   0.94475   0.95051   0.95137
 Alpha virt. eigenvalues --    0.95848   0.96124   0.96471   0.97190   0.98013
 Alpha virt. eigenvalues --    0.98227   0.98982   0.99379   0.99904   1.00286
 Alpha virt. eigenvalues --    1.00446   1.01519   1.01786   1.02172   1.02506
 Alpha virt. eigenvalues --    1.02825   1.03260   1.04342   1.04717   1.05201
 Alpha virt. eigenvalues --    1.05978   1.06032   1.06495   1.06782   1.07459
 Alpha virt. eigenvalues --    1.07836   1.08665   1.09276   1.09402   1.09940
 Alpha virt. eigenvalues --    1.10609   1.11150   1.11335   1.11929   1.12369
 Alpha virt. eigenvalues --    1.12781   1.12943   1.13903   1.13989   1.14876
 Alpha virt. eigenvalues --    1.15226   1.15725   1.16187   1.16202   1.16794
 Alpha virt. eigenvalues --    1.17827   1.18134   1.18406   1.18829   1.19181
 Alpha virt. eigenvalues --    1.19359   1.19714   1.20408   1.20852   1.21035
 Alpha virt. eigenvalues --    1.21282   1.21567   1.22152   1.22838   1.23326
 Alpha virt. eigenvalues --    1.23527   1.24161   1.24442   1.24972   1.25870
 Alpha virt. eigenvalues --    1.25990   1.26382   1.27291   1.27299   1.27760
 Alpha virt. eigenvalues --    1.28424   1.29104   1.29544   1.30252   1.30800
 Alpha virt. eigenvalues --    1.31009   1.31911   1.32070   1.33200   1.33280
 Alpha virt. eigenvalues --    1.34495   1.34992   1.35451   1.36191   1.37160
 Alpha virt. eigenvalues --    1.37485   1.37857   1.38181   1.38585   1.39767
 Alpha virt. eigenvalues --    1.40283   1.40927   1.41422   1.41802   1.42646
 Alpha virt. eigenvalues --    1.43900   1.44865   1.45494   1.46469   1.47047
 Alpha virt. eigenvalues --    1.47562   1.48405   1.49212   1.49620   1.49818
 Alpha virt. eigenvalues --    1.51137   1.51360   1.53180   1.53362   1.53934
 Alpha virt. eigenvalues --    1.54373   1.55234   1.55847   1.56576   1.56955
 Alpha virt. eigenvalues --    1.57898   1.58317   1.58895   1.59173   1.60392
 Alpha virt. eigenvalues --    1.60817   1.61258   1.61650   1.62779   1.63114
 Alpha virt. eigenvalues --    1.63683   1.64154   1.64594   1.65433   1.65986
 Alpha virt. eigenvalues --    1.66316   1.66742   1.67251   1.67696   1.67941
 Alpha virt. eigenvalues --    1.68763   1.69437   1.69711   1.69870   1.70647
 Alpha virt. eigenvalues --    1.70947   1.71189   1.71794   1.71921   1.72221
 Alpha virt. eigenvalues --    1.72663   1.73217   1.73823   1.74290   1.74944
 Alpha virt. eigenvalues --    1.75419   1.75501   1.75642   1.76303   1.76489
 Alpha virt. eigenvalues --    1.77300   1.77489   1.77930   1.78171   1.78828
 Alpha virt. eigenvalues --    1.79191   1.79542   1.80105   1.80183   1.80651
 Alpha virt. eigenvalues --    1.81019   1.81111   1.81713   1.81943   1.82486
 Alpha virt. eigenvalues --    1.83145   1.83600   1.84071   1.84439   1.84761
 Alpha virt. eigenvalues --    1.85339   1.85703   1.85886   1.86626   1.86792
 Alpha virt. eigenvalues --    1.87201   1.87525   1.88259   1.88637   1.89473
 Alpha virt. eigenvalues --    1.89892   1.90243   1.90620   1.91242   1.91580
 Alpha virt. eigenvalues --    1.92179   1.92501   1.92667   1.93156   1.93380
 Alpha virt. eigenvalues --    1.93748   1.95022   1.95679   1.96144   1.96887
 Alpha virt. eigenvalues --    1.97262   1.97625   1.98147   1.99491   2.00219
 Alpha virt. eigenvalues --    2.01002   2.01851   2.02491   2.02958   2.03477
 Alpha virt. eigenvalues --    2.04079   2.04475   2.05012   2.05533   2.06432
 Alpha virt. eigenvalues --    2.07141   2.07644   2.08588   2.08968   2.09254
 Alpha virt. eigenvalues --    2.09872   2.10117   2.10430   2.11160   2.12614
 Alpha virt. eigenvalues --    2.13097   2.14241   2.14953   2.15019   2.15740
 Alpha virt. eigenvalues --    2.16610   2.18026   2.18440   2.19126   2.20198
 Alpha virt. eigenvalues --    2.20460   2.21061   2.21874   2.22165   2.23388
 Alpha virt. eigenvalues --    2.23522   2.23870   2.24694   2.25296   2.26082
 Alpha virt. eigenvalues --    2.26519   2.26897   2.27624   2.28501   2.28952
 Alpha virt. eigenvalues --    2.29398   2.29901   2.30767   2.30926   2.31286
 Alpha virt. eigenvalues --    2.31590   2.31907   2.32172   2.33122   2.33456
 Alpha virt. eigenvalues --    2.34124   2.34535   2.35369   2.36124   2.37000
 Alpha virt. eigenvalues --    2.37259   2.37820   2.38087   2.38684   2.39773
 Alpha virt. eigenvalues --    2.40068   2.40961   2.41345   2.42136   2.42243
 Alpha virt. eigenvalues --    2.42726   2.43058   2.43632   2.44605   2.44699
 Alpha virt. eigenvalues --    2.45582   2.46373   2.47000   2.47557   2.48539
 Alpha virt. eigenvalues --    2.49177   2.49615   2.51210   2.52332   2.53390
 Alpha virt. eigenvalues --    2.53858   2.56284   2.56656   2.56707   2.57411
 Alpha virt. eigenvalues --    2.57873   2.59462   2.59902   2.60646   2.62006
 Alpha virt. eigenvalues --    2.62933   2.63799   2.64620   2.65218   2.65672
 Alpha virt. eigenvalues --    2.66746   2.66816   2.67067   2.67411   2.68206
 Alpha virt. eigenvalues --    2.68667   2.69032   2.69868   2.70202   2.71821
 Alpha virt. eigenvalues --    2.72573   2.72707   2.73144   2.73640   2.74345
 Alpha virt. eigenvalues --    2.74807   2.75729   2.76176   2.76721   2.78680
 Alpha virt. eigenvalues --    2.79418   2.79634   2.80271   2.80487   2.81055
 Alpha virt. eigenvalues --    2.81313   2.81871   2.82300   2.82482   2.83187
 Alpha virt. eigenvalues --    2.83930   2.84586   2.85229   2.85378   2.86120
 Alpha virt. eigenvalues --    2.86761   2.87034   2.87410   2.88019   2.89064
 Alpha virt. eigenvalues --    2.90174   2.90475   2.91819   2.94862   2.95483
 Alpha virt. eigenvalues --    2.96178   2.98236   2.98835   2.99877   3.00926
 Alpha virt. eigenvalues --    3.01443   3.02931   3.03423   3.06074   3.07128
 Alpha virt. eigenvalues --    3.08307   3.10426   3.11384   3.14709   3.15242
 Alpha virt. eigenvalues --    3.16555   3.16924   3.17181   3.19642   3.22740
 Alpha virt. eigenvalues --    3.23034   3.23534   3.23993   3.24323   3.29176
 Alpha virt. eigenvalues --    3.45446   3.47850   3.49583   3.49665   3.50825
 Alpha virt. eigenvalues --    3.53459   3.54790   3.56803   3.58650   3.60669
 Alpha virt. eigenvalues --    3.64143   3.70954   3.75583
          Condensed to atoms (all electrons):
 Mulliken charges:
               1
     1  N   -0.311641
     2  C    0.175725
     3  C    0.069028
     4  N   -0.254233
     5  C    0.129601
     6  H    0.029156
     7  N   -0.271875
     8  C    0.136417
     9  H    0.018497
    10  N   -0.296036
    11  C    0.229866
    12  C    0.093444
    13  N   -0.045849
    14  H    0.108556
    15  H    0.088711
    16  H    0.030007
    17  H    0.039901
    18  H    0.025970
    19  N   -0.278076
    20  C    0.201382
    21  C    0.191214
    22  N   -0.090681
    23  H    0.114193
    24  H    0.111199
    25  N   -0.284384
    26  C    0.194701
    27  N   -0.145774
    28  H    0.136083
    29  C    0.153569
    30  O   -0.323594
    31  C    0.022537
    32  N   -0.219267
    33  C    0.119494
    34  H    0.017806
    35  H    0.022882
    36  H    0.022113
    37  H    0.009620
    38  H    0.023931
    39  H    0.059538
    40  H    0.069963
    41  H    0.029112
    42  C   -0.105320
    43  O   -0.265944
    44  C    0.178001
    45  H    0.132226
    46  N   -0.125595
    47  O   -0.332080
    48  C    0.333842
    49  H    0.043866
    50  C    0.174868
    51  C    0.056102
    52  N   -0.277031
    53  H    0.032375
    54  H    0.034385
    55  H    0.017331
    56  H    0.121434
    57  H    0.120443
    58  N   -0.063896
    59  C    0.121763
    60  C    0.215397
    61  N   -0.278438
    62  H    0.045316
    63  C    0.154455
    64  N   -0.307050
    65  H    0.043392
    66  C    0.103740
    67  N   -0.239957
    68  C    0.026277
    69  C    0.182056
    70  N   -0.294762
 Sum of Mulliken charges =  -0.00000
 Mulliken charges with hydrogens summed into heavy atoms:
               1
     1  N   -0.311641
     2  C    0.271603
     3  C    0.069028
     4  N   -0.254233
     5  C    0.158757
     7  N   -0.271875
     8  C    0.154914
    10  N   -0.296036
    11  C    0.229866
    12  C    0.093444
    13  N    0.151418
    19  N   -0.278076
    20  C    0.201382
    21  C    0.245830
    22  N    0.134712
    25  N   -0.284384
    26  C    0.194701
    27  N   -0.009691
    29  C    0.153569
    30  O   -0.323594
    31  C    0.022537
    32  N   -0.219267
    33  C    0.137299
    42  C   -0.076208
    43  O   -0.265944
    44  C    0.178001
    46  N    0.006632
    47  O   -0.332080
    48  C    0.333842
    50  C    0.218734
    51  C    0.209534
    52  N   -0.277031
    58  N    0.177981
    59  C    0.121763
    60  C    0.215397
    61  N   -0.278438
    63  C    0.199771
    64  N   -0.307050
    66  C    0.147131
    67  N   -0.239957
    68  C    0.026277
    69  C    0.266147
    70  N   -0.294762
 Electronic spatial extent (au):  <R**2>=          21970.3328
 Charge=              0.0000 electrons
 Dipole moment (field-independent basis, Debye):
    X=             -5.1033    Y=              5.8831    Z=             -4.9219  Tot=              9.2130
 Quadrupole moment (field-independent basis, Debye-Ang):
   XX=           -144.3082   YY=           -228.4843   ZZ=           -261.3802
   XY=            -14.2981   XZ=              8.4720   YZ=             10.4374
 Traceless Quadrupole moment (field-independent basis, Debye-Ang):
   XX=             67.0827   YY=            -17.0934   ZZ=            -49.9893
   XY=            -14.2981   XZ=              8.4720   YZ=             10.4374
 Octapole moment (field-independent basis, Debye-Ang**2):
  XXX=             75.7248  YYY=             45.4592  ZZZ=            -23.4655  XYY=            -56.9355
  XXY=             70.6505  XXZ=             20.2371  XZZ=            -23.0344  YZZ=             40.5865
  YYZ=            -73.7737  XYZ=             20.7262
 Hexadecapole moment (field-independent basis, Debye-Ang**3):
 XXXX=         -15886.3175 YYYY=          -3772.5600 ZZZZ=          -3281.0641 XXXY=           -595.9260
 XXXZ=              9.6536 YYYX=            -22.2673 YYYZ=             85.5242 ZZZX=             33.3263
 ZZZY=             36.4531 XXYY=          -4071.5012 XXZZ=          -4119.0988 YYZZ=          -1265.1557
 XXYZ=            -75.7341 YYXZ=            165.4590 ZZXY=            -85.0010
 N-N= 5.658094093787D+03 E-N=-1.609691874763D+04  KE= 2.038218680167D+03
 No NMR shielding tensors so no spin-rotation constants.
 Leave Link  601 at Fri Jan 19 23:38:23 2018, MaxMem=  4294967296 cpu:              48.8 elap:               1.7
 (Enter /share/apps/g16/l9999.exe)
 1\1\GINC-COMPUTE-0-3\SP\RwB97XD\CC-pVDZ\C23H27N17O3\SATYA\19-Jan-2018\
 0\\#p wb97xd/cc-pvdz sp scf=(maxcycles=20)\\Base pair stacking\\0,1\N,
 0,1.11435,7.44471,-6.627\C,0,1.17457,8.89959,-6.3868\C,0,0.48805,5.336
 44,-6.64326\N,0,1.67337,5.39473,-7.36182\C,0,2.00325,6.66255,-7.32327\
 H,0,2.89289,7.08618,-7.79019\N,0,-1.47003,4.55317,-5.58715\C,0,-1.6838
 3,5.81919,-5.21426\H,0,-2.58613,5.98497,-4.62721\N,0,-0.95382,6.90606,
 -5.45651\C,0,0.13091,6.59227,-6.18406\C,0,-0.36991,4.27001,-6.31834\N,
 0,-0.15475,3.00684,-6.69153\H,0,0.64664,2.75145,-7.23353\H,0,-0.78692,
 2.27312,-6.4422\H,0,1.16898,9.38379,-7.26184\H,0,0.38296,9.18188,-5.84
 569\H,0,2.0129,9.12302,-5.88953\N,0,-0.01921,5.89414,-3.0692\C,0,-0.72
 645,4.72943,-2.89227\C,0,-0.56111,7.25677,-2.89514\N,0,-3.68864,3.1007
 1,-2.09575\H,0,-4.01556,2.15903,-2.02086\H,0,-4.34818,3.82689,-1.89982
 \N,0,-2.02481,4.63487,-2.53258\C,0,-2.42289,3.37822,-2.44325\N,0,-1.61
 301,2.29556,-2.68711\H,0,-2.00275,1.3701,-2.59445\C,0,-0.27415,2.36929
 ,-3.05843\O,0,0.36847,1.33048,-3.25499\C,0,0.16784,3.71298,-3.15849\N,
 0,1.4115,4.22918,-3.49577\C,0,1.25328,5.52332,-3.42964\H,0,2.03483,6.2
 5574,-3.63463\H,0,-0.48425,7.7602,-3.75505\H,0,-1.52233,7.19938,-2.628
 63\H,0,-0.04678,7.73337,-2.18301\H,0,-4.70692,-2.93572,-2.58889\H,0,-4
 .01709,-3.12244,-0.97832\H,0,-4.34871,-1.51053,-1.61325\H,0,-0.27965,-
 4.45762,-3.69778\C,0,-0.78205,-3.54504,-3.37679\O,0,1.01702,-2.1225,-3
 .98245\C,0,-0.11079,-2.28922,-3.51872\H,0,-0.39341,-0.29317,-3.16626\N
 ,0,-0.83473,-1.19809,-3.08214\O,0,-2.65715,-0.1836,-2.18395\C,0,-2.096
 55,-1.20433,-2.5424\H,0,-2.56656,-4.51251,-2.72461\C,0,-2.0132,-3.5833
 ,-2.8539\C,0,-4.02618,-2.50934,-1.86719\N,0,-2.67767,-2.45279,-2.43823
 \H,0,-6.92411,-0.77797,-3.46249\H,0,-5.85088,0.22225,-2.74847\H,0,-5.9
 494,-1.33799,-2.27938\H,0,-0.64309,-0.56557,-7.40826\H,0,-1.60532,-1.9
 6822,-7.27873\N,0,-1.4221,-1.02912,-6.9859\C,0,-2.18342,-0.42284,-6.07
 267\C,0,-3.98178,-0.27393,-4.52172\N,0,-3.71216,0.98774,-4.14764\H,0,-
 2.36111,2.47326,-4.55815\C,0,-2.65001,1.452,-4.80278\N,0,-1.88616,0.84
 633,-5.7178\H,0,-5.54552,-3.10315,-4.57092\C,0,-4.86235,-2.27028,-4.73
 989\N,0,-3.85543,-2.29075,-5.57857\C,0,-3.28861,-1.03101,-5.45008\C,0,
 -6.01149,-0.71429,-3.05869\N,0,-4.99761,-1.08073,-4.06655\\Version=EM6
 4L-G16RevA.03\State=1-A\HF=-2048.6904014\RMSD=7.028e-09\Dipole=-3.5286
 781,-0.6608811,0.4999001\Quadrupole=-13.676703,28.6764326,-14.9997296,
 34.0102659,-19.625413,-8.305203\PG=C01 [X(C23H27N17O3)]\\@


 THE MORE POWERFUL THE METHOD, THE MORE CATASTROPHIC THE ERRORS.
     -- M.D. KAMEN
 Job cpu time:       0 days  6 hours 37 minutes  9.2 seconds.
 Elapsed time:       0 days  0 hours 12 minutes 47.4 seconds.
 File lengths (MBytes):  RWF=    298 Int=      0 D2E=      0 Chk=     33 Scr=      1
 Normal termination of Gaussian 16 at Fri Jan 19 23:38:23 2018.
