 Entering Gaussian System, Link 0=g16
 Input=str20.20.-0.5.com
 Output=str20.20.-0.5.log
 Initial command:
 /share/apps/g16/l1.exe "/state/partition1/scr/Gau-12366.inp" -scrdir="/state/partition1/scr/"
 Entering Link 1 = /share/apps/g16/l1.exe PID=     12367.
  
 Copyright (c) 1988,1990,1992,1993,1995,1998,2003,2009,2016,
            Gaussian, Inc.  All Rights Reserved.
  
 This is part of the Gaussian(R) 16 program.  It is based on
 the Gaussian(R) 09 system (copyright 2009, Gaussian, Inc.),
 the Gaussian(R) 03 system (copyright 2003, Gaussian, Inc.),
 the Gaussian(R) 98 system (copyright 1998, Gaussian, Inc.),
 the Gaussian(R) 94 system (copyright 1995, Gaussian, Inc.),
 the Gaussian 92(TM) system (copyright 1992, Gaussian, Inc.),
 the Gaussian 90(TM) system (copyright 1990, Gaussian, Inc.),
 the Gaussian 88(TM) system (copyright 1988, Gaussian, Inc.),
 the Gaussian 86(TM) system (copyright 1986, Carnegie Mellon
 University), and the Gaussian 82(TM) system (copyright 1983,
 Carnegie Mellon University). Gaussian is a federally registered
 trademark of Gaussian, Inc.
  
 This software contains proprietary and confidential information,
 including trade secrets, belonging to Gaussian, Inc.
  
 This software is provided under written license and may be
 used, copied, transmitted, or stored only in accord with that
 written license.
  
 The following legend is applicable only to US Government
 contracts under FAR:
  
                    RESTRICTED RIGHTS LEGEND
  
 Use, reproduction and disclosure by the US Government is
 subject to restrictions as set forth in subparagraphs (a)
 and (c) of the Commercial Computer Software - Restricted
 Rights clause in FAR 52.227-19.
  
 Gaussian, Inc.
 340 Quinnipiac St., Bldg. 40, Wallingford CT 06492
  
  
 ---------------------------------------------------------------
 Warning -- This program may not be used in any manner that
 competes with the business of Gaussian, Inc. or will provide
 assistance to any competitor of Gaussian, Inc.  The licensee
 of this program is prohibited from giving any competitor of
 Gaussian, Inc. access to this program.  By using this program,
 the user acknowledges that Gaussian, Inc. is engaged in the
 business of creating and licensing software in the field of
 computational chemistry and represents and warrants to the
 licensee that it is not a competitor of Gaussian, Inc. and that
 it will not use this program in any manner prohibited above.
 ---------------------------------------------------------------
  

 Cite this work as:
 Gaussian 16, Revision A.03,
 M. J. Frisch, G. W. Trucks, H. B. Schlegel, G. E. Scuseria, 
 M. A. Robb, J. R. Cheeseman, G. Scalmani, V. Barone, 
 G. A. Petersson, H. Nakatsuji, X. Li, M. Caricato, A. V. Marenich, 
 J. Bloino, B. G. Janesko, R. Gomperts, B. Mennucci, H. P. Hratchian, 
 J. V. Ortiz, A. F. Izmaylov, J. L. Sonnenberg, D. Williams-Young, 
 F. Ding, F. Lipparini, F. Egidi, J. Goings, B. Peng, A. Petrone, 
 T. Henderson, D. Ranasinghe, V. G. Zakrzewski, J. Gao, N. Rega, 
 G. Zheng, W. Liang, M. Hada, M. Ehara, K. Toyota, R. Fukuda, 
 J. Hasegawa, M. Ishida, T. Nakajima, Y. Honda, O. Kitao, H. Nakai, 
 T. Vreven, K. Throssell, J. A. Montgomery, Jr., J. E. Peralta, 
 F. Ogliaro, M. J. Bearpark, J. J. Heyd, E. N. Brothers, K. N. Kudin, 
 V. N. Staroverov, T. A. Keith, R. Kobayashi, J. Normand, 
 K. Raghavachari, A. P. Rendell, J. C. Burant, S. S. Iyengar, 
 J. Tomasi, M. Cossi, J. M. Millam, M. Klene, C. Adamo, R. Cammi, 
 J. W. Ochterski, R. L. Martin, K. Morokuma, O. Farkas, 
 J. B. Foresman, and D. J. Fox, Gaussian, Inc., Wallingford CT, 2016.
 
 ******************************************
 Gaussian 16:  EM64L-G16RevA.03 25-Dec-2016
                19-Jan-2018 
 ******************************************
 %nprocshared=32
 Will use up to   32 processors via shared memory.
 %mem=32GB
 %chk=allatoms_t.chk
 ---------------------------------------
 #p wb97xd/cc-pvdz sp scf=(maxcycles=20)
 ---------------------------------------
 1/38=1,172=1/1;
 2/12=2,17=6,18=5,40=1/2;
 3/5=16,11=2,25=1,30=1,74=-58/1,2,3;
 4//1;
 5/5=2,7=20,38=5/2;
 6/7=2,8=2,9=2,10=2,28=1/1;
 99/5=1,9=1/99;
 Leave Link    1 at Fri Jan 19 23:02:25 2018, MaxMem=  4294967296 cpu:               2.7 elap:               0.1
 (Enter /share/apps/g16/l101.exe)
 ------------------
 Base pair stacking
 ------------------
 Symbolic Z-matrix:
 Charge =  0 Multiplicity = 1
 N                     5.10123   5.72418  -5.41552 
 C                     5.28133   7.13321  -5.81578 
 C                     4.36678   3.65728  -5.25486 
 N                     5.41301   3.76876  -4.35059 
 C                     5.81361   5.00953  -4.48357 
 H                     6.63207   5.4604   -3.92162 
 N                     2.57841   2.80909  -6.53754 
 C                     2.50131   4.02282  -7.09295 
 H                     1.72326   4.14108  -7.84589 
 N                     3.23755   5.10731  -6.85902 
 C                     4.16289   4.85449  -5.91866 
 C                     3.51994   2.58659  -5.59462 
 N                     3.59848   1.37567  -5.03904 
 H                     4.28005   1.16611  -4.33707 
 H                     2.97905   0.63708  -5.30538 
 H                     6.20381   7.26244  -6.17978 
 H                     4.6107    7.36922  -6.5184 
 H                     5.15217   7.72668  -5.02136 
 N                     1.06289   5.39654  -3.36692 
 C                     0.35479   4.23198  -3.54143 
 C                     0.58513   6.74768  -3.72313 
 N                    -2.51759   2.58717  -4.59299 
 H                    -2.85648   1.64764  -4.63387 
 H                    -3.12584   3.30417  -4.93455 
 N                    -0.8864    4.12718  -4.06345 
 C                    -1.30223   2.87371  -4.10237 
 N                    -0.56081   1.80332  -3.66411 
 H                    -0.95917   0.8794   -3.73229 
 C                     0.71842   1.88773  -3.12346 
 O                     1.30156   0.85957  -2.75798 
 C                     1.17864   3.22816  -3.07516 
 N                     2.37978   3.75197  -2.61713 
 C                     2.26603   5.03815  -2.80957 
 H                     3.03259   5.77325  -2.56199 
 H                     1.20183   7.15439  -4.39624 
 H                    -0.33341   6.68264  -4.11084 
 H                     0.56051   7.32084  -2.90478 
 H                    -3.24186  -3.50193  -4.93475 
 H                    -3.71665  -3.47999  -3.23807 
 H                    -3.51543  -1.96355  -4.11628 
 H                     0.8444   -4.96273  -2.85747 
 C                     0.28799  -4.04048  -3.0251 
 O                     2.1257   -2.62486  -2.52915 
 C                     0.94975  -2.78295  -2.85618 
 H                     0.58783  -0.7727   -2.98345 
 N                     0.15538  -1.67921  -3.09274 
 O                    -1.7872   -0.64319  -3.64974 
 C                    -1.16625  -1.67473  -3.46264 
 H                    -1.54947  -4.99846  -3.5269 
 C                    -1.00045  -4.06848  -3.38529 
 C                    -3.1446   -2.97101  -3.99948 
 N                    -1.73383  -2.92562  -3.60529 
 H                    -2.48066  -2.67314  -9.18957 
 H                    -2.53006  -1.24354  -8.40478 
 H                    -3.3965   -2.51006  -7.84865 
 H                     3.164    -2.21733  -4.39419 
 H                     2.3744   -3.68601  -4.7542 
 N                     2.41081  -2.69076  -4.85104 
 C                     1.49514  -2.02545  -5.55821 
 C                    -0.45026  -1.8203   -6.91285 
 N                    -0.37627  -0.48381  -7.02573 
 H                     0.81443   1.06304  -6.40115 
 C                     0.6791   -0.01695  -6.36155 
 N                     1.59737  -0.68168  -5.65268 
 H                    -1.64024  -4.79247  -7.36262 
 C                    -1.05201  -3.92329  -7.0669 
 N                     0.02657  -3.97117  -6.32391 
 C                     0.41821  -2.64443  -6.21851 
 C                    -2.54278  -2.23664  -8.29202 
 N                    -1.3981   -2.6531   -7.45878 
 
 ITRead=  0  0  0  0  0  0  0  0  0  0  0  0  0  0  0  0  0  0  0  0
 ITRead=  0  0  0  0  0  0  0  0  0  0  0  0  0  0  0  0  0  0  0  0
 ITRead=  0  0  0  0  0  0  0  0  0  0  0  0  0  0  0  0  0  0  0  0
 ITRead=  0  0  0  0  0  0  0  0  0  0
 MicOpt= -1 -1 -1 -1 -1 -1 -1 -1 -1 -1 -1 -1 -1 -1 -1 -1 -1 -1 -1 -1
 MicOpt= -1 -1 -1 -1 -1 -1 -1 -1 -1 -1 -1 -1 -1 -1 -1 -1 -1 -1 -1 -1
 MicOpt= -1 -1 -1 -1 -1 -1 -1 -1 -1 -1 -1 -1 -1 -1 -1 -1 -1 -1 -1 -1
 MicOpt= -1 -1 -1 -1 -1 -1 -1 -1 -1 -1
 NAtoms=     70 NQM=       70 NQMF=       0 NMMI=      0 NMMIF=      0
                NMic=       0 NMicF=      0.
                    Isotopes and Nuclear Properties:
 (Nuclear quadrupole moments (NQMom) in fm**2, nuclear magnetic moments (NMagM)
  in nuclear magnetons)

  Atom         1           2           3           4           5           6           7           8           9          10
 IAtWgt=          14          12          12          14          12           1          14          12           1          14
 AtmWgt=  14.0030740  12.0000000  12.0000000  14.0030740  12.0000000   1.0078250  14.0030740  12.0000000   1.0078250  14.0030740
 NucSpn=           2           0           0           2           0           1           2           0           1           2
 AtZEff=  -0.0000000  -0.0000000  -0.0000000  -0.0000000  -0.0000000  -0.0000000  -0.0000000  -0.0000000  -0.0000000  -0.0000000
 NQMom=    2.0440000   0.0000000   0.0000000   2.0440000   0.0000000   0.0000000   2.0440000   0.0000000   0.0000000   2.0440000
 NMagM=    0.4037610   0.0000000   0.0000000   0.4037610   0.0000000   2.7928460   0.4037610   0.0000000   2.7928460   0.4037610
 AtZNuc=   7.0000000   6.0000000   6.0000000   7.0000000   6.0000000   1.0000000   7.0000000   6.0000000   1.0000000   7.0000000

  Atom        11          12          13          14          15          16          17          18          19          20
 IAtWgt=          12          12          14           1           1           1           1           1          14          12
 AtmWgt=  12.0000000  12.0000000  14.0030740   1.0078250   1.0078250   1.0078250   1.0078250   1.0078250  14.0030740  12.0000000
 NucSpn=           0           0           2           1           1           1           1           1           2           0
 AtZEff=  -0.0000000  -0.0000000  -0.0000000  -0.0000000  -0.0000000  -0.0000000  -0.0000000  -0.0000000  -0.0000000  -0.0000000
 NQMom=    0.0000000   0.0000000   2.0440000   0.0000000   0.0000000   0.0000000   0.0000000   0.0000000   2.0440000   0.0000000
 NMagM=    0.0000000   0.0000000   0.4037610   2.7928460   2.7928460   2.7928460   2.7928460   2.7928460   0.4037610   0.0000000
 AtZNuc=   6.0000000   6.0000000   7.0000000   1.0000000   1.0000000   1.0000000   1.0000000   1.0000000   7.0000000   6.0000000

  Atom        21          22          23          24          25          26          27          28          29          30
 IAtWgt=          12          14           1           1          14          12          14           1          12          16
 AtmWgt=  12.0000000  14.0030740   1.0078250   1.0078250  14.0030740  12.0000000  14.0030740   1.0078250  12.0000000  15.9949146
 NucSpn=           0           2           1           1           2           0           2           1           0           0
 AtZEff=  -0.0000000  -0.0000000  -0.0000000  -0.0000000  -0.0000000  -0.0000000  -0.0000000  -0.0000000  -0.0000000  -0.0000000
 NQMom=    0.0000000   2.0440000   0.0000000   0.0000000   2.0440000   0.0000000   2.0440000   0.0000000   0.0000000   0.0000000
 NMagM=    0.0000000   0.4037610   2.7928460   2.7928460   0.4037610   0.0000000   0.4037610   2.7928460   0.0000000   0.0000000
 AtZNuc=   6.0000000   7.0000000   1.0000000   1.0000000   7.0000000   6.0000000   7.0000000   1.0000000   6.0000000   8.0000000

  Atom        31          32          33          34          35          36          37          38          39          40
 IAtWgt=          12          14          12           1           1           1           1           1           1           1
 AtmWgt=  12.0000000  14.0030740  12.0000000   1.0078250   1.0078250   1.0078250   1.0078250   1.0078250   1.0078250   1.0078250
 NucSpn=           0           2           0           1           1           1           1           1           1           1
 AtZEff=  -0.0000000  -0.0000000  -0.0000000  -0.0000000  -0.0000000  -0.0000000  -0.0000000  -0.0000000  -0.0000000  -0.0000000
 NQMom=    0.0000000   2.0440000   0.0000000   0.0000000   0.0000000   0.0000000   0.0000000   0.0000000   0.0000000   0.0000000
 NMagM=    0.0000000   0.4037610   0.0000000   2.7928460   2.7928460   2.7928460   2.7928460   2.7928460   2.7928460   2.7928460
 AtZNuc=   6.0000000   7.0000000   6.0000000   1.0000000   1.0000000   1.0000000   1.0000000   1.0000000   1.0000000   1.0000000

  Atom        41          42          43          44          45          46          47          48          49          50
 IAtWgt=           1          12          16          12           1          14          16          12           1          12
 AtmWgt=   1.0078250  12.0000000  15.9949146  12.0000000   1.0078250  14.0030740  15.9949146  12.0000000   1.0078250  12.0000000
 NucSpn=           1           0           0           0           1           2           0           0           1           0
 AtZEff=  -0.0000000  -0.0000000  -0.0000000  -0.0000000  -0.0000000  -0.0000000  -0.0000000  -0.0000000  -0.0000000  -0.0000000
 NQMom=    0.0000000   0.0000000   0.0000000   0.0000000   0.0000000   2.0440000   0.0000000   0.0000000   0.0000000   0.0000000
 NMagM=    2.7928460   0.0000000   0.0000000   0.0000000   2.7928460   0.4037610   0.0000000   0.0000000   2.7928460   0.0000000
 AtZNuc=   1.0000000   6.0000000   8.0000000   6.0000000   1.0000000   7.0000000   8.0000000   6.0000000   1.0000000   6.0000000

  Atom        51          52          53          54          55          56          57          58          59          60
 IAtWgt=          12          14           1           1           1           1           1          14          12          12
 AtmWgt=  12.0000000  14.0030740   1.0078250   1.0078250   1.0078250   1.0078250   1.0078250  14.0030740  12.0000000  12.0000000
 NucSpn=           0           2           1           1           1           1           1           2           0           0
 AtZEff=  -0.0000000  -0.0000000  -0.0000000  -0.0000000  -0.0000000  -0.0000000  -0.0000000  -0.0000000  -0.0000000  -0.0000000
 NQMom=    0.0000000   2.0440000   0.0000000   0.0000000   0.0000000   0.0000000   0.0000000   2.0440000   0.0000000   0.0000000
 NMagM=    0.0000000   0.4037610   2.7928460   2.7928460   2.7928460   2.7928460   2.7928460   0.4037610   0.0000000   0.0000000
 AtZNuc=   6.0000000   7.0000000   1.0000000   1.0000000   1.0000000   1.0000000   1.0000000   7.0000000   6.0000000   6.0000000

  Atom        61          62          63          64          65          66          67          68          69          70
 IAtWgt=          14           1          12          14           1          12          14          12          12          14
 AtmWgt=  14.0030740   1.0078250  12.0000000  14.0030740   1.0078250  12.0000000  14.0030740  12.0000000  12.0000000  14.0030740
 NucSpn=           2           1           0           2           1           0           2           0           0           2
 AtZEff=  -0.0000000  -0.0000000  -0.0000000  -0.0000000  -0.0000000  -0.0000000  -0.0000000  -0.0000000  -0.0000000  -0.0000000
 NQMom=    2.0440000   0.0000000   0.0000000   2.0440000   0.0000000   0.0000000   2.0440000   0.0000000   0.0000000   2.0440000
 NMagM=    0.4037610   2.7928460   0.0000000   0.4037610   2.7928460   0.0000000   0.4037610   0.0000000   0.0000000   0.4037610
 AtZNuc=   7.0000000   1.0000000   6.0000000   7.0000000   1.0000000   6.0000000   7.0000000   6.0000000   6.0000000   7.0000000
 Leave Link  101 at Fri Jan 19 23:02:25 2018, MaxMem=  4294967296 cpu:               7.7 elap:               0.3
 (Enter /share/apps/g16/l202.exe)
 Stoichiometry    C23H27N17O3
 Framework group  C1[X(C23H27N17O3)]
 Deg. of freedom   204
 Full point group                 C1      NOp   1
 Largest Abelian subgroup         C1      NOp   1
 Largest concise Abelian subgroup C1      NOp   1
                         Standard orientation:                         
 ---------------------------------------------------------------------
 Center     Atomic      Atomic             Coordinates (Angstroms)
 Number     Number       Type             X           Y           Z
 ---------------------------------------------------------------------
      1          7           0       -6.086653   -1.602146    0.304039
      2          6           0       -7.406486   -1.278353    0.879546
      3          6           0       -3.920404   -1.821907   -0.006400
      4          7           0       -4.529980   -2.356329   -1.132251
      5          6           0       -5.810666   -2.202536   -0.900164
      6          1           0       -6.605420   -2.511816   -1.579620
      7          7           0       -2.303571   -1.105139    1.554067
      8          6           0       -3.326787   -0.700196    2.313418
      9          1           0       -3.049307   -0.242581    3.262027
     10          7           0       -4.635160   -0.775304    2.078024
     11          6           0       -4.867116   -1.353102    0.887732
     12          6           0       -2.569955   -1.682651    0.362176
     13          7           0       -1.549900   -2.087538   -0.397243
     14          1           0       -1.700345   -2.520105   -1.286887
     15          1           0       -0.601067   -1.972338   -0.102980
     16          1           0       -7.939062   -2.117769    0.988681
     17          1           0       -7.284517   -0.843808    1.771406
     18          1           0       -7.893973   -0.653253    0.269957
     19          7           0       -3.978618    2.324598   -0.561508
     20          6           0       -2.614080    2.361095   -0.404142
     21          6           0       -4.942993    3.190959    0.145682
     22          7           0        0.204825    3.722052    1.100289
     23          1           0        1.195022    3.588971    1.068121
     24          1           0       -0.138001    4.429879    1.718489
     25          7           0       -1.930527    3.187865    0.416374
     26          6           0       -0.626748    2.984932    0.348588
     27          7           0       -0.035600    2.044767   -0.460203
     28          1           0        0.969147    1.959430   -0.447268
     29          6           0       -0.719283    1.183360   -1.312502
     30          8           0       -0.090009    0.370523   -2.001016
     31          6           0       -2.120914    1.389501   -1.250654
     32          7           0       -3.155021    0.755790   -1.925885
     33          6           0       -4.235449    1.341984   -1.486244
     34          1           0       -5.248981    1.095435   -1.804438
     35          1           0       -5.570645    2.626518    0.680721
     36          1           0       -4.448173    3.807742    0.756417
     37          1           0       -5.461702    3.727296   -0.519224
     38          1           0        5.940964    1.596825    0.553825
     39          1           0        6.094812    2.562810   -0.911724
     40          1           0        4.683376    2.758075    0.128013
     41          1           0        5.279195   -1.784777   -2.803760
     42          6           0        4.725767   -0.975013   -2.328116
     43          8           0        2.605581   -1.747403   -3.059790
     44          6           0        3.300598   -0.934362   -2.450928
     45          1           0        1.692599    0.193629   -1.876242
     46          7           0        2.698905    0.130940   -1.811926
     47          8           0        2.699166    2.027040   -0.562123
     48          6           0        3.318836    1.122360   -1.093370
     49          1           0        6.440875   -0.007708   -1.510489
     50          6           0        5.358772   -0.022289   -1.633695
     51          6           0        5.399811    2.050929   -0.262881
     52          7           0        4.693670    1.014027   -1.020454
     53          1           0        4.972150   -0.084054    4.504250
     54          1           0        3.707716    0.830848    4.028587
     55          1           0        5.215717    1.196589    3.522387
     56          1           0        1.814596   -3.057491   -1.516892
     57          1           0        3.491352   -3.144369   -1.215167
     58          7           0        2.596095   -2.778265   -0.958829
     59          6           0        2.451922   -1.954379    0.081173
     60          6           0        3.211195   -0.675707    1.938651
     61          7           0        1.996854   -0.199535    2.259677
     62          1           0        0.057318   -0.329260    1.610075
     63          6           0        1.075109   -0.667500    1.420455
     64          7           0        1.217514   -1.492763    0.378225
     65          1           0        6.407300   -1.102860    2.172300
     66          6           0        5.356531   -1.125952    1.881971
     67          7           0        4.877492   -1.809170    0.871330
     68          6           0        3.518234   -1.532513    0.895986
     69          6           0        4.589628    0.450984    3.750991
     70          7           0        4.403676   -0.416851    2.571879
 ---------------------------------------------------------------------
 Rotational constants (GHZ):           0.1545895           0.0523016           0.0499118
 Leave Link  202 at Fri Jan 19 23:02:25 2018, MaxMem=  4294967296 cpu:               0.3 elap:               0.0
 (Enter /share/apps/g16/l301.exe)
 Standard basis: CC-pVDZ (5D, 7F)
 Ernie: Thresh=  0.10000D-02 Tol=  0.10000D-05 Strict=F.
 Ernie:  86 primitive shells out of 1081 were deleted.
 There are   780 symmetry adapted cartesian basis functions of A   symmetry.
 There are   737 symmetry adapted basis functions of A   symmetry.
   737 basis functions,  1608 primitive gaussians,   780 cartesian basis functions
   154 alpha electrons      154 beta electrons
       nuclear repulsion energy      5516.2742361966 Hartrees.
 IExCor= 4639 DFT=T Ex+Corr=wB97XD ExCW=0 ScaHFX=  1.000000
 ScaDFX=  1.000000  1.000000  1.000000  1.000000 ScalE2=  1.000000  1.000000
 IRadAn=      5 IRanWt=     -1 IRanGd=            0 ICorTp=0 IEmpDi=121
 HFx  wShort=  0.000000 wLong=  0.200000 cFull=  0.222036 cShort=  0.000000 cLong=  0.777964
 DFx  wShort=  0.000000 wLong=  0.200000 cFull=  0.000000 cShort=  0.000000 cLong=  1.000000
 NAtoms=   70 NActive=   70 NUniq=   70 SFac= 1.00D+00 NAtFMM=   60 NAOKFM=T Big=T
 Integral buffers will be    131072 words long.
 Raffenetti 2 integral format.
 Two-electron integral symmetry is turned on.
 R6Disp:  Grimme-D2 Dispersion energy=       -0.0707597309 Hartrees.
 Nuclear repulsion after empirical dispersion term =     5516.2034764657 Hartrees.
 Leave Link  301 at Fri Jan 19 23:02:26 2018, MaxMem=  4294967296 cpu:               2.2 elap:               0.1
 (Enter /share/apps/g16/l302.exe)
 NPDir=0 NMtPBC=     1 NCelOv=     1 NCel=       1 NClECP=     1 NCelD=      1
         NCelK=      1 NCelE2=     1 NClLst=     1 CellRange=     0.0.
 One-electron integrals computed using PRISM.
 One-electron integral symmetry used in STVInt
 NBasis=   737 RedAO= T EigKep=  6.95D-04  NBF=   737
 NBsUse=   737 1.00D-06 EigRej= -1.00D+00 NBFU=   737
 Precomputing XC quadrature grid using
 IXCGrd= 4 IRadAn=           5 IRanWt=          -1 IRanGd=           0 AccXCQ= 0.00D+00.
 Generated NRdTot=       0 NPtTot=           0 NUsed=           0 NTot=          32
 NSgBfM=   763   759   760   763   763 MxSgAt=    70 MxSgA2=    70.
 Leave Link  302 at Fri Jan 19 23:02:30 2018, MaxMem=  4294967296 cpu:             134.6 elap:               4.2
 (Enter /share/apps/g16/l303.exe)
 DipDrv:  MaxL=1.
 Leave Link  303 at Fri Jan 19 23:02:31 2018, MaxMem=  4294967296 cpu:              30.6 elap:               1.0
 (Enter /share/apps/g16/l401.exe)
 ExpMin= 1.22D-01 ExpMax= 1.17D+04 ExpMxC= 4.01D+02 IAcc=3 IRadAn=         5 AccDes= 0.00D+00
 Harris functional with IExCor= 4639 and IRadAn=       5 diagonalized for initial guess.
 HarFok:  IExCor= 4639 AccDes= 0.00D+00 IRadAn=         5 IDoV= 1 UseB2=F ITyADJ=14
 ICtDFT=  3500011 ScaDFX=  1.000000  1.000000  1.000000  1.000000
 FoFCou: FMM=F IPFlag=           0 FMFlag=      100000 FMFlg1=        2001
         NFxFlg=           0 DoJE=T BraDBF=F KetDBF=T FulRan=T
         wScrn=  0.000000 ICntrl=       500 IOpCl=  0 I1Cent=   200000004 NGrid=           0
         NMat0=    1 NMatS0=      1 NMatT0=    0 NMatD0=    1 NMtDS0=    0 NMtDT0=    0
 Petite list used in FoFCou.
 Harris En= -1963.86012241737    
 JPrj=0 DoOrth=F DoCkMO=F.
 Leave Link  401 at Fri Jan 19 23:02:43 2018, MaxMem=  4294967296 cpu:             398.7 elap:              12.5
 (Enter /share/apps/g16/l502.exe)
 Integral symmetry usage will be decided dynamically.
 Closed shell SCF:
 Using DIIS extrapolation, IDIIS=  1040.
 NGot=  4294967296 LenX=  4293717438 LenY=  4293108258
 Requested convergence on RMS density matrix=1.00D-08 within  20 cycles.
 Requested convergence on MAX density matrix=1.00D-06.
 Requested convergence on             energy=1.00D-06.
 No special actions if energy rises.
 Fock matrices will be formed incrementally for  20 cycles.
 Integral accuracy reduced to 1.0D-05 until final iterations.

 Cycle   1  Pass 0  IDiag  1:
 FoFJK:  IHMeth= 1 ICntrl=       0 DoSepK=T KAlg= 0 I1Cent=           0 FoldK=F
 IRaf=         1 NMat=       1 IRICut=       1 DoRegI=T DoRafI=F ISym2E= 0 IDoP0=0 IntGTp=1.
 FoFCou: FMM=T IPFlag=           0 FMFlag=      100000 FMFlg1=        2001
         NFxFlg=           0 DoJE=T BraDBF=F KetDBF=F FulRan=T
         wScrn=  0.000000 ICntrl=       500 IOpCl=  0 I1Cent=           0 NGrid=           0
         NMat0=    1 NMatS0=      1 NMatT0=    0 NMatD0=    1 NMtDS0=    0 NMtDT0=    0
 Symmetry not used in FoFCou.
 FMM levels:  10  Number of levels for PrismC:   9
 E= -2048.29394400244    
 DIIS: error= 2.02D-02 at cycle   1 NSaved=   1.
 NSaved= 1 IEnMin= 1 EnMin= -2048.29394400244     IErMin= 1 ErrMin= 2.02D-02
 ErrMax= 2.02D-02  0.00D+00 EMaxC= 1.00D-01 BMatC= 8.36D-01 BMatP= 8.36D-01
 IDIUse=3 WtCom= 7.98D-01 WtEn= 2.02D-01
 Coeff-Com:  0.100D+01
 Coeff-En:   0.100D+01
 Coeff:      0.100D+01
 Gap=     0.257 Goal=   None    Shift=    0.000
 GapD=    0.257 DampG=1.000 DampE=0.500 DampFc=0.5000 IDamp=-1.
 Damping current iteration by 5.00D-01
 RMSDP=1.59D-03 MaxDP=1.18D-01              OVMax= 1.72D-01

 Cycle   2  Pass 0  IDiag  1:
 RMSU=  7.92D-04    CP:  9.98D-01
 E= -2048.49030385413     Delta-E=       -0.196359851688 Rises=F Damp=T
 DIIS: error= 1.13D-02 at cycle   2 NSaved=   2.
 NSaved= 2 IEnMin= 2 EnMin= -2048.49030385413     IErMin= 2 ErrMin= 1.13D-02
 ErrMax= 1.13D-02  0.00D+00 EMaxC= 1.00D-01 BMatC= 1.46D-01 BMatP= 8.36D-01
 IDIUse=3 WtCom= 8.87D-01 WtEn= 1.13D-01
 Coeff-Com: -0.185D+00 0.119D+01
 Coeff-En:   0.000D+00 0.100D+01
 Coeff:     -0.164D+00 0.116D+01
 Gap=     0.365 Goal=   None    Shift=    0.000
 RMSDP=5.96D-04 MaxDP=3.24D-02 DE=-1.96D-01 OVMax= 1.51D-01

 Cycle   3  Pass 0  IDiag  1:
 RMSU=  5.89D-04    CP:  9.94D-01  1.10D+00
 E= -2048.66877901528     Delta-E=       -0.178475161148 Rises=F Damp=F
 DIIS: error= 5.67D-03 at cycle   3 NSaved=   3.
 NSaved= 3 IEnMin= 3 EnMin= -2048.66877901528     IErMin= 3 ErrMin= 5.67D-03
 ErrMax= 5.67D-03  0.00D+00 EMaxC= 1.00D-01 BMatC= 6.80D-02 BMatP= 1.46D-01
 IDIUse=3 WtCom= 9.43D-01 WtEn= 5.67D-02
 Coeff-Com: -0.232D+00 0.556D+00 0.676D+00
 Coeff-En:   0.000D+00 0.000D+00 0.100D+01
 Coeff:     -0.219D+00 0.524D+00 0.695D+00
 Gap=     0.281 Goal=   None    Shift=    0.000
 RMSDP=3.71D-04 MaxDP=2.75D-02 DE=-1.78D-01 OVMax= 6.43D-02

 Cycle   4  Pass 0  IDiag  1:
 RMSU=  2.11D-04    CP:  9.94D-01  1.40D+00  6.60D-01
 E= -2048.72090294624     Delta-E=       -0.052123930958 Rises=F Damp=F
 DIIS: error= 2.44D-03 at cycle   4 NSaved=   4.
 NSaved= 4 IEnMin= 4 EnMin= -2048.72090294624     IErMin= 4 ErrMin= 2.44D-03
 ErrMax= 2.44D-03  0.00D+00 EMaxC= 1.00D-01 BMatC= 9.09D-03 BMatP= 6.80D-02
 IDIUse=3 WtCom= 9.76D-01 WtEn= 2.44D-02
 Coeff-Com: -0.983D-01 0.190D+00 0.370D+00 0.538D+00
 Coeff-En:   0.000D+00 0.000D+00 0.519D-01 0.948D+00
 Coeff:     -0.959D-01 0.186D+00 0.362D+00 0.548D+00
 Gap=     0.284 Goal=   None    Shift=    0.000
 RMSDP=1.28D-04 MaxDP=1.06D-02 DE=-5.21D-02 OVMax= 1.45D-02

 Cycle   5  Pass 0  IDiag  1:
 RMSU=  6.07D-05    CP:  9.94D-01  1.37D+00  7.92D-01  6.28D-01
 E= -2048.72851925846     Delta-E=       -0.007616312221 Rises=F Damp=F
 DIIS: error= 3.84D-04 at cycle   5 NSaved=   5.
 NSaved= 5 IEnMin= 5 EnMin= -2048.72851925846     IErMin= 5 ErrMin= 3.84D-04
 ErrMax= 3.84D-04  0.00D+00 EMaxC= 1.00D-01 BMatC= 2.84D-04 BMatP= 9.09D-03
 IDIUse=3 WtCom= 9.96D-01 WtEn= 3.84D-03
 Coeff-Com: -0.252D-01 0.433D-01 0.116D+00 0.236D+00 0.631D+00
 Coeff-En:   0.000D+00 0.000D+00 0.000D+00 0.000D+00 0.100D+01
 Coeff:     -0.252D-01 0.432D-01 0.115D+00 0.235D+00 0.632D+00
 Gap=     0.284 Goal=   None    Shift=    0.000
 RMSDP=2.69D-05 MaxDP=1.50D-03 DE=-7.62D-03 OVMax= 3.17D-03

 Failed to achieve initial convergence to 1.0D-08 in  6 cycles.
 Switch to full accuracy anyway.
 Cycle   6  Pass 1  IDiag  1:
 E= -2048.72874442392     Delta-E=       -0.000225165461 Rises=F Damp=F
 DIIS: error= 2.27D-04 at cycle   1 NSaved=   1.
 NSaved= 1 IEnMin= 1 EnMin= -2048.72874442392     IErMin= 1 ErrMin= 2.27D-04
 ErrMax= 2.27D-04  0.00D+00 EMaxC= 1.00D-01 BMatC= 7.52D-05 BMatP= 7.52D-05
 IDIUse=3 WtCom= 9.98D-01 WtEn= 2.27D-03
 Coeff-Com:  0.100D+01
 Coeff-En:   0.100D+01
 Coeff:      0.100D+01
 Gap=     0.284 Goal=   None    Shift=    0.000
 RMSDP=2.69D-05 MaxDP=1.50D-03 DE=-2.25D-04 OVMax= 2.73D-03

 Cycle   7  Pass 1  IDiag  1:
 RMSU=  1.12D-04    CP:  1.00D+00
 E= -2048.72880113622     Delta-E=       -0.000056712304 Rises=F Damp=F
 DIIS: error= 1.62D-04 at cycle   2 NSaved=   2.
 NSaved= 2 IEnMin= 2 EnMin= -2048.72880113622     IErMin= 2 ErrMin= 1.62D-04
 ErrMax= 1.62D-04  0.00D+00 EMaxC= 1.00D-01 BMatC= 4.35D-05 BMatP= 7.52D-05
 IDIUse=3 WtCom= 9.98D-01 WtEn= 1.62D-03
 Coeff-Com:  0.408D+00 0.592D+00
 Coeff-En:   0.000D+00 0.100D+01
 Coeff:      0.407D+00 0.593D+00
 Gap=     0.285 Goal=   None    Shift=    0.000
 RMSDP=1.17D-05 MaxDP=9.34D-04 DE=-5.67D-05 OVMax= 1.55D-03

 Cycle   8  Pass 1  IDiag  1:
 RMSU=  1.13D-05    CP:  1.00D+00  1.02D+00
 E= -2048.72883295130     Delta-E=       -0.000031815076 Rises=F Damp=F
 DIIS: error= 7.75D-05 at cycle   3 NSaved=   3.
 NSaved= 3 IEnMin= 3 EnMin= -2048.72883295130     IErMin= 3 ErrMin= 7.75D-05
 ErrMax= 7.75D-05  0.00D+00 EMaxC= 1.00D-01 BMatC= 1.01D-05 BMatP= 4.35D-05
 IDIUse=1 WtCom= 1.00D+00 WtEn= 0.00D+00
 Coeff-Com: -0.195D-01 0.311D+00 0.709D+00
 Coeff:     -0.195D-01 0.311D+00 0.709D+00
 Gap=     0.285 Goal=   None    Shift=    0.000
 RMSDP=5.69D-06 MaxDP=4.27D-04 DE=-3.18D-05 OVMax= 5.81D-04

 Cycle   9  Pass 1  IDiag  1:
 RMSU=  3.88D-06    CP:  1.00D+00  1.05D+00  7.62D-01
 E= -2048.72884259151     Delta-E=       -0.000009640217 Rises=F Damp=F
 DIIS: error= 2.54D-05 at cycle   4 NSaved=   4.
 NSaved= 4 IEnMin= 4 EnMin= -2048.72884259151     IErMin= 4 ErrMin= 2.54D-05
 ErrMax= 2.54D-05  0.00D+00 EMaxC= 1.00D-01 BMatC= 5.26D-07 BMatP= 1.01D-05
 IDIUse=1 WtCom= 1.00D+00 WtEn= 0.00D+00
 Coeff-Com: -0.312D-01 0.844D-01 0.264D+00 0.683D+00
 Coeff:     -0.312D-01 0.844D-01 0.264D+00 0.683D+00
 Gap=     0.285 Goal=   None    Shift=    0.000
 RMSDP=1.51D-06 MaxDP=1.08D-04 DE=-9.64D-06 OVMax= 5.16D-04

 Cycle  10  Pass 1  IDiag  1:
 RMSU=  1.34D-06    CP:  1.00D+00  1.06D+00  7.98D-01  1.11D+00
 E= -2048.72884348375     Delta-E=       -0.000000892233 Rises=F Damp=F
 DIIS: error= 1.05D-05 at cycle   5 NSaved=   5.
 NSaved= 5 IEnMin= 5 EnMin= -2048.72884348375     IErMin= 5 ErrMin= 1.05D-05
 ErrMax= 1.05D-05  0.00D+00 EMaxC= 1.00D-01 BMatC= 1.30D-07 BMatP= 5.26D-07
 IDIUse=1 WtCom= 1.00D+00 WtEn= 0.00D+00
 Coeff-Com: -0.330D-02-0.568D-01-0.121D+00 0.214D+00 0.967D+00
 Coeff:     -0.330D-02-0.568D-01-0.121D+00 0.214D+00 0.967D+00
 Gap=     0.285 Goal=   None    Shift=    0.000
 RMSDP=1.26D-06 MaxDP=7.02D-05 DE=-8.92D-07 OVMax= 2.70D-04

 Cycle  11  Pass 1  IDiag  1:
 RMSU=  5.16D-07    CP:  1.00D+00  1.06D+00  8.08D-01  1.40D+00  1.17D+00
 E= -2048.72884376784     Delta-E=       -0.000000284095 Rises=F Damp=F
 DIIS: error= 5.58D-06 at cycle   6 NSaved=   6.
 NSaved= 6 IEnMin= 6 EnMin= -2048.72884376784     IErMin= 6 ErrMin= 5.58D-06
 ErrMax= 5.58D-06  0.00D+00 EMaxC= 1.00D-01 BMatC= 3.17D-08 BMatP= 1.30D-07
 IDIUse=1 WtCom= 1.00D+00 WtEn= 0.00D+00
 Coeff-Com:  0.491D-02-0.470D-01-0.119D+00-0.115D-02 0.525D+00 0.638D+00
 Coeff:      0.491D-02-0.470D-01-0.119D+00-0.115D-02 0.525D+00 0.638D+00
 Gap=     0.285 Goal=   None    Shift=    0.000
 RMSDP=3.99D-07 MaxDP=2.92D-05 DE=-2.84D-07 OVMax= 1.40D-04

 Cycle  12  Pass 1  IDiag  1:
 RMSU=  1.94D-07    CP:  1.00D+00  1.06D+00  8.10D-01  1.47D+00  1.30D+00
                    CP:  9.36D-01
 E= -2048.72884381432     Delta-E=       -0.000000046475 Rises=F Damp=F
 DIIS: error= 1.47D-06 at cycle   7 NSaved=   7.
 NSaved= 7 IEnMin= 7 EnMin= -2048.72884381432     IErMin= 7 ErrMin= 1.47D-06
 ErrMax= 1.47D-06  0.00D+00 EMaxC= 1.00D-01 BMatC= 9.31D-10 BMatP= 3.17D-08
 IDIUse=1 WtCom= 1.00D+00 WtEn= 0.00D+00
 Coeff-Com:  0.125D-02-0.827D-02-0.227D-01-0.798D-02 0.655D-01 0.146D+00
 Coeff-Com:  0.826D+00
 Coeff:      0.125D-02-0.827D-02-0.227D-01-0.798D-02 0.655D-01 0.146D+00
 Coeff:      0.826D+00
 Gap=     0.285 Goal=   None    Shift=    0.000
 RMSDP=9.22D-08 MaxDP=4.55D-06 DE=-4.65D-08 OVMax= 2.46D-05

 Cycle  13  Pass 1  IDiag  1:
 RMSU=  5.51D-08    CP:  1.00D+00  1.06D+00  8.10D-01  1.48D+00  1.32D+00
                    CP:  1.03D+00  1.14D+00
 E= -2048.72884381648     Delta-E=       -0.000000002158 Rises=F Damp=F
 DIIS: error= 9.12D-07 at cycle   8 NSaved=   8.
 NSaved= 8 IEnMin= 8 EnMin= -2048.72884381648     IErMin= 8 ErrMin= 9.12D-07
 ErrMax= 9.12D-07  0.00D+00 EMaxC= 1.00D-01 BMatC= 3.83D-10 BMatP= 9.31D-10
 IDIUse=1 WtCom= 1.00D+00 WtEn= 0.00D+00
 Coeff-Com: -0.770D-03 0.929D-02 0.224D-01-0.187D-02-0.116D+00-0.105D+00
 Coeff-Com:  0.421D+00 0.771D+00
 Coeff:     -0.770D-03 0.929D-02 0.224D-01-0.187D-02-0.116D+00-0.105D+00
 Coeff:      0.421D+00 0.771D+00
 Gap=     0.285 Goal=   None    Shift=    0.000
 RMSDP=5.19D-08 MaxDP=2.66D-06 DE=-2.16D-09 OVMax= 1.29D-05

 Cycle  14  Pass 1  IDiag  1:
 RMSU=  2.89D-08    CP:  1.00D+00  1.06D+00  8.09D-01  1.49D+00  1.33D+00
                    CP:  1.07D+00  1.30D+00  1.08D+00
 E= -2048.72884381701     Delta-E=       -0.000000000534 Rises=F Damp=F
 DIIS: error= 1.77D-07 at cycle   9 NSaved=   9.
 NSaved= 9 IEnMin= 9 EnMin= -2048.72884381701     IErMin= 9 ErrMin= 1.77D-07
 ErrMax= 1.77D-07  0.00D+00 EMaxC= 1.00D-01 BMatC= 3.48D-11 BMatP= 3.83D-10
 IDIUse=1 WtCom= 1.00D+00 WtEn= 0.00D+00
 Coeff-Com: -0.460D-03 0.486D-02 0.120D-01 0.244D-03-0.559D-01-0.606D-01
 Coeff-Com:  0.855D-01 0.306D+00 0.709D+00
 Coeff:     -0.460D-03 0.486D-02 0.120D-01 0.244D-03-0.559D-01-0.606D-01
 Coeff:      0.855D-01 0.306D+00 0.709D+00
 Gap=     0.285 Goal=   None    Shift=    0.000
 RMSDP=1.48D-08 MaxDP=7.72D-07 DE=-5.34D-10 OVMax= 3.67D-06

 Cycle  15  Pass 1  IDiag  1:
 RMSU=  9.76D-09    CP:  1.00D+00  1.06D+00  8.09D-01  1.49D+00  1.33D+00
                    CP:  1.08D+00  1.33D+00  1.21D+00  1.13D+00
 E= -2048.72884381719     Delta-E=       -0.000000000184 Rises=F Damp=F
 DIIS: error= 7.31D-08 at cycle  10 NSaved=  10.
 NSaved=10 IEnMin=10 EnMin= -2048.72884381719     IErMin=10 ErrMin= 7.31D-08
 ErrMax= 7.31D-08  0.00D+00 EMaxC= 1.00D-01 BMatC= 5.75D-12 BMatP= 3.48D-11
 IDIUse=1 WtCom= 1.00D+00 WtEn= 0.00D+00
 Coeff-Com:  0.195D-06-0.254D-03-0.503D-03 0.170D-03 0.464D-02 0.742D-03
 Coeff-Com: -0.490D-01-0.520D-01 0.265D+00 0.831D+00
 Coeff:      0.195D-06-0.254D-03-0.503D-03 0.170D-03 0.464D-02 0.742D-03
 Coeff:     -0.490D-01-0.520D-01 0.265D+00 0.831D+00
 Gap=     0.285 Goal=   None    Shift=    0.000
 RMSDP=6.83D-09 MaxDP=3.56D-07 DE=-1.84D-10 OVMax= 1.50D-06

 SCF Done:  E(RwB97XD) =  -2048.72884382     A.U. after   15 cycles
            NFock= 15  Conv=0.68D-08     -V/T= 2.0053
 KE= 2.037856518211D+03 PE=-1.581351785931D+04 EE= 6.210729020811D+03
 Leave Link  502 at Fri Jan 19 23:14:00 2018, MaxMem=  4294967296 cpu:           20958.8 elap:             676.9
 (Enter /share/apps/g16/l601.exe)
 Copying SCF densities to generalized density rwf, IOpCl= 0 IROHF=0.

 **********************************************************************

            Population analysis using the SCF density.

 **********************************************************************

 Orbital symmetries:
       Occupied  (A) (A) (A) (A) (A) (A) (A) (A) (A) (A) (A) (A)
                 (A) (A) (A) (A) (A) (A) (A) (A) (A) (A) (A) (A)
                 (A) (A) (A) (A) (A) (A) (A) (A) (A) (A) (A) (A)
                 (A) (A) (A) (A) (A) (A) (A) (A) (A) (A) (A) (A)
                 (A) (A) (A) (A) (A) (A) (A) (A) (A) (A) (A) (A)
                 (A) (A) (A) (A) (A) (A) (A) (A) (A) (A) (A) (A)
                 (A) (A) (A) (A) (A) (A) (A) (A) (A) (A) (A) (A)
                 (A) (A) (A) (A) (A) (A) (A) (A) (A) (A) (A) (A)
                 (A) (A) (A) (A) (A) (A) (A) (A) (A) (A) (A) (A)
                 (A) (A) (A) (A) (A) (A) (A) (A) (A) (A) (A) (A)
                 (A) (A) (A) (A) (A) (A) (A) (A) (A) (A) (A) (A)
                 (A) (A) (A) (A) (A) (A) (A) (A) (A) (A) (A) (A)
                 (A) (A) (A) (A) (A) (A) (A) (A) (A) (A)
       Virtual   (A) (A) (A) (A) (A) (A) (A) (A) (A) (A) (A) (A)
                 (A) (A) (A) (A) (A) (A) (A) (A) (A) (A) (A) (A)
                 (A) (A) (A) (A) (A) (A) (A) (A) (A) (A) (A) (A)
                 (A) (A) (A) (A) (A) (A) (A) (A) (A) (A) (A) (A)
                 (A) (A) (A) (A) (A) (A) (A) (A) (A) (A) (A) (A)
                 (A) (A) (A) (A) (A) (A) (A) (A) (A) (A) (A) (A)
                 (A) (A) (A) (A) (A) (A) (A) (A) (A) (A) (A) (A)
                 (A) (A) (A) (A) (A) (A) (A) (A) (A) (A) (A) (A)
                 (A) (A) (A) (A) (A) (A) (A) (A) (A) (A) (A) (A)
                 (A) (A) (A) (A) (A) (A) (A) (A) (A) (A) (A) (A)
                 (A) (A) (A) (A) (A) (A) (A) (A) (A) (A) (A) (A)
                 (A) (A) (A) (A) (A) (A) (A) (A) (A) (A) (A) (A)
                 (A) (A) (A) (A) (A) (A) (A) (A) (A) (A) (A) (A)
                 (A) (A) (A) (A) (A) (A) (A) (A) (A) (A) (A) (A)
                 (A) (A) (A) (A) (A) (A) (A) (A) (A) (A) (A) (A)
                 (A) (A) (A) (A) (A) (A) (A) (A) (A) (A) (A) (A)
                 (A) (A) (A) (A) (A) (A) (A) (A) (A) (A) (A) (A)
                 (A) (A) (A) (A) (A) (A) (A) (A) (A) (A) (A) (A)
                 (A) (A) (A) (A) (A) (A) (A) (A) (A) (A) (A) (A)
                 (A) (A) (A) (A) (A) (A) (A) (A) (A) (A) (A) (A)
                 (A) (A) (A) (A) (A) (A) (A) (A) (A) (A) (A) (A)
                 (A) (A) (A) (A) (A) (A) (A) (A) (A) (A) (A) (A)
                 (A) (A) (A) (A) (A) (A) (A) (A) (A) (A) (A) (A)
                 (A) (A) (A) (A) (A) (A) (A) (A) (A) (A) (A) (A)
                 (A) (A) (A) (A) (A) (A) (A) (A) (A) (A) (A) (A)
                 (A) (A) (A) (A) (A) (A) (A) (A) (A) (A) (A) (A)
                 (A) (A) (A) (A) (A) (A) (A) (A) (A) (A) (A) (A)
                 (A) (A) (A) (A) (A) (A) (A) (A) (A) (A) (A) (A)
                 (A) (A) (A) (A) (A) (A) (A) (A) (A) (A) (A) (A)
                 (A) (A) (A) (A) (A) (A) (A) (A) (A) (A) (A) (A)
                 (A) (A) (A) (A) (A) (A) (A) (A) (A) (A) (A) (A)
                 (A) (A) (A) (A) (A) (A) (A) (A) (A) (A) (A) (A)
                 (A) (A) (A) (A) (A) (A) (A) (A) (A) (A) (A) (A)
                 (A) (A) (A) (A) (A) (A) (A) (A) (A) (A) (A) (A)
                 (A) (A) (A) (A) (A) (A) (A) (A) (A) (A) (A) (A)
                 (A) (A) (A) (A) (A) (A) (A) (A) (A) (A) (A) (A)
                 (A) (A) (A) (A) (A) (A) (A) (A) (A) (A) (A) (A)
                 (A) (A) (A) (A) (A) (A) (A) (A) (A) (A) (A) (A)
                 (A) (A) (A) (A) (A) (A) (A) (A) (A) (A) (A) (A)
                 (A) (A) (A) (A) (A) (A) (A) (A) (A) (A) (A) (A)
                 (A) (A) (A) (A) (A) (A) (A) (A) (A) (A) (A) (A)
                 (A) (A) (A) (A) (A) (A) (A) (A) (A) (A) (A) (A)
                 (A) (A) (A) (A) (A) (A) (A) (A) (A) (A) (A) (A)
                 (A) (A) (A) (A) (A) (A) (A) (A) (A) (A) (A) (A)
                 (A) (A) (A) (A) (A) (A) (A) (A) (A) (A) (A) (A)
                 (A) (A) (A) (A) (A) (A) (A) (A) (A) (A) (A) (A)
                 (A) (A) (A) (A) (A) (A) (A) (A) (A) (A) (A) (A)
                 (A) (A) (A) (A) (A) (A) (A) (A) (A) (A) (A) (A)
                 (A) (A) (A) (A) (A) (A) (A)
 The electronic state is 1-A.
 Alpha  occ. eigenvalues --  -19.26080 -19.21887 -19.20872 -14.52689 -14.51586
 Alpha  occ. eigenvalues --  -14.48942 -14.48872 -14.48082 -14.47143 -14.46850
 Alpha  occ. eigenvalues --  -14.45926 -14.44563 -14.43009 -14.42838 -14.42163
 Alpha  occ. eigenvalues --  -14.42070 -14.41434 -14.41007 -14.40936 -14.40246
 Alpha  occ. eigenvalues --  -10.45705 -10.41404 -10.40370 -10.38445 -10.38391
 Alpha  occ. eigenvalues --  -10.37853 -10.37071 -10.36138 -10.35625 -10.35401
 Alpha  occ. eigenvalues --  -10.34701 -10.34469 -10.34155 -10.33446 -10.33414
 Alpha  occ. eigenvalues --  -10.33334 -10.33142 -10.31463 -10.31319 -10.30933
 Alpha  occ. eigenvalues --  -10.30902 -10.28556 -10.28235  -1.19664  -1.14267
 Alpha  occ. eigenvalues --   -1.13649  -1.13388  -1.11472  -1.10719  -1.09547
 Alpha  occ. eigenvalues --   -1.08759  -1.07841  -1.05044  -1.03431  -1.02819
 Alpha  occ. eigenvalues --   -1.00414  -0.99969  -0.99926  -0.98694  -0.97041
 Alpha  occ. eigenvalues --   -0.96681  -0.95486  -0.92676  -0.91094  -0.86633
 Alpha  occ. eigenvalues --   -0.85058  -0.84215  -0.84084  -0.83956  -0.82576
 Alpha  occ. eigenvalues --   -0.82467  -0.79043  -0.75904  -0.74765  -0.73829
 Alpha  occ. eigenvalues --   -0.73694  -0.73555  -0.72954  -0.71104  -0.69230
 Alpha  occ. eigenvalues --   -0.67546  -0.66739  -0.66341  -0.65639  -0.64634
 Alpha  occ. eigenvalues --   -0.63946  -0.63096  -0.62811  -0.62691  -0.61899
 Alpha  occ. eigenvalues --   -0.60612  -0.60263  -0.59593  -0.59378  -0.58548
 Alpha  occ. eigenvalues --   -0.58512  -0.58422  -0.56922  -0.56592  -0.56451
 Alpha  occ. eigenvalues --   -0.56165  -0.55366  -0.55180  -0.54663  -0.54326
 Alpha  occ. eigenvalues --   -0.53837  -0.53613  -0.53091  -0.52708  -0.52684
 Alpha  occ. eigenvalues --   -0.52408  -0.51916  -0.51810  -0.50978  -0.50359
 Alpha  occ. eigenvalues --   -0.50313  -0.50101  -0.49653  -0.49282  -0.49074
 Alpha  occ. eigenvalues --   -0.48644  -0.48507  -0.47738  -0.47652  -0.47377
 Alpha  occ. eigenvalues --   -0.47026  -0.45790  -0.45075  -0.43936  -0.42581
 Alpha  occ. eigenvalues --   -0.41208  -0.39689  -0.39639  -0.37492  -0.37408
 Alpha  occ. eigenvalues --   -0.37357  -0.37170  -0.36447  -0.35636  -0.34365
 Alpha  occ. eigenvalues --   -0.33858  -0.33718  -0.33513  -0.33444  -0.33096
 Alpha  occ. eigenvalues --   -0.32748  -0.32480  -0.32035  -0.31799  -0.30992
 Alpha  occ. eigenvalues --   -0.30437  -0.27868  -0.25750  -0.25588
 Alpha virt. eigenvalues --    0.02886   0.05101   0.07858   0.07935   0.08391
 Alpha virt. eigenvalues --    0.08862   0.09623   0.10641   0.11034   0.12208
 Alpha virt. eigenvalues --    0.13414   0.13580   0.14386   0.14480   0.14948
 Alpha virt. eigenvalues --    0.15912   0.16266   0.17447   0.18009   0.18190
 Alpha virt. eigenvalues --    0.18943   0.19108   0.19794   0.19886   0.20209
 Alpha virt. eigenvalues --    0.20666   0.21206   0.21692   0.21954   0.22366
 Alpha virt. eigenvalues --    0.22558   0.22962   0.23532   0.23580   0.23814
 Alpha virt. eigenvalues --    0.24001   0.24390   0.24625   0.24884   0.25458
 Alpha virt. eigenvalues --    0.26003   0.26289   0.26842   0.27663   0.27860
 Alpha virt. eigenvalues --    0.28844   0.29253   0.29912   0.30043   0.30660
 Alpha virt. eigenvalues --    0.31369   0.31564   0.32418   0.32800   0.33815
 Alpha virt. eigenvalues --    0.33975   0.34136   0.35142   0.35740   0.36274
 Alpha virt. eigenvalues --    0.36964   0.37628   0.37822   0.38757   0.39875
 Alpha virt. eigenvalues --    0.40071   0.40213   0.41155   0.41823   0.41979
 Alpha virt. eigenvalues --    0.42271   0.42804   0.43036   0.44210   0.44250
 Alpha virt. eigenvalues --    0.44539   0.45541   0.46087   0.46558   0.46803
 Alpha virt. eigenvalues --    0.47589   0.47651   0.48135   0.49121   0.49703
 Alpha virt. eigenvalues --    0.50036   0.50302   0.50627   0.51039   0.51444
 Alpha virt. eigenvalues --    0.51590   0.51931   0.52112   0.53123   0.53443
 Alpha virt. eigenvalues --    0.54015   0.54158   0.54597   0.54788   0.55209
 Alpha virt. eigenvalues --    0.55598   0.55941   0.56041   0.57007   0.57142
 Alpha virt. eigenvalues --    0.57317   0.57982   0.58646   0.59130   0.59596
 Alpha virt. eigenvalues --    0.60102   0.60710   0.60930   0.61315   0.61478
 Alpha virt. eigenvalues --    0.61879   0.62507   0.62687   0.63705   0.63872
 Alpha virt. eigenvalues --    0.64222   0.64324   0.64903   0.65208   0.65710
 Alpha virt. eigenvalues --    0.65840   0.66125   0.66229   0.66998   0.67509
 Alpha virt. eigenvalues --    0.67851   0.68535   0.68828   0.69218   0.69566
 Alpha virt. eigenvalues --    0.70202   0.70363   0.70969   0.71308   0.72096
 Alpha virt. eigenvalues --    0.72688   0.73046   0.73321   0.73698   0.73771
 Alpha virt. eigenvalues --    0.74188   0.74387   0.74779   0.75354   0.75538
 Alpha virt. eigenvalues --    0.75696   0.75848   0.76291   0.76637   0.76801
 Alpha virt. eigenvalues --    0.78101   0.78397   0.78676   0.78767   0.78944
 Alpha virt. eigenvalues --    0.79279   0.79775   0.80006   0.80586   0.80801
 Alpha virt. eigenvalues --    0.81453   0.82015   0.82267   0.83153   0.83671
 Alpha virt. eigenvalues --    0.83844   0.84044   0.84545   0.85150   0.85325
 Alpha virt. eigenvalues --    0.85501   0.86369   0.86718   0.87181   0.87643
 Alpha virt. eigenvalues --    0.88325   0.88978   0.89434   0.89770   0.90172
 Alpha virt. eigenvalues --    0.90701   0.91097   0.91322   0.91805   0.92306
 Alpha virt. eigenvalues --    0.92802   0.93077   0.93508   0.93895   0.94752
 Alpha virt. eigenvalues --    0.95285   0.95513   0.96093   0.96207   0.96438
 Alpha virt. eigenvalues --    0.97017   0.97318   0.97518   0.98045   0.98660
 Alpha virt. eigenvalues --    0.98795   0.99668   1.00268   1.00301   1.00885
 Alpha virt. eigenvalues --    1.01281   1.01719   1.01810   1.02673   1.02811
 Alpha virt. eigenvalues --    1.03262   1.03629   1.04293   1.04974   1.05601
 Alpha virt. eigenvalues --    1.05903   1.06114   1.07021   1.07246   1.07705
 Alpha virt. eigenvalues --    1.08200   1.08695   1.09807   1.09875   1.10349
 Alpha virt. eigenvalues --    1.11402   1.12312   1.12510   1.12654   1.12985
 Alpha virt. eigenvalues --    1.13586   1.14381   1.14696   1.15131   1.15411
 Alpha virt. eigenvalues --    1.15998   1.16197   1.16833   1.17084   1.18158
 Alpha virt. eigenvalues --    1.18380   1.18907   1.19221   1.19559   1.19932
 Alpha virt. eigenvalues --    1.20415   1.20685   1.21452   1.21793   1.21951
 Alpha virt. eigenvalues --    1.22289   1.22387   1.22898   1.22987   1.23352
 Alpha virt. eigenvalues --    1.23424   1.23782   1.24026   1.24525   1.24925
 Alpha virt. eigenvalues --    1.25808   1.26929   1.27330   1.28145   1.29039
 Alpha virt. eigenvalues --    1.29626   1.30444   1.30671   1.31647   1.32105
 Alpha virt. eigenvalues --    1.32878   1.33190   1.33681   1.34223   1.34465
 Alpha virt. eigenvalues --    1.34892   1.35589   1.36154   1.36833   1.37493
 Alpha virt. eigenvalues --    1.37985   1.38481   1.39518   1.40068   1.41082
 Alpha virt. eigenvalues --    1.41348   1.41697   1.42757   1.44491   1.44920
 Alpha virt. eigenvalues --    1.45469   1.46611   1.47028   1.47309   1.48178
 Alpha virt. eigenvalues --    1.48750   1.48880   1.49208   1.50358   1.51383
 Alpha virt. eigenvalues --    1.51625   1.52621   1.53411   1.53909   1.54780
 Alpha virt. eigenvalues --    1.55087   1.55715   1.56107   1.56263   1.57176
 Alpha virt. eigenvalues --    1.58308   1.59000   1.59529   1.60600   1.61177
 Alpha virt. eigenvalues --    1.61865   1.62127   1.62913   1.63200   1.63699
 Alpha virt. eigenvalues --    1.64788   1.65143   1.65851   1.66082   1.67043
 Alpha virt. eigenvalues --    1.67526   1.68017   1.68444   1.68715   1.69162
 Alpha virt. eigenvalues --    1.69763   1.70236   1.70914   1.71211   1.71801
 Alpha virt. eigenvalues --    1.71937   1.72668   1.73006   1.73574   1.74025
 Alpha virt. eigenvalues --    1.74254   1.74414   1.74771   1.75195   1.75329
 Alpha virt. eigenvalues --    1.75936   1.76333   1.76598   1.76917   1.77352
 Alpha virt. eigenvalues --    1.78080   1.78467   1.78606   1.78693   1.79173
 Alpha virt. eigenvalues --    1.79297   1.79940   1.80045   1.80180   1.80614
 Alpha virt. eigenvalues --    1.81108   1.81421   1.82033   1.82126   1.82569
 Alpha virt. eigenvalues --    1.82842   1.83213   1.83552   1.84065   1.84745
 Alpha virt. eigenvalues --    1.85549   1.85798   1.86144   1.86591   1.87075
 Alpha virt. eigenvalues --    1.87778   1.88145   1.88519   1.89466   1.89768
 Alpha virt. eigenvalues --    1.90081   1.90608   1.91011   1.91565   1.92403
 Alpha virt. eigenvalues --    1.92901   1.93179   1.93231   1.93590   1.93931
 Alpha virt. eigenvalues --    1.94931   1.95803   1.96460   1.97281   1.98178
 Alpha virt. eigenvalues --    1.98814   1.99336   2.00625   2.01047   2.01432
 Alpha virt. eigenvalues --    2.02034   2.02687   2.03232   2.03610   2.04204
 Alpha virt. eigenvalues --    2.04477   2.05361   2.06707   2.07260   2.07744
 Alpha virt. eigenvalues --    2.08230   2.08283   2.09300   2.09599   2.09973
 Alpha virt. eigenvalues --    2.11167   2.11639   2.12145   2.12399   2.13229
 Alpha virt. eigenvalues --    2.14224   2.16033   2.16679   2.17760   2.18214
 Alpha virt. eigenvalues --    2.19458   2.19876   2.20560   2.21347   2.22143
 Alpha virt. eigenvalues --    2.22195   2.22640   2.23101   2.23586   2.23876
 Alpha virt. eigenvalues --    2.24841   2.25159   2.25867   2.26269   2.26518
 Alpha virt. eigenvalues --    2.27455   2.28269   2.29103   2.29497   2.29831
 Alpha virt. eigenvalues --    2.29923   2.30649   2.30962   2.31487   2.32173
 Alpha virt. eigenvalues --    2.33175   2.33668   2.33836   2.34046   2.34322
 Alpha virt. eigenvalues --    2.34475   2.35148   2.36086   2.36416   2.37984
 Alpha virt. eigenvalues --    2.38247   2.40407   2.40804   2.41221   2.41950
 Alpha virt. eigenvalues --    2.42178   2.43175   2.43507   2.44271   2.44788
 Alpha virt. eigenvalues --    2.44980   2.45513   2.46444   2.46968   2.47229
 Alpha virt. eigenvalues --    2.47891   2.49154   2.50278   2.51302   2.51569
 Alpha virt. eigenvalues --    2.52588   2.54327   2.54930   2.55106   2.55986
 Alpha virt. eigenvalues --    2.56100   2.57573   2.58499   2.59574   2.59818
 Alpha virt. eigenvalues --    2.60927   2.61800   2.62038   2.62840   2.63173
 Alpha virt. eigenvalues --    2.64590   2.64946   2.65154   2.66107   2.66342
 Alpha virt. eigenvalues --    2.66990   2.67423   2.67841   2.68843   2.69369
 Alpha virt. eigenvalues --    2.70271   2.70760   2.71040   2.72178   2.72670
 Alpha virt. eigenvalues --    2.73403   2.74431   2.75152   2.75678   2.76327
 Alpha virt. eigenvalues --    2.77225   2.77777   2.79110   2.79292   2.79942
 Alpha virt. eigenvalues --    2.80180   2.80436   2.81008   2.81201   2.81995
 Alpha virt. eigenvalues --    2.82113   2.82794   2.83038   2.83437   2.84564
 Alpha virt. eigenvalues --    2.84706   2.85660   2.86188   2.86489   2.86736
 Alpha virt. eigenvalues --    2.88081   2.88820   2.89505   2.90993   2.93067
 Alpha virt. eigenvalues --    2.94829   2.96339   2.97234   2.97616   2.99075
 Alpha virt. eigenvalues --    2.99540   3.01127   3.02081   3.04610   3.05982
 Alpha virt. eigenvalues --    3.07882   3.10284   3.12897   3.14047   3.14864
 Alpha virt. eigenvalues --    3.15233   3.15908   3.16568   3.18512   3.19775
 Alpha virt. eigenvalues --    3.22677   3.22848   3.24042   3.24483   3.26605
 Alpha virt. eigenvalues --    3.46328   3.47224   3.47737   3.49944   3.50759
 Alpha virt. eigenvalues --    3.53327   3.55198   3.55868   3.57539   3.59836
 Alpha virt. eigenvalues --    3.62566   3.70362   3.74804
          Condensed to atoms (all electrons):
 Mulliken charges:
               1
     1  N   -0.309760
     2  C    0.180394
     3  C    0.051697
     4  N   -0.245514
     5  C    0.122265
     6  H    0.025328
     7  N   -0.291382
     8  C    0.134731
     9  H    0.012931
    10  N   -0.292235
    11  C    0.232055
    12  C    0.094773
    13  N   -0.040719
    14  H    0.112985
    15  H    0.093090
    16  H    0.027231
    17  H    0.034283
    18  H    0.020433
    19  N   -0.308288
    20  C    0.258622
    21  C    0.181577
    22  N   -0.123054
    23  H    0.116049
    24  H    0.118913
    25  N   -0.310475
    26  C    0.246930
    27  N   -0.149316
    28  H    0.121212
    29  C    0.190634
    30  O   -0.327970
    31  C   -0.021160
    32  N   -0.219484
    33  C    0.131161
    34  H    0.022207
    35  H    0.028808
    36  H    0.029587
    37  H    0.022904
    38  H    0.050975
    39  H    0.062083
    40  H    0.075459
    41  H    0.024731
    42  C   -0.087144
    43  O   -0.290425
    44  C    0.133311
    45  H    0.137506
    46  N   -0.110270
    47  O   -0.345656
    48  C    0.347832
    49  H    0.044451
    50  C    0.191729
    51  C    0.043063
    52  N   -0.280854
    53  H    0.032653
    54  H    0.041547
    55  H    0.019777
    56  H    0.129642
    57  H    0.113136
    58  N   -0.020841
    59  C    0.085410
    60  C    0.245753
    61  N   -0.277100
    62  H    0.031570
    63  C    0.160573
    64  N   -0.304858
    65  H    0.030010
    66  C    0.114648
    67  N   -0.253207
    68  C    0.009413
    69  C    0.181775
    70  N   -0.308136
 Sum of Mulliken charges =  -0.00000
 Mulliken charges with hydrogens summed into heavy atoms:
               1
     1  N   -0.309760
     2  C    0.262340
     3  C    0.051697
     4  N   -0.245514
     5  C    0.147594
     7  N   -0.291382
     8  C    0.147662
    10  N   -0.292235
    11  C    0.232055
    12  C    0.094773
    13  N    0.165355
    19  N   -0.308288
    20  C    0.258622
    21  C    0.262876
    22  N    0.111908
    25  N   -0.310475
    26  C    0.246930
    27  N   -0.028104
    29  C    0.190634
    30  O   -0.327970
    31  C   -0.021160
    32  N   -0.219484
    33  C    0.153368
    42  C   -0.062412
    43  O   -0.290425
    44  C    0.133311
    46  N    0.027237
    47  O   -0.345656
    48  C    0.347832
    50  C    0.236180
    51  C    0.231580
    52  N   -0.280854
    58  N    0.221938
    59  C    0.085410
    60  C    0.245753
    61  N   -0.277100
    63  C    0.192143
    64  N   -0.304858
    66  C    0.144658
    67  N   -0.253207
    68  C    0.009413
    69  C    0.275751
    70  N   -0.308136
 Electronic spatial extent (au):  <R**2>=          22598.1054
 Charge=              0.0000 electrons
 Dipole moment (field-independent basis, Debye):
    X=              6.0590    Y=              5.5366    Z=              4.6613  Tot=              9.4389
 Quadrupole moment (field-independent basis, Debye-Ang):
   XX=           -144.3445   YY=           -227.5076   ZZ=           -253.4021
   XY=              5.8777   XZ=             11.7198   YZ=              8.4339
 Traceless Quadrupole moment (field-independent basis, Debye-Ang):
   XX=             64.0736   YY=            -19.0896   ZZ=            -44.9840
   XY=              5.8777   XZ=             11.7198   YZ=              8.4339
 Octapole moment (field-independent basis, Debye-Ang**2):
  XXX=            -56.1003  YYY=             63.8005  ZZZ=             87.7867  XYY=              5.1816
  XXY=             81.9024  XXZ=             27.5867  XZZ=             96.4663  YZZ=             36.1198
  YYZ=             10.3587  XYZ=             18.0134
 Hexadecapole moment (field-independent basis, Debye-Ang**3):
 XXXX=         -15799.7668 YYYY=          -4573.0414 ZZZZ=          -3757.0663 XXXY=            478.2177
 XXXZ=            310.0314 YYYX=            -43.3916 YYYZ=            243.3033 ZZZX=            309.9042
 ZZZY=             37.2926 XXYY=          -4054.2380 XXZZ=          -3894.2988 YYZZ=          -1387.2601
 XXYZ=             58.7228 YYXZ=            -32.3326 ZZXY=             23.9835
 N-N= 5.516203476466D+03 E-N=-1.581351786601D+04  KE= 2.037856518211D+03
 No NMR shielding tensors so no spin-rotation constants.
 Leave Link  601 at Fri Jan 19 23:14:02 2018, MaxMem=  4294967296 cpu:              47.6 elap:               1.7
 (Enter /share/apps/g16/l9999.exe)
 1\1\GINC-COMPUTE-0-3\SP\RwB97XD\CC-pVDZ\C23H27N17O3\SATYA\19-Jan-2018\
 0\\#p wb97xd/cc-pvdz sp scf=(maxcycles=20)\\Base pair stacking\\0,1\N,
 0,5.10123,5.72418,-5.41552\C,0,5.28133,7.13321,-5.81578\C,0,4.36678,3.
 65728,-5.25486\N,0,5.41301,3.76876,-4.35059\C,0,5.81361,5.00953,-4.483
 57\H,0,6.63207,5.4604,-3.92162\N,0,2.57841,2.80909,-6.53754\C,0,2.5013
 1,4.02282,-7.09295\H,0,1.72326,4.14108,-7.84589\N,0,3.23755,5.10731,-6
 .85902\C,0,4.16289,4.85449,-5.91866\C,0,3.51994,2.58659,-5.59462\N,0,3
 .59848,1.37567,-5.03904\H,0,4.28005,1.16611,-4.33707\H,0,2.97905,0.637
 08,-5.30538\H,0,6.20381,7.26244,-6.17978\H,0,4.6107,7.36922,-6.5184\H,
 0,5.15217,7.72668,-5.02136\N,0,1.06289,5.39654,-3.36692\C,0,0.35479,4.
 23198,-3.54143\C,0,0.58513,6.74768,-3.72313\N,0,-2.51759,2.58717,-4.59
 299\H,0,-2.85648,1.64764,-4.63387\H,0,-3.12584,3.30417,-4.93455\N,0,-0
 .8864,4.12718,-4.06345\C,0,-1.30223,2.87371,-4.10237\N,0,-0.56081,1.80
 332,-3.66411\H,0,-0.95917,0.8794,-3.73229\C,0,0.71842,1.88773,-3.12346
 \O,0,1.30156,0.85957,-2.75798\C,0,1.17864,3.22816,-3.07516\N,0,2.37978
 ,3.75197,-2.61713\C,0,2.26603,5.03815,-2.80957\H,0,3.03259,5.77325,-2.
 56199\H,0,1.20183,7.15439,-4.39624\H,0,-0.33341,6.68264,-4.11084\H,0,0
 .56051,7.32084,-2.90478\H,0,-3.24186,-3.50193,-4.93475\H,0,-3.71665,-3
 .47999,-3.23807\H,0,-3.51543,-1.96355,-4.11628\H,0,0.8444,-4.96273,-2.
 85747\C,0,0.28799,-4.04048,-3.0251\O,0,2.1257,-2.62486,-2.52915\C,0,0.
 94975,-2.78295,-2.85618\H,0,0.58783,-0.7727,-2.98345\N,0,0.15538,-1.67
 921,-3.09274\O,0,-1.7872,-0.64319,-3.64974\C,0,-1.16625,-1.67473,-3.46
 264\H,0,-1.54947,-4.99846,-3.5269\C,0,-1.00045,-4.06848,-3.38529\C,0,-
 3.1446,-2.97101,-3.99948\N,0,-1.73383,-2.92562,-3.60529\H,0,-2.48066,-
 2.67314,-9.18957\H,0,-2.53006,-1.24354,-8.40478\H,0,-3.3965,-2.51006,-
 7.84865\H,0,3.164,-2.21733,-4.39419\H,0,2.3744,-3.68601,-4.7542\N,0,2.
 41081,-2.69076,-4.85104\C,0,1.49514,-2.02545,-5.55821\C,0,-0.45026,-1.
 8203,-6.91285\N,0,-0.37627,-0.48381,-7.02573\H,0,0.81443,1.06304,-6.40
 115\C,0,0.6791,-0.01695,-6.36155\N,0,1.59737,-0.68168,-5.65268\H,0,-1.
 64024,-4.79247,-7.36262\C,0,-1.05201,-3.92329,-7.0669\N,0,0.02657,-3.9
 7117,-6.32391\C,0,0.41821,-2.64443,-6.21851\C,0,-2.54278,-2.23664,-8.2
 9202\N,0,-1.3981,-2.6531,-7.45878\\Version=EM64L-G16RevA.03\State=1-A\
 HF=-2048.7288438\RMSD=6.832e-09\Dipole=-3.4492898,-0.8497898,-1.081983
 8\Quadrupole=6.2455975,28.5704512,-34.8160486,28.4946099,3.4539771,8.4
 485878\PG=C01 [X(C23H27N17O3)]\\@


 IF YOU WANT TO LEARN FROM THE THEORETICAL PHYSICISTS ABOUT THE
 METHODS WHICH THEY USE, I ADVISE YOU TO FOLLOW THIS PRINCIPLE VERY STRICTLY:
 DON'T LISTEN TO THEIR WORDS; PAY ATTENTION, INSTEAD, TO THEIR ACTIONS.
 -- A.EINSTEIN, 1934
 Job cpu time:       0 days  5 hours 59 minutes 45.5 seconds.
 Elapsed time:       0 days  0 hours 11 minutes 37.0 seconds.
 File lengths (MBytes):  RWF=    298 Int=      0 D2E=      0 Chk=     33 Scr=      1
 Normal termination of Gaussian 16 at Fri Jan 19 23:14:03 2018.
