 Entering Gaussian System, Link 0=g16
 Input=str20.15.-2.0.com
 Output=str20.15.-2.0.log
 Initial command:
 /share/apps/g16/l1.exe "/state/partition1/scr/Gau-1361.inp" -scrdir="/state/partition1/scr/"
 Entering Link 1 = /share/apps/g16/l1.exe PID=      1362.
  
 Copyright (c) 1988,1990,1992,1993,1995,1998,2003,2009,2016,
            Gaussian, Inc.  All Rights Reserved.
  
 This is part of the Gaussian(R) 16 program.  It is based on
 the Gaussian(R) 09 system (copyright 2009, Gaussian, Inc.),
 the Gaussian(R) 03 system (copyright 2003, Gaussian, Inc.),
 the Gaussian(R) 98 system (copyright 1998, Gaussian, Inc.),
 the Gaussian(R) 94 system (copyright 1995, Gaussian, Inc.),
 the Gaussian 92(TM) system (copyright 1992, Gaussian, Inc.),
 the Gaussian 90(TM) system (copyright 1990, Gaussian, Inc.),
 the Gaussian 88(TM) system (copyright 1988, Gaussian, Inc.),
 the Gaussian 86(TM) system (copyright 1986, Carnegie Mellon
 University), and the Gaussian 82(TM) system (copyright 1983,
 Carnegie Mellon University). Gaussian is a federally registered
 trademark of Gaussian, Inc.
  
 This software contains proprietary and confidential information,
 including trade secrets, belonging to Gaussian, Inc.
  
 This software is provided under written license and may be
 used, copied, transmitted, or stored only in accord with that
 written license.
  
 The following legend is applicable only to US Government
 contracts under FAR:
  
                    RESTRICTED RIGHTS LEGEND
  
 Use, reproduction and disclosure by the US Government is
 subject to restrictions as set forth in subparagraphs (a)
 and (c) of the Commercial Computer Software - Restricted
 Rights clause in FAR 52.227-19.
  
 Gaussian, Inc.
 340 Quinnipiac St., Bldg. 40, Wallingford CT 06492
  
  
 ---------------------------------------------------------------
 Warning -- This program may not be used in any manner that
 competes with the business of Gaussian, Inc. or will provide
 assistance to any competitor of Gaussian, Inc.  The licensee
 of this program is prohibited from giving any competitor of
 Gaussian, Inc. access to this program.  By using this program,
 the user acknowledges that Gaussian, Inc. is engaged in the
 business of creating and licensing software in the field of
 computational chemistry and represents and warrants to the
 licensee that it is not a competitor of Gaussian, Inc. and that
 it will not use this program in any manner prohibited above.
 ---------------------------------------------------------------
  

 Cite this work as:
 Gaussian 16, Revision A.03,
 M. J. Frisch, G. W. Trucks, H. B. Schlegel, G. E. Scuseria, 
 M. A. Robb, J. R. Cheeseman, G. Scalmani, V. Barone, 
 G. A. Petersson, H. Nakatsuji, X. Li, M. Caricato, A. V. Marenich, 
 J. Bloino, B. G. Janesko, R. Gomperts, B. Mennucci, H. P. Hratchian, 
 J. V. Ortiz, A. F. Izmaylov, J. L. Sonnenberg, D. Williams-Young, 
 F. Ding, F. Lipparini, F. Egidi, J. Goings, B. Peng, A. Petrone, 
 T. Henderson, D. Ranasinghe, V. G. Zakrzewski, J. Gao, N. Rega, 
 G. Zheng, W. Liang, M. Hada, M. Ehara, K. Toyota, R. Fukuda, 
 J. Hasegawa, M. Ishida, T. Nakajima, Y. Honda, O. Kitao, H. Nakai, 
 T. Vreven, K. Throssell, J. A. Montgomery, Jr., J. E. Peralta, 
 F. Ogliaro, M. J. Bearpark, J. J. Heyd, E. N. Brothers, K. N. Kudin, 
 V. N. Staroverov, T. A. Keith, R. Kobayashi, J. Normand, 
 K. Raghavachari, A. P. Rendell, J. C. Burant, S. S. Iyengar, 
 J. Tomasi, M. Cossi, J. M. Millam, M. Klene, C. Adamo, R. Cammi, 
 J. W. Ochterski, R. L. Martin, K. Morokuma, O. Farkas, 
 J. B. Foresman, and D. J. Fox, Gaussian, Inc., Wallingford CT, 2016.
 
 ******************************************
 Gaussian 16:  EM64L-G16RevA.03 25-Dec-2016
                19-Jan-2018 
 ******************************************
 %nprocshared=32
 Will use up to   32 processors via shared memory.
 %mem=32GB
 %chk=allatoms_t.chk
 ---------------------------------------
 #p wb97xd/cc-pvdz sp scf=(maxcycles=20)
 ---------------------------------------
 1/38=1,172=1/1;
 2/12=2,17=6,18=5,40=1/2;
 3/5=16,11=2,25=1,30=1,74=-58/1,2,3;
 4//1;
 5/5=2,7=20,38=5/2;
 6/7=2,8=2,9=2,10=2,28=1/1;
 99/5=1,9=1/99;
 Leave Link    1 at Fri Jan 19 21:01:04 2018, MaxMem=  4294967296 cpu:               2.7 elap:               0.1
 (Enter /share/apps/g16/l101.exe)
 ------------------
 Base pair stacking
 ------------------
 Symbolic Z-matrix:
 Charge =  0 Multiplicity = 1
 N                     5.5709    8.59638  -5.57979 
 C                     5.67238   10.02805  -5.92334 
 C                     4.89019   6.51093  -5.42221 
 N                     6.06534   6.59202  -4.68929 
 C                     6.42841   7.84519  -4.81356 
 H                     7.32134   8.27957  -4.3631 
 N                     2.92915   5.7015   -6.45278 
 C                     2.75391   6.94198  -6.91977 
 H                     1.8654    7.08687  -7.53281 
 N                     3.50791   8.02526  -6.74401 
 C                     4.57276   7.73851  -5.977 
 C                     4.01012   5.44518  -5.68409 
 N                     4.18677   4.20752  -5.217 
 H                     4.9728    3.9725   -4.64416 
 H                     3.53981   3.47343  -5.42362 
 H                     6.52436   10.19341  -6.4203 
 H                     4.89681   10.28972  -6.49706 
 H                     5.66519   10.57516  -5.08631 
 N                     1.15048   6.86928  -3.32063 
 C                     0.43245   5.70514  -3.45206 
 C                     0.64181   8.22392  -3.61539 
 N                    -2.51512   4.0667   -4.28216 
 H                    -2.85444   3.12679  -4.30821 
 H                    -3.15137   4.78665  -4.56068 
 N                    -0.8481    5.60401  -3.86919 
 C                    -1.26331   4.34992  -3.89145 
 N                    -0.48554   3.27563  -3.533 
 H                    -0.88644   2.35154  -3.58102 
 C                     0.83453   3.35622  -3.10081 
 O                     1.44836   2.32471  -2.80092 
 C                     1.29459   4.69726  -3.07166 
 N                     2.52902   5.21816  -2.70873 
 C                     2.39699   6.50663  -2.87192 
 H                     3.18026   7.24048  -2.67895 
 H                     1.19883   8.64233  -4.33196 
 H                    -0.306     8.16162  -3.92529 
 H                     0.68511   8.78505  -2.78951 
 H                    -3.25386  -2.01906  -4.65148 
 H                    -3.58407  -2.02329  -2.9207 
 H                    -3.46047  -0.49361  -3.79028 
 H                     0.99569  -3.49695  -2.94742 
 C                     0.42536  -2.57413  -3.05399 
 O                     2.29557  -1.16005  -2.69372 
 C                     1.09657  -1.3171   -2.92286 
 H                     0.72133   0.69364  -2.98955 
 N                     0.28296  -0.21255  -3.07539 
 O                    -1.70164   0.8253   -3.4515 
 C                    -1.06514  -0.20688  -3.33258 
 H                    -1.446    -3.53052  -3.41335 
 C                    -0.88879  -2.60096  -3.30478 
 C                    -3.07918  -1.50148  -3.72 
 N                    -1.6403   -1.45736  -3.44537 
 H                    -2.43541   0.28099  -8.57925 
 H                    -2.37307   1.66481  -7.71714 
 H                    -3.12882   0.35461  -7.10372 
 H                     3.89294   0.57761  -4.71538 
 H                     3.06984  -0.88336  -5.02869 
 N                     3.0813    0.11616  -5.07378 
 C                     2.05913   0.80226  -5.58915 
 C                    -0.07804   1.04552  -6.60653 
 N                    -0.03515   2.38728  -6.65413 
 H                     1.22515   3.91916  -6.13878 
 C                     1.10774   2.83635  -6.13931 
 N                     2.13274   2.15079  -5.62264 
 H                    -1.29685  -1.91882  -7.03002 
 C                    -0.67723  -1.05651  -6.78217 
 N                     0.50579  -1.12519  -6.22233 
 C                     0.89696   0.20072  -6.10533 
 C                    -2.35863   0.66699  -7.65996 
 N                    -1.09267   0.22663  -7.04235 
 
 ITRead=  0  0  0  0  0  0  0  0  0  0  0  0  0  0  0  0  0  0  0  0
 ITRead=  0  0  0  0  0  0  0  0  0  0  0  0  0  0  0  0  0  0  0  0
 ITRead=  0  0  0  0  0  0  0  0  0  0  0  0  0  0  0  0  0  0  0  0
 ITRead=  0  0  0  0  0  0  0  0  0  0
 MicOpt= -1 -1 -1 -1 -1 -1 -1 -1 -1 -1 -1 -1 -1 -1 -1 -1 -1 -1 -1 -1
 MicOpt= -1 -1 -1 -1 -1 -1 -1 -1 -1 -1 -1 -1 -1 -1 -1 -1 -1 -1 -1 -1
 MicOpt= -1 -1 -1 -1 -1 -1 -1 -1 -1 -1 -1 -1 -1 -1 -1 -1 -1 -1 -1 -1
 MicOpt= -1 -1 -1 -1 -1 -1 -1 -1 -1 -1
 NAtoms=     70 NQM=       70 NQMF=       0 NMMI=      0 NMMIF=      0
                NMic=       0 NMicF=      0.
                    Isotopes and Nuclear Properties:
 (Nuclear quadrupole moments (NQMom) in fm**2, nuclear magnetic moments (NMagM)
  in nuclear magnetons)

  Atom         1           2           3           4           5           6           7           8           9          10
 IAtWgt=          14          12          12          14          12           1          14          12           1          14
 AtmWgt=  14.0030740  12.0000000  12.0000000  14.0030740  12.0000000   1.0078250  14.0030740  12.0000000   1.0078250  14.0030740
 NucSpn=           2           0           0           2           0           1           2           0           1           2
 AtZEff=  -0.0000000  -0.0000000  -0.0000000  -0.0000000  -0.0000000  -0.0000000  -0.0000000  -0.0000000  -0.0000000  -0.0000000
 NQMom=    2.0440000   0.0000000   0.0000000   2.0440000   0.0000000   0.0000000   2.0440000   0.0000000   0.0000000   2.0440000
 NMagM=    0.4037610   0.0000000   0.0000000   0.4037610   0.0000000   2.7928460   0.4037610   0.0000000   2.7928460   0.4037610
 AtZNuc=   7.0000000   6.0000000   6.0000000   7.0000000   6.0000000   1.0000000   7.0000000   6.0000000   1.0000000   7.0000000

  Atom        11          12          13          14          15          16          17          18          19          20
 IAtWgt=          12          12          14           1           1           1           1           1          14          12
 AtmWgt=  12.0000000  12.0000000  14.0030740   1.0078250   1.0078250   1.0078250   1.0078250   1.0078250  14.0030740  12.0000000
 NucSpn=           0           0           2           1           1           1           1           1           2           0
 AtZEff=  -0.0000000  -0.0000000  -0.0000000  -0.0000000  -0.0000000  -0.0000000  -0.0000000  -0.0000000  -0.0000000  -0.0000000
 NQMom=    0.0000000   0.0000000   2.0440000   0.0000000   0.0000000   0.0000000   0.0000000   0.0000000   2.0440000   0.0000000
 NMagM=    0.0000000   0.0000000   0.4037610   2.7928460   2.7928460   2.7928460   2.7928460   2.7928460   0.4037610   0.0000000
 AtZNuc=   6.0000000   6.0000000   7.0000000   1.0000000   1.0000000   1.0000000   1.0000000   1.0000000   7.0000000   6.0000000

  Atom        21          22          23          24          25          26          27          28          29          30
 IAtWgt=          12          14           1           1          14          12          14           1          12          16
 AtmWgt=  12.0000000  14.0030740   1.0078250   1.0078250  14.0030740  12.0000000  14.0030740   1.0078250  12.0000000  15.9949146
 NucSpn=           0           2           1           1           2           0           2           1           0           0
 AtZEff=  -0.0000000  -0.0000000  -0.0000000  -0.0000000  -0.0000000  -0.0000000  -0.0000000  -0.0000000  -0.0000000  -0.0000000
 NQMom=    0.0000000   2.0440000   0.0000000   0.0000000   2.0440000   0.0000000   2.0440000   0.0000000   0.0000000   0.0000000
 NMagM=    0.0000000   0.4037610   2.7928460   2.7928460   0.4037610   0.0000000   0.4037610   2.7928460   0.0000000   0.0000000
 AtZNuc=   6.0000000   7.0000000   1.0000000   1.0000000   7.0000000   6.0000000   7.0000000   1.0000000   6.0000000   8.0000000

  Atom        31          32          33          34          35          36          37          38          39          40
 IAtWgt=          12          14          12           1           1           1           1           1           1           1
 AtmWgt=  12.0000000  14.0030740  12.0000000   1.0078250   1.0078250   1.0078250   1.0078250   1.0078250   1.0078250   1.0078250
 NucSpn=           0           2           0           1           1           1           1           1           1           1
 AtZEff=  -0.0000000  -0.0000000  -0.0000000  -0.0000000  -0.0000000  -0.0000000  -0.0000000  -0.0000000  -0.0000000  -0.0000000
 NQMom=    0.0000000   2.0440000   0.0000000   0.0000000   0.0000000   0.0000000   0.0000000   0.0000000   0.0000000   0.0000000
 NMagM=    0.0000000   0.4037610   0.0000000   2.7928460   2.7928460   2.7928460   2.7928460   2.7928460   2.7928460   2.7928460
 AtZNuc=   6.0000000   7.0000000   6.0000000   1.0000000   1.0000000   1.0000000   1.0000000   1.0000000   1.0000000   1.0000000

  Atom        41          42          43          44          45          46          47          48          49          50
 IAtWgt=           1          12          16          12           1          14          16          12           1          12
 AtmWgt=   1.0078250  12.0000000  15.9949146  12.0000000   1.0078250  14.0030740  15.9949146  12.0000000   1.0078250  12.0000000
 NucSpn=           1           0           0           0           1           2           0           0           1           0
 AtZEff=  -0.0000000  -0.0000000  -0.0000000  -0.0000000  -0.0000000  -0.0000000  -0.0000000  -0.0000000  -0.0000000  -0.0000000
 NQMom=    0.0000000   0.0000000   0.0000000   0.0000000   0.0000000   2.0440000   0.0000000   0.0000000   0.0000000   0.0000000
 NMagM=    2.7928460   0.0000000   0.0000000   0.0000000   2.7928460   0.4037610   0.0000000   0.0000000   2.7928460   0.0000000
 AtZNuc=   1.0000000   6.0000000   8.0000000   6.0000000   1.0000000   7.0000000   8.0000000   6.0000000   1.0000000   6.0000000

  Atom        51          52          53          54          55          56          57          58          59          60
 IAtWgt=          12          14           1           1           1           1           1          14          12          12
 AtmWgt=  12.0000000  14.0030740   1.0078250   1.0078250   1.0078250   1.0078250   1.0078250  14.0030740  12.0000000  12.0000000
 NucSpn=           0           2           1           1           1           1           1           2           0           0
 AtZEff=  -0.0000000  -0.0000000  -0.0000000  -0.0000000  -0.0000000  -0.0000000  -0.0000000  -0.0000000  -0.0000000  -0.0000000
 NQMom=    0.0000000   2.0440000   0.0000000   0.0000000   0.0000000   0.0000000   0.0000000   2.0440000   0.0000000   0.0000000
 NMagM=    0.0000000   0.4037610   2.7928460   2.7928460   2.7928460   2.7928460   2.7928460   0.4037610   0.0000000   0.0000000
 AtZNuc=   6.0000000   7.0000000   1.0000000   1.0000000   1.0000000   1.0000000   1.0000000   7.0000000   6.0000000   6.0000000

  Atom        61          62          63          64          65          66          67          68          69          70
 IAtWgt=          14           1          12          14           1          12          14          12          12          14
 AtmWgt=  14.0030740   1.0078250  12.0000000  14.0030740   1.0078250  12.0000000  14.0030740  12.0000000  12.0000000  14.0030740
 NucSpn=           2           1           0           2           1           0           2           0           0           2
 AtZEff=  -0.0000000  -0.0000000  -0.0000000  -0.0000000  -0.0000000  -0.0000000  -0.0000000  -0.0000000  -0.0000000  -0.0000000
 NQMom=    2.0440000   0.0000000   0.0000000   2.0440000   0.0000000   0.0000000   2.0440000   0.0000000   0.0000000   2.0440000
 NMagM=    0.4037610   2.7928460   0.0000000   0.4037610   2.7928460   0.0000000   0.4037610   0.0000000   0.0000000   0.4037610
 AtZNuc=   7.0000000   1.0000000   6.0000000   7.0000000   1.0000000   6.0000000   7.0000000   6.0000000   6.0000000   7.0000000
 Leave Link  101 at Fri Jan 19 21:01:04 2018, MaxMem=  4294967296 cpu:               7.0 elap:               0.2
 (Enter /share/apps/g16/l202.exe)
 Stoichiometry    C23H27N17O3
 Framework group  C1[X(C23H27N17O3)]
 Deg. of freedom   204
 Full point group                 C1      NOp   1
 Largest Abelian subgroup         C1      NOp   1
 Largest concise Abelian subgroup C1      NOp   1
                         Standard orientation:                         
 ---------------------------------------------------------------------
 Center     Atomic      Atomic             Coordinates (Angstroms)
 Number     Number       Type             X           Y           Z
 ---------------------------------------------------------------------
      1          7           0       -6.907169   -1.036049    0.189056
      2          6           0       -8.219107   -0.462918    0.547304
      3          6           0       -4.755152   -1.482392    0.105971
      4          7           0       -5.358268   -2.302504   -0.836575
      5          6           0       -6.630648   -2.000771   -0.748795
      6          1           0       -7.418562   -2.455437   -1.349956
      7          7           0       -3.152573   -0.418526    1.470836
      8          6           0       -4.170305    0.269935    1.997924
      9          1           0       -3.896648    0.983209    2.774206
     10          7           0       -5.469229    0.209862    1.711406
     11          6           0       -5.697179   -0.696096    0.746152
     12          6           0       -3.414722   -1.322482    0.501702
     13          7           0       -2.400121   -2.010696   -0.025675
     14          1           0       -2.547734   -2.689995   -0.745388
     15          1           0       -1.458397   -1.870830    0.280478
     16          1           0       -8.823182   -1.189157    0.875715
     17          1           0       -8.099791    0.220800    1.266629
     18          1           0       -8.627098   -0.030550   -0.256811
     19          7           0       -3.045657    2.236857   -1.226431
     20          6           0       -1.691632    2.233814   -0.992615
     21          6           0       -3.983066    3.295584   -0.800943
     22          7           0        1.133691    3.750061    0.341650
     23          1           0        2.112772    3.558886    0.405676
     24          1           0        0.809210    4.599978    0.757666
     25          7           0       -0.995650    3.189809   -0.340147
     26          6           0        0.292885    2.905266   -0.274193
     27          7           0        0.858550    1.771770   -0.805908
     28          1           0        1.853100    1.636636   -0.708042
     29          6           0        0.161680    0.774753   -1.481330
     30          8           0        0.767949   -0.209227   -1.922868
     31          6           0       -1.223819    1.066415   -1.560190
     32          7           0       -2.263221    0.350963   -2.138675
     33          6           0       -3.321861    1.081820   -1.916536
     34          1           0       -4.332389    0.824189   -2.235510
     35          1           0       -4.674449    2.906415   -0.193203
     36          1           0       -3.478852    4.009283   -0.316520
     37          1           0       -4.429169    3.690336   -1.603428
     38          1           0        6.730798    1.243788    0.672698
     39          1           0        7.025103    1.832596   -0.961728
     40          1           0        5.579233    2.341584   -0.088941
     41          1           0        6.010452   -2.784114   -1.857868
     42          6           0        5.490395   -1.856775   -1.617421
     43          8           0        3.362245   -2.660265   -2.290091
     44          6           0        4.079496   -1.767456   -1.839298
     45          1           0        2.525521   -0.450056   -1.644504
     46          7           0        3.520561   -0.551331   -1.501826
     47          8           0        3.587282    1.580424   -0.721829
     48          6           0        4.169656    0.544338   -0.990224
     49          1           0        7.223948   -0.821720   -0.932393
     50          6           0        6.151080   -0.805004   -1.119547
     51          6           0        6.264425    1.524627   -0.259870
     52          7           0        5.528303    0.380458   -0.804614
     53          1           0        4.050530    1.002354    4.433726
     54          1           0        2.887130    1.801741    3.615462
     55          1           0        4.440279    1.891266    3.121721
     56          1           0        0.917579   -3.499539   -0.564580
     57          1           0        2.567132   -3.596016   -0.140603
     58          7           0        1.695002   -3.110603   -0.070122
     59          6           0        1.575099   -1.994304    0.651453
     60          6           0        2.357478   -0.249237    2.067206
     61          7           0        1.173942    0.381471    2.143849
     62          1           0       -0.740312    0.180619    1.439656
     63          6           0        0.253294   -0.265420    1.431922
     64          7           0        0.371413   -1.383604    0.708543
     65          1           0        5.494706   -0.788083    2.632536
     66          6           0        4.458899   -0.832862    2.294845
     67          7           0        3.968602   -1.766219    1.516302
     68          6           0        2.636934   -1.408130    1.364081
     69          6           0        3.745747    1.297477    3.528191
     70          7           0        3.539228    0.117318    2.666455
 ---------------------------------------------------------------------
 Rotational constants (GHZ):           0.1667198           0.0487840           0.0464800
 Leave Link  202 at Fri Jan 19 21:01:04 2018, MaxMem=  4294967296 cpu:               0.3 elap:               0.0
 (Enter /share/apps/g16/l301.exe)
 Standard basis: CC-pVDZ (5D, 7F)
 Ernie: Thresh=  0.10000D-02 Tol=  0.10000D-05 Strict=F.
 Ernie:  86 primitive shells out of 1081 were deleted.
 There are   780 symmetry adapted cartesian basis functions of A   symmetry.
 There are   737 symmetry adapted basis functions of A   symmetry.
   737 basis functions,  1608 primitive gaussians,   780 cartesian basis functions
   154 alpha electrons      154 beta electrons
       nuclear repulsion energy      5476.0293033804 Hartrees.
 IExCor= 4639 DFT=T Ex+Corr=wB97XD ExCW=0 ScaHFX=  1.000000
 ScaDFX=  1.000000  1.000000  1.000000  1.000000 ScalE2=  1.000000  1.000000
 IRadAn=      5 IRanWt=     -1 IRanGd=            0 ICorTp=0 IEmpDi=121
 HFx  wShort=  0.000000 wLong=  0.200000 cFull=  0.222036 cShort=  0.000000 cLong=  0.777964
 DFx  wShort=  0.000000 wLong=  0.200000 cFull=  0.000000 cShort=  0.000000 cLong=  1.000000
 NAtoms=   70 NActive=   70 NUniq=   70 SFac= 1.00D+00 NAtFMM=   60 NAOKFM=T Big=T
 Integral buffers will be    131072 words long.
 Raffenetti 2 integral format.
 Two-electron integral symmetry is turned on.
 R6Disp:  Grimme-D2 Dispersion energy=       -0.0700918657 Hartrees.
 Nuclear repulsion after empirical dispersion term =     5475.9592115148 Hartrees.
 Leave Link  301 at Fri Jan 19 21:01:04 2018, MaxMem=  4294967296 cpu:               2.1 elap:               0.1
 (Enter /share/apps/g16/l302.exe)
 NPDir=0 NMtPBC=     1 NCelOv=     1 NCel=       1 NClECP=     1 NCelD=      1
         NCelK=      1 NCelE2=     1 NClLst=     1 CellRange=     0.0.
 One-electron integrals computed using PRISM.
 One-electron integral symmetry used in STVInt
 NBasis=   737 RedAO= T EigKep=  7.08D-04  NBF=   737
 NBsUse=   737 1.00D-06 EigRej= -1.00D+00 NBFU=   737
 Precomputing XC quadrature grid using
 IXCGrd= 4 IRadAn=           5 IRanWt=          -1 IRanGd=           0 AccXCQ= 0.00D+00.
 Generated NRdTot=       0 NPtTot=           0 NUsed=           0 NTot=          32
 NSgBfM=   761   760   760   760   761 MxSgAt=    70 MxSgA2=    70.
 Leave Link  302 at Fri Jan 19 21:01:08 2018, MaxMem=  4294967296 cpu:             134.4 elap:               4.2
 (Enter /share/apps/g16/l303.exe)
 DipDrv:  MaxL=1.
 Leave Link  303 at Fri Jan 19 21:01:09 2018, MaxMem=  4294967296 cpu:              12.4 elap:               0.4
 (Enter /share/apps/g16/l401.exe)
 ExpMin= 1.22D-01 ExpMax= 1.17D+04 ExpMxC= 4.01D+02 IAcc=3 IRadAn=         5 AccDes= 0.00D+00
 Harris functional with IExCor= 4639 and IRadAn=       5 diagonalized for initial guess.
 HarFok:  IExCor= 4639 AccDes= 0.00D+00 IRadAn=         5 IDoV= 1 UseB2=F ITyADJ=14
 ICtDFT=  3500011 ScaDFX=  1.000000  1.000000  1.000000  1.000000
 FoFCou: FMM=F IPFlag=           0 FMFlag=      100000 FMFlg1=        2001
         NFxFlg=           0 DoJE=T BraDBF=F KetDBF=T FulRan=T
         wScrn=  0.000000 ICntrl=       500 IOpCl=  0 I1Cent=   200000004 NGrid=           0
         NMat0=    1 NMatS0=      1 NMatT0=    0 NMatD0=    1 NMtDS0=    0 NMtDT0=    0
 Petite list used in FoFCou.
 Harris En= -1963.88612838157    
 JPrj=0 DoOrth=F DoCkMO=F.
 Leave Link  401 at Fri Jan 19 21:01:21 2018, MaxMem=  4294967296 cpu:             396.2 elap:              12.4
 (Enter /share/apps/g16/l502.exe)
 Integral symmetry usage will be decided dynamically.
 Closed shell SCF:
 Using DIIS extrapolation, IDIIS=  1040.
 NGot=  4294967296 LenX=  4293717438 LenY=  4293108258
 Requested convergence on RMS density matrix=1.00D-08 within  20 cycles.
 Requested convergence on MAX density matrix=1.00D-06.
 Requested convergence on             energy=1.00D-06.
 No special actions if energy rises.
 Fock matrices will be formed incrementally for  20 cycles.
 Integral accuracy reduced to 1.0D-05 until final iterations.

 Cycle   1  Pass 0  IDiag  1:
 FoFJK:  IHMeth= 1 ICntrl=       0 DoSepK=T KAlg= 0 I1Cent=           0 FoldK=F
 IRaf=         1 NMat=       1 IRICut=       1 DoRegI=T DoRafI=F ISym2E= 0 IDoP0=0 IntGTp=1.
 FoFCou: FMM=T IPFlag=           0 FMFlag=      100000 FMFlg1=        2001
         NFxFlg=           0 DoJE=T BraDBF=F KetDBF=F FulRan=T
         wScrn=  0.000000 ICntrl=       500 IOpCl=  0 I1Cent=           0 NGrid=           0
         NMat0=    1 NMatS0=      1 NMatT0=    0 NMatD0=    1 NMtDS0=    0 NMtDT0=    0
 Symmetry not used in FoFCou.
 FMM levels:  10  Number of levels for PrismC:   9
 E= -2048.31588670087    
 DIIS: error= 2.37D-02 at cycle   1 NSaved=   1.
 NSaved= 1 IEnMin= 1 EnMin= -2048.31588670087     IErMin= 1 ErrMin= 2.37D-02
 ErrMax= 2.37D-02  0.00D+00 EMaxC= 1.00D-01 BMatC= 8.35D-01 BMatP= 8.35D-01
 IDIUse=3 WtCom= 7.63D-01 WtEn= 2.37D-01
 Coeff-Com:  0.100D+01
 Coeff-En:   0.100D+01
 Coeff:      0.100D+01
 Gap=     0.255 Goal=   None    Shift=    0.000
 GapD=    0.255 DampG=1.000 DampE=0.500 DampFc=0.5000 IDamp=-1.
 Damping current iteration by 5.00D-01
 RMSDP=1.58D-03 MaxDP=1.27D-01              OVMax= 1.99D-01

 Cycle   2  Pass 0  IDiag  1:
 RMSU=  7.89D-04    CP:  9.98D-01
 E= -2048.51237071594     Delta-E=       -0.196484015063 Rises=F Damp=T
 DIIS: error= 1.30D-02 at cycle   2 NSaved=   2.
 NSaved= 2 IEnMin= 2 EnMin= -2048.51237071594     IErMin= 2 ErrMin= 1.30D-02
 ErrMax= 1.30D-02  0.00D+00 EMaxC= 1.00D-01 BMatC= 1.45D-01 BMatP= 8.35D-01
 IDIUse=3 WtCom= 8.70D-01 WtEn= 1.30D-01
 Coeff-Com: -0.189D+00 0.119D+01
 Coeff-En:   0.000D+00 0.100D+01
 Coeff:     -0.164D+00 0.116D+01
 Gap=     0.367 Goal=   None    Shift=    0.000
 RMSDP=5.89D-04 MaxDP=3.36D-02 DE=-1.96D-01 OVMax= 1.57D-01

 Cycle   3  Pass 0  IDiag  1:
 RMSU=  5.81D-04    CP:  9.94D-01  1.11D+00
 E= -2048.69185210211     Delta-E=       -0.179481386170 Rises=F Damp=F
 DIIS: error= 7.07D-03 at cycle   3 NSaved=   3.
 NSaved= 3 IEnMin= 3 EnMin= -2048.69185210211     IErMin= 3 ErrMin= 7.07D-03
 ErrMax= 7.07D-03  0.00D+00 EMaxC= 1.00D-01 BMatC= 6.51D-02 BMatP= 1.45D-01
 IDIUse=3 WtCom= 9.29D-01 WtEn= 7.07D-02
 Coeff-Com: -0.231D+00 0.550D+00 0.681D+00
 Coeff-En:   0.000D+00 0.000D+00 0.100D+01
 Coeff:     -0.214D+00 0.511D+00 0.703D+00
 Gap=     0.280 Goal=   None    Shift=    0.000
 RMSDP=3.67D-04 MaxDP=3.11D-02 DE=-1.79D-01 OVMax= 5.68D-02

 Cycle   4  Pass 0  IDiag  1:
 RMSU=  2.07D-04    CP:  9.94D-01  1.40D+00  6.63D-01
 E= -2048.74176172582     Delta-E=       -0.049909623715 Rises=F Damp=F
 DIIS: error= 2.39D-03 at cycle   4 NSaved=   4.
 NSaved= 4 IEnMin= 4 EnMin= -2048.74176172582     IErMin= 4 ErrMin= 2.39D-03
 ErrMax= 2.39D-03  0.00D+00 EMaxC= 1.00D-01 BMatC= 9.31D-03 BMatP= 6.51D-02
 IDIUse=3 WtCom= 9.76D-01 WtEn= 2.39D-02
 Coeff-Com: -0.957D-01 0.185D+00 0.376D+00 0.534D+00
 Coeff-En:   0.000D+00 0.000D+00 0.659D-01 0.934D+00
 Coeff:     -0.934D-01 0.181D+00 0.369D+00 0.544D+00
 Gap=     0.285 Goal=   None    Shift=    0.000
 RMSDP=1.28D-04 MaxDP=1.02D-02 DE=-4.99D-02 OVMax= 1.51D-02

 Cycle   5  Pass 0  IDiag  1:
 RMSU=  6.01D-05    CP:  9.94D-01  1.37D+00  7.99D-01  6.22D-01
 E= -2048.74959100587     Delta-E=       -0.007829280051 Rises=F Damp=F
 DIIS: error= 4.58D-04 at cycle   5 NSaved=   5.
 NSaved= 5 IEnMin= 5 EnMin= -2048.74959100587     IErMin= 5 ErrMin= 4.58D-04
 ErrMax= 4.58D-04  0.00D+00 EMaxC= 1.00D-01 BMatC= 2.80D-04 BMatP= 9.31D-03
 IDIUse=3 WtCom= 9.95D-01 WtEn= 4.58D-03
 Coeff-Com: -0.243D-01 0.415D-01 0.119D+00 0.234D+00 0.629D+00
 Coeff-En:   0.000D+00 0.000D+00 0.000D+00 0.000D+00 0.100D+01
 Coeff:     -0.242D-01 0.413D-01 0.118D+00 0.233D+00 0.631D+00
 Gap=     0.286 Goal=   None    Shift=    0.000
 RMSDP=2.66D-05 MaxDP=1.74D-03 DE=-7.83D-03 OVMax= 3.12D-03

 Failed to achieve initial convergence to 1.0D-08 in  6 cycles.
 Switch to full accuracy anyway.
 Cycle   6  Pass 1  IDiag  1:
 E= -2048.74977793841     Delta-E=       -0.000186932540 Rises=F Damp=F
 DIIS: error= 2.05D-04 at cycle   1 NSaved=   1.
 NSaved= 1 IEnMin= 1 EnMin= -2048.74977793841     IErMin= 1 ErrMin= 2.05D-04
 ErrMax= 2.05D-04  0.00D+00 EMaxC= 1.00D-01 BMatC= 7.19D-05 BMatP= 7.19D-05
 IDIUse=3 WtCom= 9.98D-01 WtEn= 2.05D-03
 Coeff-Com:  0.100D+01
 Coeff-En:   0.100D+01
 Coeff:      0.100D+01
 Gap=     0.285 Goal=   None    Shift=    0.000
 RMSDP=2.66D-05 MaxDP=1.74D-03 DE=-1.87D-04 OVMax= 2.45D-03

 Cycle   7  Pass 1  IDiag  1:
 RMSU=  1.05D-04    CP:  1.00D+00
 E= -2048.74983029660     Delta-E=       -0.000052358185 Rises=F Damp=F
 DIIS: error= 1.98D-04 at cycle   2 NSaved=   2.
 NSaved= 2 IEnMin= 2 EnMin= -2048.74983029660     IErMin= 2 ErrMin= 1.98D-04
 ErrMax= 1.98D-04  0.00D+00 EMaxC= 1.00D-01 BMatC= 4.35D-05 BMatP= 7.19D-05
 IDIUse=3 WtCom= 9.98D-01 WtEn= 1.98D-03
 Coeff-Com:  0.416D+00 0.584D+00
 Coeff-En:   0.000D+00 0.100D+01
 Coeff:      0.415D+00 0.585D+00
 Gap=     0.286 Goal=   None    Shift=    0.000
 RMSDP=1.15D-05 MaxDP=1.02D-03 DE=-5.24D-05 OVMax= 1.51D-03

 Cycle   8  Pass 1  IDiag  1:
 RMSU=  1.13D-05    CP:  1.00D+00  1.02D+00
 E= -2048.74986238682     Delta-E=       -0.000032090225 Rises=F Damp=F
 DIIS: error= 9.45D-05 at cycle   3 NSaved=   3.
 NSaved= 3 IEnMin= 3 EnMin= -2048.74986238682     IErMin= 3 ErrMin= 9.45D-05
 ErrMax= 9.45D-05  0.00D+00 EMaxC= 1.00D-01 BMatC= 9.56D-06 BMatP= 4.35D-05
 IDIUse=1 WtCom= 1.00D+00 WtEn= 0.00D+00
 Coeff-Com: -0.203D-01 0.304D+00 0.716D+00
 Coeff:     -0.203D-01 0.304D+00 0.716D+00
 Gap=     0.286 Goal=   None    Shift=    0.000
 RMSDP=5.62D-06 MaxDP=3.86D-04 DE=-3.21D-05 OVMax= 5.77D-04

 Cycle   9  Pass 1  IDiag  1:
 RMSU=  3.84D-06    CP:  1.00D+00  1.05D+00  7.73D-01
 E= -2048.74987151443     Delta-E=       -0.000009127608 Rises=F Damp=F
 DIIS: error= 2.95D-05 at cycle   4 NSaved=   4.
 NSaved= 4 IEnMin= 4 EnMin= -2048.74987151443     IErMin= 4 ErrMin= 2.95D-05
 ErrMax= 2.95D-05  0.00D+00 EMaxC= 1.00D-01 BMatC= 4.85D-07 BMatP= 9.56D-06
 IDIUse=1 WtCom= 1.00D+00 WtEn= 0.00D+00
 Coeff-Com: -0.322D-01 0.800D-01 0.259D+00 0.693D+00
 Coeff:     -0.322D-01 0.800D-01 0.259D+00 0.693D+00
 Gap=     0.286 Goal=   None    Shift=    0.000
 RMSDP=1.45D-06 MaxDP=1.18D-04 DE=-9.13D-06 OVMax= 4.82D-04

 Cycle  10  Pass 1  IDiag  1:
 RMSU=  1.28D-06    CP:  1.00D+00  1.06D+00  8.07D-01  1.11D+00
 E= -2048.74987235736     Delta-E=       -0.000000842924 Rises=F Damp=F
 DIIS: error= 1.23D-05 at cycle   5 NSaved=   5.
 NSaved= 5 IEnMin= 5 EnMin= -2048.74987235736     IErMin= 5 ErrMin= 1.23D-05
 ErrMax= 1.23D-05  0.00D+00 EMaxC= 1.00D-01 BMatC= 1.21D-07 BMatP= 4.85D-07
 IDIUse=1 WtCom= 1.00D+00 WtEn= 0.00D+00
 Coeff-Com: -0.336D-02-0.552D-01-0.124D+00 0.210D+00 0.972D+00
 Coeff:     -0.336D-02-0.552D-01-0.124D+00 0.210D+00 0.972D+00
 Gap=     0.286 Goal=   None    Shift=    0.000
 RMSDP=1.21D-06 MaxDP=7.04D-05 DE=-8.43D-07 OVMax= 2.44D-04

 Cycle  11  Pass 1  IDiag  1:
 RMSU=  4.92D-07    CP:  1.00D+00  1.06D+00  8.17D-01  1.39D+00  1.17D+00
 E= -2048.74987261838     Delta-E=       -0.000000261022 Rises=F Damp=F
 DIIS: error= 7.61D-06 at cycle   6 NSaved=   6.
 NSaved= 6 IEnMin= 6 EnMin= -2048.74987261838     IErMin= 6 ErrMin= 7.61D-06
 ErrMax= 7.61D-06  0.00D+00 EMaxC= 1.00D-01 BMatC= 2.87D-08 BMatP= 1.21D-07
 IDIUse=1 WtCom= 1.00D+00 WtEn= 0.00D+00
 Coeff-Com:  0.474D-02-0.436D-01-0.115D+00 0.133D-02 0.521D+00 0.632D+00
 Coeff:      0.474D-02-0.436D-01-0.115D+00 0.133D-02 0.521D+00 0.632D+00
 Gap=     0.286 Goal=   None    Shift=    0.000
 RMSDP=3.61D-07 MaxDP=3.29D-05 DE=-2.61D-07 OVMax= 1.21D-04

 Cycle  12  Pass 1  IDiag  1:
 RMSU=  1.84D-07    CP:  1.00D+00  1.06D+00  8.19D-01  1.46D+00  1.30D+00
                    CP:  9.38D-01
 E= -2048.74987265892     Delta-E=       -0.000000040538 Rises=F Damp=F
 DIIS: error= 1.28D-06 at cycle   7 NSaved=   7.
 NSaved= 7 IEnMin= 7 EnMin= -2048.74987265892     IErMin= 7 ErrMin= 1.28D-06
 ErrMax= 1.28D-06  0.00D+00 EMaxC= 1.00D-01 BMatC= 7.82D-10 BMatP= 2.87D-08
 IDIUse=1 WtCom= 1.00D+00 WtEn= 0.00D+00
 Coeff-Com:  0.113D-02-0.693D-02-0.199D-01-0.806D-02 0.559D-01 0.135D+00
 Coeff-Com:  0.843D+00
 Coeff:      0.113D-02-0.693D-02-0.199D-01-0.806D-02 0.559D-01 0.135D+00
 Coeff:      0.843D+00
 Gap=     0.286 Goal=   None    Shift=    0.000
 RMSDP=8.60D-08 MaxDP=4.56D-06 DE=-4.05D-08 OVMax= 2.18D-05

 Cycle  13  Pass 1  IDiag  1:
 RMSU=  5.08D-08    CP:  1.00D+00  1.06D+00  8.18D-01  1.47D+00  1.32D+00
                    CP:  1.03D+00  1.14D+00
 E= -2048.74987266059     Delta-E=       -0.000000001670 Rises=F Damp=F
 DIIS: error= 5.21D-07 at cycle   8 NSaved=   8.
 NSaved= 8 IEnMin= 8 EnMin= -2048.74987266059     IErMin= 8 ErrMin= 5.21D-07
 ErrMax= 5.21D-07  0.00D+00 EMaxC= 1.00D-01 BMatC= 3.12D-10 BMatP= 7.82D-10
 IDIUse=1 WtCom= 1.00D+00 WtEn= 0.00D+00
 Coeff-Com: -0.729D-03 0.853D-02 0.215D-01-0.235D-02-0.113D+00-0.101D+00
 Coeff-Com:  0.415D+00 0.773D+00
 Coeff:     -0.729D-03 0.853D-02 0.215D-01-0.235D-02-0.113D+00-0.101D+00
 Coeff:      0.415D+00 0.773D+00
 Gap=     0.286 Goal=   None    Shift=    0.000
 RMSDP=4.59D-08 MaxDP=2.39D-06 DE=-1.67D-09 OVMax= 1.07D-05

 Cycle  14  Pass 1  IDiag  1:
 RMSU=  2.63D-08    CP:  1.00D+00  1.06D+00  8.18D-01  1.47D+00  1.33D+00
                    CP:  1.07D+00  1.29D+00  1.08D+00
 E= -2048.74987266131     Delta-E=       -0.000000000726 Rises=F Damp=F
 DIIS: error= 1.44D-07 at cycle   9 NSaved=   9.
 NSaved= 9 IEnMin= 9 EnMin= -2048.74987266131     IErMin= 9 ErrMin= 1.44D-07
 ErrMax= 1.44D-07  0.00D+00 EMaxC= 1.00D-01 BMatC= 2.43D-11 BMatP= 3.12D-10
 IDIUse=1 WtCom= 1.00D+00 WtEn= 0.00D+00
 Coeff-Com: -0.398D-03 0.403D-02 0.104D-01-0.636D-04-0.494D-01-0.533D-01
 Coeff-Com:  0.766D-01 0.281D+00 0.731D+00
 Coeff:     -0.398D-03 0.403D-02 0.104D-01-0.636D-04-0.494D-01-0.533D-01
 Coeff:      0.766D-01 0.281D+00 0.731D+00
 Gap=     0.286 Goal=   None    Shift=    0.000
 RMSDP=1.27D-08 MaxDP=7.65D-07 DE=-7.26D-10 OVMax= 3.10D-06

 Cycle  15  Pass 1  IDiag  1:
 RMSU=  8.52D-09    CP:  1.00D+00  1.06D+00  8.18D-01  1.47D+00  1.33D+00
                    CP:  1.08D+00  1.31D+00  1.20D+00  1.13D+00
 E= -2048.74987266127     Delta-E=        0.000000000040 Rises=F Damp=F
 DIIS: error= 5.89D-08 at cycle  10 NSaved=  10.
 NSaved=10 IEnMin= 9 EnMin= -2048.74987266131     IErMin=10 ErrMin= 5.89D-08
 ErrMax= 5.89D-08  0.00D+00 EMaxC= 1.00D-01 BMatC= 4.33D-12 BMatP= 2.43D-11
 IDIUse=1 WtCom= 1.00D+00 WtEn= 0.00D+00
 Coeff-Com:  0.217D-04-0.460D-03-0.106D-02 0.200D-03 0.731D-02 0.358D-02
 Coeff-Com: -0.542D-01-0.714D-01 0.258D+00 0.858D+00
 Coeff:      0.217D-04-0.460D-03-0.106D-02 0.200D-03 0.731D-02 0.358D-02
 Coeff:     -0.542D-01-0.714D-01 0.258D+00 0.858D+00
 Gap=     0.286 Goal=   None    Shift=    0.000
 RMSDP=6.11D-09 MaxDP=3.56D-07 DE= 4.00D-11 OVMax= 1.25D-06

 SCF Done:  E(RwB97XD) =  -2048.74987266     A.U. after   15 cycles
            NFock= 15  Conv=0.61D-08     -V/T= 2.0054
 KE= 2.037713556404D+03 PE=-1.573306344909D+04 EE= 6.170640808510D+03
 Leave Link  502 at Fri Jan 19 21:12:28 2018, MaxMem=  4294967296 cpu:           20649.4 elap:             667.0
 (Enter /share/apps/g16/l601.exe)
 Copying SCF densities to generalized density rwf, IOpCl= 0 IROHF=0.

 **********************************************************************

            Population analysis using the SCF density.

 **********************************************************************

 Orbital symmetries:
       Occupied  (A) (A) (A) (A) (A) (A) (A) (A) (A) (A) (A) (A)
                 (A) (A) (A) (A) (A) (A) (A) (A) (A) (A) (A) (A)
                 (A) (A) (A) (A) (A) (A) (A) (A) (A) (A) (A) (A)
                 (A) (A) (A) (A) (A) (A) (A) (A) (A) (A) (A) (A)
                 (A) (A) (A) (A) (A) (A) (A) (A) (A) (A) (A) (A)
                 (A) (A) (A) (A) (A) (A) (A) (A) (A) (A) (A) (A)
                 (A) (A) (A) (A) (A) (A) (A) (A) (A) (A) (A) (A)
                 (A) (A) (A) (A) (A) (A) (A) (A) (A) (A) (A) (A)
                 (A) (A) (A) (A) (A) (A) (A) (A) (A) (A) (A) (A)
                 (A) (A) (A) (A) (A) (A) (A) (A) (A) (A) (A) (A)
                 (A) (A) (A) (A) (A) (A) (A) (A) (A) (A) (A) (A)
                 (A) (A) (A) (A) (A) (A) (A) (A) (A) (A) (A) (A)
                 (A) (A) (A) (A) (A) (A) (A) (A) (A) (A)
       Virtual   (A) (A) (A) (A) (A) (A) (A) (A) (A) (A) (A) (A)
                 (A) (A) (A) (A) (A) (A) (A) (A) (A) (A) (A) (A)
                 (A) (A) (A) (A) (A) (A) (A) (A) (A) (A) (A) (A)
                 (A) (A) (A) (A) (A) (A) (A) (A) (A) (A) (A) (A)
                 (A) (A) (A) (A) (A) (A) (A) (A) (A) (A) (A) (A)
                 (A) (A) (A) (A) (A) (A) (A) (A) (A) (A) (A) (A)
                 (A) (A) (A) (A) (A) (A) (A) (A) (A) (A) (A) (A)
                 (A) (A) (A) (A) (A) (A) (A) (A) (A) (A) (A) (A)
                 (A) (A) (A) (A) (A) (A) (A) (A) (A) (A) (A) (A)
                 (A) (A) (A) (A) (A) (A) (A) (A) (A) (A) (A) (A)
                 (A) (A) (A) (A) (A) (A) (A) (A) (A) (A) (A) (A)
                 (A) (A) (A) (A) (A) (A) (A) (A) (A) (A) (A) (A)
                 (A) (A) (A) (A) (A) (A) (A) (A) (A) (A) (A) (A)
                 (A) (A) (A) (A) (A) (A) (A) (A) (A) (A) (A) (A)
                 (A) (A) (A) (A) (A) (A) (A) (A) (A) (A) (A) (A)
                 (A) (A) (A) (A) (A) (A) (A) (A) (A) (A) (A) (A)
                 (A) (A) (A) (A) (A) (A) (A) (A) (A) (A) (A) (A)
                 (A) (A) (A) (A) (A) (A) (A) (A) (A) (A) (A) (A)
                 (A) (A) (A) (A) (A) (A) (A) (A) (A) (A) (A) (A)
                 (A) (A) (A) (A) (A) (A) (A) (A) (A) (A) (A) (A)
                 (A) (A) (A) (A) (A) (A) (A) (A) (A) (A) (A) (A)
                 (A) (A) (A) (A) (A) (A) (A) (A) (A) (A) (A) (A)
                 (A) (A) (A) (A) (A) (A) (A) (A) (A) (A) (A) (A)
                 (A) (A) (A) (A) (A) (A) (A) (A) (A) (A) (A) (A)
                 (A) (A) (A) (A) (A) (A) (A) (A) (A) (A) (A) (A)
                 (A) (A) (A) (A) (A) (A) (A) (A) (A) (A) (A) (A)
                 (A) (A) (A) (A) (A) (A) (A) (A) (A) (A) (A) (A)
                 (A) (A) (A) (A) (A) (A) (A) (A) (A) (A) (A) (A)
                 (A) (A) (A) (A) (A) (A) (A) (A) (A) (A) (A) (A)
                 (A) (A) (A) (A) (A) (A) (A) (A) (A) (A) (A) (A)
                 (A) (A) (A) (A) (A) (A) (A) (A) (A) (A) (A) (A)
                 (A) (A) (A) (A) (A) (A) (A) (A) (A) (A) (A) (A)
                 (A) (A) (A) (A) (A) (A) (A) (A) (A) (A) (A) (A)
                 (A) (A) (A) (A) (A) (A) (A) (A) (A) (A) (A) (A)
                 (A) (A) (A) (A) (A) (A) (A) (A) (A) (A) (A) (A)
                 (A) (A) (A) (A) (A) (A) (A) (A) (A) (A) (A) (A)
                 (A) (A) (A) (A) (A) (A) (A) (A) (A) (A) (A) (A)
                 (A) (A) (A) (A) (A) (A) (A) (A) (A) (A) (A) (A)
                 (A) (A) (A) (A) (A) (A) (A) (A) (A) (A) (A) (A)
                 (A) (A) (A) (A) (A) (A) (A) (A) (A) (A) (A) (A)
                 (A) (A) (A) (A) (A) (A) (A) (A) (A) (A) (A) (A)
                 (A) (A) (A) (A) (A) (A) (A) (A) (A) (A) (A) (A)
                 (A) (A) (A) (A) (A) (A) (A) (A) (A) (A) (A) (A)
                 (A) (A) (A) (A) (A) (A) (A) (A) (A) (A) (A) (A)
                 (A) (A) (A) (A) (A) (A) (A) (A) (A) (A) (A) (A)
                 (A) (A) (A) (A) (A) (A) (A) (A) (A) (A) (A) (A)
                 (A) (A) (A) (A) (A) (A) (A) (A) (A) (A) (A) (A)
                 (A) (A) (A) (A) (A) (A) (A) (A) (A) (A) (A) (A)
                 (A) (A) (A) (A) (A) (A) (A)
 The electronic state is 1-A.
 Alpha  occ. eigenvalues --  -19.26084 -19.22284 -19.20754 -14.52556 -14.51088
 Alpha  occ. eigenvalues --  -14.49516 -14.48671 -14.47973 -14.47029 -14.46824
 Alpha  occ. eigenvalues --  -14.45565 -14.44042 -14.42515 -14.42432 -14.42343
 Alpha  occ. eigenvalues --  -14.42174 -14.42112 -14.41584 -14.40834 -14.40708
 Alpha  occ. eigenvalues --  -10.45644 -10.41325 -10.40296 -10.38357 -10.37859
 Alpha  occ. eigenvalues --  -10.37624 -10.36668 -10.35924 -10.35766 -10.35553
 Alpha  occ. eigenvalues --  -10.34815 -10.34400 -10.34122 -10.34085 -10.33681
 Alpha  occ. eigenvalues --  -10.33241 -10.33051 -10.31617 -10.30974 -10.30919
 Alpha  occ. eigenvalues --  -10.30565 -10.29237 -10.28171  -1.19617  -1.13736
 Alpha  occ. eigenvalues --   -1.13325  -1.13302  -1.12101  -1.10599  -1.09452
 Alpha  occ. eigenvalues --   -1.08688  -1.07252  -1.05565  -1.02777  -1.02668
 Alpha  occ. eigenvalues --   -1.00946  -0.99878  -0.99444  -0.98609  -0.97617
 Alpha  occ. eigenvalues --   -0.96526  -0.94891  -0.93168  -0.90991  -0.86143
 Alpha  occ. eigenvalues --   -0.84662  -0.84591  -0.84095  -0.83947  -0.82973
 Alpha  occ. eigenvalues --   -0.82361  -0.78918  -0.75345  -0.74630  -0.73755
 Alpha  occ. eigenvalues --   -0.73493  -0.73471  -0.73076  -0.71672  -0.68674
 Alpha  occ. eigenvalues --   -0.67458  -0.66876  -0.66643  -0.65001  -0.64530
 Alpha  occ. eigenvalues --   -0.63795  -0.63283  -0.62730  -0.62482  -0.61805
 Alpha  occ. eigenvalues --   -0.60693  -0.60161  -0.59576  -0.58890  -0.58493
 Alpha  occ. eigenvalues --   -0.58321  -0.57972  -0.57144  -0.56973  -0.56473
 Alpha  occ. eigenvalues --   -0.56124  -0.55784  -0.54490  -0.54447  -0.53981
 Alpha  occ. eigenvalues --   -0.53692  -0.53530  -0.52946  -0.52744  -0.52534
 Alpha  occ. eigenvalues --   -0.52234  -0.52067  -0.51455  -0.51300  -0.50761
 Alpha  occ. eigenvalues --   -0.50234  -0.49625  -0.49591  -0.48984  -0.48721
 Alpha  occ. eigenvalues --   -0.48402  -0.48272  -0.47804  -0.47731  -0.47542
 Alpha  occ. eigenvalues --   -0.47439  -0.45622  -0.45173  -0.43995  -0.43019
 Alpha  occ. eigenvalues --   -0.41804  -0.39638  -0.39212  -0.37810  -0.37360
 Alpha  occ. eigenvalues --   -0.37243  -0.36859  -0.35987  -0.35369  -0.34468
 Alpha  occ. eigenvalues --   -0.34232  -0.34116  -0.33447  -0.32991  -0.32781
 Alpha  occ. eigenvalues --   -0.32529  -0.32307  -0.31964  -0.31847  -0.31606
 Alpha  occ. eigenvalues --   -0.30909  -0.27881  -0.26353  -0.25486
 Alpha virt. eigenvalues --    0.03090   0.05450   0.07336   0.08191   0.08824
 Alpha virt. eigenvalues --    0.09203   0.09641   0.10378   0.10684   0.12243
 Alpha virt. eigenvalues --    0.13053   0.13464   0.14455   0.14769   0.15690
 Alpha virt. eigenvalues --    0.16270   0.16450   0.17092   0.17315   0.18471
 Alpha virt. eigenvalues --    0.19105   0.19338   0.19714   0.19809   0.20652
 Alpha virt. eigenvalues --    0.20738   0.21164   0.21539   0.21768   0.22543
 Alpha virt. eigenvalues --    0.22882   0.23131   0.23228   0.23391   0.23639
 Alpha virt. eigenvalues --    0.23704   0.23882   0.24148   0.24769   0.25259
 Alpha virt. eigenvalues --    0.25923   0.26559   0.26789   0.27502   0.27920
 Alpha virt. eigenvalues --    0.28437   0.29141   0.29771   0.30375   0.30793
 Alpha virt. eigenvalues --    0.31343   0.32052   0.32968   0.33059   0.33925
 Alpha virt. eigenvalues --    0.33950   0.34952   0.35242   0.36059   0.36236
 Alpha virt. eigenvalues --    0.36974   0.37565   0.38285   0.38749   0.40031
 Alpha virt. eigenvalues --    0.40500   0.40778   0.41312   0.41541   0.41903
 Alpha virt. eigenvalues --    0.42382   0.42772   0.42995   0.43592   0.44321
 Alpha virt. eigenvalues --    0.45285   0.45704   0.45923   0.46162   0.46725
 Alpha virt. eigenvalues --    0.46908   0.48232   0.48420   0.49319   0.49644
 Alpha virt. eigenvalues --    0.49971   0.50301   0.50563   0.50711   0.51012
 Alpha virt. eigenvalues --    0.51324   0.51910   0.52336   0.52818   0.53667
 Alpha virt. eigenvalues --    0.53926   0.54054   0.54543   0.54633   0.55014
 Alpha virt. eigenvalues --    0.55603   0.56385   0.56464   0.57280   0.57331
 Alpha virt. eigenvalues --    0.57553   0.58294   0.59059   0.59120   0.59876
 Alpha virt. eigenvalues --    0.60107   0.60669   0.60861   0.60998   0.61453
 Alpha virt. eigenvalues --    0.61562   0.62214   0.62513   0.63086   0.63877
 Alpha virt. eigenvalues --    0.64083   0.64718   0.65159   0.65398   0.65476
 Alpha virt. eigenvalues --    0.65775   0.65952   0.66504   0.66553   0.66902
 Alpha virt. eigenvalues --    0.67925   0.68218   0.68527   0.68788   0.69206
 Alpha virt. eigenvalues --    0.69810   0.70383   0.70873   0.71092   0.71790
 Alpha virt. eigenvalues --    0.72018   0.72201   0.72888   0.73431   0.73696
 Alpha virt. eigenvalues --    0.73814   0.74390   0.74676   0.74912   0.75271
 Alpha virt. eigenvalues --    0.75867   0.76091   0.76413   0.76502   0.76690
 Alpha virt. eigenvalues --    0.77605   0.77667   0.78644   0.78771   0.79143
 Alpha virt. eigenvalues --    0.79699   0.79991   0.80099   0.80692   0.81183
 Alpha virt. eigenvalues --    0.81432   0.81945   0.82552   0.82791   0.83315
 Alpha virt. eigenvalues --    0.83549   0.84114   0.84375   0.85088   0.85201
 Alpha virt. eigenvalues --    0.85964   0.86076   0.86534   0.86816   0.87072
 Alpha virt. eigenvalues --    0.87392   0.87919   0.88765   0.89075   0.89358
 Alpha virt. eigenvalues --    0.90370   0.90717   0.91320   0.91421   0.92008
 Alpha virt. eigenvalues --    0.92219   0.92800   0.93451   0.94114   0.94134
 Alpha virt. eigenvalues --    0.94674   0.95072   0.95618   0.96208   0.96576
 Alpha virt. eigenvalues --    0.97270   0.97431   0.97677   0.98542   0.99106
 Alpha virt. eigenvalues --    0.99304   0.99838   0.99887   1.00778   1.01247
 Alpha virt. eigenvalues --    1.01787   1.02093   1.02230   1.02679   1.03268
 Alpha virt. eigenvalues --    1.03592   1.03992   1.04047   1.04512   1.05535
 Alpha virt. eigenvalues --    1.05703   1.06154   1.06281   1.07697   1.08434
 Alpha virt. eigenvalues --    1.08676   1.09681   1.09914   1.09947   1.10437
 Alpha virt. eigenvalues --    1.11190   1.11936   1.12394   1.12605   1.13486
 Alpha virt. eigenvalues --    1.14073   1.14349   1.14565   1.14833   1.15221
 Alpha virt. eigenvalues --    1.15991   1.16182   1.16635   1.17372   1.17784
 Alpha virt. eigenvalues --    1.18237   1.18742   1.19009   1.19448   1.19897
 Alpha virt. eigenvalues --    1.20292   1.20438   1.20945   1.21510   1.21750
 Alpha virt. eigenvalues --    1.21934   1.22184   1.22501   1.22805   1.23060
 Alpha virt. eigenvalues --    1.23417   1.23892   1.24514   1.24717   1.25190
 Alpha virt. eigenvalues --    1.25300   1.26136   1.26525   1.27847   1.28714
 Alpha virt. eigenvalues --    1.29249   1.29672   1.30419   1.30749   1.31728
 Alpha virt. eigenvalues --    1.32069   1.32558   1.33802   1.34036   1.34093
 Alpha virt. eigenvalues --    1.34677   1.35730   1.36118   1.36536   1.36952
 Alpha virt. eigenvalues --    1.37339   1.38166   1.39056   1.39800   1.40206
 Alpha virt. eigenvalues --    1.41304   1.42050   1.42765   1.43721   1.44287
 Alpha virt. eigenvalues --    1.44547   1.45031   1.46570   1.47759   1.48048
 Alpha virt. eigenvalues --    1.48608   1.49009   1.49500   1.49684   1.51111
 Alpha virt. eigenvalues --    1.51228   1.52800   1.53608   1.53734   1.54192
 Alpha virt. eigenvalues --    1.54727   1.55442   1.55482   1.56515   1.57140
 Alpha virt. eigenvalues --    1.57867   1.59065   1.59724   1.60936   1.61227
 Alpha virt. eigenvalues --    1.61767   1.62069   1.62645   1.63333   1.63957
 Alpha virt. eigenvalues --    1.64429   1.64858   1.65940   1.67000   1.67205
 Alpha virt. eigenvalues --    1.67382   1.67949   1.68246   1.68953   1.69313
 Alpha virt. eigenvalues --    1.69541   1.70215   1.70943   1.71127   1.71833
 Alpha virt. eigenvalues --    1.72012   1.72233   1.72678   1.72960   1.73375
 Alpha virt. eigenvalues --    1.73527   1.74204   1.74837   1.74904   1.75218
 Alpha virt. eigenvalues --    1.75453   1.75866   1.76229   1.77270   1.77273
 Alpha virt. eigenvalues --    1.77651   1.78077   1.78122   1.78269   1.78600
 Alpha virt. eigenvalues --    1.79440   1.79540   1.79934   1.79978   1.80248
 Alpha virt. eigenvalues --    1.80770   1.80969   1.81176   1.81563   1.81779
 Alpha virt. eigenvalues --    1.82625   1.82984   1.83354   1.83524   1.84309
 Alpha virt. eigenvalues --    1.84817   1.85993   1.86775   1.86889   1.87134
 Alpha virt. eigenvalues --    1.87228   1.87803   1.88684   1.89397   1.89654
 Alpha virt. eigenvalues --    1.89850   1.89986   1.90592   1.90715   1.91080
 Alpha virt. eigenvalues --    1.91866   1.92161   1.92558   1.93588   1.93781
 Alpha virt. eigenvalues --    1.94515   1.94631   1.96180   1.96605   1.97256
 Alpha virt. eigenvalues --    1.97936   1.98680   1.98799   2.00225   2.01155
 Alpha virt. eigenvalues --    2.01339   2.01827   2.02356   2.02801   2.03305
 Alpha virt. eigenvalues --    2.04574   2.05864   2.06377   2.06632   2.06983
 Alpha virt. eigenvalues --    2.08046   2.08541   2.08836   2.09392   2.09767
 Alpha virt. eigenvalues --    2.10572   2.10832   2.11215   2.12540   2.12626
 Alpha virt. eigenvalues --    2.13472   2.14121   2.15862   2.16808   2.17197
 Alpha virt. eigenvalues --    2.19194   2.19332   2.20356   2.21072   2.21391
 Alpha virt. eigenvalues --    2.21849   2.22370   2.22927   2.23110   2.23665
 Alpha virt. eigenvalues --    2.24039   2.24640   2.25833   2.26523   2.26835
 Alpha virt. eigenvalues --    2.27222   2.27821   2.28825   2.29225   2.29478
 Alpha virt. eigenvalues --    2.29807   2.30561   2.30757   2.32022   2.32444
 Alpha virt. eigenvalues --    2.33096   2.33410   2.33892   2.34324   2.34352
 Alpha virt. eigenvalues --    2.34571   2.35680   2.36537   2.37251   2.37531
 Alpha virt. eigenvalues --    2.37778   2.38490   2.40416   2.40559   2.41302
 Alpha virt. eigenvalues --    2.41515   2.42128   2.42938   2.43501   2.44357
 Alpha virt. eigenvalues --    2.45231   2.45835   2.46531   2.46712   2.47139
 Alpha virt. eigenvalues --    2.47389   2.48572   2.49154   2.50014   2.51631
 Alpha virt. eigenvalues --    2.52136   2.54344   2.54852   2.55030   2.55567
 Alpha virt. eigenvalues --    2.56797   2.57123   2.57618   2.57792   2.59669
 Alpha virt. eigenvalues --    2.60450   2.60755   2.61882   2.62162   2.63007
 Alpha virt. eigenvalues --    2.64277   2.65091   2.65200   2.65949   2.66626
 Alpha virt. eigenvalues --    2.67093   2.67770   2.68208   2.68572   2.68895
 Alpha virt. eigenvalues --    2.69489   2.70806   2.71082   2.71459   2.72137
 Alpha virt. eigenvalues --    2.73872   2.74138   2.74857   2.75069   2.75812
 Alpha virt. eigenvalues --    2.77618   2.78259   2.78787   2.79360   2.79785
 Alpha virt. eigenvalues --    2.80020   2.80485   2.80532   2.81304   2.81857
 Alpha virt. eigenvalues --    2.82215   2.82570   2.82968   2.83556   2.83614
 Alpha virt. eigenvalues --    2.84796   2.85483   2.86240   2.86585   2.87063
 Alpha virt. eigenvalues --    2.87455   2.87911   2.88996   2.91056   2.92601
 Alpha virt. eigenvalues --    2.94051   2.96316   2.96904   2.97598   2.98898
 Alpha virt. eigenvalues --    2.99955   3.00757   3.01533   3.04481   3.05860
 Alpha virt. eigenvalues --    3.06791   3.09674   3.10930   3.14099   3.14719
 Alpha virt. eigenvalues --    3.15160   3.15801   3.16125   3.17198   3.19642
 Alpha virt. eigenvalues --    3.22967   3.23234   3.23266   3.24007   3.26380
 Alpha virt. eigenvalues --    3.46043   3.46814   3.47832   3.50141   3.51067
 Alpha virt. eigenvalues --    3.52860   3.54570   3.56111   3.57921   3.59857
 Alpha virt. eigenvalues --    3.62451   3.71006   3.74485
          Condensed to atoms (all electrons):
 Mulliken charges:
               1
     1  N   -0.310111
     2  C    0.180556
     3  C    0.035296
     4  N   -0.254278
     5  C    0.128777
     6  H    0.028291
     7  N   -0.282630
     8  C    0.131301
     9  H    0.016411
    10  N   -0.291937
    11  C    0.231997
    12  C    0.101005
    13  N   -0.037408
    14  H    0.108745
    15  H    0.089408
    16  H    0.027891
    17  H    0.035490
    18  H    0.024503
    19  N   -0.305534
    20  C    0.254480
    21  C    0.180529
    22  N   -0.121047
    23  H    0.112270
    24  H    0.118135
    25  N   -0.307129
    26  C    0.244975
    27  N   -0.133648
    28  H    0.117423
    29  C    0.167500
    30  O   -0.324948
    31  C   -0.006313
    32  N   -0.227693
    33  C    0.124426
    34  H    0.029197
    35  H    0.031269
    36  H    0.027569
    37  H    0.022152
    38  H    0.050849
    39  H    0.063607
    40  H    0.074566
    41  H    0.028414
    42  C   -0.078010
    43  O   -0.282572
    44  C    0.174156
    45  H    0.137075
    46  N   -0.128308
    47  O   -0.350414
    48  C    0.348364
    49  H    0.044952
    50  C    0.169719
    51  C    0.039434
    52  N   -0.287474
    53  H    0.031215
    54  H    0.039723
    55  H    0.018087
    56  H    0.118392
    57  H    0.117904
    58  N   -0.030890
    59  C    0.104731
    60  C    0.239891
    61  N   -0.275687
    62  H    0.035272
    63  C    0.159886
    64  N   -0.303091
    65  H    0.025054
    66  C    0.119198
    67  N   -0.252086
    68  C    0.007039
    69  C    0.180948
    70  N   -0.306867
 Sum of Mulliken charges =  -0.00000
 Mulliken charges with hydrogens summed into heavy atoms:
               1
     1  N   -0.310111
     2  C    0.268440
     3  C    0.035296
     4  N   -0.254278
     5  C    0.157068
     7  N   -0.282630
     8  C    0.147712
    10  N   -0.291937
    11  C    0.231997
    12  C    0.101005
    13  N    0.160745
    19  N   -0.305534
    20  C    0.254480
    21  C    0.261519
    22  N    0.109358
    25  N   -0.307129
    26  C    0.244975
    27  N   -0.016225
    29  C    0.167500
    30  O   -0.324948
    31  C   -0.006313
    32  N   -0.227693
    33  C    0.153623
    42  C   -0.049596
    43  O   -0.282572
    44  C    0.174156
    46  N    0.008767
    47  O   -0.350414
    48  C    0.348364
    50  C    0.214671
    51  C    0.228457
    52  N   -0.287474
    58  N    0.205406
    59  C    0.104731
    60  C    0.239891
    61  N   -0.275687
    63  C    0.195158
    64  N   -0.303091
    66  C    0.144252
    67  N   -0.252086
    68  C    0.007039
    69  C    0.269973
    70  N   -0.306867
 Electronic spatial extent (au):  <R**2>=          23734.0108
 Charge=             -0.0000 electrons
 Dipole moment (field-independent basis, Debye):
    X=              5.8069    Y=              5.7761    Z=              3.7098  Tot=              8.9914
 Quadrupole moment (field-independent basis, Debye-Ang):
   XX=           -140.1661   YY=           -226.2713   ZZ=           -253.7220
   XY=              9.9339   XZ=             20.1230   YZ=              1.4110
 Traceless Quadrupole moment (field-independent basis, Debye-Ang):
   XX=             66.5537   YY=            -19.5515   ZZ=            -47.0022
   XY=              9.9339   XZ=             20.1230   YZ=              1.4110
 Octapole moment (field-independent basis, Debye-Ang**2):
  XXX=             -1.1516  YYY=             58.6961  ZZZ=             59.0273  XYY=             17.3178
  XXY=             75.5130  XXZ=            -19.3608  XZZ=             59.5133  YZZ=             46.4098
  YYZ=             16.3341  XYZ=             32.3549
 Hexadecapole moment (field-independent basis, Debye-Ang**3):
 XXXX=         -16361.3752 YYYY=          -4178.7830 ZZZZ=          -3347.5960 XXXY=            429.6829
 XXXZ=            347.6828 YYYX=             11.1112 YYYZ=            135.1835 ZZZX=            242.0328
 ZZZY=             31.8511 XXYY=          -4471.9768 XXZZ=          -4332.3446 YYZZ=          -1371.7791
 XXYZ=             27.6258 YYXZ=             77.2398 ZZXY=            100.6888
 N-N= 5.475959211515D+03 E-N=-1.573306344527D+04  KE= 2.037713556404D+03
 No NMR shielding tensors so no spin-rotation constants.
 Leave Link  601 at Fri Jan 19 21:12:30 2018, MaxMem=  4294967296 cpu:              49.3 elap:               1.7
 (Enter /share/apps/g16/l9999.exe)
 1\1\GINC-COMPUTE-0-3\SP\RwB97XD\CC-pVDZ\C23H27N17O3\SATYA\19-Jan-2018\
 0\\#p wb97xd/cc-pvdz sp scf=(maxcycles=20)\\Base pair stacking\\0,1\N,
 0,5.5709,8.59638,-5.57979\C,0,5.67238,10.02805,-5.92334\C,0,4.89019,6.
 51093,-5.42221\N,0,6.06534,6.59202,-4.68929\C,0,6.42841,7.84519,-4.813
 56\H,0,7.32134,8.27957,-4.3631\N,0,2.92915,5.7015,-6.45278\C,0,2.75391
 ,6.94198,-6.91977\H,0,1.8654,7.08687,-7.53281\N,0,3.50791,8.02526,-6.7
 4401\C,0,4.57276,7.73851,-5.977\C,0,4.01012,5.44518,-5.68409\N,0,4.186
 77,4.20752,-5.217\H,0,4.9728,3.9725,-4.64416\H,0,3.53981,3.47343,-5.42
 362\H,0,6.52436,10.19341,-6.4203\H,0,4.89681,10.28972,-6.49706\H,0,5.6
 6519,10.57516,-5.08631\N,0,1.15048,6.86928,-3.32063\C,0,0.43245,5.7051
 4,-3.45206\C,0,0.64181,8.22392,-3.61539\N,0,-2.51512,4.0667,-4.28216\H
 ,0,-2.85444,3.12679,-4.30821\H,0,-3.15137,4.78665,-4.56068\N,0,-0.8481
 ,5.60401,-3.86919\C,0,-1.26331,4.34992,-3.89145\N,0,-0.48554,3.27563,-
 3.533\H,0,-0.88644,2.35154,-3.58102\C,0,0.83453,3.35622,-3.10081\O,0,1
 .44836,2.32471,-2.80092\C,0,1.29459,4.69726,-3.07166\N,0,2.52902,5.218
 16,-2.70873\C,0,2.39699,6.50663,-2.87192\H,0,3.18026,7.24048,-2.67895\
 H,0,1.19883,8.64233,-4.33196\H,0,-0.306,8.16162,-3.92529\H,0,0.68511,8
 .78505,-2.78951\H,0,-3.25386,-2.01906,-4.65148\H,0,-3.58407,-2.02329,-
 2.9207\H,0,-3.46047,-0.49361,-3.79028\H,0,0.99569,-3.49695,-2.94742\C,
 0,0.42536,-2.57413,-3.05399\O,0,2.29557,-1.16005,-2.69372\C,0,1.09657,
 -1.3171,-2.92286\H,0,0.72133,0.69364,-2.98955\N,0,0.28296,-0.21255,-3.
 07539\O,0,-1.70164,0.8253,-3.4515\C,0,-1.06514,-0.20688,-3.33258\H,0,-
 1.446,-3.53052,-3.41335\C,0,-0.88879,-2.60096,-3.30478\C,0,-3.07918,-1
 .50148,-3.72\N,0,-1.6403,-1.45736,-3.44537\H,0,-2.43541,0.28099,-8.579
 25\H,0,-2.37307,1.66481,-7.71714\H,0,-3.12882,0.35461,-7.10372\H,0,3.8
 9294,0.57761,-4.71538\H,0,3.06984,-0.88336,-5.02869\N,0,3.0813,0.11616
 ,-5.07378\C,0,2.05913,0.80226,-5.58915\C,0,-0.07804,1.04552,-6.60653\N
 ,0,-0.03515,2.38728,-6.65413\H,0,1.22515,3.91916,-6.13878\C,0,1.10774,
 2.83635,-6.13931\N,0,2.13274,2.15079,-5.62264\H,0,-1.29685,-1.91882,-7
 .03002\C,0,-0.67723,-1.05651,-6.78217\N,0,0.50579,-1.12519,-6.22233\C,
 0,0.89696,0.20072,-6.10533\C,0,-2.35863,0.66699,-7.65996\N,0,-1.09267,
 0.22663,-7.04235\\Version=EM64L-G16RevA.03\State=1-A\HF=-2048.7498727\
 RMSD=6.111e-09\Dipole=-3.3408728,-0.7871978,-0.8560332\Quadrupole=10.0
 892487,26.0583371,-36.1475858,33.3752801,0.6572844,7.8618312\PG=C01 [X
 (C23H27N17O3)]\\@


 LOGIC IS A SYSTEMATIC METHOD OF COMING TO THE
 WRONG CONCLUSION WITH CONFIDENCE.
 Job cpu time:       0 days  5 hours 54 minutes 16.3 seconds.
 Elapsed time:       0 days  0 hours 11 minutes 26.4 seconds.
 File lengths (MBytes):  RWF=    298 Int=      0 D2E=      0 Chk=     33 Scr=      1
 Normal termination of Gaussian 16 at Fri Jan 19 21:12:30 2018.
