 Entering Gaussian System, Link 0=g16
 Input=str20.5.-2.5.com
 Output=str20.5.-2.5.log
 Initial command:
 /share/apps/g16/l1.exe "/state/partition1/scr/Gau-21721.inp" -scrdir="/state/partition1/scr/"
 Entering Link 1 = /share/apps/g16/l1.exe PID=     21722.
  
 Copyright (c) 1988,1990,1992,1993,1995,1998,2003,2009,2016,
            Gaussian, Inc.  All Rights Reserved.
  
 This is part of the Gaussian(R) 16 program.  It is based on
 the Gaussian(R) 09 system (copyright 2009, Gaussian, Inc.),
 the Gaussian(R) 03 system (copyright 2003, Gaussian, Inc.),
 the Gaussian(R) 98 system (copyright 1998, Gaussian, Inc.),
 the Gaussian(R) 94 system (copyright 1995, Gaussian, Inc.),
 the Gaussian 92(TM) system (copyright 1992, Gaussian, Inc.),
 the Gaussian 90(TM) system (copyright 1990, Gaussian, Inc.),
 the Gaussian 88(TM) system (copyright 1988, Gaussian, Inc.),
 the Gaussian 86(TM) system (copyright 1986, Carnegie Mellon
 University), and the Gaussian 82(TM) system (copyright 1983,
 Carnegie Mellon University). Gaussian is a federally registered
 trademark of Gaussian, Inc.
  
 This software contains proprietary and confidential information,
 including trade secrets, belonging to Gaussian, Inc.
  
 This software is provided under written license and may be
 used, copied, transmitted, or stored only in accord with that
 written license.
  
 The following legend is applicable only to US Government
 contracts under FAR:
  
                    RESTRICTED RIGHTS LEGEND
  
 Use, reproduction and disclosure by the US Government is
 subject to restrictions as set forth in subparagraphs (a)
 and (c) of the Commercial Computer Software - Restricted
 Rights clause in FAR 52.227-19.
  
 Gaussian, Inc.
 340 Quinnipiac St., Bldg. 40, Wallingford CT 06492
  
  
 ---------------------------------------------------------------
 Warning -- This program may not be used in any manner that
 competes with the business of Gaussian, Inc. or will provide
 assistance to any competitor of Gaussian, Inc.  The licensee
 of this program is prohibited from giving any competitor of
 Gaussian, Inc. access to this program.  By using this program,
 the user acknowledges that Gaussian, Inc. is engaged in the
 business of creating and licensing software in the field of
 computational chemistry and represents and warrants to the
 licensee that it is not a competitor of Gaussian, Inc. and that
 it will not use this program in any manner prohibited above.
 ---------------------------------------------------------------
  

 Cite this work as:
 Gaussian 16, Revision A.03,
 M. J. Frisch, G. W. Trucks, H. B. Schlegel, G. E. Scuseria, 
 M. A. Robb, J. R. Cheeseman, G. Scalmani, V. Barone, 
 G. A. Petersson, H. Nakatsuji, X. Li, M. Caricato, A. V. Marenich, 
 J. Bloino, B. G. Janesko, R. Gomperts, B. Mennucci, H. P. Hratchian, 
 J. V. Ortiz, A. F. Izmaylov, J. L. Sonnenberg, D. Williams-Young, 
 F. Ding, F. Lipparini, F. Egidi, J. Goings, B. Peng, A. Petrone, 
 T. Henderson, D. Ranasinghe, V. G. Zakrzewski, J. Gao, N. Rega, 
 G. Zheng, W. Liang, M. Hada, M. Ehara, K. Toyota, R. Fukuda, 
 J. Hasegawa, M. Ishida, T. Nakajima, Y. Honda, O. Kitao, H. Nakai, 
 T. Vreven, K. Throssell, J. A. Montgomery, Jr., J. E. Peralta, 
 F. Ogliaro, M. J. Bearpark, J. J. Heyd, E. N. Brothers, K. N. Kudin, 
 V. N. Staroverov, T. A. Keith, R. Kobayashi, J. Normand, 
 K. Raghavachari, A. P. Rendell, J. C. Burant, S. S. Iyengar, 
 J. Tomasi, M. Cossi, J. M. Millam, M. Klene, C. Adamo, R. Cammi, 
 J. W. Ochterski, R. L. Martin, K. Morokuma, O. Farkas, 
 J. B. Foresman, and D. J. Fox, Gaussian, Inc., Wallingford CT, 2016.
 
 ******************************************
 Gaussian 16:  EM64L-G16RevA.03 25-Dec-2016
                20-Jan-2018 
 ******************************************
 %nprocshared=32
 Will use up to   32 processors via shared memory.
 %mem=32GB
 %chk=allatoms_t.chk
 ---------------------------------------
 #p wb97xd/cc-pvdz sp scf=(maxcycles=20)
 ---------------------------------------
 1/38=1,172=1/1;
 2/12=2,17=6,18=5,40=1/2;
 3/5=16,11=2,25=1,30=1,74=-58/1,2,3;
 4//1;
 5/5=2,7=20,38=5/2;
 6/7=2,8=2,9=2,10=2,28=1/1;
 99/5=1,9=1/99;
 Leave Link    1 at Sat Jan 20 06:42:44 2018, MaxMem=  4294967296 cpu:               2.7 elap:               0.1
 (Enter /share/apps/g16/l101.exe)
 ------------------
 Base pair stacking
 ------------------
 Symbolic Z-matrix:
 Charge =  0 Multiplicity = 1
 N                     4.85652   9.76135  -6.21585 
 C                     4.85013   11.22477  -6.40649 
 C                     4.25231   7.65002  -6.09527 
 N                     5.59832   7.68817  -5.76129 
 C                     5.90846   8.95864  -5.84731 
 H                     6.89914   9.36967  -5.65095 
 N                     2.06417   6.89546  -6.54876 
 C                     1.75565   8.17353  -6.79152 
 H                     0.7202    8.35602  -7.07581 
 N                     2.5305    9.25494  -6.73611 
 C                     3.78118   8.92031  -6.37798 
 C                     3.33079   6.59141  -6.19056 
 N                     3.64071   5.31618  -5.94781 
 H                     4.56592   5.04524  -5.67986 
 H                     2.95902   4.58857  -6.02547 
 H                     5.50383   11.47195  -7.12187 
 H                     3.93468   11.52262  -6.67546 
 H                     5.10775   11.67547  -5.55179 
 N                     0.92288   7.38298  -3.28701 
 C                     0.19286   6.21968  -3.33012 
 C                     0.37187   8.74319  -3.45104 
 N                    -2.85272   4.59185  -3.69942 
 H                    -3.19165   3.65145  -3.69592 
 H                    -3.52679   5.31655  -3.8449 
 N                    -1.13975   6.12455  -3.52797 
 C                    -1.55288   4.86963  -3.51731 
 N                    -0.72586   3.7891   -3.32758 
 H                    -1.1292    2.86485  -3.33485 
 C                     0.64824   3.86345  -3.12218 
 O                     1.3038    2.8266   -2.96118 
 C                     1.10675   5.2053   -3.13101 
 N                     2.3848    5.72138  -2.96622 
 C                     2.22723   7.01343  -3.06618 
 H                     3.0319    7.74514  -2.98633 
 H                     0.79994   9.1853   -4.23851 
 H                    -0.61466   8.68536  -3.59825 
 H                     0.55406   9.27992  -2.62791 
 H                    -3.6438   -1.48395  -4.12058 
 H                    -3.67702  -1.54085  -2.35982 
 H                    -3.70188   0.0144   -3.19164 
 H                     0.83232  -2.99038  -3.20321 
 C                     0.25228  -2.06766  -3.18433 
 O                     2.15661  -0.65557  -3.10278 
 C                     0.93611  -0.81173  -3.13085 
 H                     0.5552    1.19822  -3.07308 
 N                     0.10854   0.29279  -3.11077 
 O                    -1.91096   1.33144  -3.1153 
 C                    -1.26363   0.29936  -3.13644 
 H                    -1.65298  -3.0223   -3.25113 
 C                    -1.08535  -2.0936   -3.21041 
 C                    -3.31429  -0.99321  -3.21689 
 N                    -1.8497   -0.95008  -3.18787 
 H                    -3.71555   1.5699   -7.50555 
 H                    -3.38112   2.85126  -6.55246 
 H                    -3.91092   1.45716  -5.88921 
 H                     3.50635   1.64538  -5.80147 
 H                     2.62142   0.20174  -6.00859 
 N                     2.62165   1.19997  -5.93948 
 C                     1.49182   1.90487  -6.02758 
 C                    -0.85574   2.18874  -6.29235 
 N                    -0.82526   3.52822  -6.19596 
 H                     0.53843   5.03433  -5.92652 
 C                     0.42299   3.95494  -6.0152 
 N                     1.55593   3.25052  -5.92669 
 H                    -2.15623  -0.74907  -6.65321 
 C                    -1.48713   0.10046  -6.51336 
 N                    -0.18845   0.00923  -6.36234 
 C                     0.2243    1.32621  -6.22119 
 C                    -3.35296   1.85424  -6.61804 
 N                    -1.95872   1.39014  -6.48124 
 
 ITRead=  0  0  0  0  0  0  0  0  0  0  0  0  0  0  0  0  0  0  0  0
 ITRead=  0  0  0  0  0  0  0  0  0  0  0  0  0  0  0  0  0  0  0  0
 ITRead=  0  0  0  0  0  0  0  0  0  0  0  0  0  0  0  0  0  0  0  0
 ITRead=  0  0  0  0  0  0  0  0  0  0
 MicOpt= -1 -1 -1 -1 -1 -1 -1 -1 -1 -1 -1 -1 -1 -1 -1 -1 -1 -1 -1 -1
 MicOpt= -1 -1 -1 -1 -1 -1 -1 -1 -1 -1 -1 -1 -1 -1 -1 -1 -1 -1 -1 -1
 MicOpt= -1 -1 -1 -1 -1 -1 -1 -1 -1 -1 -1 -1 -1 -1 -1 -1 -1 -1 -1 -1
 MicOpt= -1 -1 -1 -1 -1 -1 -1 -1 -1 -1
 NAtoms=     70 NQM=       70 NQMF=       0 NMMI=      0 NMMIF=      0
                NMic=       0 NMicF=      0.
                    Isotopes and Nuclear Properties:
 (Nuclear quadrupole moments (NQMom) in fm**2, nuclear magnetic moments (NMagM)
  in nuclear magnetons)

  Atom         1           2           3           4           5           6           7           8           9          10
 IAtWgt=          14          12          12          14          12           1          14          12           1          14
 AtmWgt=  14.0030740  12.0000000  12.0000000  14.0030740  12.0000000   1.0078250  14.0030740  12.0000000   1.0078250  14.0030740
 NucSpn=           2           0           0           2           0           1           2           0           1           2
 AtZEff=  -0.0000000  -0.0000000  -0.0000000  -0.0000000  -0.0000000  -0.0000000  -0.0000000  -0.0000000  -0.0000000  -0.0000000
 NQMom=    2.0440000   0.0000000   0.0000000   2.0440000   0.0000000   0.0000000   2.0440000   0.0000000   0.0000000   2.0440000
 NMagM=    0.4037610   0.0000000   0.0000000   0.4037610   0.0000000   2.7928460   0.4037610   0.0000000   2.7928460   0.4037610
 AtZNuc=   7.0000000   6.0000000   6.0000000   7.0000000   6.0000000   1.0000000   7.0000000   6.0000000   1.0000000   7.0000000

  Atom        11          12          13          14          15          16          17          18          19          20
 IAtWgt=          12          12          14           1           1           1           1           1          14          12
 AtmWgt=  12.0000000  12.0000000  14.0030740   1.0078250   1.0078250   1.0078250   1.0078250   1.0078250  14.0030740  12.0000000
 NucSpn=           0           0           2           1           1           1           1           1           2           0
 AtZEff=  -0.0000000  -0.0000000  -0.0000000  -0.0000000  -0.0000000  -0.0000000  -0.0000000  -0.0000000  -0.0000000  -0.0000000
 NQMom=    0.0000000   0.0000000   2.0440000   0.0000000   0.0000000   0.0000000   0.0000000   0.0000000   2.0440000   0.0000000
 NMagM=    0.0000000   0.0000000   0.4037610   2.7928460   2.7928460   2.7928460   2.7928460   2.7928460   0.4037610   0.0000000
 AtZNuc=   6.0000000   6.0000000   7.0000000   1.0000000   1.0000000   1.0000000   1.0000000   1.0000000   7.0000000   6.0000000

  Atom        21          22          23          24          25          26          27          28          29          30
 IAtWgt=          12          14           1           1          14          12          14           1          12          16
 AtmWgt=  12.0000000  14.0030740   1.0078250   1.0078250  14.0030740  12.0000000  14.0030740   1.0078250  12.0000000  15.9949146
 NucSpn=           0           2           1           1           2           0           2           1           0           0
 AtZEff=  -0.0000000  -0.0000000  -0.0000000  -0.0000000  -0.0000000  -0.0000000  -0.0000000  -0.0000000  -0.0000000  -0.0000000
 NQMom=    0.0000000   2.0440000   0.0000000   0.0000000   2.0440000   0.0000000   2.0440000   0.0000000   0.0000000   0.0000000
 NMagM=    0.0000000   0.4037610   2.7928460   2.7928460   0.4037610   0.0000000   0.4037610   2.7928460   0.0000000   0.0000000
 AtZNuc=   6.0000000   7.0000000   1.0000000   1.0000000   7.0000000   6.0000000   7.0000000   1.0000000   6.0000000   8.0000000

  Atom        31          32          33          34          35          36          37          38          39          40
 IAtWgt=          12          14          12           1           1           1           1           1           1           1
 AtmWgt=  12.0000000  14.0030740  12.0000000   1.0078250   1.0078250   1.0078250   1.0078250   1.0078250   1.0078250   1.0078250
 NucSpn=           0           2           0           1           1           1           1           1           1           1
 AtZEff=  -0.0000000  -0.0000000  -0.0000000  -0.0000000  -0.0000000  -0.0000000  -0.0000000  -0.0000000  -0.0000000  -0.0000000
 NQMom=    0.0000000   2.0440000   0.0000000   0.0000000   0.0000000   0.0000000   0.0000000   0.0000000   0.0000000   0.0000000
 NMagM=    0.0000000   0.4037610   0.0000000   2.7928460   2.7928460   2.7928460   2.7928460   2.7928460   2.7928460   2.7928460
 AtZNuc=   6.0000000   7.0000000   6.0000000   1.0000000   1.0000000   1.0000000   1.0000000   1.0000000   1.0000000   1.0000000

  Atom        41          42          43          44          45          46          47          48          49          50
 IAtWgt=           1          12          16          12           1          14          16          12           1          12
 AtmWgt=   1.0078250  12.0000000  15.9949146  12.0000000   1.0078250  14.0030740  15.9949146  12.0000000   1.0078250  12.0000000
 NucSpn=           1           0           0           0           1           2           0           0           1           0
 AtZEff=  -0.0000000  -0.0000000  -0.0000000  -0.0000000  -0.0000000  -0.0000000  -0.0000000  -0.0000000  -0.0000000  -0.0000000
 NQMom=    0.0000000   0.0000000   0.0000000   0.0000000   0.0000000   2.0440000   0.0000000   0.0000000   0.0000000   0.0000000
 NMagM=    2.7928460   0.0000000   0.0000000   0.0000000   2.7928460   0.4037610   0.0000000   0.0000000   2.7928460   0.0000000
 AtZNuc=   1.0000000   6.0000000   8.0000000   6.0000000   1.0000000   7.0000000   8.0000000   6.0000000   1.0000000   6.0000000

  Atom        51          52          53          54          55          56          57          58          59          60
 IAtWgt=          12          14           1           1           1           1           1          14          12          12
 AtmWgt=  12.0000000  14.0030740   1.0078250   1.0078250   1.0078250   1.0078250   1.0078250  14.0030740  12.0000000  12.0000000
 NucSpn=           0           2           1           1           1           1           1           2           0           0
 AtZEff=  -0.0000000  -0.0000000  -0.0000000  -0.0000000  -0.0000000  -0.0000000  -0.0000000  -0.0000000  -0.0000000  -0.0000000
 NQMom=    0.0000000   2.0440000   0.0000000   0.0000000   0.0000000   0.0000000   0.0000000   2.0440000   0.0000000   0.0000000
 NMagM=    0.0000000   0.4037610   2.7928460   2.7928460   2.7928460   2.7928460   2.7928460   0.4037610   0.0000000   0.0000000
 AtZNuc=   6.0000000   7.0000000   1.0000000   1.0000000   1.0000000   1.0000000   1.0000000   7.0000000   6.0000000   6.0000000

  Atom        61          62          63          64          65          66          67          68          69          70
 IAtWgt=          14           1          12          14           1          12          14          12          12          14
 AtmWgt=  14.0030740   1.0078250  12.0000000  14.0030740   1.0078250  12.0000000  14.0030740  12.0000000  12.0000000  14.0030740
 NucSpn=           2           1           0           2           1           0           2           0           0           2
 AtZEff=  -0.0000000  -0.0000000  -0.0000000  -0.0000000  -0.0000000  -0.0000000  -0.0000000  -0.0000000  -0.0000000  -0.0000000
 NQMom=    2.0440000   0.0000000   0.0000000   2.0440000   0.0000000   0.0000000   2.0440000   0.0000000   0.0000000   2.0440000
 NMagM=    0.4037610   2.7928460   0.0000000   0.4037610   2.7928460   0.0000000   0.4037610   0.0000000   0.0000000   0.4037610
 AtZNuc=   7.0000000   1.0000000   6.0000000   7.0000000   1.0000000   6.0000000   7.0000000   6.0000000   6.0000000   7.0000000
 Leave Link  101 at Sat Jan 20 06:42:45 2018, MaxMem=  4294967296 cpu:               6.7 elap:               0.2
 (Enter /share/apps/g16/l202.exe)
 Stoichiometry    C23H27N17O3
 Framework group  C1[X(C23H27N17O3)]
 Deg. of freedom   204
 Full point group                 C1      NOp   1
 Largest Abelian subgroup         C1      NOp   1
 Largest concise Abelian subgroup C1      NOp   1
                         Standard orientation:                         
 ---------------------------------------------------------------------
 Center     Atomic      Atomic             Coordinates (Angstroms)
 Number     Number       Type             X           Y           Z
 ---------------------------------------------------------------------
      1          7           0       -7.146678   -0.874897    0.163000
      2          6           0       -8.444830   -0.194039    0.333934
      3          6           0       -5.008583   -1.384379    0.242373
      4          7           0       -5.624421   -2.404233   -0.468530
      5          6           0       -6.887895   -2.056471   -0.487888
      6          1           0       -7.681584   -2.630214   -0.967292
      7          7           0       -3.391811   -0.046332    1.318778
      8          6           0       -4.394572    0.781792    1.629034
      9          1           0       -4.109139    1.664183    2.200170
     10          7           0       -5.690890    0.684042    1.341083
     11          6           0       -5.934129   -0.434515    0.638161
     12          6           0       -3.669124   -1.163049    0.610880
     13          7           0       -2.669492   -1.990940    0.300201
     14          1           0       -2.828637   -2.829216   -0.222471
     15          1           0       -1.727963   -1.801582    0.579157
     16          1           0       -9.075298   -0.794272    0.826296
     17          1           0       -8.313826    0.649142    0.854501
     18          1           0       -8.828738    0.026111   -0.562816
     19          7           0       -2.786074    1.955301   -1.475104
     20          6           0       -1.437786    1.978299   -1.211198
     21          6           0       -3.734297    3.045610   -1.170490
     22          7           0        1.354277    3.620387    0.041678
     23          1           0        2.331850    3.439168    0.145350
     24          1           0        1.019278    4.503933    0.370080
     25          7           0       -0.758145    2.992638   -0.633923
     26          6           0        0.528868    2.719668   -0.512682
     27          7           0        1.107981    1.543893   -0.924612
     28          1           0        2.100182    1.421649   -0.792072
     29          6           0        0.428031    0.486590   -1.520974
     30          8           0        1.045477   -0.531866   -1.856006
     31          6           0       -0.955631    0.765140   -1.657940
     32          7           0       -1.980595   -0.004013   -2.191569
     33          6           0       -3.044940    0.740685   -2.061925
     34          1           0       -4.047548    0.451418   -2.378737
     35          1           0       -4.439005    2.711780   -0.545383
     36          1           0       -3.242221    3.802561   -0.742538
     37          1           0       -4.162292    3.363271   -2.015904
     38          1           0        6.945295    1.173856    0.729812
     39          1           0        7.276402    1.610576   -0.944780
     40          1           0        5.810230    2.192998   -0.155813
     41          1           0        6.288198   -3.072398   -1.434465
     42          6           0        5.761635   -2.128588   -1.292447
     43          8           0        3.650484   -2.997691   -1.936515
     44          6           0        4.356104   -2.064767   -1.553701
     45          1           0        2.796470   -0.740192   -1.516644
     46          7           0        3.788090   -0.824594   -1.342585
     47          8           0        3.834277    1.370155   -0.761087
     48          6           0        4.423930    0.315693   -0.919493
     49          1           0        7.477726   -1.029089   -0.666389
     50          6           0        6.409432   -1.033244   -0.878699
     51          6           0        6.500160    1.366042   -0.235060
     52          7           0        5.778144    0.174124   -0.688656
     53          1           0        3.812513    1.901720    3.961695
     54          1           0        2.685131    2.492600    2.940922
     55          1           0        4.246622    2.410120    2.472899
     56          1           0        0.607357   -3.655855    0.232653
     57          1           0        2.247470   -3.682967    0.701042
     58          7           0        1.389902   -3.172921    0.625753
     59          6           0        1.295164   -1.905130    1.031822
     60          6           0        2.112581    0.125551    1.964500
     61          7           0        0.948209    0.785725    1.851212
     62          1           0       -0.961998    0.460221    1.183552
     63          6           0        0.017369    0.001230    1.311773
     64          7           0        0.110288   -1.268814    0.904403
     65          1           0        5.224028   -0.331500    2.714320
     66          6           0        4.191814   -0.434704    2.378405
     67          7           0        3.683086   -1.524449    1.857492
     68          6           0        2.365230   -1.182818    1.590539
     69          6           0        3.528827    1.960371    3.004576
     70          7           0        3.297190    0.603285    2.472908
 ---------------------------------------------------------------------
 Rotational constants (GHZ):           0.1769708           0.0473381           0.0449175
 Leave Link  202 at Sat Jan 20 06:42:45 2018, MaxMem=  4294967296 cpu:               0.3 elap:               0.0
 (Enter /share/apps/g16/l301.exe)
 Standard basis: CC-pVDZ (5D, 7F)
 Ernie: Thresh=  0.10000D-02 Tol=  0.10000D-05 Strict=F.
 Ernie:  86 primitive shells out of 1081 were deleted.
 There are   780 symmetry adapted cartesian basis functions of A   symmetry.
 There are   737 symmetry adapted basis functions of A   symmetry.
   737 basis functions,  1608 primitive gaussians,   780 cartesian basis functions
   154 alpha electrons      154 beta electrons
       nuclear repulsion energy      5477.6297517911 Hartrees.
 IExCor= 4639 DFT=T Ex+Corr=wB97XD ExCW=0 ScaHFX=  1.000000
 ScaDFX=  1.000000  1.000000  1.000000  1.000000 ScalE2=  1.000000  1.000000
 IRadAn=      5 IRanWt=     -1 IRanGd=            0 ICorTp=0 IEmpDi=121
 HFx  wShort=  0.000000 wLong=  0.200000 cFull=  0.222036 cShort=  0.000000 cLong=  0.777964
 DFx  wShort=  0.000000 wLong=  0.200000 cFull=  0.000000 cShort=  0.000000 cLong=  1.000000
 NAtoms=   70 NActive=   70 NUniq=   70 SFac= 1.00D+00 NAtFMM=   60 NAOKFM=T Big=T
 Integral buffers will be    131072 words long.
 Raffenetti 2 integral format.
 Two-electron integral symmetry is turned on.
 R6Disp:  Grimme-D2 Dispersion energy=       -0.0717637292 Hartrees.
 Nuclear repulsion after empirical dispersion term =     5477.5579880619 Hartrees.
 Leave Link  301 at Sat Jan 20 06:42:45 2018, MaxMem=  4294967296 cpu:               2.1 elap:               0.1
 (Enter /share/apps/g16/l302.exe)
 NPDir=0 NMtPBC=     1 NCelOv=     1 NCel=       1 NClECP=     1 NCelD=      1
         NCelK=      1 NCelE2=     1 NClLst=     1 CellRange=     0.0.
 One-electron integrals computed using PRISM.
 One-electron integral symmetry used in STVInt
 NBasis=   737 RedAO= T EigKep=  7.07D-04  NBF=   737
 NBsUse=   737 1.00D-06 EigRej= -1.00D+00 NBFU=   737
 Precomputing XC quadrature grid using
 IXCGrd= 4 IRadAn=           5 IRanWt=          -1 IRanGd=           0 AccXCQ= 0.00D+00.
 Generated NRdTot=       0 NPtTot=           0 NUsed=           0 NTot=          32
 NSgBfM=   751   751   751   751   751 MxSgAt=    70 MxSgA2=    70.
 Leave Link  302 at Sat Jan 20 06:42:49 2018, MaxMem=  4294967296 cpu:             134.2 elap:               4.2
 (Enter /share/apps/g16/l303.exe)
 DipDrv:  MaxL=1.
 Leave Link  303 at Sat Jan 20 06:42:50 2018, MaxMem=  4294967296 cpu:              12.3 elap:               0.4
 (Enter /share/apps/g16/l401.exe)
 ExpMin= 1.22D-01 ExpMax= 1.17D+04 ExpMxC= 4.01D+02 IAcc=3 IRadAn=         5 AccDes= 0.00D+00
 Harris functional with IExCor= 4639 and IRadAn=       5 diagonalized for initial guess.
 HarFok:  IExCor= 4639 AccDes= 0.00D+00 IRadAn=         5 IDoV= 1 UseB2=F ITyADJ=14
 ICtDFT=  3500011 ScaDFX=  1.000000  1.000000  1.000000  1.000000
 FoFCou: FMM=F IPFlag=           0 FMFlag=      100000 FMFlg1=        2001
         NFxFlg=           0 DoJE=T BraDBF=F KetDBF=T FulRan=T
         wScrn=  0.000000 ICntrl=       500 IOpCl=  0 I1Cent=   200000004 NGrid=           0
         NMat0=    1 NMatS0=      1 NMatT0=    0 NMatD0=    1 NMtDS0=    0 NMtDT0=    0
 Petite list used in FoFCou.
 Harris En= -1963.88555105044    
 JPrj=0 DoOrth=F DoCkMO=F.
 Leave Link  401 at Sat Jan 20 06:43:04 2018, MaxMem=  4294967296 cpu:             457.7 elap:              14.9
 (Enter /share/apps/g16/l502.exe)
 Integral symmetry usage will be decided dynamically.
 Closed shell SCF:
 Using DIIS extrapolation, IDIIS=  1040.
 NGot=  4294967296 LenX=  4293717438 LenY=  4293108258
 Requested convergence on RMS density matrix=1.00D-08 within  20 cycles.
 Requested convergence on MAX density matrix=1.00D-06.
 Requested convergence on             energy=1.00D-06.
 No special actions if energy rises.
 Fock matrices will be formed incrementally for  20 cycles.
 Integral accuracy reduced to 1.0D-05 until final iterations.

 Cycle   1  Pass 0  IDiag  1:
 FoFJK:  IHMeth= 1 ICntrl=       0 DoSepK=T KAlg= 0 I1Cent=           0 FoldK=F
 IRaf=         1 NMat=       1 IRICut=       1 DoRegI=T DoRafI=F ISym2E= 0 IDoP0=0 IntGTp=1.
 FoFCou: FMM=T IPFlag=           0 FMFlag=      100000 FMFlg1=        2001
         NFxFlg=           0 DoJE=T BraDBF=F KetDBF=F FulRan=T
         wScrn=  0.000000 ICntrl=       500 IOpCl=  0 I1Cent=           0 NGrid=           0
         NMat0=    1 NMatS0=      1 NMatT0=    0 NMatD0=    1 NMtDS0=    0 NMtDT0=    0
 Symmetry not used in FoFCou.
 FMM levels:  10  Number of levels for PrismC:   9
 E= -2048.31522395264    
 DIIS: error= 2.23D-02 at cycle   1 NSaved=   1.
 NSaved= 1 IEnMin= 1 EnMin= -2048.31522395264     IErMin= 1 ErrMin= 2.23D-02
 ErrMax= 2.23D-02  0.00D+00 EMaxC= 1.00D-01 BMatC= 8.34D-01 BMatP= 8.34D-01
 IDIUse=3 WtCom= 7.77D-01 WtEn= 2.23D-01
 Coeff-Com:  0.100D+01
 Coeff-En:   0.100D+01
 Coeff:      0.100D+01
 Gap=     0.253 Goal=   None    Shift=    0.000
 GapD=    0.253 DampG=1.000 DampE=0.500 DampFc=0.5000 IDamp=-1.
 Damping current iteration by 5.00D-01
 RMSDP=1.59D-03 MaxDP=1.29D-01              OVMax= 2.10D-01

 Cycle   2  Pass 0  IDiag  1:
 RMSU=  7.92D-04    CP:  9.98D-01
 E= -2048.51173382354     Delta-E=       -0.196509870892 Rises=F Damp=T
 DIIS: error= 1.22D-02 at cycle   2 NSaved=   2.
 NSaved= 2 IEnMin= 2 EnMin= -2048.51173382354     IErMin= 2 ErrMin= 1.22D-02
 ErrMax= 1.22D-02  0.00D+00 EMaxC= 1.00D-01 BMatC= 1.45D-01 BMatP= 8.34D-01
 IDIUse=3 WtCom= 8.78D-01 WtEn= 1.22D-01
 Coeff-Com: -0.190D+00 0.119D+01
 Coeff-En:   0.000D+00 0.100D+01
 Coeff:     -0.167D+00 0.117D+01
 Gap=     0.368 Goal=   None    Shift=    0.000
 RMSDP=5.96D-04 MaxDP=3.42D-02 DE=-1.97D-01 OVMax= 1.57D-01

 Cycle   3  Pass 0  IDiag  1:
 RMSU=  5.87D-04    CP:  9.94D-01  1.12D+00
 E= -2048.69096569310     Delta-E=       -0.179231869565 Rises=F Damp=F
 DIIS: error= 6.54D-03 at cycle   3 NSaved=   3.
 NSaved= 3 IEnMin= 3 EnMin= -2048.69096569310     IErMin= 3 ErrMin= 6.54D-03
 ErrMax= 6.54D-03  0.00D+00 EMaxC= 1.00D-01 BMatC= 6.53D-02 BMatP= 1.45D-01
 IDIUse=3 WtCom= 9.35D-01 WtEn= 6.54D-02
 Coeff-Com: -0.232D+00 0.551D+00 0.680D+00
 Coeff-En:   0.000D+00 0.000D+00 0.100D+01
 Coeff:     -0.217D+00 0.515D+00 0.701D+00
 Gap=     0.280 Goal=   None    Shift=    0.000
 RMSDP=3.65D-04 MaxDP=3.18D-02 DE=-1.79D-01 OVMax= 6.85D-02

 Cycle   4  Pass 0  IDiag  1:
 RMSU=  2.06D-04    CP:  9.94D-01  1.40D+00  6.65D-01
 E= -2048.74132090898     Delta-E=       -0.050355215877 Rises=F Damp=F
 DIIS: error= 2.71D-03 at cycle   4 NSaved=   4.
 NSaved= 4 IEnMin= 4 EnMin= -2048.74132090898     IErMin= 4 ErrMin= 2.71D-03
 ErrMax= 2.71D-03  0.00D+00 EMaxC= 1.00D-01 BMatC= 8.92D-03 BMatP= 6.53D-02
 IDIUse=3 WtCom= 9.73D-01 WtEn= 2.71D-02
 Coeff-Com: -0.968D-01 0.188D+00 0.374D+00 0.536D+00
 Coeff-En:   0.000D+00 0.000D+00 0.549D-01 0.945D+00
 Coeff:     -0.942D-01 0.183D+00 0.365D+00 0.547D+00
 Gap=     0.286 Goal=   None    Shift=    0.000
 RMSDP=1.28D-04 MaxDP=1.14D-02 DE=-5.04D-02 OVMax= 1.52D-02

 Cycle   5  Pass 0  IDiag  1:
 RMSU=  6.10D-05    CP:  9.94D-01  1.38D+00  7.98D-01  6.21D-01
 E= -2048.74880123118     Delta-E=       -0.007480322202 Rises=F Damp=F
 DIIS: error= 6.06D-04 at cycle   5 NSaved=   5.
 NSaved= 5 IEnMin= 5 EnMin= -2048.74880123118     IErMin= 5 ErrMin= 6.06D-04
 ErrMax= 6.06D-04  0.00D+00 EMaxC= 1.00D-01 BMatC= 2.91D-04 BMatP= 8.92D-03
 IDIUse=3 WtCom= 9.94D-01 WtEn= 6.06D-03
 Coeff-Com: -0.250D-01 0.428D-01 0.118D+00 0.239D+00 0.625D+00
 Coeff-En:   0.000D+00 0.000D+00 0.000D+00 0.000D+00 0.100D+01
 Coeff:     -0.248D-01 0.425D-01 0.118D+00 0.238D+00 0.627D+00
 Gap=     0.286 Goal=   None    Shift=    0.000
 RMSDP=2.68D-05 MaxDP=1.91D-03 DE=-7.48D-03 OVMax= 3.08D-03

 Failed to achieve initial convergence to 1.0D-08 in  6 cycles.
 Switch to full accuracy anyway.
 Cycle   6  Pass 1  IDiag  1:
 E= -2048.74896102132     Delta-E=       -0.000159790139 Rises=F Damp=F
 DIIS: error= 2.19D-04 at cycle   1 NSaved=   1.
 NSaved= 1 IEnMin= 1 EnMin= -2048.74896102132     IErMin= 1 ErrMin= 2.19D-04
 ErrMax= 2.19D-04  0.00D+00 EMaxC= 1.00D-01 BMatC= 7.66D-05 BMatP= 7.66D-05
 IDIUse=3 WtCom= 9.98D-01 WtEn= 2.19D-03
 Coeff-Com:  0.100D+01
 Coeff-En:   0.100D+01
 Coeff:      0.100D+01
 Gap=     0.286 Goal=   None    Shift=    0.000
 RMSDP=2.68D-05 MaxDP=1.91D-03 DE=-1.60D-04 OVMax= 2.37D-03

 Cycle   7  Pass 1  IDiag  1:
 RMSU=  1.15D-04    CP:  1.00D+00
 E= -2048.74901547424     Delta-E=       -0.000054452922 Rises=F Damp=F
 DIIS: error= 2.86D-04 at cycle   2 NSaved=   2.
 NSaved= 2 IEnMin= 2 EnMin= -2048.74901547424     IErMin= 1 ErrMin= 2.19D-04
 ErrMax= 2.86D-04  0.00D+00 EMaxC= 1.00D-01 BMatC= 4.51D-05 BMatP= 7.66D-05
 IDIUse=3 WtCom= 9.97D-01 WtEn= 2.86D-03
 Coeff-Com:  0.411D+00 0.589D+00
 Coeff-En:   0.000D+00 0.100D+01
 Coeff:      0.410D+00 0.590D+00
 Gap=     0.286 Goal=   None    Shift=    0.000
 RMSDP=1.19D-05 MaxDP=1.10D-03 DE=-5.45D-05 OVMax= 1.47D-03

 Cycle   8  Pass 1  IDiag  1:
 RMSU=  1.16D-05    CP:  1.00D+00  1.02D+00
 E= -2048.74904812307     Delta-E=       -0.000032648833 Rises=F Damp=F
 DIIS: error= 1.15D-04 at cycle   3 NSaved=   3.
 NSaved= 3 IEnMin= 3 EnMin= -2048.74904812307     IErMin= 3 ErrMin= 1.15D-04
 ErrMax= 1.15D-04  0.00D+00 EMaxC= 1.00D-01 BMatC= 1.05D-05 BMatP= 4.51D-05
 IDIUse=3 WtCom= 9.99D-01 WtEn= 1.15D-03
 Coeff-Com: -0.195D-01 0.312D+00 0.707D+00
 Coeff-En:   0.000D+00 0.134D+00 0.866D+00
 Coeff:     -0.194D-01 0.312D+00 0.708D+00
 Gap=     0.286 Goal=   None    Shift=    0.000
 RMSDP=5.82D-06 MaxDP=4.48D-04 DE=-3.26D-05 OVMax= 6.11D-04

 Cycle   9  Pass 1  IDiag  1:
 RMSU=  3.87D-06    CP:  1.00D+00  1.05D+00  7.58D-01
 E= -2048.74905796006     Delta-E=       -0.000009836990 Rises=F Damp=F
 DIIS: error= 3.08D-05 at cycle   4 NSaved=   4.
 NSaved= 4 IEnMin= 4 EnMin= -2048.74905796006     IErMin= 4 ErrMin= 3.08D-05
 ErrMax= 3.08D-05  0.00D+00 EMaxC= 1.00D-01 BMatC= 4.96D-07 BMatP= 1.05D-05
 IDIUse=1 WtCom= 1.00D+00 WtEn= 0.00D+00
 Coeff-Com: -0.303D-01 0.840D-01 0.257D+00 0.690D+00
 Coeff:     -0.303D-01 0.840D-01 0.257D+00 0.690D+00
 Gap=     0.286 Goal=   None    Shift=    0.000
 RMSDP=1.44D-06 MaxDP=1.19D-04 DE=-9.84D-06 OVMax= 4.74D-04

 Cycle  10  Pass 1  IDiag  1:
 RMSU=  1.28D-06    CP:  1.00D+00  1.05D+00  7.90D-01  1.11D+00
 E= -2048.74905880768     Delta-E=       -0.000000847615 Rises=F Damp=F
 DIIS: error= 1.60D-05 at cycle   5 NSaved=   5.
 NSaved= 5 IEnMin= 5 EnMin= -2048.74905880768     IErMin= 5 ErrMin= 1.60D-05
 ErrMax= 1.60D-05  0.00D+00 EMaxC= 1.00D-01 BMatC= 1.21D-07 BMatP= 4.96D-07
 IDIUse=1 WtCom= 1.00D+00 WtEn= 0.00D+00
 Coeff-Com: -0.292D-02-0.574D-01-0.124D+00 0.205D+00 0.980D+00
 Coeff:     -0.292D-02-0.574D-01-0.124D+00 0.205D+00 0.980D+00
 Gap=     0.286 Goal=   None    Shift=    0.000
 RMSDP=1.23D-06 MaxDP=7.38D-05 DE=-8.48D-07 OVMax= 2.44D-04

 Cycle  11  Pass 1  IDiag  1:
 RMSU=  4.86D-07    CP:  1.00D+00  1.06D+00  7.99D-01  1.39D+00  1.17D+00
 E= -2048.74905907219     Delta-E=       -0.000000264513 Rises=F Damp=F
 DIIS: error= 7.97D-06 at cycle   6 NSaved=   6.
 NSaved= 6 IEnMin= 6 EnMin= -2048.74905907219     IErMin= 6 ErrMin= 7.97D-06
 ErrMax= 7.97D-06  0.00D+00 EMaxC= 1.00D-01 BMatC= 2.93D-08 BMatP= 1.21D-07
 IDIUse=1 WtCom= 1.00D+00 WtEn= 0.00D+00
 Coeff-Com:  0.454D-02-0.455D-01-0.115D+00-0.518D-03 0.527D+00 0.629D+00
 Coeff:      0.454D-02-0.455D-01-0.115D+00-0.518D-03 0.527D+00 0.629D+00
 Gap=     0.286 Goal=   None    Shift=    0.000
 RMSDP=3.64D-07 MaxDP=3.41D-05 DE=-2.65D-07 OVMax= 1.19D-04

 Cycle  12  Pass 1  IDiag  1:
 RMSU=  1.79D-07    CP:  1.00D+00  1.06D+00  8.01D-01  1.46D+00  1.30D+00
                    CP:  9.18D-01
 E= -2048.74905911391     Delta-E=       -0.000000041714 Rises=F Damp=F
 DIIS: error= 1.27D-06 at cycle   7 NSaved=   7.
 NSaved= 7 IEnMin= 7 EnMin= -2048.74905911391     IErMin= 7 ErrMin= 1.27D-06
 ErrMax= 1.27D-06  0.00D+00 EMaxC= 1.00D-01 BMatC= 7.33D-10 BMatP= 2.93D-08
 IDIUse=1 WtCom= 1.00D+00 WtEn= 0.00D+00
 Coeff-Com:  0.102D-02-0.677D-02-0.186D-01-0.821D-02 0.525D-01 0.128D+00
 Coeff-Com:  0.852D+00
 Coeff:      0.102D-02-0.677D-02-0.186D-01-0.821D-02 0.525D-01 0.128D+00
 Coeff:      0.852D+00
 Gap=     0.286 Goal=   None    Shift=    0.000
 RMSDP=8.31D-08 MaxDP=4.88D-06 DE=-4.17D-08 OVMax= 2.15D-05

 Cycle  13  Pass 1  IDiag  1:
 RMSU=  5.03D-08    CP:  1.00D+00  1.06D+00  8.00D-01  1.47D+00  1.32D+00
                    CP:  1.00D+00  1.14D+00
 E= -2048.74905911530     Delta-E=       -0.000000001397 Rises=F Damp=F
 DIIS: error= 6.38D-07 at cycle   8 NSaved=   8.
 NSaved= 8 IEnMin= 8 EnMin= -2048.74905911530     IErMin= 8 ErrMin= 6.38D-07
 ErrMax= 6.38D-07  0.00D+00 EMaxC= 1.00D-01 BMatC= 3.00D-10 BMatP= 7.33D-10
 IDIUse=1 WtCom= 1.00D+00 WtEn= 0.00D+00
 Coeff-Com: -0.702D-03 0.881D-02 0.212D-01-0.215D-02-0.112D+00-0.101D+00
 Coeff-Com:  0.417D+00 0.769D+00
 Coeff:     -0.702D-03 0.881D-02 0.212D-01-0.215D-02-0.112D+00-0.101D+00
 Coeff:      0.417D+00 0.769D+00
 Gap=     0.286 Goal=   None    Shift=    0.000
 RMSDP=4.43D-08 MaxDP=2.49D-06 DE=-1.40D-09 OVMax= 1.02D-05

 Cycle  14  Pass 1  IDiag  1:
 RMSU=  2.62D-08    CP:  1.00D+00  1.06D+00  8.00D-01  1.47D+00  1.32D+00
                    CP:  1.04D+00  1.28D+00  1.08D+00
 E= -2048.74905911581     Delta-E=       -0.000000000509 Rises=F Damp=F
 DIIS: error= 1.63D-07 at cycle   9 NSaved=   9.
 NSaved= 9 IEnMin= 9 EnMin= -2048.74905911581     IErMin= 9 ErrMin= 1.63D-07
 ErrMax= 1.63D-07  0.00D+00 EMaxC= 1.00D-01 BMatC= 2.22D-11 BMatP= 3.00D-10
 IDIUse=1 WtCom= 1.00D+00 WtEn= 0.00D+00
 Coeff-Com: -0.362D-03 0.394D-02 0.972D-02 0.515D-04-0.464D-01-0.503D-01
 Coeff-Com:  0.706D-01 0.267D+00 0.745D+00
 Coeff:     -0.362D-03 0.394D-02 0.972D-02 0.515D-04-0.464D-01-0.503D-01
 Coeff:      0.706D-01 0.267D+00 0.745D+00
 Gap=     0.286 Goal=   None    Shift=    0.000
 RMSDP=1.25D-08 MaxDP=6.61D-07 DE=-5.09D-10 OVMax= 3.06D-06

 Cycle  15  Pass 1  IDiag  1:
 RMSU=  8.46D-09    CP:  1.00D+00  1.06D+00  8.00D-01  1.47D+00  1.32D+00
                    CP:  1.05D+00  1.31D+00  1.21D+00  1.12D+00
 E= -2048.74905911600     Delta-E=       -0.000000000190 Rises=F Damp=F
 DIIS: error= 7.23D-08 at cycle  10 NSaved=  10.
 NSaved=10 IEnMin=10 EnMin= -2048.74905911600     IErMin=10 ErrMin= 7.23D-08
 ErrMax= 7.23D-08  0.00D+00 EMaxC= 1.00D-01 BMatC= 4.11D-12 BMatP= 2.22D-11
 IDIUse=1 WtCom= 1.00D+00 WtEn= 0.00D+00
 Coeff-Com:  0.328D-04-0.606D-03-0.137D-02 0.188D-03 0.891D-02 0.496D-02
 Coeff-Com: -0.610D-01-0.825D-01 0.255D+00 0.877D+00
 Coeff:      0.328D-04-0.606D-03-0.137D-02 0.188D-03 0.891D-02 0.496D-02
 Coeff:     -0.610D-01-0.825D-01 0.255D+00 0.877D+00
 Gap=     0.286 Goal=   None    Shift=    0.000
 RMSDP=6.30D-09 MaxDP=3.80D-07 DE=-1.90D-10 OVMax= 1.29D-06

 SCF Done:  E(RwB97XD) =  -2048.74905912     A.U. after   15 cycles
            NFock= 15  Conv=0.63D-08     -V/T= 2.0054
 KE= 2.037722303508D+03 PE=-1.573604257394D+04 EE= 6.172013223253D+03
 Leave Link  502 at Sat Jan 20 06:54:25 2018, MaxMem=  4294967296 cpu:           21025.9 elap:             681.0
 (Enter /share/apps/g16/l601.exe)
 Copying SCF densities to generalized density rwf, IOpCl= 0 IROHF=0.

 **********************************************************************

            Population analysis using the SCF density.

 **********************************************************************

 Orbital symmetries:
       Occupied  (A) (A) (A) (A) (A) (A) (A) (A) (A) (A) (A) (A)
                 (A) (A) (A) (A) (A) (A) (A) (A) (A) (A) (A) (A)
                 (A) (A) (A) (A) (A) (A) (A) (A) (A) (A) (A) (A)
                 (A) (A) (A) (A) (A) (A) (A) (A) (A) (A) (A) (A)
                 (A) (A) (A) (A) (A) (A) (A) (A) (A) (A) (A) (A)
                 (A) (A) (A) (A) (A) (A) (A) (A) (A) (A) (A) (A)
                 (A) (A) (A) (A) (A) (A) (A) (A) (A) (A) (A) (A)
                 (A) (A) (A) (A) (A) (A) (A) (A) (A) (A) (A) (A)
                 (A) (A) (A) (A) (A) (A) (A) (A) (A) (A) (A) (A)
                 (A) (A) (A) (A) (A) (A) (A) (A) (A) (A) (A) (A)
                 (A) (A) (A) (A) (A) (A) (A) (A) (A) (A) (A) (A)
                 (A) (A) (A) (A) (A) (A) (A) (A) (A) (A) (A) (A)
                 (A) (A) (A) (A) (A) (A) (A) (A) (A) (A)
       Virtual   (A) (A) (A) (A) (A) (A) (A) (A) (A) (A) (A) (A)
                 (A) (A) (A) (A) (A) (A) (A) (A) (A) (A) (A) (A)
                 (A) (A) (A) (A) (A) (A) (A) (A) (A) (A) (A) (A)
                 (A) (A) (A) (A) (A) (A) (A) (A) (A) (A) (A) (A)
                 (A) (A) (A) (A) (A) (A) (A) (A) (A) (A) (A) (A)
                 (A) (A) (A) (A) (A) (A) (A) (A) (A) (A) (A) (A)
                 (A) (A) (A) (A) (A) (A) (A) (A) (A) (A) (A) (A)
                 (A) (A) (A) (A) (A) (A) (A) (A) (A) (A) (A) (A)
                 (A) (A) (A) (A) (A) (A) (A) (A) (A) (A) (A) (A)
                 (A) (A) (A) (A) (A) (A) (A) (A) (A) (A) (A) (A)
                 (A) (A) (A) (A) (A) (A) (A) (A) (A) (A) (A) (A)
                 (A) (A) (A) (A) (A) (A) (A) (A) (A) (A) (A) (A)
                 (A) (A) (A) (A) (A) (A) (A) (A) (A) (A) (A) (A)
                 (A) (A) (A) (A) (A) (A) (A) (A) (A) (A) (A) (A)
                 (A) (A) (A) (A) (A) (A) (A) (A) (A) (A) (A) (A)
                 (A) (A) (A) (A) (A) (A) (A) (A) (A) (A) (A) (A)
                 (A) (A) (A) (A) (A) (A) (A) (A) (A) (A) (A) (A)
                 (A) (A) (A) (A) (A) (A) (A) (A) (A) (A) (A) (A)
                 (A) (A) (A) (A) (A) (A) (A) (A) (A) (A) (A) (A)
                 (A) (A) (A) (A) (A) (A) (A) (A) (A) (A) (A) (A)
                 (A) (A) (A) (A) (A) (A) (A) (A) (A) (A) (A) (A)
                 (A) (A) (A) (A) (A) (A) (A) (A) (A) (A) (A) (A)
                 (A) (A) (A) (A) (A) (A) (A) (A) (A) (A) (A) (A)
                 (A) (A) (A) (A) (A) (A) (A) (A) (A) (A) (A) (A)
                 (A) (A) (A) (A) (A) (A) (A) (A) (A) (A) (A) (A)
                 (A) (A) (A) (A) (A) (A) (A) (A) (A) (A) (A) (A)
                 (A) (A) (A) (A) (A) (A) (A) (A) (A) (A) (A) (A)
                 (A) (A) (A) (A) (A) (A) (A) (A) (A) (A) (A) (A)
                 (A) (A) (A) (A) (A) (A) (A) (A) (A) (A) (A) (A)
                 (A) (A) (A) (A) (A) (A) (A) (A) (A) (A) (A) (A)
                 (A) (A) (A) (A) (A) (A) (A) (A) (A) (A) (A) (A)
                 (A) (A) (A) (A) (A) (A) (A) (A) (A) (A) (A) (A)
                 (A) (A) (A) (A) (A) (A) (A) (A) (A) (A) (A) (A)
                 (A) (A) (A) (A) (A) (A) (A) (A) (A) (A) (A) (A)
                 (A) (A) (A) (A) (A) (A) (A) (A) (A) (A) (A) (A)
                 (A) (A) (A) (A) (A) (A) (A) (A) (A) (A) (A) (A)
                 (A) (A) (A) (A) (A) (A) (A) (A) (A) (A) (A) (A)
                 (A) (A) (A) (A) (A) (A) (A) (A) (A) (A) (A) (A)
                 (A) (A) (A) (A) (A) (A) (A) (A) (A) (A) (A) (A)
                 (A) (A) (A) (A) (A) (A) (A) (A) (A) (A) (A) (A)
                 (A) (A) (A) (A) (A) (A) (A) (A) (A) (A) (A) (A)
                 (A) (A) (A) (A) (A) (A) (A) (A) (A) (A) (A) (A)
                 (A) (A) (A) (A) (A) (A) (A) (A) (A) (A) (A) (A)
                 (A) (A) (A) (A) (A) (A) (A) (A) (A) (A) (A) (A)
                 (A) (A) (A) (A) (A) (A) (A) (A) (A) (A) (A) (A)
                 (A) (A) (A) (A) (A) (A) (A) (A) (A) (A) (A) (A)
                 (A) (A) (A) (A) (A) (A) (A) (A) (A) (A) (A) (A)
                 (A) (A) (A) (A) (A) (A) (A) (A) (A) (A) (A) (A)
                 (A) (A) (A) (A) (A) (A) (A)
 The electronic state is 1-A.
 Alpha  occ. eigenvalues --  -19.26091 -19.22032 -19.20645 -14.52578 -14.51114
 Alpha  occ. eigenvalues --  -14.49811 -14.48511 -14.47835 -14.46768 -14.46745
 Alpha  occ. eigenvalues --  -14.46011 -14.44058 -14.42866 -14.42544 -14.42541
 Alpha  occ. eigenvalues --  -14.42493 -14.42011 -14.41989 -14.41096 -14.40720
 Alpha  occ. eigenvalues --  -10.45629 -10.41172 -10.40113 -10.38244 -10.38095
 Alpha  occ. eigenvalues --  -10.37684 -10.36689 -10.36337 -10.35857 -10.35641
 Alpha  occ. eigenvalues --  -10.35125 -10.34452 -10.34269 -10.34185 -10.34064
 Alpha  occ. eigenvalues --  -10.33162 -10.33120 -10.31809 -10.31028 -10.31013
 Alpha  occ. eigenvalues --  -10.30312 -10.29621 -10.28068  -1.19614  -1.13784
 Alpha  occ. eigenvalues --   -1.13195  -1.13037  -1.12420  -1.10470  -1.09455
 Alpha  occ. eigenvalues --   -1.08563  -1.07432  -1.05964  -1.02983  -1.02517
 Alpha  occ. eigenvalues --   -1.01351  -0.99786  -0.99523  -0.98471  -0.97937
 Alpha  occ. eigenvalues --   -0.96380  -0.95076  -0.93571  -0.91031  -0.86243
 Alpha  occ. eigenvalues --   -0.84953  -0.84726  -0.84030  -0.83924  -0.83267
 Alpha  occ. eigenvalues --   -0.82186  -0.78906  -0.75483  -0.74519  -0.73844
 Alpha  occ. eigenvalues --   -0.73643  -0.73389  -0.73184  -0.72051  -0.68847
 Alpha  occ. eigenvalues --   -0.67351  -0.67228  -0.66594  -0.65155  -0.64474
 Alpha  occ. eigenvalues --   -0.63689  -0.63635  -0.62703  -0.62612  -0.61704
 Alpha  occ. eigenvalues --   -0.61028  -0.60194  -0.59546  -0.59047  -0.58521
 Alpha  occ. eigenvalues --   -0.58344  -0.58180  -0.57374  -0.57284  -0.56473
 Alpha  occ. eigenvalues --   -0.56145  -0.56069  -0.54520  -0.54434  -0.54101
 Alpha  occ. eigenvalues --   -0.53602  -0.53552  -0.52867  -0.52760  -0.52747
 Alpha  occ. eigenvalues --   -0.52357  -0.52011  -0.51704  -0.51427  -0.51067
 Alpha  occ. eigenvalues --   -0.50067  -0.49945  -0.49496  -0.48744  -0.48584
 Alpha  occ. eigenvalues --   -0.48469  -0.48194  -0.47899  -0.47749  -0.47637
 Alpha  occ. eigenvalues --   -0.47366  -0.45944  -0.45097  -0.44061  -0.43082
 Alpha  occ. eigenvalues --   -0.42133  -0.39624  -0.39315  -0.38177  -0.37246
 Alpha  occ. eigenvalues --   -0.37175  -0.36713  -0.35971  -0.35283  -0.34560
 Alpha  occ. eigenvalues --   -0.34493  -0.34461  -0.33245  -0.32970  -0.32847
 Alpha  occ. eigenvalues --   -0.32608  -0.32266  -0.31911  -0.31877  -0.31776
 Alpha  occ. eigenvalues --   -0.31258  -0.28149  -0.26696  -0.25424
 Alpha virt. eigenvalues --    0.03181   0.05289   0.06920   0.08266   0.08681
 Alpha virt. eigenvalues --    0.09137   0.09719   0.10050   0.10739   0.12151
 Alpha virt. eigenvalues --    0.12858   0.13130   0.14587   0.14724   0.15582
 Alpha virt. eigenvalues --    0.15805   0.16336   0.17197   0.17355   0.18557
 Alpha virt. eigenvalues --    0.18777   0.19110   0.19629   0.19912   0.20551
 Alpha virt. eigenvalues --    0.21033   0.21398   0.21629   0.21734   0.22311
 Alpha virt. eigenvalues --    0.22841   0.23101   0.23199   0.23323   0.23501
 Alpha virt. eigenvalues --    0.23678   0.23898   0.24393   0.25438   0.25592
 Alpha virt. eigenvalues --    0.26110   0.26545   0.26714   0.27360   0.27971
 Alpha virt. eigenvalues --    0.28188   0.29017   0.29576   0.30445   0.30830
 Alpha virt. eigenvalues --    0.31473   0.32217   0.32936   0.33313   0.33677
 Alpha virt. eigenvalues --    0.33919   0.35015   0.35287   0.36177   0.36487
 Alpha virt. eigenvalues --    0.37053   0.37708   0.38257   0.38924   0.39674
 Alpha virt. eigenvalues --    0.40132   0.40920   0.41261   0.41384   0.41868
 Alpha virt. eigenvalues --    0.42355   0.42930   0.43364   0.43498   0.44331
 Alpha virt. eigenvalues --    0.45511   0.45724   0.45917   0.46021   0.46781
 Alpha virt. eigenvalues --    0.47430   0.48137   0.48803   0.49032   0.49430
 Alpha virt. eigenvalues --    0.49959   0.50335   0.50603   0.50860   0.51051
 Alpha virt. eigenvalues --    0.51561   0.52145   0.52846   0.53181   0.53535
 Alpha virt. eigenvalues --    0.54061   0.54349   0.54704   0.54808   0.55416
 Alpha virt. eigenvalues --    0.55909   0.56365   0.56562   0.56986   0.57095
 Alpha virt. eigenvalues --    0.57974   0.58536   0.59036   0.59277   0.59696
 Alpha virt. eigenvalues --    0.60023   0.60712   0.60800   0.61140   0.61251
 Alpha virt. eigenvalues --    0.61829   0.62291   0.62823   0.62874   0.63891
 Alpha virt. eigenvalues --    0.64030   0.64360   0.64639   0.65141   0.65231
 Alpha virt. eigenvalues --    0.65478   0.65965   0.66471   0.66781   0.67010
 Alpha virt. eigenvalues --    0.67672   0.68090   0.68328   0.68841   0.69447
 Alpha virt. eigenvalues --    0.70460   0.70702   0.70847   0.71668   0.72022
 Alpha virt. eigenvalues --    0.72228   0.72653   0.73338   0.73619   0.73851
 Alpha virt. eigenvalues --    0.74181   0.74725   0.74856   0.75093   0.75410
 Alpha virt. eigenvalues --    0.75843   0.76096   0.76483   0.76711   0.77016
 Alpha virt. eigenvalues --    0.77596   0.78006   0.78343   0.78774   0.78956
 Alpha virt. eigenvalues --    0.79577   0.79956   0.80395   0.80646   0.81134
 Alpha virt. eigenvalues --    0.81688   0.82139   0.82383   0.82775   0.83018
 Alpha virt. eigenvalues --    0.83294   0.83967   0.84454   0.84595   0.84804
 Alpha virt. eigenvalues --    0.85607   0.85780   0.86776   0.86931   0.87698
 Alpha virt. eigenvalues --    0.87786   0.87954   0.88291   0.89404   0.90272
 Alpha virt. eigenvalues --    0.90526   0.90898   0.91256   0.91732   0.92315
 Alpha virt. eigenvalues --    0.92900   0.93051   0.93507   0.94120   0.94372
 Alpha virt. eigenvalues --    0.94975   0.95239   0.95645   0.95881   0.96752
 Alpha virt. eigenvalues --    0.97009   0.97826   0.97947   0.98931   0.99545
 Alpha virt. eigenvalues --    0.99992   1.00266   1.00415   1.00908   1.01038
 Alpha virt. eigenvalues --    1.01569   1.01871   1.02496   1.02767   1.03172
 Alpha virt. eigenvalues --    1.03532   1.03801   1.04021   1.04609   1.05283
 Alpha virt. eigenvalues --    1.05731   1.06405   1.06609   1.07691   1.08824
 Alpha virt. eigenvalues --    1.09249   1.10019   1.10303   1.10577   1.11404
 Alpha virt. eigenvalues --    1.12260   1.12452   1.12984   1.13208   1.13579
 Alpha virt. eigenvalues --    1.13721   1.14387   1.14758   1.15743   1.16184
 Alpha virt. eigenvalues --    1.16374   1.16539   1.16799   1.17634   1.18056
 Alpha virt. eigenvalues --    1.18381   1.19127   1.19299   1.19377   1.20017
 Alpha virt. eigenvalues --    1.20841   1.20993   1.21238   1.21498   1.21648
 Alpha virt. eigenvalues --    1.22287   1.22670   1.22828   1.23252   1.23661
 Alpha virt. eigenvalues --    1.24112   1.24364   1.24568   1.25298   1.25508
 Alpha virt. eigenvalues --    1.26063   1.26108   1.26656   1.26980   1.28180
 Alpha virt. eigenvalues --    1.28997   1.29507   1.30171   1.30884   1.31371
 Alpha virt. eigenvalues --    1.32716   1.33188   1.33648   1.34012   1.34221
 Alpha virt. eigenvalues --    1.35111   1.35332   1.35876   1.36237   1.37355
 Alpha virt. eigenvalues --    1.37677   1.38060   1.38624   1.39881   1.39989
 Alpha virt. eigenvalues --    1.41314   1.41599   1.43516   1.43936   1.44293
 Alpha virt. eigenvalues --    1.44755   1.45873   1.47233   1.47873   1.48015
 Alpha virt. eigenvalues --    1.48389   1.48849   1.49836   1.50888   1.51343
 Alpha virt. eigenvalues --    1.52042   1.52542   1.52869   1.53969   1.54360
 Alpha virt. eigenvalues --    1.55151   1.55296   1.56176   1.56913   1.57505
 Alpha virt. eigenvalues --    1.58382   1.59329   1.59545   1.61132   1.61492
 Alpha virt. eigenvalues --    1.62026   1.62129   1.63112   1.63646   1.63900
 Alpha virt. eigenvalues --    1.64885   1.65725   1.66132   1.66676   1.67211
 Alpha virt. eigenvalues --    1.67580   1.68306   1.68724   1.68875   1.68980
 Alpha virt. eigenvalues --    1.69703   1.70737   1.71183   1.71354   1.71696
 Alpha virt. eigenvalues --    1.71909   1.72360   1.72930   1.73218   1.73627
 Alpha virt. eigenvalues --    1.73803   1.74187   1.74441   1.74673   1.75187
 Alpha virt. eigenvalues --    1.75743   1.76214   1.76617   1.76931   1.77035
 Alpha virt. eigenvalues --    1.77655   1.77850   1.78268   1.78500   1.79057
 Alpha virt. eigenvalues --    1.79349   1.79418   1.79693   1.79990   1.80739
 Alpha virt. eigenvalues --    1.80771   1.81407   1.81659   1.82012   1.82448
 Alpha virt. eigenvalues --    1.82945   1.83236   1.83529   1.84062   1.84360
 Alpha virt. eigenvalues --    1.85733   1.86216   1.86500   1.86913   1.87325
 Alpha virt. eigenvalues --    1.87675   1.88069   1.88171   1.88490   1.88832
 Alpha virt. eigenvalues --    1.89317   1.90140   1.90197   1.90759   1.91490
 Alpha virt. eigenvalues --    1.91942   1.92318   1.92939   1.93433   1.94023
 Alpha virt. eigenvalues --    1.94386   1.95203   1.96438   1.97175   1.97817
 Alpha virt. eigenvalues --    1.98472   1.98937   1.99711   2.00392   2.00902
 Alpha virt. eigenvalues --    2.02047   2.02091   2.02869   2.03992   2.04499
 Alpha virt. eigenvalues --    2.05219   2.05857   2.06215   2.06785   2.07862
 Alpha virt. eigenvalues --    2.08054   2.08382   2.09154   2.09595   2.09932
 Alpha virt. eigenvalues --    2.10339   2.11184   2.12290   2.12423   2.12999
 Alpha virt. eigenvalues --    2.13497   2.13844   2.15775   2.17255   2.17789
 Alpha virt. eigenvalues --    2.19125   2.19989   2.20114   2.20624   2.21550
 Alpha virt. eigenvalues --    2.21649   2.22169   2.23110   2.23358   2.23953
 Alpha virt. eigenvalues --    2.24381   2.25062   2.26130   2.26502   2.26894
 Alpha virt. eigenvalues --    2.27051   2.28195   2.28714   2.29292   2.29762
 Alpha virt. eigenvalues --    2.30137   2.30279   2.30478   2.32437   2.33153
 Alpha virt. eigenvalues --    2.33535   2.33831   2.34052   2.34327   2.35024
 Alpha virt. eigenvalues --    2.35079   2.36277   2.36683   2.36979   2.37300
 Alpha virt. eigenvalues --    2.38437   2.39781   2.40189   2.40554   2.40932
 Alpha virt. eigenvalues --    2.41226   2.42261   2.42571   2.43363   2.44057
 Alpha virt. eigenvalues --    2.45136   2.45977   2.46087   2.46617   2.46900
 Alpha virt. eigenvalues --    2.47132   2.48781   2.49173   2.50266   2.51813
 Alpha virt. eigenvalues --    2.53139   2.53857   2.54218   2.54841   2.56031
 Alpha virt. eigenvalues --    2.56800   2.57295   2.57683   2.58289   2.59522
 Alpha virt. eigenvalues --    2.60580   2.60628   2.61429   2.62118   2.63493
 Alpha virt. eigenvalues --    2.64067   2.65111   2.65267   2.66087   2.67004
 Alpha virt. eigenvalues --    2.67158   2.67822   2.67973   2.68327   2.69272
 Alpha virt. eigenvalues --    2.70734   2.71097   2.71525   2.71939   2.72944
 Alpha virt. eigenvalues --    2.73563   2.74141   2.74717   2.75443   2.76106
 Alpha virt. eigenvalues --    2.78036   2.78809   2.79155   2.79277   2.79689
 Alpha virt. eigenvalues --    2.79846   2.80637   2.81033   2.81588   2.82150
 Alpha virt. eigenvalues --    2.82308   2.82773   2.83213   2.83475   2.83671
 Alpha virt. eigenvalues --    2.85276   2.86069   2.86441   2.86662   2.87278
 Alpha virt. eigenvalues --    2.87800   2.88169   2.89236   2.91314   2.93181
 Alpha virt. eigenvalues --    2.94355   2.96844   2.97072   2.98515   2.98680
 Alpha virt. eigenvalues --    2.99988   3.01313   3.02950   3.04527   3.05803
 Alpha virt. eigenvalues --    3.06835   3.09425   3.11057   3.14063   3.14612
 Alpha virt. eigenvalues --    3.15666   3.15817   3.16210   3.17956   3.20177
 Alpha virt. eigenvalues --    3.22731   3.22870   3.23617   3.24681   3.27462
 Alpha virt. eigenvalues --    3.46290   3.46664   3.47924   3.50085   3.50524
 Alpha virt. eigenvalues --    3.52578   3.54346   3.56378   3.58086   3.60031
 Alpha virt. eigenvalues --    3.62750   3.71467   3.74650
          Condensed to atoms (all electrons):
 Mulliken charges:
               1
     1  N   -0.310295
     2  C    0.180526
     3  C    0.034092
     4  N   -0.256155
     5  C    0.131948
     6  H    0.029744
     7  N   -0.275828
     8  C    0.126589
     9  H    0.019094
    10  N   -0.290436
    11  C    0.232945
    12  C    0.095716
    13  N   -0.037432
    14  H    0.107770
    15  H    0.089731
    16  H    0.028300
    17  H    0.035839
    18  H    0.026065
    19  N   -0.299742
    20  C    0.240517
    21  C    0.181766
    22  N   -0.114848
    23  H    0.110291
    24  H    0.117177
    25  N   -0.299940
    26  C    0.234754
    27  N   -0.121100
    28  H    0.119717
    29  C    0.146301
    30  O   -0.323470
    31  C    0.002040
    32  N   -0.225417
    33  C    0.122395
    34  H    0.029575
    35  H    0.026847
    36  H    0.026508
    37  H    0.021847
    38  H    0.052140
    39  H    0.064540
    40  H    0.075760
    41  H    0.030662
    42  C   -0.094952
    43  O   -0.274323
    44  C    0.184297
    45  H    0.134945
    46  N   -0.129487
    47  O   -0.351375
    48  C    0.349250
    49  H    0.045837
    50  C    0.169138
    51  C    0.035974
    52  N   -0.290384
    53  H    0.031685
    54  H    0.035607
    55  H    0.016894
    56  H    0.117665
    57  H    0.120455
    58  N   -0.051696
    59  C    0.129288
    60  C    0.232417
    61  N   -0.266564
    62  H    0.045999
    63  C    0.149676
    64  N   -0.302530
    65  H    0.024004
    66  C    0.115927
    67  N   -0.252009
    68  C    0.010867
    69  C    0.178012
    70  N   -0.301149
 Sum of Mulliken charges =  -0.00000
 Mulliken charges with hydrogens summed into heavy atoms:
               1
     1  N   -0.310295
     2  C    0.270730
     3  C    0.034092
     4  N   -0.256155
     5  C    0.161692
     7  N   -0.275828
     8  C    0.145683
    10  N   -0.290436
    11  C    0.232945
    12  C    0.095716
    13  N    0.160069
    19  N   -0.299742
    20  C    0.240517
    21  C    0.256968
    22  N    0.112620
    25  N   -0.299940
    26  C    0.234754
    27  N   -0.001383
    29  C    0.146301
    30  O   -0.323470
    31  C    0.002040
    32  N   -0.225417
    33  C    0.151970
    42  C   -0.064291
    43  O   -0.274323
    44  C    0.184297
    46  N    0.005459
    47  O   -0.351375
    48  C    0.349250
    50  C    0.214975
    51  C    0.228414
    52  N   -0.290384
    58  N    0.186425
    59  C    0.129288
    60  C    0.232417
    61  N   -0.266564
    63  C    0.195675
    64  N   -0.302530
    66  C    0.139931
    67  N   -0.252009
    68  C    0.010867
    69  C    0.262197
    70  N   -0.301149
 Electronic spatial extent (au):  <R**2>=          24215.8046
 Charge=             -0.0000 electrons
 Dipole moment (field-independent basis, Debye):
    X=              5.3777    Y=              5.8410    Z=              3.6738  Tot=              8.7483
 Quadrupole moment (field-independent basis, Debye-Ang):
   XX=           -138.1262   YY=           -226.8604   ZZ=           -254.8132
   XY=             15.0290   XZ=             21.0398   YZ=             -3.3079
 Traceless Quadrupole moment (field-independent basis, Debye-Ang):
   XX=             68.4738   YY=            -20.2605   ZZ=            -48.2133
   XY=             15.0290   XZ=             21.0398   YZ=             -3.3079
 Octapole moment (field-independent basis, Debye-Ang**2):
  XXX=              9.7889  YYY=             50.4052  ZZZ=             35.2250  XYY=             27.9447
  XXY=             66.8465  XXZ=            -32.0753  XZZ=             33.8900  YZZ=             49.9336
  YYZ=             33.8110  XYZ=             31.9829
 Hexadecapole moment (field-independent basis, Debye-Ang**3):
 XXXX=         -16729.3877 YYYY=          -4016.0271 ZZZZ=          -3087.1264 XXXY=            466.3566
 XXXZ=            372.6228 YYYX=             77.1306 YYYZ=             28.2982 ZZZX=            156.0742
 ZZZY=             36.2642 XXYY=          -4681.3692 XXZZ=          -4513.9700 YYZZ=          -1312.4000
 XXYZ=             25.8797 YYXZ=            131.4711 ZZXY=            112.2732
 N-N= 5.477557988062D+03 E-N=-1.573604256613D+04  KE= 2.037722303508D+03
 No NMR shielding tensors so no spin-rotation constants.
 Leave Link  601 at Sat Jan 20 06:54:27 2018, MaxMem=  4294967296 cpu:              46.7 elap:               1.6
 (Enter /share/apps/g16/l9999.exe)
 1\1\GINC-COMPUTE-0-3\SP\RwB97XD\CC-pVDZ\C23H27N17O3\SATYA\20-Jan-2018\
 0\\#p wb97xd/cc-pvdz sp scf=(maxcycles=20)\\Base pair stacking\\0,1\N,
 0,4.85652,9.76135,-6.21585\C,0,4.85013,11.22477,-6.40649\C,0,4.25231,7
 .65002,-6.09527\N,0,5.59832,7.68817,-5.76129\C,0,5.90846,8.95864,-5.84
 731\H,0,6.89914,9.36967,-5.65095\N,0,2.06417,6.89546,-6.54876\C,0,1.75
 565,8.17353,-6.79152\H,0,0.7202,8.35602,-7.07581\N,0,2.5305,9.25494,-6
 .73611\C,0,3.78118,8.92031,-6.37798\C,0,3.33079,6.59141,-6.19056\N,0,3
 .64071,5.31618,-5.94781\H,0,4.56592,5.04524,-5.67986\H,0,2.95902,4.588
 57,-6.02547\H,0,5.50383,11.47195,-7.12187\H,0,3.93468,11.52262,-6.6754
 6\H,0,5.10775,11.67547,-5.55179\N,0,0.92288,7.38298,-3.28701\C,0,0.192
 86,6.21968,-3.33012\C,0,0.37187,8.74319,-3.45104\N,0,-2.85272,4.59185,
 -3.69942\H,0,-3.19165,3.65145,-3.69592\H,0,-3.52679,5.31655,-3.8449\N,
 0,-1.13975,6.12455,-3.52797\C,0,-1.55288,4.86963,-3.51731\N,0,-0.72586
 ,3.7891,-3.32758\H,0,-1.1292,2.86485,-3.33485\C,0,0.64824,3.86345,-3.1
 2218\O,0,1.3038,2.8266,-2.96118\C,0,1.10675,5.2053,-3.13101\N,0,2.3848
 ,5.72138,-2.96622\C,0,2.22723,7.01343,-3.06618\H,0,3.0319,7.74514,-2.9
 8633\H,0,0.79994,9.1853,-4.23851\H,0,-0.61466,8.68536,-3.59825\H,0,0.5
 5406,9.27992,-2.62791\H,0,-3.6438,-1.48395,-4.12058\H,0,-3.67702,-1.54
 085,-2.35982\H,0,-3.70188,0.0144,-3.19164\H,0,0.83232,-2.99038,-3.2032
 1\C,0,0.25228,-2.06766,-3.18433\O,0,2.15661,-0.65557,-3.10278\C,0,0.93
 611,-0.81173,-3.13085\H,0,0.5552,1.19822,-3.07308\N,0,0.10854,0.29279,
 -3.11077\O,0,-1.91096,1.33144,-3.1153\C,0,-1.26363,0.29936,-3.13644\H,
 0,-1.65298,-3.0223,-3.25113\C,0,-1.08535,-2.0936,-3.21041\C,0,-3.31429
 ,-0.99321,-3.21689\N,0,-1.8497,-0.95008,-3.18787\H,0,-3.71555,1.5699,-
 7.50555\H,0,-3.38112,2.85126,-6.55246\H,0,-3.91092,1.45716,-5.88921\H,
 0,3.50635,1.64538,-5.80147\H,0,2.62142,0.20174,-6.00859\N,0,2.62165,1.
 19997,-5.93948\C,0,1.49182,1.90487,-6.02758\C,0,-0.85574,2.18874,-6.29
 235\N,0,-0.82526,3.52822,-6.19596\H,0,0.53843,5.03433,-5.92652\C,0,0.4
 2299,3.95494,-6.0152\N,0,1.55593,3.25052,-5.92669\H,0,-2.15623,-0.7490
 7,-6.65321\C,0,-1.48713,0.10046,-6.51336\N,0,-0.18845,0.00923,-6.36234
 \C,0,0.2243,1.32621,-6.22119\C,0,-3.35296,1.85424,-6.61804\N,0,-1.9587
 2,1.39014,-6.48124\\Version=EM64L-G16RevA.03\State=1-A\HF=-2048.749059
 1\RMSD=6.300e-09\Dipole=-3.329957,-0.7175794,-0.4928357\Quadrupole=9.6
 226932,25.4774057,-35.1000989,36.7758513,-8.6057095,3.7348555\PG=C01 [
 X(C23H27N17O3)]\\@


 IF YOU DON'T HAVE THE LAW - ARGUE THE FACTS.
 IF YOU DON'T HAVE THE FACTS - ARGUE THE LAW.
 IF YOU DON'T HAVE EITHER - POUND THE TABLE.
 Job cpu time:       0 days  6 hours  1 minutes 31.2 seconds.
 Elapsed time:       0 days  0 hours 11 minutes 42.7 seconds.
 File lengths (MBytes):  RWF=    298 Int=      0 D2E=      0 Chk=     33 Scr=      1
 Normal termination of Gaussian 16 at Sat Jan 20 06:54:28 2018.
