 Entering Gaussian System, Link 0=g16
 Input=str20.-15.1.0.com
 Output=str20.-15.1.0.log
 Initial command:
 /share/apps/g16/l1.exe "/state/partition1/scr/Gau-23917.inp" -scrdir="/state/partition1/scr/"
 Entering Link 1 = /share/apps/g16/l1.exe PID=     23918.
  
 Copyright (c) 1988,1990,1992,1993,1995,1998,2003,2009,2016,
            Gaussian, Inc.  All Rights Reserved.
  
 This is part of the Gaussian(R) 16 program.  It is based on
 the Gaussian(R) 09 system (copyright 2009, Gaussian, Inc.),
 the Gaussian(R) 03 system (copyright 2003, Gaussian, Inc.),
 the Gaussian(R) 98 system (copyright 1998, Gaussian, Inc.),
 the Gaussian(R) 94 system (copyright 1995, Gaussian, Inc.),
 the Gaussian 92(TM) system (copyright 1992, Gaussian, Inc.),
 the Gaussian 90(TM) system (copyright 1990, Gaussian, Inc.),
 the Gaussian 88(TM) system (copyright 1988, Gaussian, Inc.),
 the Gaussian 86(TM) system (copyright 1986, Carnegie Mellon
 University), and the Gaussian 82(TM) system (copyright 1983,
 Carnegie Mellon University). Gaussian is a federally registered
 trademark of Gaussian, Inc.
  
 This software contains proprietary and confidential information,
 including trade secrets, belonging to Gaussian, Inc.
  
 This software is provided under written license and may be
 used, copied, transmitted, or stored only in accord with that
 written license.
  
 The following legend is applicable only to US Government
 contracts under FAR:
  
                    RESTRICTED RIGHTS LEGEND
  
 Use, reproduction and disclosure by the US Government is
 subject to restrictions as set forth in subparagraphs (a)
 and (c) of the Commercial Computer Software - Restricted
 Rights clause in FAR 52.227-19.
  
 Gaussian, Inc.
 340 Quinnipiac St., Bldg. 40, Wallingford CT 06492
  
  
 ---------------------------------------------------------------
 Warning -- This program may not be used in any manner that
 competes with the business of Gaussian, Inc. or will provide
 assistance to any competitor of Gaussian, Inc.  The licensee
 of this program is prohibited from giving any competitor of
 Gaussian, Inc. access to this program.  By using this program,
 the user acknowledges that Gaussian, Inc. is engaged in the
 business of creating and licensing software in the field of
 computational chemistry and represents and warrants to the
 licensee that it is not a competitor of Gaussian, Inc. and that
 it will not use this program in any manner prohibited above.
 ---------------------------------------------------------------
  

 Cite this work as:
 Gaussian 16, Revision A.03,
 M. J. Frisch, G. W. Trucks, H. B. Schlegel, G. E. Scuseria, 
 M. A. Robb, J. R. Cheeseman, G. Scalmani, V. Barone, 
 G. A. Petersson, H. Nakatsuji, X. Li, M. Caricato, A. V. Marenich, 
 J. Bloino, B. G. Janesko, R. Gomperts, B. Mennucci, H. P. Hratchian, 
 J. V. Ortiz, A. F. Izmaylov, J. L. Sonnenberg, D. Williams-Young, 
 F. Ding, F. Lipparini, F. Egidi, J. Goings, B. Peng, A. Petrone, 
 T. Henderson, D. Ranasinghe, V. G. Zakrzewski, J. Gao, N. Rega, 
 G. Zheng, W. Liang, M. Hada, M. Ehara, K. Toyota, R. Fukuda, 
 J. Hasegawa, M. Ishida, T. Nakajima, Y. Honda, O. Kitao, H. Nakai, 
 T. Vreven, K. Throssell, J. A. Montgomery, Jr., J. E. Peralta, 
 F. Ogliaro, M. J. Bearpark, J. J. Heyd, E. N. Brothers, K. N. Kudin, 
 V. N. Staroverov, T. A. Keith, R. Kobayashi, J. Normand, 
 K. Raghavachari, A. P. Rendell, J. C. Burant, S. S. Iyengar, 
 J. Tomasi, M. Cossi, J. M. Millam, M. Klene, C. Adamo, R. Cammi, 
 J. W. Ochterski, R. L. Martin, K. Morokuma, O. Farkas, 
 J. B. Foresman, and D. J. Fox, Gaussian, Inc., Wallingford CT, 2016.
 
 ******************************************
 Gaussian 16:  EM64L-G16RevA.03 25-Dec-2016
                19-Jan-2018 
 ******************************************
 %nprocshared=32
 Will use up to   32 processors via shared memory.
 %mem=32GB
 %chk=allatoms_t.chk
 ---------------------------------------
 #p wb97xd/cc-pvdz sp scf=(maxcycles=20)
 ---------------------------------------
 1/38=1,172=1/1;
 2/12=2,17=6,18=5,40=1/2;
 3/5=16,11=2,25=1,30=1,74=-58/1,2,3;
 4//1;
 5/5=2,7=20,38=5/2;
 6/7=2,8=2,9=2,10=2,28=1/1;
 99/5=1,9=1/99;
 Leave Link    1 at Fri Jan 19 19:11:12 2018, MaxMem=  4294967296 cpu:               2.7 elap:               0.1
 (Enter /share/apps/g16/l101.exe)
 ------------------
 Base pair stacking
 ------------------
 Symbolic Z-matrix:
 Charge =  0 Multiplicity = 1
 N                     0.33295   3.69632  -6.41038 
 C                     0.34099   5.16293  -6.24611 
 C                    -0.26345   1.57934  -6.40622 
 N                     1.02012   1.61989  -6.93114 
 C                     1.32805   2.89367  -6.91264 
 H                     2.27647   3.3073   -7.25666 
 N                    -2.35677   0.81937  -5.62943 
 C                    -2.63856   2.0997   -5.36688 
 H                    -3.62392   2.28081  -4.93966 
 N                    -1.88942   3.1848   -5.55196 
 C                    -0.70034   2.85159  -6.08061 
 C                    -1.15219   0.51683  -6.16097 
 N                    -0.86905  -0.76064  -6.42376 
 H                     0.01037  -1.03059  -6.81742 
 H                    -1.52596  -1.49102  -6.2362 
 H                     0.46959   5.59879  -7.13699 
 H                    -0.52887   5.45986  -5.85331 
 H                     1.08792   5.42804  -5.63635 
 N                    -0.23958   3.9494   -3.08064 
 C                    -0.95696   2.78515  -2.94673 
 C                    -0.79685   5.31269  -2.97294 
 N                    -3.97258   1.15881  -2.37853 
 H                    -4.30282   0.21729  -2.31755 
 H                    -4.64767   1.88567  -2.24956 
 N                    -2.28082   2.69172  -2.69629 
 C                    -2.68258   1.43524  -2.62227 
 N                    -1.85295   0.35173  -2.78108 
 H                    -2.24732  -0.57352  -2.70792 
 C                    -0.48772   0.42429  -3.03939 
 O                     0.17119  -0.61523  -3.1658 
 C                    -0.04146   1.76778  -3.12169 
 N                     1.22519   2.28295  -3.36062 
 C                     1.05946   3.57741  -3.32715 
 H                     1.85409   4.30924  -3.47638 
 H                    -0.6488    5.80381  -3.83066 
 H                    -1.77699   5.25613  -2.7875 
 H                    -0.34526   5.80121  -2.22714 
 H                    -4.93404  -4.88735  -2.86658 
 H                    -4.38197  -5.04845  -1.20107 
 H                    -4.66204  -3.447    -1.88537 
 H                    -0.42616  -6.41117  -3.57618 
 C                    -0.95558  -5.49563  -3.31213 
 O                     0.88537  -4.07634  -3.78507 
 C                    -0.27717  -4.23988  -3.41553 
 H                    -0.59233  -2.23982  -3.1176 
 N                    -1.03742  -3.14482  -3.05761 
 O                    -2.93098  -2.12315  -2.33111 
 C                    -2.3402   -3.14721  -2.626 
 H                    -2.78681  -6.45916  -2.79833 
 C                    -2.22632  -5.53018  -2.89426 
 C                    -4.31733  -4.44836  -2.09649 
 N                    -2.92563  -4.39585  -2.55273 
 H                    -8.02923  -4.48599  -4.09366 
 H                    -7.09185  -3.42938  -3.27697 
 H                    -7.24905  -4.9634   -2.74206 
 H                    -1.20486  -4.37486  -7.0059 
 H                    -2.16252  -5.78552  -6.95074 
 N                    -2.03663  -4.82878  -6.68612 
 C                    -2.9385   -4.18767  -5.93994 
 C                    -4.96106  -3.98726  -4.70267 
 N                    -4.76568  -2.70252  -4.36253 
 H                    -3.38039  -1.21738  -4.63809 
 C                    -3.61751  -2.25543  -4.86721 
 N                    -2.71286  -2.89598  -5.6148 
 H                    -6.47118  -6.84267  -4.83808 
 C                    -5.77757  -6.00803  -4.94398 
 N                    -4.6504   -6.05582  -5.61098 
 C                    -4.12269  -4.78097  -5.46601 
 C                    -7.19269  -4.38409  -3.55532 
 N                    -6.02868  -4.78634  -4.36852 
 
 ITRead=  0  0  0  0  0  0  0  0  0  0  0  0  0  0  0  0  0  0  0  0
 ITRead=  0  0  0  0  0  0  0  0  0  0  0  0  0  0  0  0  0  0  0  0
 ITRead=  0  0  0  0  0  0  0  0  0  0  0  0  0  0  0  0  0  0  0  0
 ITRead=  0  0  0  0  0  0  0  0  0  0
 MicOpt= -1 -1 -1 -1 -1 -1 -1 -1 -1 -1 -1 -1 -1 -1 -1 -1 -1 -1 -1 -1
 MicOpt= -1 -1 -1 -1 -1 -1 -1 -1 -1 -1 -1 -1 -1 -1 -1 -1 -1 -1 -1 -1
 MicOpt= -1 -1 -1 -1 -1 -1 -1 -1 -1 -1 -1 -1 -1 -1 -1 -1 -1 -1 -1 -1
 MicOpt= -1 -1 -1 -1 -1 -1 -1 -1 -1 -1
 NAtoms=     70 NQM=       70 NQMF=       0 NMMI=      0 NMMIF=      0
                NMic=       0 NMicF=      0.
                    Isotopes and Nuclear Properties:
 (Nuclear quadrupole moments (NQMom) in fm**2, nuclear magnetic moments (NMagM)
  in nuclear magnetons)

  Atom         1           2           3           4           5           6           7           8           9          10
 IAtWgt=          14          12          12          14          12           1          14          12           1          14
 AtmWgt=  14.0030740  12.0000000  12.0000000  14.0030740  12.0000000   1.0078250  14.0030740  12.0000000   1.0078250  14.0030740
 NucSpn=           2           0           0           2           0           1           2           0           1           2
 AtZEff=  -0.0000000  -0.0000000  -0.0000000  -0.0000000  -0.0000000  -0.0000000  -0.0000000  -0.0000000  -0.0000000  -0.0000000
 NQMom=    2.0440000   0.0000000   0.0000000   2.0440000   0.0000000   0.0000000   2.0440000   0.0000000   0.0000000   2.0440000
 NMagM=    0.4037610   0.0000000   0.0000000   0.4037610   0.0000000   2.7928460   0.4037610   0.0000000   2.7928460   0.4037610
 AtZNuc=   7.0000000   6.0000000   6.0000000   7.0000000   6.0000000   1.0000000   7.0000000   6.0000000   1.0000000   7.0000000

  Atom        11          12          13          14          15          16          17          18          19          20
 IAtWgt=          12          12          14           1           1           1           1           1          14          12
 AtmWgt=  12.0000000  12.0000000  14.0030740   1.0078250   1.0078250   1.0078250   1.0078250   1.0078250  14.0030740  12.0000000
 NucSpn=           0           0           2           1           1           1           1           1           2           0
 AtZEff=  -0.0000000  -0.0000000  -0.0000000  -0.0000000  -0.0000000  -0.0000000  -0.0000000  -0.0000000  -0.0000000  -0.0000000
 NQMom=    0.0000000   0.0000000   2.0440000   0.0000000   0.0000000   0.0000000   0.0000000   0.0000000   2.0440000   0.0000000
 NMagM=    0.0000000   0.0000000   0.4037610   2.7928460   2.7928460   2.7928460   2.7928460   2.7928460   0.4037610   0.0000000
 AtZNuc=   6.0000000   6.0000000   7.0000000   1.0000000   1.0000000   1.0000000   1.0000000   1.0000000   7.0000000   6.0000000

  Atom        21          22          23          24          25          26          27          28          29          30
 IAtWgt=          12          14           1           1          14          12          14           1          12          16
 AtmWgt=  12.0000000  14.0030740   1.0078250   1.0078250  14.0030740  12.0000000  14.0030740   1.0078250  12.0000000  15.9949146
 NucSpn=           0           2           1           1           2           0           2           1           0           0
 AtZEff=  -0.0000000  -0.0000000  -0.0000000  -0.0000000  -0.0000000  -0.0000000  -0.0000000  -0.0000000  -0.0000000  -0.0000000
 NQMom=    0.0000000   2.0440000   0.0000000   0.0000000   2.0440000   0.0000000   2.0440000   0.0000000   0.0000000   0.0000000
 NMagM=    0.0000000   0.4037610   2.7928460   2.7928460   0.4037610   0.0000000   0.4037610   2.7928460   0.0000000   0.0000000
 AtZNuc=   6.0000000   7.0000000   1.0000000   1.0000000   7.0000000   6.0000000   7.0000000   1.0000000   6.0000000   8.0000000

  Atom        31          32          33          34          35          36          37          38          39          40
 IAtWgt=          12          14          12           1           1           1           1           1           1           1
 AtmWgt=  12.0000000  14.0030740  12.0000000   1.0078250   1.0078250   1.0078250   1.0078250   1.0078250   1.0078250   1.0078250
 NucSpn=           0           2           0           1           1           1           1           1           1           1
 AtZEff=  -0.0000000  -0.0000000  -0.0000000  -0.0000000  -0.0000000  -0.0000000  -0.0000000  -0.0000000  -0.0000000  -0.0000000
 NQMom=    0.0000000   2.0440000   0.0000000   0.0000000   0.0000000   0.0000000   0.0000000   0.0000000   0.0000000   0.0000000
 NMagM=    0.0000000   0.4037610   0.0000000   2.7928460   2.7928460   2.7928460   2.7928460   2.7928460   2.7928460   2.7928460
 AtZNuc=   6.0000000   7.0000000   6.0000000   1.0000000   1.0000000   1.0000000   1.0000000   1.0000000   1.0000000   1.0000000

  Atom        41          42          43          44          45          46          47          48          49          50
 IAtWgt=           1          12          16          12           1          14          16          12           1          12
 AtmWgt=   1.0078250  12.0000000  15.9949146  12.0000000   1.0078250  14.0030740  15.9949146  12.0000000   1.0078250  12.0000000
 NucSpn=           1           0           0           0           1           2           0           0           1           0
 AtZEff=  -0.0000000  -0.0000000  -0.0000000  -0.0000000  -0.0000000  -0.0000000  -0.0000000  -0.0000000  -0.0000000  -0.0000000
 NQMom=    0.0000000   0.0000000   0.0000000   0.0000000   0.0000000   2.0440000   0.0000000   0.0000000   0.0000000   0.0000000
 NMagM=    2.7928460   0.0000000   0.0000000   0.0000000   2.7928460   0.4037610   0.0000000   0.0000000   2.7928460   0.0000000
 AtZNuc=   1.0000000   6.0000000   8.0000000   6.0000000   1.0000000   7.0000000   8.0000000   6.0000000   1.0000000   6.0000000

  Atom        51          52          53          54          55          56          57          58          59          60
 IAtWgt=          12          14           1           1           1           1           1          14          12          12
 AtmWgt=  12.0000000  14.0030740   1.0078250   1.0078250   1.0078250   1.0078250   1.0078250  14.0030740  12.0000000  12.0000000
 NucSpn=           0           2           1           1           1           1           1           2           0           0
 AtZEff=  -0.0000000  -0.0000000  -0.0000000  -0.0000000  -0.0000000  -0.0000000  -0.0000000  -0.0000000  -0.0000000  -0.0000000
 NQMom=    0.0000000   2.0440000   0.0000000   0.0000000   0.0000000   0.0000000   0.0000000   2.0440000   0.0000000   0.0000000
 NMagM=    0.0000000   0.4037610   2.7928460   2.7928460   2.7928460   2.7928460   2.7928460   0.4037610   0.0000000   0.0000000
 AtZNuc=   6.0000000   7.0000000   1.0000000   1.0000000   1.0000000   1.0000000   1.0000000   7.0000000   6.0000000   6.0000000

  Atom        61          62          63          64          65          66          67          68          69          70
 IAtWgt=          14           1          12          14           1          12          14          12          12          14
 AtmWgt=  14.0030740   1.0078250  12.0000000  14.0030740   1.0078250  12.0000000  14.0030740  12.0000000  12.0000000  14.0030740
 NucSpn=           2           1           0           2           1           0           2           0           0           2
 AtZEff=  -0.0000000  -0.0000000  -0.0000000  -0.0000000  -0.0000000  -0.0000000  -0.0000000  -0.0000000  -0.0000000  -0.0000000
 NQMom=    2.0440000   0.0000000   0.0000000   2.0440000   0.0000000   0.0000000   2.0440000   0.0000000   0.0000000   2.0440000
 NMagM=    0.4037610   2.7928460   0.0000000   0.4037610   2.7928460   0.0000000   0.4037610   0.0000000   0.0000000   0.4037610
 AtZNuc=   7.0000000   1.0000000   6.0000000   7.0000000   1.0000000   6.0000000   7.0000000   6.0000000   6.0000000   7.0000000
 Leave Link  101 at Fri Jan 19 19:11:13 2018, MaxMem=  4294967296 cpu:               7.5 elap:               0.3
 (Enter /share/apps/g16/l202.exe)
 Stoichiometry    C23H27N17O3
 Framework group  C1[X(C23H27N17O3)]
 Deg. of freedom   204
 Full point group                 C1      NOp   1
 Largest Abelian subgroup         C1      NOp   1
 Largest concise Abelian subgroup C1      NOp   1
                         Standard orientation:                         
 ---------------------------------------------------------------------
 Center     Atomic      Atomic             Coordinates (Angstroms)
 Number     Number       Type             X           Y           Z
 ---------------------------------------------------------------------
      1          7           0        5.169672   -1.094364   -1.437639
      2          6           0        6.491248   -0.446380   -1.545102
      3          6           0        3.001914   -1.459265   -1.367019
      4          7           0        3.609309   -2.693164   -1.184534
      5          6           0        4.890991   -2.423937   -1.234389
      6          1           0        5.684582   -3.164091   -1.127971
      7          7           0        1.387805    0.242786   -1.613232
      8          6           0        2.413056    1.090176   -1.748788
      9          1           0        2.137509    2.132313   -1.904595
     10          7           0        3.721434    0.844666   -1.720903
     11          6           0        3.950912   -0.464202   -1.524394
     12          6           0        1.651740   -1.067486   -1.416754
     13          7           0        0.629661   -1.914918   -1.281223
     14          1           0        0.778246   -2.893443   -1.134142
     15          1           0       -0.318916   -1.600753   -1.322055
     16          1           0        6.995057   -0.839262   -2.314517
     17          1           0        6.371161    0.534884   -1.692799
     18          1           0        7.006831   -0.594066   -0.701090
     19          7           0        4.952850    1.173557    1.070056
     20          6           0        3.589264    1.337577    1.027913
     21          6           0        5.947313    2.181960    0.651875
     22          7           0        0.816638    3.296570    0.295324
     23          1           0       -0.178374    3.214510    0.344854
     24          1           0        1.183944    4.158945   -0.054104
     25          7           0        2.934060    2.438649    0.600827
     26          6           0        1.622981    2.295680    0.679971
     27          7           0        0.999287    1.161972    1.141722
     28          1           0       -0.008632    1.141337    1.167040
     29          6           0        1.653422    0.017248    1.586194
     30          8           0        0.995985   -0.952692    1.983355
     31          6           0        3.062480    0.155789    1.507152
     32          7           0        4.074971   -0.732289    1.843409
     33          6           0        5.175855   -0.087012    1.567934
     34          1           0        6.181119   -0.485391    1.709427
     35          1           0        6.507277    1.812980   -0.089134
     36          1           0        5.473644    3.002057    0.333533
     37          1           0        6.532997    2.416356    1.427011
     38          1           0       -5.032553    1.429776    0.439175
     39          1           0       -5.050020    1.814983    2.158468
     40          1           0       -3.674623    2.292354    1.162604
     41          1           0       -4.478707   -2.958950    2.330969
     42          6           0       -3.887784   -2.063859    2.136432
     43          8           0       -1.801118   -3.160119    2.403249
     44          6           0       -2.459551   -2.146879    2.169552
     45          1           0       -0.798593   -0.976677    1.924247
     46          7           0       -1.808622   -0.957748    1.909737
     47          8           0       -1.722159    1.256840    1.414453
     48          6           0       -2.383737    0.256951    1.631748
     49          1           0       -5.560103   -0.777032    1.831127
     50          6           0       -4.477743   -0.893152    1.868139
     51          6           0       -4.423998    1.532044    1.325338
     52          7           0       -3.764681    0.256318    1.617853
     53          1           0       -5.890913    3.300206   -2.208791
     54          1           0       -4.591383    3.422287   -1.229809
     55          1           0       -6.079810    3.225800   -0.589469
     56          1           0       -2.748673   -3.363805   -1.324026
     57          1           0       -4.431318   -3.153584   -1.510113
     58          7           0       -3.528346   -2.740612   -1.386347
     59          6           0       -3.371978   -1.417513   -1.308026
     60          6           0       -4.115049    0.842870   -1.291676
     61          7           0       -2.890529    1.369479   -1.125367
     62          1           0       -0.947486    0.748102   -0.927686
     63          6           0       -1.972939    0.406695   -1.062438
     64          7           0       -2.127547   -0.919036   -1.140677
     65          1           0       -7.326117    0.813932   -1.666339
     66          6           0       -6.272771    0.554806   -1.555654
     67          7           0       -5.802177   -0.668397   -1.556534
     68          6           0       -4.435197   -0.500029   -1.389940
     69          6           0       -5.481164    2.983899   -1.353193
     70          7           0       -5.307127    1.519118   -1.399545
 ---------------------------------------------------------------------
 Rotational constants (GHZ):           0.1761697           0.0530498           0.0515556
 Leave Link  202 at Fri Jan 19 19:11:13 2018, MaxMem=  4294967296 cpu:               0.3 elap:               0.0
 (Enter /share/apps/g16/l301.exe)
 Standard basis: CC-pVDZ (5D, 7F)
 Ernie: Thresh=  0.10000D-02 Tol=  0.10000D-05 Strict=F.
 Ernie:  86 primitive shells out of 1081 were deleted.
 There are   780 symmetry adapted cartesian basis functions of A   symmetry.
 There are   737 symmetry adapted basis functions of A   symmetry.
   737 basis functions,  1608 primitive gaussians,   780 cartesian basis functions
   154 alpha electrons      154 beta electrons
       nuclear repulsion energy      5647.8706437669 Hartrees.
 IExCor= 4639 DFT=T Ex+Corr=wB97XD ExCW=0 ScaHFX=  1.000000
 ScaDFX=  1.000000  1.000000  1.000000  1.000000 ScalE2=  1.000000  1.000000
 IRadAn=      5 IRanWt=     -1 IRanGd=            0 ICorTp=0 IEmpDi=121
 HFx  wShort=  0.000000 wLong=  0.200000 cFull=  0.222036 cShort=  0.000000 cLong=  0.777964
 DFx  wShort=  0.000000 wLong=  0.200000 cFull=  0.000000 cShort=  0.000000 cLong=  1.000000
 NAtoms=   70 NActive=   70 NUniq=   70 SFac= 1.00D+00 NAtFMM=   60 NAOKFM=T Big=T
 Integral buffers will be    131072 words long.
 Raffenetti 2 integral format.
 Two-electron integral symmetry is turned on.
 R6Disp:  Grimme-D2 Dispersion energy=       -0.0818383615 Hartrees.
 Nuclear repulsion after empirical dispersion term =     5647.7888054055 Hartrees.
 Leave Link  301 at Fri Jan 19 19:11:13 2018, MaxMem=  4294967296 cpu:               2.1 elap:               0.1
 (Enter /share/apps/g16/l302.exe)
 NPDir=0 NMtPBC=     1 NCelOv=     1 NCel=       1 NClECP=     1 NCelD=      1
         NCelK=      1 NCelE2=     1 NClLst=     1 CellRange=     0.0.
 One-electron integrals computed using PRISM.
 One-electron integral symmetry used in STVInt
 NBasis=   737 RedAO= T EigKep=  6.09D-04  NBF=   737
 NBsUse=   737 1.00D-06 EigRej= -1.00D+00 NBFU=   737
 Precomputing XC quadrature grid using
 IXCGrd= 4 IRadAn=           5 IRanWt=          -1 IRanGd=           0 AccXCQ= 0.00D+00.
 Generated NRdTot=       0 NPtTot=           0 NUsed=           0 NTot=          32
 NSgBfM=   769   769   769   769   769 MxSgAt=    70 MxSgA2=    70.
 Leave Link  302 at Fri Jan 19 19:11:22 2018, MaxMem=  4294967296 cpu:             279.7 elap:               9.0
 (Enter /share/apps/g16/l303.exe)
 DipDrv:  MaxL=1.
 Leave Link  303 at Fri Jan 19 19:11:22 2018, MaxMem=  4294967296 cpu:              12.6 elap:               0.4
 (Enter /share/apps/g16/l401.exe)
 ExpMin= 1.22D-01 ExpMax= 1.17D+04 ExpMxC= 4.01D+02 IAcc=3 IRadAn=         5 AccDes= 0.00D+00
 Harris functional with IExCor= 4639 and IRadAn=       5 diagonalized for initial guess.
 HarFok:  IExCor= 4639 AccDes= 0.00D+00 IRadAn=         5 IDoV= 1 UseB2=F ITyADJ=14
 ICtDFT=  3500011 ScaDFX=  1.000000  1.000000  1.000000  1.000000
 FoFCou: FMM=F IPFlag=           0 FMFlag=      100000 FMFlg1=        2001
         NFxFlg=           0 DoJE=T BraDBF=F KetDBF=T FulRan=T
         wScrn=  0.000000 ICntrl=       500 IOpCl=  0 I1Cent=   200000004 NGrid=           0
         NMat0=    1 NMatS0=      1 NMatT0=    0 NMatD0=    1 NMtDS0=    0 NMtDT0=    0
 Petite list used in FoFCou.
 Harris En= -1963.84085327626    
 JPrj=0 DoOrth=F DoCkMO=F.
 Leave Link  401 at Fri Jan 19 19:11:36 2018, MaxMem=  4294967296 cpu:             415.1 elap:              13.1
 (Enter /share/apps/g16/l502.exe)
 Integral symmetry usage will be decided dynamically.
 Closed shell SCF:
 Using DIIS extrapolation, IDIIS=  1040.
 NGot=  4294967296 LenX=  4293717438 LenY=  4293108258
 Requested convergence on RMS density matrix=1.00D-08 within  20 cycles.
 Requested convergence on MAX density matrix=1.00D-06.
 Requested convergence on             energy=1.00D-06.
 No special actions if energy rises.
 Fock matrices will be formed incrementally for  20 cycles.
 Integral accuracy reduced to 1.0D-05 until final iterations.

 Cycle   1  Pass 0  IDiag  1:
 FoFJK:  IHMeth= 1 ICntrl=       0 DoSepK=T KAlg= 0 I1Cent=           0 FoldK=F
 IRaf=         1 NMat=       1 IRICut=       1 DoRegI=T DoRafI=F ISym2E= 0 IDoP0=0 IntGTp=1.
 FoFCou: FMM=T IPFlag=           0 FMFlag=      100000 FMFlg1=        2001
         NFxFlg=           0 DoJE=T BraDBF=F KetDBF=F FulRan=T
         wScrn=  0.000000 ICntrl=       500 IOpCl=  0 I1Cent=           0 NGrid=           0
         NMat0=    1 NMatS0=      1 NMatT0=    0 NMatD0=    1 NMtDS0=    0 NMtDT0=    0
 Symmetry not used in FoFCou.
 FMM levels:  10  Number of levels for PrismC:   9
 E= -2048.28514339385    
 DIIS: error= 1.80D-02 at cycle   1 NSaved=   1.
 NSaved= 1 IEnMin= 1 EnMin= -2048.28514339385     IErMin= 1 ErrMin= 1.80D-02
 ErrMax= 1.80D-02  0.00D+00 EMaxC= 1.00D-01 BMatC= 8.33D-01 BMatP= 8.33D-01
 IDIUse=3 WtCom= 8.20D-01 WtEn= 1.80D-01
 Coeff-Com:  0.100D+01
 Coeff-En:   0.100D+01
 Coeff:      0.100D+01
 Gap=     0.257 Goal=   None    Shift=    0.000
 GapD=    0.257 DampG=1.000 DampE=0.500 DampFc=0.5000 IDamp=-1.
 Damping current iteration by 5.00D-01
 RMSDP=1.61D-03 MaxDP=1.28D-01              OVMax= 2.03D-01

 Cycle   2  Pass 0  IDiag  1:
 RMSU=  8.04D-04    CP:  9.97D-01
 E= -2048.48080523644     Delta-E=       -0.195661842592 Rises=F Damp=T
 DIIS: error= 9.51D-03 at cycle   2 NSaved=   2.
 NSaved= 2 IEnMin= 2 EnMin= -2048.48080523644     IErMin= 2 ErrMin= 9.51D-03
 ErrMax= 9.51D-03  0.00D+00 EMaxC= 1.00D-01 BMatC= 1.46D-01 BMatP= 8.33D-01
 IDIUse=3 WtCom= 9.05D-01 WtEn= 9.51D-02
 Coeff-Com: -0.191D+00 0.119D+01
 Coeff-En:   0.000D+00 0.100D+01
 Coeff:     -0.173D+00 0.117D+01
 Gap=     0.295 Goal=   None    Shift=    0.000
 RMSDP=6.11D-04 MaxDP=3.56D-02 DE=-1.96D-01 OVMax= 1.31D-01

 Cycle   3  Pass 0  IDiag  1:
 RMSU=  5.99D-04    CP:  9.93D-01  1.14D+00
 E= -2048.65613796809     Delta-E=       -0.175332731649 Rises=F Damp=F
 DIIS: error= 6.49D-03 at cycle   3 NSaved=   3.
 NSaved= 3 IEnMin= 3 EnMin= -2048.65613796809     IErMin= 3 ErrMin= 6.49D-03
 ErrMax= 6.49D-03  0.00D+00 EMaxC= 1.00D-01 BMatC= 6.93D-02 BMatP= 1.46D-01
 IDIUse=3 WtCom= 9.35D-01 WtEn= 6.49D-02
 Coeff-Com: -0.236D+00 0.564D+00 0.672D+00
 Coeff-En:   0.000D+00 0.000D+00 0.100D+01
 Coeff:     -0.221D+00 0.527D+00 0.694D+00
 Gap=     0.281 Goal=   None    Shift=    0.000
 RMSDP=3.80D-04 MaxDP=3.35D-02 DE=-1.75D-01 OVMax= 6.69D-02

 Cycle   4  Pass 0  IDiag  1:
 RMSU=  2.12D-04    CP:  9.94D-01  1.43D+00  6.53D-01
 E= -2048.70810322619     Delta-E=       -0.051965258103 Rises=F Damp=F
 DIIS: error= 2.07D-03 at cycle   4 NSaved=   4.
 NSaved= 4 IEnMin= 4 EnMin= -2048.70810322619     IErMin= 4 ErrMin= 2.07D-03
 ErrMax= 2.07D-03  0.00D+00 EMaxC= 1.00D-01 BMatC= 9.78D-03 BMatP= 6.93D-02
 IDIUse=3 WtCom= 9.79D-01 WtEn= 2.07D-02
 Coeff-Com: -0.998D-01 0.194D+00 0.374D+00 0.532D+00
 Coeff-En:   0.000D+00 0.000D+00 0.656D-01 0.934D+00
 Coeff:     -0.977D-01 0.190D+00 0.368D+00 0.540D+00
 Gap=     0.282 Goal=   None    Shift=    0.000
 RMSDP=1.32D-04 MaxDP=1.11D-02 DE=-5.20D-02 OVMax= 1.53D-02

 Cycle   5  Pass 0  IDiag  1:
 RMSU=  6.32D-05    CP:  9.93D-01  1.40D+00  7.87D-01  6.17D-01
 E= -2048.71620055269     Delta-E=       -0.008097326503 Rises=F Damp=F
 DIIS: error= 5.14D-04 at cycle   5 NSaved=   5.
 NSaved= 5 IEnMin= 5 EnMin= -2048.71620055269     IErMin= 5 ErrMin= 5.14D-04
 ErrMax= 5.14D-04  0.00D+00 EMaxC= 1.00D-01 BMatC= 2.99D-04 BMatP= 9.78D-03
 IDIUse=3 WtCom= 9.95D-01 WtEn= 5.14D-03
 Coeff-Com: -0.273D-01 0.474D-01 0.124D+00 0.239D+00 0.617D+00
 Coeff-En:   0.000D+00 0.000D+00 0.000D+00 0.000D+00 0.100D+01
 Coeff:     -0.271D-01 0.471D-01 0.123D+00 0.237D+00 0.619D+00
 Gap=     0.282 Goal=   None    Shift=    0.000
 RMSDP=2.78D-05 MaxDP=1.72D-03 DE=-8.10D-03 OVMax= 3.28D-03

 Failed to achieve initial convergence to 1.0D-08 in  6 cycles.
 Switch to full accuracy anyway.
 Cycle   6  Pass 1  IDiag  1:
 E= -2048.71631129622     Delta-E=       -0.000110743522 Rises=F Damp=F
 DIIS: error= 2.67D-04 at cycle   1 NSaved=   1.
 NSaved= 1 IEnMin= 1 EnMin= -2048.71631129622     IErMin= 1 ErrMin= 2.67D-04
 ErrMax= 2.67D-04  0.00D+00 EMaxC= 1.00D-01 BMatC= 8.00D-05 BMatP= 8.00D-05
 IDIUse=3 WtCom= 9.97D-01 WtEn= 2.67D-03
 Coeff-Com:  0.100D+01
 Coeff-En:   0.100D+01
 Coeff:      0.100D+01
 Gap=     0.282 Goal=   None    Shift=    0.000
 RMSDP=2.78D-05 MaxDP=1.72D-03 DE=-1.11D-04 OVMax= 2.76D-03

 Cycle   7  Pass 1  IDiag  1:
 RMSU=  1.17D-04    CP:  1.00D+00
 E= -2048.71636231523     Delta-E=       -0.000051019011 Rises=F Damp=F
 DIIS: error= 1.93D-04 at cycle   2 NSaved=   2.
 NSaved= 2 IEnMin= 2 EnMin= -2048.71636231523     IErMin= 2 ErrMin= 1.93D-04
 ErrMax= 1.93D-04  0.00D+00 EMaxC= 1.00D-01 BMatC= 5.13D-05 BMatP= 8.00D-05
 IDIUse=3 WtCom= 9.98D-01 WtEn= 1.93D-03
 Coeff-Com:  0.426D+00 0.574D+00
 Coeff-En:   0.959D-01 0.904D+00
 Coeff:      0.425D+00 0.575D+00
 Gap=     0.283 Goal=   None    Shift=    0.000
 RMSDP=1.29D-05 MaxDP=1.04D-03 DE=-5.10D-05 OVMax= 1.83D-03

 Cycle   8  Pass 1  IDiag  1:
 RMSU=  1.27D-05    CP:  1.00D+00  1.02D+00
 E= -2048.71640102200     Delta-E=       -0.000038706768 Rises=F Damp=F
 DIIS: error= 7.10D-05 at cycle   3 NSaved=   3.
 NSaved= 3 IEnMin= 3 EnMin= -2048.71640102200     IErMin= 3 ErrMin= 7.10D-05
 ErrMax= 7.10D-05  0.00D+00 EMaxC= 1.00D-01 BMatC= 1.06D-05 BMatP= 5.13D-05
 IDIUse=1 WtCom= 1.00D+00 WtEn= 0.00D+00
 Coeff-Com: -0.172D-01 0.299D+00 0.718D+00
 Coeff:     -0.172D-01 0.299D+00 0.718D+00
 Gap=     0.282 Goal=   None    Shift=    0.000
 RMSDP=6.02D-06 MaxDP=3.67D-04 DE=-3.87D-05 OVMax= 6.60D-04

 Cycle   9  Pass 1  IDiag  1:
 RMSU=  3.94D-06    CP:  1.00D+00  1.05D+00  7.60D-01
 E= -2048.71641144735     Delta-E=       -0.000010425356 Rises=F Damp=F
 DIIS: error= 2.09D-05 at cycle   4 NSaved=   4.
 NSaved= 4 IEnMin= 4 EnMin= -2048.71641144735     IErMin= 4 ErrMin= 2.09D-05
 ErrMax= 2.09D-05  0.00D+00 EMaxC= 1.00D-01 BMatC= 5.90D-07 BMatP= 1.06D-05
 IDIUse=1 WtCom= 1.00D+00 WtEn= 0.00D+00
 Coeff-Com: -0.308D-01 0.878D-01 0.284D+00 0.659D+00
 Coeff:     -0.308D-01 0.878D-01 0.284D+00 0.659D+00
 Gap=     0.282 Goal=   None    Shift=    0.000
 RMSDP=1.49D-06 MaxDP=1.18D-04 DE=-1.04D-05 OVMax= 4.51D-04

 Cycle  10  Pass 1  IDiag  1:
 RMSU=  1.35D-06    CP:  1.00D+00  1.05D+00  7.96D-01  1.08D+00
 E= -2048.71641234568     Delta-E=       -0.000000898331 Rises=F Damp=F
 DIIS: error= 1.14D-05 at cycle   5 NSaved=   5.
 NSaved= 5 IEnMin= 5 EnMin= -2048.71641234568     IErMin= 5 ErrMin= 1.14D-05
 ErrMax= 1.14D-05  0.00D+00 EMaxC= 1.00D-01 BMatC= 1.19D-07 BMatP= 5.90D-07
 IDIUse=1 WtCom= 1.00D+00 WtEn= 0.00D+00
 Coeff-Com: -0.434D-02-0.478D-01-0.102D+00 0.199D+00 0.956D+00
 Coeff:     -0.434D-02-0.478D-01-0.102D+00 0.199D+00 0.956D+00
 Gap=     0.283 Goal=   None    Shift=    0.000
 RMSDP=1.17D-06 MaxDP=7.41D-05 DE=-8.98D-07 OVMax= 2.73D-04

 Cycle  11  Pass 1  IDiag  1:
 RMSU=  5.07D-07    CP:  1.00D+00  1.05D+00  8.04D-01  1.34D+00  1.17D+00
 E= -2048.71641260317     Delta-E=       -0.000000257488 Rises=F Damp=F
 DIIS: error= 4.57D-06 at cycle   6 NSaved=   6.
 NSaved= 6 IEnMin= 6 EnMin= -2048.71641260317     IErMin= 6 ErrMin= 4.57D-06
 ErrMax= 4.57D-06  0.00D+00 EMaxC= 1.00D-01 BMatC= 3.35D-08 BMatP= 1.19D-07
 IDIUse=1 WtCom= 1.00D+00 WtEn= 0.00D+00
 Coeff-Com:  0.466D-02-0.445D-01-0.118D+00-0.152D-01 0.528D+00 0.645D+00
 Coeff:      0.466D-02-0.445D-01-0.118D+00-0.152D-01 0.528D+00 0.645D+00
 Gap=     0.282 Goal=   None    Shift=    0.000
 RMSDP=4.19D-07 MaxDP=3.48D-05 DE=-2.57D-07 OVMax= 1.32D-04

 Cycle  12  Pass 1  IDiag  1:
 RMSU=  2.01D-07    CP:  1.00D+00  1.05D+00  8.07D-01  1.41D+00  1.32D+00
                    CP:  9.37D-01
 E= -2048.71641265176     Delta-E=       -0.000000048585 Rises=F Damp=F
 DIIS: error= 9.13D-07 at cycle   7 NSaved=   7.
 NSaved= 7 IEnMin= 7 EnMin= -2048.71641265176     IErMin= 7 ErrMin= 9.13D-07
 ErrMax= 9.13D-07  0.00D+00 EMaxC= 1.00D-01 BMatC= 7.67D-10 BMatP= 3.35D-08
 IDIUse=1 WtCom= 1.00D+00 WtEn= 0.00D+00
 Coeff-Com:  0.120D-02-0.827D-02-0.232D-01-0.111D-01 0.732D-01 0.142D+00
 Coeff-Com:  0.827D+00
 Coeff:      0.120D-02-0.827D-02-0.232D-01-0.111D-01 0.732D-01 0.142D+00
 Coeff:      0.827D+00
 Gap=     0.282 Goal=   None    Shift=    0.000
 RMSDP=8.46D-08 MaxDP=5.55D-06 DE=-4.86D-08 OVMax= 2.62D-05

 Cycle  13  Pass 1  IDiag  1:
 RMSU=  5.40D-08    CP:  1.00D+00  1.05D+00  8.07D-01  1.42D+00  1.34D+00
                    CP:  1.02D+00  1.13D+00
 E= -2048.71641265308     Delta-E=       -0.000000001321 Rises=F Damp=F
 DIIS: error= 6.09D-07 at cycle   8 NSaved=   8.
 NSaved= 8 IEnMin= 8 EnMin= -2048.71641265308     IErMin= 8 ErrMin= 6.09D-07
 ErrMax= 6.09D-07  0.00D+00 EMaxC= 1.00D-01 BMatC= 3.47D-10 BMatP= 7.67D-10
 IDIUse=1 WtCom= 1.00D+00 WtEn= 0.00D+00
 Coeff-Com: -0.704D-03 0.840D-02 0.214D-01 0.570D-04-0.110D+00-0.112D+00
 Coeff-Com:  0.411D+00 0.782D+00
 Coeff:     -0.704D-03 0.840D-02 0.214D-01 0.570D-04-0.110D+00-0.112D+00
 Coeff:      0.411D+00 0.782D+00
 Gap=     0.282 Goal=   None    Shift=    0.000
 RMSDP=5.27D-08 MaxDP=2.85D-06 DE=-1.32D-09 OVMax= 1.23D-05

 Cycle  14  Pass 1  IDiag  1:
 RMSU=  3.05D-08    CP:  1.00D+00  1.05D+00  8.06D-01  1.43D+00  1.35D+00
                    CP:  1.06D+00  1.29D+00  1.05D+00
 E= -2048.71641265368     Delta-E=       -0.000000000598 Rises=F Damp=F
 DIIS: error= 1.53D-07 at cycle   9 NSaved=   9.
 NSaved= 9 IEnMin= 9 EnMin= -2048.71641265368     IErMin= 9 ErrMin= 1.53D-07
 ErrMax= 1.53D-07  0.00D+00 EMaxC= 1.00D-01 BMatC= 3.25D-11 BMatP= 3.47D-10
 IDIUse=1 WtCom= 1.00D+00 WtEn= 0.00D+00
 Coeff-Com: -0.423D-03 0.439D-02 0.114D-01 0.144D-02-0.524D-01-0.612D-01
 Coeff-Com:  0.913D-01 0.313D+00 0.692D+00
 Coeff:     -0.423D-03 0.439D-02 0.114D-01 0.144D-02-0.524D-01-0.612D-01
 Coeff:      0.913D-01 0.313D+00 0.692D+00
 Gap=     0.282 Goal=   None    Shift=    0.000
 RMSDP=1.39D-08 MaxDP=6.59D-07 DE=-5.98D-10 OVMax= 3.42D-06

 Cycle  15  Pass 1  IDiag  1:
 RMSU=  9.87D-09    CP:  1.00D+00  1.05D+00  8.06D-01  1.43D+00  1.35D+00
                    CP:  1.07D+00  1.31D+00  1.20D+00  1.08D+00
 E= -2048.71641265391     Delta-E=       -0.000000000232 Rises=F Damp=F
 DIIS: error= 7.80D-08 at cycle  10 NSaved=  10.
 NSaved=10 IEnMin=10 EnMin= -2048.71641265391     IErMin=10 ErrMin= 7.80D-08
 ErrMax= 7.80D-08  0.00D+00 EMaxC= 1.00D-01 BMatC= 5.87D-12 BMatP= 3.25D-11
 IDIUse=1 WtCom= 1.00D+00 WtEn= 0.00D+00
 Coeff-Com: -0.749D-05-0.157D-03-0.312D-03 0.220D-03 0.357D-02 0.511D-04
 Coeff-Com: -0.539D-01-0.598D-01 0.258D+00 0.852D+00
 Coeff:     -0.749D-05-0.157D-03-0.312D-03 0.220D-03 0.357D-02 0.511D-04
 Coeff:     -0.539D-01-0.598D-01 0.258D+00 0.852D+00
 Gap=     0.282 Goal=   None    Shift=    0.000
 RMSDP=7.73D-09 MaxDP=4.07D-07 DE=-2.32D-10 OVMax= 1.85D-06

 SCF Done:  E(RwB97XD) =  -2048.71641265     A.U. after   15 cycles
            NFock= 15  Conv=0.77D-08     -V/T= 2.0052
 KE= 2.038033811085D+03 PE=-1.607601584499D+04 EE= 6.341476815846D+03
 Leave Link  502 at Fri Jan 19 19:23:59 2018, MaxMem=  4294967296 cpu:           23067.7 elap:             743.3
 (Enter /share/apps/g16/l601.exe)
 Copying SCF densities to generalized density rwf, IOpCl= 0 IROHF=0.

 **********************************************************************

            Population analysis using the SCF density.

 **********************************************************************

 Orbital symmetries:
       Occupied  (A) (A) (A) (A) (A) (A) (A) (A) (A) (A) (A) (A)
                 (A) (A) (A) (A) (A) (A) (A) (A) (A) (A) (A) (A)
                 (A) (A) (A) (A) (A) (A) (A) (A) (A) (A) (A) (A)
                 (A) (A) (A) (A) (A) (A) (A) (A) (A) (A) (A) (A)
                 (A) (A) (A) (A) (A) (A) (A) (A) (A) (A) (A) (A)
                 (A) (A) (A) (A) (A) (A) (A) (A) (A) (A) (A) (A)
                 (A) (A) (A) (A) (A) (A) (A) (A) (A) (A) (A) (A)
                 (A) (A) (A) (A) (A) (A) (A) (A) (A) (A) (A) (A)
                 (A) (A) (A) (A) (A) (A) (A) (A) (A) (A) (A) (A)
                 (A) (A) (A) (A) (A) (A) (A) (A) (A) (A) (A) (A)
                 (A) (A) (A) (A) (A) (A) (A) (A) (A) (A) (A) (A)
                 (A) (A) (A) (A) (A) (A) (A) (A) (A) (A) (A) (A)
                 (A) (A) (A) (A) (A) (A) (A) (A) (A) (A)
       Virtual   (A) (A) (A) (A) (A) (A) (A) (A) (A) (A) (A) (A)
                 (A) (A) (A) (A) (A) (A) (A) (A) (A) (A) (A) (A)
                 (A) (A) (A) (A) (A) (A) (A) (A) (A) (A) (A) (A)
                 (A) (A) (A) (A) (A) (A) (A) (A) (A) (A) (A) (A)
                 (A) (A) (A) (A) (A) (A) (A) (A) (A) (A) (A) (A)
                 (A) (A) (A) (A) (A) (A) (A) (A) (A) (A) (A) (A)
                 (A) (A) (A) (A) (A) (A) (A) (A) (A) (A) (A) (A)
                 (A) (A) (A) (A) (A) (A) (A) (A) (A) (A) (A) (A)
                 (A) (A) (A) (A) (A) (A) (A) (A) (A) (A) (A) (A)
                 (A) (A) (A) (A) (A) (A) (A) (A) (A) (A) (A) (A)
                 (A) (A) (A) (A) (A) (A) (A) (A) (A) (A) (A) (A)
                 (A) (A) (A) (A) (A) (A) (A) (A) (A) (A) (A) (A)
                 (A) (A) (A) (A) (A) (A) (A) (A) (A) (A) (A) (A)
                 (A) (A) (A) (A) (A) (A) (A) (A) (A) (A) (A) (A)
                 (A) (A) (A) (A) (A) (A) (A) (A) (A) (A) (A) (A)
                 (A) (A) (A) (A) (A) (A) (A) (A) (A) (A) (A) (A)
                 (A) (A) (A) (A) (A) (A) (A) (A) (A) (A) (A) (A)
                 (A) (A) (A) (A) (A) (A) (A) (A) (A) (A) (A) (A)
                 (A) (A) (A) (A) (A) (A) (A) (A) (A) (A) (A) (A)
                 (A) (A) (A) (A) (A) (A) (A) (A) (A) (A) (A) (A)
                 (A) (A) (A) (A) (A) (A) (A) (A) (A) (A) (A) (A)
                 (A) (A) (A) (A) (A) (A) (A) (A) (A) (A) (A) (A)
                 (A) (A) (A) (A) (A) (A) (A) (A) (A) (A) (A) (A)
                 (A) (A) (A) (A) (A) (A) (A) (A) (A) (A) (A) (A)
                 (A) (A) (A) (A) (A) (A) (A) (A) (A) (A) (A) (A)
                 (A) (A) (A) (A) (A) (A) (A) (A) (A) (A) (A) (A)
                 (A) (A) (A) (A) (A) (A) (A) (A) (A) (A) (A) (A)
                 (A) (A) (A) (A) (A) (A) (A) (A) (A) (A) (A) (A)
                 (A) (A) (A) (A) (A) (A) (A) (A) (A) (A) (A) (A)
                 (A) (A) (A) (A) (A) (A) (A) (A) (A) (A) (A) (A)
                 (A) (A) (A) (A) (A) (A) (A) (A) (A) (A) (A) (A)
                 (A) (A) (A) (A) (A) (A) (A) (A) (A) (A) (A) (A)
                 (A) (A) (A) (A) (A) (A) (A) (A) (A) (A) (A) (A)
                 (A) (A) (A) (A) (A) (A) (A) (A) (A) (A) (A) (A)
                 (A) (A) (A) (A) (A) (A) (A) (A) (A) (A) (A) (A)
                 (A) (A) (A) (A) (A) (A) (A) (A) (A) (A) (A) (A)
                 (A) (A) (A) (A) (A) (A) (A) (A) (A) (A) (A) (A)
                 (A) (A) (A) (A) (A) (A) (A) (A) (A) (A) (A) (A)
                 (A) (A) (A) (A) (A) (A) (A) (A) (A) (A) (A) (A)
                 (A) (A) (A) (A) (A) (A) (A) (A) (A) (A) (A) (A)
                 (A) (A) (A) (A) (A) (A) (A) (A) (A) (A) (A) (A)
                 (A) (A) (A) (A) (A) (A) (A) (A) (A) (A) (A) (A)
                 (A) (A) (A) (A) (A) (A) (A) (A) (A) (A) (A) (A)
                 (A) (A) (A) (A) (A) (A) (A) (A) (A) (A) (A) (A)
                 (A) (A) (A) (A) (A) (A) (A) (A) (A) (A) (A) (A)
                 (A) (A) (A) (A) (A) (A) (A) (A) (A) (A) (A) (A)
                 (A) (A) (A) (A) (A) (A) (A) (A) (A) (A) (A) (A)
                 (A) (A) (A) (A) (A) (A) (A) (A) (A) (A) (A) (A)
                 (A) (A) (A) (A) (A) (A) (A)
 The electronic state is 1-A.
 Alpha  occ. eigenvalues --  -19.25003 -19.21384 -19.20564 -14.52769 -14.51685
 Alpha  occ. eigenvalues --  -14.49023 -14.48926 -14.48391 -14.47173 -14.46627
 Alpha  occ. eigenvalues --  -14.46496 -14.45849 -14.44764 -14.44542 -14.43004
 Alpha  occ. eigenvalues --  -14.41716 -14.41495 -14.41188 -14.41131 -14.40879
 Alpha  occ. eigenvalues --  -10.44678 -10.40957 -10.40309 -10.39489 -10.38356
 Alpha  occ. eigenvalues --  -10.38157 -10.37509 -10.37068 -10.36303 -10.36001
 Alpha  occ. eigenvalues --  -10.34532 -10.34315 -10.34206 -10.33667 -10.33658
 Alpha  occ. eigenvalues --  -10.33510 -10.33470 -10.32991 -10.31727 -10.31022
 Alpha  occ. eigenvalues --  -10.30477 -10.28771 -10.28182  -1.18855  -1.15909
 Alpha  occ. eigenvalues --   -1.13164  -1.12407  -1.11597  -1.10648  -1.09702
 Alpha  occ. eigenvalues --   -1.08643  -1.08479  -1.05618  -1.05187  -1.01836
 Alpha  occ. eigenvalues --   -1.01522  -1.01012  -0.99634  -0.98451  -0.97423
 Alpha  occ. eigenvalues --   -0.97194  -0.96651  -0.93313  -0.90348  -0.88151
 Alpha  occ. eigenvalues --   -0.86459  -0.84549  -0.84054  -0.83041  -0.82898
 Alpha  occ. eigenvalues --   -0.82479  -0.78208  -0.77478  -0.75311  -0.74653
 Alpha  occ. eigenvalues --   -0.73618  -0.73301  -0.72729  -0.71529  -0.70837
 Alpha  occ. eigenvalues --   -0.67392  -0.67197  -0.66774  -0.66034  -0.64676
 Alpha  occ. eigenvalues --   -0.64305  -0.63787  -0.63244  -0.62554  -0.62267
 Alpha  occ. eigenvalues --   -0.61755  -0.61050  -0.60835  -0.59961  -0.59029
 Alpha  occ. eigenvalues --   -0.58537  -0.58406  -0.58178  -0.57093  -0.56290
 Alpha  occ. eigenvalues --   -0.55806  -0.55736  -0.55489  -0.54492  -0.54142
 Alpha  occ. eigenvalues --   -0.54056  -0.53913  -0.53293  -0.53279  -0.52918
 Alpha  occ. eigenvalues --   -0.52858  -0.52136  -0.51710  -0.51016  -0.50442
 Alpha  occ. eigenvalues --   -0.50354  -0.49971  -0.49394  -0.49162  -0.48838
 Alpha  occ. eigenvalues --   -0.48508  -0.48124  -0.48073  -0.47949  -0.47343
 Alpha  occ. eigenvalues --   -0.47006  -0.45885  -0.45150  -0.45057  -0.42598
 Alpha  occ. eigenvalues --   -0.41329  -0.41147  -0.38846  -0.37977  -0.37695
 Alpha  occ. eigenvalues --   -0.37640  -0.37117  -0.36758  -0.35994  -0.35074
 Alpha  occ. eigenvalues --   -0.34735  -0.34329  -0.34046  -0.33481  -0.32868
 Alpha  occ. eigenvalues --   -0.32470  -0.32362  -0.31824  -0.31216  -0.31169
 Alpha  occ. eigenvalues --   -0.30701  -0.30062  -0.26550  -0.24979
 Alpha virt. eigenvalues --    0.03271   0.03917   0.06827   0.07230   0.08444
 Alpha virt. eigenvalues --    0.09041   0.09829   0.09964   0.11069   0.12809
 Alpha virt. eigenvalues --    0.13088   0.13372   0.14130   0.14345   0.14623
 Alpha virt. eigenvalues --    0.15132   0.16187   0.17587   0.18021   0.18120
 Alpha virt. eigenvalues --    0.18169   0.19172   0.19797   0.20294   0.20566
 Alpha virt. eigenvalues --    0.20601   0.20955   0.21109   0.21757   0.22153
 Alpha virt. eigenvalues --    0.22380   0.23092   0.23123   0.23657   0.23966
 Alpha virt. eigenvalues --    0.24153   0.24437   0.25112   0.25557   0.26542
 Alpha virt. eigenvalues --    0.27017   0.27790   0.27994   0.28020   0.28619
 Alpha virt. eigenvalues --    0.28766   0.28969   0.29697   0.30634   0.31084
 Alpha virt. eigenvalues --    0.31578   0.32119   0.32697   0.33342   0.33601
 Alpha virt. eigenvalues --    0.34115   0.34930   0.35618   0.36016   0.36607
 Alpha virt. eigenvalues --    0.36959   0.37144   0.37753   0.38568   0.38957
 Alpha virt. eigenvalues --    0.39115   0.39987   0.40820   0.41529   0.41932
 Alpha virt. eigenvalues --    0.42094   0.42665   0.43498   0.43693   0.44383
 Alpha virt. eigenvalues --    0.45404   0.46003   0.46248   0.46437   0.46760
 Alpha virt. eigenvalues --    0.47485   0.47756   0.48595   0.48646   0.49354
 Alpha virt. eigenvalues --    0.49564   0.50421   0.50904   0.51161   0.51532
 Alpha virt. eigenvalues --    0.51985   0.52786   0.53305   0.53813   0.54085
 Alpha virt. eigenvalues --    0.54210   0.54912   0.55213   0.55788   0.56125
 Alpha virt. eigenvalues --    0.56510   0.56823   0.56902   0.57408   0.57902
 Alpha virt. eigenvalues --    0.58176   0.58361   0.58639   0.58937   0.59629
 Alpha virt. eigenvalues --    0.60370   0.61099   0.61322   0.61508   0.61858
 Alpha virt. eigenvalues --    0.62227   0.62903   0.63608   0.63922   0.64347
 Alpha virt. eigenvalues --    0.64630   0.64979   0.65366   0.65900   0.66255
 Alpha virt. eigenvalues --    0.66434   0.66867   0.67156   0.67992   0.68216
 Alpha virt. eigenvalues --    0.68959   0.69335   0.70101   0.70345   0.70617
 Alpha virt. eigenvalues --    0.70810   0.71131   0.71532   0.71874   0.72993
 Alpha virt. eigenvalues --    0.73074   0.73305   0.74006   0.74201   0.74565
 Alpha virt. eigenvalues --    0.74838   0.74942   0.75727   0.75801   0.75913
 Alpha virt. eigenvalues --    0.76465   0.76816   0.76962   0.77269   0.78061
 Alpha virt. eigenvalues --    0.78217   0.78822   0.79172   0.79618   0.79715
 Alpha virt. eigenvalues --    0.79840   0.80000   0.80592   0.81611   0.81702
 Alpha virt. eigenvalues --    0.81819   0.82330   0.82815   0.83207   0.83860
 Alpha virt. eigenvalues --    0.84455   0.84551   0.84872   0.85284   0.85587
 Alpha virt. eigenvalues --    0.86002   0.86806   0.87045   0.87177   0.88075
 Alpha virt. eigenvalues --    0.88657   0.89265   0.89311   0.89897   0.90139
 Alpha virt. eigenvalues --    0.90737   0.91232   0.91926   0.92421   0.92751
 Alpha virt. eigenvalues --    0.93401   0.93948   0.94706   0.94990   0.95321
 Alpha virt. eigenvalues --    0.95857   0.96487   0.96933   0.97373   0.97693
 Alpha virt. eigenvalues --    0.98378   0.98658   0.98969   0.99517   0.99818
 Alpha virt. eigenvalues --    1.00758   1.01143   1.01906   1.02050   1.02750
 Alpha virt. eigenvalues --    1.02892   1.03489   1.03837   1.04167   1.04889
 Alpha virt. eigenvalues --    1.05083   1.05260   1.06122   1.06499   1.07142
 Alpha virt. eigenvalues --    1.07272   1.07838   1.09050   1.09541   1.09854
 Alpha virt. eigenvalues --    1.10515   1.10989   1.11341   1.11972   1.12173
 Alpha virt. eigenvalues --    1.12518   1.13295   1.14156   1.14370   1.14671
 Alpha virt. eigenvalues --    1.15217   1.15471   1.16156   1.16699   1.16975
 Alpha virt. eigenvalues --    1.17331   1.17730   1.18158   1.18603   1.19276
 Alpha virt. eigenvalues --    1.19371   1.19920   1.20016   1.20405   1.21113
 Alpha virt. eigenvalues --    1.21636   1.21816   1.22312   1.22701   1.23000
 Alpha virt. eigenvalues --    1.23584   1.23767   1.24435   1.24764   1.24997
 Alpha virt. eigenvalues --    1.25155   1.25333   1.26601   1.26924   1.27242
 Alpha virt. eigenvalues --    1.27797   1.28564   1.29174   1.29581   1.29916
 Alpha virt. eigenvalues --    1.30608   1.31276   1.31505   1.32209   1.32664
 Alpha virt. eigenvalues --    1.33574   1.34174   1.35014   1.35569   1.36262
 Alpha virt. eigenvalues --    1.36520   1.37336   1.37651   1.38663   1.38861
 Alpha virt. eigenvalues --    1.39931   1.40130   1.40701   1.41274   1.42588
 Alpha virt. eigenvalues --    1.43547   1.44410   1.44862   1.45850   1.46385
 Alpha virt. eigenvalues --    1.47227   1.47525   1.48426   1.49427   1.49866
 Alpha virt. eigenvalues --    1.50433   1.50733   1.51846   1.52068   1.53183
 Alpha virt. eigenvalues --    1.54384   1.54768   1.55802   1.56405   1.56770
 Alpha virt. eigenvalues --    1.57710   1.58235   1.58716   1.59524   1.60328
 Alpha virt. eigenvalues --    1.60887   1.61336   1.61561   1.61982   1.62953
 Alpha virt. eigenvalues --    1.63176   1.63501   1.64369   1.65119   1.65524
 Alpha virt. eigenvalues --    1.66272   1.66626   1.67365   1.67763   1.68684
 Alpha virt. eigenvalues --    1.68813   1.68994   1.69932   1.70142   1.70636
 Alpha virt. eigenvalues --    1.71060   1.71203   1.71455   1.71793   1.72180
 Alpha virt. eigenvalues --    1.72444   1.73372   1.73919   1.74541   1.74827
 Alpha virt. eigenvalues --    1.75204   1.75436   1.75803   1.76219   1.76576
 Alpha virt. eigenvalues --    1.77063   1.77222   1.77439   1.77666   1.78025
 Alpha virt. eigenvalues --    1.78606   1.79082   1.79405   1.80159   1.80678
 Alpha virt. eigenvalues --    1.80856   1.81612   1.81838   1.82713   1.83141
 Alpha virt. eigenvalues --    1.83444   1.83587   1.84037   1.84133   1.84814
 Alpha virt. eigenvalues --    1.85133   1.85409   1.86249   1.86469   1.86783
 Alpha virt. eigenvalues --    1.87566   1.88054   1.88218   1.88713   1.89626
 Alpha virt. eigenvalues --    1.89846   1.90379   1.90448   1.91005   1.91630
 Alpha virt. eigenvalues --    1.91853   1.92499   1.92708   1.93172   1.93388
 Alpha virt. eigenvalues --    1.94802   1.94878   1.95360   1.96286   1.96835
 Alpha virt. eigenvalues --    1.97308   1.97859   1.98967   1.99153   2.00789
 Alpha virt. eigenvalues --    2.01628   2.01850   2.02398   2.02691   2.03122
 Alpha virt. eigenvalues --    2.03416   2.04846   2.05396   2.05528   2.06581
 Alpha virt. eigenvalues --    2.06941   2.07552   2.08337   2.09103   2.10008
 Alpha virt. eigenvalues --    2.10356   2.10767   2.11863   2.11884   2.12828
 Alpha virt. eigenvalues --    2.13157   2.13960   2.14209   2.15062   2.15921
 Alpha virt. eigenvalues --    2.16870   2.18139   2.18635   2.19023   2.19441
 Alpha virt. eigenvalues --    2.20149   2.21062   2.21479   2.22248   2.22988
 Alpha virt. eigenvalues --    2.23371   2.24231   2.24418   2.25090   2.25366
 Alpha virt. eigenvalues --    2.26000   2.26190   2.26633   2.27912   2.28135
 Alpha virt. eigenvalues --    2.28887   2.29407   2.29972   2.30430   2.30675
 Alpha virt. eigenvalues --    2.31394   2.32220   2.33301   2.33572   2.33916
 Alpha virt. eigenvalues --    2.34308   2.34676   2.35137   2.35664   2.35941
 Alpha virt. eigenvalues --    2.36454   2.36607   2.38039   2.38488   2.38957
 Alpha virt. eigenvalues --    2.39049   2.40037   2.41658   2.41801   2.42246
 Alpha virt. eigenvalues --    2.43519   2.43568   2.43931   2.44588   2.44997
 Alpha virt. eigenvalues --    2.45898   2.46241   2.46743   2.47854   2.49379
 Alpha virt. eigenvalues --    2.49412   2.50841   2.51070   2.52174   2.53076
 Alpha virt. eigenvalues --    2.53694   2.54992   2.56552   2.57054   2.57410
 Alpha virt. eigenvalues --    2.58776   2.59739   2.60706   2.61426   2.61923
 Alpha virt. eigenvalues --    2.63176   2.63481   2.64126   2.65415   2.65727
 Alpha virt. eigenvalues --    2.65817   2.66353   2.67155   2.67698   2.67728
 Alpha virt. eigenvalues --    2.68608   2.69472   2.70042   2.71120   2.71741
 Alpha virt. eigenvalues --    2.72069   2.72936   2.73551   2.73801   2.74858
 Alpha virt. eigenvalues --    2.75876   2.76503   2.76615   2.77181   2.77994
 Alpha virt. eigenvalues --    2.78789   2.79109   2.79912   2.80632   2.80769
 Alpha virt. eigenvalues --    2.80915   2.81507   2.82060   2.82219   2.82748
 Alpha virt. eigenvalues --    2.83423   2.83659   2.84968   2.85316   2.85609
 Alpha virt. eigenvalues --    2.86225   2.86834   2.87303   2.87502   2.88151
 Alpha virt. eigenvalues --    2.89043   2.89466   2.90779   2.94568   2.95122
 Alpha virt. eigenvalues --    2.95771   2.99083   3.00056   3.00252   3.00950
 Alpha virt. eigenvalues --    3.02058   3.03156   3.03808   3.05397   3.07640
 Alpha virt. eigenvalues --    3.08506   3.10562   3.11479   3.13941   3.15416
 Alpha virt. eigenvalues --    3.16120   3.17083   3.17746   3.19483   3.21445
 Alpha virt. eigenvalues --    3.21903   3.23689   3.24590   3.24865   3.28197
 Alpha virt. eigenvalues --    3.44557   3.47280   3.48396   3.49169   3.51321
 Alpha virt. eigenvalues --    3.53262   3.54884   3.56781   3.58806   3.60637
 Alpha virt. eigenvalues --    3.64439   3.71959   3.76086
          Condensed to atoms (all electrons):
 Mulliken charges:
               1
     1  N   -0.297927
     2  C    0.174810
     3  C    0.081148
     4  N   -0.254358
     5  C    0.138539
     6  H    0.025635
     7  N   -0.279943
     8  C    0.133296
     9  H    0.006575
    10  N   -0.271830
    11  C    0.217007
    12  C    0.067545
    13  N   -0.047563
    14  H    0.111182
    15  H    0.083961
    16  H    0.028330
    17  H    0.041391
    18  H    0.012304
    19  N   -0.287676
    20  C    0.234478
    21  C    0.195106
    22  N   -0.106997
    23  H    0.120375
    24  H    0.117844
    25  N   -0.273801
    26  C    0.184824
    27  N   -0.108350
    28  H    0.115207
    29  C    0.165201
    30  O   -0.320486
    31  C    0.004908
    32  N   -0.212659
    33  C    0.100481
    34  H    0.022352
    35  H   -0.004679
    36  H    0.033631
    37  H    0.023472
    38  H    0.052078
    39  H    0.046819
    40  H    0.077521
    41  H    0.024259
    42  C   -0.100745
    43  O   -0.269175
    44  C    0.170283
    45  H    0.128528
    46  N   -0.110542
    47  O   -0.341200
    48  C    0.324866
    49  H    0.044840
    50  C    0.164560
    51  C    0.050352
    52  N   -0.274221
    53  H    0.038174
    54  H    0.042983
    55  H    0.028138
    56  H    0.123966
    57  H    0.119766
    58  N   -0.059762
    59  C    0.101082
    60  C    0.169460
    61  N   -0.252976
    62  H    0.006251
    63  C    0.179496
    64  N   -0.300807
    65  H    0.035778
    66  C    0.121058
    67  N   -0.249162
    68  C    0.059075
    69  C    0.177455
    70  N   -0.301538
 Sum of Mulliken charges =  -0.00000
 Mulliken charges with hydrogens summed into heavy atoms:
               1
     1  N   -0.297927
     2  C    0.256835
     3  C    0.081148
     4  N   -0.254358
     5  C    0.164175
     7  N   -0.279943
     8  C    0.139871
    10  N   -0.271830
    11  C    0.217007
    12  C    0.067545
    13  N    0.147581
    19  N   -0.287676
    20  C    0.234478
    21  C    0.247530
    22  N    0.131221
    25  N   -0.273801
    26  C    0.184824
    27  N    0.006857
    29  C    0.165201
    30  O   -0.320486
    31  C    0.004908
    32  N   -0.212659
    33  C    0.122833
    42  C   -0.076485
    43  O   -0.269175
    44  C    0.170283
    46  N    0.017986
    47  O   -0.341200
    48  C    0.324866
    50  C    0.209400
    51  C    0.226770
    52  N   -0.274221
    58  N    0.183971
    59  C    0.101082
    60  C    0.169460
    61  N   -0.252976
    63  C    0.185747
    64  N   -0.300807
    66  C    0.156836
    67  N   -0.249162
    68  C    0.059075
    69  C    0.286750
    70  N   -0.301538
 Electronic spatial extent (au):  <R**2>=          21758.1520
 Charge=             -0.0000 electrons
 Dipole moment (field-independent basis, Debye):
    X=             -5.7582    Y=              7.0397    Z=             -3.6539  Tot=              9.8012
 Quadrupole moment (field-independent basis, Debye-Ang):
   XX=           -149.1754   YY=           -229.0079   ZZ=           -259.6008
   XY=             -6.8607   XZ=             -4.4683   YZ=             13.8247
 Traceless Quadrupole moment (field-independent basis, Debye-Ang):
   XX=             63.4193   YY=            -16.4132   ZZ=            -47.0061
   XY=             -6.8607   XZ=             -4.4683   YZ=             13.8247
 Octapole moment (field-independent basis, Debye-Ang**2):
  XXX=             91.1141  YYY=             82.2923  ZZZ=             -6.4991  XYY=            -87.4261
  XXY=            107.0739  XXZ=            -22.9164  XZZ=            -31.6957  YZZ=             32.6294
  YYZ=            -66.7073  XYZ=             30.6654
 Hexadecapole moment (field-independent basis, Debye-Ang**3):
 XXXX=         -16417.0075 YYYY=          -3776.6932 ZZZZ=          -3555.0051 XXXY=           -687.0871
 XXXZ=           -157.1339 YYYX=             48.9141 YYYZ=            112.8759 ZZZX=            -33.5419
 ZZZY=             51.3246 XXYY=          -3684.0200 XXZZ=          -4013.0269 YYZZ=          -1339.6867
 XXYZ=            -31.1242 YYXZ=            143.8537 ZZXY=            -38.9216
 N-N= 5.647788805405D+03 E-N=-1.607601582664D+04  KE= 2.038033811085D+03
 No NMR shielding tensors so no spin-rotation constants.
 Leave Link  601 at Fri Jan 19 19:24:01 2018, MaxMem=  4294967296 cpu:              45.2 elap:               1.6
 (Enter /share/apps/g16/l9999.exe)
 1\1\GINC-COMPUTE-0-3\SP\RwB97XD\CC-pVDZ\C23H27N17O3\SATYA\19-Jan-2018\
 0\\#p wb97xd/cc-pvdz sp scf=(maxcycles=20)\\Base pair stacking\\0,1\N,
 0,0.33295,3.69632,-6.41038\C,0,0.34099,5.16293,-6.24611\C,0,-0.26345,1
 .57934,-6.40622\N,0,1.02012,1.61989,-6.93114\C,0,1.32805,2.89367,-6.91
 264\H,0,2.27647,3.3073,-7.25666\N,0,-2.35677,0.81937,-5.62943\C,0,-2.6
 3856,2.0997,-5.36688\H,0,-3.62392,2.28081,-4.93966\N,0,-1.88942,3.1848
 ,-5.55196\C,0,-0.70034,2.85159,-6.08061\C,0,-1.15219,0.51683,-6.16097\
 N,0,-0.86905,-0.76064,-6.42376\H,0,0.01037,-1.03059,-6.81742\H,0,-1.52
 596,-1.49102,-6.2362\H,0,0.46959,5.59879,-7.13699\H,0,-0.52887,5.45986
 ,-5.85331\H,0,1.08792,5.42804,-5.63635\N,0,-0.23958,3.9494,-3.08064\C,
 0,-0.95696,2.78515,-2.94673\C,0,-0.79685,5.31269,-2.97294\N,0,-3.97258
 ,1.15881,-2.37853\H,0,-4.30282,0.21729,-2.31755\H,0,-4.64767,1.88567,-
 2.24956\N,0,-2.28082,2.69172,-2.69629\C,0,-2.68258,1.43524,-2.62227\N,
 0,-1.85295,0.35173,-2.78108\H,0,-2.24732,-0.57352,-2.70792\C,0,-0.4877
 2,0.42429,-3.03939\O,0,0.17119,-0.61523,-3.1658\C,0,-0.04146,1.76778,-
 3.12169\N,0,1.22519,2.28295,-3.36062\C,0,1.05946,3.57741,-3.32715\H,0,
 1.85409,4.30924,-3.47638\H,0,-0.6488,5.80381,-3.83066\H,0,-1.77699,5.2
 5613,-2.7875\H,0,-0.34526,5.80121,-2.22714\H,0,-4.93404,-4.88735,-2.86
 658\H,0,-4.38197,-5.04845,-1.20107\H,0,-4.66204,-3.447,-1.88537\H,0,-0
 .42616,-6.41117,-3.57618\C,0,-0.95558,-5.49563,-3.31213\O,0,0.88537,-4
 .07634,-3.78507\C,0,-0.27717,-4.23988,-3.41553\H,0,-0.59233,-2.23982,-
 3.1176\N,0,-1.03742,-3.14482,-3.05761\O,0,-2.93098,-2.12315,-2.33111\C
 ,0,-2.3402,-3.14721,-2.626\H,0,-2.78681,-6.45916,-2.79833\C,0,-2.22632
 ,-5.53018,-2.89426\C,0,-4.31733,-4.44836,-2.09649\N,0,-2.92563,-4.3958
 5,-2.55273\H,0,-8.02923,-4.48599,-4.09366\H,0,-7.09185,-3.42938,-3.276
 97\H,0,-7.24905,-4.9634,-2.74206\H,0,-1.20486,-4.37486,-7.0059\H,0,-2.
 16252,-5.78552,-6.95074\N,0,-2.03663,-4.82878,-6.68612\C,0,-2.9385,-4.
 18767,-5.93994\C,0,-4.96106,-3.98726,-4.70267\N,0,-4.76568,-2.70252,-4
 .36253\H,0,-3.38039,-1.21738,-4.63809\C,0,-3.61751,-2.25543,-4.86721\N
 ,0,-2.71286,-2.89598,-5.6148\H,0,-6.47118,-6.84267,-4.83808\C,0,-5.777
 57,-6.00803,-4.94398\N,0,-4.6504,-6.05582,-5.61098\C,0,-4.12269,-4.780
 97,-5.46601\C,0,-7.19269,-4.38409,-3.55532\N,0,-6.02868,-4.78634,-4.36
 852\\Version=EM64L-G16RevA.03\State=1-A\HF=-2048.7164127\RMSD=7.730e-0
 9\Dipole=-3.7689603,-0.731915,0.3588591\Quadrupole=-13.2369313,31.9047
 076,-18.6677763,29.2193435,-17.579081,-2.4136466\PG=C01 [X(C23H27N17O3
 )]\\@


 GOORD'S AXIOM:  A MEETING IS AN EVENT AT WHICH
 THE MINUTES ARE KEPT AND THE HOURS ARE LOST.
 Job cpu time:       0 days  6 hours 37 minutes 15.3 seconds.
 Elapsed time:       0 days  0 hours 12 minutes 48.0 seconds.
 File lengths (MBytes):  RWF=    298 Int=      0 D2E=      0 Chk=     33 Scr=      1
 Normal termination of Gaussian 16 at Fri Jan 19 19:24:01 2018.
