 Entering Gaussian System, Link 0=g16
 Input=str20.-15.-2.5.com
 Output=str20.-15.-2.5.log
 Initial command:
 /share/apps/g16/l1.exe "/state/partition1/scr/Gau-3634.inp" -scrdir="/state/partition1/scr/"
 Entering Link 1 = /share/apps/g16/l1.exe PID=      3635.
  
 Copyright (c) 1988,1990,1992,1993,1995,1998,2003,2009,2016,
            Gaussian, Inc.  All Rights Reserved.
  
 This is part of the Gaussian(R) 16 program.  It is based on
 the Gaussian(R) 09 system (copyright 2009, Gaussian, Inc.),
 the Gaussian(R) 03 system (copyright 2003, Gaussian, Inc.),
 the Gaussian(R) 98 system (copyright 1998, Gaussian, Inc.),
 the Gaussian(R) 94 system (copyright 1995, Gaussian, Inc.),
 the Gaussian 92(TM) system (copyright 1992, Gaussian, Inc.),
 the Gaussian 90(TM) system (copyright 1990, Gaussian, Inc.),
 the Gaussian 88(TM) system (copyright 1988, Gaussian, Inc.),
 the Gaussian 86(TM) system (copyright 1986, Carnegie Mellon
 University), and the Gaussian 82(TM) system (copyright 1983,
 Carnegie Mellon University). Gaussian is a federally registered
 trademark of Gaussian, Inc.
  
 This software contains proprietary and confidential information,
 including trade secrets, belonging to Gaussian, Inc.
  
 This software is provided under written license and may be
 used, copied, transmitted, or stored only in accord with that
 written license.
  
 The following legend is applicable only to US Government
 contracts under FAR:
  
                    RESTRICTED RIGHTS LEGEND
  
 Use, reproduction and disclosure by the US Government is
 subject to restrictions as set forth in subparagraphs (a)
 and (c) of the Commercial Computer Software - Restricted
 Rights clause in FAR 52.227-19.
  
 Gaussian, Inc.
 340 Quinnipiac St., Bldg. 40, Wallingford CT 06492
  
  
 ---------------------------------------------------------------
 Warning -- This program may not be used in any manner that
 competes with the business of Gaussian, Inc. or will provide
 assistance to any competitor of Gaussian, Inc.  The licensee
 of this program is prohibited from giving any competitor of
 Gaussian, Inc. access to this program.  By using this program,
 the user acknowledges that Gaussian, Inc. is engaged in the
 business of creating and licensing software in the field of
 computational chemistry and represents and warrants to the
 licensee that it is not a competitor of Gaussian, Inc. and that
 it will not use this program in any manner prohibited above.
 ---------------------------------------------------------------
  

 Cite this work as:
 Gaussian 16, Revision A.03,
 M. J. Frisch, G. W. Trucks, H. B. Schlegel, G. E. Scuseria, 
 M. A. Robb, J. R. Cheeseman, G. Scalmani, V. Barone, 
 G. A. Petersson, H. Nakatsuji, X. Li, M. Caricato, A. V. Marenich, 
 J. Bloino, B. G. Janesko, R. Gomperts, B. Mennucci, H. P. Hratchian, 
 J. V. Ortiz, A. F. Izmaylov, J. L. Sonnenberg, D. Williams-Young, 
 F. Ding, F. Lipparini, F. Egidi, J. Goings, B. Peng, A. Petrone, 
 T. Henderson, D. Ranasinghe, V. G. Zakrzewski, J. Gao, N. Rega, 
 G. Zheng, W. Liang, M. Hada, M. Ehara, K. Toyota, R. Fukuda, 
 J. Hasegawa, M. Ishida, T. Nakajima, Y. Honda, O. Kitao, H. Nakai, 
 T. Vreven, K. Throssell, J. A. Montgomery, Jr., J. E. Peralta, 
 F. Ogliaro, M. J. Bearpark, J. J. Heyd, E. N. Brothers, K. N. Kudin, 
 V. N. Staroverov, T. A. Keith, R. Kobayashi, J. Normand, 
 K. Raghavachari, A. P. Rendell, J. C. Burant, S. S. Iyengar, 
 J. Tomasi, M. Cossi, J. M. Millam, M. Klene, C. Adamo, R. Cammi, 
 J. W. Ochterski, R. L. Martin, K. Morokuma, O. Farkas, 
 J. B. Foresman, and D. J. Fox, Gaussian, Inc., Wallingford CT, 2016.
 
 ******************************************
 Gaussian 16:  EM64L-G16RevA.03 25-Dec-2016
                19-Jan-2018 
 ******************************************
 %nprocshared=32
 Will use up to   32 processors via shared memory.
 %mem=32GB
 %chk=allatoms_t.chk
 ---------------------------------------
 #p wb97xd/cc-pvdz sp scf=(maxcycles=20)
 ---------------------------------------
 1/38=1,172=1/1;
 2/12=2,17=6,18=5,40=1/2;
 3/5=16,11=2,25=1,30=1,74=-58/1,2,3;
 4//1;
 5/5=2,7=20,38=5/2;
 6/7=2,8=2,9=2,10=2,28=1/1;
 99/5=1,9=1/99;
 Leave Link    1 at Fri Jan 19 21:23:57 2018, MaxMem=  4294967296 cpu:               2.7 elap:               0.1
 (Enter /share/apps/g16/l101.exe)
 ------------------
 Base pair stacking
 ------------------
 Symbolic Z-matrix:
 Charge =  0 Multiplicity = 1
 N                     2.61095   10.12641  -6.86699 
 C                     2.61899   11.59302  -6.70273 
 C                     2.01454   8.00943  -6.86284 
 N                     3.29811   8.04998  -7.38776 
 C                     3.60605   9.32376  -7.36925 
 H                     4.55447   9.73739  -7.71327 
 N                    -0.07878   7.24946  -6.08605 
 C                    -0.36057   8.52979  -5.82349 
 H                    -1.34593   8.7109   -5.39627 
 N                     0.38857   9.61489  -6.00857 
 C                     1.57766   9.28168  -6.53722 
 C                     1.1258    6.94692  -6.61759 
 N                     1.40894   5.66944  -6.88037 
 H                     2.28836   5.3995   -7.27404 
 H                     0.75204   4.93907  -6.69281 
 H                     2.74759   12.02888  -7.59361 
 H                     1.74912   11.88995  -6.30992 
 H                     3.36591   11.85813  -6.09296 
 N                     0.35781   7.36698  -3.15889 
 C                    -0.35957   6.20272  -3.02498 
 C                    -0.19945   8.73026  -3.05119 
 N                    -3.37518   4.57638  -2.45678 
 H                    -3.70542   3.63486  -2.3958 
 H                    -4.05028   5.30325  -2.32781 
 N                    -1.68343   6.10929  -2.77454 
 C                    -2.08519   4.85282  -2.70053 
 N                    -1.25556   3.7693   -2.85933 
 H                    -1.64993   2.84405  -2.78618 
 C                     0.10968   3.84186  -3.11764 
 O                     0.76858   2.80234  -3.24406 
 C                     0.55593   5.18535  -3.19994 
 N                     1.82258   5.70053  -3.43887 
 C                     1.65685   6.99499  -3.4054 
 H                     2.45148   7.72681  -3.55463 
 H                    -0.0514    9.22139  -3.90891 
 H                    -1.1796    8.67371  -2.86575 
 H                     0.25214   9.21879  -2.30539 
 H                    -4.33665  -1.46977  -2.94483 
 H                    -3.78458  -1.63088  -1.27932 
 H                    -4.06464  -0.02942  -1.96362 
 H                     0.17124  -2.9936   -3.65443 
 C                    -0.35818  -2.07805  -3.39038 
 O                     1.48277  -0.65877  -3.86332 
 C                     0.32023  -0.8223   -3.49379 
 H                     0.00507   1.17775  -3.19585 
 N                    -0.44002   0.27276  -3.13586 
 O                    -2.33359   1.29442  -2.40936 
 C                    -1.74281   0.27037  -2.70425 
 H                    -2.18942  -3.04158  -2.87658 
 C                    -1.62893  -2.11261  -2.97251 
 C                    -3.71994  -1.03079  -2.17475 
 N                    -2.32823  -0.97828  -2.63098 
 H                    -5.75124   1.94409  -4.55028 
 H                    -4.81385   3.00071  -3.73359 
 H                    -4.97106   1.46669  -3.19867 
 H                     1.07313   2.05522  -7.46252 
 H                     0.11547   0.64457  -7.40735 
 N                     0.24136   1.60131  -7.14274 
 C                    -0.6605    2.24242  -6.39655 
 C                    -2.68306   2.44282  -5.15929 
 N                    -2.48768   3.72756  -4.81914 
 H                    -1.1024    5.21271  -5.09471 
 C                    -1.33951   4.17466  -5.32383 
 N                    -0.43487   3.53411  -6.07142 
 H                    -4.19319  -0.41258  -5.2947 
 C                    -3.49957   0.42206  -5.40059 
 N                    -2.37241   0.37427  -6.06759 
 C                    -1.8447    1.64911  -5.92263 
 C                    -4.91469   2.04599  -4.01194 
 N                    -3.75068   1.64375  -4.82513 
 
 ITRead=  0  0  0  0  0  0  0  0  0  0  0  0  0  0  0  0  0  0  0  0
 ITRead=  0  0  0  0  0  0  0  0  0  0  0  0  0  0  0  0  0  0  0  0
 ITRead=  0  0  0  0  0  0  0  0  0  0  0  0  0  0  0  0  0  0  0  0
 ITRead=  0  0  0  0  0  0  0  0  0  0
 MicOpt= -1 -1 -1 -1 -1 -1 -1 -1 -1 -1 -1 -1 -1 -1 -1 -1 -1 -1 -1 -1
 MicOpt= -1 -1 -1 -1 -1 -1 -1 -1 -1 -1 -1 -1 -1 -1 -1 -1 -1 -1 -1 -1
 MicOpt= -1 -1 -1 -1 -1 -1 -1 -1 -1 -1 -1 -1 -1 -1 -1 -1 -1 -1 -1 -1
 MicOpt= -1 -1 -1 -1 -1 -1 -1 -1 -1 -1
 NAtoms=     70 NQM=       70 NQMF=       0 NMMI=      0 NMMIF=      0
                NMic=       0 NMicF=      0.
                    Isotopes and Nuclear Properties:
 (Nuclear quadrupole moments (NQMom) in fm**2, nuclear magnetic moments (NMagM)
  in nuclear magnetons)

  Atom         1           2           3           4           5           6           7           8           9          10
 IAtWgt=          14          12          12          14          12           1          14          12           1          14
 AtmWgt=  14.0030740  12.0000000  12.0000000  14.0030740  12.0000000   1.0078250  14.0030740  12.0000000   1.0078250  14.0030740
 NucSpn=           2           0           0           2           0           1           2           0           1           2
 AtZEff=  -0.0000000  -0.0000000  -0.0000000  -0.0000000  -0.0000000  -0.0000000  -0.0000000  -0.0000000  -0.0000000  -0.0000000
 NQMom=    2.0440000   0.0000000   0.0000000   2.0440000   0.0000000   0.0000000   2.0440000   0.0000000   0.0000000   2.0440000
 NMagM=    0.4037610   0.0000000   0.0000000   0.4037610   0.0000000   2.7928460   0.4037610   0.0000000   2.7928460   0.4037610
 AtZNuc=   7.0000000   6.0000000   6.0000000   7.0000000   6.0000000   1.0000000   7.0000000   6.0000000   1.0000000   7.0000000

  Atom        11          12          13          14          15          16          17          18          19          20
 IAtWgt=          12          12          14           1           1           1           1           1          14          12
 AtmWgt=  12.0000000  12.0000000  14.0030740   1.0078250   1.0078250   1.0078250   1.0078250   1.0078250  14.0030740  12.0000000
 NucSpn=           0           0           2           1           1           1           1           1           2           0
 AtZEff=  -0.0000000  -0.0000000  -0.0000000  -0.0000000  -0.0000000  -0.0000000  -0.0000000  -0.0000000  -0.0000000  -0.0000000
 NQMom=    0.0000000   0.0000000   2.0440000   0.0000000   0.0000000   0.0000000   0.0000000   0.0000000   2.0440000   0.0000000
 NMagM=    0.0000000   0.0000000   0.4037610   2.7928460   2.7928460   2.7928460   2.7928460   2.7928460   0.4037610   0.0000000
 AtZNuc=   6.0000000   6.0000000   7.0000000   1.0000000   1.0000000   1.0000000   1.0000000   1.0000000   7.0000000   6.0000000

  Atom        21          22          23          24          25          26          27          28          29          30
 IAtWgt=          12          14           1           1          14          12          14           1          12          16
 AtmWgt=  12.0000000  14.0030740   1.0078250   1.0078250  14.0030740  12.0000000  14.0030740   1.0078250  12.0000000  15.9949146
 NucSpn=           0           2           1           1           2           0           2           1           0           0
 AtZEff=  -0.0000000  -0.0000000  -0.0000000  -0.0000000  -0.0000000  -0.0000000  -0.0000000  -0.0000000  -0.0000000  -0.0000000
 NQMom=    0.0000000   2.0440000   0.0000000   0.0000000   2.0440000   0.0000000   2.0440000   0.0000000   0.0000000   0.0000000
 NMagM=    0.0000000   0.4037610   2.7928460   2.7928460   0.4037610   0.0000000   0.4037610   2.7928460   0.0000000   0.0000000
 AtZNuc=   6.0000000   7.0000000   1.0000000   1.0000000   7.0000000   6.0000000   7.0000000   1.0000000   6.0000000   8.0000000

  Atom        31          32          33          34          35          36          37          38          39          40
 IAtWgt=          12          14          12           1           1           1           1           1           1           1
 AtmWgt=  12.0000000  14.0030740  12.0000000   1.0078250   1.0078250   1.0078250   1.0078250   1.0078250   1.0078250   1.0078250
 NucSpn=           0           2           0           1           1           1           1           1           1           1
 AtZEff=  -0.0000000  -0.0000000  -0.0000000  -0.0000000  -0.0000000  -0.0000000  -0.0000000  -0.0000000  -0.0000000  -0.0000000
 NQMom=    0.0000000   2.0440000   0.0000000   0.0000000   0.0000000   0.0000000   0.0000000   0.0000000   0.0000000   0.0000000
 NMagM=    0.0000000   0.4037610   0.0000000   2.7928460   2.7928460   2.7928460   2.7928460   2.7928460   2.7928460   2.7928460
 AtZNuc=   6.0000000   7.0000000   6.0000000   1.0000000   1.0000000   1.0000000   1.0000000   1.0000000   1.0000000   1.0000000

  Atom        41          42          43          44          45          46          47          48          49          50
 IAtWgt=           1          12          16          12           1          14          16          12           1          12
 AtmWgt=   1.0078250  12.0000000  15.9949146  12.0000000   1.0078250  14.0030740  15.9949146  12.0000000   1.0078250  12.0000000
 NucSpn=           1           0           0           0           1           2           0           0           1           0
 AtZEff=  -0.0000000  -0.0000000  -0.0000000  -0.0000000  -0.0000000  -0.0000000  -0.0000000  -0.0000000  -0.0000000  -0.0000000
 NQMom=    0.0000000   0.0000000   0.0000000   0.0000000   0.0000000   2.0440000   0.0000000   0.0000000   0.0000000   0.0000000
 NMagM=    2.7928460   0.0000000   0.0000000   0.0000000   2.7928460   0.4037610   0.0000000   0.0000000   2.7928460   0.0000000
 AtZNuc=   1.0000000   6.0000000   8.0000000   6.0000000   1.0000000   7.0000000   8.0000000   6.0000000   1.0000000   6.0000000

  Atom        51          52          53          54          55          56          57          58          59          60
 IAtWgt=          12          14           1           1           1           1           1          14          12          12
 AtmWgt=  12.0000000  14.0030740   1.0078250   1.0078250   1.0078250   1.0078250   1.0078250  14.0030740  12.0000000  12.0000000
 NucSpn=           0           2           1           1           1           1           1           2           0           0
 AtZEff=  -0.0000000  -0.0000000  -0.0000000  -0.0000000  -0.0000000  -0.0000000  -0.0000000  -0.0000000  -0.0000000  -0.0000000
 NQMom=    0.0000000   2.0440000   0.0000000   0.0000000   0.0000000   0.0000000   0.0000000   2.0440000   0.0000000   0.0000000
 NMagM=    0.0000000   0.4037610   2.7928460   2.7928460   2.7928460   2.7928460   2.7928460   0.4037610   0.0000000   0.0000000
 AtZNuc=   6.0000000   7.0000000   1.0000000   1.0000000   1.0000000   1.0000000   1.0000000   7.0000000   6.0000000   6.0000000

  Atom        61          62          63          64          65          66          67          68          69          70
 IAtWgt=          14           1          12          14           1          12          14          12          12          14
 AtmWgt=  14.0030740   1.0078250  12.0000000  14.0030740   1.0078250  12.0000000  14.0030740  12.0000000  12.0000000  14.0030740
 NucSpn=           2           1           0           2           1           0           2           0           0           2
 AtZEff=  -0.0000000  -0.0000000  -0.0000000  -0.0000000  -0.0000000  -0.0000000  -0.0000000  -0.0000000  -0.0000000  -0.0000000
 NQMom=    2.0440000   0.0000000   0.0000000   2.0440000   0.0000000   0.0000000   2.0440000   0.0000000   0.0000000   2.0440000
 NMagM=    0.4037610   2.7928460   0.0000000   0.4037610   2.7928460   0.0000000   0.4037610   0.0000000   0.0000000   0.4037610
 AtZNuc=   7.0000000   1.0000000   6.0000000   7.0000000   1.0000000   6.0000000   7.0000000   6.0000000   6.0000000   7.0000000
 Leave Link  101 at Fri Jan 19 21:23:57 2018, MaxMem=  4294967296 cpu:               7.8 elap:               0.3
 (Enter /share/apps/g16/l202.exe)
 Stoichiometry    C23H27N17O3
 Framework group  C1[X(C23H27N17O3)]
 Deg. of freedom   204
 Full point group                 C1      NOp   1
 Largest Abelian subgroup         C1      NOp   1
 Largest concise Abelian subgroup C1      NOp   1
                         Standard orientation:                         
 ---------------------------------------------------------------------
 Center     Atomic      Atomic             Coordinates (Angstroms)
 Number     Number       Type             X           Y           Z
 ---------------------------------------------------------------------
      1          7           0       -7.084395   -0.819490    0.199317
      2          6           0       -8.361902   -0.083704    0.131601
      3          6           0       -4.963065   -1.337428    0.462041
      4          7           0       -5.606951   -2.511198    0.098155
      5          6           0       -6.859203   -2.152178   -0.045562
      6          1           0       -7.668166   -2.825027   -0.331557
      7          7           0       -3.310406    0.225191    1.086451
      8          6           0       -4.288696    1.136255    1.108795
      9          1           0       -3.978724    2.144887    1.378666
     10          7           0       -5.586306    0.989126    0.849049
     11          6           0       -5.860794   -0.286153    0.528495
     12          6           0       -3.618876   -1.048960    0.760162
     13          7           0       -2.643698   -1.959829    0.737301
     14          1           0       -2.826290   -2.914910    0.501284
     15          1           0       -1.697897   -1.718751    0.955196
     16          1           0       -9.012120   -0.481774    0.778854
     17          1           0       -8.207280    0.876167    0.363723
     18          1           0       -8.735622   -0.145029   -0.793907
     19          7           0       -2.885070    1.618851   -1.492209
     20          6           0       -1.540662    1.679986   -1.214904
     21          6           0       -3.870760    2.671898   -1.175701
     22          7           0        1.185415    3.386008    0.096480
     23          1           0        2.167360    3.234308    0.206059
     24          1           0        0.819072    4.251695    0.438697
     25          7           0       -0.899415    2.704094   -0.611532
     26          6           0        0.394599    2.470302   -0.483175
     27          7           0        1.015126    1.322088   -0.912207
     28          1           0        2.009519    1.229222   -0.772476
     29          6           0        0.375132    0.255417   -1.535497
     30          8           0        1.028180   -0.735875   -1.884210
     31          6           0       -1.015523    0.491982   -1.680384
     32          7           0       -2.010225   -0.299064   -2.238696
     33          6           0       -3.099222    0.408330   -2.104930
     34          1           0       -4.089045    0.093264   -2.436968
     35          1           0       -4.569924    2.303355   -0.564017
     36          1           0       -3.407298    3.435718   -0.728419
     37          1           0       -4.301158    2.992216   -2.018890
     38          1           0        6.846173    1.107426    0.791054
     39          1           0        7.178100    1.587441   -0.871496
     40          1           0        5.686791    2.106781   -0.085584
     41          1           0        6.346284   -3.114345   -1.461372
     42          6           0        5.788214   -2.190921   -1.306176
     43          8           0        3.712174   -3.114609   -1.987338
     44          6           0        4.383772   -2.167196   -1.579714
     45          1           0        2.781866   -0.894436   -1.532062
     46          7           0        3.774075   -0.950317   -1.350099
     47          8           0        3.744034    1.232913   -0.725756
     48          6           0        4.368867    0.201275   -0.898862
     49          1           0        7.462137   -1.049352   -0.642382
     50          6           0        6.396500   -1.083671   -0.865039
     51          6           0        6.403786    1.304156   -0.174166
     52          7           0        5.724806    0.098794   -0.657743
     53          1           0        3.939923    2.702977    3.080355
     54          1           0        2.834790    2.975282    1.911312
     55          1           0        4.394770    2.707144    1.513021
     56          1           0        0.581306   -3.652128    1.237027
     57          1           0        2.218095   -3.576507    1.711679
     58          7           0        1.376698   -3.092206    1.469352
     59          6           0        1.319001   -1.758907    1.456868
     60          6           0        2.194249    0.438296    1.717565
     61          7           0        1.050886    1.061704    1.388149
     62          1           0       -0.865842    0.596425    0.831119
     63          6           0        0.098648    0.173782    1.109323
     64          7           0        0.154465   -1.161999    1.121249
     65          1           0        5.287570    0.153226    2.613244
     66          6           0        4.253956   -0.021416    2.313096
     67          7           0        3.714311   -1.204963    2.152908
     68          6           0        2.408435   -0.927831    1.775293
     69          6           0        3.661691    2.466651    2.149363
     70          7           0        3.390917    1.018283    2.066262
 ---------------------------------------------------------------------
 Rotational constants (GHZ):           0.1892480           0.0480560           0.0455477
 Leave Link  202 at Fri Jan 19 21:23:57 2018, MaxMem=  4294967296 cpu:               0.3 elap:               0.0
 (Enter /share/apps/g16/l301.exe)
 Standard basis: CC-pVDZ (5D, 7F)
 Ernie: Thresh=  0.10000D-02 Tol=  0.10000D-05 Strict=F.
 Ernie:  86 primitive shells out of 1081 were deleted.
 There are   780 symmetry adapted cartesian basis functions of A   symmetry.
 There are   737 symmetry adapted basis functions of A   symmetry.
   737 basis functions,  1608 primitive gaussians,   780 cartesian basis functions
   154 alpha electrons      154 beta electrons
       nuclear repulsion energy      5558.7344719598 Hartrees.
 IExCor= 4639 DFT=T Ex+Corr=wB97XD ExCW=0 ScaHFX=  1.000000
 ScaDFX=  1.000000  1.000000  1.000000  1.000000 ScalE2=  1.000000  1.000000
 IRadAn=      5 IRanWt=     -1 IRanGd=            0 ICorTp=0 IEmpDi=121
 HFx  wShort=  0.000000 wLong=  0.200000 cFull=  0.222036 cShort=  0.000000 cLong=  0.777964
 DFx  wShort=  0.000000 wLong=  0.200000 cFull=  0.000000 cShort=  0.000000 cLong=  1.000000
 NAtoms=   70 NActive=   70 NUniq=   70 SFac= 1.00D+00 NAtFMM=   60 NAOKFM=T Big=T
 Integral buffers will be    131072 words long.
 Raffenetti 2 integral format.
 Two-electron integral symmetry is turned on.
 R6Disp:  Grimme-D2 Dispersion energy=       -0.0768778494 Hartrees.
 Nuclear repulsion after empirical dispersion term =     5558.6575941103 Hartrees.
 Leave Link  301 at Fri Jan 19 21:23:57 2018, MaxMem=  4294967296 cpu:               2.2 elap:               0.1
 (Enter /share/apps/g16/l302.exe)
 NPDir=0 NMtPBC=     1 NCelOv=     1 NCel=       1 NClECP=     1 NCelD=      1
         NCelK=      1 NCelE2=     1 NClLst=     1 CellRange=     0.0.
 One-electron integrals computed using PRISM.
 One-electron integral symmetry used in STVInt
 NBasis=   737 RedAO= T EigKep=  6.76D-04  NBF=   737
 NBsUse=   737 1.00D-06 EigRej= -1.00D+00 NBFU=   737
 Precomputing XC quadrature grid using
 IXCGrd= 4 IRadAn=           5 IRanWt=          -1 IRanGd=           0 AccXCQ= 0.00D+00.
 Generated NRdTot=       0 NPtTot=           0 NUsed=           0 NTot=          32
 NSgBfM=   757   757   757   757   757 MxSgAt=    70 MxSgA2=    70.
 Leave Link  302 at Fri Jan 19 21:24:02 2018, MaxMem=  4294967296 cpu:             133.9 elap:               4.2
 (Enter /share/apps/g16/l303.exe)
 DipDrv:  MaxL=1.
 Leave Link  303 at Fri Jan 19 21:24:02 2018, MaxMem=  4294967296 cpu:              12.5 elap:               0.4
 (Enter /share/apps/g16/l401.exe)
 ExpMin= 1.22D-01 ExpMax= 1.17D+04 ExpMxC= 4.01D+02 IAcc=3 IRadAn=         5 AccDes= 0.00D+00
 Harris functional with IExCor= 4639 and IRadAn=       5 diagonalized for initial guess.
 HarFok:  IExCor= 4639 AccDes= 0.00D+00 IRadAn=         5 IDoV= 1 UseB2=F ITyADJ=14
 ICtDFT=  3500011 ScaDFX=  1.000000  1.000000  1.000000  1.000000
 FoFCou: FMM=F IPFlag=           0 FMFlag=      100000 FMFlg1=        2001
         NFxFlg=           0 DoJE=T BraDBF=F KetDBF=T FulRan=T
         wScrn=  0.000000 ICntrl=       500 IOpCl=  0 I1Cent=   200000004 NGrid=           0
         NMat0=    1 NMatS0=      1 NMatT0=    0 NMatD0=    1 NMtDS0=    0 NMtDT0=    0
 Petite list used in FoFCou.
 Harris En= -1963.80903628395    
 JPrj=0 DoOrth=F DoCkMO=F.
 Leave Link  401 at Fri Jan 19 21:24:15 2018, MaxMem=  4294967296 cpu:             408.1 elap:              12.8
 (Enter /share/apps/g16/l502.exe)
 Integral symmetry usage will be decided dynamically.
 Closed shell SCF:
 Using DIIS extrapolation, IDIIS=  1040.
 NGot=  4294967296 LenX=  4293717438 LenY=  4293108258
 Requested convergence on RMS density matrix=1.00D-08 within  20 cycles.
 Requested convergence on MAX density matrix=1.00D-06.
 Requested convergence on             energy=1.00D-06.
 No special actions if energy rises.
 Fock matrices will be formed incrementally for  20 cycles.
 Integral accuracy reduced to 1.0D-05 until final iterations.

 Cycle   1  Pass 0  IDiag  1:
 FoFJK:  IHMeth= 1 ICntrl=       0 DoSepK=T KAlg= 0 I1Cent=           0 FoldK=F
 IRaf=         1 NMat=       1 IRICut=       1 DoRegI=T DoRafI=F ISym2E= 0 IDoP0=0 IntGTp=1.
 FoFCou: FMM=T IPFlag=           0 FMFlag=      100000 FMFlg1=        2001
         NFxFlg=           0 DoJE=T BraDBF=F KetDBF=F FulRan=T
         wScrn=  0.000000 ICntrl=       500 IOpCl=  0 I1Cent=           0 NGrid=           0
         NMat0=    1 NMatS0=      1 NMatT0=    0 NMatD0=    1 NMtDS0=    0 NMtDT0=    0
 Symmetry not used in FoFCou.
 FMM levels:  10  Number of levels for PrismC:   9
 E= -2048.25842550534    
 DIIS: error= 1.92D-02 at cycle   1 NSaved=   1.
 NSaved= 1 IEnMin= 1 EnMin= -2048.25842550534     IErMin= 1 ErrMin= 1.92D-02
 ErrMax= 1.92D-02  0.00D+00 EMaxC= 1.00D-01 BMatC= 8.32D-01 BMatP= 8.32D-01
 IDIUse=3 WtCom= 8.08D-01 WtEn= 1.92D-01
 Coeff-Com:  0.100D+01
 Coeff-En:   0.100D+01
 Coeff:      0.100D+01
 Gap=     0.287 Goal=   None    Shift=    0.000
 GapD=    0.287 DampG=1.000 DampE=0.500 DampFc=0.5000 IDamp=-1.
 Damping current iteration by 5.00D-01
 RMSDP=1.61D-03 MaxDP=1.29D-01              OVMax= 2.13D-01

 Cycle   2  Pass 0  IDiag  1:
 RMSU=  8.06D-04    CP:  9.97D-01
 E= -2048.45439562069     Delta-E=       -0.195970115351 Rises=F Damp=T
 DIIS: error= 9.66D-03 at cycle   2 NSaved=   2.
 NSaved= 2 IEnMin= 2 EnMin= -2048.45439562069     IErMin= 2 ErrMin= 9.66D-03
 ErrMax= 9.66D-03  0.00D+00 EMaxC= 1.00D-01 BMatC= 1.46D-01 BMatP= 8.32D-01
 IDIUse=3 WtCom= 9.03D-01 WtEn= 9.66D-02
 Coeff-Com: -0.189D+00 0.119D+01
 Coeff-En:   0.000D+00 0.100D+01
 Coeff:     -0.171D+00 0.117D+01
 Gap=     0.367 Goal=   None    Shift=    0.000
 RMSDP=6.10D-04 MaxDP=3.46D-02 DE=-1.96D-01 OVMax= 1.61D-01

 Cycle   3  Pass 0  IDiag  1:
 RMSU=  6.02D-04    CP:  9.93D-01  1.11D+00
 E= -2048.63142399786     Delta-E=       -0.177028377168 Rises=F Damp=F
 DIIS: error= 5.96D-03 at cycle   3 NSaved=   3.
 NSaved= 3 IEnMin= 3 EnMin= -2048.63142399786     IErMin= 3 ErrMin= 5.96D-03
 ErrMax= 5.96D-03  0.00D+00 EMaxC= 1.00D-01 BMatC= 6.78D-02 BMatP= 1.46D-01
 IDIUse=3 WtCom= 9.40D-01 WtEn= 5.96D-02
 Coeff-Com: -0.235D+00 0.559D+00 0.677D+00
 Coeff-En:   0.000D+00 0.000D+00 0.100D+01
 Coeff:     -0.221D+00 0.525D+00 0.696D+00
 Gap=     0.278 Goal=   None    Shift=    0.000
 RMSDP=3.76D-04 MaxDP=3.32D-02 DE=-1.77D-01 OVMax= 5.85D-02

 Cycle   4  Pass 0  IDiag  1:
 RMSU=  2.08D-04    CP:  9.94D-01  1.40D+00  6.61D-01
 E= -2048.68386052534     Delta-E=       -0.052436527483 Rises=F Damp=F
 DIIS: error= 2.87D-03 at cycle   4 NSaved=   4.
 NSaved= 4 IEnMin= 4 EnMin= -2048.68386052534     IErMin= 4 ErrMin= 2.87D-03
 ErrMax= 2.87D-03  0.00D+00 EMaxC= 1.00D-01 BMatC= 8.92D-03 BMatP= 6.78D-02
 IDIUse=3 WtCom= 9.71D-01 WtEn= 2.87D-02
 Coeff-Com: -0.996D-01 0.193D+00 0.371D+00 0.535D+00
 Coeff-En:   0.000D+00 0.000D+00 0.476D-01 0.952D+00
 Coeff:     -0.967D-01 0.187D+00 0.362D+00 0.547D+00
 Gap=     0.283 Goal=   None    Shift=    0.000
 RMSDP=1.31D-04 MaxDP=1.20D-02 DE=-5.24D-02 OVMax= 1.53D-02

 Cycle   5  Pass 0  IDiag  1:
 RMSU=  6.29D-05    CP:  9.93D-01  1.38D+00  7.94D-01  6.19D-01
 E= -2048.69134256652     Delta-E=       -0.007482041176 Rises=F Damp=F
 DIIS: error= 5.19D-04 at cycle   5 NSaved=   5.
 NSaved= 5 IEnMin= 5 EnMin= -2048.69134256652     IErMin= 5 ErrMin= 5.19D-04
 ErrMax= 5.19D-04  0.00D+00 EMaxC= 1.00D-01 BMatC= 2.97D-04 BMatP= 8.92D-03
 IDIUse=3 WtCom= 9.95D-01 WtEn= 5.19D-03
 Coeff-Com: -0.259D-01 0.448D-01 0.117D+00 0.240D+00 0.624D+00
 Coeff-En:   0.000D+00 0.000D+00 0.000D+00 0.000D+00 0.100D+01
 Coeff:     -0.258D-01 0.445D-01 0.117D+00 0.238D+00 0.626D+00
 Gap=     0.284 Goal=   None    Shift=    0.000
 RMSDP=2.73D-05 MaxDP=1.96D-03 DE=-7.48D-03 OVMax= 3.12D-03

 Failed to achieve initial convergence to 1.0D-08 in  6 cycles.
 Switch to full accuracy anyway.
 Cycle   6  Pass 1  IDiag  1:
 E= -2048.69153175692     Delta-E=       -0.000189190402 Rises=F Damp=F
 DIIS: error= 2.38D-04 at cycle   1 NSaved=   1.
 NSaved= 1 IEnMin= 1 EnMin= -2048.69153175692     IErMin= 1 ErrMin= 2.38D-04
 ErrMax= 2.38D-04  0.00D+00 EMaxC= 1.00D-01 BMatC= 7.87D-05 BMatP= 7.87D-05
 IDIUse=3 WtCom= 9.98D-01 WtEn= 2.38D-03
 Coeff-Com:  0.100D+01
 Coeff-En:   0.100D+01
 Coeff:      0.100D+01
 Gap=     0.283 Goal=   None    Shift=    0.000
 RMSDP=2.73D-05 MaxDP=1.96D-03 DE=-1.89D-04 OVMax= 2.30D-03

 Cycle   7  Pass 1  IDiag  1:
 RMSU=  1.16D-04    CP:  1.00D+00
 E= -2048.69158405609     Delta-E=       -0.000052299176 Rises=F Damp=F
 DIIS: error= 2.18D-04 at cycle   2 NSaved=   2.
 NSaved= 2 IEnMin= 2 EnMin= -2048.69158405609     IErMin= 2 ErrMin= 2.18D-04
 ErrMax= 2.18D-04  0.00D+00 EMaxC= 1.00D-01 BMatC= 5.02D-05 BMatP= 7.87D-05
 IDIUse=3 WtCom= 9.98D-01 WtEn= 2.18D-03
 Coeff-Com:  0.425D+00 0.575D+00
 Coeff-En:   0.538D-01 0.946D+00
 Coeff:      0.425D+00 0.575D+00
 Gap=     0.284 Goal=   None    Shift=    0.000
 RMSDP=1.25D-05 MaxDP=1.06D-03 DE=-5.23D-05 OVMax= 1.47D-03

 Cycle   8  Pass 1  IDiag  1:
 RMSU=  1.23D-05    CP:  1.00D+00  1.02D+00
 E= -2048.69162116061     Delta-E=       -0.000037104511 Rises=F Damp=F
 DIIS: error= 1.06D-04 at cycle   3 NSaved=   3.
 NSaved= 3 IEnMin= 3 EnMin= -2048.69162116061     IErMin= 3 ErrMin= 1.06D-04
 ErrMax= 1.06D-04  0.00D+00 EMaxC= 1.00D-01 BMatC= 1.05D-05 BMatP= 5.02D-05
 IDIUse=3 WtCom= 9.99D-01 WtEn= 1.06D-03
 Coeff-Com: -0.178D-01 0.300D+00 0.718D+00
 Coeff-En:   0.000D+00 0.120D+00 0.880D+00
 Coeff:     -0.178D-01 0.299D+00 0.718D+00
 Gap=     0.284 Goal=   None    Shift=    0.000
 RMSDP=5.95D-06 MaxDP=4.17D-04 DE=-3.71D-05 OVMax= 6.65D-04

 Cycle   9  Pass 1  IDiag  1:
 RMSU=  3.94D-06    CP:  1.00D+00  1.05D+00  7.63D-01
 E= -2048.69163119322     Delta-E=       -0.000010032610 Rises=F Damp=F
 DIIS: error= 2.32D-05 at cycle   4 NSaved=   4.
 NSaved= 4 IEnMin= 4 EnMin= -2048.69163119322     IErMin= 4 ErrMin= 2.32D-05
 ErrMax= 2.32D-05  0.00D+00 EMaxC= 1.00D-01 BMatC= 5.55D-07 BMatP= 1.05D-05
 IDIUse=1 WtCom= 1.00D+00 WtEn= 0.00D+00
 Coeff-Com: -0.315D-01 0.822D-01 0.270D+00 0.679D+00
 Coeff:     -0.315D-01 0.822D-01 0.270D+00 0.679D+00
 Gap=     0.284 Goal=   None    Shift=    0.000
 RMSDP=1.51D-06 MaxDP=1.12D-04 DE=-1.00D-05 OVMax= 4.08D-04

 Cycle  10  Pass 1  IDiag  1:
 RMSU=  1.35D-06    CP:  1.00D+00  1.05D+00  7.96D-01  1.10D+00
 E= -2048.69163210767     Delta-E=       -0.000000914456 Rises=F Damp=F
 DIIS: error= 1.29D-05 at cycle   5 NSaved=   5.
 NSaved= 5 IEnMin= 5 EnMin= -2048.69163210767     IErMin= 5 ErrMin= 1.29D-05
 ErrMax= 1.29D-05  0.00D+00 EMaxC= 1.00D-01 BMatC= 1.23D-07 BMatP= 5.55D-07
 IDIUse=1 WtCom= 1.00D+00 WtEn= 0.00D+00
 Coeff-Com: -0.365D-02-0.529D-01-0.117D+00 0.198D+00 0.975D+00
 Coeff:     -0.365D-02-0.529D-01-0.117D+00 0.198D+00 0.975D+00
 Gap=     0.284 Goal=   None    Shift=    0.000
 RMSDP=1.23D-06 MaxDP=7.30D-05 DE=-9.14D-07 OVMax= 2.21D-04

 Cycle  11  Pass 1  IDiag  1:
 RMSU=  5.09D-07    CP:  1.00D+00  1.05D+00  8.02D-01  1.37D+00  1.18D+00
 E= -2048.69163238315     Delta-E=       -0.000000275479 Rises=F Damp=F
 DIIS: error= 6.35D-06 at cycle   6 NSaved=   6.
 NSaved= 6 IEnMin= 6 EnMin= -2048.69163238315     IErMin= 6 ErrMin= 6.35D-06
 ErrMax= 6.35D-06  0.00D+00 EMaxC= 1.00D-01 BMatC= 3.26D-08 BMatP= 1.23D-07
 IDIUse=1 WtCom= 1.00D+00 WtEn= 0.00D+00
 Coeff-Com:  0.463D-02-0.444D-01-0.117D+00-0.885D-02 0.533D+00 0.633D+00
 Coeff:      0.463D-02-0.444D-01-0.117D+00-0.885D-02 0.533D+00 0.633D+00
 Gap=     0.284 Goal=   None    Shift=    0.000
 RMSDP=4.00D-07 MaxDP=3.32D-05 DE=-2.75D-07 OVMax= 1.06D-04

 Cycle  12  Pass 1  IDiag  1:
 RMSU=  1.95D-07    CP:  1.00D+00  1.05D+00  8.05D-01  1.45D+00  1.32D+00
                    CP:  9.13D-01
 E= -2048.69163242895     Delta-E=       -0.000000045804 Rises=F Damp=F
 DIIS: error= 1.04D-06 at cycle   7 NSaved=   7.
 NSaved= 7 IEnMin= 7 EnMin= -2048.69163242895     IErMin= 7 ErrMin= 1.04D-06
 ErrMax= 1.04D-06  0.00D+00 EMaxC= 1.00D-01 BMatC= 7.78D-10 BMatP= 3.26D-08
 IDIUse=1 WtCom= 1.00D+00 WtEn= 0.00D+00
 Coeff-Com:  0.118D-02-0.811D-02-0.227D-01-0.920D-02 0.744D-01 0.145D+00
 Coeff-Com:  0.820D+00
 Coeff:      0.118D-02-0.811D-02-0.227D-01-0.920D-02 0.744D-01 0.145D+00
 Coeff:      0.820D+00
 Gap=     0.284 Goal=   None    Shift=    0.000
 RMSDP=8.37D-08 MaxDP=4.97D-06 DE=-4.58D-08 OVMax= 1.96D-05

 Cycle  13  Pass 1  IDiag  1:
 RMSU=  5.53D-08    CP:  1.00D+00  1.05D+00  8.04D-01  1.46D+00  1.33D+00
                    CP:  9.91D-01  1.11D+00
 E= -2048.69163243058     Delta-E=       -0.000000001624 Rises=F Damp=F
 DIIS: error= 5.89D-07 at cycle   8 NSaved=   8.
 NSaved= 8 IEnMin= 8 EnMin= -2048.69163243058     IErMin= 8 ErrMin= 5.89D-07
 ErrMax= 5.89D-07  0.00D+00 EMaxC= 1.00D-01 BMatC= 3.66D-10 BMatP= 7.78D-10
 IDIUse=1 WtCom= 1.00D+00 WtEn= 0.00D+00
 Coeff-Com: -0.679D-03 0.825D-02 0.210D-01-0.134D-02-0.111D+00-0.103D+00
 Coeff-Com:  0.425D+00 0.761D+00
 Coeff:     -0.679D-03 0.825D-02 0.210D-01-0.134D-02-0.111D+00-0.103D+00
 Coeff:      0.425D+00 0.761D+00
 Gap=     0.284 Goal=   None    Shift=    0.000
 RMSDP=5.05D-08 MaxDP=3.33D-06 DE=-1.62D-09 OVMax= 9.40D-06

 Cycle  14  Pass 1  IDiag  1:
 RMSU=  2.93D-08    CP:  1.00D+00  1.05D+00  8.04D-01  1.46D+00  1.34D+00
                    CP:  1.03D+00  1.26D+00  1.01D+00
 E= -2048.69163243116     Delta-E=       -0.000000000582 Rises=F Damp=F
 DIIS: error= 1.81D-07 at cycle   9 NSaved=   9.
 NSaved= 9 IEnMin= 9 EnMin= -2048.69163243116     IErMin= 9 ErrMin= 1.81D-07
 ErrMax= 1.81D-07  0.00D+00 EMaxC= 1.00D-01 BMatC= 3.32D-11 BMatP= 3.66D-10
 IDIUse=1 WtCom= 1.00D+00 WtEn= 0.00D+00
 Coeff-Com: -0.421D-03 0.444D-02 0.115D-01 0.792D-03-0.543D-01-0.590D-01
 Coeff-Com:  0.101D+00 0.311D+00 0.684D+00
 Coeff:     -0.421D-03 0.444D-02 0.115D-01 0.792D-03-0.543D-01-0.590D-01
 Coeff:      0.101D+00 0.311D+00 0.684D+00
 Gap=     0.284 Goal=   None    Shift=    0.000
 RMSDP=1.33D-08 MaxDP=8.59D-07 DE=-5.82D-10 OVMax= 2.66D-06

 Cycle  15  Pass 1  IDiag  1:
 RMSU=  9.56D-09    CP:  1.00D+00  1.05D+00  8.04D-01  1.46D+00  1.34D+00
                    CP:  1.04D+00  1.28D+00  1.14D+00  1.08D+00
 E= -2048.69163243142     Delta-E=       -0.000000000257 Rises=F Damp=F
 DIIS: error= 9.41D-08 at cycle  10 NSaved=  10.
 NSaved=10 IEnMin=10 EnMin= -2048.69163243142     IErMin=10 ErrMin= 9.41D-08
 ErrMax= 9.41D-08  0.00D+00 EMaxC= 1.00D-01 BMatC= 5.70D-12 BMatP= 3.32D-11
 IDIUse=1 WtCom= 1.00D+00 WtEn= 0.00D+00
 Coeff-Com: -0.594D-05-0.178D-03-0.354D-03 0.182D-03 0.369D-02-0.108D-03
 Coeff-Com: -0.537D-01-0.577D-01 0.251D+00 0.857D+00
 Coeff:     -0.594D-05-0.178D-03-0.354D-03 0.182D-03 0.369D-02-0.108D-03
 Coeff:     -0.537D-01-0.577D-01 0.251D+00 0.857D+00
 Gap=     0.284 Goal=   None    Shift=    0.000
 RMSDP=7.54D-09 MaxDP=3.68D-07 DE=-2.57D-10 OVMax= 1.52D-06

 SCF Done:  E(RwB97XD) =  -2048.69163243     A.U. after   15 cycles
            NFock= 15  Conv=0.75D-08     -V/T= 2.0052
 KE= 2.038123929498D+03 PE=-1.589799616253D+04 EE= 6.252523006485D+03
 Leave Link  502 at Fri Jan 19 21:36:10 2018, MaxMem=  4294967296 cpu:           22100.9 elap:             715.3
 (Enter /share/apps/g16/l601.exe)
 Copying SCF densities to generalized density rwf, IOpCl= 0 IROHF=0.

 **********************************************************************

            Population analysis using the SCF density.

 **********************************************************************

 Orbital symmetries:
       Occupied  (A) (A) (A) (A) (A) (A) (A) (A) (A) (A) (A) (A)
                 (A) (A) (A) (A) (A) (A) (A) (A) (A) (A) (A) (A)
                 (A) (A) (A) (A) (A) (A) (A) (A) (A) (A) (A) (A)
                 (A) (A) (A) (A) (A) (A) (A) (A) (A) (A) (A) (A)
                 (A) (A) (A) (A) (A) (A) (A) (A) (A) (A) (A) (A)
                 (A) (A) (A) (A) (A) (A) (A) (A) (A) (A) (A) (A)
                 (A) (A) (A) (A) (A) (A) (A) (A) (A) (A) (A) (A)
                 (A) (A) (A) (A) (A) (A) (A) (A) (A) (A) (A) (A)
                 (A) (A) (A) (A) (A) (A) (A) (A) (A) (A) (A) (A)
                 (A) (A) (A) (A) (A) (A) (A) (A) (A) (A) (A) (A)
                 (A) (A) (A) (A) (A) (A) (A) (A) (A) (A) (A) (A)
                 (A) (A) (A) (A) (A) (A) (A) (A) (A) (A) (A) (A)
                 (A) (A) (A) (A) (A) (A) (A) (A) (A) (A)
       Virtual   (A) (A) (A) (A) (A) (A) (A) (A) (A) (A) (A) (A)
                 (A) (A) (A) (A) (A) (A) (A) (A) (A) (A) (A) (A)
                 (A) (A) (A) (A) (A) (A) (A) (A) (A) (A) (A) (A)
                 (A) (A) (A) (A) (A) (A) (A) (A) (A) (A) (A) (A)
                 (A) (A) (A) (A) (A) (A) (A) (A) (A) (A) (A) (A)
                 (A) (A) (A) (A) (A) (A) (A) (A) (A) (A) (A) (A)
                 (A) (A) (A) (A) (A) (A) (A) (A) (A) (A) (A) (A)
                 (A) (A) (A) (A) (A) (A) (A) (A) (A) (A) (A) (A)
                 (A) (A) (A) (A) (A) (A) (A) (A) (A) (A) (A) (A)
                 (A) (A) (A) (A) (A) (A) (A) (A) (A) (A) (A) (A)
                 (A) (A) (A) (A) (A) (A) (A) (A) (A) (A) (A) (A)
                 (A) (A) (A) (A) (A) (A) (A) (A) (A) (A) (A) (A)
                 (A) (A) (A) (A) (A) (A) (A) (A) (A) (A) (A) (A)
                 (A) (A) (A) (A) (A) (A) (A) (A) (A) (A) (A) (A)
                 (A) (A) (A) (A) (A) (A) (A) (A) (A) (A) (A) (A)
                 (A) (A) (A) (A) (A) (A) (A) (A) (A) (A) (A) (A)
                 (A) (A) (A) (A) (A) (A) (A) (A) (A) (A) (A) (A)
                 (A) (A) (A) (A) (A) (A) (A) (A) (A) (A) (A) (A)
                 (A) (A) (A) (A) (A) (A) (A) (A) (A) (A) (A) (A)
                 (A) (A) (A) (A) (A) (A) (A) (A) (A) (A) (A) (A)
                 (A) (A) (A) (A) (A) (A) (A) (A) (A) (A) (A) (A)
                 (A) (A) (A) (A) (A) (A) (A) (A) (A) (A) (A) (A)
                 (A) (A) (A) (A) (A) (A) (A) (A) (A) (A) (A) (A)
                 (A) (A) (A) (A) (A) (A) (A) (A) (A) (A) (A) (A)
                 (A) (A) (A) (A) (A) (A) (A) (A) (A) (A) (A) (A)
                 (A) (A) (A) (A) (A) (A) (A) (A) (A) (A) (A) (A)
                 (A) (A) (A) (A) (A) (A) (A) (A) (A) (A) (A) (A)
                 (A) (A) (A) (A) (A) (A) (A) (A) (A) (A) (A) (A)
                 (A) (A) (A) (A) (A) (A) (A) (A) (A) (A) (A) (A)
                 (A) (A) (A) (A) (A) (A) (A) (A) (A) (A) (A) (A)
                 (A) (A) (A) (A) (A) (A) (A) (A) (A) (A) (A) (A)
                 (A) (A) (A) (A) (A) (A) (A) (A) (A) (A) (A) (A)
                 (A) (A) (A) (A) (A) (A) (A) (A) (A) (A) (A) (A)
                 (A) (A) (A) (A) (A) (A) (A) (A) (A) (A) (A) (A)
                 (A) (A) (A) (A) (A) (A) (A) (A) (A) (A) (A) (A)
                 (A) (A) (A) (A) (A) (A) (A) (A) (A) (A) (A) (A)
                 (A) (A) (A) (A) (A) (A) (A) (A) (A) (A) (A) (A)
                 (A) (A) (A) (A) (A) (A) (A) (A) (A) (A) (A) (A)
                 (A) (A) (A) (A) (A) (A) (A) (A) (A) (A) (A) (A)
                 (A) (A) (A) (A) (A) (A) (A) (A) (A) (A) (A) (A)
                 (A) (A) (A) (A) (A) (A) (A) (A) (A) (A) (A) (A)
                 (A) (A) (A) (A) (A) (A) (A) (A) (A) (A) (A) (A)
                 (A) (A) (A) (A) (A) (A) (A) (A) (A) (A) (A) (A)
                 (A) (A) (A) (A) (A) (A) (A) (A) (A) (A) (A) (A)
                 (A) (A) (A) (A) (A) (A) (A) (A) (A) (A) (A) (A)
                 (A) (A) (A) (A) (A) (A) (A) (A) (A) (A) (A) (A)
                 (A) (A) (A) (A) (A) (A) (A) (A) (A) (A) (A) (A)
                 (A) (A) (A) (A) (A) (A) (A) (A) (A) (A) (A) (A)
                 (A) (A) (A) (A) (A) (A) (A)
 The electronic state is 1-A.
 Alpha  occ. eigenvalues --  -19.26171 -19.21931 -19.20433 -14.52721 -14.51308
 Alpha  occ. eigenvalues --  -14.50120 -14.48147 -14.47902 -14.46718 -14.46055
 Alpha  occ. eigenvalues --  -14.46052 -14.44318 -14.43410 -14.43110 -14.42783
 Alpha  occ. eigenvalues --  -14.42434 -14.42267 -14.41940 -14.41514 -14.40562
 Alpha  occ. eigenvalues --  -10.45724 -10.40816 -10.40044 -10.38536 -10.37950
 Alpha  occ. eigenvalues --  -10.37771 -10.36993 -10.36812 -10.36180 -10.35890
 Alpha  occ. eigenvalues --  -10.35408 -10.34887 -10.34550 -10.34441 -10.34006
 Alpha  occ. eigenvalues --  -10.33698 -10.32935 -10.32063 -10.31347 -10.31102
 Alpha  occ. eigenvalues --  -10.29974 -10.29285 -10.27898  -1.19788  -1.14164
 Alpha  occ. eigenvalues --   -1.13113  -1.12981  -1.12760  -1.10267  -1.09580
 Alpha  occ. eigenvalues --   -1.08501  -1.07856  -1.06483  -1.03560  -1.02577
 Alpha  occ. eigenvalues --   -1.01905  -1.00002  -0.99427  -0.98356  -0.98285
 Alpha  occ. eigenvalues --   -0.96224  -0.95496  -0.94096  -0.91158  -0.86732
 Alpha  occ. eigenvalues --   -0.85446  -0.85258  -0.84232  -0.83761  -0.83615
 Alpha  occ. eigenvalues --   -0.81811  -0.79005  -0.75976  -0.74614  -0.74252
 Alpha  occ. eigenvalues --   -0.73710  -0.73507  -0.73271  -0.72607  -0.69428
 Alpha  occ. eigenvalues --   -0.67708  -0.67261  -0.66666  -0.65790  -0.64572
 Alpha  occ. eigenvalues --   -0.64203  -0.63446  -0.63261  -0.62677  -0.61516
 Alpha  occ. eigenvalues --   -0.61496  -0.60819  -0.59673  -0.59640  -0.59003
 Alpha  occ. eigenvalues --   -0.58556  -0.58200  -0.57970  -0.57672  -0.57031
 Alpha  occ. eigenvalues --   -0.56485  -0.55968  -0.55442  -0.54578  -0.54449
 Alpha  occ. eigenvalues --   -0.54144  -0.53369  -0.53233  -0.53010  -0.52696
 Alpha  occ. eigenvalues --   -0.52359  -0.52080  -0.51793  -0.51630  -0.51150
 Alpha  occ. eigenvalues --   -0.50321  -0.49900  -0.49529  -0.49057  -0.48554
 Alpha  occ. eigenvalues --   -0.48501  -0.48438  -0.48028  -0.47759  -0.47466
 Alpha  occ. eigenvalues --   -0.47221  -0.46037  -0.45515  -0.44173  -0.42795
 Alpha  occ. eigenvalues --   -0.41958  -0.40026  -0.39718  -0.38715  -0.37251
 Alpha  occ. eigenvalues --   -0.37133  -0.37045  -0.35848  -0.35344  -0.34907
 Alpha  occ. eigenvalues --   -0.34866  -0.34621  -0.33200  -0.33107  -0.32875
 Alpha  occ. eigenvalues --   -0.32596  -0.32335  -0.31943  -0.31839  -0.31664
 Alpha  occ. eigenvalues --   -0.31178  -0.27657  -0.26987  -0.25268
 Alpha virt. eigenvalues --    0.03120   0.04681   0.06383   0.08044   0.08464
 Alpha virt. eigenvalues --    0.09098   0.09575   0.09811   0.11240   0.12282
 Alpha virt. eigenvalues --    0.12675   0.13207   0.14489   0.14672   0.14880
 Alpha virt. eigenvalues --    0.15655   0.16220   0.17468   0.18001   0.18207
 Alpha virt. eigenvalues --    0.18753   0.18868   0.19572   0.19800   0.20471
 Alpha virt. eigenvalues --    0.20851   0.21234   0.21572   0.21772   0.22279
 Alpha virt. eigenvalues --    0.22868   0.23064   0.23108   0.23446   0.23707
 Alpha virt. eigenvalues --    0.23806   0.25048   0.25656   0.25977   0.26298
 Alpha virt. eigenvalues --    0.26460   0.27367   0.27751   0.28049   0.28599
 Alpha virt. eigenvalues --    0.29031   0.29451   0.29656   0.30435   0.30918
 Alpha virt. eigenvalues --    0.31807   0.32805   0.33016   0.33523   0.33738
 Alpha virt. eigenvalues --    0.34320   0.35235   0.35598   0.35961   0.36919
 Alpha virt. eigenvalues --    0.37326   0.37715   0.38193   0.39190   0.39705
 Alpha virt. eigenvalues --    0.40115   0.40946   0.41245   0.41373   0.41912
 Alpha virt. eigenvalues --    0.42311   0.43187   0.43539   0.43727   0.44484
 Alpha virt. eigenvalues --    0.45527   0.45649   0.45947   0.46248   0.47436
 Alpha virt. eigenvalues --    0.47791   0.48216   0.49103   0.49279   0.49393
 Alpha virt. eigenvalues --    0.50122   0.50413   0.50923   0.51253   0.51575
 Alpha virt. eigenvalues --    0.52173   0.52651   0.53371   0.53785   0.53959
 Alpha virt. eigenvalues --    0.54597   0.54952   0.55301   0.55432   0.55906
 Alpha virt. eigenvalues --    0.56288   0.56544   0.57243   0.58039   0.58108
 Alpha virt. eigenvalues --    0.58387   0.58996   0.59140   0.59683   0.59827
 Alpha virt. eigenvalues --    0.60499   0.60795   0.60903   0.61248   0.61796
 Alpha virt. eigenvalues --    0.62091   0.62828   0.62971   0.63349   0.63714
 Alpha virt. eigenvalues --    0.64304   0.64550   0.64728   0.64985   0.65620
 Alpha virt. eigenvalues --    0.66093   0.66501   0.66867   0.67233   0.67637
 Alpha virt. eigenvalues --    0.67987   0.68411   0.68909   0.69103   0.69827
 Alpha virt. eigenvalues --    0.70791   0.70905   0.71203   0.72242   0.73024
 Alpha virt. eigenvalues --    0.73190   0.73791   0.74028   0.74146   0.74570
 Alpha virt. eigenvalues --    0.74717   0.74871   0.75324   0.75578   0.75802
 Alpha virt. eigenvalues --    0.76013   0.76356   0.76558   0.77375   0.77658
 Alpha virt. eigenvalues --    0.77796   0.78339   0.78623   0.78703   0.79391
 Alpha virt. eigenvalues --    0.79933   0.80215   0.80750   0.81017   0.81219
 Alpha virt. eigenvalues --    0.81788   0.82563   0.82644   0.82908   0.83138
 Alpha virt. eigenvalues --    0.83543   0.84044   0.84342   0.84865   0.85336
 Alpha virt. eigenvalues --    0.85848   0.86546   0.87111   0.87301   0.87481
 Alpha virt. eigenvalues --    0.88338   0.89054   0.89268   0.90229   0.90487
 Alpha virt. eigenvalues --    0.90731   0.91060   0.91542   0.92289   0.92471
 Alpha virt. eigenvalues --    0.92625   0.93671   0.93819   0.94556   0.94996
 Alpha virt. eigenvalues --    0.95514   0.95780   0.96645   0.96905   0.97072
 Alpha virt. eigenvalues --    0.98270   0.98504   0.98881   0.99035   0.99165
 Alpha virt. eigenvalues --    0.99772   1.00508   1.00928   1.01281   1.02226
 Alpha virt. eigenvalues --    1.02298   1.03065   1.03466   1.03688   1.03857
 Alpha virt. eigenvalues --    1.04820   1.05047   1.05269   1.06042   1.06759
 Alpha virt. eigenvalues --    1.06957   1.07310   1.08217   1.08505   1.09678
 Alpha virt. eigenvalues --    1.09930   1.10576   1.11248   1.11587   1.12244
 Alpha virt. eigenvalues --    1.12787   1.13370   1.13622   1.13809   1.14184
 Alpha virt. eigenvalues --    1.14934   1.15152   1.15871   1.16294   1.16924
 Alpha virt. eigenvalues --    1.17374   1.17801   1.17959   1.18301   1.18585
 Alpha virt. eigenvalues --    1.19326   1.19869   1.20418   1.20535   1.20954
 Alpha virt. eigenvalues --    1.21167   1.21354   1.21911   1.22152   1.22820
 Alpha virt. eigenvalues --    1.23397   1.23739   1.24270   1.24593   1.24872
 Alpha virt. eigenvalues --    1.25778   1.26058   1.26591   1.26839   1.28346
 Alpha virt. eigenvalues --    1.28498   1.28679   1.29035   1.30102   1.30305
 Alpha virt. eigenvalues --    1.31024   1.31413   1.32490   1.32807   1.33318
 Alpha virt. eigenvalues --    1.33683   1.33925   1.34254   1.34823   1.35680
 Alpha virt. eigenvalues --    1.36449   1.37054   1.37987   1.38073   1.38872
 Alpha virt. eigenvalues --    1.39123   1.40094   1.40411   1.40855   1.41600
 Alpha virt. eigenvalues --    1.42973   1.44530   1.45335   1.45815   1.46666
 Alpha virt. eigenvalues --    1.46933   1.47600   1.47879   1.48197   1.49272
 Alpha virt. eigenvalues --    1.50292   1.50656   1.51696   1.52463   1.52853
 Alpha virt. eigenvalues --    1.53691   1.54185   1.54434   1.55079   1.55101
 Alpha virt. eigenvalues --    1.55747   1.56872   1.57017   1.58855   1.59128
 Alpha virt. eigenvalues --    1.59871   1.60397   1.60989   1.61415   1.62307
 Alpha virt. eigenvalues --    1.63073   1.64057   1.64462   1.64737   1.65671
 Alpha virt. eigenvalues --    1.65833   1.66563   1.66887   1.67250   1.67847
 Alpha virt. eigenvalues --    1.68335   1.68711   1.69244   1.69678   1.69784
 Alpha virt. eigenvalues --    1.70497   1.70897   1.71615   1.72162   1.72487
 Alpha virt. eigenvalues --    1.72783   1.73007   1.73764   1.73868   1.73932
 Alpha virt. eigenvalues --    1.74473   1.74923   1.75068   1.75628   1.75916
 Alpha virt. eigenvalues --    1.76539   1.76830   1.76883   1.77209   1.77889
 Alpha virt. eigenvalues --    1.78459   1.78774   1.79151   1.79335   1.79428
 Alpha virt. eigenvalues --    1.79934   1.80418   1.80572   1.80735   1.81405
 Alpha virt. eigenvalues --    1.82506   1.82995   1.83503   1.83576   1.84775
 Alpha virt. eigenvalues --    1.85120   1.85235   1.85488   1.86129   1.86451
 Alpha virt. eigenvalues --    1.86982   1.87373   1.87790   1.88137   1.88647
 Alpha virt. eigenvalues --    1.88901   1.89240   1.89541   1.89854   1.90791
 Alpha virt. eigenvalues --    1.91281   1.91602   1.91928   1.92557   1.92990
 Alpha virt. eigenvalues --    1.93017   1.93623   1.94226   1.94675   1.95314
 Alpha virt. eigenvalues --    1.96951   1.97266   1.97532   1.98657   1.99292
 Alpha virt. eigenvalues --    1.99763   2.00430   2.01398   2.01834   2.02357
 Alpha virt. eigenvalues --    2.02996   2.04102   2.04254   2.04842   2.05205
 Alpha virt. eigenvalues --    2.05881   2.06999   2.07754   2.08084   2.08318
 Alpha virt. eigenvalues --    2.08416   2.09738   2.10100   2.10779   2.11128
 Alpha virt. eigenvalues --    2.11878   2.12789   2.13256   2.13412   2.13712
 Alpha virt. eigenvalues --    2.14811   2.16142   2.16647   2.18465   2.19144
 Alpha virt. eigenvalues --    2.19394   2.20276   2.20624   2.21065   2.21597
 Alpha virt. eigenvalues --    2.22382   2.22775   2.23436   2.24514   2.24890
 Alpha virt. eigenvalues --    2.25774   2.26753   2.26951   2.27556   2.28253
 Alpha virt. eigenvalues --    2.29008   2.29210   2.29829   2.29877   2.30559
 Alpha virt. eigenvalues --    2.31021   2.31839   2.32526   2.33333   2.33649
 Alpha virt. eigenvalues --    2.34029   2.34988   2.35209   2.35571   2.35941
 Alpha virt. eigenvalues --    2.36418   2.37172   2.37270   2.38025   2.39403
 Alpha virt. eigenvalues --    2.39809   2.40173   2.40892   2.41239   2.41764
 Alpha virt. eigenvalues --    2.42560   2.43130   2.43391   2.44172   2.45273
 Alpha virt. eigenvalues --    2.46020   2.46355   2.47175   2.47600   2.48562
 Alpha virt. eigenvalues --    2.49488   2.50033   2.50165   2.51169   2.53116
 Alpha virt. eigenvalues --    2.53722   2.54067   2.54794   2.55468   2.56650
 Alpha virt. eigenvalues --    2.57306   2.57970   2.59060   2.59417   2.60326
 Alpha virt. eigenvalues --    2.60796   2.61279   2.62353   2.62684   2.63730
 Alpha virt. eigenvalues --    2.64629   2.65644   2.66029   2.66827   2.67338
 Alpha virt. eigenvalues --    2.67625   2.68043   2.68174   2.69442   2.70332
 Alpha virt. eigenvalues --    2.70824   2.72195   2.72470   2.73523   2.74116
 Alpha virt. eigenvalues --    2.74656   2.74975   2.75465   2.76598   2.77322
 Alpha virt. eigenvalues --    2.78876   2.79075   2.79256   2.79723   2.80620
 Alpha virt. eigenvalues --    2.81384   2.81695   2.81806   2.82152   2.82830
 Alpha virt. eigenvalues --    2.83245   2.83943   2.84440   2.84808   2.85242
 Alpha virt. eigenvalues --    2.86681   2.87220   2.87450   2.87606   2.88590
 Alpha virt. eigenvalues --    2.89508   2.91183   2.91951   2.93511   2.94667
 Alpha virt. eigenvalues --    2.95871   2.97243   2.97648   2.99199   2.99934
 Alpha virt. eigenvalues --    3.00375   3.03414   3.04356   3.05440   3.07318
 Alpha virt. eigenvalues --    3.08560   3.10283   3.11097   3.14328   3.15088
 Alpha virt. eigenvalues --    3.15646   3.16376   3.16859   3.19304   3.21848
 Alpha virt. eigenvalues --    3.22675   3.22800   3.24158   3.25029   3.28724
 Alpha virt. eigenvalues --    3.46167   3.46838   3.48737   3.50058   3.50489
 Alpha virt. eigenvalues --    3.52629   3.54205   3.56798   3.58729   3.60332
 Alpha virt. eigenvalues --    3.63423   3.71676   3.74872
          Condensed to atoms (all electrons):
 Mulliken charges:
               1
     1  N   -0.312387
     2  C    0.180300
     3  C    0.045015
     4  N   -0.256850
     5  C    0.133687
     6  H    0.031022
     7  N   -0.261897
     8  C    0.123580
     9  H    0.024754
    10  N   -0.296215
    11  C    0.235840
    12  C    0.092942
    13  N   -0.041574
    14  H    0.107718
    15  H    0.088605
    16  H    0.028958
    17  H    0.035321
    18  H    0.027668
    19  N   -0.286427
    20  C    0.224702
    21  C    0.178383
    22  N   -0.075314
    23  H    0.099186
    24  H    0.112686
    25  N   -0.280634
    26  C    0.196814
    27  N   -0.104452
    28  H    0.122373
    29  C    0.125088
    30  O   -0.321883
    31  C    0.017699
    32  N   -0.222678
    33  C    0.113493
    34  H    0.026750
    35  H    0.021114
    36  H    0.023474
    37  H    0.015964
    38  H    0.051393
    39  H    0.067322
    40  H    0.081892
    41  H    0.032190
    42  C   -0.102161
    43  O   -0.265798
    44  C    0.186301
    45  H    0.133738
    46  N   -0.129525
    47  O   -0.349043
    48  C    0.348775
    49  H    0.046264
    50  C    0.171213
    51  C    0.027619
    52  N   -0.287008
    53  H    0.033483
    54  H    0.018404
    55  H    0.005628
    56  H    0.117177
    57  H    0.120240
    58  N   -0.067590
    59  C    0.134524
    60  C    0.216562
    61  N   -0.278814
    62  H    0.062780
    63  C    0.152999
    64  N   -0.302658
    65  H    0.023742
    66  C    0.109539
    67  N   -0.250851
    68  C    0.019209
    69  C    0.183176
    70  N   -0.283546
 Sum of Mulliken charges =  -0.00000
 Mulliken charges with hydrogens summed into heavy atoms:
               1
     1  N   -0.312387
     2  C    0.272248
     3  C    0.045015
     4  N   -0.256850
     5  C    0.164710
     7  N   -0.261897
     8  C    0.148333
    10  N   -0.296215
    11  C    0.235840
    12  C    0.092942
    13  N    0.154748
    19  N   -0.286427
    20  C    0.224702
    21  C    0.238935
    22  N    0.136558
    25  N   -0.280634
    26  C    0.196814
    27  N    0.017920
    29  C    0.125088
    30  O   -0.321883
    31  C    0.017699
    32  N   -0.222678
    33  C    0.140243
    42  C   -0.069972
    43  O   -0.265798
    44  C    0.186301
    46  N    0.004214
    47  O   -0.349043
    48  C    0.348775
    50  C    0.217477
    51  C    0.228225
    52  N   -0.287008
    58  N    0.169828
    59  C    0.134524
    60  C    0.216562
    61  N   -0.278814
    63  C    0.215779
    64  N   -0.302658
    66  C    0.133281
    67  N   -0.250851
    68  C    0.019209
    69  C    0.240690
    70  N   -0.283546
 Electronic spatial extent (au):  <R**2>=          23736.4914
 Charge=             -0.0000 electrons
 Dipole moment (field-independent basis, Debye):
    X=              4.7726    Y=              5.6453    Z=              4.5386  Tot=              8.6744
 Quadrupole moment (field-independent basis, Debye-Ang):
   XX=           -137.4047   YY=           -229.4083   ZZ=           -258.0306
   XY=             18.1769   XZ=             17.7018   YZ=             -8.1562
 Traceless Quadrupole moment (field-independent basis, Debye-Ang):
   XX=             70.8765   YY=            -21.1271   ZZ=            -49.7494
   XY=             18.1769   XZ=             17.7018   YZ=             -8.1562
 Octapole moment (field-independent basis, Debye-Ang**2):
  XXX=             -7.7235  YYY=             39.9563  ZZZ=             19.1412  XYY=             35.9738
  XXY=             58.9794  XXZ=            -37.8941  XZZ=             10.7611  YZZ=             41.5345
  YYZ=             65.4237  XYZ=             21.4392
 Hexadecapole moment (field-independent basis, Debye-Ang**3):
 XXXX=         -16582.9826 YYYY=          -3871.5908 ZZZZ=          -2915.7798 XXXY=            527.0981
 XXXZ=            295.0139 YYYX=            104.0638 YYYZ=            -72.9043 ZZZX=             69.7792
 ZZZY=             -0.7135 XXYY=          -4643.7789 XXZZ=          -4502.9556 YYZZ=          -1217.4347
 XXYZ=             54.9139 YYXZ=            166.3412 ZZXY=             99.8868
 N-N= 5.558657594110D+03 E-N=-1.589799615553D+04  KE= 2.038123929498D+03
 No NMR shielding tensors so no spin-rotation constants.
 Leave Link  601 at Fri Jan 19 21:36:12 2018, MaxMem=  4294967296 cpu:              49.0 elap:               1.7
 (Enter /share/apps/g16/l9999.exe)
 1\1\GINC-COMPUTE-0-3\SP\RwB97XD\CC-pVDZ\C23H27N17O3\SATYA\19-Jan-2018\
 0\\#p wb97xd/cc-pvdz sp scf=(maxcycles=20)\\Base pair stacking\\0,1\N,
 0,2.61095,10.12641,-6.86699\C,0,2.61899,11.59302,-6.70273\C,0,2.01454,
 8.00943,-6.86284\N,0,3.29811,8.04998,-7.38776\C,0,3.60605,9.32376,-7.3
 6925\H,0,4.55447,9.73739,-7.71327\N,0,-0.07878,7.24946,-6.08605\C,0,-0
 .36057,8.52979,-5.82349\H,0,-1.34593,8.7109,-5.39627\N,0,0.38857,9.614
 89,-6.00857\C,0,1.57766,9.28168,-6.53722\C,0,1.1258,6.94692,-6.61759\N
 ,0,1.40894,5.66944,-6.88037\H,0,2.28836,5.3995,-7.27404\H,0,0.75204,4.
 93907,-6.69281\H,0,2.74759,12.02888,-7.59361\H,0,1.74912,11.88995,-6.3
 0992\H,0,3.36591,11.85813,-6.09296\N,0,0.35781,7.36698,-3.15889\C,0,-0
 .35957,6.20272,-3.02498\C,0,-0.19945,8.73026,-3.05119\N,0,-3.37518,4.5
 7638,-2.45678\H,0,-3.70542,3.63486,-2.3958\H,0,-4.05028,5.30325,-2.327
 81\N,0,-1.68343,6.10929,-2.77454\C,0,-2.08519,4.85282,-2.70053\N,0,-1.
 25556,3.7693,-2.85933\H,0,-1.64993,2.84405,-2.78618\C,0,0.10968,3.8418
 6,-3.11764\O,0,0.76858,2.80234,-3.24406\C,0,0.55593,5.18535,-3.19994\N
 ,0,1.82258,5.70053,-3.43887\C,0,1.65685,6.99499,-3.4054\H,0,2.45148,7.
 72681,-3.55463\H,0,-0.0514,9.22139,-3.90891\H,0,-1.1796,8.67371,-2.865
 75\H,0,0.25214,9.21879,-2.30539\H,0,-4.33665,-1.46977,-2.94483\H,0,-3.
 78458,-1.63088,-1.27932\H,0,-4.06464,-0.02942,-1.96362\H,0,0.17124,-2.
 9936,-3.65443\C,0,-0.35818,-2.07805,-3.39038\O,0,1.48277,-0.65877,-3.8
 6332\C,0,0.32023,-0.8223,-3.49379\H,0,0.00507,1.17775,-3.19585\N,0,-0.
 44002,0.27276,-3.13586\O,0,-2.33359,1.29442,-2.40936\C,0,-1.74281,0.27
 037,-2.70425\H,0,-2.18942,-3.04158,-2.87658\C,0,-1.62893,-2.11261,-2.9
 7251\C,0,-3.71994,-1.03079,-2.17475\N,0,-2.32823,-0.97828,-2.63098\H,0
 ,-5.75124,1.94409,-4.55028\H,0,-4.81385,3.00071,-3.73359\H,0,-4.97106,
 1.46669,-3.19867\H,0,1.07313,2.05522,-7.46252\H,0,0.11547,0.64457,-7.4
 0735\N,0,0.24136,1.60131,-7.14274\C,0,-0.6605,2.24242,-6.39655\C,0,-2.
 68306,2.44282,-5.15929\N,0,-2.48768,3.72756,-4.81914\H,0,-1.1024,5.212
 71,-5.09471\C,0,-1.33951,4.17466,-5.32383\N,0,-0.43487,3.53411,-6.0714
 2\H,0,-4.19319,-0.41258,-5.2947\C,0,-3.49957,0.42206,-5.40059\N,0,-2.3
 7241,0.37427,-6.06759\C,0,-1.8447,1.64911,-5.92263\C,0,-4.91469,2.0459
 9,-4.01194\N,0,-3.75068,1.64375,-4.82513\\Version=EM64L-G16RevA.03\Sta
 te=1-A\HF=-2048.6916324\RMSD=7.543e-09\Dipole=-3.3447865,-0.6168709,0.
 2809098\Quadrupole=-5.9357032,27.0725191,-21.1368159,38.6237107,-20.72
 86204,-7.7108781\PG=C01 [X(C23H27N17O3)]\\@


 The chemist is a guest at the physicist's table and
 frequently dines well.
                   -- Richard Bersohn
 Job cpu time:       0 days  6 hours 18 minutes 39.8 seconds.
 Elapsed time:       0 days  0 hours 12 minutes 15.1 seconds.
 File lengths (MBytes):  RWF=    298 Int=      0 D2E=      0 Chk=     33 Scr=      1
 Normal termination of Gaussian 16 at Fri Jan 19 21:36:12 2018.
