 Entering Gaussian System, Link 0=g16
 Input=str20.10.0.5.com
 Output=str20.10.0.5.log
 Initial command:
 /share/apps/g16/l1.exe "/state/partition1/scr/Gau-29962.inp" -scrdir="/state/partition1/scr/"
 Entering Link 1 = /share/apps/g16/l1.exe PID=     29963.
  
 Copyright (c) 1988,1990,1992,1993,1995,1998,2003,2009,2016,
            Gaussian, Inc.  All Rights Reserved.
  
 This is part of the Gaussian(R) 16 program.  It is based on
 the Gaussian(R) 09 system (copyright 2009, Gaussian, Inc.),
 the Gaussian(R) 03 system (copyright 2003, Gaussian, Inc.),
 the Gaussian(R) 98 system (copyright 1998, Gaussian, Inc.),
 the Gaussian(R) 94 system (copyright 1995, Gaussian, Inc.),
 the Gaussian 92(TM) system (copyright 1992, Gaussian, Inc.),
 the Gaussian 90(TM) system (copyright 1990, Gaussian, Inc.),
 the Gaussian 88(TM) system (copyright 1988, Gaussian, Inc.),
 the Gaussian 86(TM) system (copyright 1986, Carnegie Mellon
 University), and the Gaussian 82(TM) system (copyright 1983,
 Carnegie Mellon University). Gaussian is a federally registered
 trademark of Gaussian, Inc.
  
 This software contains proprietary and confidential information,
 including trade secrets, belonging to Gaussian, Inc.
  
 This software is provided under written license and may be
 used, copied, transmitted, or stored only in accord with that
 written license.
  
 The following legend is applicable only to US Government
 contracts under FAR:
  
                    RESTRICTED RIGHTS LEGEND
  
 Use, reproduction and disclosure by the US Government is
 subject to restrictions as set forth in subparagraphs (a)
 and (c) of the Commercial Computer Software - Restricted
 Rights clause in FAR 52.227-19.
  
 Gaussian, Inc.
 340 Quinnipiac St., Bldg. 40, Wallingford CT 06492
  
  
 ---------------------------------------------------------------
 Warning -- This program may not be used in any manner that
 competes with the business of Gaussian, Inc. or will provide
 assistance to any competitor of Gaussian, Inc.  The licensee
 of this program is prohibited from giving any competitor of
 Gaussian, Inc. access to this program.  By using this program,
 the user acknowledges that Gaussian, Inc. is engaged in the
 business of creating and licensing software in the field of
 computational chemistry and represents and warrants to the
 licensee that it is not a competitor of Gaussian, Inc. and that
 it will not use this program in any manner prohibited above.
 ---------------------------------------------------------------
  

 Cite this work as:
 Gaussian 16, Revision A.03,
 M. J. Frisch, G. W. Trucks, H. B. Schlegel, G. E. Scuseria, 
 M. A. Robb, J. R. Cheeseman, G. Scalmani, V. Barone, 
 G. A. Petersson, H. Nakatsuji, X. Li, M. Caricato, A. V. Marenich, 
 J. Bloino, B. G. Janesko, R. Gomperts, B. Mennucci, H. P. Hratchian, 
 J. V. Ortiz, A. F. Izmaylov, J. L. Sonnenberg, D. Williams-Young, 
 F. Ding, F. Lipparini, F. Egidi, J. Goings, B. Peng, A. Petrone, 
 T. Henderson, D. Ranasinghe, V. G. Zakrzewski, J. Gao, N. Rega, 
 G. Zheng, W. Liang, M. Hada, M. Ehara, K. Toyota, R. Fukuda, 
 J. Hasegawa, M. Ishida, T. Nakajima, Y. Honda, O. Kitao, H. Nakai, 
 T. Vreven, K. Throssell, J. A. Montgomery, Jr., J. E. Peralta, 
 F. Ogliaro, M. J. Bearpark, J. J. Heyd, E. N. Brothers, K. N. Kudin, 
 V. N. Staroverov, T. A. Keith, R. Kobayashi, J. Normand, 
 K. Raghavachari, A. P. Rendell, J. C. Burant, S. S. Iyengar, 
 J. Tomasi, M. Cossi, J. M. Millam, M. Klene, C. Adamo, R. Cammi, 
 J. W. Ochterski, R. L. Martin, K. Morokuma, O. Farkas, 
 J. B. Foresman, and D. J. Fox, Gaussian, Inc., Wallingford CT, 2016.
 
 ******************************************
 Gaussian 16:  EM64L-G16RevA.03 25-Dec-2016
                19-Jan-2018 
 ******************************************
 %nprocshared=32
 Will use up to   32 processors via shared memory.
 %mem=32GB
 %chk=allatoms_t.chk
 ---------------------------------------
 #p wb97xd/cc-pvdz sp scf=(maxcycles=20)
 ---------------------------------------
 1/38=1,172=1/1;
 2/12=2,17=6,18=5,40=1/2;
 3/5=16,11=2,25=1,30=1,74=-58/1,2,3;
 4//1;
 5/5=2,7=20,38=5/2;
 6/7=2,8=2,9=2,10=2,28=1/1;
 99/5=1,9=1/99;
 Leave Link    1 at Fri Jan 19 14:18:53 2018, MaxMem=  4294967296 cpu:               2.7 elap:               0.1
 (Enter /share/apps/g16/l101.exe)
 ------------------
 Base pair stacking
 ------------------
 Symbolic Z-matrix:
 Charge =  0 Multiplicity = 1
 N                     3.39981   4.10814  -6.16014 
 C                     3.43864   5.55807  -6.43252 
 C                     2.76266   2.00794  -6.01691 
 N                     4.03896   2.06405  -5.47594 
 C                     4.37173   3.3271   -5.58388 
 H                     5.32285   3.74783  -5.25632 
 N                     0.6666    1.23053  -6.76867 
 C                     0.41352   2.49269  -7.12989 
 H                    -0.5618    2.65943  -7.5851 
 N                     1.18074   3.57473  -7.01378 
 C                     2.35529   3.26018  -6.4429 
 C                     1.8572    0.94649  -6.19693 
 N                     2.11168  -0.31283  -5.83567 
 H                     2.97986  -0.56871  -5.40904 
 H                     1.44358  -1.04305  -5.97907 
 H                     4.20002   5.76274  -7.04781 
 H                     2.58053   5.84074  -6.86014 
 H                     3.56198   6.05727  -5.57486 
 N                     0.56017   4.42958  -3.34716 
 C                    -0.16537   3.26597  -3.43469 
 C                     0.02715   5.78734  -3.57756 
 N                    -3.17118   1.63364  -4.03662 
 H                    -3.51064   0.69349  -4.04787 
 H                    -3.82937   2.35626  -4.24951 
 N                    -1.47655   3.16826  -3.74338 
 C                    -1.89103   1.91375  -3.74911 
 N                    -1.08475   0.83595  -3.47386 
 H                    -1.48744  -0.08819  -3.50155 
 C                     0.26711   0.91299  -3.15382 
 O                     0.90506  -0.12152  -2.9224 
 C                     0.72678   2.25443  -3.14372 
 N                     1.98705   2.77257  -2.87886 
 C                     1.84053   4.06302  -3.01105 
 H                     2.63666   4.79562  -2.87416 
 H                     0.52112   6.21749  -4.33239 
 H                    -0.94344   5.72758  -3.80701 
 H                     0.13973   6.33628  -2.75003 
 H                    -3.93309  -4.44757  -4.43283 
 H                    -4.11556  -4.4781   -2.68057 
 H                    -4.0674   -2.93547  -3.53457 
 H                     0.4468   -5.94134  -3.11689 
 C                    -0.13133  -5.01827  -3.16101 
 O                     1.76142  -3.60565  -2.9393 
 C                     0.54745  -3.76188  -3.06844 
 H                     0.16612  -1.75119  -3.07311 
 N                    -0.27714  -2.65695  -3.13505 
 O                    -2.28738  -1.61793  -3.32627 
 C                    -1.64218  -2.65038  -3.27707 
 H                    -2.02553  -5.97328  -3.37489 
 C                    -1.46197  -5.04423  -3.30002 
 C                    -3.68063  -3.94344  -3.51186 
 N                    -2.2237   -3.90029  -3.3594 
 H                    -4.94206  -4.13582  -8.32671 
 H                    -4.75003  -2.80173  -7.40723 
 H                    -5.39249  -4.15454  -6.75821 
 H                     1.91846  -3.96886  -5.50341 
 H                     1.06293  -5.4212   -5.76588 
 N                     1.06236  -4.42065  -5.75467 
 C                    -0.03195  -3.72092  -6.06131 
 C                    -2.30477  -3.45056  -6.71163 
 N                    -2.27633  -2.10777  -6.68818 
 H                    -0.9574   -0.58993  -6.29174 
 C                    -1.06828  -1.67252  -6.33594 
 N                     0.02903  -2.37175  -6.02843 
 H                    -3.56138  -6.40305  -7.10647 
 C                    -2.91432  -5.54751  -6.91072 
 N                    -1.65705  -5.63112  -6.55022 
 C                    -1.25853  -4.30858  -6.42061 
 C                    -4.72197  -3.8009   -7.41053 
 N                    -3.37189  -4.25767  -7.02759 
 
 ITRead=  0  0  0  0  0  0  0  0  0  0  0  0  0  0  0  0  0  0  0  0
 ITRead=  0  0  0  0  0  0  0  0  0  0  0  0  0  0  0  0  0  0  0  0
 ITRead=  0  0  0  0  0  0  0  0  0  0  0  0  0  0  0  0  0  0  0  0
 ITRead=  0  0  0  0  0  0  0  0  0  0
 MicOpt= -1 -1 -1 -1 -1 -1 -1 -1 -1 -1 -1 -1 -1 -1 -1 -1 -1 -1 -1 -1
 MicOpt= -1 -1 -1 -1 -1 -1 -1 -1 -1 -1 -1 -1 -1 -1 -1 -1 -1 -1 -1 -1
 MicOpt= -1 -1 -1 -1 -1 -1 -1 -1 -1 -1 -1 -1 -1 -1 -1 -1 -1 -1 -1 -1
 MicOpt= -1 -1 -1 -1 -1 -1 -1 -1 -1 -1
 NAtoms=     70 NQM=       70 NQMF=       0 NMMI=      0 NMMIF=      0
                NMic=       0 NMicF=      0.
                    Isotopes and Nuclear Properties:
 (Nuclear quadrupole moments (NQMom) in fm**2, nuclear magnetic moments (NMagM)
  in nuclear magnetons)

  Atom         1           2           3           4           5           6           7           8           9          10
 IAtWgt=          14          12          12          14          12           1          14          12           1          14
 AtmWgt=  14.0030740  12.0000000  12.0000000  14.0030740  12.0000000   1.0078250  14.0030740  12.0000000   1.0078250  14.0030740
 NucSpn=           2           0           0           2           0           1           2           0           1           2
 AtZEff=  -0.0000000  -0.0000000  -0.0000000  -0.0000000  -0.0000000  -0.0000000  -0.0000000  -0.0000000  -0.0000000  -0.0000000
 NQMom=    2.0440000   0.0000000   0.0000000   2.0440000   0.0000000   0.0000000   2.0440000   0.0000000   0.0000000   2.0440000
 NMagM=    0.4037610   0.0000000   0.0000000   0.4037610   0.0000000   2.7928460   0.4037610   0.0000000   2.7928460   0.4037610
 AtZNuc=   7.0000000   6.0000000   6.0000000   7.0000000   6.0000000   1.0000000   7.0000000   6.0000000   1.0000000   7.0000000

  Atom        11          12          13          14          15          16          17          18          19          20
 IAtWgt=          12          12          14           1           1           1           1           1          14          12
 AtmWgt=  12.0000000  12.0000000  14.0030740   1.0078250   1.0078250   1.0078250   1.0078250   1.0078250  14.0030740  12.0000000
 NucSpn=           0           0           2           1           1           1           1           1           2           0
 AtZEff=  -0.0000000  -0.0000000  -0.0000000  -0.0000000  -0.0000000  -0.0000000  -0.0000000  -0.0000000  -0.0000000  -0.0000000
 NQMom=    0.0000000   0.0000000   2.0440000   0.0000000   0.0000000   0.0000000   0.0000000   0.0000000   2.0440000   0.0000000
 NMagM=    0.0000000   0.0000000   0.4037610   2.7928460   2.7928460   2.7928460   2.7928460   2.7928460   0.4037610   0.0000000
 AtZNuc=   6.0000000   6.0000000   7.0000000   1.0000000   1.0000000   1.0000000   1.0000000   1.0000000   7.0000000   6.0000000

  Atom        21          22          23          24          25          26          27          28          29          30
 IAtWgt=          12          14           1           1          14          12          14           1          12          16
 AtmWgt=  12.0000000  14.0030740   1.0078250   1.0078250  14.0030740  12.0000000  14.0030740   1.0078250  12.0000000  15.9949146
 NucSpn=           0           2           1           1           2           0           2           1           0           0
 AtZEff=  -0.0000000  -0.0000000  -0.0000000  -0.0000000  -0.0000000  -0.0000000  -0.0000000  -0.0000000  -0.0000000  -0.0000000
 NQMom=    0.0000000   2.0440000   0.0000000   0.0000000   2.0440000   0.0000000   2.0440000   0.0000000   0.0000000   0.0000000
 NMagM=    0.0000000   0.4037610   2.7928460   2.7928460   0.4037610   0.0000000   0.4037610   2.7928460   0.0000000   0.0000000
 AtZNuc=   6.0000000   7.0000000   1.0000000   1.0000000   7.0000000   6.0000000   7.0000000   1.0000000   6.0000000   8.0000000

  Atom        31          32          33          34          35          36          37          38          39          40
 IAtWgt=          12          14          12           1           1           1           1           1           1           1
 AtmWgt=  12.0000000  14.0030740  12.0000000   1.0078250   1.0078250   1.0078250   1.0078250   1.0078250   1.0078250   1.0078250
 NucSpn=           0           2           0           1           1           1           1           1           1           1
 AtZEff=  -0.0000000  -0.0000000  -0.0000000  -0.0000000  -0.0000000  -0.0000000  -0.0000000  -0.0000000  -0.0000000  -0.0000000
 NQMom=    0.0000000   2.0440000   0.0000000   0.0000000   0.0000000   0.0000000   0.0000000   0.0000000   0.0000000   0.0000000
 NMagM=    0.0000000   0.4037610   0.0000000   2.7928460   2.7928460   2.7928460   2.7928460   2.7928460   2.7928460   2.7928460
 AtZNuc=   6.0000000   7.0000000   6.0000000   1.0000000   1.0000000   1.0000000   1.0000000   1.0000000   1.0000000   1.0000000

  Atom        41          42          43          44          45          46          47          48          49          50
 IAtWgt=           1          12          16          12           1          14          16          12           1          12
 AtmWgt=   1.0078250  12.0000000  15.9949146  12.0000000   1.0078250  14.0030740  15.9949146  12.0000000   1.0078250  12.0000000
 NucSpn=           1           0           0           0           1           2           0           0           1           0
 AtZEff=  -0.0000000  -0.0000000  -0.0000000  -0.0000000  -0.0000000  -0.0000000  -0.0000000  -0.0000000  -0.0000000  -0.0000000
 NQMom=    0.0000000   0.0000000   0.0000000   0.0000000   0.0000000   2.0440000   0.0000000   0.0000000   0.0000000   0.0000000
 NMagM=    2.7928460   0.0000000   0.0000000   0.0000000   2.7928460   0.4037610   0.0000000   0.0000000   2.7928460   0.0000000
 AtZNuc=   1.0000000   6.0000000   8.0000000   6.0000000   1.0000000   7.0000000   8.0000000   6.0000000   1.0000000   6.0000000

  Atom        51          52          53          54          55          56          57          58          59          60
 IAtWgt=          12          14           1           1           1           1           1          14          12          12
 AtmWgt=  12.0000000  14.0030740   1.0078250   1.0078250   1.0078250   1.0078250   1.0078250  14.0030740  12.0000000  12.0000000
 NucSpn=           0           2           1           1           1           1           1           2           0           0
 AtZEff=  -0.0000000  -0.0000000  -0.0000000  -0.0000000  -0.0000000  -0.0000000  -0.0000000  -0.0000000  -0.0000000  -0.0000000
 NQMom=    0.0000000   2.0440000   0.0000000   0.0000000   0.0000000   0.0000000   0.0000000   2.0440000   0.0000000   0.0000000
 NMagM=    0.0000000   0.4037610   2.7928460   2.7928460   2.7928460   2.7928460   2.7928460   0.4037610   0.0000000   0.0000000
 AtZNuc=   6.0000000   7.0000000   1.0000000   1.0000000   1.0000000   1.0000000   1.0000000   7.0000000   6.0000000   6.0000000

  Atom        61          62          63          64          65          66          67          68          69          70
 IAtWgt=          14           1          12          14           1          12          14          12          12          14
 AtmWgt=  14.0030740   1.0078250  12.0000000  14.0030740   1.0078250  12.0000000  14.0030740  12.0000000  12.0000000  14.0030740
 NucSpn=           2           1           0           2           1           0           2           0           0           2
 AtZEff=  -0.0000000  -0.0000000  -0.0000000  -0.0000000  -0.0000000  -0.0000000  -0.0000000  -0.0000000  -0.0000000  -0.0000000
 NQMom=    2.0440000   0.0000000   0.0000000   2.0440000   0.0000000   0.0000000   2.0440000   0.0000000   0.0000000   2.0440000
 NMagM=    0.4037610   2.7928460   0.0000000   0.4037610   2.7928460   0.0000000   0.4037610   0.0000000   0.0000000   0.4037610
 AtZNuc=   7.0000000   1.0000000   6.0000000   7.0000000   1.0000000   6.0000000   7.0000000   6.0000000   6.0000000   7.0000000
 Leave Link  101 at Fri Jan 19 14:18:53 2018, MaxMem=  4294967296 cpu:               7.7 elap:               0.3
 (Enter /share/apps/g16/l202.exe)
 Stoichiometry    C23H27N17O3
 Framework group  C1[X(C23H27N17O3)]
 Deg. of freedom   204
 Full point group                 C1      NOp   1
 Largest Abelian subgroup         C1      NOp   1
 Largest concise Abelian subgroup C1      NOp   1
                         Standard orientation:                         
 ---------------------------------------------------------------------
 Center     Atomic      Atomic             Coordinates (Angstroms)
 Number     Number       Type             X           Y           Z
 ---------------------------------------------------------------------
      1          7           0       -5.470860   -1.754680    0.810199
      2          6           0       -6.787698   -1.350412    1.339823
      3          6           0       -3.306257   -1.961126    0.479767
      4          7           0       -3.921611   -2.777474   -0.458132
      5          6           0       -5.201075   -2.620417   -0.221519
      6          1           0       -5.999289   -3.116504   -0.774413
      7          7           0       -1.681430   -0.823482    1.755965
      8          6           0       -2.700722   -0.284337    2.432680
      9          1           0       -2.418373    0.401605    3.230196
     10          7           0       -4.010283   -0.464457    2.272915
     11          6           0       -4.248348   -1.324222    1.268653
     12          6           0       -1.953948   -1.684682    0.751394
     13          7           0       -0.937822   -2.223899    0.074721
     14          1           0       -1.092835   -2.866331   -0.676596
     15          1           0        0.012502   -2.004228    0.295566
     16          1           0       -7.277636   -2.157278    1.670124
     17          1           0       -6.661157   -0.706616    2.093897
     18          1           0       -7.320370   -0.912401    0.615666
     19          7           0       -4.640803    1.877197   -0.673113
     20          6           0       -3.276386    2.003600   -0.570906
     21          6           0       -5.631024    2.738483    0.003907
     22          7           0       -0.495102    3.634575    0.719866
     23          1           0        0.499650    3.556280    0.660032
     24          1           0       -0.858735    4.366807    1.296342
     25          7           0       -2.616397    2.928410    0.159279
     26          6           0       -1.305817    2.795797    0.057220
     27          7           0       -0.686926    1.831931   -0.701357
     28          1           0        0.320991    1.805431   -0.720343
     29          6           0       -1.346047    0.870194   -1.460639
     30          8           0       -0.692708    0.044443   -2.110277
     31          6           0       -2.754627    0.999956   -1.361017
     32          7           0       -3.771031    0.258385   -1.947443
     33          6           0       -4.869243    0.813684   -1.511810
     34          1           0       -5.876303    0.485974   -1.772005
     35          1           0       -6.205395    2.181609    0.602900
     36          1           0       -5.153792    3.427430    0.547841
     37          1           0       -6.202989    3.191876   -0.678812
     38          1           0        5.336444    1.805398    0.115068
     39          1           0        5.382795    2.663763   -1.423016
     40          1           0        3.997939    2.856861   -0.347734
     41          1           0        4.765958   -1.855240   -2.954257
     42          6           0        4.181311   -1.044478   -2.519410
     43          8           0        2.087805   -1.990542   -3.110469
     44          6           0        2.752950   -1.094925   -2.590602
     45          1           0        1.100486   -0.020140   -2.040597
     46          7           0        2.110331   -0.020059   -2.010120
     47          8           0        2.039013    1.962922   -0.905632
     48          6           0        2.693558    1.057219   -1.391358
     49          1           0        5.861902    0.079009   -1.841788
     50          6           0        4.779087   -0.006818   -1.922313
     51          6           0        4.741903    2.164057   -0.711946
     52          7           0        4.074084    1.033586   -1.362949
     53          1           0        5.618677    1.164190    4.088317
     54          1           0        4.300514    1.886181    3.453265
     55          1           0        5.775293    2.174091    2.815917
     56          1           0        2.435420   -3.309531   -0.903509
     57          1           0        4.122160   -3.256121   -0.654177
     58          7           0        3.218423   -2.872772   -0.460452
     59          6           0        3.065333   -1.825640    0.352717
     60          6           0        3.816147   -0.103556    1.813000
     61          7           0        2.590498    0.390123    2.054887
     62          1           0        0.641694    0.031770    1.531128
     63          6           0        1.668348   -0.303615    1.390608
     64          7           0        1.819673   -1.352691    0.575675
     65          1           0        7.033858   -0.338675    2.020891
     66          6           0        5.977592   -0.472039    1.785371
     67          7           0        5.502677   -1.399411    0.990314
     68          6           0        4.133296   -1.177038    0.999021
     69          6           0        5.190969    1.483780    3.242785
     70          7           0        5.012567    0.347492    2.318112
 ---------------------------------------------------------------------
 Rotational constants (GHZ):           0.1587365           0.0527686           0.0511226
 Leave Link  202 at Fri Jan 19 14:18:53 2018, MaxMem=  4294967296 cpu:               0.3 elap:               0.0
 (Enter /share/apps/g16/l301.exe)
 Standard basis: CC-pVDZ (5D, 7F)
 Ernie: Thresh=  0.10000D-02 Tol=  0.10000D-05 Strict=F.
 Ernie:  86 primitive shells out of 1081 were deleted.
 There are   780 symmetry adapted cartesian basis functions of A   symmetry.
 There are   737 symmetry adapted basis functions of A   symmetry.
   737 basis functions,  1608 primitive gaussians,   780 cartesian basis functions
   154 alpha electrons      154 beta electrons
       nuclear repulsion energy      5548.3512190648 Hartrees.
 IExCor= 4639 DFT=T Ex+Corr=wB97XD ExCW=0 ScaHFX=  1.000000
 ScaDFX=  1.000000  1.000000  1.000000  1.000000 ScalE2=  1.000000  1.000000
 IRadAn=      5 IRanWt=     -1 IRanGd=            0 ICorTp=0 IEmpDi=121
 HFx  wShort=  0.000000 wLong=  0.200000 cFull=  0.222036 cShort=  0.000000 cLong=  0.777964
 DFx  wShort=  0.000000 wLong=  0.200000 cFull=  0.000000 cShort=  0.000000 cLong=  1.000000
 NAtoms=   70 NActive=   70 NUniq=   70 SFac= 1.00D+00 NAtFMM=   60 NAOKFM=T Big=T
 Integral buffers will be    131072 words long.
 Raffenetti 2 integral format.
 Two-electron integral symmetry is turned on.
 R6Disp:  Grimme-D2 Dispersion energy=       -0.0741516819 Hartrees.
 Nuclear repulsion after empirical dispersion term =     5548.2770673829 Hartrees.
 Leave Link  301 at Fri Jan 19 14:18:53 2018, MaxMem=  4294967296 cpu:               2.2 elap:               0.1
 (Enter /share/apps/g16/l302.exe)
 NPDir=0 NMtPBC=     1 NCelOv=     1 NCel=       1 NClECP=     1 NCelD=      1
         NCelK=      1 NCelE2=     1 NClLst=     1 CellRange=     0.0.
 One-electron integrals computed using PRISM.
 One-electron integral symmetry used in STVInt
 NBasis=   737 RedAO= T EigKep=  6.71D-04  NBF=   737
 NBsUse=   737 1.00D-06 EigRej= -1.00D+00 NBFU=   737
 Precomputing XC quadrature grid using
 IXCGrd= 4 IRadAn=           5 IRanWt=          -1 IRanGd=           0 AccXCQ= 0.00D+00.
 Generated NRdTot=       0 NPtTot=           0 NUsed=           0 NTot=          32
 NSgBfM=   765   762   762   762   765 MxSgAt=    70 MxSgA2=    70.
 Leave Link  302 at Fri Jan 19 14:18:57 2018, MaxMem=  4294967296 cpu:             135.0 elap:               4.2
 (Enter /share/apps/g16/l303.exe)
 DipDrv:  MaxL=1.
 Leave Link  303 at Fri Jan 19 14:18:58 2018, MaxMem=  4294967296 cpu:              12.5 elap:               0.4
 (Enter /share/apps/g16/l401.exe)
 ExpMin= 1.22D-01 ExpMax= 1.17D+04 ExpMxC= 4.01D+02 IAcc=3 IRadAn=         5 AccDes= 0.00D+00
 Harris functional with IExCor= 4639 and IRadAn=       5 diagonalized for initial guess.
 HarFok:  IExCor= 4639 AccDes= 0.00D+00 IRadAn=         5 IDoV= 1 UseB2=F ITyADJ=14
 ICtDFT=  3500011 ScaDFX=  1.000000  1.000000  1.000000  1.000000
 FoFCou: FMM=F IPFlag=           0 FMFlag=      100000 FMFlg1=        2001
         NFxFlg=           0 DoJE=T BraDBF=F KetDBF=T FulRan=T
         wScrn=  0.000000 ICntrl=       500 IOpCl=  0 I1Cent=   200000004 NGrid=           0
         NMat0=    1 NMatS0=      1 NMatT0=    0 NMatD0=    1 NMtDS0=    0 NMtDT0=    0
 Petite list used in FoFCou.
 Harris En= -1963.88521602268    
 JPrj=0 DoOrth=F DoCkMO=F.
 Leave Link  401 at Fri Jan 19 14:19:11 2018, MaxMem=  4294967296 cpu:             406.2 elap:              12.7
 (Enter /share/apps/g16/l502.exe)
 Integral symmetry usage will be decided dynamically.
 Closed shell SCF:
 Using DIIS extrapolation, IDIIS=  1040.
 NGot=  4294967296 LenX=  4293717438 LenY=  4293108258
 Requested convergence on RMS density matrix=1.00D-08 within  20 cycles.
 Requested convergence on MAX density matrix=1.00D-06.
 Requested convergence on             energy=1.00D-06.
 No special actions if energy rises.
 Fock matrices will be formed incrementally for  20 cycles.
 Integral accuracy reduced to 1.0D-05 until final iterations.

 Cycle   1  Pass 0  IDiag  1:
 FoFJK:  IHMeth= 1 ICntrl=       0 DoSepK=T KAlg= 0 I1Cent=           0 FoldK=F
 IRaf=         1 NMat=       1 IRICut=       1 DoRegI=T DoRafI=F ISym2E= 0 IDoP0=0 IntGTp=1.
 FoFCou: FMM=T IPFlag=           0 FMFlag=      100000 FMFlg1=        2001
         NFxFlg=           0 DoJE=T BraDBF=F KetDBF=F FulRan=T
         wScrn=  0.000000 ICntrl=       500 IOpCl=  0 I1Cent=           0 NGrid=           0
         NMat0=    1 NMatS0=      1 NMatT0=    0 NMatD0=    1 NMtDS0=    0 NMtDT0=    0
 Symmetry not used in FoFCou.
 FMM levels:  10  Number of levels for PrismC:   9
 E= -2048.31718328366    
 DIIS: error= 2.31D-02 at cycle   1 NSaved=   1.
 NSaved= 1 IEnMin= 1 EnMin= -2048.31718328366     IErMin= 1 ErrMin= 2.31D-02
 ErrMax= 2.31D-02  0.00D+00 EMaxC= 1.00D-01 BMatC= 8.34D-01 BMatP= 8.34D-01
 IDIUse=3 WtCom= 7.69D-01 WtEn= 2.31D-01
 Coeff-Com:  0.100D+01
 Coeff-En:   0.100D+01
 Coeff:      0.100D+01
 Gap=     0.264 Goal=   None    Shift=    0.000
 GapD=    0.264 DampG=1.000 DampE=0.500 DampFc=0.5000 IDamp=-1.
 Damping current iteration by 5.00D-01
 RMSDP=1.58D-03 MaxDP=1.18D-01              OVMax= 1.66D-01

 Cycle   2  Pass 0  IDiag  1:
 RMSU=  7.90D-04    CP:  9.98D-01
 E= -2048.51315472200     Delta-E=       -0.195971438344 Rises=F Damp=T
 DIIS: error= 1.29D-02 at cycle   2 NSaved=   2.
 NSaved= 2 IEnMin= 2 EnMin= -2048.51315472200     IErMin= 2 ErrMin= 1.29D-02
 ErrMax= 1.29D-02  0.00D+00 EMaxC= 1.00D-01 BMatC= 1.45D-01 BMatP= 8.34D-01
 IDIUse=3 WtCom= 8.71D-01 WtEn= 1.29D-01
 Coeff-Com: -0.191D+00 0.119D+01
 Coeff-En:   0.000D+00 0.100D+01
 Coeff:     -0.166D+00 0.117D+01
 Gap=     0.363 Goal=   None    Shift=    0.000
 RMSDP=5.92D-04 MaxDP=3.23D-02 DE=-1.96D-01 OVMax= 1.38D-01

 Cycle   3  Pass 0  IDiag  1:
 RMSU=  5.83D-04    CP:  9.94D-01  1.12D+00
 E= -2048.69113203621     Delta-E=       -0.177977314204 Rises=F Damp=F
 DIIS: error= 7.59D-03 at cycle   3 NSaved=   3.
 NSaved= 3 IEnMin= 3 EnMin= -2048.69113203621     IErMin= 3 ErrMin= 7.59D-03
 ErrMax= 7.59D-03  0.00D+00 EMaxC= 1.00D-01 BMatC= 6.62D-02 BMatP= 1.45D-01
 IDIUse=3 WtCom= 9.24D-01 WtEn= 7.59D-02
 Coeff-Com: -0.232D+00 0.554D+00 0.678D+00
 Coeff-En:   0.000D+00 0.000D+00 0.100D+01
 Coeff:     -0.214D+00 0.512D+00 0.702D+00
 Gap=     0.283 Goal=   None    Shift=    0.000
 RMSDP=3.72D-04 MaxDP=2.86D-02 DE=-1.78D-01 OVMax= 7.00D-02

 Cycle   4  Pass 0  IDiag  1:
 RMSU=  2.09D-04    CP:  9.94D-01  1.42D+00  6.56D-01
 E= -2048.74088839918     Delta-E=       -0.049756362974 Rises=F Damp=F
 DIIS: error= 2.57D-03 at cycle   4 NSaved=   4.
 NSaved= 4 IEnMin= 4 EnMin= -2048.74088839918     IErMin= 4 ErrMin= 2.57D-03
 ErrMax= 2.57D-03  0.00D+00 EMaxC= 1.00D-01 BMatC= 9.79D-03 BMatP= 6.62D-02
 IDIUse=3 WtCom= 9.74D-01 WtEn= 2.57D-02
 Coeff-Com: -0.955D-01 0.185D+00 0.378D+00 0.533D+00
 Coeff-En:   0.000D+00 0.000D+00 0.765D-01 0.923D+00
 Coeff:     -0.930D-01 0.180D+00 0.370D+00 0.543D+00
 Gap=     0.288 Goal=   None    Shift=    0.000
 RMSDP=1.30D-04 MaxDP=1.03D-02 DE=-4.98D-02 OVMax= 1.52D-02

 Cycle   5  Pass 0  IDiag  1:
 RMSU=  6.13D-05    CP:  9.94D-01  1.39D+00  7.93D-01  6.21D-01
 E= -2048.74908800375     Delta-E=       -0.008199604567 Rises=F Damp=F
 DIIS: error= 4.99D-04 at cycle   5 NSaved=   5.
 NSaved= 5 IEnMin= 5 EnMin= -2048.74908800375     IErMin= 5 ErrMin= 4.99D-04
 ErrMax= 4.99D-04  0.00D+00 EMaxC= 1.00D-01 BMatC= 2.77D-04 BMatP= 9.79D-03
 IDIUse=3 WtCom= 9.95D-01 WtEn= 4.99D-03
 Coeff-Com: -0.242D-01 0.414D-01 0.119D+00 0.233D+00 0.630D+00
 Coeff-En:   0.000D+00 0.000D+00 0.000D+00 0.000D+00 0.100D+01
 Coeff:     -0.241D-01 0.412D-01 0.119D+00 0.232D+00 0.632D+00
 Gap=     0.288 Goal=   None    Shift=    0.000
 RMSDP=2.65D-05 MaxDP=1.21D-03 DE=-8.20D-03 OVMax= 3.09D-03

 Failed to achieve initial convergence to 1.0D-08 in  6 cycles.
 Switch to full accuracy anyway.
 Cycle   6  Pass 1  IDiag  1:
 E= -2048.74942422585     Delta-E=       -0.000336222100 Rises=F Damp=F
 DIIS: error= 2.35D-04 at cycle   1 NSaved=   1.
 NSaved= 1 IEnMin= 1 EnMin= -2048.74942422585     IErMin= 1 ErrMin= 2.35D-04
 ErrMax= 2.35D-04  0.00D+00 EMaxC= 1.00D-01 BMatC= 7.44D-05 BMatP= 7.44D-05
 IDIUse=3 WtCom= 9.98D-01 WtEn= 2.35D-03
 Coeff-Com:  0.100D+01
 Coeff-En:   0.100D+01
 Coeff:      0.100D+01
 Gap=     0.288 Goal=   None    Shift=    0.000
 RMSDP=2.65D-05 MaxDP=1.21D-03 DE=-3.36D-04 OVMax= 2.70D-03

 Cycle   7  Pass 1  IDiag  1:
 RMSU=  1.13D-04    CP:  1.00D+00
 E= -2048.74947660411     Delta-E=       -0.000052378260 Rises=F Damp=F
 DIIS: error= 2.08D-04 at cycle   2 NSaved=   2.
 NSaved= 2 IEnMin= 2 EnMin= -2048.74947660411     IErMin= 2 ErrMin= 2.08D-04
 ErrMax= 2.08D-04  0.00D+00 EMaxC= 1.00D-01 BMatC= 4.41D-05 BMatP= 7.44D-05
 IDIUse=3 WtCom= 9.98D-01 WtEn= 2.08D-03
 Coeff-Com:  0.413D+00 0.587D+00
 Coeff-En:   0.613D-02 0.994D+00
 Coeff:      0.412D+00 0.588D+00
 Gap=     0.288 Goal=   None    Shift=    0.000
 RMSDP=1.17D-05 MaxDP=6.94D-04 DE=-5.24D-05 OVMax= 1.59D-03

 Cycle   8  Pass 1  IDiag  1:
 RMSU=  1.14D-05    CP:  1.00D+00  1.02D+00
 E= -2048.74950972133     Delta-E=       -0.000033117221 Rises=F Damp=F
 DIIS: error= 8.22D-05 at cycle   3 NSaved=   3.
 NSaved= 3 IEnMin= 3 EnMin= -2048.74950972133     IErMin= 3 ErrMin= 8.22D-05
 ErrMax= 8.22D-05  0.00D+00 EMaxC= 1.00D-01 BMatC= 9.70D-06 BMatP= 4.41D-05
 IDIUse=1 WtCom= 1.00D+00 WtEn= 0.00D+00
 Coeff-Com: -0.188D-01 0.305D+00 0.714D+00
 Coeff:     -0.188D-01 0.305D+00 0.714D+00
 Gap=     0.288 Goal=   None    Shift=    0.000
 RMSDP=5.69D-06 MaxDP=3.82D-04 DE=-3.31D-05 OVMax= 5.93D-04

 Cycle   9  Pass 1  IDiag  1:
 RMSU=  3.82D-06    CP:  1.00D+00  1.05D+00  7.61D-01
 E= -2048.74951923686     Delta-E=       -0.000009515530 Rises=F Damp=F
 DIIS: error= 2.27D-05 at cycle   4 NSaved=   4.
 NSaved= 4 IEnMin= 4 EnMin= -2048.74951923686     IErMin= 4 ErrMin= 2.27D-05
 ErrMax= 2.27D-05  0.00D+00 EMaxC= 1.00D-01 BMatC= 5.17D-07 BMatP= 9.70D-06
 IDIUse=1 WtCom= 1.00D+00 WtEn= 0.00D+00
 Coeff-Com: -0.308D-01 0.845D-01 0.271D+00 0.676D+00
 Coeff:     -0.308D-01 0.845D-01 0.271D+00 0.676D+00
 Gap=     0.288 Goal=   None    Shift=    0.000
 RMSDP=1.45D-06 MaxDP=9.09D-05 DE=-9.52D-06 OVMax= 4.48D-04

 Cycle  10  Pass 1  IDiag  1:
 RMSU=  1.30D-06    CP:  1.00D+00  1.05D+00  7.98D-01  1.10D+00
 E= -2048.74952008127     Delta-E=       -0.000000844405 Rises=F Damp=F
 DIIS: error= 1.28D-05 at cycle   5 NSaved=   5.
 NSaved= 5 IEnMin= 5 EnMin= -2048.74952008127     IErMin= 5 ErrMin= 1.28D-05
 ErrMax= 1.28D-05  0.00D+00 EMaxC= 1.00D-01 BMatC= 1.18D-07 BMatP= 5.17D-07
 IDIUse=1 WtCom= 1.00D+00 WtEn= 0.00D+00
 Coeff-Com: -0.360D-02-0.536D-01-0.114D+00 0.206D+00 0.966D+00
 Coeff:     -0.360D-02-0.536D-01-0.114D+00 0.206D+00 0.966D+00
 Gap=     0.288 Goal=   None    Shift=    0.000
 RMSDP=1.19D-06 MaxDP=6.22D-05 DE=-8.44D-07 OVMax= 2.47D-04

 Cycle  11  Pass 1  IDiag  1:
 RMSU=  4.93D-07    CP:  1.00D+00  1.05D+00  8.08D-01  1.37D+00  1.17D+00
 E= -2048.74952033877     Delta-E=       -0.000000257505 Rises=F Damp=F
 DIIS: error= 5.55D-06 at cycle   6 NSaved=   6.
 NSaved= 6 IEnMin= 6 EnMin= -2048.74952033877     IErMin= 6 ErrMin= 5.55D-06
 ErrMax= 5.55D-06  0.00D+00 EMaxC= 1.00D-01 BMatC= 2.93D-08 BMatP= 1.18D-07
 IDIUse=1 WtCom= 1.00D+00 WtEn= 0.00D+00
 Coeff-Com:  0.472D-02-0.452D-01-0.116D+00-0.638D-02 0.522D+00 0.642D+00
 Coeff:      0.472D-02-0.452D-01-0.116D+00-0.638D-02 0.522D+00 0.642D+00
 Gap=     0.288 Goal=   None    Shift=    0.000
 RMSDP=3.88D-07 MaxDP=2.86D-05 DE=-2.58D-07 OVMax= 1.25D-04

 Cycle  12  Pass 1  IDiag  1:
 RMSU=  1.90D-07    CP:  1.00D+00  1.05D+00  8.10D-01  1.45D+00  1.31D+00
                    CP:  9.43D-01
 E= -2048.74952038242     Delta-E=       -0.000000043648 Rises=F Damp=F
 DIIS: error= 1.13D-06 at cycle   7 NSaved=   7.
 NSaved= 7 IEnMin= 7 EnMin= -2048.74952038242     IErMin= 7 ErrMin= 1.13D-06
 ErrMax= 1.13D-06  0.00D+00 EMaxC= 1.00D-01 BMatC= 7.49D-10 BMatP= 2.93D-08
 IDIUse=1 WtCom= 1.00D+00 WtEn= 0.00D+00
 Coeff-Com:  0.108D-02-0.689D-02-0.191D-01-0.954D-02 0.525D-01 0.126D+00
 Coeff-Com:  0.855D+00
 Coeff:      0.108D-02-0.689D-02-0.191D-01-0.954D-02 0.525D-01 0.126D+00
 Coeff:      0.855D+00
 Gap=     0.288 Goal=   None    Shift=    0.000
 RMSDP=8.81D-08 MaxDP=4.27D-06 DE=-4.36D-08 OVMax= 2.26D-05

 Cycle  13  Pass 1  IDiag  1:
 RMSU=  5.27D-08    CP:  1.00D+00  1.05D+00  8.10D-01  1.46D+00  1.33D+00
                    CP:  1.03D+00  1.15D+00
 E= -2048.74952038401     Delta-E=       -0.000000001591 Rises=F Damp=F
 DIIS: error= 6.48D-07 at cycle   8 NSaved=   8.
 NSaved= 8 IEnMin= 8 EnMin= -2048.74952038401     IErMin= 8 ErrMin= 6.48D-07
 ErrMax= 6.48D-07  0.00D+00 EMaxC= 1.00D-01 BMatC= 3.31D-10 BMatP= 7.49D-10
 IDIUse=1 WtCom= 1.00D+00 WtEn= 0.00D+00
 Coeff-Com: -0.761D-03 0.906D-02 0.226D-01-0.130D-02-0.116D+00-0.112D+00
 Coeff-Com:  0.428D+00 0.770D+00
 Coeff:     -0.761D-03 0.906D-02 0.226D-01-0.130D-02-0.116D+00-0.112D+00
 Coeff:      0.428D+00 0.770D+00
 Gap=     0.288 Goal=   None    Shift=    0.000
 RMSDP=4.92D-08 MaxDP=2.27D-06 DE=-1.59D-09 OVMax= 1.11D-05

 Cycle  14  Pass 1  IDiag  1:
 RMSU=  2.81D-08    CP:  1.00D+00  1.05D+00  8.10D-01  1.46D+00  1.34D+00
                    CP:  1.08D+00  1.30D+00  1.09D+00
 E= -2048.74952038481     Delta-E=       -0.000000000798 Rises=F Damp=F
 DIIS: error= 2.10D-07 at cycle   9 NSaved=   9.
 NSaved= 9 IEnMin= 9 EnMin= -2048.74952038481     IErMin= 9 ErrMin= 2.10D-07
 ErrMax= 2.10D-07  0.00D+00 EMaxC= 1.00D-01 BMatC= 2.65D-11 BMatP= 3.31D-10
 IDIUse=1 WtCom= 1.00D+00 WtEn= 0.00D+00
 Coeff-Com: -0.406D-03 0.422D-02 0.108D-01 0.475D-03-0.499D-01-0.568D-01
 Coeff-Com:  0.791D-01 0.281D+00 0.732D+00
 Coeff:     -0.406D-03 0.422D-02 0.108D-01 0.475D-03-0.499D-01-0.568D-01
 Coeff:      0.791D-01 0.281D+00 0.732D+00
 Gap=     0.288 Goal=   None    Shift=    0.000
 RMSDP=1.36D-08 MaxDP=7.15D-07 DE=-7.98D-10 OVMax= 3.18D-06

 Cycle  15  Pass 1  IDiag  1:
 RMSU=  8.89D-09    CP:  1.00D+00  1.05D+00  8.10D-01  1.46D+00  1.34D+00
                    CP:  1.09D+00  1.33D+00  1.22D+00  1.12D+00
 E= -2048.74952038466     Delta-E=        0.000000000147 Rises=F Damp=F
 DIIS: error= 6.78D-08 at cycle  10 NSaved=  10.
 NSaved=10 IEnMin= 9 EnMin= -2048.74952038481     IErMin=10 ErrMin= 6.78D-08
 ErrMax= 6.78D-08  0.00D+00 EMaxC= 1.00D-01 BMatC= 4.79D-12 BMatP= 2.65D-11
 IDIUse=1 WtCom= 1.00D+00 WtEn= 0.00D+00
 Coeff-Com:  0.294D-04-0.556D-03-0.130D-02 0.175D-03 0.840D-02 0.512D-02
 Coeff-Com: -0.610D-01-0.787D-01 0.252D+00 0.876D+00
 Coeff:      0.294D-04-0.556D-03-0.130D-02 0.175D-03 0.840D-02 0.512D-02
 Coeff:     -0.610D-01-0.787D-01 0.252D+00 0.876D+00
 Gap=     0.288 Goal=   None    Shift=    0.000
 RMSDP=6.92D-09 MaxDP=3.28D-07 DE= 1.47D-10 OVMax= 1.31D-06

 SCF Done:  E(RwB97XD) =  -2048.74952038     A.U. after   15 cycles
            NFock= 15  Conv=0.69D-08     -V/T= 2.0054
 KE= 2.037747506373D+03 PE=-1.587721185799D+04 EE= 6.242437763852D+03
 Leave Link  502 at Fri Jan 19 14:30:49 2018, MaxMem=  4294967296 cpu:           21469.0 elap:             698.3
 (Enter /share/apps/g16/l601.exe)
 Copying SCF densities to generalized density rwf, IOpCl= 0 IROHF=0.

 **********************************************************************

            Population analysis using the SCF density.

 **********************************************************************

 Orbital symmetries:
       Occupied  (A) (A) (A) (A) (A) (A) (A) (A) (A) (A) (A) (A)
                 (A) (A) (A) (A) (A) (A) (A) (A) (A) (A) (A) (A)
                 (A) (A) (A) (A) (A) (A) (A) (A) (A) (A) (A) (A)
                 (A) (A) (A) (A) (A) (A) (A) (A) (A) (A) (A) (A)
                 (A) (A) (A) (A) (A) (A) (A) (A) (A) (A) (A) (A)
                 (A) (A) (A) (A) (A) (A) (A) (A) (A) (A) (A) (A)
                 (A) (A) (A) (A) (A) (A) (A) (A) (A) (A) (A) (A)
                 (A) (A) (A) (A) (A) (A) (A) (A) (A) (A) (A) (A)
                 (A) (A) (A) (A) (A) (A) (A) (A) (A) (A) (A) (A)
                 (A) (A) (A) (A) (A) (A) (A) (A) (A) (A) (A) (A)
                 (A) (A) (A) (A) (A) (A) (A) (A) (A) (A) (A) (A)
                 (A) (A) (A) (A) (A) (A) (A) (A) (A) (A) (A) (A)
                 (A) (A) (A) (A) (A) (A) (A) (A) (A) (A)
       Virtual   (A) (A) (A) (A) (A) (A) (A) (A) (A) (A) (A) (A)
                 (A) (A) (A) (A) (A) (A) (A) (A) (A) (A) (A) (A)
                 (A) (A) (A) (A) (A) (A) (A) (A) (A) (A) (A) (A)
                 (A) (A) (A) (A) (A) (A) (A) (A) (A) (A) (A) (A)
                 (A) (A) (A) (A) (A) (A) (A) (A) (A) (A) (A) (A)
                 (A) (A) (A) (A) (A) (A) (A) (A) (A) (A) (A) (A)
                 (A) (A) (A) (A) (A) (A) (A) (A) (A) (A) (A) (A)
                 (A) (A) (A) (A) (A) (A) (A) (A) (A) (A) (A) (A)
                 (A) (A) (A) (A) (A) (A) (A) (A) (A) (A) (A) (A)
                 (A) (A) (A) (A) (A) (A) (A) (A) (A) (A) (A) (A)
                 (A) (A) (A) (A) (A) (A) (A) (A) (A) (A) (A) (A)
                 (A) (A) (A) (A) (A) (A) (A) (A) (A) (A) (A) (A)
                 (A) (A) (A) (A) (A) (A) (A) (A) (A) (A) (A) (A)
                 (A) (A) (A) (A) (A) (A) (A) (A) (A) (A) (A) (A)
                 (A) (A) (A) (A) (A) (A) (A) (A) (A) (A) (A) (A)
                 (A) (A) (A) (A) (A) (A) (A) (A) (A) (A) (A) (A)
                 (A) (A) (A) (A) (A) (A) (A) (A) (A) (A) (A) (A)
                 (A) (A) (A) (A) (A) (A) (A) (A) (A) (A) (A) (A)
                 (A) (A) (A) (A) (A) (A) (A) (A) (A) (A) (A) (A)
                 (A) (A) (A) (A) (A) (A) (A) (A) (A) (A) (A) (A)
                 (A) (A) (A) (A) (A) (A) (A) (A) (A) (A) (A) (A)
                 (A) (A) (A) (A) (A) (A) (A) (A) (A) (A) (A) (A)
                 (A) (A) (A) (A) (A) (A) (A) (A) (A) (A) (A) (A)
                 (A) (A) (A) (A) (A) (A) (A) (A) (A) (A) (A) (A)
                 (A) (A) (A) (A) (A) (A) (A) (A) (A) (A) (A) (A)
                 (A) (A) (A) (A) (A) (A) (A) (A) (A) (A) (A) (A)
                 (A) (A) (A) (A) (A) (A) (A) (A) (A) (A) (A) (A)
                 (A) (A) (A) (A) (A) (A) (A) (A) (A) (A) (A) (A)
                 (A) (A) (A) (A) (A) (A) (A) (A) (A) (A) (A) (A)
                 (A) (A) (A) (A) (A) (A) (A) (A) (A) (A) (A) (A)
                 (A) (A) (A) (A) (A) (A) (A) (A) (A) (A) (A) (A)
                 (A) (A) (A) (A) (A) (A) (A) (A) (A) (A) (A) (A)
                 (A) (A) (A) (A) (A) (A) (A) (A) (A) (A) (A) (A)
                 (A) (A) (A) (A) (A) (A) (A) (A) (A) (A) (A) (A)
                 (A) (A) (A) (A) (A) (A) (A) (A) (A) (A) (A) (A)
                 (A) (A) (A) (A) (A) (A) (A) (A) (A) (A) (A) (A)
                 (A) (A) (A) (A) (A) (A) (A) (A) (A) (A) (A) (A)
                 (A) (A) (A) (A) (A) (A) (A) (A) (A) (A) (A) (A)
                 (A) (A) (A) (A) (A) (A) (A) (A) (A) (A) (A) (A)
                 (A) (A) (A) (A) (A) (A) (A) (A) (A) (A) (A) (A)
                 (A) (A) (A) (A) (A) (A) (A) (A) (A) (A) (A) (A)
                 (A) (A) (A) (A) (A) (A) (A) (A) (A) (A) (A) (A)
                 (A) (A) (A) (A) (A) (A) (A) (A) (A) (A) (A) (A)
                 (A) (A) (A) (A) (A) (A) (A) (A) (A) (A) (A) (A)
                 (A) (A) (A) (A) (A) (A) (A) (A) (A) (A) (A) (A)
                 (A) (A) (A) (A) (A) (A) (A) (A) (A) (A) (A) (A)
                 (A) (A) (A) (A) (A) (A) (A) (A) (A) (A) (A) (A)
                 (A) (A) (A) (A) (A) (A) (A) (A) (A) (A) (A) (A)
                 (A) (A) (A) (A) (A) (A) (A)
 The electronic state is 1-A.
 Alpha  occ. eigenvalues --  -19.25619 -19.21901 -19.20703 -14.52323 -14.52133
 Alpha  occ. eigenvalues --  -14.48925 -14.48827 -14.47624 -14.47382 -14.46957
 Alpha  occ. eigenvalues --  -14.46733 -14.45273 -14.44059 -14.44008 -14.42292
 Alpha  occ. eigenvalues --  -14.42074 -14.41224 -14.41078 -14.41040 -14.40430
 Alpha  occ. eigenvalues --  -10.45192 -10.41308 -10.40064 -10.39475 -10.38335
 Alpha  occ. eigenvalues --  -10.37829 -10.37270 -10.36968 -10.35528 -10.35519
 Alpha  occ. eigenvalues --  -10.35139 -10.34479 -10.33984 -10.33886 -10.33538
 Alpha  occ. eigenvalues --  -10.33421 -10.33226 -10.32401 -10.31359 -10.31040
 Alpha  occ. eigenvalues --  -10.30758 -10.28532 -10.28234  -1.19203  -1.15052
 Alpha  occ. eigenvalues --   -1.13282  -1.13012  -1.11347  -1.10711  -1.09066
 Alpha  occ. eigenvalues --   -1.08932  -1.08639  -1.05149  -1.04424  -1.02332
 Alpha  occ. eigenvalues --   -1.00766  -1.00506  -0.99809  -0.98620  -0.96997
 Alpha  occ. eigenvalues --   -0.96706  -0.96496  -0.92812  -0.90725  -0.87424
 Alpha  occ. eigenvalues --   -0.85760  -0.84240  -0.84042  -0.83502  -0.82648
 Alpha  occ. eigenvalues --   -0.82451  -0.78576  -0.76749  -0.74746  -0.74557
 Alpha  occ. eigenvalues --   -0.73705  -0.73162  -0.72974  -0.71133  -0.70084
 Alpha  occ. eigenvalues --   -0.67477  -0.66505  -0.66383  -0.66263  -0.64426
 Alpha  occ. eigenvalues --   -0.63887  -0.63764  -0.62796  -0.62686  -0.61860
 Alpha  occ. eigenvalues --   -0.60930  -0.60449  -0.60155  -0.59249  -0.59171
 Alpha  occ. eigenvalues --   -0.58691  -0.58448  -0.57188  -0.56669  -0.56247
 Alpha  occ. eigenvalues --   -0.55861  -0.55547  -0.55086  -0.54551  -0.54214
 Alpha  occ. eigenvalues --   -0.53726  -0.53646  -0.53393  -0.53087  -0.53021
 Alpha  occ. eigenvalues --   -0.52582  -0.52292  -0.51944  -0.50905  -0.50385
 Alpha  occ. eigenvalues --   -0.50260  -0.49798  -0.49450  -0.49199  -0.48961
 Alpha  occ. eigenvalues --   -0.48882  -0.48465  -0.47940  -0.47673  -0.47398
 Alpha  occ. eigenvalues --   -0.47046  -0.46070  -0.44891  -0.44647  -0.43155
 Alpha  occ. eigenvalues --   -0.41146  -0.40482  -0.39249  -0.37783  -0.37341
 Alpha  occ. eigenvalues --   -0.37298  -0.37206  -0.37156  -0.36106  -0.34416
 Alpha  occ. eigenvalues --   -0.34276  -0.33929  -0.33520  -0.33427  -0.33205
 Alpha  occ. eigenvalues --   -0.32733  -0.32346  -0.31913  -0.31835  -0.30980
 Alpha  occ. eigenvalues --   -0.30541  -0.29390  -0.26113  -0.25273
 Alpha virt. eigenvalues --    0.03540   0.04189   0.07310   0.07723   0.08395
 Alpha virt. eigenvalues --    0.09195   0.09622   0.10554   0.10905   0.12075
 Alpha virt. eigenvalues --    0.13238   0.13258   0.14283   0.14352   0.14868
 Alpha virt. eigenvalues --    0.15442   0.16119   0.17297   0.18143   0.18238
 Alpha virt. eigenvalues --    0.18645   0.19154   0.19653   0.20012   0.20257
 Alpha virt. eigenvalues --    0.20506   0.21099   0.21465   0.21741   0.22073
 Alpha virt. eigenvalues --    0.22696   0.22848   0.23056   0.23463   0.23845
 Alpha virt. eigenvalues --    0.23962   0.24217   0.24789   0.25414   0.25777
 Alpha virt. eigenvalues --    0.26170   0.26658   0.27477   0.27650   0.27819
 Alpha virt. eigenvalues --    0.28672   0.29090   0.29496   0.29960   0.30497
 Alpha virt. eigenvalues --    0.30896   0.31625   0.32356   0.32990   0.33417
 Alpha virt. eigenvalues --    0.33922   0.34133   0.35411   0.35839   0.36331
 Alpha virt. eigenvalues --    0.36479   0.36873   0.37759   0.38370   0.38720
 Alpha virt. eigenvalues --    0.39558   0.40056   0.41023   0.41297   0.42180
 Alpha virt. eigenvalues --    0.42282   0.42482   0.43431   0.43691   0.43921
 Alpha virt. eigenvalues --    0.44727   0.45628   0.46029   0.46325   0.46563
 Alpha virt. eigenvalues --    0.47001   0.47449   0.48102   0.48579   0.49134
 Alpha virt. eigenvalues --    0.49830   0.50390   0.50595   0.51126   0.51183
 Alpha virt. eigenvalues --    0.51921   0.52033   0.52628   0.52975   0.53450
 Alpha virt. eigenvalues --    0.53700   0.53904   0.54405   0.55060   0.55668
 Alpha virt. eigenvalues --    0.55722   0.56089   0.56404   0.56945   0.57399
 Alpha virt. eigenvalues --    0.57699   0.58263   0.58774   0.59508   0.59756
 Alpha virt. eigenvalues --    0.59941   0.60144   0.61053   0.61209   0.61590
 Alpha virt. eigenvalues --    0.61766   0.62294   0.62541   0.62868   0.63235
 Alpha virt. eigenvalues --    0.63835   0.64129   0.64543   0.65135   0.65589
 Alpha virt. eigenvalues --    0.65977   0.66190   0.66576   0.67525   0.67714
 Alpha virt. eigenvalues --    0.67887   0.68549   0.68825   0.69023   0.69812
 Alpha virt. eigenvalues --    0.70096   0.70906   0.71398   0.71867   0.72230
 Alpha virt. eigenvalues --    0.72560   0.72860   0.73159   0.73375   0.74021
 Alpha virt. eigenvalues --    0.74348   0.74799   0.74929   0.75383   0.75835
 Alpha virt. eigenvalues --    0.75977   0.76272   0.76522   0.76742   0.77546
 Alpha virt. eigenvalues --    0.77828   0.78273   0.78703   0.78898   0.79494
 Alpha virt. eigenvalues --    0.79761   0.80047   0.80554   0.80740   0.81311
 Alpha virt. eigenvalues --    0.81530   0.82137   0.82541   0.83039   0.83459
 Alpha virt. eigenvalues --    0.83621   0.83795   0.84242   0.84758   0.85578
 Alpha virt. eigenvalues --    0.85697   0.86044   0.86530   0.86941   0.87642
 Alpha virt. eigenvalues --    0.88307   0.88619   0.88960   0.88983   0.90260
 Alpha virt. eigenvalues --    0.90880   0.91181   0.91452   0.91698   0.92475
 Alpha virt. eigenvalues --    0.92798   0.93295   0.93726   0.93823   0.94134
 Alpha virt. eigenvalues --    0.94368   0.95606   0.95971   0.96297   0.96586
 Alpha virt. eigenvalues --    0.96927   0.97869   0.97949   0.98198   0.98832
 Alpha virt. eigenvalues --    0.99704   0.99944   1.00099   1.00426   1.00764
 Alpha virt. eigenvalues --    1.01456   1.01757   1.02009   1.02708   1.03042
 Alpha virt. eigenvalues --    1.03359   1.04469   1.04824   1.05028   1.05897
 Alpha virt. eigenvalues --    1.06309   1.06946   1.07267   1.07547   1.07970
 Alpha virt. eigenvalues --    1.08337   1.08961   1.10240   1.10475   1.10897
 Alpha virt. eigenvalues --    1.11810   1.11930   1.12176   1.12865   1.13618
 Alpha virt. eigenvalues --    1.14193   1.14858   1.15132   1.15468   1.15641
 Alpha virt. eigenvalues --    1.16065   1.16942   1.17685   1.17757   1.18122
 Alpha virt. eigenvalues --    1.18185   1.18857   1.19087   1.19317   1.19534
 Alpha virt. eigenvalues --    1.20201   1.20479   1.21343   1.21800   1.22015
 Alpha virt. eigenvalues --    1.22392   1.22797   1.23071   1.23514   1.23623
 Alpha virt. eigenvalues --    1.24190   1.24593   1.24669   1.25357   1.25674
 Alpha virt. eigenvalues --    1.26050   1.26743   1.27689   1.27796   1.28216
 Alpha virt. eigenvalues --    1.28388   1.29442   1.29901   1.30573   1.30725
 Alpha virt. eigenvalues --    1.31610   1.32015   1.33143   1.33808   1.34467
 Alpha virt. eigenvalues --    1.35402   1.35495   1.36013   1.36787   1.37281
 Alpha virt. eigenvalues --    1.37406   1.38757   1.38991   1.39949   1.40535
 Alpha virt. eigenvalues --    1.41231   1.41795   1.42365   1.42633   1.44020
 Alpha virt. eigenvalues --    1.45238   1.45912   1.46712   1.47098   1.48376
 Alpha virt. eigenvalues --    1.48989   1.49712   1.50277   1.50504   1.50775
 Alpha virt. eigenvalues --    1.51235   1.53156   1.53474   1.53815   1.54331
 Alpha virt. eigenvalues --    1.54523   1.55744   1.56064   1.56903   1.57782
 Alpha virt. eigenvalues --    1.58189   1.59100   1.59916   1.60094   1.60894
 Alpha virt. eigenvalues --    1.61780   1.62358   1.63189   1.63639   1.63858
 Alpha virt. eigenvalues --    1.64033   1.64592   1.65166   1.65584   1.66739
 Alpha virt. eigenvalues --    1.67200   1.67563   1.68176   1.68842   1.69433
 Alpha virt. eigenvalues --    1.70409   1.70500   1.70735   1.71240   1.71681
 Alpha virt. eigenvalues --    1.71754   1.72321   1.72542   1.73852   1.73952
 Alpha virt. eigenvalues --    1.74592   1.74775   1.75210   1.75648   1.76182
 Alpha virt. eigenvalues --    1.76375   1.76763   1.77268   1.77399   1.77644
 Alpha virt. eigenvalues --    1.78203   1.78463   1.78696   1.78987   1.79202
 Alpha virt. eigenvalues --    1.80022   1.80057   1.80320   1.80753   1.80931
 Alpha virt. eigenvalues --    1.81754   1.81932   1.82456   1.82706   1.83055
 Alpha virt. eigenvalues --    1.83383   1.83668   1.84073   1.84303   1.84959
 Alpha virt. eigenvalues --    1.85341   1.85566   1.86237   1.86974   1.87503
 Alpha virt. eigenvalues --    1.88178   1.88542   1.88600   1.89205   1.89582
 Alpha virt. eigenvalues --    1.90021   1.90548   1.90879   1.92182   1.92470
 Alpha virt. eigenvalues --    1.92863   1.93277   1.93683   1.93950   1.94519
 Alpha virt. eigenvalues --    1.94927   1.95965   1.96595   1.97343   1.97581
 Alpha virt. eigenvalues --    1.99110   1.99563   2.00233   2.00734   2.01564
 Alpha virt. eigenvalues --    2.02350   2.03066   2.03495   2.03844   2.04923
 Alpha virt. eigenvalues --    2.05552   2.05953   2.06637   2.07174   2.07589
 Alpha virt. eigenvalues --    2.08679   2.09081   2.09635   2.10425   2.11192
 Alpha virt. eigenvalues --    2.11403   2.11861   2.12248   2.13651   2.14409
 Alpha virt. eigenvalues --    2.15393   2.15841   2.17183   2.17419   2.18785
 Alpha virt. eigenvalues --    2.19312   2.19583   2.20507   2.21304   2.21467
 Alpha virt. eigenvalues --    2.22152   2.22417   2.22870   2.23071   2.24483
 Alpha virt. eigenvalues --    2.24997   2.25464   2.25866   2.26313   2.27076
 Alpha virt. eigenvalues --    2.27282   2.28326   2.28727   2.29455   2.29795
 Alpha virt. eigenvalues --    2.30370   2.31013   2.31351   2.31718   2.32207
 Alpha virt. eigenvalues --    2.33084   2.33243   2.33725   2.34102   2.34555
 Alpha virt. eigenvalues --    2.34740   2.35571   2.35895   2.36634   2.37217
 Alpha virt. eigenvalues --    2.38624   2.39539   2.40740   2.40784   2.41126
 Alpha virt. eigenvalues --    2.41837   2.42831   2.43299   2.43804   2.44362
 Alpha virt. eigenvalues --    2.45024   2.45105   2.46448   2.46653   2.46988
 Alpha virt. eigenvalues --    2.47808   2.48884   2.50217   2.50309   2.51703
 Alpha virt. eigenvalues --    2.52519   2.53748   2.54561   2.55570   2.56309
 Alpha virt. eigenvalues --    2.56761   2.58050   2.58125   2.59202   2.59987
 Alpha virt. eigenvalues --    2.61173   2.61879   2.62672   2.62954   2.64222
 Alpha virt. eigenvalues --    2.64638   2.65231   2.65778   2.66171   2.66465
 Alpha virt. eigenvalues --    2.67789   2.68127   2.68199   2.68854   2.69301
 Alpha virt. eigenvalues --    2.69838   2.70751   2.71179   2.71640   2.72511
 Alpha virt. eigenvalues --    2.73767   2.74964   2.75516   2.76017   2.76517
 Alpha virt. eigenvalues --    2.77299   2.77639   2.79211   2.79492   2.79670
 Alpha virt. eigenvalues --    2.79885   2.80303   2.80648   2.81252   2.81814
 Alpha virt. eigenvalues --    2.82225   2.82393   2.83229   2.83532   2.84220
 Alpha virt. eigenvalues --    2.84979   2.85154   2.86179   2.86451   2.86634
 Alpha virt. eigenvalues --    2.87160   2.88485   2.89293   2.92214   2.93686
 Alpha virt. eigenvalues --    2.94227   2.95962   2.96816   2.98667   2.99679
 Alpha virt. eigenvalues --    3.00384   3.01235   3.02101   3.04427   3.05548
 Alpha virt. eigenvalues --    3.06966   3.09800   3.10585   3.12978   3.15141
 Alpha virt. eigenvalues --    3.15428   3.15829   3.16493   3.17390   3.20830
 Alpha virt. eigenvalues --    3.22003   3.23034   3.23960   3.24542   3.26645
 Alpha virt. eigenvalues --    3.45319   3.47306   3.47816   3.49762   3.50638
 Alpha virt. eigenvalues --    3.53131   3.55001   3.56088   3.57686   3.60022
 Alpha virt. eigenvalues --    3.62843   3.70881   3.75217
          Condensed to atoms (all electrons):
 Mulliken charges:
               1
     1  N   -0.306432
     2  C    0.178554
     3  C    0.061384
     4  N   -0.245217
     5  C    0.130827
     6  H    0.024714
     7  N   -0.293894
     8  C    0.135648
     9  H    0.010959
    10  N   -0.288456
    11  C    0.230476
    12  C    0.089632
    13  N   -0.044022
    14  H    0.114163
    15  H    0.085401
    16  H    0.027666
    17  H    0.034696
    18  H    0.017549
    19  N   -0.304610
    20  C    0.259644
    21  C    0.183191
    22  N   -0.123654
    23  H    0.118059
    24  H    0.118560
    25  N   -0.310347
    26  C    0.247100
    27  N   -0.145643
    28  H    0.118471
    29  C    0.190109
    30  O   -0.324669
    31  C   -0.020405
    32  N   -0.215254
    33  C    0.119959
    34  H    0.018398
    35  H    0.023492
    36  H    0.031216
    37  H    0.023338
    38  H    0.048458
    39  H    0.060663
    40  H    0.075676
    41  H    0.020334
    42  C   -0.104184
    43  O   -0.277732
    44  C    0.157418
    45  H    0.129919
    46  N   -0.104616
    47  O   -0.346690
    48  C    0.336291
    49  H    0.044701
    50  C    0.175595
    51  C    0.043606
    52  N   -0.277727
    53  H    0.034716
    54  H    0.042272
    55  H    0.021738
    56  H    0.127588
    57  H    0.116181
    58  N   -0.043107
    59  C    0.074929
    60  C    0.226247
    61  N   -0.266152
    62  H    0.029943
    63  C    0.159890
    64  N   -0.297561
    65  H    0.034872
    66  C    0.118639
    67  N   -0.253790
    68  C    0.044446
    69  C    0.181055
    70  N   -0.304222
 Sum of Mulliken charges =  -0.00000
 Mulliken charges with hydrogens summed into heavy atoms:
               1
     1  N   -0.306432
     2  C    0.258465
     3  C    0.061384
     4  N   -0.245217
     5  C    0.155542
     7  N   -0.293894
     8  C    0.146607
    10  N   -0.288456
    11  C    0.230476
    12  C    0.089632
    13  N    0.155541
    19  N   -0.304610
    20  C    0.259644
    21  C    0.261238
    22  N    0.112964
    25  N   -0.310347
    26  C    0.247100
    27  N   -0.027172
    29  C    0.190109
    30  O   -0.324669
    31  C   -0.020405
    32  N   -0.215254
    33  C    0.138357
    42  C   -0.083850
    43  O   -0.277732
    44  C    0.157418
    46  N    0.025304
    47  O   -0.346690
    48  C    0.336291
    50  C    0.220296
    51  C    0.228403
    52  N   -0.277727
    58  N    0.200662
    59  C    0.074929
    60  C    0.226247
    61  N   -0.266152
    63  C    0.189833
    64  N   -0.297561
    66  C    0.153511
    67  N   -0.253790
    68  C    0.044446
    69  C    0.279781
    70  N   -0.304222
 Electronic spatial extent (au):  <R**2>=          22197.3698
 Charge=             -0.0000 electrons
 Dipole moment (field-independent basis, Debye):
    X=              5.8053    Y=              5.9548    Z=              4.6766  Tot=              9.5410
 Quadrupole moment (field-independent basis, Debye-Ang):
   XX=           -147.1098   YY=           -224.6548   ZZ=           -258.4683
   XY=              8.5010   XZ=              3.7546   YZ=              4.0255
 Traceless Quadrupole moment (field-independent basis, Debye-Ang):
   XX=             62.9678   YY=            -14.5772   ZZ=            -48.3906
   XY=              8.5010   XZ=              3.7546   YZ=              4.0255
 Octapole moment (field-independent basis, Debye-Ang**2):
  XXX=            -92.9623  YYY=             50.6881  ZZZ=             67.9573  XYY=             24.2039
  XXY=             84.8611  XXZ=             53.5602  XZZ=             89.4485  YZZ=             54.2803
  YYZ=             21.5937  XYZ=             38.4639
 Hexadecapole moment (field-independent basis, Debye-Ang**3):
 XXXX=         -16048.7517 YYYY=          -4210.7151 ZZZZ=          -3921.5364 XXXY=            600.4143
 XXXZ=            235.5324 YYYX=            -96.2071 YYYZ=            196.2551 ZZZX=            211.6367
 ZZZY=             14.0460 XXYY=          -3862.5824 XXZZ=          -3825.0641 YYZZ=          -1395.9615
 XXYZ=            122.6774 YYXZ=            -38.6233 ZZXY=             97.3080
 N-N= 5.548277067383D+03 E-N=-1.587721185627D+04  KE= 2.037747506373D+03
 No NMR shielding tensors so no spin-rotation constants.
 Leave Link  601 at Fri Jan 19 14:30:51 2018, MaxMem=  4294967296 cpu:              48.4 elap:               1.7
 (Enter /share/apps/g16/l9999.exe)
 1\1\GINC-COMPUTE-0-3\SP\RwB97XD\CC-pVDZ\C23H27N17O3\SATYA\19-Jan-2018\
 0\\#p wb97xd/cc-pvdz sp scf=(maxcycles=20)\\Base pair stacking\\0,1\N,
 0,3.39981,4.10814,-6.16014\C,0,3.43864,5.55807,-6.43252\C,0,2.76266,2.
 00794,-6.01691\N,0,4.03896,2.06405,-5.47594\C,0,4.37173,3.3271,-5.5838
 8\H,0,5.32285,3.74783,-5.25632\N,0,0.6666,1.23053,-6.76867\C,0,0.41352
 ,2.49269,-7.12989\H,0,-0.5618,2.65943,-7.5851\N,0,1.18074,3.57473,-7.0
 1378\C,0,2.35529,3.26018,-6.4429\C,0,1.8572,0.94649,-6.19693\N,0,2.111
 68,-0.31283,-5.83567\H,0,2.97986,-0.56871,-5.40904\H,0,1.44358,-1.0430
 5,-5.97907\H,0,4.20002,5.76274,-7.04781\H,0,2.58053,5.84074,-6.86014\H
 ,0,3.56198,6.05727,-5.57486\N,0,0.56017,4.42958,-3.34716\C,0,-0.16537,
 3.26597,-3.43469\C,0,0.02715,5.78734,-3.57756\N,0,-3.17118,1.63364,-4.
 03662\H,0,-3.51064,0.69349,-4.04787\H,0,-3.82937,2.35626,-4.24951\N,0,
 -1.47655,3.16826,-3.74338\C,0,-1.89103,1.91375,-3.74911\N,0,-1.08475,0
 .83595,-3.47386\H,0,-1.48744,-0.08819,-3.50155\C,0,0.26711,0.91299,-3.
 15382\O,0,0.90506,-0.12152,-2.9224\C,0,0.72678,2.25443,-3.14372\N,0,1.
 98705,2.77257,-2.87886\C,0,1.84053,4.06302,-3.01105\H,0,2.63666,4.7956
 2,-2.87416\H,0,0.52112,6.21749,-4.33239\H,0,-0.94344,5.72758,-3.80701\
 H,0,0.13973,6.33628,-2.75003\H,0,-3.93309,-4.44757,-4.43283\H,0,-4.115
 56,-4.4781,-2.68057\H,0,-4.0674,-2.93547,-3.53457\H,0,0.4468,-5.94134,
 -3.11689\C,0,-0.13133,-5.01827,-3.16101\O,0,1.76142,-3.60565,-2.9393\C
 ,0,0.54745,-3.76188,-3.06844\H,0,0.16612,-1.75119,-3.07311\N,0,-0.2771
 4,-2.65695,-3.13505\O,0,-2.28738,-1.61793,-3.32627\C,0,-1.64218,-2.650
 38,-3.27707\H,0,-2.02553,-5.97328,-3.37489\C,0,-1.46197,-5.04423,-3.30
 002\C,0,-3.68063,-3.94344,-3.51186\N,0,-2.2237,-3.90029,-3.3594\H,0,-4
 .94206,-4.13582,-8.32671\H,0,-4.75003,-2.80173,-7.40723\H,0,-5.39249,-
 4.15454,-6.75821\H,0,1.91846,-3.96886,-5.50341\H,0,1.06293,-5.4212,-5.
 76588\N,0,1.06236,-4.42065,-5.75467\C,0,-0.03195,-3.72092,-6.06131\C,0
 ,-2.30477,-3.45056,-6.71163\N,0,-2.27633,-2.10777,-6.68818\H,0,-0.9574
 ,-0.58993,-6.29174\C,0,-1.06828,-1.67252,-6.33594\N,0,0.02903,-2.37175
 ,-6.02843\H,0,-3.56138,-6.40305,-7.10647\C,0,-2.91432,-5.54751,-6.9107
 2\N,0,-1.65705,-5.63112,-6.55022\C,0,-1.25853,-4.30858,-6.42061\C,0,-4
 .72197,-3.8009,-7.41053\N,0,-3.37189,-4.25767,-7.02759\\Version=EM64L-
 G16RevA.03\State=1-A\HF=-2048.7495204\RMSD=6.922e-09\Dipole=-3.5800651
 ,-0.8022762,-0.7937438\Quadrupole=3.6366477,30.2595384,-33.8961861,27.
 5811486,-5.3386935,5.5046123\PG=C01 [X(C23H27N17O3)]\\@


 FROM AN ANONYMOUS WRITER, ON PERSPECTIVE:

 MAN, DESPITE HIS ARTISTIC PRETENSIONS, HIS SOPHISTICATION AND MANY 
 ACCOMPLISHMENTS, OWES THE FACT OF HIS EXISTENCE TO A SIX-INCH LAYER OF 
 TOPSOIL AND THE FACT THAT IT RAINS.
 Job cpu time:       0 days  6 hours  8 minutes  6.4 seconds.
 Elapsed time:       0 days  0 hours 11 minutes 58.1 seconds.
 File lengths (MBytes):  RWF=    298 Int=      0 D2E=      0 Chk=     33 Scr=      1
 Normal termination of Gaussian 16 at Fri Jan 19 14:30:51 2018.
