 Entering Gaussian System, Link 0=g16
 Input=str20.-20.1.0.com
 Output=str20.-20.1.0.log
 Initial command:
 /share/apps/g16/l1.exe "/state/partition1/scr/Gau-15544.inp" -scrdir="/state/partition1/scr/"
 Entering Link 1 = /share/apps/g16/l1.exe PID=     15545.
  
 Copyright (c) 1988,1990,1992,1993,1995,1998,2003,2009,2016,
            Gaussian, Inc.  All Rights Reserved.
  
 This is part of the Gaussian(R) 16 program.  It is based on
 the Gaussian(R) 09 system (copyright 2009, Gaussian, Inc.),
 the Gaussian(R) 03 system (copyright 2003, Gaussian, Inc.),
 the Gaussian(R) 98 system (copyright 1998, Gaussian, Inc.),
 the Gaussian(R) 94 system (copyright 1995, Gaussian, Inc.),
 the Gaussian 92(TM) system (copyright 1992, Gaussian, Inc.),
 the Gaussian 90(TM) system (copyright 1990, Gaussian, Inc.),
 the Gaussian 88(TM) system (copyright 1988, Gaussian, Inc.),
 the Gaussian 86(TM) system (copyright 1986, Carnegie Mellon
 University), and the Gaussian 82(TM) system (copyright 1983,
 Carnegie Mellon University). Gaussian is a federally registered
 trademark of Gaussian, Inc.
  
 This software contains proprietary and confidential information,
 including trade secrets, belonging to Gaussian, Inc.
  
 This software is provided under written license and may be
 used, copied, transmitted, or stored only in accord with that
 written license.
  
 The following legend is applicable only to US Government
 contracts under FAR:
  
                    RESTRICTED RIGHTS LEGEND
  
 Use, reproduction and disclosure by the US Government is
 subject to restrictions as set forth in subparagraphs (a)
 and (c) of the Commercial Computer Software - Restricted
 Rights clause in FAR 52.227-19.
  
 Gaussian, Inc.
 340 Quinnipiac St., Bldg. 40, Wallingford CT 06492
  
  
 ---------------------------------------------------------------
 Warning -- This program may not be used in any manner that
 competes with the business of Gaussian, Inc. or will provide
 assistance to any competitor of Gaussian, Inc.  The licensee
 of this program is prohibited from giving any competitor of
 Gaussian, Inc. access to this program.  By using this program,
 the user acknowledges that Gaussian, Inc. is engaged in the
 business of creating and licensing software in the field of
 computational chemistry and represents and warrants to the
 licensee that it is not a competitor of Gaussian, Inc. and that
 it will not use this program in any manner prohibited above.
 ---------------------------------------------------------------
  

 Cite this work as:
 Gaussian 16, Revision A.03,
 M. J. Frisch, G. W. Trucks, H. B. Schlegel, G. E. Scuseria, 
 M. A. Robb, J. R. Cheeseman, G. Scalmani, V. Barone, 
 G. A. Petersson, H. Nakatsuji, X. Li, M. Caricato, A. V. Marenich, 
 J. Bloino, B. G. Janesko, R. Gomperts, B. Mennucci, H. P. Hratchian, 
 J. V. Ortiz, A. F. Izmaylov, J. L. Sonnenberg, D. Williams-Young, 
 F. Ding, F. Lipparini, F. Egidi, J. Goings, B. Peng, A. Petrone, 
 T. Henderson, D. Ranasinghe, V. G. Zakrzewski, J. Gao, N. Rega, 
 G. Zheng, W. Liang, M. Hada, M. Ehara, K. Toyota, R. Fukuda, 
 J. Hasegawa, M. Ishida, T. Nakajima, Y. Honda, O. Kitao, H. Nakai, 
 T. Vreven, K. Throssell, J. A. Montgomery, Jr., J. E. Peralta, 
 F. Ogliaro, M. J. Bearpark, J. J. Heyd, E. N. Brothers, K. N. Kudin, 
 V. N. Staroverov, T. A. Keith, R. Kobayashi, J. Normand, 
 K. Raghavachari, A. P. Rendell, J. C. Burant, S. S. Iyengar, 
 J. Tomasi, M. Cossi, J. M. Millam, M. Klene, C. Adamo, R. Cammi, 
 J. W. Ochterski, R. L. Martin, K. Morokuma, O. Farkas, 
 J. B. Foresman, and D. J. Fox, Gaussian, Inc., Wallingford CT, 2016.
 
 ******************************************
 Gaussian 16:  EM64L-G16RevA.03 25-Dec-2016
                19-Jan-2018 
 ******************************************
 %nprocshared=32
 Will use up to   32 processors via shared memory.
 %mem=32GB
 %chk=allatoms_t.chk
 ---------------------------------------
 #p wb97xd/cc-pvdz sp scf=(maxcycles=20)
 ---------------------------------------
 1/38=1,172=1/1;
 2/12=2,17=6,18=5,40=1/2;
 3/5=16,11=2,25=1,30=1,74=-58/1,2,3;
 4//1;
 5/5=2,7=20,38=5/2;
 6/7=2,8=2,9=2,10=2,28=1/1;
 99/5=1,9=1/99;
 Leave Link    1 at Fri Jan 19 23:38:23 2018, MaxMem=  4294967296 cpu:               2.7 elap:               0.1
 (Enter /share/apps/g16/l101.exe)
 ------------------
 Base pair stacking
 ------------------
 Symbolic Z-matrix:
 Charge =  0 Multiplicity = 1
 N                    -0.15401   3.79236  -6.2852 
 C                    -0.09379   5.24724  -6.04499 
 C                    -0.7803    1.68409  -6.30145 
 N                     0.40502   1.74237  -7.02002 
 C                     0.7349    3.0102   -6.98147 
 H                     1.62454   3.43383  -7.44839 
 N                    -2.73838   0.90081  -5.24535 
 C                    -2.95219   2.16684  -4.87245 
 H                    -3.85449   2.33262  -4.2854 
 N                    -2.22217   3.25371  -5.11471 
 C                    -1.13745   2.93992  -5.84226 
 C                    -1.63826   0.61766  -5.97654 
 N                    -1.42311  -0.64551  -6.34972 
 H                    -0.62172  -0.90091  -6.89173 
 H                    -2.05528  -1.37923  -6.1004 
 H                    -0.09937   5.73144  -6.92003 
 H                    -0.8854    5.52953  -5.50389 
 H                     0.74454   5.47066  -5.54773 
 N                    -0.35633   3.95435  -3.01008 
 C                    -1.06357   2.78963  -2.83315 
 C                    -0.89823   5.31697  -2.83602 
 N                    -4.02576   1.16091  -2.03663 
 H                    -4.35268   0.21924  -1.96173 
 H                    -4.6853    1.8871   -1.8407 
 N                    -2.36193   2.69507  -2.47345 
 C                    -2.76001   1.43842  -2.38413 
 N                    -1.95013   0.35577  -2.62798 
 H                    -2.33987  -0.5697   -2.53532 
 C                    -0.61127   0.42949  -2.99931 
 O                     0.03135  -0.60932  -3.19587 
 C                    -0.16928   1.77319  -3.09937 
 N                     1.07438   2.28938  -3.43664 
 C                     0.91616   3.58352  -3.37052 
 H                     1.69771   4.31594  -3.57551 
 H                    -0.82137   5.8204   -3.69593 
 H                    -1.85945   5.25958  -2.56951 
 H                    -0.3839    5.79357  -2.12389 
 H                    -5.04405  -4.87552  -2.52976 
 H                    -4.35421  -5.06224  -0.9192 
 H                    -4.68583  -3.45032  -1.55413 
 H                    -0.61677  -6.39741  -3.63865 
 C                    -1.11917  -5.48484  -3.31766 
 O                     0.6799   -4.06229  -3.92333 
 C                    -0.44791  -4.22902  -3.45959 
 H                    -0.73053  -2.23296  -3.10713 
 N                    -1.17185  -3.13789  -3.02302 
 O                    -2.99427  -2.12339  -2.12482 
 C                    -2.43367  -3.14413  -2.48328 
 H                    -2.90368  -6.4523   -2.66548 
 C                    -2.35032  -5.5231   -2.79478 
 C                    -4.3633   -4.44913  -1.80807 
 N                    -3.01479  -4.39259  -2.3791 
 H                    -8.19247  -4.43033  -3.12069 
 H                    -7.11924  -3.43011  -2.40666 
 H                    -7.21776  -4.99034  -1.93758 
 H                    -1.91144  -4.21792  -7.06646 
 H                    -2.87367  -5.62057  -6.93692 
 N                    -2.69046  -4.68147  -6.64409 
 C                    -3.45178  -4.07519  -5.73086 
 C                    -5.25014  -3.92628  -4.17991 
 N                    -4.98051  -2.66462  -3.80584 
 H                    -3.62947  -1.1791   -4.21635 
 C                    -3.91837  -2.20035  -4.46097 
 N                    -3.15452  -2.80602  -5.376 
 H                    -6.81387  -6.7555   -4.22912 
 C                    -6.13071  -5.92263  -4.39809 
 N                    -5.12379  -5.9431   -5.23676 
 C                    -4.55697  -4.68336  -5.10828 
 C                    -7.27984  -4.36664  -2.71689 
 N                    -6.26596  -4.73308  -3.72474 
 
 ITRead=  0  0  0  0  0  0  0  0  0  0  0  0  0  0  0  0  0  0  0  0
 ITRead=  0  0  0  0  0  0  0  0  0  0  0  0  0  0  0  0  0  0  0  0
 ITRead=  0  0  0  0  0  0  0  0  0  0  0  0  0  0  0  0  0  0  0  0
 ITRead=  0  0  0  0  0  0  0  0  0  0
 MicOpt= -1 -1 -1 -1 -1 -1 -1 -1 -1 -1 -1 -1 -1 -1 -1 -1 -1 -1 -1 -1
 MicOpt= -1 -1 -1 -1 -1 -1 -1 -1 -1 -1 -1 -1 -1 -1 -1 -1 -1 -1 -1 -1
 MicOpt= -1 -1 -1 -1 -1 -1 -1 -1 -1 -1 -1 -1 -1 -1 -1 -1 -1 -1 -1 -1
 MicOpt= -1 -1 -1 -1 -1 -1 -1 -1 -1 -1
 NAtoms=     70 NQM=       70 NQMF=       0 NMMI=      0 NMMIF=      0
                NMic=       0 NMicF=      0.
                    Isotopes and Nuclear Properties:
 (Nuclear quadrupole moments (NQMom) in fm**2, nuclear magnetic moments (NMagM)
  in nuclear magnetons)

  Atom         1           2           3           4           5           6           7           8           9          10
 IAtWgt=          14          12          12          14          12           1          14          12           1          14
 AtmWgt=  14.0030740  12.0000000  12.0000000  14.0030740  12.0000000   1.0078250  14.0030740  12.0000000   1.0078250  14.0030740
 NucSpn=           2           0           0           2           0           1           2           0           1           2
 AtZEff=  -0.0000000  -0.0000000  -0.0000000  -0.0000000  -0.0000000  -0.0000000  -0.0000000  -0.0000000  -0.0000000  -0.0000000
 NQMom=    2.0440000   0.0000000   0.0000000   2.0440000   0.0000000   0.0000000   2.0440000   0.0000000   0.0000000   2.0440000
 NMagM=    0.4037610   0.0000000   0.0000000   0.4037610   0.0000000   2.7928460   0.4037610   0.0000000   2.7928460   0.4037610
 AtZNuc=   7.0000000   6.0000000   6.0000000   7.0000000   6.0000000   1.0000000   7.0000000   6.0000000   1.0000000   7.0000000

  Atom        11          12          13          14          15          16          17          18          19          20
 IAtWgt=          12          12          14           1           1           1           1           1          14          12
 AtmWgt=  12.0000000  12.0000000  14.0030740   1.0078250   1.0078250   1.0078250   1.0078250   1.0078250  14.0030740  12.0000000
 NucSpn=           0           0           2           1           1           1           1           1           2           0
 AtZEff=  -0.0000000  -0.0000000  -0.0000000  -0.0000000  -0.0000000  -0.0000000  -0.0000000  -0.0000000  -0.0000000  -0.0000000
 NQMom=    0.0000000   0.0000000   2.0440000   0.0000000   0.0000000   0.0000000   0.0000000   0.0000000   2.0440000   0.0000000
 NMagM=    0.0000000   0.0000000   0.4037610   2.7928460   2.7928460   2.7928460   2.7928460   2.7928460   0.4037610   0.0000000
 AtZNuc=   6.0000000   6.0000000   7.0000000   1.0000000   1.0000000   1.0000000   1.0000000   1.0000000   7.0000000   6.0000000

  Atom        21          22          23          24          25          26          27          28          29          30
 IAtWgt=          12          14           1           1          14          12          14           1          12          16
 AtmWgt=  12.0000000  14.0030740   1.0078250   1.0078250  14.0030740  12.0000000  14.0030740   1.0078250  12.0000000  15.9949146
 NucSpn=           0           2           1           1           2           0           2           1           0           0
 AtZEff=  -0.0000000  -0.0000000  -0.0000000  -0.0000000  -0.0000000  -0.0000000  -0.0000000  -0.0000000  -0.0000000  -0.0000000
 NQMom=    0.0000000   2.0440000   0.0000000   0.0000000   2.0440000   0.0000000   2.0440000   0.0000000   0.0000000   0.0000000
 NMagM=    0.0000000   0.4037610   2.7928460   2.7928460   0.4037610   0.0000000   0.4037610   2.7928460   0.0000000   0.0000000
 AtZNuc=   6.0000000   7.0000000   1.0000000   1.0000000   7.0000000   6.0000000   7.0000000   1.0000000   6.0000000   8.0000000

  Atom        31          32          33          34          35          36          37          38          39          40
 IAtWgt=          12          14          12           1           1           1           1           1           1           1
 AtmWgt=  12.0000000  14.0030740  12.0000000   1.0078250   1.0078250   1.0078250   1.0078250   1.0078250   1.0078250   1.0078250
 NucSpn=           0           2           0           1           1           1           1           1           1           1
 AtZEff=  -0.0000000  -0.0000000  -0.0000000  -0.0000000  -0.0000000  -0.0000000  -0.0000000  -0.0000000  -0.0000000  -0.0000000
 NQMom=    0.0000000   2.0440000   0.0000000   0.0000000   0.0000000   0.0000000   0.0000000   0.0000000   0.0000000   0.0000000
 NMagM=    0.0000000   0.4037610   0.0000000   2.7928460   2.7928460   2.7928460   2.7928460   2.7928460   2.7928460   2.7928460
 AtZNuc=   6.0000000   7.0000000   6.0000000   1.0000000   1.0000000   1.0000000   1.0000000   1.0000000   1.0000000   1.0000000

  Atom        41          42          43          44          45          46          47          48          49          50
 IAtWgt=           1          12          16          12           1          14          16          12           1          12
 AtmWgt=   1.0078250  12.0000000  15.9949146  12.0000000   1.0078250  14.0030740  15.9949146  12.0000000   1.0078250  12.0000000
 NucSpn=           1           0           0           0           1           2           0           0           1           0
 AtZEff=  -0.0000000  -0.0000000  -0.0000000  -0.0000000  -0.0000000  -0.0000000  -0.0000000  -0.0000000  -0.0000000  -0.0000000
 NQMom=    0.0000000   0.0000000   0.0000000   0.0000000   0.0000000   2.0440000   0.0000000   0.0000000   0.0000000   0.0000000
 NMagM=    2.7928460   0.0000000   0.0000000   0.0000000   2.7928460   0.4037610   0.0000000   0.0000000   2.7928460   0.0000000
 AtZNuc=   1.0000000   6.0000000   8.0000000   6.0000000   1.0000000   7.0000000   8.0000000   6.0000000   1.0000000   6.0000000

  Atom        51          52          53          54          55          56          57          58          59          60
 IAtWgt=          12          14           1           1           1           1           1          14          12          12
 AtmWgt=  12.0000000  14.0030740   1.0078250   1.0078250   1.0078250   1.0078250   1.0078250  14.0030740  12.0000000  12.0000000
 NucSpn=           0           2           1           1           1           1           1           2           0           0
 AtZEff=  -0.0000000  -0.0000000  -0.0000000  -0.0000000  -0.0000000  -0.0000000  -0.0000000  -0.0000000  -0.0000000  -0.0000000
 NQMom=    0.0000000   2.0440000   0.0000000   0.0000000   0.0000000   0.0000000   0.0000000   2.0440000   0.0000000   0.0000000
 NMagM=    0.0000000   0.4037610   2.7928460   2.7928460   2.7928460   2.7928460   2.7928460   0.4037610   0.0000000   0.0000000
 AtZNuc=   6.0000000   7.0000000   1.0000000   1.0000000   1.0000000   1.0000000   1.0000000   7.0000000   6.0000000   6.0000000

  Atom        61          62          63          64          65          66          67          68          69          70
 IAtWgt=          14           1          12          14           1          12          14          12          12          14
 AtmWgt=  14.0030740   1.0078250  12.0000000  14.0030740   1.0078250  12.0000000  14.0030740  12.0000000  12.0000000  14.0030740
 NucSpn=           2           1           0           2           1           0           2           0           0           2
 AtZEff=  -0.0000000  -0.0000000  -0.0000000  -0.0000000  -0.0000000  -0.0000000  -0.0000000  -0.0000000  -0.0000000  -0.0000000
 NQMom=    2.0440000   0.0000000   0.0000000   2.0440000   0.0000000   0.0000000   2.0440000   0.0000000   0.0000000   2.0440000
 NMagM=    0.4037610   2.7928460   0.0000000   0.4037610   2.7928460   0.0000000   0.4037610   0.0000000   0.0000000   0.4037610
 AtZNuc=   7.0000000   1.0000000   6.0000000   7.0000000   1.0000000   6.0000000   7.0000000   6.0000000   6.0000000   7.0000000
 Leave Link  101 at Fri Jan 19 23:38:24 2018, MaxMem=  4294967296 cpu:               7.0 elap:               0.3
 (Enter /share/apps/g16/l202.exe)
 Stoichiometry    C23H27N17O3
 Framework group  C1[X(C23H27N17O3)]
 Deg. of freedom   204
 Full point group                 C1      NOp   1
 Largest Abelian subgroup         C1      NOp   1
 Largest concise Abelian subgroup C1      NOp   1
                         Standard orientation:                         
 ---------------------------------------------------------------------
 Center     Atomic      Atomic             Coordinates (Angstroms)
 Number     Number       Type             X           Y           Z
 ---------------------------------------------------------------------
      1          7           0        5.173844   -1.005619   -1.430374
      2          6           0        6.495359   -0.349417   -1.461995
      3          6           0        3.006100   -1.377158   -1.418153
      4          7           0        3.613665   -2.622281   -1.345652
      5          6           0        4.895342   -2.348608   -1.355915
      6          1           0        5.689042   -3.094890   -1.310736
      7          7           0        1.391741    0.339285   -1.521219
      8          6           0        2.416900    1.196433   -1.565344
      9          1           0        2.141207    2.248390   -1.625642
     10          7           0        3.725330    0.950361   -1.546251
     11          6           0        3.954984   -0.371003   -1.470974
     12          6           0        1.655853   -0.983448   -1.445726
     13          7           0        0.633865   -1.840620   -1.401587
     14          1           0        0.782579   -2.828525   -1.345402
     15          1           0       -0.314762   -1.524730   -1.423172
     16          1           0        7.008202   -0.667943   -2.259309
     17          1           0        6.375135    0.641293   -1.518235
     18          1           0        7.001989   -0.575307   -0.629960
     19          7           0        4.949686    1.106087    1.076424
     20          6           0        3.585928    1.267892    1.031147
     21          6           0        5.943600    2.119975    0.670406
     22          7           0        0.812016    3.227975    0.306421
     23          1           0       -0.182995    3.143622    0.351897
     24          1           0        1.178835    4.094076   -0.034235
     25          7           0        2.930040    2.371425    0.611515
     26          6           0        1.618987    2.225295    0.684999
     27          7           0        0.995929    1.086424    1.134746
     28          1           0       -0.012032    1.063664    1.156498
     29          6           0        1.650768   -0.060921    1.571381
     30          8           0        0.993867   -1.035525    1.957841
     31          6           0        3.059817    0.080975    1.498277
     32          7           0        4.072880   -0.808100    1.830154
     33          6           0        5.173437   -0.158369    1.564021
     34          1           0        6.178986   -0.556069    1.705390
     35          1           0        6.506739    1.758546   -0.071912
     36          1           0        5.469430    2.941935    0.357658
     37          1           0        6.526250    2.348691    1.449520
     38          1           0       -5.034036    1.348982    0.414351
     39          1           0       -5.057980    1.719097    2.136875
     40          1           0       -3.680172    2.207754    1.149833
     41          1           0       -4.478094   -3.055069    2.269575
     42          6           0       -3.888237   -2.157200    2.084853
     43          8           0       -1.800380   -3.251816    2.349065
     44          6           0       -2.459973   -2.237815    2.122022
     45          1           0       -0.800445   -1.062377    1.892522
     46          7           0       -1.810458   -1.045231    1.874793
     47          8           0       -1.726585    1.173763    1.399168
     48          6           0       -2.386972    0.170771    1.605496
     49          1           0       -5.561987   -0.870902    1.785197
     50          6           0       -4.479545   -0.985306    1.824817
     51          6           0       -4.428639    1.444638    1.303401
     52          7           0       -3.767861    0.167648    1.586983
     53          1           0       -5.885501    3.433665   -1.907081
     54          1           0       -4.596905    3.464264   -0.906738
     55          1           0       -6.091855    3.207414   -0.304068
     56          1           0       -2.741226   -3.281627   -1.617351
     57          1           0       -4.422112   -3.056114   -1.801362
     58          7           0       -3.521275   -2.655908   -1.629460
     59          6           0       -3.368118   -1.345893   -1.425557
     60          6           0       -4.115341    0.902404   -1.205245
     61          7           0       -2.893644    1.411987   -0.976781
     62          1           0       -0.951762    0.776254   -0.816977
     63          6           0       -1.975075    0.448242   -0.994439
     64          7           0       -2.126472   -0.864398   -1.198490
     65          1           0       -7.322087    0.906373   -1.616247
     66          6           0       -6.269549    0.638793   -1.518798
     67          7           0       -5.796806   -0.578568   -1.629338
     68          6           0       -4.432017   -0.425572   -1.432665
     69          6           0       -5.484509    3.038720   -1.080504
     70          7           0       -5.307375    1.584902   -1.262240
 ---------------------------------------------------------------------
 Rotational constants (GHZ):           0.1796721           0.0532222           0.0516783
 Leave Link  202 at Fri Jan 19 23:38:24 2018, MaxMem=  4294967296 cpu:               0.3 elap:               0.0
 (Enter /share/apps/g16/l301.exe)
 Standard basis: CC-pVDZ (5D, 7F)
 Ernie: Thresh=  0.10000D-02 Tol=  0.10000D-05 Strict=F.
 Ernie:  86 primitive shells out of 1081 were deleted.
 There are   780 symmetry adapted cartesian basis functions of A   symmetry.
 There are   737 symmetry adapted basis functions of A   symmetry.
   737 basis functions,  1608 primitive gaussians,   780 cartesian basis functions
   154 alpha electrons      154 beta electrons
       nuclear repulsion energy      5675.5417960561 Hartrees.
 IExCor= 4639 DFT=T Ex+Corr=wB97XD ExCW=0 ScaHFX=  1.000000
 ScaDFX=  1.000000  1.000000  1.000000  1.000000 ScalE2=  1.000000  1.000000
 IRadAn=      5 IRanWt=     -1 IRanGd=            0 ICorTp=0 IEmpDi=121
 HFx  wShort=  0.000000 wLong=  0.200000 cFull=  0.222036 cShort=  0.000000 cLong=  0.777964
 DFx  wShort=  0.000000 wLong=  0.200000 cFull=  0.000000 cShort=  0.000000 cLong=  1.000000
 NAtoms=   70 NActive=   70 NUniq=   70 SFac= 1.00D+00 NAtFMM=   60 NAOKFM=T Big=T
 Integral buffers will be    131072 words long.
 Raffenetti 2 integral format.
 Two-electron integral symmetry is turned on.
 R6Disp:  Grimme-D2 Dispersion energy=       -0.0825453769 Hartrees.
 Nuclear repulsion after empirical dispersion term =     5675.4592506791 Hartrees.
 Leave Link  301 at Fri Jan 19 23:38:24 2018, MaxMem=  4294967296 cpu:               2.1 elap:               0.1
 (Enter /share/apps/g16/l302.exe)
 NPDir=0 NMtPBC=     1 NCelOv=     1 NCel=       1 NClECP=     1 NCelD=      1
         NCelK=      1 NCelE2=     1 NClLst=     1 CellRange=     0.0.
 One-electron integrals computed using PRISM.
 One-electron integral symmetry used in STVInt
 NBasis=   737 RedAO= T EigKep=  5.95D-04  NBF=   737
 NBsUse=   737 1.00D-06 EigRej= -1.00D+00 NBFU=   737
 Precomputing XC quadrature grid using
 IXCGrd= 4 IRadAn=           5 IRanWt=          -1 IRanGd=           0 AccXCQ= 0.00D+00.
 Generated NRdTot=       0 NPtTot=           0 NUsed=           0 NTot=          32
 NSgBfM=   769   769   769   769   769 MxSgAt=    70 MxSgA2=    70.
 Leave Link  302 at Fri Jan 19 23:38:28 2018, MaxMem=  4294967296 cpu:             134.0 elap:               4.2
 (Enter /share/apps/g16/l303.exe)
 DipDrv:  MaxL=1.
 Leave Link  303 at Fri Jan 19 23:38:28 2018, MaxMem=  4294967296 cpu:              12.7 elap:               0.4
 (Enter /share/apps/g16/l401.exe)
 ExpMin= 1.22D-01 ExpMax= 1.17D+04 ExpMxC= 4.01D+02 IAcc=3 IRadAn=         5 AccDes= 0.00D+00
 Harris functional with IExCor= 4639 and IRadAn=       5 diagonalized for initial guess.
 HarFok:  IExCor= 4639 AccDes= 0.00D+00 IRadAn=         5 IDoV= 1 UseB2=F ITyADJ=14
 ICtDFT=  3500011 ScaDFX=  1.000000  1.000000  1.000000  1.000000
 FoFCou: FMM=F IPFlag=           0 FMFlag=      100000 FMFlg1=        2001
         NFxFlg=           0 DoJE=T BraDBF=F KetDBF=T FulRan=T
         wScrn=  0.000000 ICntrl=       500 IOpCl=  0 I1Cent=   200000004 NGrid=           0
         NMat0=    1 NMatS0=      1 NMatT0=    0 NMatD0=    1 NMtDS0=    0 NMtDT0=    0
 Petite list used in FoFCou.
 Harris En= -1963.78810652066    
 JPrj=0 DoOrth=F DoCkMO=F.
 Leave Link  401 at Fri Jan 19 23:38:42 2018, MaxMem=  4294967296 cpu:             418.1 elap:              13.1
 (Enter /share/apps/g16/l502.exe)
 Integral symmetry usage will be decided dynamically.
 Closed shell SCF:
 Using DIIS extrapolation, IDIIS=  1040.
 NGot=  4294967296 LenX=  4293717438 LenY=  4293108258
 Requested convergence on RMS density matrix=1.00D-08 within  20 cycles.
 Requested convergence on MAX density matrix=1.00D-06.
 Requested convergence on             energy=1.00D-06.
 No special actions if energy rises.
 Fock matrices will be formed incrementally for  20 cycles.
 Integral accuracy reduced to 1.0D-05 until final iterations.

 Cycle   1  Pass 0  IDiag  1:
 FoFJK:  IHMeth= 1 ICntrl=       0 DoSepK=T KAlg= 0 I1Cent=           0 FoldK=F
 IRaf=         1 NMat=       1 IRICut=       1 DoRegI=T DoRafI=F ISym2E= 0 IDoP0=0 IntGTp=1.
 FoFCou: FMM=T IPFlag=           0 FMFlag=      100000 FMFlg1=        2001
         NFxFlg=           0 DoJE=T BraDBF=F KetDBF=F FulRan=T
         wScrn=  0.000000 ICntrl=       500 IOpCl=  0 I1Cent=           0 NGrid=           0
         NMat0=    1 NMatS0=      1 NMatT0=    0 NMatD0=    1 NMtDS0=    0 NMtDT0=    0
 Symmetry not used in FoFCou.
 FMM levels:  10  Number of levels for PrismC:   9
 E= -2048.24417301759    
 DIIS: error= 1.99D-02 at cycle   1 NSaved=   1.
 NSaved= 1 IEnMin= 1 EnMin= -2048.24417301759     IErMin= 1 ErrMin= 1.99D-02
 ErrMax= 1.99D-02  0.00D+00 EMaxC= 1.00D-01 BMatC= 8.34D-01 BMatP= 8.34D-01
 IDIUse=3 WtCom= 8.01D-01 WtEn= 1.99D-01
 Coeff-Com:  0.100D+01
 Coeff-En:   0.100D+01
 Coeff:      0.100D+01
 Gap=     0.256 Goal=   None    Shift=    0.000
 GapD=    0.256 DampG=1.000 DampE=0.500 DampFc=0.5000 IDamp=-1.
 Damping current iteration by 5.00D-01
 RMSDP=1.63D-03 MaxDP=1.28D-01              OVMax= 2.04D-01

 Cycle   2  Pass 0  IDiag  1:
 RMSU=  8.12D-04    CP:  9.97D-01
 E= -2048.44002601952     Delta-E=       -0.195853001932 Rises=F Damp=T
 DIIS: error= 1.10D-02 at cycle   2 NSaved=   2.
 NSaved= 2 IEnMin= 2 EnMin= -2048.44002601952     IErMin= 2 ErrMin= 1.10D-02
 ErrMax= 1.10D-02  0.00D+00 EMaxC= 1.00D-01 BMatC= 1.46D-01 BMatP= 8.34D-01
 IDIUse=3 WtCom= 8.90D-01 WtEn= 1.10D-01
 Coeff-Com: -0.191D+00 0.119D+01
 Coeff-En:   0.000D+00 0.100D+01
 Coeff:     -0.170D+00 0.117D+01
 Gap=     0.292 Goal=   None    Shift=    0.000
 RMSDP=6.20D-04 MaxDP=3.56D-02 DE=-1.96D-01 OVMax= 1.47D-01

 Cycle   3  Pass 0  IDiag  1:
 RMSU=  6.06D-04    CP:  9.93D-01  1.14D+00
 E= -2048.61625345702     Delta-E=       -0.176227437491 Rises=F Damp=F
 DIIS: error= 7.92D-03 at cycle   3 NSaved=   3.
 NSaved= 3 IEnMin= 3 EnMin= -2048.61625345702     IErMin= 3 ErrMin= 7.92D-03
 ErrMax= 7.92D-03  0.00D+00 EMaxC= 1.00D-01 BMatC= 6.88D-02 BMatP= 1.46D-01
 IDIUse=3 WtCom= 9.21D-01 WtEn= 7.92D-02
 Coeff-Com: -0.235D+00 0.562D+00 0.673D+00
 Coeff-En:   0.000D+00 0.000D+00 0.100D+01
 Coeff:     -0.216D+00 0.517D+00 0.699D+00
 Gap=     0.279 Goal=   None    Shift=    0.000
 RMSDP=3.88D-04 MaxDP=3.40D-02 DE=-1.76D-01 OVMax= 7.70D-02

 Cycle   4  Pass 0  IDiag  1:
 RMSU=  2.17D-04    CP:  9.93D-01  1.44D+00  6.49D-01
 E= -2048.66696709659     Delta-E=       -0.050713639575 Rises=F Damp=F
 DIIS: error= 2.80D-03 at cycle   4 NSaved=   4.
 NSaved= 4 IEnMin= 4 EnMin= -2048.66696709659     IErMin= 4 ErrMin= 2.80D-03
 ErrMax= 2.80D-03  0.00D+00 EMaxC= 1.00D-01 BMatC= 1.07D-02 BMatP= 6.88D-02
 IDIUse=3 WtCom= 9.72D-01 WtEn= 2.80D-02
 Coeff-Com: -0.978D-01 0.190D+00 0.381D+00 0.527D+00
 Coeff-En:   0.000D+00 0.000D+00 0.882D-01 0.912D+00
 Coeff:     -0.951D-01 0.184D+00 0.373D+00 0.538D+00
 Gap=     0.280 Goal=   None    Shift=    0.000
 RMSDP=1.39D-04 MaxDP=1.15D-02 DE=-5.07D-02 OVMax= 1.61D-02

 Cycle   5  Pass 0  IDiag  1:
 RMSU=  6.45D-05    CP:  9.93D-01  1.41D+00  7.89D-01  6.07D-01
 E= -2048.67581901521     Delta-E=       -0.008851918614 Rises=F Damp=F
 DIIS: error= 5.18D-04 at cycle   5 NSaved=   5.
 NSaved= 5 IEnMin= 5 EnMin= -2048.67581901521     IErMin= 5 ErrMin= 5.18D-04
 ErrMax= 5.18D-04  0.00D+00 EMaxC= 1.00D-01 BMatC= 3.22D-04 BMatP= 1.07D-02
 IDIUse=3 WtCom= 9.95D-01 WtEn= 5.18D-03
 Coeff-Com: -0.269D-01 0.465D-01 0.128D+00 0.242D+00 0.610D+00
 Coeff-En:   0.000D+00 0.000D+00 0.000D+00 0.000D+00 0.100D+01
 Coeff:     -0.267D-01 0.463D-01 0.128D+00 0.240D+00 0.612D+00
 Gap=     0.280 Goal=   None    Shift=    0.000
 RMSDP=2.91D-05 MaxDP=1.93D-03 DE=-8.85D-03 OVMax= 3.55D-03

 Failed to achieve initial convergence to 1.0D-08 in  6 cycles.
 Switch to full accuracy anyway.
 Cycle   6  Pass 1  IDiag  1:
 E= -2048.67597650253     Delta-E=       -0.000157487321 Rises=F Damp=F
 DIIS: error= 2.96D-04 at cycle   1 NSaved=   1.
 NSaved= 1 IEnMin= 1 EnMin= -2048.67597650253     IErMin= 1 ErrMin= 2.96D-04
 ErrMax= 2.96D-04  0.00D+00 EMaxC= 1.00D-01 BMatC= 8.41D-05 BMatP= 8.41D-05
 IDIUse=3 WtCom= 9.97D-01 WtEn= 2.96D-03
 Coeff-Com:  0.100D+01
 Coeff-En:   0.100D+01
 Coeff:      0.100D+01
 Gap=     0.279 Goal=   None    Shift=    0.000
 RMSDP=2.91D-05 MaxDP=1.93D-03 DE=-1.57D-04 OVMax= 2.90D-03

 Cycle   7  Pass 1  IDiag  1:
 RMSU=  1.21D-04    CP:  1.00D+00
 E= -2048.67602677388     Delta-E=       -0.000050271348 Rises=F Damp=F
 DIIS: error= 1.83D-04 at cycle   2 NSaved=   2.
 NSaved= 2 IEnMin= 2 EnMin= -2048.67602677388     IErMin= 2 ErrMin= 1.83D-04
 ErrMax= 1.83D-04  0.00D+00 EMaxC= 1.00D-01 BMatC= 5.72D-05 BMatP= 8.41D-05
 IDIUse=3 WtCom= 9.98D-01 WtEn= 1.83D-03
 Coeff-Com:  0.436D+00 0.564D+00
 Coeff-En:   0.149D+00 0.851D+00
 Coeff:      0.436D+00 0.564D+00
 Gap=     0.280 Goal=   None    Shift=    0.000
 RMSDP=1.38D-05 MaxDP=1.15D-03 DE=-5.03D-05 OVMax= 1.98D-03

 Cycle   8  Pass 1  IDiag  1:
 RMSU=  1.36D-05    CP:  1.00D+00  1.02D+00
 E= -2048.67607046978     Delta-E=       -0.000043695904 Rises=F Damp=F
 DIIS: error= 7.49D-05 at cycle   3 NSaved=   3.
 NSaved= 3 IEnMin= 3 EnMin= -2048.67607046978     IErMin= 3 ErrMin= 7.49D-05
 ErrMax= 7.49D-05  0.00D+00 EMaxC= 1.00D-01 BMatC= 1.11D-05 BMatP= 5.72D-05
 IDIUse=1 WtCom= 1.00D+00 WtEn= 0.00D+00
 Coeff-Com: -0.167D-01 0.293D+00 0.724D+00
 Coeff:     -0.167D-01 0.293D+00 0.724D+00
 Gap=     0.280 Goal=   None    Shift=    0.000
 RMSDP=6.28D-06 MaxDP=3.73D-04 DE=-4.37D-05 OVMax= 7.30D-04

 Cycle   9  Pass 1  IDiag  1:
 RMSU=  4.03D-06    CP:  1.00D+00  1.05D+00  7.64D-01
 E= -2048.67608153966     Delta-E=       -0.000011069886 Rises=F Damp=F
 DIIS: error= 3.04D-05 at cycle   4 NSaved=   4.
 NSaved= 4 IEnMin= 4 EnMin= -2048.67608153966     IErMin= 4 ErrMin= 3.04D-05
 ErrMax= 3.04D-05  0.00D+00 EMaxC= 1.00D-01 BMatC= 6.41D-07 BMatP= 1.11D-05
 IDIUse=1 WtCom= 1.00D+00 WtEn= 0.00D+00
 Coeff-Com: -0.310D-01 0.884D-01 0.292D+00 0.650D+00
 Coeff:     -0.310D-01 0.884D-01 0.292D+00 0.650D+00
 Gap=     0.280 Goal=   None    Shift=    0.000
 RMSDP=1.54D-06 MaxDP=1.17D-04 DE=-1.11D-05 OVMax= 4.47D-04

 Cycle  10  Pass 1  IDiag  1:
 RMSU=  1.40D-06    CP:  1.00D+00  1.05D+00  7.98D-01  1.07D+00
 E= -2048.67608249038     Delta-E=       -0.000000950719 Rises=F Damp=F
 DIIS: error= 1.14D-05 at cycle   5 NSaved=   5.
 NSaved= 5 IEnMin= 5 EnMin= -2048.67608249038     IErMin= 5 ErrMin= 1.14D-05
 ErrMax= 1.14D-05  0.00D+00 EMaxC= 1.00D-01 BMatC= 1.23D-07 BMatP= 6.41D-07
 IDIUse=1 WtCom= 1.00D+00 WtEn= 0.00D+00
 Coeff-Com: -0.473D-02-0.446D-01-0.963D-01 0.197D+00 0.949D+00
 Coeff:     -0.473D-02-0.446D-01-0.963D-01 0.197D+00 0.949D+00
 Gap=     0.280 Goal=   None    Shift=    0.000
 RMSDP=1.18D-06 MaxDP=7.51D-05 DE=-9.51D-07 OVMax= 2.87D-04

 Cycle  11  Pass 1  IDiag  1:
 RMSU=  5.20D-07    CP:  1.00D+00  1.05D+00  8.05D-01  1.33D+00  1.17D+00
 E= -2048.67608275723     Delta-E=       -0.000000266851 Rises=F Damp=F
 DIIS: error= 5.20D-06 at cycle   6 NSaved=   6.
 NSaved= 6 IEnMin= 6 EnMin= -2048.67608275723     IErMin= 6 ErrMin= 5.20D-06
 ErrMax= 5.20D-06  0.00D+00 EMaxC= 1.00D-01 BMatC= 3.62D-08 BMatP= 1.23D-07
 IDIUse=1 WtCom= 1.00D+00 WtEn= 0.00D+00
 Coeff-Com:  0.472D-02-0.440D-01-0.119D+00-0.204D-01 0.529D+00 0.650D+00
 Coeff:      0.472D-02-0.440D-01-0.119D+00-0.204D-01 0.529D+00 0.650D+00
 Gap=     0.280 Goal=   None    Shift=    0.000
 RMSDP=4.48D-07 MaxDP=3.62D-05 DE=-2.67D-07 OVMax= 1.38D-04

 Cycle  12  Pass 1  IDiag  1:
 RMSU=  2.13D-07    CP:  1.00D+00  1.05D+00  8.08D-01  1.41D+00  1.33D+00
                    CP:  9.36D-01
 E= -2048.67608280979     Delta-E=       -0.000000052551 Rises=F Damp=F
 DIIS: error= 9.06D-07 at cycle   7 NSaved=   7.
 NSaved= 7 IEnMin= 7 EnMin= -2048.67608280979     IErMin= 7 ErrMin= 9.06D-07
 ErrMax= 9.06D-07  0.00D+00 EMaxC= 1.00D-01 BMatC= 8.23D-10 BMatP= 3.62D-08
 IDIUse=1 WtCom= 1.00D+00 WtEn= 0.00D+00
 Coeff-Com:  0.131D-02-0.912D-02-0.259D-01-0.126D-01 0.854D-01 0.153D+00
 Coeff-Com:  0.808D+00
 Coeff:      0.131D-02-0.912D-02-0.259D-01-0.126D-01 0.854D-01 0.153D+00
 Coeff:      0.808D+00
 Gap=     0.280 Goal=   None    Shift=    0.000
 RMSDP=8.51D-08 MaxDP=5.69D-06 DE=-5.26D-08 OVMax= 2.74D-05

 Cycle  13  Pass 1  IDiag  1:
 RMSU=  5.64D-08    CP:  1.00D+00  1.05D+00  8.08D-01  1.42D+00  1.34D+00
                    CP:  1.01D+00  1.11D+00
 E= -2048.67608281107     Delta-E=       -0.000000001289 Rises=F Damp=F
 DIIS: error= 5.71D-07 at cycle   8 NSaved=   8.
 NSaved= 8 IEnMin= 8 EnMin= -2048.67608281107     IErMin= 8 ErrMin= 5.71D-07
 ErrMax= 5.71D-07  0.00D+00 EMaxC= 1.00D-01 BMatC= 3.82D-10 BMatP= 8.23D-10
 IDIUse=1 WtCom= 1.00D+00 WtEn= 0.00D+00
 Coeff-Com: -0.679D-03 0.791D-02 0.208D-01 0.563D-03-0.106D+00-0.110D+00
 Coeff-Com:  0.407D+00 0.781D+00
 Coeff:     -0.679D-03 0.791D-02 0.208D-01 0.563D-03-0.106D+00-0.110D+00
 Coeff:      0.407D+00 0.781D+00
 Gap=     0.280 Goal=   None    Shift=    0.000
 RMSDP=5.58D-08 MaxDP=3.22D-06 DE=-1.29D-09 OVMax= 1.30D-05

 Cycle  14  Pass 1  IDiag  1:
 RMSU=  3.21D-08    CP:  1.00D+00  1.05D+00  8.08D-01  1.42D+00  1.35D+00
                    CP:  1.06D+00  1.28D+00  1.03D+00
 E= -2048.67608281183     Delta-E=       -0.000000000759 Rises=F Damp=F
 DIIS: error= 2.13D-07 at cycle   9 NSaved=   9.
 NSaved= 9 IEnMin= 9 EnMin= -2048.67608281183     IErMin= 9 ErrMin= 2.13D-07
 ErrMax= 2.13D-07  0.00D+00 EMaxC= 1.00D-01 BMatC= 3.93D-11 BMatP= 3.82D-10
 IDIUse=1 WtCom= 1.00D+00 WtEn= 0.00D+00
 Coeff-Com: -0.445D-03 0.451D-02 0.120D-01 0.200D-02-0.544D-01-0.650D-01
 Coeff-Com:  0.973D-01 0.330D+00 0.674D+00
 Coeff:     -0.445D-03 0.451D-02 0.120D-01 0.200D-02-0.544D-01-0.650D-01
 Coeff:      0.973D-01 0.330D+00 0.674D+00
 Gap=     0.280 Goal=   None    Shift=    0.000
 RMSDP=1.46D-08 MaxDP=7.14D-07 DE=-7.59D-10 OVMax= 3.61D-06

 Cycle  15  Pass 1  IDiag  1:
 RMSU=  1.04D-08    CP:  1.00D+00  1.05D+00  8.08D-01  1.42D+00  1.35D+00
                    CP:  1.06D+00  1.30D+00  1.18D+00  1.07D+00
 E= -2048.67608281204     Delta-E=       -0.000000000212 Rises=F Damp=F
 DIIS: error= 9.85D-08 at cycle  10 NSaved=  10.
 NSaved=10 IEnMin=10 EnMin= -2048.67608281204     IErMin=10 ErrMin= 9.85D-08
 ErrMax= 9.85D-08  0.00D+00 EMaxC= 1.00D-01 BMatC= 6.51D-12 BMatP= 3.93D-11
 IDIUse=1 WtCom= 1.00D+00 WtEn= 0.00D+00
 Coeff-Com: -0.222D-04-0.140D-06 0.653D-04 0.302D-03 0.163D-02-0.182D-02
 Coeff-Com: -0.501D-01-0.518D-01 0.248D+00 0.853D+00
 Coeff:     -0.222D-04-0.140D-06 0.653D-04 0.302D-03 0.163D-02-0.182D-02
 Coeff:     -0.501D-01-0.518D-01 0.248D+00 0.853D+00
 Gap=     0.280 Goal=   None    Shift=    0.000
 RMSDP=8.23D-09 MaxDP=4.45D-07 DE=-2.12D-10 OVMax= 2.09D-06

 SCF Done:  E(RwB97XD) =  -2048.67608281     A.U. after   15 cycles
            NFock= 15  Conv=0.82D-08     -V/T= 2.0051
 KE= 2.038285772660D+03 PE=-1.613141398088D+04 EE= 6.368992874725D+03
 Leave Link  502 at Fri Jan 19 23:51:25 2018, MaxMem=  4294967296 cpu:           23599.6 elap:             762.9
 (Enter /share/apps/g16/l601.exe)
 Copying SCF densities to generalized density rwf, IOpCl= 0 IROHF=0.

 **********************************************************************

            Population analysis using the SCF density.

 **********************************************************************

 Orbital symmetries:
       Occupied  (A) (A) (A) (A) (A) (A) (A) (A) (A) (A) (A) (A)
                 (A) (A) (A) (A) (A) (A) (A) (A) (A) (A) (A) (A)
                 (A) (A) (A) (A) (A) (A) (A) (A) (A) (A) (A) (A)
                 (A) (A) (A) (A) (A) (A) (A) (A) (A) (A) (A) (A)
                 (A) (A) (A) (A) (A) (A) (A) (A) (A) (A) (A) (A)
                 (A) (A) (A) (A) (A) (A) (A) (A) (A) (A) (A) (A)
                 (A) (A) (A) (A) (A) (A) (A) (A) (A) (A) (A) (A)
                 (A) (A) (A) (A) (A) (A) (A) (A) (A) (A) (A) (A)
                 (A) (A) (A) (A) (A) (A) (A) (A) (A) (A) (A) (A)
                 (A) (A) (A) (A) (A) (A) (A) (A) (A) (A) (A) (A)
                 (A) (A) (A) (A) (A) (A) (A) (A) (A) (A) (A) (A)
                 (A) (A) (A) (A) (A) (A) (A) (A) (A) (A) (A) (A)
                 (A) (A) (A) (A) (A) (A) (A) (A) (A) (A)
       Virtual   (A) (A) (A) (A) (A) (A) (A) (A) (A) (A) (A) (A)
                 (A) (A) (A) (A) (A) (A) (A) (A) (A) (A) (A) (A)
                 (A) (A) (A) (A) (A) (A) (A) (A) (A) (A) (A) (A)
                 (A) (A) (A) (A) (A) (A) (A) (A) (A) (A) (A) (A)
                 (A) (A) (A) (A) (A) (A) (A) (A) (A) (A) (A) (A)
                 (A) (A) (A) (A) (A) (A) (A) (A) (A) (A) (A) (A)
                 (A) (A) (A) (A) (A) (A) (A) (A) (A) (A) (A) (A)
                 (A) (A) (A) (A) (A) (A) (A) (A) (A) (A) (A) (A)
                 (A) (A) (A) (A) (A) (A) (A) (A) (A) (A) (A) (A)
                 (A) (A) (A) (A) (A) (A) (A) (A) (A) (A) (A) (A)
                 (A) (A) (A) (A) (A) (A) (A) (A) (A) (A) (A) (A)
                 (A) (A) (A) (A) (A) (A) (A) (A) (A) (A) (A) (A)
                 (A) (A) (A) (A) (A) (A) (A) (A) (A) (A) (A) (A)
                 (A) (A) (A) (A) (A) (A) (A) (A) (A) (A) (A) (A)
                 (A) (A) (A) (A) (A) (A) (A) (A) (A) (A) (A) (A)
                 (A) (A) (A) (A) (A) (A) (A) (A) (A) (A) (A) (A)
                 (A) (A) (A) (A) (A) (A) (A) (A) (A) (A) (A) (A)
                 (A) (A) (A) (A) (A) (A) (A) (A) (A) (A) (A) (A)
                 (A) (A) (A) (A) (A) (A) (A) (A) (A) (A) (A) (A)
                 (A) (A) (A) (A) (A) (A) (A) (A) (A) (A) (A) (A)
                 (A) (A) (A) (A) (A) (A) (A) (A) (A) (A) (A) (A)
                 (A) (A) (A) (A) (A) (A) (A) (A) (A) (A) (A) (A)
                 (A) (A) (A) (A) (A) (A) (A) (A) (A) (A) (A) (A)
                 (A) (A) (A) (A) (A) (A) (A) (A) (A) (A) (A) (A)
                 (A) (A) (A) (A) (A) (A) (A) (A) (A) (A) (A) (A)
                 (A) (A) (A) (A) (A) (A) (A) (A) (A) (A) (A) (A)
                 (A) (A) (A) (A) (A) (A) (A) (A) (A) (A) (A) (A)
                 (A) (A) (A) (A) (A) (A) (A) (A) (A) (A) (A) (A)
                 (A) (A) (A) (A) (A) (A) (A) (A) (A) (A) (A) (A)
                 (A) (A) (A) (A) (A) (A) (A) (A) (A) (A) (A) (A)
                 (A) (A) (A) (A) (A) (A) (A) (A) (A) (A) (A) (A)
                 (A) (A) (A) (A) (A) (A) (A) (A) (A) (A) (A) (A)
                 (A) (A) (A) (A) (A) (A) (A) (A) (A) (A) (A) (A)
                 (A) (A) (A) (A) (A) (A) (A) (A) (A) (A) (A) (A)
                 (A) (A) (A) (A) (A) (A) (A) (A) (A) (A) (A) (A)
                 (A) (A) (A) (A) (A) (A) (A) (A) (A) (A) (A) (A)
                 (A) (A) (A) (A) (A) (A) (A) (A) (A) (A) (A) (A)
                 (A) (A) (A) (A) (A) (A) (A) (A) (A) (A) (A) (A)
                 (A) (A) (A) (A) (A) (A) (A) (A) (A) (A) (A) (A)
                 (A) (A) (A) (A) (A) (A) (A) (A) (A) (A) (A) (A)
                 (A) (A) (A) (A) (A) (A) (A) (A) (A) (A) (A) (A)
                 (A) (A) (A) (A) (A) (A) (A) (A) (A) (A) (A) (A)
                 (A) (A) (A) (A) (A) (A) (A) (A) (A) (A) (A) (A)
                 (A) (A) (A) (A) (A) (A) (A) (A) (A) (A) (A) (A)
                 (A) (A) (A) (A) (A) (A) (A) (A) (A) (A) (A) (A)
                 (A) (A) (A) (A) (A) (A) (A) (A) (A) (A) (A) (A)
                 (A) (A) (A) (A) (A) (A) (A) (A) (A) (A) (A) (A)
                 (A) (A) (A) (A) (A) (A) (A) (A) (A) (A) (A) (A)
                 (A) (A) (A) (A) (A) (A) (A)
 The electronic state is 1-A.
 Alpha  occ. eigenvalues --  -19.24879 -19.21288 -19.20616 -14.52799 -14.51576
 Alpha  occ. eigenvalues --  -14.48988 -14.48947 -14.48512 -14.47137 -14.46740
 Alpha  occ. eigenvalues --  -14.46438 -14.45980 -14.44880 -14.44547 -14.43081
 Alpha  occ. eigenvalues --  -14.41678 -14.41481 -14.41180 -14.40963 -14.40838
 Alpha  occ. eigenvalues --  -10.44578 -10.40947 -10.40433 -10.39406 -10.38486
 Alpha  occ. eigenvalues --  -10.38193 -10.37618 -10.37005 -10.36440 -10.36007
 Alpha  occ. eigenvalues --  -10.34692 -10.34342 -10.34154 -10.33736 -10.33602
 Alpha  occ. eigenvalues --  -10.33375 -10.33101 -10.32816 -10.31742 -10.30976
 Alpha  occ. eigenvalues --  -10.30415 -10.28668 -10.28248  -1.18881  -1.16216
 Alpha  occ. eigenvalues --   -1.13286  -1.12335  -1.11586  -1.10677  -1.09837
 Alpha  occ. eigenvalues --   -1.08685  -1.08506  -1.05639  -1.05348  -1.01850
 Alpha  occ. eigenvalues --   -1.01681  -1.01103  -0.99721  -0.98519  -0.97516
 Alpha  occ. eigenvalues --   -0.97282  -0.96690  -0.93351  -0.90274  -0.88346
 Alpha  occ. eigenvalues --   -0.86641  -0.84709  -0.84015  -0.83145  -0.82845
 Alpha  occ. eigenvalues --   -0.82438  -0.78156  -0.77643  -0.75494  -0.74722
 Alpha  occ. eigenvalues --   -0.73793  -0.73261  -0.72688  -0.71582  -0.71026
 Alpha  occ. eigenvalues --   -0.67535  -0.67368  -0.66783  -0.66108  -0.64842
 Alpha  occ. eigenvalues --   -0.64406  -0.64063  -0.63302  -0.62621  -0.62385
 Alpha  occ. eigenvalues --   -0.61843  -0.61208  -0.60980  -0.60140  -0.59098
 Alpha  occ. eigenvalues --   -0.58729  -0.58479  -0.58293  -0.57170  -0.56572
 Alpha  occ. eigenvalues --   -0.56016  -0.55724  -0.55489  -0.54841  -0.54313
 Alpha  occ. eigenvalues --   -0.54181  -0.53973  -0.53449  -0.53175  -0.52969
 Alpha  occ. eigenvalues --   -0.52568  -0.52026  -0.51666  -0.51095  -0.50525
 Alpha  occ. eigenvalues --   -0.50267  -0.49865  -0.49406  -0.49204  -0.48843
 Alpha  occ. eigenvalues --   -0.48469  -0.48130  -0.48038  -0.47791  -0.47387
 Alpha  occ. eigenvalues --   -0.46918  -0.45755  -0.45072  -0.44927  -0.42378
 Alpha  occ. eigenvalues --   -0.41303  -0.41268  -0.38871  -0.38039  -0.37755
 Alpha  occ. eigenvalues --   -0.37450  -0.37138  -0.36529  -0.35987  -0.35240
 Alpha  occ. eigenvalues --   -0.34937  -0.34372  -0.34098  -0.33429  -0.32894
 Alpha  occ. eigenvalues --   -0.32420  -0.32308  -0.31859  -0.31150  -0.31041
 Alpha  occ. eigenvalues --   -0.30519  -0.30040  -0.26517  -0.24855
 Alpha virt. eigenvalues --    0.03143   0.03943   0.06693   0.06996   0.08321
 Alpha virt. eigenvalues --    0.09056   0.09758   0.09897   0.11318   0.12842
 Alpha virt. eigenvalues --    0.13087   0.13352   0.14096   0.14351   0.14776
 Alpha virt. eigenvalues --    0.15212   0.16163   0.17487   0.17986   0.18196
 Alpha virt. eigenvalues --    0.18240   0.19119   0.19870   0.20229   0.20567
 Alpha virt. eigenvalues --    0.20659   0.20991   0.21020   0.21859   0.22246
 Alpha virt. eigenvalues --    0.22557   0.23158   0.23326   0.23796   0.23957
 Alpha virt. eigenvalues --    0.24325   0.24528   0.25077   0.25805   0.26678
 Alpha virt. eigenvalues --    0.27128   0.27834   0.28046   0.28378   0.28740
 Alpha virt. eigenvalues --    0.28820   0.29386   0.29786   0.30812   0.31267
 Alpha virt. eigenvalues --    0.31834   0.32203   0.33014   0.33413   0.33692
 Alpha virt. eigenvalues --    0.34192   0.35082   0.35682   0.36175   0.36707
 Alpha virt. eigenvalues --    0.37117   0.37320   0.37635   0.38711   0.38994
 Alpha virt. eigenvalues --    0.39180   0.40050   0.40923   0.41501   0.41931
 Alpha virt. eigenvalues --    0.42343   0.42824   0.43630   0.43659   0.44371
 Alpha virt. eigenvalues --    0.45426   0.46102   0.46370   0.46452   0.46974
 Alpha virt. eigenvalues --    0.47631   0.48139   0.48673   0.48849   0.49451
 Alpha virt. eigenvalues --    0.49688   0.50704   0.50957   0.51234   0.51770
 Alpha virt. eigenvalues --    0.51903   0.52754   0.53544   0.54088   0.54198
 Alpha virt. eigenvalues --    0.54340   0.55137   0.55573   0.55929   0.56080
 Alpha virt. eigenvalues --    0.56593   0.56776   0.57339   0.57626   0.58106
 Alpha virt. eigenvalues --    0.58158   0.58626   0.58872   0.59208   0.59929
 Alpha virt. eigenvalues --    0.60616   0.61185   0.61371   0.61722   0.61941
 Alpha virt. eigenvalues --    0.62159   0.62979   0.63811   0.64224   0.64528
 Alpha virt. eigenvalues --    0.65037   0.65348   0.65764   0.66280   0.66558
 Alpha virt. eigenvalues --    0.66923   0.67207   0.67676   0.68301   0.68815
 Alpha virt. eigenvalues --    0.69244   0.69548   0.70313   0.70541   0.70725
 Alpha virt. eigenvalues --    0.71078   0.71470   0.71936   0.72375   0.73023
 Alpha virt. eigenvalues --    0.73217   0.73412   0.73888   0.74222   0.74649
 Alpha virt. eigenvalues --    0.74715   0.74945   0.76011   0.76118   0.76254
 Alpha virt. eigenvalues --    0.76689   0.76874   0.77068   0.77529   0.78149
 Alpha virt. eigenvalues --    0.78467   0.78768   0.79110   0.79547   0.79629
 Alpha virt. eigenvalues --    0.79892   0.79923   0.80770   0.81566   0.81871
 Alpha virt. eigenvalues --    0.81876   0.82486   0.82835   0.83293   0.83762
 Alpha virt. eigenvalues --    0.84274   0.84838   0.85011   0.85443   0.85935
 Alpha virt. eigenvalues --    0.86638   0.86725   0.87096   0.87385   0.88016
 Alpha virt. eigenvalues --    0.88351   0.89089   0.89364   0.89737   0.90319
 Alpha virt. eigenvalues --    0.90845   0.91518   0.92038   0.92380   0.92683
 Alpha virt. eigenvalues --    0.92929   0.93809   0.94773   0.95020   0.95670
 Alpha virt. eigenvalues --    0.96058   0.96555   0.97068   0.97279   0.97586
 Alpha virt. eigenvalues --    0.98585   0.98893   0.99170   0.99697   1.00320
 Alpha virt. eigenvalues --    1.00926   1.01559   1.01927   1.02518   1.02776
 Alpha virt. eigenvalues --    1.03191   1.03695   1.03920   1.04515   1.05284
 Alpha virt. eigenvalues --    1.05495   1.05771   1.06336   1.06627   1.07035
 Alpha virt. eigenvalues --    1.07251   1.08307   1.09022   1.09733   1.09892
 Alpha virt. eigenvalues --    1.10745   1.11363   1.11819   1.12118   1.12923
 Alpha virt. eigenvalues --    1.13207   1.13913   1.14389   1.14614   1.14978
 Alpha virt. eigenvalues --    1.15337   1.15624   1.16285   1.16759   1.17137
 Alpha virt. eigenvalues --    1.17514   1.18047   1.18312   1.19259   1.19435
 Alpha virt. eigenvalues --    1.19786   1.20101   1.20545   1.21050   1.21311
 Alpha virt. eigenvalues --    1.21975   1.22526   1.22795   1.22942   1.23349
 Alpha virt. eigenvalues --    1.24116   1.24329   1.24722   1.25074   1.25669
 Alpha virt. eigenvalues --    1.26140   1.26637   1.27121   1.27601   1.28129
 Alpha virt. eigenvalues --    1.28609   1.29370   1.29830   1.30248   1.30613
 Alpha virt. eigenvalues --    1.31548   1.31979   1.32249   1.32647   1.33248
 Alpha virt. eigenvalues --    1.34071   1.34928   1.35566   1.36331   1.37109
 Alpha virt. eigenvalues --    1.37765   1.38293   1.38711   1.39318   1.39938
 Alpha virt. eigenvalues --    1.40200   1.40965   1.41859   1.43159   1.43364
 Alpha virt. eigenvalues --    1.44218   1.45026   1.45872   1.47007   1.47642
 Alpha virt. eigenvalues --    1.47818   1.48233   1.50585   1.50779   1.51230
 Alpha virt. eigenvalues --    1.51366   1.51748   1.52503   1.54188   1.54261
 Alpha virt. eigenvalues --    1.55017   1.55792   1.56750   1.57339   1.57673
 Alpha virt. eigenvalues --    1.58377   1.59112   1.59884   1.60030   1.60509
 Alpha virt. eigenvalues --    1.61502   1.61771   1.62010   1.62394   1.63202
 Alpha virt. eigenvalues --    1.64259   1.64685   1.64757   1.65339   1.65923
 Alpha virt. eigenvalues --    1.66981   1.67410   1.67812   1.68212   1.68917
 Alpha virt. eigenvalues --    1.69283   1.69549   1.70282   1.70520   1.70896
 Alpha virt. eigenvalues --    1.71309   1.71561   1.71921   1.72492   1.72650
 Alpha virt. eigenvalues --    1.73475   1.73790   1.74037   1.74760   1.75397
 Alpha virt. eigenvalues --    1.75516   1.76046   1.76339   1.76629   1.76845
 Alpha virt. eigenvalues --    1.77133   1.77337   1.77642   1.78121   1.78444
 Alpha virt. eigenvalues --    1.78922   1.79462   1.79514   1.80509   1.80754
 Alpha virt. eigenvalues --    1.81701   1.82082   1.82641   1.82684   1.83509
 Alpha virt. eigenvalues --    1.83813   1.84200   1.84455   1.84916   1.85491
 Alpha virt. eigenvalues --    1.85836   1.86184   1.86666   1.87112   1.87226
 Alpha virt. eigenvalues --    1.87964   1.88433   1.88605   1.89016   1.89792
 Alpha virt. eigenvalues --    1.90198   1.90901   1.91079   1.91765   1.92348
 Alpha virt. eigenvalues --    1.92494   1.93307   1.93679   1.93942   1.94330
 Alpha virt. eigenvalues --    1.95032   1.95484   1.95718   1.96570   1.97419
 Alpha virt. eigenvalues --    1.97936   1.98264   1.99715   2.00268   2.01425
 Alpha virt. eigenvalues --    2.02228   2.02332   2.02623   2.03501   2.03624
 Alpha virt. eigenvalues --    2.03863   2.05161   2.05584   2.06529   2.07152
 Alpha virt. eigenvalues --    2.07519   2.08131   2.08728   2.09059   2.09771
 Alpha virt. eigenvalues --    2.11486   2.12021   2.12168   2.12672   2.13184
 Alpha virt. eigenvalues --    2.13924   2.14416   2.14982   2.15405   2.16211
 Alpha virt. eigenvalues --    2.17214   2.18433   2.18806   2.19670   2.20049
 Alpha virt. eigenvalues --    2.21245   2.21321   2.21757   2.22106   2.22944
 Alpha virt. eigenvalues --    2.24075   2.24820   2.25143   2.25780   2.26093
 Alpha virt. eigenvalues --    2.26287   2.26449   2.27376   2.28352   2.29163
 Alpha virt. eigenvalues --    2.29375   2.29791   2.30646   2.31054   2.31522
 Alpha virt. eigenvalues --    2.31997   2.32547   2.33449   2.34265   2.34425
 Alpha virt. eigenvalues --    2.34754   2.35008   2.35691   2.36105   2.36362
 Alpha virt. eigenvalues --    2.36500   2.37483   2.38361   2.39457   2.39580
 Alpha virt. eigenvalues --    2.39839   2.41457   2.41735   2.42303   2.43463
 Alpha virt. eigenvalues --    2.43852   2.44142   2.44574   2.45244   2.45817
 Alpha virt. eigenvalues --    2.46394   2.46640   2.47238   2.48519   2.49803
 Alpha virt. eigenvalues --    2.50246   2.51303   2.51838   2.52573   2.54065
 Alpha virt. eigenvalues --    2.54624   2.55349   2.56522   2.57603   2.57761
 Alpha virt. eigenvalues --    2.59412   2.60490   2.61455   2.62158   2.62312
 Alpha virt. eigenvalues --    2.63631   2.64010   2.64750   2.65527   2.65856
 Alpha virt. eigenvalues --    2.66152   2.66637   2.67411   2.68155   2.68334
 Alpha virt. eigenvalues --    2.69183   2.69875   2.70327   2.71729   2.72250
 Alpha virt. eigenvalues --    2.72351   2.73615   2.73874   2.74517   2.75615
 Alpha virt. eigenvalues --    2.76088   2.76901   2.77132   2.77629   2.78024
 Alpha virt. eigenvalues --    2.79128   2.79453   2.80216   2.80721   2.81484
 Alpha virt. eigenvalues --    2.81532   2.82640   2.82690   2.83000   2.83265
 Alpha virt. eigenvalues --    2.84126   2.84673   2.85349   2.85926   2.86629
 Alpha virt. eigenvalues --    2.86980   2.87265   2.87603   2.89491   2.89598
 Alpha virt. eigenvalues --    2.89803   2.91618   2.92433   2.94902   2.95906
 Alpha virt. eigenvalues --    2.96894   2.99982   3.00400   3.01513   3.02257
 Alpha virt. eigenvalues --    3.03249   3.03741   3.03985   3.06203   3.08995
 Alpha virt. eigenvalues --    3.09606   3.11317   3.12313   3.14372   3.15755
 Alpha virt. eigenvalues --    3.16462   3.17516   3.18008   3.20028   3.21700
 Alpha virt. eigenvalues --    3.21867   3.23987   3.24691   3.25455   3.28567
 Alpha virt. eigenvalues --    3.44522   3.47383   3.48630   3.49367   3.51548
 Alpha virt. eigenvalues --    3.53502   3.54973   3.56913   3.59092   3.60804
 Alpha virt. eigenvalues --    3.64692   3.72062   3.76209
          Condensed to atoms (all electrons):
 Mulliken charges:
               1
     1  N   -0.297865
     2  C    0.175879
     3  C    0.084162
     4  N   -0.255972
     5  C    0.137278
     6  H    0.025118
     7  N   -0.276229
     8  C    0.132162
     9  H    0.004513
    10  N   -0.272036
    11  C    0.216773
    12  C    0.064285
    13  N   -0.048527
    14  H    0.110263
    15  H    0.083617
    16  H    0.028037
    17  H    0.041518
    18  H    0.011336
    19  N   -0.280899
    20  C    0.219284
    21  C    0.197340
    22  N   -0.097292
    23  H    0.120531
    24  H    0.118676
    25  N   -0.260582
    26  C    0.160757
    27  N   -0.096918
    28  H    0.115783
    29  C    0.159776
    30  O   -0.319375
    31  C    0.016871
    32  N   -0.211603
    33  C    0.098314
    34  H    0.023182
    35  H   -0.009535
    36  H    0.033542
    37  H    0.023246
    38  H    0.059565
    39  H    0.040668
    40  H    0.078418
    41  H    0.025001
    42  C   -0.101197
    43  O   -0.268865
    44  C    0.171954
    45  H    0.128374
    46  N   -0.111067
    47  O   -0.339616
    48  C    0.320983
    49  H    0.044571
    50  C    0.164765
    51  C    0.044465
    52  N   -0.272570
    53  H    0.039031
    54  H    0.043224
    55  H    0.028685
    56  H    0.123428
    57  H    0.120594
    58  N   -0.061438
    59  C    0.104358
    60  C    0.168708
    61  N   -0.252463
    62  H   -0.001056
    63  C    0.187678
    64  N   -0.300086
    65  H    0.036077
    66  C    0.118614
    67  N   -0.248445
    68  C    0.058963
    69  C    0.177613
    70  N   -0.304342
 Sum of Mulliken charges =  -0.00000
 Mulliken charges with hydrogens summed into heavy atoms:
               1
     1  N   -0.297865
     2  C    0.256769
     3  C    0.084162
     4  N   -0.255972
     5  C    0.162396
     7  N   -0.276229
     8  C    0.136675
    10  N   -0.272036
    11  C    0.216773
    12  C    0.064285
    13  N    0.145352
    19  N   -0.280899
    20  C    0.219284
    21  C    0.244592
    22  N    0.141915
    25  N   -0.260582
    26  C    0.160757
    27  N    0.018865
    29  C    0.159776
    30  O   -0.319375
    31  C    0.016871
    32  N   -0.211603
    33  C    0.121497
    42  C   -0.076196
    43  O   -0.268865
    44  C    0.171954
    46  N    0.017306
    47  O   -0.339616
    48  C    0.320983
    50  C    0.209336
    51  C    0.223116
    52  N   -0.272570
    58  N    0.182584
    59  C    0.104358
    60  C    0.168708
    61  N   -0.252463
    63  C    0.186622
    64  N   -0.300086
    66  C    0.154691
    67  N   -0.248445
    68  C    0.058963
    69  C    0.288554
    70  N   -0.304342
 Electronic spatial extent (au):  <R**2>=          21653.3589
 Charge=             -0.0000 electrons
 Dipole moment (field-independent basis, Debye):
    X=             -5.7514    Y=              7.2007    Z=             -3.7569  Tot=              9.9520
 Quadrupole moment (field-independent basis, Debye-Ang):
   XX=           -149.5166   YY=           -230.5989   ZZ=           -259.4059
   XY=             -6.1898   XZ=             -4.1833   YZ=             15.4152
 Traceless Quadrupole moment (field-independent basis, Debye-Ang):
   XX=             63.6572   YY=            -17.4251   ZZ=            -46.2321
   XY=             -6.1898   XZ=             -4.1833   YZ=             15.4152
 Octapole moment (field-independent basis, Debye-Ang**2):
  XXX=             88.2754  YYY=             89.5426  ZZZ=             -6.1486  XYY=            -90.9211
  XXY=            108.7079  XXZ=            -17.4264  XZZ=            -28.3972  YZZ=             25.5106
  YYZ=            -70.7916  XYZ=             23.2121
 Hexadecapole moment (field-independent basis, Debye-Ang**3):
 XXXX=         -16424.0674 YYYY=          -3753.8709 ZZZZ=          -3474.0273 XXXY=           -673.7820
 XXXZ=           -190.2236 YYYX=             24.2423 YYYZ=            144.9440 ZZZX=            -34.1889
 ZZZY=             62.8173 XXYY=          -3677.1266 XXZZ=          -4031.1970 YYZZ=          -1309.3044
 XXYZ=            -10.2713 YYXZ=            153.0145 ZZXY=             -6.5662
 N-N= 5.675459250679D+03 E-N=-1.613141396408D+04  KE= 2.038285772660D+03
 No NMR shielding tensors so no spin-rotation constants.
 Leave Link  601 at Fri Jan 19 23:51:26 2018, MaxMem=  4294967296 cpu:              49.5 elap:               1.7
 (Enter /share/apps/g16/l9999.exe)
 1\1\GINC-COMPUTE-0-3\SP\RwB97XD\CC-pVDZ\C23H27N17O3\SATYA\19-Jan-2018\
 0\\#p wb97xd/cc-pvdz sp scf=(maxcycles=20)\\Base pair stacking\\0,1\N,
 0,-0.15401,3.79236,-6.2852\C,0,-0.09379,5.24724,-6.04499\C,0,-0.7803,1
 .68409,-6.30145\N,0,0.40502,1.74237,-7.02002\C,0,0.7349,3.0102,-6.9814
 7\H,0,1.62454,3.43383,-7.44839\N,0,-2.73838,0.90081,-5.24535\C,0,-2.95
 219,2.16684,-4.87245\H,0,-3.85449,2.33262,-4.2854\N,0,-2.22217,3.25371
 ,-5.11471\C,0,-1.13745,2.93992,-5.84226\C,0,-1.63826,0.61766,-5.97654\
 N,0,-1.42311,-0.64551,-6.34972\H,0,-0.62172,-0.90091,-6.89173\H,0,-2.0
 5528,-1.37923,-6.1004\H,0,-0.09937,5.73144,-6.92003\H,0,-0.8854,5.5295
 3,-5.50389\H,0,0.74454,5.47066,-5.54773\N,0,-0.35633,3.95435,-3.01008\
 C,0,-1.06357,2.78963,-2.83315\C,0,-0.89823,5.31697,-2.83602\N,0,-4.025
 76,1.16091,-2.03663\H,0,-4.35268,0.21924,-1.96173\H,0,-4.6853,1.8871,-
 1.8407\N,0,-2.36193,2.69507,-2.47345\C,0,-2.76001,1.43842,-2.38413\N,0
 ,-1.95013,0.35577,-2.62798\H,0,-2.33987,-0.5697,-2.53532\C,0,-0.61127,
 0.42949,-2.99931\O,0,0.03135,-0.60932,-3.19587\C,0,-0.16928,1.77319,-3
 .09937\N,0,1.07438,2.28938,-3.43664\C,0,0.91616,3.58352,-3.37052\H,0,1
 .69771,4.31594,-3.57551\H,0,-0.82137,5.8204,-3.69593\H,0,-1.85945,5.25
 958,-2.56951\H,0,-0.3839,5.79357,-2.12389\H,0,-5.04405,-4.87552,-2.529
 76\H,0,-4.35421,-5.06224,-0.9192\H,0,-4.68583,-3.45032,-1.55413\H,0,-0
 .61677,-6.39741,-3.63865\C,0,-1.11917,-5.48484,-3.31766\O,0,0.6799,-4.
 06229,-3.92333\C,0,-0.44791,-4.22902,-3.45959\H,0,-0.73053,-2.23296,-3
 .10713\N,0,-1.17185,-3.13789,-3.02302\O,0,-2.99427,-2.12339,-2.12482\C
 ,0,-2.43367,-3.14413,-2.48328\H,0,-2.90368,-6.4523,-2.66548\C,0,-2.350
 32,-5.5231,-2.79478\C,0,-4.3633,-4.44913,-1.80807\N,0,-3.01479,-4.3925
 9,-2.3791\H,0,-8.19247,-4.43033,-3.12069\H,0,-7.11924,-3.43011,-2.4066
 6\H,0,-7.21776,-4.99034,-1.93758\H,0,-1.91144,-4.21792,-7.06646\H,0,-2
 .87367,-5.62057,-6.93692\N,0,-2.69046,-4.68147,-6.64409\C,0,-3.45178,-
 4.07519,-5.73086\C,0,-5.25014,-3.92628,-4.17991\N,0,-4.98051,-2.66462,
 -3.80584\H,0,-3.62947,-1.1791,-4.21635\C,0,-3.91837,-2.20035,-4.46097\
 N,0,-3.15452,-2.80602,-5.376\H,0,-6.81387,-6.7555,-4.22912\C,0,-6.1307
 1,-5.92263,-4.39809\N,0,-5.12379,-5.9431,-5.23676\C,0,-4.55697,-4.6833
 6,-5.10828\C,0,-7.27984,-4.36664,-2.71689\N,0,-6.26596,-4.73308,-3.724
 74\\Version=EM64L-G16RevA.03\State=1-A\HF=-2048.6760828\RMSD=8.232e-09
 \Dipole=-3.7979338,-0.695565,0.6499596\Quadrupole=-17.2140599,32.02856
 55,-14.8145055,29.6364466,-17.0994592,-3.9090169\PG=C01 [X(C23H27N17O3
 )]\\@


 SOME PEOPLE TRY TO PULL THE WOOL OVER YOUR EYES
 USING THE WRONG YARN.
 Job cpu time:       0 days  6 hours 43 minutes 48.6 seconds.
 Elapsed time:       0 days  0 hours 13 minutes  3.0 seconds.
 File lengths (MBytes):  RWF=    298 Int=      0 D2E=      0 Chk=     33 Scr=      1
 Normal termination of Gaussian 16 at Fri Jan 19 23:51:27 2018.
