 Entering Gaussian System, Link 0=g16
 Input=str20.-15.-1.5.com
 Output=str20.-15.-1.5.log
 Initial command:
 /share/apps/g16/l1.exe "/state/partition1/scr/Gau-27099.inp" -scrdir="/state/partition1/scr/"
 Entering Link 1 = /share/apps/g16/l1.exe PID=     27100.
  
 Copyright (c) 1988,1990,1992,1993,1995,1998,2003,2009,2016,
            Gaussian, Inc.  All Rights Reserved.
  
 This is part of the Gaussian(R) 16 program.  It is based on
 the Gaussian(R) 09 system (copyright 2009, Gaussian, Inc.),
 the Gaussian(R) 03 system (copyright 2003, Gaussian, Inc.),
 the Gaussian(R) 98 system (copyright 1998, Gaussian, Inc.),
 the Gaussian(R) 94 system (copyright 1995, Gaussian, Inc.),
 the Gaussian 92(TM) system (copyright 1992, Gaussian, Inc.),
 the Gaussian 90(TM) system (copyright 1990, Gaussian, Inc.),
 the Gaussian 88(TM) system (copyright 1988, Gaussian, Inc.),
 the Gaussian 86(TM) system (copyright 1986, Carnegie Mellon
 University), and the Gaussian 82(TM) system (copyright 1983,
 Carnegie Mellon University). Gaussian is a federally registered
 trademark of Gaussian, Inc.
  
 This software contains proprietary and confidential information,
 including trade secrets, belonging to Gaussian, Inc.
  
 This software is provided under written license and may be
 used, copied, transmitted, or stored only in accord with that
 written license.
  
 The following legend is applicable only to US Government
 contracts under FAR:
  
                    RESTRICTED RIGHTS LEGEND
  
 Use, reproduction and disclosure by the US Government is
 subject to restrictions as set forth in subparagraphs (a)
 and (c) of the Commercial Computer Software - Restricted
 Rights clause in FAR 52.227-19.
  
 Gaussian, Inc.
 340 Quinnipiac St., Bldg. 40, Wallingford CT 06492
  
  
 ---------------------------------------------------------------
 Warning -- This program may not be used in any manner that
 competes with the business of Gaussian, Inc. or will provide
 assistance to any competitor of Gaussian, Inc.  The licensee
 of this program is prohibited from giving any competitor of
 Gaussian, Inc. access to this program.  By using this program,
 the user acknowledges that Gaussian, Inc. is engaged in the
 business of creating and licensing software in the field of
 computational chemistry and represents and warrants to the
 licensee that it is not a competitor of Gaussian, Inc. and that
 it will not use this program in any manner prohibited above.
 ---------------------------------------------------------------
  

 Cite this work as:
 Gaussian 16, Revision A.03,
 M. J. Frisch, G. W. Trucks, H. B. Schlegel, G. E. Scuseria, 
 M. A. Robb, J. R. Cheeseman, G. Scalmani, V. Barone, 
 G. A. Petersson, H. Nakatsuji, X. Li, M. Caricato, A. V. Marenich, 
 J. Bloino, B. G. Janesko, R. Gomperts, B. Mennucci, H. P. Hratchian, 
 J. V. Ortiz, A. F. Izmaylov, J. L. Sonnenberg, D. Williams-Young, 
 F. Ding, F. Lipparini, F. Egidi, J. Goings, B. Peng, A. Petrone, 
 T. Henderson, D. Ranasinghe, V. G. Zakrzewski, J. Gao, N. Rega, 
 G. Zheng, W. Liang, M. Hada, M. Ehara, K. Toyota, R. Fukuda, 
 J. Hasegawa, M. Ishida, T. Nakajima, Y. Honda, O. Kitao, H. Nakai, 
 T. Vreven, K. Throssell, J. A. Montgomery, Jr., J. E. Peralta, 
 F. Ogliaro, M. J. Bearpark, J. J. Heyd, E. N. Brothers, K. N. Kudin, 
 V. N. Staroverov, T. A. Keith, R. Kobayashi, J. Normand, 
 K. Raghavachari, A. P. Rendell, J. C. Burant, S. S. Iyengar, 
 J. Tomasi, M. Cossi, J. M. Millam, M. Klene, C. Adamo, R. Cammi, 
 J. W. Ochterski, R. L. Martin, K. Morokuma, O. Farkas, 
 J. B. Foresman, and D. J. Fox, Gaussian, Inc., Wallingford CT, 2016.
 
 ******************************************
 Gaussian 16:  EM64L-G16RevA.03 25-Dec-2016
                19-Jan-2018 
 ******************************************
 %nprocshared=32
 Will use up to   32 processors via shared memory.
 %mem=32GB
 %chk=allatoms_t.chk
 ---------------------------------------
 #p wb97xd/cc-pvdz sp scf=(maxcycles=20)
 ---------------------------------------
 1/38=1,172=1/1;
 2/12=2,17=6,18=5,40=1/2;
 3/5=16,11=2,25=1,30=1,74=-58/1,2,3;
 4//1;
 5/5=2,7=20,38=5/2;
 6/7=2,8=2,9=2,10=2,28=1/1;
 99/5=1,9=1/99;
 Leave Link    1 at Fri Jan 19 19:47:18 2018, MaxMem=  4294967296 cpu:               2.7 elap:               0.1
 (Enter /share/apps/g16/l101.exe)
 ------------------
 Base pair stacking
 ------------------
 Symbolic Z-matrix:
 Charge =  0 Multiplicity = 1
 N                     1.96009   8.28924  -6.73653 
 C                     1.96813   9.75585  -6.57227 
 C                     1.36369   6.17226  -6.73238 
 N                     2.64725   6.21281  -7.2573 
 C                     2.95519   7.48659  -7.23879 
 H                     3.90361   7.90022  -7.58281 
 N                    -0.72963   5.41229  -5.95559 
 C                    -1.01142   6.69262  -5.69303 
 H                    -1.99679   6.87373  -5.26581 
 N                    -0.26228   7.77772  -5.87811 
 C                     0.9268    7.44451  -6.40676 
 C                     0.47495   5.10975  -6.48712 
 N                     0.75809   3.83228  -6.74991 
 H                     1.63751   3.56233  -7.14357 
 H                     0.10118   3.1019   -6.56235 
 H                     2.09673   10.19171  -7.46315 
 H                     1.09827   10.05278  -6.17946 
 H                     2.71506   10.02096  -5.9625 
 N                     0.18713   6.39053  -3.13653 
 C                    -0.53026   5.22627  -3.00263 
 C                    -0.37014   7.75381  -3.02883 
 N                    -3.54587   3.59993  -2.43442 
 H                    -3.87611   2.65841  -2.37344 
 H                    -4.22096   4.3268   -2.30545 
 N                    -1.85411   5.13284  -2.75218 
 C                    -2.25587   3.87637  -2.67817 
 N                    -1.42624   2.79285  -2.83697 
 H                    -1.82061   1.8676   -2.76382 
 C                    -0.06101   2.86541  -3.09528 
 O                     0.5979    1.82589  -3.2217 
 C                     0.38525   4.2089   -3.17758 
 N                     1.6519    4.72408  -3.41651 
 C                     1.48617   6.01854  -3.38304 
 H                     2.2808    6.75037  -3.53227 
 H                    -0.22209   8.24494  -3.88655 
 H                    -1.35028   7.69726  -2.84339 
 H                     0.08145   8.24234  -2.28303 
 H                    -4.50733  -2.44622  -2.92247 
 H                    -3.95526  -2.60733  -1.25697 
 H                    -4.23533  -1.00587  -1.94126 
 H                     0.00055  -3.97005  -3.63207 
 C                    -0.52887  -3.0545   -3.36802 
 O                     1.31208  -1.63522  -3.84096 
 C                     0.14954  -1.79875  -3.47143 
 H                    -0.16562   0.2013   -3.17349 
 N                    -0.61071  -0.70369  -3.1135 
 O                    -2.50427   0.31797  -2.38701 
 C                    -1.91349  -0.70608  -2.68189 
 H                    -2.3601   -4.01803  -2.85422 
 C                    -1.79961  -3.08906  -2.95015 
 C                    -3.89062  -2.00724  -2.15239 
 N                    -2.49892  -1.95473  -2.60862 
 H                    -6.40209   0.10693  -4.41981 
 H                    -5.46471   1.16354  -3.60313 
 H                    -5.62192  -0.37048  -3.06821 
 H                     0.42228   0.21805  -7.33205 
 H                    -0.53538  -1.1926   -7.27689 
 N                    -0.40949  -0.23586  -7.01228 
 C                    -1.31136   0.40525  -6.26609 
 C                    -3.33392   0.60566  -5.02883 
 N                    -3.13854   1.8904   -4.68868 
 H                    -1.75325   3.37554  -4.96425 
 C                    -1.99037   2.33749  -5.19337 
 N                    -1.08572   1.69694  -5.94095 
 H                    -4.84404  -2.24975  -5.16424 
 C                    -4.15043  -1.41511  -5.27013 
 N                    -3.02326  -1.4629   -5.93713 
 C                    -2.49555  -0.18805  -5.79217 
 C                    -5.56555   0.20883  -3.88148 
 N                    -4.40154  -0.19342  -4.69467 
 
 ITRead=  0  0  0  0  0  0  0  0  0  0  0  0  0  0  0  0  0  0  0  0
 ITRead=  0  0  0  0  0  0  0  0  0  0  0  0  0  0  0  0  0  0  0  0
 ITRead=  0  0  0  0  0  0  0  0  0  0  0  0  0  0  0  0  0  0  0  0
 ITRead=  0  0  0  0  0  0  0  0  0  0
 MicOpt= -1 -1 -1 -1 -1 -1 -1 -1 -1 -1 -1 -1 -1 -1 -1 -1 -1 -1 -1 -1
 MicOpt= -1 -1 -1 -1 -1 -1 -1 -1 -1 -1 -1 -1 -1 -1 -1 -1 -1 -1 -1 -1
 MicOpt= -1 -1 -1 -1 -1 -1 -1 -1 -1 -1 -1 -1 -1 -1 -1 -1 -1 -1 -1 -1
 MicOpt= -1 -1 -1 -1 -1 -1 -1 -1 -1 -1
 NAtoms=     70 NQM=       70 NQMF=       0 NMMI=      0 NMMIF=      0
                NMic=       0 NMicF=      0.
                    Isotopes and Nuclear Properties:
 (Nuclear quadrupole moments (NQMom) in fm**2, nuclear magnetic moments (NMagM)
  in nuclear magnetons)

  Atom         1           2           3           4           5           6           7           8           9          10
 IAtWgt=          14          12          12          14          12           1          14          12           1          14
 AtmWgt=  14.0030740  12.0000000  12.0000000  14.0030740  12.0000000   1.0078250  14.0030740  12.0000000   1.0078250  14.0030740
 NucSpn=           2           0           0           2           0           1           2           0           1           2
 AtZEff=  -0.0000000  -0.0000000  -0.0000000  -0.0000000  -0.0000000  -0.0000000  -0.0000000  -0.0000000  -0.0000000  -0.0000000
 NQMom=    2.0440000   0.0000000   0.0000000   2.0440000   0.0000000   0.0000000   2.0440000   0.0000000   0.0000000   2.0440000
 NMagM=    0.4037610   0.0000000   0.0000000   0.4037610   0.0000000   2.7928460   0.4037610   0.0000000   2.7928460   0.4037610
 AtZNuc=   7.0000000   6.0000000   6.0000000   7.0000000   6.0000000   1.0000000   7.0000000   6.0000000   1.0000000   7.0000000

  Atom        11          12          13          14          15          16          17          18          19          20
 IAtWgt=          12          12          14           1           1           1           1           1          14          12
 AtmWgt=  12.0000000  12.0000000  14.0030740   1.0078250   1.0078250   1.0078250   1.0078250   1.0078250  14.0030740  12.0000000
 NucSpn=           0           0           2           1           1           1           1           1           2           0
 AtZEff=  -0.0000000  -0.0000000  -0.0000000  -0.0000000  -0.0000000  -0.0000000  -0.0000000  -0.0000000  -0.0000000  -0.0000000
 NQMom=    0.0000000   0.0000000   2.0440000   0.0000000   0.0000000   0.0000000   0.0000000   0.0000000   2.0440000   0.0000000
 NMagM=    0.0000000   0.0000000   0.4037610   2.7928460   2.7928460   2.7928460   2.7928460   2.7928460   0.4037610   0.0000000
 AtZNuc=   6.0000000   6.0000000   7.0000000   1.0000000   1.0000000   1.0000000   1.0000000   1.0000000   7.0000000   6.0000000

  Atom        21          22          23          24          25          26          27          28          29          30
 IAtWgt=          12          14           1           1          14          12          14           1          12          16
 AtmWgt=  12.0000000  14.0030740   1.0078250   1.0078250  14.0030740  12.0000000  14.0030740   1.0078250  12.0000000  15.9949146
 NucSpn=           0           2           1           1           2           0           2           1           0           0
 AtZEff=  -0.0000000  -0.0000000  -0.0000000  -0.0000000  -0.0000000  -0.0000000  -0.0000000  -0.0000000  -0.0000000  -0.0000000
 NQMom=    0.0000000   2.0440000   0.0000000   0.0000000   2.0440000   0.0000000   2.0440000   0.0000000   0.0000000   0.0000000
 NMagM=    0.0000000   0.4037610   2.7928460   2.7928460   0.4037610   0.0000000   0.4037610   2.7928460   0.0000000   0.0000000
 AtZNuc=   6.0000000   7.0000000   1.0000000   1.0000000   7.0000000   6.0000000   7.0000000   1.0000000   6.0000000   8.0000000

  Atom        31          32          33          34          35          36          37          38          39          40
 IAtWgt=          12          14          12           1           1           1           1           1           1           1
 AtmWgt=  12.0000000  14.0030740  12.0000000   1.0078250   1.0078250   1.0078250   1.0078250   1.0078250   1.0078250   1.0078250
 NucSpn=           0           2           0           1           1           1           1           1           1           1
 AtZEff=  -0.0000000  -0.0000000  -0.0000000  -0.0000000  -0.0000000  -0.0000000  -0.0000000  -0.0000000  -0.0000000  -0.0000000
 NQMom=    0.0000000   2.0440000   0.0000000   0.0000000   0.0000000   0.0000000   0.0000000   0.0000000   0.0000000   0.0000000
 NMagM=    0.0000000   0.4037610   0.0000000   2.7928460   2.7928460   2.7928460   2.7928460   2.7928460   2.7928460   2.7928460
 AtZNuc=   6.0000000   7.0000000   6.0000000   1.0000000   1.0000000   1.0000000   1.0000000   1.0000000   1.0000000   1.0000000

  Atom        41          42          43          44          45          46          47          48          49          50
 IAtWgt=           1          12          16          12           1          14          16          12           1          12
 AtmWgt=   1.0078250  12.0000000  15.9949146  12.0000000   1.0078250  14.0030740  15.9949146  12.0000000   1.0078250  12.0000000
 NucSpn=           1           0           0           0           1           2           0           0           1           0
 AtZEff=  -0.0000000  -0.0000000  -0.0000000  -0.0000000  -0.0000000  -0.0000000  -0.0000000  -0.0000000  -0.0000000  -0.0000000
 NQMom=    0.0000000   0.0000000   0.0000000   0.0000000   0.0000000   2.0440000   0.0000000   0.0000000   0.0000000   0.0000000
 NMagM=    2.7928460   0.0000000   0.0000000   0.0000000   2.7928460   0.4037610   0.0000000   0.0000000   2.7928460   0.0000000
 AtZNuc=   1.0000000   6.0000000   8.0000000   6.0000000   1.0000000   7.0000000   8.0000000   6.0000000   1.0000000   6.0000000

  Atom        51          52          53          54          55          56          57          58          59          60
 IAtWgt=          12          14           1           1           1           1           1          14          12          12
 AtmWgt=  12.0000000  14.0030740   1.0078250   1.0078250   1.0078250   1.0078250   1.0078250  14.0030740  12.0000000  12.0000000
 NucSpn=           0           2           1           1           1           1           1           2           0           0
 AtZEff=  -0.0000000  -0.0000000  -0.0000000  -0.0000000  -0.0000000  -0.0000000  -0.0000000  -0.0000000  -0.0000000  -0.0000000
 NQMom=    0.0000000   2.0440000   0.0000000   0.0000000   0.0000000   0.0000000   0.0000000   2.0440000   0.0000000   0.0000000
 NMagM=    0.0000000   0.4037610   2.7928460   2.7928460   2.7928460   2.7928460   2.7928460   0.4037610   0.0000000   0.0000000
 AtZNuc=   6.0000000   7.0000000   1.0000000   1.0000000   1.0000000   1.0000000   1.0000000   7.0000000   6.0000000   6.0000000

  Atom        61          62          63          64          65          66          67          68          69          70
 IAtWgt=          14           1          12          14           1          12          14          12          12          14
 AtmWgt=  14.0030740   1.0078250  12.0000000  14.0030740   1.0078250  12.0000000  14.0030740  12.0000000  12.0000000  14.0030740
 NucSpn=           2           1           0           2           1           0           2           0           0           2
 AtZEff=  -0.0000000  -0.0000000  -0.0000000  -0.0000000  -0.0000000  -0.0000000  -0.0000000  -0.0000000  -0.0000000  -0.0000000
 NQMom=    2.0440000   0.0000000   0.0000000   2.0440000   0.0000000   0.0000000   2.0440000   0.0000000   0.0000000   2.0440000
 NMagM=    0.4037610   2.7928460   0.0000000   0.4037610   2.7928460   0.0000000   0.4037610   0.0000000   0.0000000   0.4037610
 AtZNuc=   7.0000000   1.0000000   6.0000000   7.0000000   1.0000000   6.0000000   7.0000000   6.0000000   6.0000000   7.0000000
 Leave Link  101 at Fri Jan 19 19:47:18 2018, MaxMem=  4294967296 cpu:               7.8 elap:               0.3
 (Enter /share/apps/g16/l202.exe)
 Stoichiometry    C23H27N17O3
 Framework group  C1[X(C23H27N17O3)]
 Deg. of freedom   204
 Full point group                 C1      NOp   1
 Largest Abelian subgroup         C1      NOp   1
 Largest concise Abelian subgroup C1      NOp   1
                         Standard orientation:                         
 ---------------------------------------------------------------------
 Center     Atomic      Atomic             Coordinates (Angstroms)
 Number     Number       Type             X           Y           Z
 ---------------------------------------------------------------------
      1          7           0        6.570463   -0.957953   -0.488248
      2          6           0        7.864200   -0.247874   -0.483248
      3          6           0        4.431196   -1.437291   -0.664555
      4          7           0        5.063489   -2.615060   -0.293372
      5          6           0        6.327014   -2.279140   -0.202007
      6          1           0        7.131679   -2.961669    0.072962
      7          7           0        2.789724    0.144014   -1.271176
      8          6           0        3.784891    1.033379   -1.350305
      9          1           0        3.486171    2.041377   -1.634872
     10          7           0        5.087537    0.865321   -1.131728
     11          6           0        5.347163   -0.407169   -0.788546
     12          6           0        3.083529   -1.127926   -0.923449
     13          7           0        2.091505   -2.017151   -0.843925
     14          1           0        2.262835   -2.969761   -0.590153
     15          1           0        1.143733   -1.761591   -1.035189
     16          1           0        8.483208   -0.675438   -1.142184
     17          1           0        7.721042    0.709024   -0.734198
     18          1           0        8.268714   -0.294237    0.430112
     19          7           0        3.464984    1.577758    1.418230
     20          6           0        2.113221    1.660422    1.185890
     21          6           0        4.460140    2.601624    1.041341
     22          7           0       -0.621894    3.390790   -0.073761
     23          1           0       -1.609940    3.257212   -0.145588
     24          1           0       -0.250267    4.239832   -0.450246
     25          7           0        1.472163    2.682652    0.579158
     26          6           0        0.169984    2.473154    0.501396
     27          7           0       -0.458307    1.349239    0.980546
     28          1           0       -1.458652    1.273982    0.877529
     29          6           0        0.181331    0.284993    1.608309
     30          8           0       -0.479077   -0.683384    2.004355
     31          6           0        1.580710    0.495622    1.699195
     32          7           0        2.578084   -0.302248    2.242839
     33          6           0        3.675848    0.378467    2.053751
     34          1           0        4.670092    0.050851    2.359411
     35          1           0        5.129894    2.203415    0.415506
     36          1           0        3.996905    3.363791    0.591036
     37          1           0        4.926136    2.933481    1.860811
     38          1           0       -6.348457    1.215860   -0.514989
     39          1           0       -6.612297    1.743642    1.145270
     40          1           0       -5.139150    2.211827    0.295561
     41          1           0       -5.855802   -2.958671    1.825343
     42          6           0       -5.284904   -2.051353    1.627635
     43          8           0       -3.205469   -3.001609    2.260163
     44          6           0       -3.871570   -2.050563    1.851976
     45          1           0       -2.246853   -0.813492    1.716914
     46          7           0       -3.245741   -0.852871    1.570691
     47          8           0       -3.193307    1.313157    0.890456
     48          6           0       -3.832482    0.299539    1.111111
     49          1           0       -6.957525   -0.891405    0.993093
     50          6           0       -5.885673   -0.942726    1.179736
     51          6           0       -5.868721    1.426951    0.429125
     52          7           0       -5.197820    0.219817    0.919482
     53          1           0       -4.474156    2.724486   -3.076582
     54          1           0       -3.323573    3.002137   -1.953576
     55          1           0       -4.873795    2.776923   -1.495144
     56          1           0       -1.182622   -3.652750   -1.189209
     57          1           0       -2.833125   -3.554306   -1.609013
     58          7           0       -1.974137   -3.082058   -1.408166
     59          6           0       -1.889045   -1.750366   -1.431535
     60          6           0       -2.728169    0.457741   -1.717648
     61          7           0       -1.561600    1.064791   -1.443717
     62          1           0        0.363596    0.572996   -0.941356
     63          6           0       -0.618393    0.164096   -1.175382
     64          7           0       -0.701640   -1.170097   -1.151449
     65          1           0       -5.856041    0.216065   -2.498784
     66          6           0       -4.816326    0.027090   -2.230062
     67          7           0       -4.295495   -1.163289   -2.058543
     68          6           0       -2.971868   -0.904571   -1.733261
     69          6           0       -4.168411    2.505375   -2.150033
     70          7           0       -3.924304    1.054097   -2.039557
 ---------------------------------------------------------------------
 Rotational constants (GHZ):           0.1823339           0.0512348           0.0489368
 Leave Link  202 at Fri Jan 19 19:47:18 2018, MaxMem=  4294967296 cpu:               0.3 elap:               0.0
 (Enter /share/apps/g16/l301.exe)
 Standard basis: CC-pVDZ (5D, 7F)
 Ernie: Thresh=  0.10000D-02 Tol=  0.10000D-05 Strict=F.
 Ernie:  86 primitive shells out of 1081 were deleted.
 There are   780 symmetry adapted cartesian basis functions of A   symmetry.
 There are   737 symmetry adapted basis functions of A   symmetry.
   737 basis functions,  1608 primitive gaussians,   780 cartesian basis functions
   154 alpha electrons      154 beta electrons
       nuclear repulsion energy      5613.1234114581 Hartrees.
 IExCor= 4639 DFT=T Ex+Corr=wB97XD ExCW=0 ScaHFX=  1.000000
 ScaDFX=  1.000000  1.000000  1.000000  1.000000 ScalE2=  1.000000  1.000000
 IRadAn=      5 IRanWt=     -1 IRanGd=            0 ICorTp=0 IEmpDi=121
 HFx  wShort=  0.000000 wLong=  0.200000 cFull=  0.222036 cShort=  0.000000 cLong=  0.777964
 DFx  wShort=  0.000000 wLong=  0.200000 cFull=  0.000000 cShort=  0.000000 cLong=  1.000000
 NAtoms=   70 NActive=   70 NUniq=   70 SFac= 1.00D+00 NAtFMM=   60 NAOKFM=T Big=T
 Integral buffers will be    131072 words long.
 Raffenetti 2 integral format.
 Two-electron integral symmetry is turned on.
 R6Disp:  Grimme-D2 Dispersion energy=       -0.0796466163 Hartrees.
 Nuclear repulsion after empirical dispersion term =     5613.0437648418 Hartrees.
 Leave Link  301 at Fri Jan 19 19:47:18 2018, MaxMem=  4294967296 cpu:               2.2 elap:               0.1
 (Enter /share/apps/g16/l302.exe)
 NPDir=0 NMtPBC=     1 NCelOv=     1 NCel=       1 NClECP=     1 NCelD=      1
         NCelK=      1 NCelE2=     1 NClLst=     1 CellRange=     0.0.
 One-electron integrals computed using PRISM.
 One-electron integral symmetry used in STVInt
 NBasis=   737 RedAO= T EigKep=  6.76D-04  NBF=   737
 NBsUse=   737 1.00D-06 EigRej= -1.00D+00 NBFU=   737
 Precomputing XC quadrature grid using
 IXCGrd= 4 IRadAn=           5 IRanWt=          -1 IRanGd=           0 AccXCQ= 0.00D+00.
 Generated NRdTot=       0 NPtTot=           0 NUsed=           0 NTot=          32
 NSgBfM=   766   766   766   766   766 MxSgAt=    70 MxSgA2=    70.
 Leave Link  302 at Fri Jan 19 19:47:23 2018, MaxMem=  4294967296 cpu:             135.3 elap:               4.3
 (Enter /share/apps/g16/l303.exe)
 DipDrv:  MaxL=1.
 Leave Link  303 at Fri Jan 19 19:47:23 2018, MaxMem=  4294967296 cpu:              12.7 elap:               0.4
 (Enter /share/apps/g16/l401.exe)
 ExpMin= 1.22D-01 ExpMax= 1.17D+04 ExpMxC= 4.01D+02 IAcc=3 IRadAn=         5 AccDes= 0.00D+00
 Harris functional with IExCor= 4639 and IRadAn=       5 diagonalized for initial guess.
 HarFok:  IExCor= 4639 AccDes= 0.00D+00 IRadAn=         5 IDoV= 1 UseB2=F ITyADJ=14
 ICtDFT=  3500011 ScaDFX=  1.000000  1.000000  1.000000  1.000000
 FoFCou: FMM=F IPFlag=           0 FMFlag=      100000 FMFlg1=        2001
         NFxFlg=           0 DoJE=T BraDBF=F KetDBF=T FulRan=T
         wScrn=  0.000000 ICntrl=       500 IOpCl=  0 I1Cent=   200000004 NGrid=           0
         NMat0=    1 NMatS0=      1 NMatT0=    0 NMatD0=    1 NMtDS0=    0 NMtDT0=    0
 Petite list used in FoFCou.
 Harris En= -1963.84437969887    
 JPrj=0 DoOrth=F DoCkMO=F.
 Leave Link  401 at Fri Jan 19 19:47:36 2018, MaxMem=  4294967296 cpu:             412.6 elap:              12.9
 (Enter /share/apps/g16/l502.exe)
 Integral symmetry usage will be decided dynamically.
 Closed shell SCF:
 Using DIIS extrapolation, IDIIS=  1040.
 NGot=  4294967296 LenX=  4293717438 LenY=  4293108258
 Requested convergence on RMS density matrix=1.00D-08 within  20 cycles.
 Requested convergence on MAX density matrix=1.00D-06.
 Requested convergence on             energy=1.00D-06.
 No special actions if energy rises.
 Fock matrices will be formed incrementally for  20 cycles.
 Integral accuracy reduced to 1.0D-05 until final iterations.

 Cycle   1  Pass 0  IDiag  1:
 FoFJK:  IHMeth= 1 ICntrl=       0 DoSepK=T KAlg= 0 I1Cent=           0 FoldK=F
 IRaf=         1 NMat=       1 IRICut=       1 DoRegI=T DoRafI=F ISym2E= 0 IDoP0=0 IntGTp=1.
 FoFCou: FMM=T IPFlag=           0 FMFlag=      100000 FMFlg1=        2001
         NFxFlg=           0 DoJE=T BraDBF=F KetDBF=F FulRan=T
         wScrn=  0.000000 ICntrl=       500 IOpCl=  0 I1Cent=           0 NGrid=           0
         NMat0=    1 NMatS0=      1 NMatT0=    0 NMatD0=    1 NMtDS0=    0 NMtDT0=    0
 Symmetry not used in FoFCou.
 FMM levels:  10  Number of levels for PrismC:   9
 E= -2048.28546974878    
 DIIS: error= 2.59D-02 at cycle   1 NSaved=   1.
 NSaved= 1 IEnMin= 1 EnMin= -2048.28546974878     IErMin= 1 ErrMin= 2.59D-02
 ErrMax= 2.59D-02  0.00D+00 EMaxC= 1.00D-01 BMatC= 8.35D-01 BMatP= 8.35D-01
 IDIUse=3 WtCom= 7.41D-01 WtEn= 2.59D-01
 Coeff-Com:  0.100D+01
 Coeff-En:   0.100D+01
 Coeff:      0.100D+01
 Gap=     0.247 Goal=   None    Shift=    0.000
 GapD=    0.247 DampG=1.000 DampE=0.500 DampFc=0.5000 IDamp=-1.
 Damping current iteration by 5.00D-01
 RMSDP=1.61D-03 MaxDP=1.28D-01              OVMax= 2.08D-01

 Cycle   2  Pass 0  IDiag  1:
 RMSU=  8.06D-04    CP:  9.97D-01
 E= -2048.48199766595     Delta-E=       -0.196527917173 Rises=F Damp=T
 DIIS: error= 1.24D-02 at cycle   2 NSaved=   2.
 NSaved= 2 IEnMin= 2 EnMin= -2048.48199766595     IErMin= 2 ErrMin= 1.24D-02
 ErrMax= 1.24D-02  0.00D+00 EMaxC= 1.00D-01 BMatC= 1.46D-01 BMatP= 8.35D-01
 IDIUse=3 WtCom= 8.76D-01 WtEn= 1.24D-01
 Coeff-Com: -0.187D+00 0.119D+01
 Coeff-En:   0.000D+00 0.100D+01
 Coeff:     -0.164D+00 0.116D+01
 Gap=     0.357 Goal=   None    Shift=    0.000
 RMSDP=6.05D-04 MaxDP=3.45D-02 DE=-1.97D-01 OVMax= 1.66D-01

 Cycle   3  Pass 0  IDiag  1:
 RMSU=  5.97D-04    CP:  9.94D-01  1.11D+00
 E= -2048.66102842988     Delta-E=       -0.179030763928 Rises=F Damp=F
 DIIS: error= 5.57D-03 at cycle   3 NSaved=   3.
 NSaved= 3 IEnMin= 3 EnMin= -2048.66102842988     IErMin= 3 ErrMin= 5.57D-03
 ErrMax= 5.57D-03  0.00D+00 EMaxC= 1.00D-01 BMatC= 6.69D-02 BMatP= 1.46D-01
 IDIUse=3 WtCom= 9.44D-01 WtEn= 5.57D-02
 Coeff-Com: -0.232D+00 0.554D+00 0.678D+00
 Coeff-En:   0.000D+00 0.000D+00 0.100D+01
 Coeff:     -0.219D+00 0.523D+00 0.696D+00
 Gap=     0.275 Goal=   None    Shift=    0.000
 RMSDP=3.72D-04 MaxDP=3.23D-02 DE=-1.79D-01 OVMax= 6.28D-02

 Cycle   4  Pass 0  IDiag  1:
 RMSU=  2.09D-04    CP:  9.94D-01  1.40D+00  6.65D-01
 E= -2048.71246188955     Delta-E=       -0.051433459665 Rises=F Damp=F
 DIIS: error= 2.63D-03 at cycle   4 NSaved=   4.
 NSaved= 4 IEnMin= 4 EnMin= -2048.71246188955     IErMin= 4 ErrMin= 2.63D-03
 ErrMax= 2.63D-03  0.00D+00 EMaxC= 1.00D-01 BMatC= 8.87D-03 BMatP= 6.69D-02
 IDIUse=3 WtCom= 9.74D-01 WtEn= 2.63D-02
 Coeff-Com: -0.977D-01 0.189D+00 0.370D+00 0.539D+00
 Coeff-En:   0.000D+00 0.000D+00 0.502D-01 0.950D+00
 Coeff:     -0.952D-01 0.184D+00 0.362D+00 0.549D+00
 Gap=     0.280 Goal=   None    Shift=    0.000
 RMSDP=1.29D-04 MaxDP=1.16D-02 DE=-5.14D-02 OVMax= 1.38D-02

 Cycle   5  Pass 0  IDiag  1:
 RMSU=  6.25D-05    CP:  9.93D-01  1.38D+00  7.96D-01  6.23D-01
 E= -2048.71992289318     Delta-E=       -0.007461003634 Rises=F Damp=F
 DIIS: error= 4.76D-04 at cycle   5 NSaved=   5.
 NSaved= 5 IEnMin= 5 EnMin= -2048.71992289318     IErMin= 5 ErrMin= 4.76D-04
 ErrMax= 4.76D-04  0.00D+00 EMaxC= 1.00D-01 BMatC= 2.83D-04 BMatP= 8.87D-03
 IDIUse=3 WtCom= 9.95D-01 WtEn= 4.76D-03
 Coeff-Com: -0.249D-01 0.427D-01 0.115D+00 0.236D+00 0.631D+00
 Coeff-En:   0.000D+00 0.000D+00 0.000D+00 0.000D+00 0.100D+01
 Coeff:     -0.248D-01 0.425D-01 0.114D+00 0.235D+00 0.633D+00
 Gap=     0.280 Goal=   None    Shift=    0.000
 RMSDP=2.64D-05 MaxDP=1.91D-03 DE=-7.46D-03 OVMax= 3.25D-03

 Failed to achieve initial convergence to 1.0D-08 in  6 cycles.
 Switch to full accuracy anyway.
 Cycle   6  Pass 1  IDiag  1:
 E= -2048.72006144220     Delta-E=       -0.000138549021 Rises=F Damp=F
 DIIS: error= 2.21D-04 at cycle   1 NSaved=   1.
 NSaved= 1 IEnMin= 1 EnMin= -2048.72006144220     IErMin= 1 ErrMin= 2.21D-04
 ErrMax= 2.21D-04  0.00D+00 EMaxC= 1.00D-01 BMatC= 8.01D-05 BMatP= 8.01D-05
 IDIUse=3 WtCom= 9.98D-01 WtEn= 2.21D-03
 Coeff-Com:  0.100D+01
 Coeff-En:   0.100D+01
 Coeff:      0.100D+01
 Gap=     0.280 Goal=   None    Shift=    0.000
 RMSDP=2.64D-05 MaxDP=1.91D-03 DE=-1.39D-04 OVMax= 2.66D-03

 Cycle   7  Pass 1  IDiag  1:
 RMSU=  1.16D-04    CP:  1.00D+00
 E= -2048.72012015505     Delta-E=       -0.000058712853 Rises=F Damp=F
 DIIS: error= 2.09D-04 at cycle   2 NSaved=   2.
 NSaved= 2 IEnMin= 2 EnMin= -2048.72012015505     IErMin= 2 ErrMin= 2.09D-04
 ErrMax= 2.09D-04  0.00D+00 EMaxC= 1.00D-01 BMatC= 4.37D-05 BMatP= 8.01D-05
 IDIUse=3 WtCom= 9.98D-01 WtEn= 2.09D-03
 Coeff-Com:  0.398D+00 0.602D+00
 Coeff-En:   0.000D+00 0.100D+01
 Coeff:      0.397D+00 0.603D+00
 Gap=     0.280 Goal=   None    Shift=    0.000
 RMSDP=1.18D-05 MaxDP=1.13D-03 DE=-5.87D-05 OVMax= 1.60D-03

 Cycle   8  Pass 1  IDiag  1:
 RMSU=  1.15D-05    CP:  1.00D+00  1.02D+00
 E= -2048.72015140434     Delta-E=       -0.000031249285 Rises=F Damp=F
 DIIS: error= 1.21D-04 at cycle   3 NSaved=   3.
 NSaved= 3 IEnMin= 3 EnMin= -2048.72015140434     IErMin= 3 ErrMin= 1.21D-04
 ErrMax= 1.21D-04  0.00D+00 EMaxC= 1.00D-01 BMatC= 1.11D-05 BMatP= 4.37D-05
 IDIUse=3 WtCom= 9.99D-01 WtEn= 1.21D-03
 Coeff-Com: -0.201D-01 0.322D+00 0.698D+00
 Coeff-En:   0.000D+00 0.152D+00 0.848D+00
 Coeff:     -0.201D-01 0.322D+00 0.698D+00
 Gap=     0.280 Goal=   None    Shift=    0.000
 RMSDP=5.86D-06 MaxDP=4.80D-04 DE=-3.12D-05 OVMax= 5.43D-04

 Cycle   9  Pass 1  IDiag  1:
 RMSU=  3.91D-06    CP:  1.00D+00  1.05D+00  7.47D-01
 E= -2048.72016174913     Delta-E=       -0.000010344786 Rises=F Damp=F
 DIIS: error= 2.11D-05 at cycle   4 NSaved=   4.
 NSaved= 4 IEnMin= 4 EnMin= -2048.72016174913     IErMin= 4 ErrMin= 2.11D-05
 ErrMax= 2.11D-05  0.00D+00 EMaxC= 1.00D-01 BMatC= 5.09D-07 BMatP= 1.11D-05
 IDIUse=1 WtCom= 1.00D+00 WtEn= 0.00D+00
 Coeff-Com: -0.289D-01 0.895D-01 0.258D+00 0.682D+00
 Coeff:     -0.289D-01 0.895D-01 0.258D+00 0.682D+00
 Gap=     0.280 Goal=   None    Shift=    0.000
 RMSDP=1.45D-06 MaxDP=1.29D-04 DE=-1.03D-05 OVMax= 5.03D-04

 Cycle  10  Pass 1  IDiag  1:
 RMSU=  1.30D-06    CP:  1.00D+00  1.05D+00  7.81D-01  1.09D+00
 E= -2048.72016258843     Delta-E=       -0.000000839305 Rises=F Damp=F
 DIIS: error= 1.19D-05 at cycle   5 NSaved=   5.
 NSaved= 5 IEnMin= 5 EnMin= -2048.72016258843     IErMin= 5 ErrMin= 1.19D-05
 ErrMax= 1.19D-05  0.00D+00 EMaxC= 1.00D-01 BMatC= 1.24D-07 BMatP= 5.09D-07
 IDIUse=1 WtCom= 1.00D+00 WtEn= 0.00D+00
 Coeff-Com: -0.276D-02-0.576D-01-0.117D+00 0.211D+00 0.966D+00
 Coeff:     -0.276D-02-0.576D-01-0.117D+00 0.211D+00 0.966D+00
 Gap=     0.280 Goal=   None    Shift=    0.000
 RMSDP=1.22D-06 MaxDP=7.19D-05 DE=-8.39D-07 OVMax= 2.48D-04

 Cycle  11  Pass 1  IDiag  1:
 RMSU=  5.12D-07    CP:  1.00D+00  1.06D+00  7.91D-01  1.37D+00  1.16D+00
 E= -2048.72016285043     Delta-E=       -0.000000261998 Rises=F Damp=F
 DIIS: error= 4.59D-06 at cycle   6 NSaved=   6.
 NSaved= 6 IEnMin= 6 EnMin= -2048.72016285043     IErMin= 6 ErrMin= 4.59D-06
 ErrMax= 4.59D-06  0.00D+00 EMaxC= 1.00D-01 BMatC= 3.01D-08 BMatP= 1.24D-07
 IDIUse=1 WtCom= 1.00D+00 WtEn= 0.00D+00
 Coeff-Com:  0.458D-02-0.477D-01-0.114D+00 0.270D-04 0.522D+00 0.635D+00
 Coeff:      0.458D-02-0.477D-01-0.114D+00 0.270D-04 0.522D+00 0.635D+00
 Gap=     0.280 Goal=   None    Shift=    0.000
 RMSDP=3.78D-07 MaxDP=3.48D-05 DE=-2.62D-07 OVMax= 1.32D-04

 Cycle  12  Pass 1  IDiag  1:
 RMSU=  1.88D-07    CP:  1.00D+00  1.06D+00  7.93D-01  1.44D+00  1.30D+00
                    CP:  9.37D-01
 E= -2048.72016289395     Delta-E=       -0.000000043523 Rises=F Damp=F
 DIIS: error= 1.03D-06 at cycle   7 NSaved=   7.
 NSaved= 7 IEnMin= 7 EnMin= -2048.72016289395     IErMin= 7 ErrMin= 1.03D-06
 ErrMax= 1.03D-06  0.00D+00 EMaxC= 1.00D-01 BMatC= 8.06D-10 BMatP= 3.01D-08
 IDIUse=1 WtCom= 1.00D+00 WtEn= 0.00D+00
 Coeff-Com:  0.110D-02-0.812D-02-0.207D-01-0.838D-02 0.614D-01 0.140D+00
 Coeff-Com:  0.835D+00
 Coeff:      0.110D-02-0.812D-02-0.207D-01-0.838D-02 0.614D-01 0.140D+00
 Coeff:      0.835D+00
 Gap=     0.280 Goal=   None    Shift=    0.000
 RMSDP=8.61D-08 MaxDP=4.79D-06 DE=-4.35D-08 OVMax= 2.32D-05

 Cycle  13  Pass 1  IDiag  1:
 RMSU=  5.07D-08    CP:  1.00D+00  1.06D+00  7.92D-01  1.45D+00  1.32D+00
                    CP:  1.02D+00  1.14D+00
 E= -2048.72016289558     Delta-E=       -0.000000001623 Rises=F Damp=F
 DIIS: error= 5.41D-07 at cycle   8 NSaved=   8.
 NSaved= 8 IEnMin= 8 EnMin= -2048.72016289558     IErMin= 8 ErrMin= 5.41D-07
 ErrMax= 5.41D-07  0.00D+00 EMaxC= 1.00D-01 BMatC= 3.33D-10 BMatP= 8.06D-10
 IDIUse=1 WtCom= 1.00D+00 WtEn= 0.00D+00
 Coeff-Com: -0.707D-03 0.914D-02 0.209D-01-0.240D-02-0.112D+00-0.999D-01
 Coeff-Com:  0.424D+00 0.761D+00
 Coeff:     -0.707D-03 0.914D-02 0.209D-01-0.240D-02-0.112D+00-0.999D-01
 Coeff:      0.424D+00 0.761D+00
 Gap=     0.280 Goal=   None    Shift=    0.000
 RMSDP=4.65D-08 MaxDP=2.96D-06 DE=-1.62D-09 OVMax= 1.09D-05

 Cycle  14  Pass 1  IDiag  1:
 RMSU=  2.78D-08    CP:  1.00D+00  1.06D+00  7.92D-01  1.45D+00  1.32D+00
                    CP:  1.07D+00  1.28D+00  1.09D+00
 E= -2048.72016289613     Delta-E=       -0.000000000551 Rises=F Damp=F
 DIIS: error= 1.72D-07 at cycle   9 NSaved=   9.
 NSaved= 9 IEnMin= 9 EnMin= -2048.72016289613     IErMin= 9 ErrMin= 1.72D-07
 ErrMax= 1.72D-07  0.00D+00 EMaxC= 1.00D-01 BMatC= 2.63D-11 BMatP= 3.33D-10
 IDIUse=1 WtCom= 1.00D+00 WtEn= 0.00D+00
 Coeff-Com: -0.389D-03 0.439D-02 0.103D-01 0.815D-04-0.491D-01-0.538D-01
 Coeff-Com:  0.727D-01 0.274D+00 0.742D+00
 Coeff:     -0.389D-03 0.439D-02 0.103D-01 0.815D-04-0.491D-01-0.538D-01
 Coeff:      0.727D-01 0.274D+00 0.742D+00
 Gap=     0.280 Goal=   None    Shift=    0.000
 RMSDP=1.35D-08 MaxDP=8.56D-07 DE=-5.51D-10 OVMax= 3.42D-06

 Cycle  15  Pass 1  IDiag  1:
 RMSU=  8.96D-09    CP:  1.00D+00  1.06D+00  7.92D-01  1.45D+00  1.32D+00
                    CP:  1.07D+00  1.31D+00  1.22D+00  1.14D+00
 E= -2048.72016289643     Delta-E=       -0.000000000301 Rises=F Damp=F
 DIIS: error= 7.80D-08 at cycle  10 NSaved=  10.
 NSaved=10 IEnMin=10 EnMin= -2048.72016289643     IErMin=10 ErrMin= 7.80D-08
 ErrMax= 7.80D-08  0.00D+00 EMaxC= 1.00D-01 BMatC= 4.74D-12 BMatP= 2.63D-11
 IDIUse=1 WtCom= 1.00D+00 WtEn= 0.00D+00
 Coeff-Com:  0.177D-04-0.448D-03-0.945D-03 0.234D-03 0.681D-02 0.273D-02
 Coeff-Com: -0.567D-01-0.677D-01 0.266D+00 0.850D+00
 Coeff:      0.177D-04-0.448D-03-0.945D-03 0.234D-03 0.681D-02 0.273D-02
 Coeff:     -0.567D-01-0.677D-01 0.266D+00 0.850D+00
 Gap=     0.280 Goal=   None    Shift=    0.000
 RMSDP=6.63D-09 MaxDP=3.85D-07 DE=-3.01D-10 OVMax= 1.34D-06

 SCF Done:  E(RwB97XD) =  -2048.72016290     A.U. after   15 cycles
            NFock= 15  Conv=0.66D-08     -V/T= 2.0053
 KE= 2.037999849714D+03 PE=-1.600676166995D+04 EE= 6.306997892493D+03
 Leave Link  502 at Fri Jan 19 19:59:57 2018, MaxMem=  4294967296 cpu:           22975.6 elap:             740.6
 (Enter /share/apps/g16/l601.exe)
 Copying SCF densities to generalized density rwf, IOpCl= 0 IROHF=0.

 **********************************************************************

            Population analysis using the SCF density.

 **********************************************************************

 Orbital symmetries:
       Occupied  (A) (A) (A) (A) (A) (A) (A) (A) (A) (A) (A) (A)
                 (A) (A) (A) (A) (A) (A) (A) (A) (A) (A) (A) (A)
                 (A) (A) (A) (A) (A) (A) (A) (A) (A) (A) (A) (A)
                 (A) (A) (A) (A) (A) (A) (A) (A) (A) (A) (A) (A)
                 (A) (A) (A) (A) (A) (A) (A) (A) (A) (A) (A) (A)
                 (A) (A) (A) (A) (A) (A) (A) (A) (A) (A) (A) (A)
                 (A) (A) (A) (A) (A) (A) (A) (A) (A) (A) (A) (A)
                 (A) (A) (A) (A) (A) (A) (A) (A) (A) (A) (A) (A)
                 (A) (A) (A) (A) (A) (A) (A) (A) (A) (A) (A) (A)
                 (A) (A) (A) (A) (A) (A) (A) (A) (A) (A) (A) (A)
                 (A) (A) (A) (A) (A) (A) (A) (A) (A) (A) (A) (A)
                 (A) (A) (A) (A) (A) (A) (A) (A) (A) (A) (A) (A)
                 (A) (A) (A) (A) (A) (A) (A) (A) (A) (A)
       Virtual   (A) (A) (A) (A) (A) (A) (A) (A) (A) (A) (A) (A)
                 (A) (A) (A) (A) (A) (A) (A) (A) (A) (A) (A) (A)
                 (A) (A) (A) (A) (A) (A) (A) (A) (A) (A) (A) (A)
                 (A) (A) (A) (A) (A) (A) (A) (A) (A) (A) (A) (A)
                 (A) (A) (A) (A) (A) (A) (A) (A) (A) (A) (A) (A)
                 (A) (A) (A) (A) (A) (A) (A) (A) (A) (A) (A) (A)
                 (A) (A) (A) (A) (A) (A) (A) (A) (A) (A) (A) (A)
                 (A) (A) (A) (A) (A) (A) (A) (A) (A) (A) (A) (A)
                 (A) (A) (A) (A) (A) (A) (A) (A) (A) (A) (A) (A)
                 (A) (A) (A) (A) (A) (A) (A) (A) (A) (A) (A) (A)
                 (A) (A) (A) (A) (A) (A) (A) (A) (A) (A) (A) (A)
                 (A) (A) (A) (A) (A) (A) (A) (A) (A) (A) (A) (A)
                 (A) (A) (A) (A) (A) (A) (A) (A) (A) (A) (A) (A)
                 (A) (A) (A) (A) (A) (A) (A) (A) (A) (A) (A) (A)
                 (A) (A) (A) (A) (A) (A) (A) (A) (A) (A) (A) (A)
                 (A) (A) (A) (A) (A) (A) (A) (A) (A) (A) (A) (A)
                 (A) (A) (A) (A) (A) (A) (A) (A) (A) (A) (A) (A)
                 (A) (A) (A) (A) (A) (A) (A) (A) (A) (A) (A) (A)
                 (A) (A) (A) (A) (A) (A) (A) (A) (A) (A) (A) (A)
                 (A) (A) (A) (A) (A) (A) (A) (A) (A) (A) (A) (A)
                 (A) (A) (A) (A) (A) (A) (A) (A) (A) (A) (A) (A)
                 (A) (A) (A) (A) (A) (A) (A) (A) (A) (A) (A) (A)
                 (A) (A) (A) (A) (A) (A) (A) (A) (A) (A) (A) (A)
                 (A) (A) (A) (A) (A) (A) (A) (A) (A) (A) (A) (A)
                 (A) (A) (A) (A) (A) (A) (A) (A) (A) (A) (A) (A)
                 (A) (A) (A) (A) (A) (A) (A) (A) (A) (A) (A) (A)
                 (A) (A) (A) (A) (A) (A) (A) (A) (A) (A) (A) (A)
                 (A) (A) (A) (A) (A) (A) (A) (A) (A) (A) (A) (A)
                 (A) (A) (A) (A) (A) (A) (A) (A) (A) (A) (A) (A)
                 (A) (A) (A) (A) (A) (A) (A) (A) (A) (A) (A) (A)
                 (A) (A) (A) (A) (A) (A) (A) (A) (A) (A) (A) (A)
                 (A) (A) (A) (A) (A) (A) (A) (A) (A) (A) (A) (A)
                 (A) (A) (A) (A) (A) (A) (A) (A) (A) (A) (A) (A)
                 (A) (A) (A) (A) (A) (A) (A) (A) (A) (A) (A) (A)
                 (A) (A) (A) (A) (A) (A) (A) (A) (A) (A) (A) (A)
                 (A) (A) (A) (A) (A) (A) (A) (A) (A) (A) (A) (A)
                 (A) (A) (A) (A) (A) (A) (A) (A) (A) (A) (A) (A)
                 (A) (A) (A) (A) (A) (A) (A) (A) (A) (A) (A) (A)
                 (A) (A) (A) (A) (A) (A) (A) (A) (A) (A) (A) (A)
                 (A) (A) (A) (A) (A) (A) (A) (A) (A) (A) (A) (A)
                 (A) (A) (A) (A) (A) (A) (A) (A) (A) (A) (A) (A)
                 (A) (A) (A) (A) (A) (A) (A) (A) (A) (A) (A) (A)
                 (A) (A) (A) (A) (A) (A) (A) (A) (A) (A) (A) (A)
                 (A) (A) (A) (A) (A) (A) (A) (A) (A) (A) (A) (A)
                 (A) (A) (A) (A) (A) (A) (A) (A) (A) (A) (A) (A)
                 (A) (A) (A) (A) (A) (A) (A) (A) (A) (A) (A) (A)
                 (A) (A) (A) (A) (A) (A) (A) (A) (A) (A) (A) (A)
                 (A) (A) (A) (A) (A) (A) (A) (A) (A) (A) (A) (A)
                 (A) (A) (A) (A) (A) (A) (A)
 The electronic state is 1-A.
 Alpha  occ. eigenvalues --  -19.25857 -19.21879 -19.20460 -14.52552 -14.51821
 Alpha  occ. eigenvalues --  -14.49918 -14.48154 -14.47829 -14.47285 -14.46272
 Alpha  occ. eigenvalues --  -14.45958 -14.44750 -14.43473 -14.43191 -14.43173
 Alpha  occ. eigenvalues --  -14.42482 -14.42069 -14.41752 -14.41163 -14.40481
 Alpha  occ. eigenvalues --  -10.45504 -10.40688 -10.39988 -10.39137 -10.37892
 Alpha  occ. eigenvalues --  -10.37648 -10.37379 -10.36471 -10.36465 -10.35931
 Alpha  occ. eigenvalues --  -10.35176 -10.35127 -10.34503 -10.34111 -10.33904
 Alpha  occ. eigenvalues --  -10.33900 -10.33000 -10.32032 -10.31745 -10.30943
 Alpha  occ. eigenvalues --  -10.29648 -10.28956 -10.27718  -1.19585  -1.14545
 Alpha  occ. eigenvalues --   -1.13019  -1.12917  -1.12495  -1.10245  -1.09415
 Alpha  occ. eigenvalues --   -1.08512  -1.08185  -1.06114  -1.04026  -1.02503
 Alpha  occ. eigenvalues --   -1.01622  -1.00359  -0.99262  -0.98258  -0.98048
 Alpha  occ. eigenvalues --   -0.96127  -0.95959  -0.93799  -0.91017  -0.87148
 Alpha  occ. eigenvalues --   -0.85610  -0.85102  -0.84097  -0.83568  -0.83388
 Alpha  occ. eigenvalues --   -0.81537  -0.78870  -0.76440  -0.74293  -0.74250
 Alpha  occ. eigenvalues --   -0.73937  -0.73417  -0.73243  -0.72206  -0.69850
 Alpha  occ. eigenvalues --   -0.67419  -0.67005  -0.66524  -0.66188  -0.64559
 Alpha  occ. eigenvalues --   -0.63937  -0.63628  -0.63324  -0.62571  -0.61423
 Alpha  occ. eigenvalues --   -0.61344  -0.61196  -0.60190  -0.59535  -0.59102
 Alpha  occ. eigenvalues --   -0.58078  -0.57960  -0.57786  -0.57569  -0.56640
 Alpha  occ. eigenvalues --   -0.56320  -0.55941  -0.55195  -0.54937  -0.54516
 Alpha  occ. eigenvalues --   -0.54204  -0.53310  -0.53180  -0.52945  -0.52410
 Alpha  occ. eigenvalues --   -0.52371  -0.52090  -0.51956  -0.51514  -0.50987
 Alpha  occ. eigenvalues --   -0.50109  -0.49738  -0.49413  -0.48983  -0.48691
 Alpha  occ. eigenvalues --   -0.48415  -0.48169  -0.48014  -0.47835  -0.47301
 Alpha  occ. eigenvalues --   -0.47144  -0.45653  -0.45435  -0.44244  -0.43276
 Alpha  occ. eigenvalues --   -0.41874  -0.40397  -0.39527  -0.38366  -0.37353
 Alpha  occ. eigenvalues --   -0.37238  -0.36966  -0.36720  -0.35479  -0.34797
 Alpha  occ. eigenvalues --   -0.34523  -0.34072  -0.33727  -0.33216  -0.33050
 Alpha  occ. eigenvalues --   -0.32467  -0.32085  -0.31809  -0.31668  -0.31574
 Alpha  occ. eigenvalues --   -0.31359  -0.28736  -0.26829  -0.24941
 Alpha virt. eigenvalues --    0.03106   0.04658   0.06773   0.07935   0.08228
 Alpha virt. eigenvalues --    0.09189   0.09713   0.10147   0.11136   0.11934
 Alpha virt. eigenvalues --    0.13020   0.13096   0.14359   0.14686   0.14883
 Alpha virt. eigenvalues --    0.15263   0.16005   0.17442   0.18185   0.18329
 Alpha virt. eigenvalues --    0.18829   0.19181   0.19319   0.19676   0.20035
 Alpha virt. eigenvalues --    0.20705   0.21198   0.21255   0.21493   0.22029
 Alpha virt. eigenvalues --    0.23004   0.23177   0.23624   0.23792   0.24313
 Alpha virt. eigenvalues --    0.24543   0.25339   0.25596   0.25812   0.26139
 Alpha virt. eigenvalues --    0.26692   0.27322   0.27795   0.28386   0.28665
 Alpha virt. eigenvalues --    0.29107   0.29506   0.30169   0.30484   0.30929
 Alpha virt. eigenvalues --    0.31682   0.32264   0.32618   0.33314   0.33839
 Alpha virt. eigenvalues --    0.34058   0.35206   0.35661   0.36202   0.36684
 Alpha virt. eigenvalues --    0.37080   0.37929   0.38297   0.39225   0.39826
 Alpha virt. eigenvalues --    0.40199   0.40591   0.40984   0.41434   0.41660
 Alpha virt. eigenvalues --    0.42097   0.42855   0.43027   0.43859   0.44658
 Alpha virt. eigenvalues --    0.45218   0.45551   0.46154   0.46243   0.47420
 Alpha virt. eigenvalues --    0.47909   0.48242   0.49346   0.49419   0.49605
 Alpha virt. eigenvalues --    0.50018   0.50651   0.51031   0.51335   0.51658
 Alpha virt. eigenvalues --    0.52107   0.52817   0.53203   0.53406   0.53723
 Alpha virt. eigenvalues --    0.54275   0.54396   0.54854   0.55547   0.56232
 Alpha virt. eigenvalues --    0.56364   0.56624   0.56896   0.57110   0.57770
 Alpha virt. eigenvalues --    0.57872   0.58501   0.59131   0.59542   0.60086
 Alpha virt. eigenvalues --    0.60166   0.61023   0.61402   0.61708   0.61922
 Alpha virt. eigenvalues --    0.62367   0.62910   0.63313   0.63668   0.64137
 Alpha virt. eigenvalues --    0.64430   0.64566   0.65161   0.65468   0.65636
 Alpha virt. eigenvalues --    0.65980   0.66301   0.66580   0.67161   0.67671
 Alpha virt. eigenvalues --    0.68460   0.68724   0.69180   0.69690   0.70065
 Alpha virt. eigenvalues --    0.70667   0.71245   0.72229   0.72530   0.72813
 Alpha virt. eigenvalues --    0.73205   0.73618   0.73676   0.74092   0.74134
 Alpha virt. eigenvalues --    0.74450   0.74912   0.75402   0.75961   0.76195
 Alpha virt. eigenvalues --    0.76299   0.76827   0.77041   0.77461   0.77765
 Alpha virt. eigenvalues --    0.78500   0.78655   0.78987   0.79119   0.79508
 Alpha virt. eigenvalues --    0.79771   0.80311   0.80717   0.81410   0.81728
 Alpha virt. eigenvalues --    0.81877   0.82362   0.82462   0.82808   0.83104
 Alpha virt. eigenvalues --    0.83459   0.83784   0.84508   0.84906   0.85615
 Alpha virt. eigenvalues --    0.85690   0.86306   0.86892   0.87666   0.87994
 Alpha virt. eigenvalues --    0.88505   0.88984   0.89388   0.89899   0.90020
 Alpha virt. eigenvalues --    0.90990   0.91280   0.91657   0.92101   0.92793
 Alpha virt. eigenvalues --    0.93284   0.93708   0.94134   0.94876   0.95070
 Alpha virt. eigenvalues --    0.95464   0.95863   0.96382   0.97243   0.97352
 Alpha virt. eigenvalues --    0.98306   0.98517   0.99011   0.99453   1.00115
 Alpha virt. eigenvalues --    1.00303   1.00890   1.01456   1.01800   1.02055
 Alpha virt. eigenvalues --    1.02753   1.02971   1.03332   1.04250   1.04806
 Alpha virt. eigenvalues --    1.05315   1.05633   1.05884   1.06713   1.07062
 Alpha virt. eigenvalues --    1.07462   1.08346   1.08742   1.08914   1.09224
 Alpha virt. eigenvalues --    1.09686   1.10346   1.10726   1.11163   1.12370
 Alpha virt. eigenvalues --    1.13043   1.13400   1.13528   1.13820   1.14472
 Alpha virt. eigenvalues --    1.15181   1.15389   1.15488   1.16244   1.16938
 Alpha virt. eigenvalues --    1.17221   1.18076   1.18445   1.18777   1.19107
 Alpha virt. eigenvalues --    1.19254   1.19688   1.19751   1.20489   1.20518
 Alpha virt. eigenvalues --    1.20899   1.21046   1.21640   1.22678   1.23074
 Alpha virt. eigenvalues --    1.23325   1.23727   1.23943   1.24212   1.24555
 Alpha virt. eigenvalues --    1.24733   1.25565   1.26460   1.26700   1.27363
 Alpha virt. eigenvalues --    1.27573   1.28376   1.28928   1.29405   1.30047
 Alpha virt. eigenvalues --    1.30859   1.31182   1.31786   1.32268   1.33478
 Alpha virt. eigenvalues --    1.33751   1.34752   1.35243   1.35334   1.35811
 Alpha virt. eigenvalues --    1.36657   1.36897   1.37939   1.38734   1.39504
 Alpha virt. eigenvalues --    1.39635   1.40574   1.41013   1.41670   1.42498
 Alpha virt. eigenvalues --    1.43190   1.43789   1.45096   1.45258   1.45925
 Alpha virt. eigenvalues --    1.47127   1.47838   1.48235   1.48358   1.48858
 Alpha virt. eigenvalues --    1.49660   1.50303   1.51325   1.51646   1.52445
 Alpha virt. eigenvalues --    1.53821   1.54308   1.55028   1.55362   1.56009
 Alpha virt. eigenvalues --    1.56324   1.57389   1.57773   1.58618   1.59134
 Alpha virt. eigenvalues --    1.59940   1.60471   1.61104   1.62078   1.62919
 Alpha virt. eigenvalues --    1.63301   1.63497   1.63783   1.64945   1.65514
 Alpha virt. eigenvalues --    1.66237   1.66512   1.66613   1.67160   1.67704
 Alpha virt. eigenvalues --    1.68384   1.69189   1.69349   1.69577   1.69879
 Alpha virt. eigenvalues --    1.70596   1.70908   1.71298   1.71654   1.71866
 Alpha virt. eigenvalues --    1.72622   1.72833   1.73841   1.74027   1.74180
 Alpha virt. eigenvalues --    1.75051   1.75141   1.75573   1.75599   1.76336
 Alpha virt. eigenvalues --    1.76589   1.77093   1.77470   1.78147   1.78453
 Alpha virt. eigenvalues --    1.78625   1.78844   1.79144   1.79346   1.79586
 Alpha virt. eigenvalues --    1.80078   1.80228   1.80692   1.80935   1.81331
 Alpha virt. eigenvalues --    1.82299   1.82633   1.82715   1.83668   1.84050
 Alpha virt. eigenvalues --    1.84730   1.84893   1.85744   1.85905   1.86471
 Alpha virt. eigenvalues --    1.87105   1.87477   1.88002   1.88392   1.88517
 Alpha virt. eigenvalues --    1.89264   1.89671   1.89841   1.90730   1.91496
 Alpha virt. eigenvalues --    1.91580   1.92054   1.92136   1.92734   1.92940
 Alpha virt. eigenvalues --    1.93875   1.94019   1.94355   1.95433   1.95621
 Alpha virt. eigenvalues --    1.96258   1.96766   1.97417   1.97482   1.99516
 Alpha virt. eigenvalues --    1.99916   2.00384   2.01607   2.02230   2.02580
 Alpha virt. eigenvalues --    2.02907   2.03400   2.04155   2.04494   2.05048
 Alpha virt. eigenvalues --    2.06041   2.07101   2.07599   2.08322   2.08564
 Alpha virt. eigenvalues --    2.08772   2.09662   2.10018   2.10491   2.11308
 Alpha virt. eigenvalues --    2.12864   2.13370   2.13700   2.14064   2.14428
 Alpha virt. eigenvalues --    2.15263   2.15529   2.16537   2.19093   2.19487
 Alpha virt. eigenvalues --    2.19968   2.20312   2.20718   2.21781   2.22314
 Alpha virt. eigenvalues --    2.22793   2.22936   2.23771   2.24087   2.24679
 Alpha virt. eigenvalues --    2.25327   2.26609   2.27006   2.27413   2.28232
 Alpha virt. eigenvalues --    2.28559   2.28869   2.29338   2.30896   2.31296
 Alpha virt. eigenvalues --    2.31388   2.31809   2.32744   2.32980   2.33367
 Alpha virt. eigenvalues --    2.34219   2.34472   2.35240   2.35510   2.36279
 Alpha virt. eigenvalues --    2.36578   2.37333   2.37687   2.38754   2.39163
 Alpha virt. eigenvalues --    2.39261   2.39960   2.40781   2.40882   2.41121
 Alpha virt. eigenvalues --    2.42137   2.42528   2.43645   2.43701   2.44128
 Alpha virt. eigenvalues --    2.45637   2.45908   2.46611   2.47238   2.47829
 Alpha virt. eigenvalues --    2.48447   2.49006   2.50262   2.51037   2.52577
 Alpha virt. eigenvalues --    2.52884   2.55341   2.55990   2.56171   2.57258
 Alpha virt. eigenvalues --    2.57555   2.58616   2.59035   2.60220   2.61373
 Alpha virt. eigenvalues --    2.61910   2.63021   2.63335   2.63849   2.65052
 Alpha virt. eigenvalues --    2.65265   2.65467   2.66455   2.66884   2.67589
 Alpha virt. eigenvalues --    2.67841   2.68318   2.69056   2.69543   2.70562
 Alpha virt. eigenvalues --    2.71008   2.72225   2.72312   2.73179   2.74304
 Alpha virt. eigenvalues --    2.74604   2.75025   2.75269   2.75645   2.78064
 Alpha virt. eigenvalues --    2.78442   2.79091   2.79531   2.80061   2.80690
 Alpha virt. eigenvalues --    2.81135   2.81662   2.81896   2.82124   2.82633
 Alpha virt. eigenvalues --    2.83423   2.83909   2.84118   2.84994   2.85480
 Alpha virt. eigenvalues --    2.86152   2.86601   2.87090   2.87819   2.88716
 Alpha virt. eigenvalues --    2.89755   2.89964   2.90666   2.94141   2.95069
 Alpha virt. eigenvalues --    2.95414   2.97703   2.98272   2.99099   2.99764
 Alpha virt. eigenvalues --    3.00682   3.02466   3.03352   3.05706   3.07186
 Alpha virt. eigenvalues --    3.07621   3.10194   3.10994   3.14349   3.14815
 Alpha virt. eigenvalues --    3.15522   3.16668   3.16835   3.18690   3.21553
 Alpha virt. eigenvalues --    3.22704   3.23378   3.23613   3.24214   3.27886
 Alpha virt. eigenvalues --    3.45501   3.47506   3.48839   3.49556   3.50574
 Alpha virt. eigenvalues --    3.53092   3.54553   3.56724   3.58498   3.60476
 Alpha virt. eigenvalues --    3.63765   3.70893   3.75346
          Condensed to atoms (all electrons):
 Mulliken charges:
               1
     1  N   -0.311858
     2  C    0.178715
     3  C    0.061085
     4  N   -0.254736
     5  C    0.131084
     6  H    0.029733
     7  N   -0.267492
     8  C    0.131082
     9  H    0.019470
    10  N   -0.295823
    11  C    0.234060
    12  C    0.096545
    13  N   -0.044517
    14  H    0.108329
    15  H    0.088471
    16  H    0.029397
    17  H    0.036264
    18  H    0.026371
    19  N   -0.287478
    20  C    0.234663
    21  C    0.179872
    22  N   -0.086725
    23  H    0.112241
    24  H    0.110883
    25  N   -0.289202
    26  C    0.196558
    27  N   -0.134013
    28  H    0.131142
    29  C    0.143830
    30  O   -0.323595
    31  C    0.018627
    32  N   -0.222394
    33  C    0.116189
    34  H    0.021149
    35  H    0.019855
    36  H    0.022110
    37  H    0.014310
    38  H    0.036298
    39  H    0.064981
    40  H    0.081171
    41  H    0.030316
    42  C   -0.100875
    43  O   -0.266467
    44  C    0.179842
    45  H    0.133043
    46  N   -0.125996
    47  O   -0.340312
    48  C    0.339800
    49  H    0.044891
    50  C    0.174743
    51  C    0.035863
    52  N   -0.278433
    53  H    0.033089
    54  H    0.029987
    55  H    0.004360
    56  H    0.120548
    57  H    0.120348
    58  N   -0.063330
    59  C    0.124841
    60  C    0.225705
    61  N   -0.292869
    62  H    0.031038
    63  C    0.180556
    64  N   -0.307378
    65  H    0.037843
    66  C    0.105029
    67  N   -0.244656
    68  C    0.014501
    69  C    0.187666
    70  N   -0.290347
 Sum of Mulliken charges =  -0.00000
 Mulliken charges with hydrogens summed into heavy atoms:
               1
     1  N   -0.311858
     2  C    0.270747
     3  C    0.061085
     4  N   -0.254736
     5  C    0.160817
     7  N   -0.267492
     8  C    0.150553
    10  N   -0.295823
    11  C    0.234060
    12  C    0.096545
    13  N    0.152283
    19  N   -0.287478
    20  C    0.234663
    21  C    0.236147
    22  N    0.136400
    25  N   -0.289202
    26  C    0.196558
    27  N   -0.002871
    29  C    0.143830
    30  O   -0.323595
    31  C    0.018627
    32  N   -0.222394
    33  C    0.137338
    42  C   -0.070559
    43  O   -0.266467
    44  C    0.179842
    46  N    0.007048
    47  O   -0.340312
    48  C    0.339800
    50  C    0.219633
    51  C    0.218313
    52  N   -0.278433
    58  N    0.177566
    59  C    0.124841
    60  C    0.225705
    61  N   -0.292869
    63  C    0.211594
    64  N   -0.307378
    66  C    0.142872
    67  N   -0.244656
    68  C    0.014501
    69  C    0.255102
    70  N   -0.290347
 Electronic spatial extent (au):  <R**2>=          22496.7837
 Charge=             -0.0000 electrons
 Dipole moment (field-independent basis, Debye):
    X=             -5.0791    Y=              5.6975    Z=             -4.6080  Tot=              8.9159
 Quadrupole moment (field-independent basis, Debye-Ang):
   XX=           -142.1340   YY=           -228.0221   ZZ=           -260.0291
   XY=            -15.4808   XZ=             11.8933   YZ=              8.5490
 Traceless Quadrupole moment (field-independent basis, Debye-Ang):
   XX=             67.9277   YY=            -17.9604   ZZ=            -49.9674
   XY=            -15.4808   XZ=             11.8933   YZ=              8.5490
 Octapole moment (field-independent basis, Debye-Ang**2):
  XXX=             51.4467  YYY=             40.2339  ZZZ=            -23.9684  XYY=            -48.5873
  XXY=             66.7301  XXZ=             29.8500  XZZ=            -21.0576  YZZ=             45.0281
  YYZ=            -66.3338  XYZ=             24.3079
 Hexadecapole moment (field-independent basis, Debye-Ang**3):
 XXXX=         -16017.6825 YYYY=          -3834.2989 ZZZZ=          -3199.2902 XXXY=           -573.1482
 XXXZ=             97.1498 YYYX=            -36.0949 YYYZ=             61.8640 ZZZX=             60.0068
 ZZZY=             12.4432 XXYY=          -4246.5482 XXZZ=          -4206.6459 YYZZ=          -1270.7069
 XXYZ=            -69.5506 YYXZ=            159.2593 ZZXY=           -102.8099
 N-N= 5.613043764842D+03 E-N=-1.600676166420D+04  KE= 2.037999849714D+03
 No NMR shielding tensors so no spin-rotation constants.
 Leave Link  601 at Fri Jan 19 19:59:58 2018, MaxMem=  4294967296 cpu:              46.5 elap:               1.6
 (Enter /share/apps/g16/l9999.exe)
 1\1\GINC-COMPUTE-0-3\SP\RwB97XD\CC-pVDZ\C23H27N17O3\SATYA\19-Jan-2018\
 0\\#p wb97xd/cc-pvdz sp scf=(maxcycles=20)\\Base pair stacking\\0,1\N,
 0,1.96009,8.28924,-6.73653\C,0,1.96813,9.75585,-6.57227\C,0,1.36369,6.
 17226,-6.73238\N,0,2.64725,6.21281,-7.2573\C,0,2.95519,7.48659,-7.2387
 9\H,0,3.90361,7.90022,-7.58281\N,0,-0.72963,5.41229,-5.95559\C,0,-1.01
 142,6.69262,-5.69303\H,0,-1.99679,6.87373,-5.26581\N,0,-0.26228,7.7777
 2,-5.87811\C,0,0.9268,7.44451,-6.40676\C,0,0.47495,5.10975,-6.48712\N,
 0,0.75809,3.83228,-6.74991\H,0,1.63751,3.56233,-7.14357\H,0,0.10118,3.
 1019,-6.56235\H,0,2.09673,10.19171,-7.46315\H,0,1.09827,10.05278,-6.17
 946\H,0,2.71506,10.02096,-5.9625\N,0,0.18713,6.39053,-3.13653\C,0,-0.5
 3026,5.22627,-3.00263\C,0,-0.37014,7.75381,-3.02883\N,0,-3.54587,3.599
 93,-2.43442\H,0,-3.87611,2.65841,-2.37344\H,0,-4.22096,4.3268,-2.30545
 \N,0,-1.85411,5.13284,-2.75218\C,0,-2.25587,3.87637,-2.67817\N,0,-1.42
 624,2.79285,-2.83697\H,0,-1.82061,1.8676,-2.76382\C,0,-0.06101,2.86541
 ,-3.09528\O,0,0.5979,1.82589,-3.2217\C,0,0.38525,4.2089,-3.17758\N,0,1
 .6519,4.72408,-3.41651\C,0,1.48617,6.01854,-3.38304\H,0,2.2808,6.75037
 ,-3.53227\H,0,-0.22209,8.24494,-3.88655\H,0,-1.35028,7.69726,-2.84339\
 H,0,0.08145,8.24234,-2.28303\H,0,-4.50733,-2.44622,-2.92247\H,0,-3.955
 26,-2.60733,-1.25697\H,0,-4.23533,-1.00587,-1.94126\H,0,0.00055,-3.970
 05,-3.63207\C,0,-0.52887,-3.0545,-3.36802\O,0,1.31208,-1.63522,-3.8409
 6\C,0,0.14954,-1.79875,-3.47143\H,0,-0.16562,0.2013,-3.17349\N,0,-0.61
 071,-0.70369,-3.1135\O,0,-2.50427,0.31797,-2.38701\C,0,-1.91349,-0.706
 08,-2.68189\H,0,-2.3601,-4.01803,-2.85422\C,0,-1.79961,-3.08906,-2.950
 15\C,0,-3.89062,-2.00724,-2.15239\N,0,-2.49892,-1.95473,-2.60862\H,0,-
 6.40209,0.10693,-4.41981\H,0,-5.46471,1.16354,-3.60313\H,0,-5.62192,-0
 .37048,-3.06821\H,0,0.42228,0.21805,-7.33205\H,0,-0.53538,-1.1926,-7.2
 7689\N,0,-0.40949,-0.23586,-7.01228\C,0,-1.31136,0.40525,-6.26609\C,0,
 -3.33392,0.60566,-5.02883\N,0,-3.13854,1.8904,-4.68868\H,0,-1.75325,3.
 37554,-4.96425\C,0,-1.99037,2.33749,-5.19337\N,0,-1.08572,1.69694,-5.9
 4095\H,0,-4.84404,-2.24975,-5.16424\C,0,-4.15043,-1.41511,-5.27013\N,0
 ,-3.02326,-1.4629,-5.93713\C,0,-2.49555,-0.18805,-5.79217\C,0,-5.56555
 ,0.20883,-3.88148\N,0,-4.40154,-0.19342,-4.69467\\Version=EM64L-G16Rev
 A.03\State=1-A\HF=-2048.7201629\RMSD=6.629e-09\Dipole=-3.4257524,-0.69
 70886,0.2877812\Quadrupole=-8.0638125,27.7982541,-19.7344417,35.289699
 1,-20.0393097,-6.7054714\PG=C01 [X(C23H27N17O3)]\\@


 THE DIFFERENCE BETWEEN A NOOSE AND A HALO IS ONLY 12 INCHES.
 Job cpu time:       0 days  6 hours 33 minutes 18.0 seconds.
 Elapsed time:       0 days  0 hours 12 minutes 40.5 seconds.
 File lengths (MBytes):  RWF=    298 Int=      0 D2E=      0 Chk=     33 Scr=      1
 Normal termination of Gaussian 16 at Fri Jan 19 19:59:59 2018.
