 Entering Gaussian System, Link 0=g16
 Input=str20.-15.2.0.com
 Output=str20.-15.2.0.log
 Initial command:
 /share/apps/g16/l1.exe "/state/partition1/scr/Gau-32523.inp" -scrdir="/state/partition1/scr/"
 Entering Link 1 = /share/apps/g16/l1.exe PID=     32524.
  
 Copyright (c) 1988,1990,1992,1993,1995,1998,2003,2009,2016,
            Gaussian, Inc.  All Rights Reserved.
  
 This is part of the Gaussian(R) 16 program.  It is based on
 the Gaussian(R) 09 system (copyright 2009, Gaussian, Inc.),
 the Gaussian(R) 03 system (copyright 2003, Gaussian, Inc.),
 the Gaussian(R) 98 system (copyright 1998, Gaussian, Inc.),
 the Gaussian(R) 94 system (copyright 1995, Gaussian, Inc.),
 the Gaussian 92(TM) system (copyright 1992, Gaussian, Inc.),
 the Gaussian 90(TM) system (copyright 1990, Gaussian, Inc.),
 the Gaussian 88(TM) system (copyright 1988, Gaussian, Inc.),
 the Gaussian 86(TM) system (copyright 1986, Carnegie Mellon
 University), and the Gaussian 82(TM) system (copyright 1983,
 Carnegie Mellon University). Gaussian is a federally registered
 trademark of Gaussian, Inc.
  
 This software contains proprietary and confidential information,
 including trade secrets, belonging to Gaussian, Inc.
  
 This software is provided under written license and may be
 used, copied, transmitted, or stored only in accord with that
 written license.
  
 The following legend is applicable only to US Government
 contracts under FAR:
  
                    RESTRICTED RIGHTS LEGEND
  
 Use, reproduction and disclosure by the US Government is
 subject to restrictions as set forth in subparagraphs (a)
 and (c) of the Commercial Computer Software - Restricted
 Rights clause in FAR 52.227-19.
  
 Gaussian, Inc.
 340 Quinnipiac St., Bldg. 40, Wallingford CT 06492
  
  
 ---------------------------------------------------------------
 Warning -- This program may not be used in any manner that
 competes with the business of Gaussian, Inc. or will provide
 assistance to any competitor of Gaussian, Inc.  The licensee
 of this program is prohibited from giving any competitor of
 Gaussian, Inc. access to this program.  By using this program,
 the user acknowledges that Gaussian, Inc. is engaged in the
 business of creating and licensing software in the field of
 computational chemistry and represents and warrants to the
 licensee that it is not a competitor of Gaussian, Inc. and that
 it will not use this program in any manner prohibited above.
 ---------------------------------------------------------------
  

 Cite this work as:
 Gaussian 16, Revision A.03,
 M. J. Frisch, G. W. Trucks, H. B. Schlegel, G. E. Scuseria, 
 M. A. Robb, J. R. Cheeseman, G. Scalmani, V. Barone, 
 G. A. Petersson, H. Nakatsuji, X. Li, M. Caricato, A. V. Marenich, 
 J. Bloino, B. G. Janesko, R. Gomperts, B. Mennucci, H. P. Hratchian, 
 J. V. Ortiz, A. F. Izmaylov, J. L. Sonnenberg, D. Williams-Young, 
 F. Ding, F. Lipparini, F. Egidi, J. Goings, B. Peng, A. Petrone, 
 T. Henderson, D. Ranasinghe, V. G. Zakrzewski, J. Gao, N. Rega, 
 G. Zheng, W. Liang, M. Hada, M. Ehara, K. Toyota, R. Fukuda, 
 J. Hasegawa, M. Ishida, T. Nakajima, Y. Honda, O. Kitao, H. Nakai, 
 T. Vreven, K. Throssell, J. A. Montgomery, Jr., J. E. Peralta, 
 F. Ogliaro, M. J. Bearpark, J. J. Heyd, E. N. Brothers, K. N. Kudin, 
 V. N. Staroverov, T. A. Keith, R. Kobayashi, J. Normand, 
 K. Raghavachari, A. P. Rendell, J. C. Burant, S. S. Iyengar, 
 J. Tomasi, M. Cossi, J. M. Millam, M. Klene, C. Adamo, R. Cammi, 
 J. W. Ochterski, R. L. Martin, K. Morokuma, O. Farkas, 
 J. B. Foresman, and D. J. Fox, Gaussian, Inc., Wallingford CT, 2016.
 
 ******************************************
 Gaussian 16:  EM64L-G16RevA.03 25-Dec-2016
                19-Jan-2018 
 ******************************************
 %nprocshared=32
 Will use up to   32 processors via shared memory.
 %mem=32GB
 %chk=allatoms_t.chk
 ---------------------------------------
 #p wb97xd/cc-pvdz sp scf=(maxcycles=20)
 ---------------------------------------
 1/38=1,172=1/1;
 2/12=2,17=6,18=5,40=1/2;
 3/5=16,11=2,25=1,30=1,74=-58/1,2,3;
 4//1;
 5/5=2,7=20,38=5/2;
 6/7=2,8=2,9=2,10=2,28=1/1;
 99/5=1,9=1/99;
 Leave Link    1 at Fri Jan 19 20:48:26 2018, MaxMem=  4294967296 cpu:               2.7 elap:               0.1
 (Enter /share/apps/g16/l101.exe)
 ------------------
 Base pair stacking
 ------------------
 Symbolic Z-matrix:
 Charge =  0 Multiplicity = 1
 N                    -0.3179    1.85915  -6.27992 
 C                    -0.30986   3.32576  -6.11565 
 C                    -0.91431  -0.25783  -6.27576 
 N                     0.36926  -0.21727  -6.80068 
 C                     0.6772    1.0565   -6.78218 
 H                     1.62562   1.47014  -7.1262 
 N                    -3.00763  -1.01779  -5.49897 
 C                    -3.28942   0.26253  -5.23642 
 H                    -4.27478   0.44364  -4.8092 
 N                    -2.54028   1.34763  -5.42149 
 C                    -1.35119   1.01442  -5.95014 
 C                    -1.80305  -1.32033  -6.03051 
 N                    -1.51991  -2.59781  -6.2933 
 H                    -0.64049  -2.86776  -6.68696 
 H                    -2.17681  -3.32818  -6.10574 
 H                    -0.18126   3.76162  -7.00653 
 H                    -1.17973   3.62269  -5.72285 
 H                     0.43707   3.59087  -5.50588 
 N                    -0.41027   2.97295  -3.05828 
 C                    -1.12765   1.8087   -2.92438 
 C                    -0.96753   4.33624  -2.95058 
 N                    -4.14326   0.18236  -2.35617 
 H                    -4.4735   -0.75916  -2.29519 
 H                    -4.81836   0.90922  -2.2272 
 N                    -2.4515    1.71527  -2.67393 
 C                    -2.85327   0.45879  -2.59992 
 N                    -2.02364  -0.62472  -2.75872 
 H                    -2.41801  -1.54997  -2.68557 
 C                    -0.6584   -0.55216  -3.01703 
 O                     0.0005   -1.59168  -3.14345 
 C                    -0.21215   0.79133  -3.09933 
 N                     1.0545    1.3065   -3.33826 
 C                     0.88878   2.60096  -3.30479 
 H                     1.6834    3.33279  -3.45402 
 H                    -0.81948   4.82736  -3.8083 
 H                    -1.94767   4.27969  -2.76514 
 H                    -0.51594   4.82476  -2.20478 
 H                    -5.10473  -5.8638   -2.84422 
 H                    -4.55265  -6.0249   -1.17872 
 H                    -4.83272  -4.42345  -1.86301 
 H                    -0.59684  -7.38762  -3.55382 
 C                    -1.12626  -6.47207  -3.28977 
 O                     0.71469  -5.05279  -3.76271 
 C                    -0.44785  -5.21633  -3.39318 
 H                    -0.76301  -3.21627  -3.09524 
 N                    -1.2081   -4.12127  -3.03525 
 O                    -3.10167  -3.0996   -2.30875 
 C                    -2.51089  -4.12366  -2.60364 
 H                    -2.9575   -7.43561  -2.77597 
 C                    -2.39701  -6.50663  -2.8719 
 C                    -4.48802  -5.42481  -2.07414 
 N                    -3.09631  -5.3723   -2.53037 
 H                    -8.68009  -6.32316  -3.9632 
 H                    -7.7427   -5.26655  -3.14651 
 H                    -7.89991  -6.80057  -2.6116 
 H                    -1.85572  -6.21203  -6.87544 
 H                    -2.81337  -7.62269  -6.82028 
 N                    -2.68749  -6.66595  -6.55566 
 C                    -3.58935  -6.02484  -5.80948 
 C                    -5.61191  -5.82443  -4.57221 
 N                    -5.41653  -4.53969  -4.23207 
 H                    -4.03125  -3.05455  -4.50763 
 C                    -4.26836  -4.09259  -4.73675 
 N                    -3.36372  -4.73315  -5.48434 
 H                    -7.12204  -8.67984  -4.70762 
 C                    -6.42842  -7.8452   -4.81351 
 N                    -5.30126  -7.89299  -5.48052 
 C                    -4.77355  -6.61814  -5.33555 
 C                    -7.84354  -6.22126  -3.42486 
 N                    -6.67953  -6.62351  -4.23806 
 
 ITRead=  0  0  0  0  0  0  0  0  0  0  0  0  0  0  0  0  0  0  0  0
 ITRead=  0  0  0  0  0  0  0  0  0  0  0  0  0  0  0  0  0  0  0  0
 ITRead=  0  0  0  0  0  0  0  0  0  0  0  0  0  0  0  0  0  0  0  0
 ITRead=  0  0  0  0  0  0  0  0  0  0
 MicOpt= -1 -1 -1 -1 -1 -1 -1 -1 -1 -1 -1 -1 -1 -1 -1 -1 -1 -1 -1 -1
 MicOpt= -1 -1 -1 -1 -1 -1 -1 -1 -1 -1 -1 -1 -1 -1 -1 -1 -1 -1 -1 -1
 MicOpt= -1 -1 -1 -1 -1 -1 -1 -1 -1 -1 -1 -1 -1 -1 -1 -1 -1 -1 -1 -1
 MicOpt= -1 -1 -1 -1 -1 -1 -1 -1 -1 -1
 NAtoms=     70 NQM=       70 NQMF=       0 NMMI=      0 NMMIF=      0
                NMic=       0 NMicF=      0.
                    Isotopes and Nuclear Properties:
 (Nuclear quadrupole moments (NQMom) in fm**2, nuclear magnetic moments (NMagM)
  in nuclear magnetons)

  Atom         1           2           3           4           5           6           7           8           9          10
 IAtWgt=          14          12          12          14          12           1          14          12           1          14
 AtmWgt=  14.0030740  12.0000000  12.0000000  14.0030740  12.0000000   1.0078250  14.0030740  12.0000000   1.0078250  14.0030740
 NucSpn=           2           0           0           2           0           1           2           0           1           2
 AtZEff=  -0.0000000  -0.0000000  -0.0000000  -0.0000000  -0.0000000  -0.0000000  -0.0000000  -0.0000000  -0.0000000  -0.0000000
 NQMom=    2.0440000   0.0000000   0.0000000   2.0440000   0.0000000   0.0000000   2.0440000   0.0000000   0.0000000   2.0440000
 NMagM=    0.4037610   0.0000000   0.0000000   0.4037610   0.0000000   2.7928460   0.4037610   0.0000000   2.7928460   0.4037610
 AtZNuc=   7.0000000   6.0000000   6.0000000   7.0000000   6.0000000   1.0000000   7.0000000   6.0000000   1.0000000   7.0000000

  Atom        11          12          13          14          15          16          17          18          19          20
 IAtWgt=          12          12          14           1           1           1           1           1          14          12
 AtmWgt=  12.0000000  12.0000000  14.0030740   1.0078250   1.0078250   1.0078250   1.0078250   1.0078250  14.0030740  12.0000000
 NucSpn=           0           0           2           1           1           1           1           1           2           0
 AtZEff=  -0.0000000  -0.0000000  -0.0000000  -0.0000000  -0.0000000  -0.0000000  -0.0000000  -0.0000000  -0.0000000  -0.0000000
 NQMom=    0.0000000   0.0000000   2.0440000   0.0000000   0.0000000   0.0000000   0.0000000   0.0000000   2.0440000   0.0000000
 NMagM=    0.0000000   0.0000000   0.4037610   2.7928460   2.7928460   2.7928460   2.7928460   2.7928460   0.4037610   0.0000000
 AtZNuc=   6.0000000   6.0000000   7.0000000   1.0000000   1.0000000   1.0000000   1.0000000   1.0000000   7.0000000   6.0000000

  Atom        21          22          23          24          25          26          27          28          29          30
 IAtWgt=          12          14           1           1          14          12          14           1          12          16
 AtmWgt=  12.0000000  14.0030740   1.0078250   1.0078250  14.0030740  12.0000000  14.0030740   1.0078250  12.0000000  15.9949146
 NucSpn=           0           2           1           1           2           0           2           1           0           0
 AtZEff=  -0.0000000  -0.0000000  -0.0000000  -0.0000000  -0.0000000  -0.0000000  -0.0000000  -0.0000000  -0.0000000  -0.0000000
 NQMom=    0.0000000   2.0440000   0.0000000   0.0000000   2.0440000   0.0000000   2.0440000   0.0000000   0.0000000   0.0000000
 NMagM=    0.0000000   0.4037610   2.7928460   2.7928460   0.4037610   0.0000000   0.4037610   2.7928460   0.0000000   0.0000000
 AtZNuc=   6.0000000   7.0000000   1.0000000   1.0000000   7.0000000   6.0000000   7.0000000   1.0000000   6.0000000   8.0000000

  Atom        31          32          33          34          35          36          37          38          39          40
 IAtWgt=          12          14          12           1           1           1           1           1           1           1
 AtmWgt=  12.0000000  14.0030740  12.0000000   1.0078250   1.0078250   1.0078250   1.0078250   1.0078250   1.0078250   1.0078250
 NucSpn=           0           2           0           1           1           1           1           1           1           1
 AtZEff=  -0.0000000  -0.0000000  -0.0000000  -0.0000000  -0.0000000  -0.0000000  -0.0000000  -0.0000000  -0.0000000  -0.0000000
 NQMom=    0.0000000   2.0440000   0.0000000   0.0000000   0.0000000   0.0000000   0.0000000   0.0000000   0.0000000   0.0000000
 NMagM=    0.0000000   0.4037610   0.0000000   2.7928460   2.7928460   2.7928460   2.7928460   2.7928460   2.7928460   2.7928460
 AtZNuc=   6.0000000   7.0000000   6.0000000   1.0000000   1.0000000   1.0000000   1.0000000   1.0000000   1.0000000   1.0000000

  Atom        41          42          43          44          45          46          47          48          49          50
 IAtWgt=           1          12          16          12           1          14          16          12           1          12
 AtmWgt=   1.0078250  12.0000000  15.9949146  12.0000000   1.0078250  14.0030740  15.9949146  12.0000000   1.0078250  12.0000000
 NucSpn=           1           0           0           0           1           2           0           0           1           0
 AtZEff=  -0.0000000  -0.0000000  -0.0000000  -0.0000000  -0.0000000  -0.0000000  -0.0000000  -0.0000000  -0.0000000  -0.0000000
 NQMom=    0.0000000   0.0000000   0.0000000   0.0000000   0.0000000   2.0440000   0.0000000   0.0000000   0.0000000   0.0000000
 NMagM=    2.7928460   0.0000000   0.0000000   0.0000000   2.7928460   0.4037610   0.0000000   0.0000000   2.7928460   0.0000000
 AtZNuc=   1.0000000   6.0000000   8.0000000   6.0000000   1.0000000   7.0000000   8.0000000   6.0000000   1.0000000   6.0000000

  Atom        51          52          53          54          55          56          57          58          59          60
 IAtWgt=          12          14           1           1           1           1           1          14          12          12
 AtmWgt=  12.0000000  14.0030740   1.0078250   1.0078250   1.0078250   1.0078250   1.0078250  14.0030740  12.0000000  12.0000000
 NucSpn=           0           2           1           1           1           1           1           2           0           0
 AtZEff=  -0.0000000  -0.0000000  -0.0000000  -0.0000000  -0.0000000  -0.0000000  -0.0000000  -0.0000000  -0.0000000  -0.0000000
 NQMom=    0.0000000   2.0440000   0.0000000   0.0000000   0.0000000   0.0000000   0.0000000   2.0440000   0.0000000   0.0000000
 NMagM=    0.0000000   0.4037610   2.7928460   2.7928460   2.7928460   2.7928460   2.7928460   0.4037610   0.0000000   0.0000000
 AtZNuc=   6.0000000   7.0000000   1.0000000   1.0000000   1.0000000   1.0000000   1.0000000   7.0000000   6.0000000   6.0000000

  Atom        61          62          63          64          65          66          67          68          69          70
 IAtWgt=          14           1          12          14           1          12          14          12          12          14
 AtmWgt=  14.0030740   1.0078250  12.0000000  14.0030740   1.0078250  12.0000000  14.0030740  12.0000000  12.0000000  14.0030740
 NucSpn=           2           1           0           2           1           0           2           0           0           2
 AtZEff=  -0.0000000  -0.0000000  -0.0000000  -0.0000000  -0.0000000  -0.0000000  -0.0000000  -0.0000000  -0.0000000  -0.0000000
 NQMom=    2.0440000   0.0000000   0.0000000   2.0440000   0.0000000   0.0000000   2.0440000   0.0000000   0.0000000   2.0440000
 NMagM=    0.4037610   2.7928460   0.0000000   0.4037610   2.7928460   0.0000000   0.4037610   0.0000000   0.0000000   0.4037610
 AtZNuc=   7.0000000   1.0000000   6.0000000   7.0000000   1.0000000   6.0000000   7.0000000   6.0000000   6.0000000   7.0000000
 Leave Link  101 at Fri Jan 19 20:48:26 2018, MaxMem=  4294967296 cpu:               6.5 elap:               0.2
 (Enter /share/apps/g16/l202.exe)
 Stoichiometry    C23H27N17O3
 Framework group  C1[X(C23H27N17O3)]
 Deg. of freedom   204
 Full point group                 C1      NOp   1
 Largest Abelian subgroup         C1      NOp   1
 Largest concise Abelian subgroup C1      NOp   1
                         Standard orientation:                         
 ---------------------------------------------------------------------
 Center     Atomic      Atomic             Coordinates (Angstroms)
 Number     Number       Type             X           Y           Z
 ---------------------------------------------------------------------
      1          7           0        4.585744   -0.905344   -1.801227
      2          6           0        5.906621   -0.255813   -1.907937
      3          6           0        2.421097   -1.265329   -1.652760
      4          7           0        3.023861   -2.514860   -1.643490
      5          6           0        4.303847   -2.247975   -1.733309
      6          1           0        5.093842   -2.999248   -1.754398
      7          7           0        0.814884    0.461448   -1.617358
      8          6           0        1.840554    1.313714   -1.713270
      9          1           0        1.568473    2.368092   -1.735839
     10          7           0        3.145739    1.060274   -1.785139
     11          6           0        3.371091   -0.263503   -1.749553
     12          6           0        1.074618   -0.863880   -1.583862
     13          7           0        0.052094   -1.716210   -1.488151
     14          1           0        0.197635   -2.705782   -1.460118
     15          1           0       -0.893770   -1.394843   -1.441223
     16          1           0        6.363670   -0.562035   -2.743109
     17          1           0        5.789526    0.736421   -1.937846
     18          1           0        6.465490   -0.500062   -1.115464
     19          7           0        5.515072    0.975023    0.887381
     20          6           0        4.153095    1.149365    0.939006
     21          6           0        6.496486    2.019236    0.530808
     22          7           0        1.366624    3.191815    0.584432
     23          1           0        0.374910    3.109538    0.679141
     24          1           0        1.723944    4.086255    0.314213
     25          7           0        3.487901    2.294679    0.674799
     26          6           0        2.181531    2.150087    0.809445
     27          7           0        1.571303    0.974658    1.174801
     28          1           0        0.566067    0.956198    1.253077
     29          6           0        2.235898   -0.215995    1.451438
     30          8           0        1.590281   -1.221265    1.772908
     31          6           0        3.640045   -0.076278    1.310987
     32          7           0        4.659413   -1.001471    1.489305
     33          6           0        5.750812   -0.334653    1.227747
     34          1           0        6.757808   -0.751299    1.268127
     35          1           0        7.011407    1.733292   -0.276591
     36          1           0        6.015348    2.872250    0.332984
     37          1           0        7.125830    2.162044    1.293918
     38          1           0       -4.486412    1.349148    0.839793
     39          1           0       -4.406510    1.538450    2.589769
     40          1           0       -3.081878    2.118197    1.579533
     41          1           0       -3.879324   -3.227276    2.194201
     42          6           0       -3.289967   -2.318855    2.069023
     43          8           0       -1.204128   -3.448312    2.095977
     44          6           0       -1.863046   -2.412023    2.013953
     45          1           0       -0.205016   -1.229727    1.810364
     46          7           0       -1.214080   -1.204377    1.853686
     47          8           0       -1.130173    1.051448    1.605829
     48          6           0       -1.789990    0.036681    1.745724
     49          1           0       -4.962098   -0.997725    2.002442
     50          6           0       -3.880668   -1.122531    1.966568
     51          6           0       -3.829678    1.348056    1.696977
     52          7           0       -3.169579    0.044319    1.807882
     53          1           0       -6.451287    3.601804   -1.464797
     54          1           0       -5.099384    3.606590   -0.551319
     55          1           0       -6.553033    3.346518    0.143898
     56          1           0       -3.339358   -3.134636   -1.507123
     57          1           0       -5.027189   -2.896639   -1.575561
     58          7           0       -4.114349   -2.504607   -1.456166
     59          6           0       -3.939398   -1.199516   -1.238708
     60          6           0       -4.655545    1.048245   -0.928139
     61          7           0       -3.418089    1.546831   -0.771487
     62          1           0       -1.474161    0.897725   -0.751980
     63          6           0       -2.509092    0.578638   -0.867512
     64          7           0       -2.682319   -0.729089   -1.085278
     65          1           0       -7.882317    1.077276   -1.126370
     66          6           0       -6.827439    0.802219   -1.103573
     67          7           0       -6.371091   -0.415380   -1.267514
     68          6           0       -4.995324   -0.273479   -1.158588
     69          6           0       -5.999316    3.189205   -0.673916
     70          7           0       -5.844192    1.738122   -0.893723
 ---------------------------------------------------------------------
 Rotational constants (GHZ):           0.1789217           0.0510933           0.0495980
 Leave Link  202 at Fri Jan 19 20:48:26 2018, MaxMem=  4294967296 cpu:               0.3 elap:               0.0
 (Enter /share/apps/g16/l301.exe)
 Standard basis: CC-pVDZ (5D, 7F)
 Ernie: Thresh=  0.10000D-02 Tol=  0.10000D-05 Strict=F.
 Ernie:  86 primitive shells out of 1081 were deleted.
 There are   780 symmetry adapted cartesian basis functions of A   symmetry.
 There are   737 symmetry adapted basis functions of A   symmetry.
   737 basis functions,  1608 primitive gaussians,   780 cartesian basis functions
   154 alpha electrons      154 beta electrons
       nuclear repulsion energy      5611.7950610258 Hartrees.
 IExCor= 4639 DFT=T Ex+Corr=wB97XD ExCW=0 ScaHFX=  1.000000
 ScaDFX=  1.000000  1.000000  1.000000  1.000000 ScalE2=  1.000000  1.000000
 IRadAn=      5 IRanWt=     -1 IRanGd=            0 ICorTp=0 IEmpDi=121
 HFx  wShort=  0.000000 wLong=  0.200000 cFull=  0.222036 cShort=  0.000000 cLong=  0.777964
 DFx  wShort=  0.000000 wLong=  0.200000 cFull=  0.000000 cShort=  0.000000 cLong=  1.000000
 NAtoms=   70 NActive=   70 NUniq=   70 SFac= 1.00D+00 NAtFMM=   60 NAOKFM=T Big=T
 Integral buffers will be    131072 words long.
 Raffenetti 2 integral format.
 Two-electron integral symmetry is turned on.
 R6Disp:  Grimme-D2 Dispersion energy=       -0.0800496041 Hartrees.
 Nuclear repulsion after empirical dispersion term =     5611.7150114216 Hartrees.
 Leave Link  301 at Fri Jan 19 20:48:26 2018, MaxMem=  4294967296 cpu:               2.1 elap:               0.1
 (Enter /share/apps/g16/l302.exe)
 NPDir=0 NMtPBC=     1 NCelOv=     1 NCel=       1 NClECP=     1 NCelD=      1
         NCelK=      1 NCelE2=     1 NClLst=     1 CellRange=     0.0.
 One-electron integrals computed using PRISM.
 One-electron integral symmetry used in STVInt
 NBasis=   737 RedAO= T EigKep=  6.52D-04  NBF=   737
 NBsUse=   737 1.00D-06 EigRej= -1.00D+00 NBFU=   737
 Precomputing XC quadrature grid using
 IXCGrd= 4 IRadAn=           5 IRanWt=          -1 IRanGd=           0 AccXCQ= 0.00D+00.
 Generated NRdTot=       0 NPtTot=           0 NUsed=           0 NTot=          32
 NSgBfM=   762   761   761   762   762 MxSgAt=    70 MxSgA2=    70.
 Leave Link  302 at Fri Jan 19 20:48:31 2018, MaxMem=  4294967296 cpu:             133.1 elap:               4.2
 (Enter /share/apps/g16/l303.exe)
 DipDrv:  MaxL=1.
 Leave Link  303 at Fri Jan 19 20:48:31 2018, MaxMem=  4294967296 cpu:              12.6 elap:               0.4
 (Enter /share/apps/g16/l401.exe)
 ExpMin= 1.22D-01 ExpMax= 1.17D+04 ExpMxC= 4.01D+02 IAcc=3 IRadAn=         5 AccDes= 0.00D+00
 Harris functional with IExCor= 4639 and IRadAn=       5 diagonalized for initial guess.
 HarFok:  IExCor= 4639 AccDes= 0.00D+00 IRadAn=         5 IDoV= 1 UseB2=F ITyADJ=14
 ICtDFT=  3500011 ScaDFX=  1.000000  1.000000  1.000000  1.000000
 FoFCou: FMM=F IPFlag=           0 FMFlag=      100000 FMFlg1=        2001
         NFxFlg=           0 DoJE=T BraDBF=F KetDBF=T FulRan=T
         wScrn=  0.000000 ICntrl=       500 IOpCl=  0 I1Cent=   200000004 NGrid=           0
         NMat0=    1 NMatS0=      1 NMatT0=    0 NMatD0=    1 NMtDS0=    0 NMtDT0=    0
 Petite list used in FoFCou.
 Harris En= -1963.82706533898    
 JPrj=0 DoOrth=F DoCkMO=F.
 Leave Link  401 at Fri Jan 19 20:48:44 2018, MaxMem=  4294967296 cpu:             413.4 elap:              13.0
 (Enter /share/apps/g16/l502.exe)
 Integral symmetry usage will be decided dynamically.
 Closed shell SCF:
 Using DIIS extrapolation, IDIIS=  1040.
 NGot=  4294967296 LenX=  4293717438 LenY=  4293108258
 Requested convergence on RMS density matrix=1.00D-08 within  20 cycles.
 Requested convergence on MAX density matrix=1.00D-06.
 Requested convergence on             energy=1.00D-06.
 No special actions if energy rises.
 Fock matrices will be formed incrementally for  20 cycles.
 Integral accuracy reduced to 1.0D-05 until final iterations.

 Cycle   1  Pass 0  IDiag  1:
 FoFJK:  IHMeth= 1 ICntrl=       0 DoSepK=T KAlg= 0 I1Cent=           0 FoldK=F
 IRaf=         1 NMat=       1 IRICut=       1 DoRegI=T DoRafI=F ISym2E= 0 IDoP0=0 IntGTp=1.
 FoFCou: FMM=T IPFlag=           0 FMFlag=      100000 FMFlg1=        2001
         NFxFlg=           0 DoJE=T BraDBF=F KetDBF=F FulRan=T
         wScrn=  0.000000 ICntrl=       500 IOpCl=  0 I1Cent=           0 NGrid=           0
         NMat0=    1 NMatS0=      1 NMatT0=    0 NMatD0=    1 NMtDS0=    0 NMtDT0=    0
 Symmetry not used in FoFCou.
 FMM levels:  10  Number of levels for PrismC:   9
 E= -2048.26922846947    
 DIIS: error= 1.68D-02 at cycle   1 NSaved=   1.
 NSaved= 1 IEnMin= 1 EnMin= -2048.26922846947     IErMin= 1 ErrMin= 1.68D-02
 ErrMax= 1.68D-02  0.00D+00 EMaxC= 1.00D-01 BMatC= 8.35D-01 BMatP= 8.35D-01
 IDIUse=3 WtCom= 8.32D-01 WtEn= 1.68D-01
 Coeff-Com:  0.100D+01
 Coeff-En:   0.100D+01
 Coeff:      0.100D+01
 Gap=     0.261 Goal=   None    Shift=    0.000
 GapD=    0.261 DampG=1.000 DampE=0.500 DampFc=0.5000 IDamp=-1.
 Damping current iteration by 5.00D-01
 RMSDP=1.60D-03 MaxDP=1.30D-01              OVMax= 2.07D-01

 Cycle   2  Pass 0  IDiag  1:
 RMSU=  7.97D-04    CP:  9.98D-01
 E= -2048.46756062447     Delta-E=       -0.198332154999 Rises=F Damp=T
 DIIS: error= 9.33D-03 at cycle   2 NSaved=   2.
 NSaved= 2 IEnMin= 2 EnMin= -2048.46756062447     IErMin= 2 ErrMin= 9.33D-03
 ErrMax= 9.33D-03  0.00D+00 EMaxC= 1.00D-01 BMatC= 1.45D-01 BMatP= 8.35D-01
 IDIUse=3 WtCom= 9.07D-01 WtEn= 9.33D-02
 Coeff-Com: -0.198D+00 0.120D+01
 Coeff-En:   0.000D+00 0.100D+01
 Coeff:     -0.179D+00 0.118D+01
 Gap=     0.288 Goal=   None    Shift=    0.000
 RMSDP=6.01D-04 MaxDP=3.59D-02 DE=-1.98D-01 OVMax= 1.49D-01

 Cycle   3  Pass 0  IDiag  1:
 RMSU=  5.88D-04    CP:  9.94D-01  1.15D+00
 E= -2048.64564772682     Delta-E=       -0.178087102347 Rises=F Damp=F
 DIIS: error= 7.59D-03 at cycle   3 NSaved=   3.
 NSaved= 3 IEnMin= 3 EnMin= -2048.64564772682     IErMin= 3 ErrMin= 7.59D-03
 ErrMax= 7.59D-03  0.00D+00 EMaxC= 1.00D-01 BMatC= 6.60D-02 BMatP= 1.45D-01
 IDIUse=3 WtCom= 9.24D-01 WtEn= 7.59D-02
 Coeff-Com: -0.235D+00 0.558D+00 0.677D+00
 Coeff-En:   0.000D+00 0.000D+00 0.100D+01
 Coeff:     -0.217D+00 0.516D+00 0.701D+00
 Gap=     0.278 Goal=   None    Shift=    0.000
 RMSDP=3.73D-04 MaxDP=3.48D-02 DE=-1.78D-01 OVMax= 5.74D-02

 Cycle   4  Pass 0  IDiag  1:
 RMSU=  2.11D-04    CP:  9.94D-01  1.44D+00  6.57D-01
 E= -2048.69468447506     Delta-E=       -0.049036748244 Rises=F Damp=F
 DIIS: error= 2.58D-03 at cycle   4 NSaved=   4.
 NSaved= 4 IEnMin= 4 EnMin= -2048.69468447506     IErMin= 4 ErrMin= 2.58D-03
 ErrMax= 2.58D-03  0.00D+00 EMaxC= 1.00D-01 BMatC= 9.91D-03 BMatP= 6.60D-02
 IDIUse=3 WtCom= 9.74D-01 WtEn= 2.58D-02
 Coeff-Com: -0.979D-01 0.190D+00 0.380D+00 0.528D+00
 Coeff-En:   0.000D+00 0.000D+00 0.747D-01 0.925D+00
 Coeff:     -0.953D-01 0.185D+00 0.372D+00 0.538D+00
 Gap=     0.278 Goal=   None    Shift=    0.000
 RMSDP=1.33D-04 MaxDP=1.16D-02 DE=-4.90D-02 OVMax= 1.41D-02

 Cycle   5  Pass 0  IDiag  1:
 RMSU=  6.31D-05    CP:  9.94D-01  1.41D+00  7.94D-01  6.17D-01
 E= -2048.70281807933     Delta-E=       -0.008133604269 Rises=F Damp=F
 DIIS: error= 4.45D-04 at cycle   5 NSaved=   5.
 NSaved= 5 IEnMin= 5 EnMin= -2048.70281807933     IErMin= 5 ErrMin= 4.45D-04
 ErrMax= 4.45D-04  0.00D+00 EMaxC= 1.00D-01 BMatC= 3.00D-04 BMatP= 9.91D-03
 IDIUse=3 WtCom= 9.96D-01 WtEn= 4.45D-03
 Coeff-Com: -0.259D-01 0.446D-01 0.124D+00 0.238D+00 0.619D+00
 Coeff-En:   0.000D+00 0.000D+00 0.000D+00 0.000D+00 0.100D+01
 Coeff:     -0.257D-01 0.444D-01 0.124D+00 0.237D+00 0.621D+00
 Gap=     0.279 Goal=   None    Shift=    0.000
 RMSDP=2.71D-05 MaxDP=1.78D-03 DE=-8.13D-03 OVMax= 3.25D-03

 Failed to achieve initial convergence to 1.0D-08 in  6 cycles.
 Switch to full accuracy anyway.
 Cycle   6  Pass 1  IDiag  1:
 E= -2048.70295203084     Delta-E=       -0.000133951514 Rises=F Damp=F
 DIIS: error= 2.80D-04 at cycle   1 NSaved=   1.
 NSaved= 1 IEnMin= 1 EnMin= -2048.70295203084     IErMin= 1 ErrMin= 2.80D-04
 ErrMax= 2.80D-04  0.00D+00 EMaxC= 1.00D-01 BMatC= 7.93D-05 BMatP= 7.93D-05
 IDIUse=3 WtCom= 9.97D-01 WtEn= 2.80D-03
 Coeff-Com:  0.100D+01
 Coeff-En:   0.100D+01
 Coeff:      0.100D+01
 Gap=     0.279 Goal=   None    Shift=    0.000
 RMSDP=2.71D-05 MaxDP=1.78D-03 DE=-1.34D-04 OVMax= 1.97D-03

 Cycle   7  Pass 1  IDiag  1:
 RMSU=  1.19D-04    CP:  1.00D+00
 E= -2048.70300555798     Delta-E=       -0.000053527135 Rises=F Damp=F
 DIIS: error= 1.65D-04 at cycle   2 NSaved=   2.
 NSaved= 2 IEnMin= 2 EnMin= -2048.70300555798     IErMin= 2 ErrMin= 1.65D-04
 ErrMax= 1.65D-04  0.00D+00 EMaxC= 1.00D-01 BMatC= 4.96D-05 BMatP= 7.93D-05
 IDIUse=3 WtCom= 9.98D-01 WtEn= 1.65D-03
 Coeff-Com:  0.422D+00 0.578D+00
 Coeff-En:   0.397D-01 0.960D+00
 Coeff:      0.421D+00 0.579D+00
 Gap=     0.279 Goal=   None    Shift=    0.000
 RMSDP=1.24D-05 MaxDP=9.79D-04 DE=-5.35D-05 OVMax= 1.67D-03

 Cycle   8  Pass 1  IDiag  1:
 RMSU=  1.21D-05    CP:  1.00D+00  1.02D+00
 E= -2048.70304186590     Delta-E=       -0.000036307919 Rises=F Damp=F
 DIIS: error= 7.75D-05 at cycle   3 NSaved=   3.
 NSaved= 3 IEnMin= 3 EnMin= -2048.70304186590     IErMin= 3 ErrMin= 7.75D-05
 ErrMax= 7.75D-05  0.00D+00 EMaxC= 1.00D-01 BMatC= 1.07D-05 BMatP= 4.96D-05
 IDIUse=1 WtCom= 1.00D+00 WtEn= 0.00D+00
 Coeff-Com: -0.180D-01 0.304D+00 0.714D+00
 Coeff:     -0.180D-01 0.304D+00 0.714D+00
 Gap=     0.279 Goal=   None    Shift=    0.000
 RMSDP=6.00D-06 MaxDP=4.12D-04 DE=-3.63D-05 OVMax= 6.23D-04

 Cycle   9  Pass 1  IDiag  1:
 RMSU=  3.99D-06    CP:  1.00D+00  1.05D+00  7.60D-01
 E= -2048.70305202217     Delta-E=       -0.000010156278 Rises=F Damp=F
 DIIS: error= 2.70D-05 at cycle   4 NSaved=   4.
 NSaved= 4 IEnMin= 4 EnMin= -2048.70305202217     IErMin= 4 ErrMin= 2.70D-05
 ErrMax= 2.70D-05  0.00D+00 EMaxC= 1.00D-01 BMatC= 5.48D-07 BMatP= 1.07D-05
 IDIUse=1 WtCom= 1.00D+00 WtEn= 0.00D+00
 Coeff-Com: -0.310D-01 0.859D-01 0.272D+00 0.673D+00
 Coeff:     -0.310D-01 0.859D-01 0.272D+00 0.673D+00
 Gap=     0.279 Goal=   None    Shift=    0.000
 RMSDP=1.50D-06 MaxDP=1.23D-04 DE=-1.02D-05 OVMax= 3.25D-04

 Cycle  10  Pass 1  IDiag  1:
 RMSU=  1.33D-06    CP:  1.00D+00  1.05D+00  7.95D-01  1.10D+00
 E= -2048.70305290714     Delta-E=       -0.000000884962 Rises=F Damp=F
 DIIS: error= 1.12D-05 at cycle   5 NSaved=   5.
 NSaved= 5 IEnMin= 5 EnMin= -2048.70305290714     IErMin= 5 ErrMin= 1.12D-05
 ErrMax= 1.12D-05  0.00D+00 EMaxC= 1.00D-01 BMatC= 1.15D-07 BMatP= 5.48D-07
 IDIUse=1 WtCom= 1.00D+00 WtEn= 0.00D+00
 Coeff-Com: -0.331D-02-0.524D-01-0.116D+00 0.187D+00 0.985D+00
 Coeff:     -0.331D-02-0.524D-01-0.116D+00 0.187D+00 0.985D+00
 Gap=     0.279 Goal=   None    Shift=    0.000
 RMSDP=1.23D-06 MaxDP=8.01D-05 DE=-8.85D-07 OVMax= 2.04D-04

 Cycle  11  Pass 1  IDiag  1:
 RMSU=  5.06D-07    CP:  1.00D+00  1.05D+00  8.03D-01  1.37D+00  1.19D+00
 E= -2048.70305316944     Delta-E=       -0.000000262304 Rises=F Damp=F
 DIIS: error= 5.19D-06 at cycle   6 NSaved=   6.
 NSaved= 6 IEnMin= 6 EnMin= -2048.70305316944     IErMin= 6 ErrMin= 5.19D-06
 ErrMax= 5.19D-06  0.00D+00 EMaxC= 1.00D-01 BMatC= 3.30D-08 BMatP= 1.15D-07
 IDIUse=1 WtCom= 1.00D+00 WtEn= 0.00D+00
 Coeff-Com:  0.470D-02-0.448D-01-0.117D+00-0.137D-01 0.545D+00 0.626D+00
 Coeff:      0.470D-02-0.448D-01-0.117D+00-0.137D-01 0.545D+00 0.626D+00
 Gap=     0.279 Goal=   None    Shift=    0.000
 RMSDP=3.97D-07 MaxDP=3.47D-05 DE=-2.62D-07 OVMax= 8.85D-05

 Cycle  12  Pass 1  IDiag  1:
 RMSU=  1.95D-07    CP:  1.00D+00  1.05D+00  8.05D-01  1.45D+00  1.33D+00
                    CP:  9.22D-01
 E= -2048.70305321556     Delta-E=       -0.000000046118 Rises=F Damp=F
 DIIS: error= 8.84D-07 at cycle   7 NSaved=   7.
 NSaved= 7 IEnMin= 7 EnMin= -2048.70305321556     IErMin= 7 ErrMin= 8.84D-07
 ErrMax= 8.84D-07  0.00D+00 EMaxC= 1.00D-01 BMatC= 7.53D-10 BMatP= 3.30D-08
 IDIUse=1 WtCom= 1.00D+00 WtEn= 0.00D+00
 Coeff-Com:  0.105D-02-0.668D-02-0.191D-01-0.103D-01 0.557D-01 0.122D+00
 Coeff-Com:  0.857D+00
 Coeff:      0.105D-02-0.668D-02-0.191D-01-0.103D-01 0.557D-01 0.122D+00
 Coeff:      0.857D+00
 Gap=     0.279 Goal=   None    Shift=    0.000
 RMSDP=8.84D-08 MaxDP=5.75D-06 DE=-4.61D-08 OVMax= 1.88D-05

 Cycle  13  Pass 1  IDiag  1:
 RMSU=  5.46D-08    CP:  1.00D+00  1.05D+00  8.05D-01  1.45D+00  1.35D+00
                    CP:  1.01D+00  1.14D+00
 E= -2048.70305321740     Delta-E=       -0.000000001838 Rises=F Damp=F
 DIIS: error= 5.39D-07 at cycle   8 NSaved=   8.
 NSaved= 8 IEnMin= 8 EnMin= -2048.70305321740     IErMin= 8 ErrMin= 5.39D-07
 ErrMax= 5.39D-07  0.00D+00 EMaxC= 1.00D-01 BMatC= 3.33D-10 BMatP= 7.53D-10
 IDIUse=1 WtCom= 1.00D+00 WtEn= 0.00D+00
 Coeff-Com: -0.743D-03 0.884D-02 0.221D-01 0.132D-03-0.118D+00-0.108D+00
 Coeff-Com:  0.421D+00 0.775D+00
 Coeff:     -0.743D-03 0.884D-02 0.221D-01 0.132D-03-0.118D+00-0.108D+00
 Coeff:      0.421D+00 0.775D+00
 Gap=     0.279 Goal=   None    Shift=    0.000
 RMSDP=5.12D-08 MaxDP=2.78D-06 DE=-1.84D-09 OVMax= 8.59D-06

 Cycle  14  Pass 1  IDiag  1:
 RMSU=  2.99D-08    CP:  1.00D+00  1.05D+00  8.05D-01  1.46D+00  1.36D+00
                    CP:  1.05D+00  1.29D+00  1.06D+00
 E= -2048.70305321789     Delta-E=       -0.000000000493 Rises=F Damp=F
 DIIS: error= 1.28D-07 at cycle   9 NSaved=   9.
 NSaved= 9 IEnMin= 9 EnMin= -2048.70305321789     IErMin= 9 ErrMin= 1.28D-07
 ErrMax= 1.28D-07  0.00D+00 EMaxC= 1.00D-01 BMatC= 2.85D-11 BMatP= 3.33D-10
 IDIUse=1 WtCom= 1.00D+00 WtEn= 0.00D+00
 Coeff-Com: -0.400D-03 0.415D-02 0.106D-01 0.135D-02-0.508D-01-0.545D-01
 Coeff-Com:  0.828D-01 0.292D+00 0.715D+00
 Coeff:     -0.400D-03 0.415D-02 0.106D-01 0.135D-02-0.508D-01-0.545D-01
 Coeff:      0.828D-01 0.292D+00 0.715D+00
 Gap=     0.279 Goal=   None    Shift=    0.000
 RMSDP=1.37D-08 MaxDP=6.74D-07 DE=-4.93D-10 OVMax= 2.44D-06

 Cycle  15  Pass 1  IDiag  1:
 RMSU=  9.50D-09    CP:  1.00D+00  1.05D+00  8.05D-01  1.46D+00  1.36D+00
                    CP:  1.06D+00  1.31D+00  1.20D+00  1.09D+00
 E= -2048.70305321771     Delta-E=        0.000000000175 Rises=F Damp=F
 DIIS: error= 7.20D-08 at cycle  10 NSaved=  10.
 NSaved=10 IEnMin= 9 EnMin= -2048.70305321789     IErMin=10 ErrMin= 7.20D-08
 ErrMax= 7.20D-08  0.00D+00 EMaxC= 1.00D-01 BMatC= 5.56D-12 BMatP= 2.85D-11
 IDIUse=1 WtCom= 1.00D+00 WtEn= 0.00D+00
 Coeff-Com:  0.119D-04-0.373D-03-0.838D-03 0.164D-03 0.632D-02 0.223D-02
 Coeff-Com: -0.610D-01-0.682D-01 0.266D+00 0.856D+00
 Coeff:      0.119D-04-0.373D-03-0.838D-03 0.164D-03 0.632D-02 0.223D-02
 Coeff:     -0.610D-01-0.682D-01 0.266D+00 0.856D+00
 Gap=     0.279 Goal=   None    Shift=    0.000
 RMSDP=7.74D-09 MaxDP=3.85D-07 DE= 1.75D-10 OVMax= 1.32D-06

 SCF Done:  E(RwB97XD) =  -2048.70305322     A.U. after   15 cycles
            NFock= 15  Conv=0.77D-08     -V/T= 2.0052
 KE= 2.038105090786D+03 PE=-1.600380331724D+04 EE= 6.305280161815D+03
 Leave Link  502 at Fri Jan 19 21:01:01 2018, MaxMem=  4294967296 cpu:           22737.0 elap:             737.0
 (Enter /share/apps/g16/l601.exe)
 Copying SCF densities to generalized density rwf, IOpCl= 0 IROHF=0.

 **********************************************************************

            Population analysis using the SCF density.

 **********************************************************************

 Orbital symmetries:
       Occupied  (A) (A) (A) (A) (A) (A) (A) (A) (A) (A) (A) (A)
                 (A) (A) (A) (A) (A) (A) (A) (A) (A) (A) (A) (A)
                 (A) (A) (A) (A) (A) (A) (A) (A) (A) (A) (A) (A)
                 (A) (A) (A) (A) (A) (A) (A) (A) (A) (A) (A) (A)
                 (A) (A) (A) (A) (A) (A) (A) (A) (A) (A) (A) (A)
                 (A) (A) (A) (A) (A) (A) (A) (A) (A) (A) (A) (A)
                 (A) (A) (A) (A) (A) (A) (A) (A) (A) (A) (A) (A)
                 (A) (A) (A) (A) (A) (A) (A) (A) (A) (A) (A) (A)
                 (A) (A) (A) (A) (A) (A) (A) (A) (A) (A) (A) (A)
                 (A) (A) (A) (A) (A) (A) (A) (A) (A) (A) (A) (A)
                 (A) (A) (A) (A) (A) (A) (A) (A) (A) (A) (A) (A)
                 (A) (A) (A) (A) (A) (A) (A) (A) (A) (A) (A) (A)
                 (A) (A) (A) (A) (A) (A) (A) (A) (A) (A)
       Virtual   (A) (A) (A) (A) (A) (A) (A) (A) (A) (A) (A) (A)
                 (A) (A) (A) (A) (A) (A) (A) (A) (A) (A) (A) (A)
                 (A) (A) (A) (A) (A) (A) (A) (A) (A) (A) (A) (A)
                 (A) (A) (A) (A) (A) (A) (A) (A) (A) (A) (A) (A)
                 (A) (A) (A) (A) (A) (A) (A) (A) (A) (A) (A) (A)
                 (A) (A) (A) (A) (A) (A) (A) (A) (A) (A) (A) (A)
                 (A) (A) (A) (A) (A) (A) (A) (A) (A) (A) (A) (A)
                 (A) (A) (A) (A) (A) (A) (A) (A) (A) (A) (A) (A)
                 (A) (A) (A) (A) (A) (A) (A) (A) (A) (A) (A) (A)
                 (A) (A) (A) (A) (A) (A) (A) (A) (A) (A) (A) (A)
                 (A) (A) (A) (A) (A) (A) (A) (A) (A) (A) (A) (A)
                 (A) (A) (A) (A) (A) (A) (A) (A) (A) (A) (A) (A)
                 (A) (A) (A) (A) (A) (A) (A) (A) (A) (A) (A) (A)
                 (A) (A) (A) (A) (A) (A) (A) (A) (A) (A) (A) (A)
                 (A) (A) (A) (A) (A) (A) (A) (A) (A) (A) (A) (A)
                 (A) (A) (A) (A) (A) (A) (A) (A) (A) (A) (A) (A)
                 (A) (A) (A) (A) (A) (A) (A) (A) (A) (A) (A) (A)
                 (A) (A) (A) (A) (A) (A) (A) (A) (A) (A) (A) (A)
                 (A) (A) (A) (A) (A) (A) (A) (A) (A) (A) (A) (A)
                 (A) (A) (A) (A) (A) (A) (A) (A) (A) (A) (A) (A)
                 (A) (A) (A) (A) (A) (A) (A) (A) (A) (A) (A) (A)
                 (A) (A) (A) (A) (A) (A) (A) (A) (A) (A) (A) (A)
                 (A) (A) (A) (A) (A) (A) (A) (A) (A) (A) (A) (A)
                 (A) (A) (A) (A) (A) (A) (A) (A) (A) (A) (A) (A)
                 (A) (A) (A) (A) (A) (A) (A) (A) (A) (A) (A) (A)
                 (A) (A) (A) (A) (A) (A) (A) (A) (A) (A) (A) (A)
                 (A) (A) (A) (A) (A) (A) (A) (A) (A) (A) (A) (A)
                 (A) (A) (A) (A) (A) (A) (A) (A) (A) (A) (A) (A)
                 (A) (A) (A) (A) (A) (A) (A) (A) (A) (A) (A) (A)
                 (A) (A) (A) (A) (A) (A) (A) (A) (A) (A) (A) (A)
                 (A) (A) (A) (A) (A) (A) (A) (A) (A) (A) (A) (A)
                 (A) (A) (A) (A) (A) (A) (A) (A) (A) (A) (A) (A)
                 (A) (A) (A) (A) (A) (A) (A) (A) (A) (A) (A) (A)
                 (A) (A) (A) (A) (A) (A) (A) (A) (A) (A) (A) (A)
                 (A) (A) (A) (A) (A) (A) (A) (A) (A) (A) (A) (A)
                 (A) (A) (A) (A) (A) (A) (A) (A) (A) (A) (A) (A)
                 (A) (A) (A) (A) (A) (A) (A) (A) (A) (A) (A) (A)
                 (A) (A) (A) (A) (A) (A) (A) (A) (A) (A) (A) (A)
                 (A) (A) (A) (A) (A) (A) (A) (A) (A) (A) (A) (A)
                 (A) (A) (A) (A) (A) (A) (A) (A) (A) (A) (A) (A)
                 (A) (A) (A) (A) (A) (A) (A) (A) (A) (A) (A) (A)
                 (A) (A) (A) (A) (A) (A) (A) (A) (A) (A) (A) (A)
                 (A) (A) (A) (A) (A) (A) (A) (A) (A) (A) (A) (A)
                 (A) (A) (A) (A) (A) (A) (A) (A) (A) (A) (A) (A)
                 (A) (A) (A) (A) (A) (A) (A) (A) (A) (A) (A) (A)
                 (A) (A) (A) (A) (A) (A) (A) (A) (A) (A) (A) (A)
                 (A) (A) (A) (A) (A) (A) (A) (A) (A) (A) (A) (A)
                 (A) (A) (A) (A) (A) (A) (A) (A) (A) (A) (A) (A)
                 (A) (A) (A) (A) (A) (A) (A)
 The electronic state is 1-A.
 Alpha  occ. eigenvalues --  -19.25005 -19.21223 -19.20654 -14.53140 -14.51459
 Alpha  occ. eigenvalues --  -14.49374 -14.48841 -14.48651 -14.47079 -14.46645
 Alpha  occ. eigenvalues --  -14.46603 -14.45898 -14.44709 -14.44620 -14.43061
 Alpha  occ. eigenvalues --  -14.41681 -14.41612 -14.41365 -14.41270 -14.40864
 Alpha  occ. eigenvalues --  -10.44627 -10.40984 -10.40552 -10.39326 -10.38443
 Alpha  occ. eigenvalues --  -10.38298 -10.37706 -10.36882 -10.36224 -10.35999
 Alpha  occ. eigenvalues --  -10.34556 -10.34475 -10.34151 -10.33976 -10.33661
 Alpha  occ. eigenvalues --  -10.33400 -10.33298 -10.32777 -10.31607 -10.31192
 Alpha  occ. eigenvalues --  -10.30245 -10.28805 -10.28424  -1.18698  -1.15961
 Alpha  occ. eigenvalues --   -1.13355  -1.12247  -1.11474  -1.11006  -1.09950
 Alpha  occ. eigenvalues --   -1.08645  -1.08342  -1.05621  -1.05563  -1.01640
 Alpha  occ. eigenvalues --   -1.01544  -1.01063  -0.99732  -0.98656  -0.97647
 Alpha  occ. eigenvalues --   -0.97161  -0.96982  -0.93310  -0.90096  -0.88310
 Alpha  occ. eigenvalues --   -0.86484  -0.84768  -0.84066  -0.83069  -0.82651
 Alpha  occ. eigenvalues --   -0.82446  -0.78027  -0.77601  -0.75620  -0.74928
 Alpha  occ. eigenvalues --   -0.73737  -0.73271  -0.72509  -0.71545  -0.71003
 Alpha  occ. eigenvalues --   -0.67542  -0.67442  -0.66727  -0.65755  -0.64835
 Alpha  occ. eigenvalues --   -0.64548  -0.63422  -0.63221  -0.62662  -0.61951
 Alpha  occ. eigenvalues --   -0.61762  -0.61137  -0.60942  -0.60094  -0.58960
 Alpha  occ. eigenvalues --   -0.58813  -0.58682  -0.58343  -0.57092  -0.56202
 Alpha  occ. eigenvalues --   -0.55876  -0.55596  -0.55374  -0.54849  -0.54701
 Alpha  occ. eigenvalues --   -0.54253  -0.54073  -0.53472  -0.53168  -0.52929
 Alpha  occ. eigenvalues --   -0.52233  -0.51978  -0.51276  -0.50961  -0.50625
 Alpha  occ. eigenvalues --   -0.50349  -0.49912  -0.49553  -0.49377  -0.49124
 Alpha  occ. eigenvalues --   -0.48617  -0.48544  -0.48014  -0.47427  -0.47336
 Alpha  occ. eigenvalues --   -0.46997  -0.45737  -0.45174  -0.45014  -0.42037
 Alpha  occ. eigenvalues --   -0.41259  -0.41133  -0.38803  -0.38535  -0.38116
 Alpha  occ. eigenvalues --   -0.37973  -0.37218  -0.36578  -0.35414  -0.35173
 Alpha  occ. eigenvalues --   -0.34615  -0.34333  -0.33858  -0.33526  -0.33041
 Alpha  occ. eigenvalues --   -0.32876  -0.32389  -0.31950  -0.31054  -0.30969
 Alpha  occ. eigenvalues --   -0.30554  -0.30420  -0.26965  -0.24908
 Alpha virt. eigenvalues --    0.02988   0.04449   0.06225   0.06790   0.08527
 Alpha virt. eigenvalues --    0.09013   0.09439   0.09838   0.11181   0.12695
 Alpha virt. eigenvalues --    0.12999   0.13402   0.14107   0.14423   0.14799
 Alpha virt. eigenvalues --    0.15140   0.16204   0.17472   0.17978   0.18099
 Alpha virt. eigenvalues --    0.18557   0.19080   0.19560   0.20348   0.20470
 Alpha virt. eigenvalues --    0.20586   0.21011   0.21423   0.21943   0.22166
 Alpha virt. eigenvalues --    0.22547   0.22910   0.23173   0.23448   0.23770
 Alpha virt. eigenvalues --    0.23868   0.24102   0.25203   0.25493   0.26335
 Alpha virt. eigenvalues --    0.26588   0.27569   0.27826   0.28094   0.28357
 Alpha virt. eigenvalues --    0.28514   0.28737   0.29991   0.30699   0.31733
 Alpha virt. eigenvalues --    0.31893   0.32023   0.32706   0.33331   0.33945
 Alpha virt. eigenvalues --    0.34149   0.34781   0.35395   0.36203   0.36724
 Alpha virt. eigenvalues --    0.37077   0.37174   0.37849   0.38329   0.38744
 Alpha virt. eigenvalues --    0.39145   0.39984   0.40936   0.41077   0.41894
 Alpha virt. eigenvalues --    0.42084   0.42737   0.43232   0.43818   0.44069
 Alpha virt. eigenvalues --    0.45323   0.45684   0.45838   0.46568   0.46652
 Alpha virt. eigenvalues --    0.46814   0.47794   0.48469   0.48697   0.49002
 Alpha virt. eigenvalues --    0.49406   0.49757   0.50899   0.51372   0.51664
 Alpha virt. eigenvalues --    0.51997   0.52600   0.53283   0.53671   0.53935
 Alpha virt. eigenvalues --    0.54511   0.55114   0.55358   0.55647   0.56014
 Alpha virt. eigenvalues --    0.56252   0.56395   0.56676   0.56880   0.57477
 Alpha virt. eigenvalues --    0.57946   0.58769   0.58880   0.59321   0.60126
 Alpha virt. eigenvalues --    0.60624   0.60806   0.61068   0.61635   0.61871
 Alpha virt. eigenvalues --    0.62317   0.62833   0.63185   0.63470   0.63756
 Alpha virt. eigenvalues --    0.64458   0.65139   0.65550   0.65758   0.65999
 Alpha virt. eigenvalues --    0.66118   0.66958   0.67682   0.68297   0.68470
 Alpha virt. eigenvalues --    0.68683   0.69410   0.69812   0.70128   0.70572
 Alpha virt. eigenvalues --    0.70702   0.71414   0.71829   0.72669   0.73090
 Alpha virt. eigenvalues --    0.73325   0.73876   0.74262   0.74518   0.74665
 Alpha virt. eigenvalues --    0.74880   0.75001   0.75481   0.75818   0.76091
 Alpha virt. eigenvalues --    0.76243   0.76527   0.77344   0.77476   0.77821
 Alpha virt. eigenvalues --    0.78381   0.78781   0.79251   0.79351   0.79461
 Alpha virt. eigenvalues --    0.79823   0.80176   0.80753   0.81171   0.81357
 Alpha virt. eigenvalues --    0.82060   0.82188   0.82605   0.83315   0.83537
 Alpha virt. eigenvalues --    0.84194   0.84740   0.84909   0.85660   0.85856
 Alpha virt. eigenvalues --    0.86583   0.87031   0.87219   0.87670   0.87948
 Alpha virt. eigenvalues --    0.88373   0.88915   0.89080   0.89375   0.90639
 Alpha virt. eigenvalues --    0.90867   0.91133   0.91803   0.91860   0.92350
 Alpha virt. eigenvalues --    0.93110   0.93925   0.94355   0.94551   0.95272
 Alpha virt. eigenvalues --    0.95431   0.96005   0.96353   0.96920   0.97347
 Alpha virt. eigenvalues --    0.98054   0.98214   0.98806   0.99363   0.99686
 Alpha virt. eigenvalues --    1.00274   1.00728   1.00994   1.01723   1.02601
 Alpha virt. eigenvalues --    1.02747   1.03239   1.03521   1.03996   1.04253
 Alpha virt. eigenvalues --    1.05163   1.05758   1.05935   1.06284   1.07407
 Alpha virt. eigenvalues --    1.07688   1.08419   1.08435   1.09594   1.09938
 Alpha virt. eigenvalues --    1.10550   1.10796   1.11586   1.11849   1.12191
 Alpha virt. eigenvalues --    1.12481   1.13213   1.13472   1.14169   1.14590
 Alpha virt. eigenvalues --    1.14712   1.15349   1.15807   1.16117   1.16408
 Alpha virt. eigenvalues --    1.17105   1.17271   1.17650   1.17970   1.18752
 Alpha virt. eigenvalues --    1.19013   1.19248   1.19718   1.20305   1.20770
 Alpha virt. eigenvalues --    1.21195   1.21364   1.21682   1.22238   1.22355
 Alpha virt. eigenvalues --    1.22633   1.23218   1.23627   1.24347   1.24702
 Alpha virt. eigenvalues --    1.25039   1.25644   1.26621   1.27176   1.27292
 Alpha virt. eigenvalues --    1.27972   1.29046   1.29322   1.29610   1.29971
 Alpha virt. eigenvalues --    1.30778   1.31430   1.32228   1.32758   1.32777
 Alpha virt. eigenvalues --    1.33801   1.34068   1.34606   1.35176   1.35388
 Alpha virt. eigenvalues --    1.36334   1.36980   1.37650   1.38219   1.38955
 Alpha virt. eigenvalues --    1.40167   1.41389   1.41687   1.42077   1.42847
 Alpha virt. eigenvalues --    1.42987   1.44378   1.45091   1.45599   1.46354
 Alpha virt. eigenvalues --    1.47456   1.47829   1.48458   1.48996   1.49928
 Alpha virt. eigenvalues --    1.50428   1.50930   1.52149   1.52870   1.53147
 Alpha virt. eigenvalues --    1.54215   1.54587   1.55363   1.56030   1.56364
 Alpha virt. eigenvalues --    1.56949   1.57237   1.58360   1.59011   1.60349
 Alpha virt. eigenvalues --    1.60637   1.61102   1.61157   1.61841   1.62531
 Alpha virt. eigenvalues --    1.62913   1.63240   1.64174   1.64574   1.65781
 Alpha virt. eigenvalues --    1.66193   1.66715   1.67555   1.67911   1.67973
 Alpha virt. eigenvalues --    1.69117   1.69627   1.69931   1.70389   1.70676
 Alpha virt. eigenvalues --    1.70752   1.71131   1.72261   1.72770   1.73101
 Alpha virt. eigenvalues --    1.73333   1.73884   1.74204   1.74452   1.74719
 Alpha virt. eigenvalues --    1.75415   1.75556   1.76038   1.76348   1.76536
 Alpha virt. eigenvalues --    1.76929   1.77350   1.77601   1.78216   1.78572
 Alpha virt. eigenvalues --    1.78790   1.78949   1.79807   1.80233   1.80325
 Alpha virt. eigenvalues --    1.80412   1.80719   1.81767   1.82186   1.82364
 Alpha virt. eigenvalues --    1.82928   1.83254   1.83826   1.84101   1.84385
 Alpha virt. eigenvalues --    1.85021   1.85779   1.85961   1.86184   1.86565
 Alpha virt. eigenvalues --    1.86869   1.87450   1.87942   1.88234   1.88733
 Alpha virt. eigenvalues --    1.89012   1.89941   1.90196   1.91058   1.91251
 Alpha virt. eigenvalues --    1.91799   1.92360   1.92840   1.93108   1.93473
 Alpha virt. eigenvalues --    1.94207   1.94611   1.95286   1.95642   1.96007
 Alpha virt. eigenvalues --    1.97031   1.97575   1.97621   1.98554   1.99106
 Alpha virt. eigenvalues --    2.00979   2.01625   2.02094   2.02803   2.03516
 Alpha virt. eigenvalues --    2.03676   2.04156   2.04381   2.04877   2.05361
 Alpha virt. eigenvalues --    2.06005   2.06844   2.07227   2.08478   2.08850
 Alpha virt. eigenvalues --    2.09667   2.10490   2.10893   2.12468   2.12758
 Alpha virt. eigenvalues --    2.13448   2.13658   2.14027   2.15845   2.16127
 Alpha virt. eigenvalues --    2.16980   2.17497   2.18094   2.19263   2.20476
 Alpha virt. eigenvalues --    2.20865   2.21680   2.22285   2.22388   2.22942
 Alpha virt. eigenvalues --    2.23514   2.24191   2.24930   2.26003   2.26214
 Alpha virt. eigenvalues --    2.26848   2.27296   2.27670   2.28050   2.28803
 Alpha virt. eigenvalues --    2.29131   2.29706   2.30415   2.30649   2.31421
 Alpha virt. eigenvalues --    2.31641   2.31878   2.32799   2.33218   2.33632
 Alpha virt. eigenvalues --    2.34171   2.34579   2.35404   2.35724   2.36053
 Alpha virt. eigenvalues --    2.36238   2.37031   2.37937   2.38435   2.39808
 Alpha virt. eigenvalues --    2.39989   2.40499   2.41529   2.41765   2.42761
 Alpha virt. eigenvalues --    2.42833   2.43805   2.44490   2.44885   2.45225
 Alpha virt. eigenvalues --    2.45379   2.46030   2.46551   2.48243   2.48568
 Alpha virt. eigenvalues --    2.49260   2.50070   2.51269   2.52162   2.53162
 Alpha virt. eigenvalues --    2.53683   2.55432   2.56317   2.56453   2.57176
 Alpha virt. eigenvalues --    2.58458   2.59328   2.59769   2.60238   2.61217
 Alpha virt. eigenvalues --    2.61734   2.63531   2.64173   2.64968   2.65528
 Alpha virt. eigenvalues --    2.65726   2.66389   2.66752   2.67342   2.68263
 Alpha virt. eigenvalues --    2.68575   2.69555   2.69874   2.70922   2.71138
 Alpha virt. eigenvalues --    2.71406   2.72730   2.73387   2.73615   2.74622
 Alpha virt. eigenvalues --    2.75899   2.76735   2.77129   2.77600   2.78129
 Alpha virt. eigenvalues --    2.78788   2.79087   2.79339   2.79532   2.79963
 Alpha virt. eigenvalues --    2.80760   2.81105   2.81653   2.82444   2.83046
 Alpha virt. eigenvalues --    2.83690   2.84397   2.84709   2.85172   2.85672
 Alpha virt. eigenvalues --    2.86592   2.86965   2.87319   2.88246   2.88932
 Alpha virt. eigenvalues --    2.89794   2.90075   2.91107   2.94066   2.94999
 Alpha virt. eigenvalues --    2.96191   2.97838   2.98833   3.00037   3.01461
 Alpha virt. eigenvalues --    3.02098   3.03144   3.04387   3.05943   3.06431
 Alpha virt. eigenvalues --    3.09017   3.09905   3.10836   3.12404   3.15253
 Alpha virt. eigenvalues --    3.16242   3.16424   3.17334   3.19729   3.21354
 Alpha virt. eigenvalues --    3.22445   3.23876   3.25153   3.26448   3.27620
 Alpha virt. eigenvalues --    3.44046   3.47292   3.48248   3.49059   3.51313
 Alpha virt. eigenvalues --    3.53195   3.54728   3.56808   3.58567   3.60621
 Alpha virt. eigenvalues --    3.64430   3.71824   3.75936
          Condensed to atoms (all electrons):
 Mulliken charges:
               1
     1  N   -0.296407
     2  C    0.190239
     3  C    0.062717
     4  N   -0.254301
     5  C    0.148115
     6  H    0.027536
     7  N   -0.279675
     8  C    0.134626
     9  H   -0.001273
    10  N   -0.266320
    11  C    0.223451
    12  C    0.072517
    13  N   -0.057122
    14  H    0.112575
    15  H    0.084016
    16  H    0.025643
    17  H    0.032502
    18  H    0.003251
    19  N   -0.297285
    20  C    0.236153
    21  C    0.183496
    22  N   -0.093432
    23  H    0.121969
    24  H    0.119767
    25  N   -0.260296
    26  C    0.143801
    27  N   -0.099678
    28  H    0.120136
    29  C    0.172518
    30  O   -0.318943
    31  C    0.002086
    32  N   -0.209775
    33  C    0.087853
    34  H    0.028658
    35  H    0.008887
    36  H    0.035374
    37  H    0.027771
    38  H    0.033621
    39  H    0.037726
    40  H    0.074355
    41  H    0.022385
    42  C   -0.100489
    43  O   -0.269730
    44  C    0.174652
    45  H    0.130982
    46  N   -0.118967
    47  O   -0.342913
    48  C    0.318787
    49  H    0.046555
    50  C    0.154956
    51  C    0.087247
    52  N   -0.274931
    53  H    0.037645
    54  H    0.042044
    55  H    0.032081
    56  H    0.122669
    57  H    0.120481
    58  N   -0.060556
    59  C    0.107384
    60  C    0.203070
    61  N   -0.276421
    62  H    0.028940
    63  C    0.167884
    64  N   -0.308289
    65  H    0.039900
    66  C    0.137140
    67  N   -0.253304
    68  C    0.041827
    69  C    0.178702
    70  N   -0.306579
 Sum of Mulliken charges =  -0.00000
 Mulliken charges with hydrogens summed into heavy atoms:
               1
     1  N   -0.296407
     2  C    0.251635
     3  C    0.062717
     4  N   -0.254301
     5  C    0.175651
     7  N   -0.279675
     8  C    0.133353
    10  N   -0.266320
    11  C    0.223451
    12  C    0.072517
    13  N    0.139469
    19  N   -0.297285
    20  C    0.236153
    21  C    0.255528
    22  N    0.148304
    25  N   -0.260296
    26  C    0.143801
    27  N    0.020457
    29  C    0.172518
    30  O   -0.318943
    31  C    0.002086
    32  N   -0.209775
    33  C    0.116511
    42  C   -0.078104
    43  O   -0.269730
    44  C    0.174652
    46  N    0.012015
    47  O   -0.342913
    48  C    0.318787
    50  C    0.201511
    51  C    0.232948
    52  N   -0.274931
    58  N    0.182594
    59  C    0.107384
    60  C    0.203070
    61  N   -0.276421
    63  C    0.196824
    64  N   -0.308289
    66  C    0.177039
    67  N   -0.253304
    68  C    0.041827
    69  C    0.290471
    70  N   -0.306579
 Electronic spatial extent (au):  <R**2>=          22406.0296
 Charge=             -0.0000 electrons
 Dipole moment (field-independent basis, Debye):
    X=             -6.0433    Y=              7.6314    Z=             -2.4683  Tot=             10.0425
 Quadrupole moment (field-independent basis, Debye-Ang):
   XX=           -149.0861   YY=           -232.9149   ZZ=           -255.2788
   XY=             -1.5715   XZ=            -11.4555   YZ=             17.0827
 Traceless Quadrupole moment (field-independent basis, Debye-Ang):
   XX=             63.3405   YY=            -20.4883   ZZ=            -42.8522
   XY=             -1.5715   XZ=            -11.4555   YZ=             17.0827
 Octapole moment (field-independent basis, Debye-Ang**2):
  XXX=             72.5972  YYY=            110.0406  ZZZ=              6.2760  XYY=           -109.2849
  XXY=            139.8787  XXZ=            -32.7906  XZZ=            -22.6326  YZZ=             15.2836
  YYZ=            -57.3626  XYZ=             22.8509
 Hexadecapole moment (field-independent basis, Debye-Ang**3):
 XXXX=         -17209.0098 YYYY=          -3831.1888 ZZZZ=          -3450.8031 XXXY=           -701.9876
 XXXZ=           -272.5975 YYYX=             46.2635 YYYZ=            180.0424 ZZZX=            -66.2725
 ZZZY=             49.2846 XXYY=          -3693.2118 XXZZ=          -4174.5993 YYZZ=          -1316.9902
 XXYZ=             63.6943 YYXZ=            105.8459 ZZXY=             11.5846
 N-N= 5.611715011422D+03 E-N=-1.600380330078D+04  KE= 2.038105090786D+03
 No NMR shielding tensors so no spin-rotation constants.
 Leave Link  601 at Fri Jan 19 21:01:03 2018, MaxMem=  4294967296 cpu:              48.7 elap:               1.7
 (Enter /share/apps/g16/l9999.exe)
 1\1\GINC-COMPUTE-0-3\SP\RwB97XD\CC-pVDZ\C23H27N17O3\SATYA\19-Jan-2018\
 0\\#p wb97xd/cc-pvdz sp scf=(maxcycles=20)\\Base pair stacking\\0,1\N,
 0,-0.3179,1.85915,-6.27992\C,0,-0.30986,3.32576,-6.11565\C,0,-0.91431,
 -0.25783,-6.27576\N,0,0.36926,-0.21727,-6.80068\C,0,0.6772,1.0565,-6.7
 8218\H,0,1.62562,1.47014,-7.1262\N,0,-3.00763,-1.01779,-5.49897\C,0,-3
 .28942,0.26253,-5.23642\H,0,-4.27478,0.44364,-4.8092\N,0,-2.54028,1.34
 763,-5.42149\C,0,-1.35119,1.01442,-5.95014\C,0,-1.80305,-1.32033,-6.03
 051\N,0,-1.51991,-2.59781,-6.2933\H,0,-0.64049,-2.86776,-6.68696\H,0,-
 2.17681,-3.32818,-6.10574\H,0,-0.18126,3.76162,-7.00653\H,0,-1.17973,3
 .62269,-5.72285\H,0,0.43707,3.59087,-5.50588\N,0,-0.41027,2.97295,-3.0
 5828\C,0,-1.12765,1.8087,-2.92438\C,0,-0.96753,4.33624,-2.95058\N,0,-4
 .14326,0.18236,-2.35617\H,0,-4.4735,-0.75916,-2.29519\H,0,-4.81836,0.9
 0922,-2.2272\N,0,-2.4515,1.71527,-2.67393\C,0,-2.85327,0.45879,-2.5999
 2\N,0,-2.02364,-0.62472,-2.75872\H,0,-2.41801,-1.54997,-2.68557\C,0,-0
 .6584,-0.55216,-3.01703\O,0,0.0005,-1.59168,-3.14345\C,0,-0.21215,0.79
 133,-3.09933\N,0,1.0545,1.3065,-3.33826\C,0,0.88878,2.60096,-3.30479\H
 ,0,1.6834,3.33279,-3.45402\H,0,-0.81948,4.82736,-3.8083\H,0,-1.94767,4
 .27969,-2.76514\H,0,-0.51594,4.82476,-2.20478\H,0,-5.10473,-5.8638,-2.
 84422\H,0,-4.55265,-6.0249,-1.17872\H,0,-4.83272,-4.42345,-1.86301\H,0
 ,-0.59684,-7.38762,-3.55382\C,0,-1.12626,-6.47207,-3.28977\O,0,0.71469
 ,-5.05279,-3.76271\C,0,-0.44785,-5.21633,-3.39318\H,0,-0.76301,-3.2162
 7,-3.09524\N,0,-1.2081,-4.12127,-3.03525\O,0,-3.10167,-3.0996,-2.30875
 \C,0,-2.51089,-4.12366,-2.60364\H,0,-2.9575,-7.43561,-2.77597\C,0,-2.3
 9701,-6.50663,-2.8719\C,0,-4.48802,-5.42481,-2.07414\N,0,-3.09631,-5.3
 723,-2.53037\H,0,-8.68009,-6.32316,-3.9632\H,0,-7.7427,-5.26655,-3.146
 51\H,0,-7.89991,-6.80057,-2.6116\H,0,-1.85572,-6.21203,-6.87544\H,0,-2
 .81337,-7.62269,-6.82028\N,0,-2.68749,-6.66595,-6.55566\C,0,-3.58935,-
 6.02484,-5.80948\C,0,-5.61191,-5.82443,-4.57221\N,0,-5.41653,-4.53969,
 -4.23207\H,0,-4.03125,-3.05455,-4.50763\C,0,-4.26836,-4.09259,-4.73675
 \N,0,-3.36372,-4.73315,-5.48434\H,0,-7.12204,-8.67984,-4.70762\C,0,-6.
 42842,-7.8452,-4.81351\N,0,-5.30126,-7.89299,-5.48052\C,0,-4.77355,-6.
 61814,-5.33555\C,0,-7.84354,-6.22126,-3.42486\N,0,-6.67953,-6.62351,-4
 .23806\\Version=EM64L-G16RevA.03\State=1-A\HF=-2048.7030532\RMSD=7.737
 e-09\Dipole=-3.8543203,-0.7658428,0.4103622\Quadrupole=-15.7196501,34.
 7289075,-19.0092574,27.7670502,-16.9296578,-1.6344663\PG=C01 [X(C23H27
 N17O3)]\\@


          EVOLUTION
 IN THE BEGINNING GOD MADE MAN.
 HE WORKED THE DIRT WITH HIS HANDS.
 THEN GOD DECIDED TO GIVE MAN SCIENCE,
 MAN SHOULD BE USEFUL (LIKE AN APPLIANCE.)
 BUT SOON MAN'S KNOWLEDGE GREW TOO GREAT,
 TO THE HEADING SCIENCE HE COULDN'T RELATE
 SO GOD SAID "LETS HAVE DIFFERENT FIELDS,
 WE'LL DIVIDE THEM UP, SEE WHAT IT YIELDS."
 ENTER PHYSICS, CHEMISTRY, BIO
 THEY SPRANG UP AROUND THE NILE.
 BUT CHEMISTRY SURPASSED THE REST
 FAR AND AWAY IT WAS THE BEST.
 EXPERIMENT WAS GOD'S DECREE
 EXPERIMENT DID CHEMISTS WITH LOTS OF GLEE
 BUT SOON THEIR TESTS BEGAN TO BOG,
 THEY FOUND THEMSELVES DEEP IN A FOG.
 "GIVE US SOME HELP" THEY CRIED TO GOD.
 GOD LOOKED AROUND, THEN GAVE THE NOD.
 ENTER EINSTEIN, HEISENBERG, BOHR,
 REACTION PATHS WERE CLEAR ONCE MORE.
 WITH THEORISTS GOD SEND DIRECTION
 AND THEN HE STOPPED, HE'D MADE PERFECTION.
          -- THOMAS A. HOLME, 1981
 Job cpu time:       0 days  6 hours 29 minutes 18.9 seconds.
 Elapsed time:       0 days  0 hours 12 minutes 36.9 seconds.
 File lengths (MBytes):  RWF=    298 Int=      0 D2E=      0 Chk=     33 Scr=      1
 Normal termination of Gaussian 16 at Fri Jan 19 21:01:03 2018.
