 Entering Gaussian System, Link 0=g16
 Input=str20.20.2.0.com
 Output=str20.20.2.0.log
 Initial command:
 /share/apps/g16/l1.exe "/state/partition1/scr/Gau-26383.inp" -scrdir="/state/partition1/scr/"
 Entering Link 1 = /share/apps/g16/l1.exe PID=     26384.
  
 Copyright (c) 1988,1990,1992,1993,1995,1998,2003,2009,2016,
            Gaussian, Inc.  All Rights Reserved.
  
 This is part of the Gaussian(R) 16 program.  It is based on
 the Gaussian(R) 09 system (copyright 2009, Gaussian, Inc.),
 the Gaussian(R) 03 system (copyright 2003, Gaussian, Inc.),
 the Gaussian(R) 98 system (copyright 1998, Gaussian, Inc.),
 the Gaussian(R) 94 system (copyright 1995, Gaussian, Inc.),
 the Gaussian 92(TM) system (copyright 1992, Gaussian, Inc.),
 the Gaussian 90(TM) system (copyright 1990, Gaussian, Inc.),
 the Gaussian 88(TM) system (copyright 1988, Gaussian, Inc.),
 the Gaussian 86(TM) system (copyright 1986, Carnegie Mellon
 University), and the Gaussian 82(TM) system (copyright 1983,
 Carnegie Mellon University). Gaussian is a federally registered
 trademark of Gaussian, Inc.
  
 This software contains proprietary and confidential information,
 including trade secrets, belonging to Gaussian, Inc.
  
 This software is provided under written license and may be
 used, copied, transmitted, or stored only in accord with that
 written license.
  
 The following legend is applicable only to US Government
 contracts under FAR:
  
                    RESTRICTED RIGHTS LEGEND
  
 Use, reproduction and disclosure by the US Government is
 subject to restrictions as set forth in subparagraphs (a)
 and (c) of the Commercial Computer Software - Restricted
 Rights clause in FAR 52.227-19.
  
 Gaussian, Inc.
 340 Quinnipiac St., Bldg. 40, Wallingford CT 06492
  
  
 ---------------------------------------------------------------
 Warning -- This program may not be used in any manner that
 competes with the business of Gaussian, Inc. or will provide
 assistance to any competitor of Gaussian, Inc.  The licensee
 of this program is prohibited from giving any competitor of
 Gaussian, Inc. access to this program.  By using this program,
 the user acknowledges that Gaussian, Inc. is engaged in the
 business of creating and licensing software in the field of
 computational chemistry and represents and warrants to the
 licensee that it is not a competitor of Gaussian, Inc. and that
 it will not use this program in any manner prohibited above.
 ---------------------------------------------------------------
  

 Cite this work as:
 Gaussian 16, Revision A.03,
 M. J. Frisch, G. W. Trucks, H. B. Schlegel, G. E. Scuseria, 
 M. A. Robb, J. R. Cheeseman, G. Scalmani, V. Barone, 
 G. A. Petersson, H. Nakatsuji, X. Li, M. Caricato, A. V. Marenich, 
 J. Bloino, B. G. Janesko, R. Gomperts, B. Mennucci, H. P. Hratchian, 
 J. V. Ortiz, A. F. Izmaylov, J. L. Sonnenberg, D. Williams-Young, 
 F. Ding, F. Lipparini, F. Egidi, J. Goings, B. Peng, A. Petrone, 
 T. Henderson, D. Ranasinghe, V. G. Zakrzewski, J. Gao, N. Rega, 
 G. Zheng, W. Liang, M. Hada, M. Ehara, K. Toyota, R. Fukuda, 
 J. Hasegawa, M. Ishida, T. Nakajima, Y. Honda, O. Kitao, H. Nakai, 
 T. Vreven, K. Throssell, J. A. Montgomery, Jr., J. E. Peralta, 
 F. Ogliaro, M. J. Bearpark, J. J. Heyd, E. N. Brothers, K. N. Kudin, 
 V. N. Staroverov, T. A. Keith, R. Kobayashi, J. Normand, 
 K. Raghavachari, A. P. Rendell, J. C. Burant, S. S. Iyengar, 
 J. Tomasi, M. Cossi, J. M. Millam, M. Klene, C. Adamo, R. Cammi, 
 J. W. Ochterski, R. L. Martin, K. Morokuma, O. Farkas, 
 J. B. Foresman, and D. J. Fox, Gaussian, Inc., Wallingford CT, 2016.
 
 ******************************************
 Gaussian 16:  EM64L-G16RevA.03 25-Dec-2016
                20-Jan-2018 
 ******************************************
 %nprocshared=32
 Will use up to   32 processors via shared memory.
 %mem=32GB
 %chk=allatoms_t.chk
 ---------------------------------------
 #p wb97xd/cc-pvdz sp scf=(maxcycles=20)
 ---------------------------------------
 1/38=1,172=1/1;
 2/12=2,17=6,18=5,40=1/2;
 3/5=16,11=2,25=1,30=1,74=-58/1,2,3;
 4//1;
 5/5=2,7=20,38=5/2;
 6/7=2,8=2,9=2,10=2,28=1/1;
 99/5=1,9=1/99;
 Leave Link    1 at Sat Jan 20 01:40:41 2018, MaxMem=  4294967296 cpu:               2.7 elap:               0.1
 (Enter /share/apps/g16/l101.exe)
 ------------------
 Base pair stacking
 ------------------
 Symbolic Z-matrix:
 Charge =  0 Multiplicity = 1
 N                     3.5158    1.15873  -5.84275 
 C                     3.6959    2.56776  -6.24302 
 C                     2.78135  -0.90817  -5.6821 
 N                     3.82758  -0.79669  -4.77783 
 C                     4.22818   0.44409  -4.91081 
 H                     5.04664   0.89494  -4.34886 
 N                     0.99298  -1.75636  -6.96477 
 C                     0.91588  -0.54263  -7.52019 
 H                     0.13784  -0.42437  -8.27313 
 N                     1.65213   0.54186  -7.28625 
 C                     2.57746   0.28904  -6.3459 
 C                     1.93452  -1.97886  -6.02186 
 N                     2.01305  -3.18978  -5.46627 
 H                     2.69462  -3.39934  -4.7643 
 H                     1.39363  -3.92837  -5.73262 
 H                     4.61839   2.69699  -6.60702 
 H                     3.02528   2.80377  -6.94564 
 H                     3.56674   3.16123  -5.4486 
 N                     0.6415    2.9718   -3.44082 
 C                    -0.0666    1.80724  -3.61534 
 C                     0.16374   4.32293  -3.79703 
 N                    -2.93898   0.16243  -4.66689 
 H                    -3.27787  -0.77711  -4.70777 
 H                    -3.54723   0.87942  -5.00845 
 N                    -1.30779   1.70244  -4.13735 
 C                    -1.72362   0.44896  -4.17627 
 N                    -0.9822   -0.62143  -3.73801 
 H                    -1.38056  -1.54535  -3.8062 
 C                     0.29703  -0.53702  -3.19737 
 O                     0.88017  -1.56517  -2.83188 
 C                     0.75725   0.80341  -3.14906 
 N                     1.95839   1.32723  -2.69103 
 C                     1.84465   2.6134   -2.88347 
 H                     2.6112    3.3485   -2.63589 
 H                     0.78044   4.72964  -4.47014 
 H                    -0.7548    4.25789  -4.18475 
 H                     0.13912   4.89609  -2.97868 
 H                    -3.66325  -5.92668  -5.00865 
 H                    -4.13804  -5.90474  -3.31197 
 H                    -3.93682  -4.3883   -4.19018 
 H                     0.42301  -7.38748  -2.93137 
 C                    -0.13339  -6.46523  -3.099 
 O                     1.70431  -5.04961  -2.60306 
 C                     0.52837  -5.2077   -2.93008 
 H                     0.16644  -3.19744  -3.05735 
 N                    -0.26601  -4.10396  -3.16665 
 O                    -2.20859  -3.06794  -3.72364 
 C                    -1.58764  -4.09948  -3.53654 
 H                    -1.97086  -7.42321  -3.6008 
 C                    -1.42184  -6.49322  -3.45919 
 C                    -3.56599  -5.39576  -4.07338 
 N                    -2.15521  -5.35037  -3.67919 
 H                    -4.06609  -7.23859  -9.6168 
 H                    -4.11549  -5.80899  -8.83202 
 H                    -4.98192  -7.07551  -8.27588 
 H                     1.57857  -6.78278  -4.82143 
 H                     0.78897  -8.25146  -5.18144 
 N                     0.82538  -7.25621  -5.27828 
 C                    -0.09028  -6.5909   -5.98544 
 C                    -2.03569  -6.38575  -7.34008 
 N                    -1.9617   -5.04926  -7.45297 
 H                    -0.771    -3.50241  -6.82839 
 C                    -0.90632  -4.5824   -6.78879 
 N                     0.01194  -5.24713  -6.07992 
 H                    -3.22567  -9.35792  -7.78985 
 C                    -2.63744  -8.48874  -7.49414 
 N                    -1.55885  -8.53662  -6.75114 
 C                    -1.16722  -7.20988  -6.64575 
 C                    -4.1282   -6.80209  -8.71925 
 N                    -2.98353  -7.21855  -7.88601 
 
 ITRead=  0  0  0  0  0  0  0  0  0  0  0  0  0  0  0  0  0  0  0  0
 ITRead=  0  0  0  0  0  0  0  0  0  0  0  0  0  0  0  0  0  0  0  0
 ITRead=  0  0  0  0  0  0  0  0  0  0  0  0  0  0  0  0  0  0  0  0
 ITRead=  0  0  0  0  0  0  0  0  0  0
 MicOpt= -1 -1 -1 -1 -1 -1 -1 -1 -1 -1 -1 -1 -1 -1 -1 -1 -1 -1 -1 -1
 MicOpt= -1 -1 -1 -1 -1 -1 -1 -1 -1 -1 -1 -1 -1 -1 -1 -1 -1 -1 -1 -1
 MicOpt= -1 -1 -1 -1 -1 -1 -1 -1 -1 -1 -1 -1 -1 -1 -1 -1 -1 -1 -1 -1
 MicOpt= -1 -1 -1 -1 -1 -1 -1 -1 -1 -1
 NAtoms=     70 NQM=       70 NQMF=       0 NMMI=      0 NMMIF=      0
                NMic=       0 NMicF=      0.
                    Isotopes and Nuclear Properties:
 (Nuclear quadrupole moments (NQMom) in fm**2, nuclear magnetic moments (NMagM)
  in nuclear magnetons)

  Atom         1           2           3           4           5           6           7           8           9          10
 IAtWgt=          14          12          12          14          12           1          14          12           1          14
 AtmWgt=  14.0030740  12.0000000  12.0000000  14.0030740  12.0000000   1.0078250  14.0030740  12.0000000   1.0078250  14.0030740
 NucSpn=           2           0           0           2           0           1           2           0           1           2
 AtZEff=  -0.0000000  -0.0000000  -0.0000000  -0.0000000  -0.0000000  -0.0000000  -0.0000000  -0.0000000  -0.0000000  -0.0000000
 NQMom=    2.0440000   0.0000000   0.0000000   2.0440000   0.0000000   0.0000000   2.0440000   0.0000000   0.0000000   2.0440000
 NMagM=    0.4037610   0.0000000   0.0000000   0.4037610   0.0000000   2.7928460   0.4037610   0.0000000   2.7928460   0.4037610
 AtZNuc=   7.0000000   6.0000000   6.0000000   7.0000000   6.0000000   1.0000000   7.0000000   6.0000000   1.0000000   7.0000000

  Atom        11          12          13          14          15          16          17          18          19          20
 IAtWgt=          12          12          14           1           1           1           1           1          14          12
 AtmWgt=  12.0000000  12.0000000  14.0030740   1.0078250   1.0078250   1.0078250   1.0078250   1.0078250  14.0030740  12.0000000
 NucSpn=           0           0           2           1           1           1           1           1           2           0
 AtZEff=  -0.0000000  -0.0000000  -0.0000000  -0.0000000  -0.0000000  -0.0000000  -0.0000000  -0.0000000  -0.0000000  -0.0000000
 NQMom=    0.0000000   0.0000000   2.0440000   0.0000000   0.0000000   0.0000000   0.0000000   0.0000000   2.0440000   0.0000000
 NMagM=    0.0000000   0.0000000   0.4037610   2.7928460   2.7928460   2.7928460   2.7928460   2.7928460   0.4037610   0.0000000
 AtZNuc=   6.0000000   6.0000000   7.0000000   1.0000000   1.0000000   1.0000000   1.0000000   1.0000000   7.0000000   6.0000000

  Atom        21          22          23          24          25          26          27          28          29          30
 IAtWgt=          12          14           1           1          14          12          14           1          12          16
 AtmWgt=  12.0000000  14.0030740   1.0078250   1.0078250  14.0030740  12.0000000  14.0030740   1.0078250  12.0000000  15.9949146
 NucSpn=           0           2           1           1           2           0           2           1           0           0
 AtZEff=  -0.0000000  -0.0000000  -0.0000000  -0.0000000  -0.0000000  -0.0000000  -0.0000000  -0.0000000  -0.0000000  -0.0000000
 NQMom=    0.0000000   2.0440000   0.0000000   0.0000000   2.0440000   0.0000000   2.0440000   0.0000000   0.0000000   0.0000000
 NMagM=    0.0000000   0.4037610   2.7928460   2.7928460   0.4037610   0.0000000   0.4037610   2.7928460   0.0000000   0.0000000
 AtZNuc=   6.0000000   7.0000000   1.0000000   1.0000000   7.0000000   6.0000000   7.0000000   1.0000000   6.0000000   8.0000000

  Atom        31          32          33          34          35          36          37          38          39          40
 IAtWgt=          12          14          12           1           1           1           1           1           1           1
 AtmWgt=  12.0000000  14.0030740  12.0000000   1.0078250   1.0078250   1.0078250   1.0078250   1.0078250   1.0078250   1.0078250
 NucSpn=           0           2           0           1           1           1           1           1           1           1
 AtZEff=  -0.0000000  -0.0000000  -0.0000000  -0.0000000  -0.0000000  -0.0000000  -0.0000000  -0.0000000  -0.0000000  -0.0000000
 NQMom=    0.0000000   2.0440000   0.0000000   0.0000000   0.0000000   0.0000000   0.0000000   0.0000000   0.0000000   0.0000000
 NMagM=    0.0000000   0.4037610   0.0000000   2.7928460   2.7928460   2.7928460   2.7928460   2.7928460   2.7928460   2.7928460
 AtZNuc=   6.0000000   7.0000000   6.0000000   1.0000000   1.0000000   1.0000000   1.0000000   1.0000000   1.0000000   1.0000000

  Atom        41          42          43          44          45          46          47          48          49          50
 IAtWgt=           1          12          16          12           1          14          16          12           1          12
 AtmWgt=   1.0078250  12.0000000  15.9949146  12.0000000   1.0078250  14.0030740  15.9949146  12.0000000   1.0078250  12.0000000
 NucSpn=           1           0           0           0           1           2           0           0           1           0
 AtZEff=  -0.0000000  -0.0000000  -0.0000000  -0.0000000  -0.0000000  -0.0000000  -0.0000000  -0.0000000  -0.0000000  -0.0000000
 NQMom=    0.0000000   0.0000000   0.0000000   0.0000000   0.0000000   2.0440000   0.0000000   0.0000000   0.0000000   0.0000000
 NMagM=    2.7928460   0.0000000   0.0000000   0.0000000   2.7928460   0.4037610   0.0000000   0.0000000   2.7928460   0.0000000
 AtZNuc=   1.0000000   6.0000000   8.0000000   6.0000000   1.0000000   7.0000000   8.0000000   6.0000000   1.0000000   6.0000000

  Atom        51          52          53          54          55          56          57          58          59          60
 IAtWgt=          12          14           1           1           1           1           1          14          12          12
 AtmWgt=  12.0000000  14.0030740   1.0078250   1.0078250   1.0078250   1.0078250   1.0078250  14.0030740  12.0000000  12.0000000
 NucSpn=           0           2           1           1           1           1           1           2           0           0
 AtZEff=  -0.0000000  -0.0000000  -0.0000000  -0.0000000  -0.0000000  -0.0000000  -0.0000000  -0.0000000  -0.0000000  -0.0000000
 NQMom=    0.0000000   2.0440000   0.0000000   0.0000000   0.0000000   0.0000000   0.0000000   2.0440000   0.0000000   0.0000000
 NMagM=    0.0000000   0.4037610   2.7928460   2.7928460   2.7928460   2.7928460   2.7928460   0.4037610   0.0000000   0.0000000
 AtZNuc=   6.0000000   7.0000000   1.0000000   1.0000000   1.0000000   1.0000000   1.0000000   7.0000000   6.0000000   6.0000000

  Atom        61          62          63          64          65          66          67          68          69          70
 IAtWgt=          14           1          12          14           1          12          14          12          12          14
 AtmWgt=  14.0030740   1.0078250  12.0000000  14.0030740   1.0078250  12.0000000  14.0030740  12.0000000  12.0000000  14.0030740
 NucSpn=           2           1           0           2           1           0           2           0           0           2
 AtZEff=  -0.0000000  -0.0000000  -0.0000000  -0.0000000  -0.0000000  -0.0000000  -0.0000000  -0.0000000  -0.0000000  -0.0000000
 NQMom=    2.0440000   0.0000000   0.0000000   2.0440000   0.0000000   0.0000000   2.0440000   0.0000000   0.0000000   2.0440000
 NMagM=    0.4037610   2.7928460   0.0000000   0.4037610   2.7928460   0.0000000   0.4037610   0.0000000   0.0000000   0.4037610
 AtZNuc=   7.0000000   1.0000000   6.0000000   7.0000000   1.0000000   6.0000000   7.0000000   6.0000000   6.0000000   7.0000000
 Leave Link  101 at Sat Jan 20 01:40:41 2018, MaxMem=  4294967296 cpu:               7.8 elap:               0.3
 (Enter /share/apps/g16/l202.exe)
 Stoichiometry    C23H27N17O3
 Framework group  C1[X(C23H27N17O3)]
 Deg. of freedom   204
 Full point group                 C1      NOp   1
 Largest Abelian subgroup         C1      NOp   1
 Largest concise Abelian subgroup C1      NOp   1
                         Standard orientation:                         
 ---------------------------------------------------------------------
 Center     Atomic      Atomic             Coordinates (Angstroms)
 Number     Number       Type             X           Y           Z
 ---------------------------------------------------------------------
      1          7           0        4.523677   -2.372987   -0.759016
      2          6           0        5.807464   -2.293219   -1.482581
      3          6           0        2.393520   -2.242196   -0.227388
      4          7           0        3.037069   -2.779688    0.877907
      5          6           0        4.294660   -2.836966    0.513376
      6          1           0        5.105011   -3.212365    1.138945
      7          7           0        0.738439   -1.404962   -1.684330
      8          6           0        1.722318   -1.213875   -2.569228
      9          1           0        1.413515   -0.789227   -3.523463
     10          7           0        3.024278   -1.467402   -2.452890
     11          6           0        3.296869   -1.986343   -1.244252
     12          6           0        1.045131   -1.928692   -0.477379
     13          7           0        0.064374   -2.120185    0.407279
     14          1           0        0.245457   -2.505315    1.312872
     15          1           0       -0.884296   -1.885345    0.195113
     16          1           0        6.200755   -3.208725   -1.568341
     17          1           0        5.654454   -1.910581   -2.393230
     18          1           0        6.440764   -1.706169   -0.978303
     19          7           0        5.543734    1.589305    0.001127
     20          6           0        4.189304    1.818794   -0.029168
     21          6           0        6.540790    2.247959   -0.866483
     22          7           0        1.448680    3.475697   -1.372811
     23          1           0        0.458685    3.495415   -1.235793
     24          1           0        1.820970    4.077725   -2.079683
     25          7           0        3.546913    2.677625   -0.850003
     26          6           0        2.242166    2.678098   -0.641972
     27          7           0        1.612716    1.897951    0.297535
     28          1           0        0.610401    1.963688    0.387044
     29          6           0        2.253689    1.007233    1.152882
     30          8           0        1.592044    0.349717    1.965672
     31          6           0        3.655815    0.995663    0.941227
     32          7           0        4.655212    0.264136    1.568115
     33          6           0        5.755093    0.648345    0.979176
     34          1           0        6.751316    0.275993    1.220345
     35          1           0        7.021482    1.558697   -1.407465
     36          1           0        6.076581    2.886483   -1.478913
     37          1           0        7.198081    2.746776   -0.302598
     38          1           0       -4.440408    2.280433   -0.104501
     39          1           0       -4.298945    3.361443    1.279708
     40          1           0       -2.992564    3.267341    0.098248
     41          1           0       -3.912984   -0.911847    3.456078
     42          6           0       -3.303798   -0.230668    2.861844
     43          8           0       -1.249266   -1.257904    3.454094
     44          6           0       -1.882410   -0.395674    2.845441
     45          1           0       -0.200680    0.433893    2.025721
     46          7           0       -1.206777    0.518497    2.062460
     47          8           0       -1.070383    2.298301    0.658578
     48          6           0       -1.752336    1.537465    1.322451
     49          1           0       -4.941121    0.921791    2.129152
     50          6           0       -3.865154    0.753850    2.150347
     51          6           0       -3.756590    2.705712    0.614940
     52          7           0       -3.128501    1.631758    1.389454
     53          1           0       -6.590152    0.481809   -4.011161
     54          1           0       -5.165278    1.228359   -3.738264
     55          1           0       -6.543645    1.851757   -3.125449
     56          1           0       -3.265671   -2.491059    1.919725
     57          1           0       -4.960225   -2.346739    1.786475
     58          7           0       -4.054375   -2.138559    1.415905
     59          6           0       -3.905879   -1.422612    0.299431
     60          6           0       -4.668716   -0.181393   -1.581848
     61          7           0       -3.440075    0.082767   -2.056279
     62          1           0       -1.480737   -0.289559   -1.584073
     63          6           0       -2.510302   -0.456678   -1.270505
     64          7           0       -2.657014   -1.174085   -0.151860
     65          1           0       -7.899641   -0.139644   -1.474500
     66          6           0       -6.837983   -0.299261   -1.283871
     67          7           0       -6.356271   -0.972171   -0.267582
     68          6           0       -4.981885   -0.905172   -0.444486
     69          6           0       -6.057687    1.006133   -3.346668
     70          7           0       -5.872760    0.207306   -2.119609
 ---------------------------------------------------------------------
 Rotational constants (GHZ):           0.1549031           0.0500892           0.0487146
 Leave Link  202 at Sat Jan 20 01:40:41 2018, MaxMem=  4294967296 cpu:               0.4 elap:               0.0
 (Enter /share/apps/g16/l301.exe)
 Standard basis: CC-pVDZ (5D, 7F)
 Ernie: Thresh=  0.10000D-02 Tol=  0.10000D-05 Strict=F.
 Ernie:  86 primitive shells out of 1081 were deleted.
 There are   780 symmetry adapted cartesian basis functions of A   symmetry.
 There are   737 symmetry adapted basis functions of A   symmetry.
   737 basis functions,  1608 primitive gaussians,   780 cartesian basis functions
   154 alpha electrons      154 beta electrons
       nuclear repulsion energy      5471.4526601824 Hartrees.
 IExCor= 4639 DFT=T Ex+Corr=wB97XD ExCW=0 ScaHFX=  1.000000
 ScaDFX=  1.000000  1.000000  1.000000  1.000000 ScalE2=  1.000000  1.000000
 IRadAn=      5 IRanWt=     -1 IRanGd=            0 ICorTp=0 IEmpDi=121
 HFx  wShort=  0.000000 wLong=  0.200000 cFull=  0.222036 cShort=  0.000000 cLong=  0.777964
 DFx  wShort=  0.000000 wLong=  0.200000 cFull=  0.000000 cShort=  0.000000 cLong=  1.000000
 NAtoms=   70 NActive=   70 NUniq=   70 SFac= 1.00D+00 NAtFMM=   60 NAOKFM=T Big=T
 Integral buffers will be    131072 words long.
 Raffenetti 2 integral format.
 Two-electron integral symmetry is turned on.
 R6Disp:  Grimme-D2 Dispersion energy=       -0.0699396019 Hartrees.
 Nuclear repulsion after empirical dispersion term =     5471.3827205805 Hartrees.
 Leave Link  301 at Sat Jan 20 01:40:41 2018, MaxMem=  4294967296 cpu:               3.0 elap:               0.1
 (Enter /share/apps/g16/l302.exe)
 NPDir=0 NMtPBC=     1 NCelOv=     1 NCel=       1 NClECP=     1 NCelD=      1
         NCelK=      1 NCelE2=     1 NClLst=     1 CellRange=     0.0.
 One-electron integrals computed using PRISM.
 One-electron integral symmetry used in STVInt
 NBasis=   737 RedAO= T EigKep=  6.57D-04  NBF=   737
 NBsUse=   737 1.00D-06 EigRej= -1.00D+00 NBFU=   737
 Precomputing XC quadrature grid using
 IXCGrd= 4 IRadAn=           5 IRanWt=          -1 IRanGd=           0 AccXCQ= 0.00D+00.
 Generated NRdTot=       0 NPtTot=           0 NUsed=           0 NTot=          32
 NSgBfM=   758   757   757   758   758 MxSgAt=    70 MxSgA2=    70.
 Leave Link  302 at Sat Jan 20 01:40:45 2018, MaxMem=  4294967296 cpu:             136.7 elap:               4.3
 (Enter /share/apps/g16/l303.exe)
 DipDrv:  MaxL=1.
 Leave Link  303 at Sat Jan 20 01:40:46 2018, MaxMem=  4294967296 cpu:              12.4 elap:               0.4
 (Enter /share/apps/g16/l401.exe)
 ExpMin= 1.22D-01 ExpMax= 1.17D+04 ExpMxC= 4.01D+02 IAcc=3 IRadAn=         5 AccDes= 0.00D+00
 Harris functional with IExCor= 4639 and IRadAn=       5 diagonalized for initial guess.
 HarFok:  IExCor= 4639 AccDes= 0.00D+00 IRadAn=         5 IDoV= 1 UseB2=F ITyADJ=14
 ICtDFT=  3500011 ScaDFX=  1.000000  1.000000  1.000000  1.000000
 FoFCou: FMM=F IPFlag=           0 FMFlag=      100000 FMFlg1=        2001
         NFxFlg=           0 DoJE=T BraDBF=F KetDBF=T FulRan=T
         wScrn=  0.000000 ICntrl=       500 IOpCl=  0 I1Cent=   200000004 NGrid=           0
         NMat0=    1 NMatS0=      1 NMatT0=    0 NMatD0=    1 NMtDS0=    0 NMtDT0=    0
 Petite list used in FoFCou.
 Harris En= -1963.86636660620    
 JPrj=0 DoOrth=F DoCkMO=F.
 Leave Link  401 at Sat Jan 20 01:40:58 2018, MaxMem=  4294967296 cpu:             393.3 elap:              12.3
 (Enter /share/apps/g16/l502.exe)
 Integral symmetry usage will be decided dynamically.
 Closed shell SCF:
 Using DIIS extrapolation, IDIIS=  1040.
 NGot=  4294967296 LenX=  4293717438 LenY=  4293108258
 Requested convergence on RMS density matrix=1.00D-08 within  20 cycles.
 Requested convergence on MAX density matrix=1.00D-06.
 Requested convergence on             energy=1.00D-06.
 No special actions if energy rises.
 Fock matrices will be formed incrementally for  20 cycles.
 Integral accuracy reduced to 1.0D-05 until final iterations.

 Cycle   1  Pass 0  IDiag  1:
 FoFJK:  IHMeth= 1 ICntrl=       0 DoSepK=T KAlg= 0 I1Cent=           0 FoldK=F
 IRaf=         1 NMat=       1 IRICut=       1 DoRegI=T DoRafI=F ISym2E= 0 IDoP0=0 IntGTp=1.
 FoFCou: FMM=T IPFlag=           0 FMFlag=      100000 FMFlg1=        2001
         NFxFlg=           0 DoJE=T BraDBF=F KetDBF=F FulRan=T
         wScrn=  0.000000 ICntrl=       500 IOpCl=  0 I1Cent=           0 NGrid=           0
         NMat0=    1 NMatS0=      1 NMatT0=    0 NMatD0=    1 NMtDS0=    0 NMtDT0=    0
 Symmetry not used in FoFCou.
 FMM levels:  10  Number of levels for PrismC:   9
 E= -2048.30915934330    
 DIIS: error= 2.08D-02 at cycle   1 NSaved=   1.
 NSaved= 1 IEnMin= 1 EnMin= -2048.30915934330     IErMin= 1 ErrMin= 2.08D-02
 ErrMax= 2.08D-02  0.00D+00 EMaxC= 1.00D-01 BMatC= 8.27D-01 BMatP= 8.27D-01
 IDIUse=3 WtCom= 7.92D-01 WtEn= 2.08D-01
 Coeff-Com:  0.100D+01
 Coeff-En:   0.100D+01
 Coeff:      0.100D+01
 Gap=     0.263 Goal=   None    Shift=    0.000
 GapD=    0.263 DampG=1.000 DampE=0.500 DampFc=0.5000 IDamp=-1.
 Damping current iteration by 5.00D-01
 RMSDP=1.55D-03 MaxDP=1.13D-01              OVMax= 1.82D-01

 Cycle   2  Pass 0  IDiag  1:
 RMSU=  7.74D-04    CP:  9.98D-01
 E= -2048.50366873043     Delta-E=       -0.194509387125 Rises=F Damp=T
 DIIS: error= 1.14D-02 at cycle   2 NSaved=   2.
 NSaved= 2 IEnMin= 2 EnMin= -2048.50366873043     IErMin= 2 ErrMin= 1.14D-02
 ErrMax= 1.14D-02  0.00D+00 EMaxC= 1.00D-01 BMatC= 1.44D-01 BMatP= 8.27D-01
 IDIUse=3 WtCom= 8.86D-01 WtEn= 1.14D-01
 Coeff-Com: -0.204D+00 0.120D+01
 Coeff-En:   0.000D+00 0.100D+01
 Coeff:     -0.181D+00 0.118D+01
 Gap=     0.285 Goal=   None    Shift=    0.000
 RMSDP=5.84D-04 MaxDP=3.16D-02 DE=-1.95D-01 OVMax= 1.22D-01

 Cycle   3  Pass 0  IDiag  1:
 RMSU=  5.72D-04    CP:  9.94D-01  1.14D+00
 E= -2048.67777664134     Delta-E=       -0.174107910909 Rises=F Damp=F
 DIIS: error= 6.64D-03 at cycle   3 NSaved=   3.
 NSaved= 3 IEnMin= 3 EnMin= -2048.67777664134     IErMin= 3 ErrMin= 6.64D-03
 ErrMax= 6.64D-03  0.00D+00 EMaxC= 1.00D-01 BMatC= 6.47D-02 BMatP= 1.44D-01
 IDIUse=3 WtCom= 9.34D-01 WtEn= 6.64D-02
 Coeff-Com: -0.237D+00 0.560D+00 0.677D+00
 Coeff-En:   0.000D+00 0.000D+00 0.100D+01
 Coeff:     -0.221D+00 0.522D+00 0.699D+00
 Gap=     0.272 Goal=   None    Shift=    0.000
 RMSDP=3.59D-04 MaxDP=2.66D-02 DE=-1.74D-01 OVMax= 5.95D-02

 Cycle   4  Pass 0  IDiag  1:
 RMSU=  2.01D-04    CP:  9.95D-01  1.43D+00  6.63D-01
 E= -2048.72696718090     Delta-E=       -0.049190539558 Rises=F Damp=F
 DIIS: error= 2.22D-03 at cycle   4 NSaved=   4.
 NSaved= 4 IEnMin= 4 EnMin= -2048.72696718090     IErMin= 4 ErrMin= 2.22D-03
 ErrMax= 2.22D-03  0.00D+00 EMaxC= 1.00D-01 BMatC= 8.84D-03 BMatP= 6.47D-02
 IDIUse=3 WtCom= 9.78D-01 WtEn= 2.22D-02
 Coeff-Com: -0.980D-01 0.190D+00 0.373D+00 0.536D+00
 Coeff-En:   0.000D+00 0.000D+00 0.554D-01 0.945D+00
 Coeff:     -0.958D-01 0.185D+00 0.366D+00 0.545D+00
 Gap=     0.276 Goal=   None    Shift=    0.000
 RMSDP=1.23D-04 MaxDP=9.69D-03 DE=-4.92D-02 OVMax= 1.38D-02

 Cycle   5  Pass 0  IDiag  1:
 RMSU=  6.13D-05    CP:  9.94D-01  1.41D+00  7.91D-01  6.32D-01
 E= -2048.73430206716     Delta-E=       -0.007334886262 Rises=F Damp=F
 DIIS: error= 5.06D-04 at cycle   5 NSaved=   5.
 NSaved= 5 IEnMin= 5 EnMin= -2048.73430206716     IErMin= 5 ErrMin= 5.06D-04
 ErrMax= 5.06D-04  0.00D+00 EMaxC= 1.00D-01 BMatC= 2.64D-04 BMatP= 8.84D-03
 IDIUse=3 WtCom= 9.95D-01 WtEn= 5.06D-03
 Coeff-Com: -0.246D-01 0.423D-01 0.117D+00 0.233D+00 0.633D+00
 Coeff-En:   0.000D+00 0.000D+00 0.000D+00 0.000D+00 0.100D+01
 Coeff:     -0.245D-01 0.421D-01 0.116D+00 0.232D+00 0.635D+00
 Gap=     0.276 Goal=   None    Shift=    0.000
 RMSDP=2.53D-05 MaxDP=1.40D-03 DE=-7.33D-03 OVMax= 2.99D-03

 Failed to achieve initial convergence to 1.0D-08 in  6 cycles.
 Switch to full accuracy anyway.
 Cycle   6  Pass 1  IDiag  1:
 E= -2048.73452627625     Delta-E=       -0.000224209087 Rises=F Damp=F
 DIIS: error= 2.79D-04 at cycle   1 NSaved=   1.
 NSaved= 1 IEnMin= 1 EnMin= -2048.73452627625     IErMin= 1 ErrMin= 2.79D-04
 ErrMax= 2.79D-04  0.00D+00 EMaxC= 1.00D-01 BMatC= 7.47D-05 BMatP= 7.47D-05
 IDIUse=3 WtCom= 9.97D-01 WtEn= 2.79D-03
 Coeff-Com:  0.100D+01
 Coeff-En:   0.100D+01
 Coeff:      0.100D+01
 Gap=     0.276 Goal=   None    Shift=    0.000
 RMSDP=2.53D-05 MaxDP=1.40D-03 DE=-2.24D-04 OVMax= 2.23D-03

 Cycle   7  Pass 1  IDiag  1:
 RMSU=  1.17D-04    CP:  1.00D+00
 E= -2048.73458106039     Delta-E=       -0.000054784149 Rises=F Damp=F
 DIIS: error= 2.54D-04 at cycle   2 NSaved=   2.
 NSaved= 2 IEnMin= 2 EnMin= -2048.73458106039     IErMin= 2 ErrMin= 2.54D-04
 ErrMax= 2.54D-04  0.00D+00 EMaxC= 1.00D-01 BMatC= 4.52D-05 BMatP= 7.47D-05
 IDIUse=3 WtCom= 9.97D-01 WtEn= 2.54D-03
 Coeff-Com:  0.416D+00 0.584D+00
 Coeff-En:   0.000D+00 0.100D+01
 Coeff:      0.415D+00 0.585D+00
 Gap=     0.276 Goal=   None    Shift=    0.000
 RMSDP=1.15D-05 MaxDP=9.50D-04 DE=-5.48D-05 OVMax= 1.45D-03

 Cycle   8  Pass 1  IDiag  1:
 RMSU=  1.11D-05    CP:  1.00D+00  1.02D+00
 E= -2048.73461361510     Delta-E=       -0.000032554710 Rises=F Damp=F
 DIIS: error= 1.01D-04 at cycle   3 NSaved=   3.
 NSaved= 3 IEnMin= 3 EnMin= -2048.73461361510     IErMin= 3 ErrMin= 1.01D-04
 ErrMax= 1.01D-04  0.00D+00 EMaxC= 1.00D-01 BMatC= 1.01D-05 BMatP= 4.52D-05
 IDIUse=3 WtCom= 9.99D-01 WtEn= 1.01D-03
 Coeff-Com: -0.195D-01 0.307D+00 0.713D+00
 Coeff-En:   0.000D+00 0.125D+00 0.875D+00
 Coeff:     -0.195D-01 0.307D+00 0.713D+00
 Gap=     0.276 Goal=   None    Shift=    0.000
 RMSDP=5.68D-06 MaxDP=4.52D-04 DE=-3.26D-05 OVMax= 5.11D-04

 Cycle   9  Pass 1  IDiag  1:
 RMSU=  3.81D-06    CP:  1.00D+00  1.05D+00  7.67D-01
 E= -2048.73462297427     Delta-E=       -0.000009359169 Rises=F Damp=F
 DIIS: error= 3.20D-05 at cycle   4 NSaved=   4.
 NSaved= 4 IEnMin= 4 EnMin= -2048.73462297427     IErMin= 4 ErrMin= 3.20D-05
 ErrMax= 3.20D-05  0.00D+00 EMaxC= 1.00D-01 BMatC= 4.79D-07 BMatP= 1.01D-05
 IDIUse=1 WtCom= 1.00D+00 WtEn= 0.00D+00
 Coeff-Com: -0.309D-01 0.819D-01 0.257D+00 0.692D+00
 Coeff:     -0.309D-01 0.819D-01 0.257D+00 0.692D+00
 Gap=     0.276 Goal=   None    Shift=    0.000
 RMSDP=1.45D-06 MaxDP=9.02D-05 DE=-9.36D-06 OVMax= 4.02D-04

 Cycle  10  Pass 1  IDiag  1:
 RMSU=  1.27D-06    CP:  1.00D+00  1.05D+00  7.99D-01  1.13D+00
 E= -2048.73462380973     Delta-E=       -0.000000835453 Rises=F Damp=F
 DIIS: error= 1.14D-05 at cycle   5 NSaved=   5.
 NSaved= 5 IEnMin= 5 EnMin= -2048.73462380973     IErMin= 5 ErrMin= 1.14D-05
 ErrMax= 1.14D-05  0.00D+00 EMaxC= 1.00D-01 BMatC= 1.16D-07 BMatP= 4.79D-07
 IDIUse=1 WtCom= 1.00D+00 WtEn= 0.00D+00
 Coeff-Com: -0.263D-02-0.557D-01-0.125D+00 0.198D+00 0.985D+00
 Coeff:     -0.263D-02-0.557D-01-0.125D+00 0.198D+00 0.985D+00
 Gap=     0.276 Goal=   None    Shift=    0.000
 RMSDP=1.23D-06 MaxDP=6.93D-05 DE=-8.35D-07 OVMax= 2.29D-04

 Cycle  11  Pass 1  IDiag  1:
 RMSU=  5.16D-07    CP:  1.00D+00  1.06D+00  8.09D-01  1.41D+00  1.19D+00
 E= -2048.73462407446     Delta-E=       -0.000000264729 Rises=F Damp=F
 DIIS: error= 7.84D-06 at cycle   6 NSaved=   6.
 NSaved= 6 IEnMin= 6 EnMin= -2048.73462407446     IErMin= 6 ErrMin= 7.84D-06
 ErrMax= 7.84D-06  0.00D+00 EMaxC= 1.00D-01 BMatC= 2.96D-08 BMatP= 1.16D-07
 IDIUse=1 WtCom= 1.00D+00 WtEn= 0.00D+00
 Coeff-Com:  0.495D-02-0.452D-01-0.118D+00-0.849D-02 0.535D+00 0.632D+00
 Coeff:      0.495D-02-0.452D-01-0.118D+00-0.849D-02 0.535D+00 0.632D+00
 Gap=     0.276 Goal=   None    Shift=    0.000
 RMSDP=3.90D-07 MaxDP=2.57D-05 DE=-2.65D-07 OVMax= 1.09D-04

 Cycle  12  Pass 1  IDiag  1:
 RMSU=  1.95D-07    CP:  1.00D+00  1.06D+00  8.10D-01  1.49D+00  1.33D+00
                    CP:  9.37D-01
 E= -2048.73462411838     Delta-E=       -0.000000043921 Rises=F Damp=F
 DIIS: error= 1.15D-06 at cycle   7 NSaved=   7.
 NSaved= 7 IEnMin= 7 EnMin= -2048.73462411838     IErMin= 7 ErrMin= 1.15D-06
 ErrMax= 1.15D-06  0.00D+00 EMaxC= 1.00D-01 BMatC= 8.41D-10 BMatP= 2.96D-08
 IDIUse=1 WtCom= 1.00D+00 WtEn= 0.00D+00
 Coeff-Com:  0.102D-02-0.587D-02-0.168D-01-0.896D-02 0.405D-01 0.122D+00
 Coeff-Com:  0.868D+00
 Coeff:      0.102D-02-0.587D-02-0.168D-01-0.896D-02 0.405D-01 0.122D+00
 Coeff:      0.868D+00
 Gap=     0.276 Goal=   None    Shift=    0.000
 RMSDP=9.57D-08 MaxDP=3.58D-06 DE=-4.39D-08 OVMax= 2.58D-05

 Cycle  13  Pass 1  IDiag  1:
 RMSU=  5.52D-08    CP:  1.00D+00  1.05D+00  8.10D-01  1.50D+00  1.35D+00
                    CP:  1.04D+00  1.16D+00
 E= -2048.73462412036     Delta-E=       -0.000000001986 Rises=F Damp=F
 DIIS: error= 5.69D-07 at cycle   8 NSaved=   8.
 NSaved= 8 IEnMin= 8 EnMin= -2048.73462412036     IErMin= 8 ErrMin= 5.69D-07
 ErrMax= 5.69D-07  0.00D+00 EMaxC= 1.00D-01 BMatC= 3.57D-10 BMatP= 8.41D-10
 IDIUse=1 WtCom= 1.00D+00 WtEn= 0.00D+00
 Coeff-Com: -0.842D-03 0.948D-02 0.238D-01-0.538D-03-0.127D+00-0.106D+00
 Coeff-Com:  0.444D+00 0.756D+00
 Coeff:     -0.842D-03 0.948D-02 0.238D-01-0.538D-03-0.127D+00-0.106D+00
 Coeff:      0.444D+00 0.756D+00
 Gap=     0.276 Goal=   None    Shift=    0.000
 RMSDP=5.16D-08 MaxDP=2.25D-06 DE=-1.99D-09 OVMax= 1.35D-05

 Cycle  14  Pass 1  IDiag  1:
 RMSU=  2.95D-08    CP:  1.00D+00  1.05D+00  8.09D-01  1.50D+00  1.36D+00
                    CP:  1.08D+00  1.31D+00  1.11D+00
 E= -2048.73462412128     Delta-E=       -0.000000000916 Rises=F Damp=F
 DIIS: error= 2.11D-07 at cycle   9 NSaved=   9.
 NSaved= 9 IEnMin= 9 EnMin= -2048.73462412128     IErMin= 9 ErrMin= 2.11D-07
 ErrMax= 2.11D-07  0.00D+00 EMaxC= 1.00D-01 BMatC= 3.44D-11 BMatP= 3.57D-10
 IDIUse=1 WtCom= 1.00D+00 WtEn= 0.00D+00
 Coeff-Com: -0.471D-03 0.468D-02 0.120D-01 0.907D-03-0.580D-01-0.584D-01
 Coeff-Com:  0.882D-01 0.303D+00 0.708D+00
 Coeff:     -0.471D-03 0.468D-02 0.120D-01 0.907D-03-0.580D-01-0.584D-01
 Coeff:      0.882D-01 0.303D+00 0.708D+00
 Gap=     0.276 Goal=   None    Shift=    0.000
 RMSDP=1.51D-08 MaxDP=8.03D-07 DE=-9.16D-10 OVMax= 4.18D-06

 Cycle  15  Pass 1  IDiag  1:
 RMSU=  9.50D-09    CP:  1.00D+00  1.05D+00  8.09D-01  1.50D+00  1.36D+00
                    CP:  1.09D+00  1.34D+00  1.25D+00  1.12D+00
 E= -2048.73462412128     Delta-E=       -0.000000000005 Rises=F Damp=F
 DIIS: error= 8.33D-08 at cycle  10 NSaved=  10.
 NSaved=10 IEnMin=10 EnMin= -2048.73462412128     IErMin=10 ErrMin= 8.33D-08
 ErrMax= 8.33D-08  0.00D+00 EMaxC= 1.00D-01 BMatC= 6.33D-12 BMatP= 3.44D-11
 IDIUse=1 WtCom= 1.00D+00 WtEn= 0.00D+00
 Coeff-Com:  0.120D-04-0.379D-03-0.790D-03 0.182D-03 0.636D-02 0.211D-02
 Coeff-Com: -0.594D-01-0.570D-01 0.281D+00 0.828D+00
 Coeff:      0.120D-04-0.379D-03-0.790D-03 0.182D-03 0.636D-02 0.211D-02
 Coeff:     -0.594D-01-0.570D-01 0.281D+00 0.828D+00
 Gap=     0.276 Goal=   None    Shift=    0.000
 RMSDP=7.26D-09 MaxDP=4.17D-07 DE=-4.55D-12 OVMax= 1.89D-06

 SCF Done:  E(RwB97XD) =  -2048.73462412     A.U. after   15 cycles
            NFock= 15  Conv=0.73D-08     -V/T= 2.0054
 KE= 2.037793553187D+03 PE=-1.572322978961D+04 EE= 6.165318891723D+03
 Leave Link  502 at Sat Jan 20 01:51:58 2018, MaxMem=  4294967296 cpu:           20317.1 elap:             659.5
 (Enter /share/apps/g16/l601.exe)
 Copying SCF densities to generalized density rwf, IOpCl= 0 IROHF=0.

 **********************************************************************

            Population analysis using the SCF density.

 **********************************************************************

 Orbital symmetries:
       Occupied  (A) (A) (A) (A) (A) (A) (A) (A) (A) (A) (A) (A)
                 (A) (A) (A) (A) (A) (A) (A) (A) (A) (A) (A) (A)
                 (A) (A) (A) (A) (A) (A) (A) (A) (A) (A) (A) (A)
                 (A) (A) (A) (A) (A) (A) (A) (A) (A) (A) (A) (A)
                 (A) (A) (A) (A) (A) (A) (A) (A) (A) (A) (A) (A)
                 (A) (A) (A) (A) (A) (A) (A) (A) (A) (A) (A) (A)
                 (A) (A) (A) (A) (A) (A) (A) (A) (A) (A) (A) (A)
                 (A) (A) (A) (A) (A) (A) (A) (A) (A) (A) (A) (A)
                 (A) (A) (A) (A) (A) (A) (A) (A) (A) (A) (A) (A)
                 (A) (A) (A) (A) (A) (A) (A) (A) (A) (A) (A) (A)
                 (A) (A) (A) (A) (A) (A) (A) (A) (A) (A) (A) (A)
                 (A) (A) (A) (A) (A) (A) (A) (A) (A) (A) (A) (A)
                 (A) (A) (A) (A) (A) (A) (A) (A) (A) (A)
       Virtual   (A) (A) (A) (A) (A) (A) (A) (A) (A) (A) (A) (A)
                 (A) (A) (A) (A) (A) (A) (A) (A) (A) (A) (A) (A)
                 (A) (A) (A) (A) (A) (A) (A) (A) (A) (A) (A) (A)
                 (A) (A) (A) (A) (A) (A) (A) (A) (A) (A) (A) (A)
                 (A) (A) (A) (A) (A) (A) (A) (A) (A) (A) (A) (A)
                 (A) (A) (A) (A) (A) (A) (A) (A) (A) (A) (A) (A)
                 (A) (A) (A) (A) (A) (A) (A) (A) (A) (A) (A) (A)
                 (A) (A) (A) (A) (A) (A) (A) (A) (A) (A) (A) (A)
                 (A) (A) (A) (A) (A) (A) (A) (A) (A) (A) (A) (A)
                 (A) (A) (A) (A) (A) (A) (A) (A) (A) (A) (A) (A)
                 (A) (A) (A) (A) (A) (A) (A) (A) (A) (A) (A) (A)
                 (A) (A) (A) (A) (A) (A) (A) (A) (A) (A) (A) (A)
                 (A) (A) (A) (A) (A) (A) (A) (A) (A) (A) (A) (A)
                 (A) (A) (A) (A) (A) (A) (A) (A) (A) (A) (A) (A)
                 (A) (A) (A) (A) (A) (A) (A) (A) (A) (A) (A) (A)
                 (A) (A) (A) (A) (A) (A) (A) (A) (A) (A) (A) (A)
                 (A) (A) (A) (A) (A) (A) (A) (A) (A) (A) (A) (A)
                 (A) (A) (A) (A) (A) (A) (A) (A) (A) (A) (A) (A)
                 (A) (A) (A) (A) (A) (A) (A) (A) (A) (A) (A) (A)
                 (A) (A) (A) (A) (A) (A) (A) (A) (A) (A) (A) (A)
                 (A) (A) (A) (A) (A) (A) (A) (A) (A) (A) (A) (A)
                 (A) (A) (A) (A) (A) (A) (A) (A) (A) (A) (A) (A)
                 (A) (A) (A) (A) (A) (A) (A) (A) (A) (A) (A) (A)
                 (A) (A) (A) (A) (A) (A) (A) (A) (A) (A) (A) (A)
                 (A) (A) (A) (A) (A) (A) (A) (A) (A) (A) (A) (A)
                 (A) (A) (A) (A) (A) (A) (A) (A) (A) (A) (A) (A)
                 (A) (A) (A) (A) (A) (A) (A) (A) (A) (A) (A) (A)
                 (A) (A) (A) (A) (A) (A) (A) (A) (A) (A) (A) (A)
                 (A) (A) (A) (A) (A) (A) (A) (A) (A) (A) (A) (A)
                 (A) (A) (A) (A) (A) (A) (A) (A) (A) (A) (A) (A)
                 (A) (A) (A) (A) (A) (A) (A) (A) (A) (A) (A) (A)
                 (A) (A) (A) (A) (A) (A) (A) (A) (A) (A) (A) (A)
                 (A) (A) (A) (A) (A) (A) (A) (A) (A) (A) (A) (A)
                 (A) (A) (A) (A) (A) (A) (A) (A) (A) (A) (A) (A)
                 (A) (A) (A) (A) (A) (A) (A) (A) (A) (A) (A) (A)
                 (A) (A) (A) (A) (A) (A) (A) (A) (A) (A) (A) (A)
                 (A) (A) (A) (A) (A) (A) (A) (A) (A) (A) (A) (A)
                 (A) (A) (A) (A) (A) (A) (A) (A) (A) (A) (A) (A)
                 (A) (A) (A) (A) (A) (A) (A) (A) (A) (A) (A) (A)
                 (A) (A) (A) (A) (A) (A) (A) (A) (A) (A) (A) (A)
                 (A) (A) (A) (A) (A) (A) (A) (A) (A) (A) (A) (A)
                 (A) (A) (A) (A) (A) (A) (A) (A) (A) (A) (A) (A)
                 (A) (A) (A) (A) (A) (A) (A) (A) (A) (A) (A) (A)
                 (A) (A) (A) (A) (A) (A) (A) (A) (A) (A) (A) (A)
                 (A) (A) (A) (A) (A) (A) (A) (A) (A) (A) (A) (A)
                 (A) (A) (A) (A) (A) (A) (A) (A) (A) (A) (A) (A)
                 (A) (A) (A) (A) (A) (A) (A) (A) (A) (A) (A) (A)
                 (A) (A) (A) (A) (A) (A) (A) (A) (A) (A) (A) (A)
                 (A) (A) (A) (A) (A) (A) (A)
 The electronic state is 1-A.
 Alpha  occ. eigenvalues --  -19.25400 -19.22295 -19.20867 -14.52568 -14.51898
 Alpha  occ. eigenvalues --  -14.49436 -14.48196 -14.47781 -14.47543 -14.47134
 Alpha  occ. eigenvalues --  -14.46949 -14.45488 -14.44604 -14.44526 -14.42331
 Alpha  occ. eigenvalues --  -14.42131 -14.41620 -14.40806 -14.40507 -14.40292
 Alpha  occ. eigenvalues --  -10.44979 -10.41565 -10.40142 -10.39905 -10.38554
 Alpha  occ. eigenvalues --  -10.38087 -10.37423 -10.36810 -10.36037 -10.35287
 Alpha  occ. eigenvalues --  -10.34865 -10.34756 -10.34017 -10.33902 -10.33393
 Alpha  occ. eigenvalues --  -10.33030 -10.32978 -10.32922 -10.31541 -10.30733
 Alpha  occ. eigenvalues --  -10.30703 -10.28632 -10.28175  -1.18982  -1.15336
 Alpha  occ. eigenvalues --   -1.13547  -1.13176  -1.11120  -1.10787  -1.09570
 Alpha  occ. eigenvalues --   -1.08909  -1.08717  -1.05029  -1.04899  -1.02214
 Alpha  occ. eigenvalues --   -1.01063  -1.00248  -1.00046  -0.98940  -0.97158
 Alpha  occ. eigenvalues --   -0.97093  -0.96386  -0.92591  -0.90644  -0.87778
 Alpha  occ. eigenvalues --   -0.85966  -0.84667  -0.83548  -0.83242  -0.83019
 Alpha  occ. eigenvalues --   -0.81985  -0.78543  -0.77132  -0.75097  -0.74982
 Alpha  occ. eigenvalues --   -0.73967  -0.73079  -0.72571  -0.70803  -0.70531
 Alpha  occ. eigenvalues --   -0.67769  -0.66981  -0.66217  -0.65978  -0.64810
 Alpha  occ. eigenvalues --   -0.64446  -0.63602  -0.62927  -0.62425  -0.62157
 Alpha  occ. eigenvalues --   -0.60648  -0.60444  -0.60175  -0.59434  -0.59088
 Alpha  occ. eigenvalues --   -0.59041  -0.58657  -0.57373  -0.56303  -0.55936
 Alpha  occ. eigenvalues --   -0.55916  -0.55429  -0.55165  -0.54530  -0.54295
 Alpha  occ. eigenvalues --   -0.53901  -0.53766  -0.53669  -0.53343  -0.53177
 Alpha  occ. eigenvalues --   -0.52819  -0.52162  -0.51435  -0.50610  -0.50498
 Alpha  occ. eigenvalues --   -0.50191  -0.49930  -0.49792  -0.49371  -0.49067
 Alpha  occ. eigenvalues --   -0.48727  -0.48627  -0.48312  -0.47920  -0.47484
 Alpha  occ. eigenvalues --   -0.46669  -0.45910  -0.45654  -0.44756  -0.42395
 Alpha  occ. eigenvalues --   -0.40932  -0.40820  -0.39197  -0.38209  -0.37732
 Alpha  occ. eigenvalues --   -0.37653  -0.37570  -0.36757  -0.35817  -0.34861
 Alpha  occ. eigenvalues --   -0.34489  -0.34278  -0.33526  -0.33254  -0.33099
 Alpha  occ. eigenvalues --   -0.33073  -0.32870  -0.32072  -0.31443  -0.30607
 Alpha  occ. eigenvalues --   -0.30229  -0.29586  -0.26239  -0.25242
 Alpha virt. eigenvalues --    0.02381   0.04556   0.07148   0.08208   0.08568
 Alpha virt. eigenvalues --    0.08933   0.09502   0.10379   0.11150   0.12021
 Alpha virt. eigenvalues --    0.12915   0.13224   0.14187   0.14566   0.15187
 Alpha virt. eigenvalues --    0.15201   0.16345   0.17030   0.18211   0.18369
 Alpha virt. eigenvalues --    0.18606   0.18931   0.19574   0.20220   0.20662
 Alpha virt. eigenvalues --    0.20851   0.21237   0.21389   0.21486   0.21928
 Alpha virt. eigenvalues --    0.22088   0.22900   0.23166   0.23369   0.23521
 Alpha virt. eigenvalues --    0.23966   0.24238   0.24407   0.24557   0.24936
 Alpha virt. eigenvalues --    0.26096   0.26915   0.27244   0.27455   0.27709
 Alpha virt. eigenvalues --    0.28882   0.29191   0.29328   0.30778   0.30972
 Alpha virt. eigenvalues --    0.31511   0.31810   0.32344   0.32751   0.33279
 Alpha virt. eigenvalues --    0.34132   0.34772   0.35160   0.35792   0.36284
 Alpha virt. eigenvalues --    0.36538   0.37173   0.37780   0.38214   0.39040
 Alpha virt. eigenvalues --    0.39469   0.40089   0.40885   0.40991   0.41575
 Alpha virt. eigenvalues --    0.41853   0.42521   0.42760   0.44238   0.44308
 Alpha virt. eigenvalues --    0.45301   0.45968   0.46114   0.46223   0.46552
 Alpha virt. eigenvalues --    0.47173   0.47256   0.47864   0.48354   0.48805
 Alpha virt. eigenvalues --    0.49634   0.49981   0.50338   0.50616   0.50908
 Alpha virt. eigenvalues --    0.51621   0.51769   0.52441   0.52851   0.52990
 Alpha virt. eigenvalues --    0.53316   0.53989   0.54781   0.54932   0.55244
 Alpha virt. eigenvalues --    0.55383   0.56202   0.56517   0.56710   0.57077
 Alpha virt. eigenvalues --    0.57361   0.57584   0.58207   0.58819   0.59469
 Alpha virt. eigenvalues --    0.60212   0.60425   0.60664   0.60770   0.61065
 Alpha virt. eigenvalues --    0.61882   0.61988   0.62360   0.62494   0.63562
 Alpha virt. eigenvalues --    0.63967   0.64120   0.64519   0.65499   0.65666
 Alpha virt. eigenvalues --    0.66009   0.66189   0.66387   0.66780   0.67394
 Alpha virt. eigenvalues --    0.67778   0.68601   0.68721   0.69237   0.69833
 Alpha virt. eigenvalues --    0.70177   0.70357   0.70778   0.71458   0.71729
 Alpha virt. eigenvalues --    0.72096   0.72536   0.72602   0.73695   0.73976
 Alpha virt. eigenvalues --    0.74147   0.74406   0.75164   0.75216   0.75675
 Alpha virt. eigenvalues --    0.76107   0.76623   0.76663   0.76843   0.77113
 Alpha virt. eigenvalues --    0.77285   0.77647   0.78009   0.78380   0.78599
 Alpha virt. eigenvalues --    0.78868   0.79685   0.80094   0.80214   0.80769
 Alpha virt. eigenvalues --    0.81403   0.81576   0.81615   0.82574   0.82804
 Alpha virt. eigenvalues --    0.83521   0.83985   0.84373   0.84739   0.85006
 Alpha virt. eigenvalues --    0.85515   0.86185   0.86816   0.87183   0.87656
 Alpha virt. eigenvalues --    0.87950   0.88563   0.88902   0.88947   0.89386
 Alpha virt. eigenvalues --    0.89836   0.90426   0.90607   0.90794   0.91435
 Alpha virt. eigenvalues --    0.92173   0.93145   0.93496   0.93949   0.94390
 Alpha virt. eigenvalues --    0.94684   0.95127   0.95288   0.95920   0.96253
 Alpha virt. eigenvalues --    0.96766   0.97011   0.97737   0.97902   0.98288
 Alpha virt. eigenvalues --    0.98690   0.99077   0.99699   1.00784   1.00837
 Alpha virt. eigenvalues --    1.01583   1.01741   1.02045   1.02596   1.02950
 Alpha virt. eigenvalues --    1.03448   1.03937   1.04174   1.04302   1.04547
 Alpha virt. eigenvalues --    1.05256   1.05784   1.06338   1.06738   1.07328
 Alpha virt. eigenvalues --    1.07668   1.08591   1.09588   1.10065   1.10539
 Alpha virt. eigenvalues --    1.11203   1.11469   1.12208   1.12848   1.13517
 Alpha virt. eigenvalues --    1.13930   1.14288   1.14685   1.15444   1.15764
 Alpha virt. eigenvalues --    1.16084   1.16615   1.16794   1.17439   1.18168
 Alpha virt. eigenvalues --    1.18524   1.18621   1.18734   1.19303   1.19409
 Alpha virt. eigenvalues --    1.19910   1.20162   1.20499   1.21038   1.21616
 Alpha virt. eigenvalues --    1.21632   1.22215   1.22423   1.22714   1.23160
 Alpha virt. eigenvalues --    1.23578   1.23894   1.24589   1.24645   1.25403
 Alpha virt. eigenvalues --    1.25615   1.26144   1.26756   1.26872   1.27669
 Alpha virt. eigenvalues --    1.28350   1.28360   1.28882   1.29621   1.30006
 Alpha virt. eigenvalues --    1.31612   1.32323   1.32416   1.33328   1.33591
 Alpha virt. eigenvalues --    1.34248   1.35144   1.35551   1.36364   1.36715
 Alpha virt. eigenvalues --    1.37034   1.37876   1.38557   1.39163   1.39930
 Alpha virt. eigenvalues --    1.40364   1.41289   1.41712   1.42237   1.44066
 Alpha virt. eigenvalues --    1.44973   1.45634   1.45978   1.46658   1.46947
 Alpha virt. eigenvalues --    1.48258   1.49358   1.49437   1.50288   1.50851
 Alpha virt. eigenvalues --    1.51249   1.52225   1.52820   1.53344   1.53442
 Alpha virt. eigenvalues --    1.55419   1.55471   1.55519   1.56582   1.57279
 Alpha virt. eigenvalues --    1.58608   1.58807   1.59056   1.59762   1.60219
 Alpha virt. eigenvalues --    1.61163   1.61272   1.62142   1.62545   1.63475
 Alpha virt. eigenvalues --    1.64016   1.64264   1.65300   1.65637   1.66376
 Alpha virt. eigenvalues --    1.66611   1.67288   1.68051   1.68675   1.69495
 Alpha virt. eigenvalues --    1.70228   1.70297   1.70607   1.70803   1.71621
 Alpha virt. eigenvalues --    1.71781   1.72492   1.72846   1.72996   1.73400
 Alpha virt. eigenvalues --    1.73571   1.74054   1.74626   1.75229   1.75833
 Alpha virt. eigenvalues --    1.76141   1.76379   1.76802   1.77109   1.77283
 Alpha virt. eigenvalues --    1.77608   1.77962   1.78036   1.78344   1.78596
 Alpha virt. eigenvalues --    1.78953   1.79364   1.79814   1.79865   1.80036
 Alpha virt. eigenvalues --    1.80923   1.81052   1.81366   1.81553   1.82648
 Alpha virt. eigenvalues --    1.82891   1.83522   1.83860   1.84539   1.84962
 Alpha virt. eigenvalues --    1.85114   1.85290   1.85710   1.85900   1.86638
 Alpha virt. eigenvalues --    1.87338   1.87868   1.89137   1.89370   1.89640
 Alpha virt. eigenvalues --    1.90436   1.90700   1.91184   1.91365   1.92120
 Alpha virt. eigenvalues --    1.92410   1.93257   1.93334   1.93627   1.94121
 Alpha virt. eigenvalues --    1.94869   1.95515   1.96289   1.96893   1.97518
 Alpha virt. eigenvalues --    1.97866   1.98626   2.00489   2.01123   2.01270
 Alpha virt. eigenvalues --    2.01502   2.02200   2.02275   2.03336   2.03639
 Alpha virt. eigenvalues --    2.04740   2.05329   2.06005   2.06463   2.06833
 Alpha virt. eigenvalues --    2.07238   2.07499   2.07989   2.08655   2.09730
 Alpha virt. eigenvalues --    2.09825   2.10941   2.11147   2.11692   2.13492
 Alpha virt. eigenvalues --    2.13741   2.14765   2.15860   2.16553   2.18164
 Alpha virt. eigenvalues --    2.18644   2.19482   2.20257   2.20783   2.21469
 Alpha virt. eigenvalues --    2.21979   2.22264   2.22831   2.23090   2.23938
 Alpha virt. eigenvalues --    2.24702   2.25366   2.25545   2.25912   2.26844
 Alpha virt. eigenvalues --    2.27050   2.27386   2.28987   2.29026   2.29877
 Alpha virt. eigenvalues --    2.30248   2.30840   2.31326   2.31568   2.31896
 Alpha virt. eigenvalues --    2.32248   2.32631   2.33391   2.33460   2.34175
 Alpha virt. eigenvalues --    2.34837   2.35397   2.36060   2.37269   2.37361
 Alpha virt. eigenvalues --    2.37766   2.38746   2.39670   2.40598   2.40823
 Alpha virt. eigenvalues --    2.42299   2.43295   2.43553   2.43874   2.44160
 Alpha virt. eigenvalues --    2.44729   2.45182   2.45716   2.46185   2.46764
 Alpha virt. eigenvalues --    2.48094   2.49632   2.50178   2.50607   2.50954
 Alpha virt. eigenvalues --    2.52330   2.52774   2.53931   2.55329   2.55502
 Alpha virt. eigenvalues --    2.56548   2.57580   2.58376   2.59075   2.59344
 Alpha virt. eigenvalues --    2.60434   2.61786   2.62293   2.62740   2.63579
 Alpha virt. eigenvalues --    2.63874   2.64594   2.64962   2.65252   2.65981
 Alpha virt. eigenvalues --    2.66932   2.67092   2.67800   2.68170   2.69271
 Alpha virt. eigenvalues --    2.69574   2.70055   2.70579   2.71699   2.72268
 Alpha virt. eigenvalues --    2.73701   2.74120   2.75529   2.76068   2.76386
 Alpha virt. eigenvalues --    2.76966   2.78000   2.78798   2.78976   2.79519
 Alpha virt. eigenvalues --    2.79784   2.79816   2.80146   2.80888   2.81194
 Alpha virt. eigenvalues --    2.81908   2.82599   2.83315   2.83527   2.84126
 Alpha virt. eigenvalues --    2.84381   2.85263   2.85885   2.86395   2.86871
 Alpha virt. eigenvalues --    2.87850   2.88180   2.88352   2.90923   2.93731
 Alpha virt. eigenvalues --    2.93910   2.94765   2.95626   2.96397   2.98299
 Alpha virt. eigenvalues --    3.00070   3.00832   3.01594   3.04407   3.05390
 Alpha virt. eigenvalues --    3.06944   3.10022   3.10961   3.12659   3.14622
 Alpha virt. eigenvalues --    3.15651   3.16057   3.17089   3.18232   3.20122
 Alpha virt. eigenvalues --    3.20872   3.22309   3.23168   3.24495   3.26128
 Alpha virt. eigenvalues --    3.44671   3.46974   3.47092   3.48793   3.50482
 Alpha virt. eigenvalues --    3.53381   3.54540   3.55872   3.57549   3.59799
 Alpha virt. eigenvalues --    3.62979   3.70599   3.75490
          Condensed to atoms (all electrons):
 Mulliken charges:
               1
     1  N   -0.305697
     2  C    0.184267
     3  C    0.043775
     4  N   -0.243646
     5  C    0.151676
     6  H    0.024367
     7  N   -0.297652
     8  C    0.129775
     9  H    0.009292
    10  N   -0.285932
    11  C    0.238558
    12  C    0.083726
    13  N   -0.057166
    14  H    0.120500
    15  H    0.089964
    16  H    0.024699
    17  H    0.032058
    18  H    0.012813
    19  N   -0.311580
    20  C    0.260013
    21  C    0.181974
    22  N   -0.123976
    23  H    0.118597
    24  H    0.119633
    25  N   -0.312526
    26  C    0.251863
    27  N   -0.147816
    28  H    0.120657
    29  C    0.194737
    30  O   -0.319027
    31  C   -0.015346
    32  N   -0.218264
    33  C    0.111606
    34  H    0.023993
    35  H    0.023056
    36  H    0.032572
    37  H    0.026422
    38  H    0.056461
    39  H    0.056970
    40  H    0.074370
    41  H    0.013164
    42  C   -0.105333
    43  O   -0.279672
    44  C    0.173378
    45  H    0.130713
    46  N   -0.118774
    47  O   -0.354239
    48  C    0.345068
    49  H    0.044403
    50  C    0.162513
    51  C    0.045467
    52  N   -0.276626
    53  H    0.034850
    54  H    0.042780
    55  H    0.028554
    56  H    0.125325
    57  H    0.116080
    58  N   -0.047365
    59  C    0.078073
    60  C    0.234843
    61  N   -0.265380
    62  H    0.034158
    63  C    0.168080
    64  N   -0.306955
    65  H    0.039174
    66  C    0.138217
    67  N   -0.261084
    68  C    0.033018
    69  C    0.179433
    70  N   -0.311632
 Sum of Mulliken charges =  -0.00000
 Mulliken charges with hydrogens summed into heavy atoms:
               1
     1  N   -0.305697
     2  C    0.253837
     3  C    0.043775
     4  N   -0.243646
     5  C    0.176043
     7  N   -0.297652
     8  C    0.139067
    10  N   -0.285932
    11  C    0.238558
    12  C    0.083726
    13  N    0.153299
    19  N   -0.311580
    20  C    0.260013
    21  C    0.264025
    22  N    0.114254
    25  N   -0.312526
    26  C    0.251863
    27  N   -0.027159
    29  C    0.194737
    30  O   -0.319027
    31  C   -0.015346
    32  N   -0.218264
    33  C    0.135600
    42  C   -0.092169
    43  O   -0.279672
    44  C    0.173378
    46  N    0.011938
    47  O   -0.354239
    48  C    0.345068
    50  C    0.206916
    51  C    0.233268
    52  N   -0.276626
    58  N    0.194040
    59  C    0.078073
    60  C    0.234843
    61  N   -0.265380
    63  C    0.202238
    64  N   -0.306955
    66  C    0.177391
    67  N   -0.261084
    68  C    0.033018
    69  C    0.285618
    70  N   -0.311632
 Electronic spatial extent (au):  <R**2>=          23195.2081
 Charge=             -0.0000 electrons
 Dipole moment (field-independent basis, Debye):
    X=             -5.8862    Y=              6.1435    Z=             -5.2387  Tot=              9.9917
 Quadrupole moment (field-independent basis, Debye-Ang):
   XX=           -148.0945   YY=           -227.9104   ZZ=           -253.0006
   XY=             -9.5200   XZ=             -4.8085   YZ=             -9.0498
 Traceless Quadrupole moment (field-independent basis, Debye-Ang):
   XX=             61.5740   YY=            -18.2419   ZZ=            -43.3321
   XY=             -9.5200   XZ=             -4.8085   YZ=             -9.0498
 Octapole moment (field-independent basis, Debye-Ang**2):
  XXX=             84.9666  YYY=             63.3451  ZZZ=            -72.1639  XYY=             -0.4096
  XXY=             70.0046  XXZ=           -135.5957  XZZ=           -119.6129  YZZ=             47.7423
  YYZ=            -18.4794  XYZ=             29.9708
 Hexadecapole moment (field-independent basis, Debye-Ang**3):
 XXXX=         -17047.3743 YYYY=          -4444.7168 ZZZZ=          -4058.3036 XXXY=           -524.3396
 XXXZ=            465.9092 YYYX=            -31.6278 YYYZ=           -196.9472 ZZZX=            159.4639
 ZZZY=            -84.2980 XXYY=          -4016.4935 XXZZ=          -3839.1854 YYZZ=          -1358.2680
 XXYZ=           -210.1297 YYXZ=           -118.0934 ZZXY=             11.9805
 N-N= 5.471382720580D+03 E-N=-1.572322979975D+04  KE= 2.037793553187D+03
 No NMR shielding tensors so no spin-rotation constants.
 Leave Link  601 at Sat Jan 20 01:51:59 2018, MaxMem=  4294967296 cpu:              47.8 elap:               1.7
 (Enter /share/apps/g16/l9999.exe)
 1\1\GINC-COMPUTE-0-3\SP\RwB97XD\CC-pVDZ\C23H27N17O3\SATYA\20-Jan-2018\
 0\\#p wb97xd/cc-pvdz sp scf=(maxcycles=20)\\Base pair stacking\\0,1\N,
 0,3.5158,1.15873,-5.84275\C,0,3.6959,2.56776,-6.24302\C,0,2.78135,-0.9
 0817,-5.6821\N,0,3.82758,-0.79669,-4.77783\C,0,4.22818,0.44409,-4.9108
 1\H,0,5.04664,0.89494,-4.34886\N,0,0.99298,-1.75636,-6.96477\C,0,0.915
 88,-0.54263,-7.52019\H,0,0.13784,-0.42437,-8.27313\N,0,1.65213,0.54186
 ,-7.28625\C,0,2.57746,0.28904,-6.3459\C,0,1.93452,-1.97886,-6.02186\N,
 0,2.01305,-3.18978,-5.46627\H,0,2.69462,-3.39934,-4.7643\H,0,1.39363,-
 3.92837,-5.73262\H,0,4.61839,2.69699,-6.60702\H,0,3.02528,2.80377,-6.9
 4564\H,0,3.56674,3.16123,-5.4486\N,0,0.6415,2.9718,-3.44082\C,0,-0.066
 6,1.80724,-3.61534\C,0,0.16374,4.32293,-3.79703\N,0,-2.93898,0.16243,-
 4.66689\H,0,-3.27787,-0.77711,-4.70777\H,0,-3.54723,0.87942,-5.00845\N
 ,0,-1.30779,1.70244,-4.13735\C,0,-1.72362,0.44896,-4.17627\N,0,-0.9822
 ,-0.62143,-3.73801\H,0,-1.38056,-1.54535,-3.8062\C,0,0.29703,-0.53702,
 -3.19737\O,0,0.88017,-1.56517,-2.83188\C,0,0.75725,0.80341,-3.14906\N,
 0,1.95839,1.32723,-2.69103\C,0,1.84465,2.6134,-2.88347\H,0,2.6112,3.34
 85,-2.63589\H,0,0.78044,4.72964,-4.47014\H,0,-0.7548,4.25789,-4.18475\
 H,0,0.13912,4.89609,-2.97868\H,0,-3.66325,-5.92668,-5.00865\H,0,-4.138
 04,-5.90474,-3.31197\H,0,-3.93682,-4.3883,-4.19018\H,0,0.42301,-7.3874
 8,-2.93137\C,0,-0.13339,-6.46523,-3.099\O,0,1.70431,-5.04961,-2.60306\
 C,0,0.52837,-5.2077,-2.93008\H,0,0.16644,-3.19744,-3.05735\N,0,-0.2660
 1,-4.10396,-3.16665\O,0,-2.20859,-3.06794,-3.72364\C,0,-1.58764,-4.099
 48,-3.53654\H,0,-1.97086,-7.42321,-3.6008\C,0,-1.42184,-6.49322,-3.459
 19\C,0,-3.56599,-5.39576,-4.07338\N,0,-2.15521,-5.35037,-3.67919\H,0,-
 4.06609,-7.23859,-9.6168\H,0,-4.11549,-5.80899,-8.83202\H,0,-4.98192,-
 7.07551,-8.27588\H,0,1.57857,-6.78278,-4.82143\H,0,0.78897,-8.25146,-5
 .18144\N,0,0.82538,-7.25621,-5.27828\C,0,-0.09028,-6.5909,-5.98544\C,0
 ,-2.03569,-6.38575,-7.34008\N,0,-1.9617,-5.04926,-7.45297\H,0,-0.771,-
 3.50241,-6.82839\C,0,-0.90632,-4.5824,-6.78879\N,0,0.01194,-5.24713,-6
 .07992\H,0,-3.22567,-9.35792,-7.78985\C,0,-2.63744,-8.48874,-7.49414\N
 ,0,-1.55885,-8.53662,-6.75114\C,0,-1.16722,-7.20988,-6.64575\C,0,-4.12
 82,-6.80209,-8.71925\N,0,-2.98353,-7.21855,-7.88601\\Version=EM64L-G16
 RevA.03\State=1-A\HF=-2048.7346241\RMSD=7.261e-09\Dipole=-3.6034694,-0
 .8325911,-1.3322286\Quadrupole=0.0692141,33.7808432,-33.8500574,23.614
 9763,1.8886378,7.8859467\PG=C01 [X(C23H27N17O3)]\\@


 SEE YOU NOW,
 YOUR BAIT OF FALSEHOOD TAKES THIS CARP OF TRUTH.
 AND THUS DO WE OF WISDOM AND OF REACH...
 BY INDIRECTIONS FIND DIRECTIONS OUT.    -- HAMLET, II, 1
 Job cpu time:       0 days  5 hours 48 minutes 44.7 seconds.
 Elapsed time:       0 days  0 hours 11 minutes 18.9 seconds.
 File lengths (MBytes):  RWF=    298 Int=      0 D2E=      0 Chk=     33 Scr=      1
 Normal termination of Gaussian 16 at Sat Jan 20 01:52:01 2018.
