 Entering Gaussian System, Link 0=g16
 Input=str10.-20.0.0.com
 Output=str10.-20.0.0.log
 Initial command:
 /share/apps/g16/l1.exe "/state/partition1/scr/Gau-16887.inp" -scrdir="/state/partition1/scr/"
 Entering Link 1 = /share/apps/g16/l1.exe PID=     16888.
  
 Copyright (c) 1988,1990,1992,1993,1995,1998,2003,2009,2016,
            Gaussian, Inc.  All Rights Reserved.
  
 This is part of the Gaussian(R) 16 program.  It is based on
 the Gaussian(R) 09 system (copyright 2009, Gaussian, Inc.),
 the Gaussian(R) 03 system (copyright 2003, Gaussian, Inc.),
 the Gaussian(R) 98 system (copyright 1998, Gaussian, Inc.),
 the Gaussian(R) 94 system (copyright 1995, Gaussian, Inc.),
 the Gaussian 92(TM) system (copyright 1992, Gaussian, Inc.),
 the Gaussian 90(TM) system (copyright 1990, Gaussian, Inc.),
 the Gaussian 88(TM) system (copyright 1988, Gaussian, Inc.),
 the Gaussian 86(TM) system (copyright 1986, Carnegie Mellon
 University), and the Gaussian 82(TM) system (copyright 1983,
 Carnegie Mellon University). Gaussian is a federally registered
 trademark of Gaussian, Inc.
  
 This software contains proprietary and confidential information,
 including trade secrets, belonging to Gaussian, Inc.
  
 This software is provided under written license and may be
 used, copied, transmitted, or stored only in accord with that
 written license.
  
 The following legend is applicable only to US Government
 contracts under FAR:
  
                    RESTRICTED RIGHTS LEGEND
  
 Use, reproduction and disclosure by the US Government is
 subject to restrictions as set forth in subparagraphs (a)
 and (c) of the Commercial Computer Software - Restricted
 Rights clause in FAR 52.227-19.
  
 Gaussian, Inc.
 340 Quinnipiac St., Bldg. 40, Wallingford CT 06492
  
  
 ---------------------------------------------------------------
 Warning -- This program may not be used in any manner that
 competes with the business of Gaussian, Inc. or will provide
 assistance to any competitor of Gaussian, Inc.  The licensee
 of this program is prohibited from giving any competitor of
 Gaussian, Inc. access to this program.  By using this program,
 the user acknowledges that Gaussian, Inc. is engaged in the
 business of creating and licensing software in the field of
 computational chemistry and represents and warrants to the
 licensee that it is not a competitor of Gaussian, Inc. and that
 it will not use this program in any manner prohibited above.
 ---------------------------------------------------------------
  

 Cite this work as:
 Gaussian 16, Revision A.03,
 M. J. Frisch, G. W. Trucks, H. B. Schlegel, G. E. Scuseria, 
 M. A. Robb, J. R. Cheeseman, G. Scalmani, V. Barone, 
 G. A. Petersson, H. Nakatsuji, X. Li, M. Caricato, A. V. Marenich, 
 J. Bloino, B. G. Janesko, R. Gomperts, B. Mennucci, H. P. Hratchian, 
 J. V. Ortiz, A. F. Izmaylov, J. L. Sonnenberg, D. Williams-Young, 
 F. Ding, F. Lipparini, F. Egidi, J. Goings, B. Peng, A. Petrone, 
 T. Henderson, D. Ranasinghe, V. G. Zakrzewski, J. Gao, N. Rega, 
 G. Zheng, W. Liang, M. Hada, M. Ehara, K. Toyota, R. Fukuda, 
 J. Hasegawa, M. Ishida, T. Nakajima, Y. Honda, O. Kitao, H. Nakai, 
 T. Vreven, K. Throssell, J. A. Montgomery, Jr., J. E. Peralta, 
 F. Ogliaro, M. J. Bearpark, J. J. Heyd, E. N. Brothers, K. N. Kudin, 
 V. N. Staroverov, T. A. Keith, R. Kobayashi, J. Normand, 
 K. Raghavachari, A. P. Rendell, J. C. Burant, S. S. Iyengar, 
 J. Tomasi, M. Cossi, J. M. Millam, M. Klene, C. Adamo, R. Cammi, 
 J. W. Ochterski, R. L. Martin, K. Morokuma, O. Farkas, 
 J. B. Foresman, and D. J. Fox, Gaussian, Inc., Wallingford CT, 2016.
 
 ******************************************
 Gaussian 16:  EM64L-G16RevA.03 25-Dec-2016
                18-Jan-2018 
 ******************************************
 %nprocshared=32
 Will use up to   32 processors via shared memory.
 %mem=32GB
 %chk=allatoms_t.chk
 ---------------------------------------
 #p wb97xd/cc-pvdz sp scf=(maxcycles=20)
 ---------------------------------------
 1/38=1,172=1/1;
 2/12=2,17=6,18=5,40=1/2;
 3/5=16,11=2,25=1,30=1,74=-58/1,2,3;
 4//1;
 5/5=2,7=20,38=5/2;
 6/7=2,8=2,9=2,10=2,28=1/1;
 99/5=1,9=1/99;
 Leave Link    1 at Thu Jan 18 05:42:12 2018, MaxMem=  4294967296 cpu:               2.7 elap:               0.1
 (Enter /share/apps/g16/l101.exe)
 ------------------
 Base pair stacking
 ------------------
 Symbolic Z-matrix:
 Charge =  0 Multiplicity = 1
 N                    -1.36822   6.0036   -5.7763 
 C                    -1.77234   7.36491  -5.3744 
 C                    -1.29264   3.82228  -6.04726 
 N                    -0.18954   4.33469  -6.71458 
 C                    -0.27922   5.62835  -6.52462 
 H                     0.42832   6.36231  -6.91146 
 N                    -2.89717   2.344    -5.15109 
 C                    -3.50073   3.42556  -4.64756 
 H                    -4.40705   3.22876  -4.0765 
 N                    -3.15444   4.70769  -4.7431 
 C                    -2.0286    4.83898  -5.46398 
 C                    -1.76647   2.50942  -5.87166 
 N                    -1.16255   1.43101  -6.37511 
 H                    -0.32331   1.50633  -6.91477 
 H                    -1.52818   0.51154  -6.2301 
 H                    -1.93425   7.92049  -6.19006 
 H                    -2.61084   7.31811  -4.83232 
 H                    -1.04672   7.78246  -4.82747 
 N                    -1.0341    4.90918  -2.89059 
 C                    -1.53152   3.63598  -2.75064 
 C                    -1.80037   6.15333  -2.67699 
 N                    -4.16986   1.50192  -2.01123 
 H                    -4.3309    0.51642  -1.96557 
 H                    -4.94324   2.09853  -1.79524 
 N                    -2.7937    3.31022  -2.39734 
 C                    -2.97102   2.00192  -2.34692 
 N                    -1.98872   1.08138  -2.62116 
 H                    -2.21439   0.10057  -2.55742 
 C                    -0.6831    1.39389  -2.98661 
 O                     0.12703   0.48652  -3.21269 
 C                    -0.47742   2.79573  -3.04502 
 N                     0.6589    3.52672  -3.36336 
 C                     0.28209   4.77222  -3.25872 
 H                     0.9265    5.63322  -3.43953 
 H                    -1.81287   6.68815  -3.52115 
 H                    -2.73696   5.92458  -2.41483 
 H                    -1.37318   6.68913  -1.9495 
 H                    -4.14321  -4.60211  -2.68853 
 H                    -3.42746  -4.71664  -1.08253 
 H                    -4.03121  -3.1667   -1.6695 
 H                     0.4761   -5.31121  -3.83122 
 C                    -0.17399  -4.50796  -3.48421 
 O                     1.35405  -2.7814   -4.04209 
 C                     0.27251  -3.15223  -3.58652 
 H                    -0.34604  -1.24533  -3.17486 
 N                    -0.62607  -2.21446  -3.11917 
 O                    -2.59269  -1.55372  -2.19558 
 C                    -1.86687  -2.45242  -2.58315 
 H                    -1.7653   -5.78525  -2.8661 
 C                    -1.37915  -4.77171  -2.96592 
 C                    -3.54345  -4.08762  -1.95256 
 N                    -2.2259   -3.78436  -2.51813 
 H                    -6.36904  -4.6449   -3.81552 
 H                    -5.66665  -3.44675  -2.95926 
 H                    -5.26308  -5.00152  -2.66961 
 H                    -0.4935   -2.00446  -7.49949 
 H                    -0.96007  -3.64424  -7.55874 
 N                    -1.08361  -2.73592  -7.15761 
 C                    -1.99506  -2.51114  -6.20898 
 C                    -3.74254  -3.11842  -4.71257 
 N                    -3.8863   -1.88844  -4.19207 
 H                    -3.07828  -0.0153   -4.38961 
 C                    -3.02871  -1.03994  -4.75553 
 N                    -2.11506  -1.26315  -5.7058 
 H                    -4.32705  -6.2709   -5.12777 
 C                    -3.94428  -5.25125  -5.18026 
 N                    -2.98573  -4.85543  -5.98162 
 C                    -2.84787  -3.50498  -5.69525 
 C                    -5.52256  -4.34351  -3.37662 
 N                    -4.44809  -4.2517   -4.38414 
 
 ITRead=  0  0  0  0  0  0  0  0  0  0  0  0  0  0  0  0  0  0  0  0
 ITRead=  0  0  0  0  0  0  0  0  0  0  0  0  0  0  0  0  0  0  0  0
 ITRead=  0  0  0  0  0  0  0  0  0  0  0  0  0  0  0  0  0  0  0  0
 ITRead=  0  0  0  0  0  0  0  0  0  0
 MicOpt= -1 -1 -1 -1 -1 -1 -1 -1 -1 -1 -1 -1 -1 -1 -1 -1 -1 -1 -1 -1
 MicOpt= -1 -1 -1 -1 -1 -1 -1 -1 -1 -1 -1 -1 -1 -1 -1 -1 -1 -1 -1 -1
 MicOpt= -1 -1 -1 -1 -1 -1 -1 -1 -1 -1 -1 -1 -1 -1 -1 -1 -1 -1 -1 -1
 MicOpt= -1 -1 -1 -1 -1 -1 -1 -1 -1 -1
 NAtoms=     70 NQM=       70 NQMF=       0 NMMI=      0 NMMIF=      0
                NMic=       0 NMicF=      0.
                    Isotopes and Nuclear Properties:
 (Nuclear quadrupole moments (NQMom) in fm**2, nuclear magnetic moments (NMagM)
  in nuclear magnetons)

  Atom         1           2           3           4           5           6           7           8           9          10
 IAtWgt=          14          12          12          14          12           1          14          12           1          14
 AtmWgt=  14.0030740  12.0000000  12.0000000  14.0030740  12.0000000   1.0078250  14.0030740  12.0000000   1.0078250  14.0030740
 NucSpn=           2           0           0           2           0           1           2           0           1           2
 AtZEff=  -0.0000000  -0.0000000  -0.0000000  -0.0000000  -0.0000000  -0.0000000  -0.0000000  -0.0000000  -0.0000000  -0.0000000
 NQMom=    2.0440000   0.0000000   0.0000000   2.0440000   0.0000000   0.0000000   2.0440000   0.0000000   0.0000000   2.0440000
 NMagM=    0.4037610   0.0000000   0.0000000   0.4037610   0.0000000   2.7928460   0.4037610   0.0000000   2.7928460   0.4037610
 AtZNuc=   7.0000000   6.0000000   6.0000000   7.0000000   6.0000000   1.0000000   7.0000000   6.0000000   1.0000000   7.0000000

  Atom        11          12          13          14          15          16          17          18          19          20
 IAtWgt=          12          12          14           1           1           1           1           1          14          12
 AtmWgt=  12.0000000  12.0000000  14.0030740   1.0078250   1.0078250   1.0078250   1.0078250   1.0078250  14.0030740  12.0000000
 NucSpn=           0           0           2           1           1           1           1           1           2           0
 AtZEff=  -0.0000000  -0.0000000  -0.0000000  -0.0000000  -0.0000000  -0.0000000  -0.0000000  -0.0000000  -0.0000000  -0.0000000
 NQMom=    0.0000000   0.0000000   2.0440000   0.0000000   0.0000000   0.0000000   0.0000000   0.0000000   2.0440000   0.0000000
 NMagM=    0.0000000   0.0000000   0.4037610   2.7928460   2.7928460   2.7928460   2.7928460   2.7928460   0.4037610   0.0000000
 AtZNuc=   6.0000000   6.0000000   7.0000000   1.0000000   1.0000000   1.0000000   1.0000000   1.0000000   7.0000000   6.0000000

  Atom        21          22          23          24          25          26          27          28          29          30
 IAtWgt=          12          14           1           1          14          12          14           1          12          16
 AtmWgt=  12.0000000  14.0030740   1.0078250   1.0078250  14.0030740  12.0000000  14.0030740   1.0078250  12.0000000  15.9949146
 NucSpn=           0           2           1           1           2           0           2           1           0           0
 AtZEff=  -0.0000000  -0.0000000  -0.0000000  -0.0000000  -0.0000000  -0.0000000  -0.0000000  -0.0000000  -0.0000000  -0.0000000
 NQMom=    0.0000000   2.0440000   0.0000000   0.0000000   2.0440000   0.0000000   2.0440000   0.0000000   0.0000000   0.0000000
 NMagM=    0.0000000   0.4037610   2.7928460   2.7928460   0.4037610   0.0000000   0.4037610   2.7928460   0.0000000   0.0000000
 AtZNuc=   6.0000000   7.0000000   1.0000000   1.0000000   7.0000000   6.0000000   7.0000000   1.0000000   6.0000000   8.0000000

  Atom        31          32          33          34          35          36          37          38          39          40
 IAtWgt=          12          14          12           1           1           1           1           1           1           1
 AtmWgt=  12.0000000  14.0030740  12.0000000   1.0078250   1.0078250   1.0078250   1.0078250   1.0078250   1.0078250   1.0078250
 NucSpn=           0           2           0           1           1           1           1           1           1           1
 AtZEff=  -0.0000000  -0.0000000  -0.0000000  -0.0000000  -0.0000000  -0.0000000  -0.0000000  -0.0000000  -0.0000000  -0.0000000
 NQMom=    0.0000000   2.0440000   0.0000000   0.0000000   0.0000000   0.0000000   0.0000000   0.0000000   0.0000000   0.0000000
 NMagM=    0.0000000   0.4037610   0.0000000   2.7928460   2.7928460   2.7928460   2.7928460   2.7928460   2.7928460   2.7928460
 AtZNuc=   6.0000000   7.0000000   6.0000000   1.0000000   1.0000000   1.0000000   1.0000000   1.0000000   1.0000000   1.0000000

  Atom        41          42          43          44          45          46          47          48          49          50
 IAtWgt=           1          12          16          12           1          14          16          12           1          12
 AtmWgt=   1.0078250  12.0000000  15.9949146  12.0000000   1.0078250  14.0030740  15.9949146  12.0000000   1.0078250  12.0000000
 NucSpn=           1           0           0           0           1           2           0           0           1           0
 AtZEff=  -0.0000000  -0.0000000  -0.0000000  -0.0000000  -0.0000000  -0.0000000  -0.0000000  -0.0000000  -0.0000000  -0.0000000
 NQMom=    0.0000000   0.0000000   0.0000000   0.0000000   0.0000000   2.0440000   0.0000000   0.0000000   0.0000000   0.0000000
 NMagM=    2.7928460   0.0000000   0.0000000   0.0000000   2.7928460   0.4037610   0.0000000   0.0000000   2.7928460   0.0000000
 AtZNuc=   1.0000000   6.0000000   8.0000000   6.0000000   1.0000000   7.0000000   8.0000000   6.0000000   1.0000000   6.0000000

  Atom        51          52          53          54          55          56          57          58          59          60
 IAtWgt=          12          14           1           1           1           1           1          14          12          12
 AtmWgt=  12.0000000  14.0030740   1.0078250   1.0078250   1.0078250   1.0078250   1.0078250  14.0030740  12.0000000  12.0000000
 NucSpn=           0           2           1           1           1           1           1           2           0           0
 AtZEff=  -0.0000000  -0.0000000  -0.0000000  -0.0000000  -0.0000000  -0.0000000  -0.0000000  -0.0000000  -0.0000000  -0.0000000
 NQMom=    0.0000000   2.0440000   0.0000000   0.0000000   0.0000000   0.0000000   0.0000000   2.0440000   0.0000000   0.0000000
 NMagM=    0.0000000   0.4037610   2.7928460   2.7928460   2.7928460   2.7928460   2.7928460   0.4037610   0.0000000   0.0000000
 AtZNuc=   6.0000000   7.0000000   1.0000000   1.0000000   1.0000000   1.0000000   1.0000000   7.0000000   6.0000000   6.0000000

  Atom        61          62          63          64          65          66          67          68          69          70
 IAtWgt=          14           1          12          14           1          12          14          12          12          14
 AtmWgt=  14.0030740   1.0078250  12.0000000  14.0030740   1.0078250  12.0000000  14.0030740  12.0000000  12.0000000  14.0030740
 NucSpn=           2           1           0           2           1           0           2           0           0           2
 AtZEff=  -0.0000000  -0.0000000  -0.0000000  -0.0000000  -0.0000000  -0.0000000  -0.0000000  -0.0000000  -0.0000000  -0.0000000
 NQMom=    2.0440000   0.0000000   0.0000000   2.0440000   0.0000000   0.0000000   2.0440000   0.0000000   0.0000000   2.0440000
 NMagM=    0.4037610   2.7928460   0.0000000   0.4037610   2.7928460   0.0000000   0.4037610   0.0000000   0.0000000   0.4037610
 AtZNuc=   7.0000000   1.0000000   6.0000000   7.0000000   1.0000000   6.0000000   7.0000000   6.0000000   6.0000000   7.0000000
 Leave Link  101 at Thu Jan 18 05:42:13 2018, MaxMem=  4294967296 cpu:               7.8 elap:               0.3
 (Enter /share/apps/g16/l202.exe)
 Stoichiometry    C23H27N17O3
 Framework group  C1[X(C23H27N17O3)]
 Deg. of freedom   204
 Full point group                 C1      NOp   1
 Largest Abelian subgroup         C1      NOp   1
 Largest concise Abelian subgroup C1      NOp   1
                         Standard orientation:                         
 ---------------------------------------------------------------------
 Center     Atomic      Atomic             Coordinates (Angstroms)
 Number     Number       Type             X           Y           Z
 ---------------------------------------------------------------------
      1          7           0       -5.701478    0.887602   -1.002814
      2          6           0       -6.971328    0.151671   -1.157372
      3          6           0       -3.568447    1.421751   -0.956436
      4          7           0       -4.262073    2.560378   -0.572871
      5          6           0       -5.519388    2.192996   -0.616155
      6          1           0       -6.363023    2.839915   -0.373808
      7          7           0       -1.838439   -0.083610   -1.507715
      8          6           0       -2.798804   -0.986893   -1.729928
      9          1           0       -2.449486   -1.968541   -2.047104
     10          7           0       -4.119674   -0.860207   -1.619684
     11          6           0       -4.442256    0.382499   -1.224659
     12          6           0       -2.195432    1.157544   -1.111282
     13          7           0       -1.238229    2.060589   -0.888974
     14          1           0       -1.456509    2.991585   -0.594305
     15          1           0       -0.270826    1.837454   -1.009311
     16          1           0       -7.540674    0.606729   -1.842173
     17          1           0       -6.781233   -0.784363   -1.452036
     18          1           0       -7.456206    0.132095   -0.283006
     19          7           0       -4.515880   -0.983004    1.172479
     20          6           0       -3.180679   -1.239626    0.973896
     21          6           0       -5.629590   -1.785932    0.628733
     22          7           0       -0.667435   -3.188090   -0.422122
     23          1           0        0.331891   -3.198268   -0.443880
     24          1           0       -1.139577   -3.914659   -0.922014
     25          7           0       -2.665943   -2.260166    0.254463
     26          6           0       -1.344851   -2.242998    0.247067
     27          7           0       -0.584176   -1.299456    0.894073
     28          1           0        0.420369   -1.364610    0.833891
     29          6           0       -1.092433   -0.240677    1.640077
     30          8           0       -0.318523    0.556329    2.184676
     31          6           0       -2.510371   -0.245879    1.657243
     32          7           0       -3.406724    0.617236    2.272462
     33          6           0       -4.581176    0.141823    1.958058
     34          1           0       -5.531089    0.574528    2.273825
     35          1           0       -6.200506   -1.212743    0.041958
     36          1           0       -5.260471   -2.544868    0.093924
     37          1           0       -6.180884   -2.146354    1.380389
     38          1           0        5.331175   -1.871370   -0.382628
     39          1           0        5.428707   -2.643789    1.198039
     40          1           0        3.948699   -2.768223    0.246485
     41          1           0        5.335660    1.990653    2.486405
     42          6           0        4.648891    1.214141    2.149326
     43          8           0        2.701376    2.379722    2.839072
     44          6           0        3.241039    1.399392    2.326721
     45          1           0        1.461672    0.452040    1.973577
     46          7           0        2.461753    0.357547    1.865693
     47          8           0        2.127527   -1.668662    0.896177
     48          6           0        2.896149   -0.801349    1.272575
     49          1           0        6.163897   -0.094728    1.416240
     50          6           0        5.102957    0.094492    1.574166
     51          6           0        4.777571   -2.127531    0.508421
     52          7           0        4.266465   -0.906181    1.136790
     53          1           0        5.622508   -2.392914   -2.805307
     54          1           0        4.384768   -2.764588   -1.809337
     55          1           0        5.881812   -2.536209   -1.200420
     56          1           0        2.009166    3.782846   -0.838261
     57          1           0        3.692377    3.745545   -1.113005
     58          7           0        2.831789    3.243724   -1.019323
     59          6           0        2.784373    1.914651   -1.131042
     60          6           0        3.703684   -0.253067   -1.473949
     61          7           0        2.533917   -0.900418   -1.343484
     62          1           0        0.559471   -0.481577   -0.987525
     63          6           0        1.547142   -0.038311   -1.106954
     64          7           0        1.592617    1.293201   -0.994707
     65          1           0        6.880935    0.102628   -1.954291
     66          6           0        5.816867    0.252548   -1.769261
     67          7           0        5.251580    1.418634   -1.573391
     68          6           0        3.911667    1.112337   -1.384856
     69          6           0        5.230246   -2.238890   -1.898442
     70          7           0        4.938979   -0.802847   -1.722506
 ---------------------------------------------------------------------
 Rotational constants (GHZ):           0.1923845           0.0527684           0.0518962
 Leave Link  202 at Thu Jan 18 05:42:13 2018, MaxMem=  4294967296 cpu:               0.4 elap:               0.0
 (Enter /share/apps/g16/l301.exe)
 Standard basis: CC-pVDZ (5D, 7F)
 Ernie: Thresh=  0.10000D-02 Tol=  0.10000D-05 Strict=F.
 Ernie:  86 primitive shells out of 1081 were deleted.
 There are   780 symmetry adapted cartesian basis functions of A   symmetry.
 There are   737 symmetry adapted basis functions of A   symmetry.
   737 basis functions,  1608 primitive gaussians,   780 cartesian basis functions
   154 alpha electrons      154 beta electrons
       nuclear repulsion energy      5714.7193710395 Hartrees.
 IExCor= 4639 DFT=T Ex+Corr=wB97XD ExCW=0 ScaHFX=  1.000000
 ScaDFX=  1.000000  1.000000  1.000000  1.000000 ScalE2=  1.000000  1.000000
 IRadAn=      5 IRanWt=     -1 IRanGd=            0 ICorTp=0 IEmpDi=121
 HFx  wShort=  0.000000 wLong=  0.200000 cFull=  0.222036 cShort=  0.000000 cLong=  0.777964
 DFx  wShort=  0.000000 wLong=  0.200000 cFull=  0.000000 cShort=  0.000000 cLong=  1.000000
 NAtoms=   70 NActive=   70 NUniq=   70 SFac= 1.00D+00 NAtFMM=   60 NAOKFM=T Big=T
 Integral buffers will be    131072 words long.
 Raffenetti 2 integral format.
 Two-electron integral symmetry is turned on.
 R6Disp:  Grimme-D2 Dispersion energy=       -0.0847723686 Hartrees.
 Nuclear repulsion after empirical dispersion term =     5714.6345986709 Hartrees.
 Leave Link  301 at Thu Jan 18 05:42:13 2018, MaxMem=  4294967296 cpu:               3.0 elap:               0.1
 (Enter /share/apps/g16/l302.exe)
 NPDir=0 NMtPBC=     1 NCelOv=     1 NCel=       1 NClECP=     1 NCelD=      1
         NCelK=      1 NCelE2=     1 NClLst=     1 CellRange=     0.0.
 One-electron integrals computed using PRISM.
 One-electron integral symmetry used in STVInt
 NBasis=   737 RedAO= T EigKep=  6.02D-04  NBF=   737
 NBsUse=   737 1.00D-06 EigRej= -1.00D+00 NBFU=   737
 Precomputing XC quadrature grid using
 IXCGrd= 4 IRadAn=           5 IRanWt=          -1 IRanGd=           0 AccXCQ= 0.00D+00.
 Generated NRdTot=       0 NPtTot=           0 NUsed=           0 NTot=          32
 NSgBfM=   770   770   770   770   770 MxSgAt=    70 MxSgA2=    70.
 Leave Link  302 at Thu Jan 18 05:42:17 2018, MaxMem=  4294967296 cpu:             139.8 elap:               4.4
 (Enter /share/apps/g16/l303.exe)
 DipDrv:  MaxL=1.
 Leave Link  303 at Thu Jan 18 05:42:18 2018, MaxMem=  4294967296 cpu:              12.6 elap:               0.4
 (Enter /share/apps/g16/l401.exe)
 ExpMin= 1.22D-01 ExpMax= 1.17D+04 ExpMxC= 4.01D+02 IAcc=3 IRadAn=         5 AccDes= 0.00D+00
 Harris functional with IExCor= 4639 and IRadAn=       5 diagonalized for initial guess.
 HarFok:  IExCor= 4639 AccDes= 0.00D+00 IRadAn=         5 IDoV= 1 UseB2=F ITyADJ=14
 ICtDFT=  3500011 ScaDFX=  1.000000  1.000000  1.000000  1.000000
 FoFCou: FMM=F IPFlag=           0 FMFlag=      100000 FMFlg1=        2001
         NFxFlg=           0 DoJE=T BraDBF=F KetDBF=T FulRan=T
         wScrn=  0.000000 ICntrl=       500 IOpCl=  0 I1Cent=   200000004 NGrid=           0
         NMat0=    1 NMatS0=      1 NMatT0=    0 NMatD0=    1 NMtDS0=    0 NMtDT0=    0
 Petite list used in FoFCou.
 Harris En= -1963.71696010854    
 JPrj=0 DoOrth=F DoCkMO=F.
 Leave Link  401 at Thu Jan 18 05:42:31 2018, MaxMem=  4294967296 cpu:             430.9 elap:              13.5
 (Enter /share/apps/g16/l502.exe)
 Integral symmetry usage will be decided dynamically.
 Closed shell SCF:
 Using DIIS extrapolation, IDIIS=  1040.
 NGot=  4294967296 LenX=  4293717438 LenY=  4293108258
 Requested convergence on RMS density matrix=1.00D-08 within  20 cycles.
 Requested convergence on MAX density matrix=1.00D-06.
 Requested convergence on             energy=1.00D-06.
 No special actions if energy rises.
 Fock matrices will be formed incrementally for  20 cycles.
 Integral accuracy reduced to 1.0D-05 until final iterations.

 Cycle   1  Pass 0  IDiag  1:
 FoFJK:  IHMeth= 1 ICntrl=       0 DoSepK=T KAlg= 0 I1Cent=           0 FoldK=F
 IRaf=         1 NMat=       1 IRICut=       1 DoRegI=T DoRafI=F ISym2E= 0 IDoP0=0 IntGTp=1.
 FoFCou: FMM=T IPFlag=           0 FMFlag=      100000 FMFlg1=        2001
         NFxFlg=           0 DoJE=T BraDBF=F KetDBF=F FulRan=T
         wScrn=  0.000000 ICntrl=       500 IOpCl=  0 I1Cent=           0 NGrid=           0
         NMat0=    1 NMatS0=      1 NMatT0=    0 NMatD0=    1 NMtDS0=    0 NMtDT0=    0
 Symmetry not used in FoFCou.
 FMM levels:  10  Number of levels for PrismC:   9
 E= -2048.17446072546    
 DIIS: error= 1.86D-02 at cycle   1 NSaved=   1.
 NSaved= 1 IEnMin= 1 EnMin= -2048.17446072546     IErMin= 1 ErrMin= 1.86D-02
 ErrMax= 1.86D-02  0.00D+00 EMaxC= 1.00D-01 BMatC= 8.42D-01 BMatP= 8.42D-01
 IDIUse=3 WtCom= 8.14D-01 WtEn= 1.86D-01
 Coeff-Com:  0.100D+01
 Coeff-En:   0.100D+01
 Coeff:      0.100D+01
 Gap=     0.257 Goal=   None    Shift=    0.000
 GapD=    0.257 DampG=1.000 DampE=0.500 DampFc=0.5000 IDamp=-1.
 Damping current iteration by 5.00D-01
 RMSDP=1.69D-03 MaxDP=1.26D-01              OVMax= 2.17D-01

 Cycle   2  Pass 0  IDiag  1:
 RMSU=  8.42D-04    CP:  9.97D-01
 E= -2048.36999294188     Delta-E=       -0.195532216428 Rises=F Damp=T
 DIIS: error= 8.87D-03 at cycle   2 NSaved=   2.
 NSaved= 2 IEnMin= 2 EnMin= -2048.36999294188     IErMin= 2 ErrMin= 8.87D-03
 ErrMax= 8.87D-03  0.00D+00 EMaxC= 1.00D-01 BMatC= 1.49D-01 BMatP= 8.42D-01
 IDIUse=3 WtCom= 9.11D-01 WtEn= 8.87D-02
 Coeff-Com: -0.167D+00 0.117D+01
 Coeff-En:   0.000D+00 0.100D+01
 Coeff:     -0.152D+00 0.115D+01
 Gap=     0.304 Goal=   None    Shift=    0.000
 RMSDP=6.47D-04 MaxDP=3.69D-02 DE=-1.96D-01 OVMax= 1.36D-01

 Cycle   3  Pass 0  IDiag  1:
 RMSU=  6.40D-04    CP:  9.93D-01  1.09D+00
 E= -2048.54667695077     Delta-E=       -0.176684008889 Rises=F Damp=F
 DIIS: error= 7.12D-03 at cycle   3 NSaved=   3.
 NSaved= 3 IEnMin= 3 EnMin= -2048.54667695077     IErMin= 3 ErrMin= 7.12D-03
 ErrMax= 7.12D-03  0.00D+00 EMaxC= 1.00D-01 BMatC= 7.84D-02 BMatP= 1.49D-01
 IDIUse=3 WtCom= 9.29D-01 WtEn= 7.12D-02
 Coeff-Com: -0.235D+00 0.570D+00 0.665D+00
 Coeff-En:   0.000D+00 0.000D+00 0.100D+01
 Coeff:     -0.218D+00 0.530D+00 0.689D+00
 Gap=     0.283 Goal=   None    Shift=    0.000
 RMSDP=4.18D-04 MaxDP=3.31D-02 DE=-1.77D-01 OVMax= 7.68D-02

 Cycle   4  Pass 0  IDiag  1:
 RMSU=  2.27D-04    CP:  9.93D-01  1.41D+00  6.40D-01
 E= -2048.60548533819     Delta-E=       -0.058808387417 Rises=F Damp=F
 DIIS: error= 2.28D-03 at cycle   4 NSaved=   4.
 NSaved= 4 IEnMin= 4 EnMin= -2048.60548533819     IErMin= 4 ErrMin= 2.28D-03
 ErrMax= 2.28D-03  0.00D+00 EMaxC= 1.00D-01 BMatC= 1.13D-02 BMatP= 7.84D-02
 IDIUse=3 WtCom= 9.77D-01 WtEn= 2.28D-02
 Coeff-Com: -0.983D-01 0.190D+00 0.373D+00 0.535D+00
 Coeff-En:   0.000D+00 0.000D+00 0.800D-01 0.920D+00
 Coeff:     -0.961D-01 0.186D+00 0.367D+00 0.543D+00
 Gap=     0.282 Goal=   None    Shift=    0.000
 RMSDP=1.45D-04 MaxDP=1.15D-02 DE=-5.88D-02 OVMax= 1.55D-02

 Cycle   5  Pass 0  IDiag  1:
 RMSU=  6.60D-05    CP:  9.92D-01  1.38D+00  7.81D-01  6.18D-01
 E= -2048.61494820648     Delta-E=       -0.009462868287 Rises=F Damp=F
 DIIS: error= 4.49D-04 at cycle   5 NSaved=   5.
 NSaved= 5 IEnMin= 5 EnMin= -2048.61494820648     IErMin= 5 ErrMin= 4.49D-04
 ErrMax= 4.49D-04  0.00D+00 EMaxC= 1.00D-01 BMatC= 3.18D-04 BMatP= 1.13D-02
 IDIUse=3 WtCom= 9.96D-01 WtEn= 4.49D-03
 Coeff-Com: -0.264D-01 0.453D-01 0.122D+00 0.237D+00 0.622D+00
 Coeff-En:   0.000D+00 0.000D+00 0.000D+00 0.000D+00 0.100D+01
 Coeff:     -0.262D-01 0.451D-01 0.121D+00 0.236D+00 0.624D+00
 Gap=     0.282 Goal=   None    Shift=    0.000
 RMSDP=2.95D-05 MaxDP=1.85D-03 DE=-9.46D-03 OVMax= 3.58D-03

 Failed to achieve initial convergence to 1.0D-08 in  6 cycles.
 Switch to full accuracy anyway.
 Cycle   6  Pass 1  IDiag  1:
 E= -2048.61509409832     Delta-E=       -0.000145891839 Rises=F Damp=F
 DIIS: error= 5.40D-04 at cycle   1 NSaved=   1.
 NSaved= 1 IEnMin= 1 EnMin= -2048.61509409832     IErMin= 1 ErrMin= 5.40D-04
 ErrMax= 5.40D-04  0.00D+00 EMaxC= 1.00D-01 BMatC= 9.11D-05 BMatP= 9.11D-05
 IDIUse=3 WtCom= 9.95D-01 WtEn= 5.40D-03
 Coeff-Com:  0.100D+01
 Coeff-En:   0.100D+01
 Coeff:      0.100D+01
 Gap=     0.282 Goal=   None    Shift=    0.000
 RMSDP=2.95D-05 MaxDP=1.85D-03 DE=-1.46D-04 OVMax= 2.38D-03

 Cycle   7  Pass 1  IDiag  1:
 RMSU=  1.33D-04    CP:  1.00D+00
 E= -2048.61515108281     Delta-E=       -0.000056984498 Rises=F Damp=F
 DIIS: error= 1.75D-04 at cycle   2 NSaved=   2.
 NSaved= 2 IEnMin= 2 EnMin= -2048.61515108281     IErMin= 2 ErrMin= 1.75D-04
 ErrMax= 1.75D-04  0.00D+00 EMaxC= 1.00D-01 BMatC= 5.72D-05 BMatP= 9.11D-05
 IDIUse=3 WtCom= 9.98D-01 WtEn= 1.75D-03
 Coeff-Com:  0.423D+00 0.577D+00
 Coeff-En:   0.998D-01 0.900D+00
 Coeff:      0.422D+00 0.578D+00
 Gap=     0.282 Goal=   None    Shift=    0.000
 RMSDP=1.41D-05 MaxDP=1.02D-03 DE=-5.70D-05 OVMax= 2.06D-03

 Cycle   8  Pass 1  IDiag  1:
 RMSU=  1.38D-05    CP:  1.00D+00  1.02D+00
 E= -2048.61519398784     Delta-E=       -0.000042905030 Rises=F Damp=F
 DIIS: error= 7.43D-05 at cycle   3 NSaved=   3.
 NSaved= 3 IEnMin= 3 EnMin= -2048.61519398784     IErMin= 3 ErrMin= 7.43D-05
 ErrMax= 7.43D-05  0.00D+00 EMaxC= 1.00D-01 BMatC= 1.22D-05 BMatP= 5.72D-05
 IDIUse=1 WtCom= 1.00D+00 WtEn= 0.00D+00
 Coeff-Com: -0.158D-01 0.303D+00 0.712D+00
 Coeff:     -0.158D-01 0.303D+00 0.712D+00
 Gap=     0.282 Goal=   None    Shift=    0.000
 RMSDP=6.61D-06 MaxDP=3.71D-04 DE=-4.29D-05 OVMax= 7.41D-04

 Cycle   9  Pass 1  IDiag  1:
 RMSU=  4.28D-06    CP:  1.00D+00  1.05D+00  7.55D-01
 E= -2048.61520594624     Delta-E=       -0.000011958395 Rises=F Damp=F
 DIIS: error= 3.51D-05 at cycle   4 NSaved=   4.
 NSaved= 4 IEnMin= 4 EnMin= -2048.61520594624     IErMin= 4 ErrMin= 3.51D-05
 ErrMax= 3.51D-05  0.00D+00 EMaxC= 1.00D-01 BMatC= 7.19D-07 BMatP= 1.22D-05
 IDIUse=1 WtCom= 1.00D+00 WtEn= 0.00D+00
 Coeff-Com: -0.296D-01 0.957D-01 0.296D+00 0.638D+00
 Coeff:     -0.296D-01 0.957D-01 0.296D+00 0.638D+00
 Gap=     0.282 Goal=   None    Shift=    0.000
 RMSDP=1.63D-06 MaxDP=1.04D-04 DE=-1.20D-05 OVMax= 3.92D-04

 Cycle  10  Pass 1  IDiag  1:
 RMSU=  1.49D-06    CP:  1.00D+00  1.05D+00  7.92D-01  1.05D+00
 E= -2048.61520698729     Delta-E=       -0.000001041048 Rises=F Damp=F
 DIIS: error= 1.53D-05 at cycle   5 NSaved=   5.
 NSaved= 5 IEnMin= 5 EnMin= -2048.61520698729     IErMin= 5 ErrMin= 1.53D-05
 ErrMax= 1.53D-05  0.00D+00 EMaxC= 1.00D-01 BMatC= 1.42D-07 BMatP= 7.19D-07
 IDIUse=1 WtCom= 1.00D+00 WtEn= 0.00D+00
 Coeff-Com: -0.532D-02-0.432D-01-0.867D-01 0.210D+00 0.925D+00
 Coeff:     -0.532D-02-0.432D-01-0.867D-01 0.210D+00 0.925D+00
 Gap=     0.282 Goal=   None    Shift=    0.000
 RMSDP=1.24D-06 MaxDP=6.55D-05 DE=-1.04D-06 OVMax= 2.40D-04

 Cycle  11  Pass 1  IDiag  1:
 RMSU=  5.49D-07    CP:  1.00D+00  1.05D+00  8.01D-01  1.31D+00  1.17D+00
 E= -2048.61520728822     Delta-E=       -0.000000300933 Rises=F Damp=F
 DIIS: error= 7.04D-06 at cycle   6 NSaved=   6.
 NSaved= 6 IEnMin= 6 EnMin= -2048.61520728822     IErMin= 6 ErrMin= 7.04D-06
 ErrMax= 7.04D-06  0.00D+00 EMaxC= 1.00D-01 BMatC= 3.89D-08 BMatP= 1.42D-07
 IDIUse=1 WtCom= 1.00D+00 WtEn= 0.00D+00
 Coeff-Com:  0.474D-02-0.469D-01-0.121D+00-0.217D-01 0.511D+00 0.674D+00
 Coeff:      0.474D-02-0.469D-01-0.121D+00-0.217D-01 0.511D+00 0.674D+00
 Gap=     0.282 Goal=   None    Shift=    0.000
 RMSDP=5.16D-07 MaxDP=3.40D-05 DE=-3.01D-07 OVMax= 1.23D-04

 Cycle  12  Pass 1  IDiag  1:
 RMSU=  2.32D-07    CP:  1.00D+00  1.05D+00  8.04D-01  1.40D+00  1.33D+00
                    CP:  9.70D-01
 E= -2048.61520734937     Delta-E=       -0.000000061149 Rises=F Damp=F
 DIIS: error= 1.32D-06 at cycle   7 NSaved=   7.
 NSaved= 7 IEnMin= 7 EnMin= -2048.61520734937     IErMin= 7 ErrMin= 1.32D-06
 ErrMax= 1.32D-06  0.00D+00 EMaxC= 1.00D-01 BMatC= 9.55D-10 BMatP= 3.89D-08
 IDIUse=1 WtCom= 1.00D+00 WtEn= 0.00D+00
 Coeff-Com:  0.136D-02-0.102D-01-0.274D-01-0.132D-01 0.862D-01 0.163D+00
 Coeff-Com:  0.800D+00
 Coeff:      0.136D-02-0.102D-01-0.274D-01-0.132D-01 0.862D-01 0.163D+00
 Coeff:      0.800D+00
 Gap=     0.282 Goal=   None    Shift=    0.000
 RMSDP=9.14D-08 MaxDP=5.20D-06 DE=-6.11D-08 OVMax= 2.33D-05

 Cycle  13  Pass 1  IDiag  1:
 RMSU=  5.92D-08    CP:  1.00D+00  1.05D+00  8.04D-01  1.40D+00  1.35D+00
                    CP:  1.05D+00  1.12D+00
 E= -2048.61520735159     Delta-E=       -0.000000002226 Rises=F Damp=F
 DIIS: error= 5.58D-07 at cycle   8 NSaved=   8.
 NSaved= 8 IEnMin= 8 EnMin= -2048.61520735159     IErMin= 8 ErrMin= 5.58D-07
 ErrMax= 5.58D-07  0.00D+00 EMaxC= 1.00D-01 BMatC= 4.31D-10 BMatP= 9.55D-10
 IDIUse=1 WtCom= 1.00D+00 WtEn= 0.00D+00
 Coeff-Com: -0.726D-03 0.883D-02 0.223D-01 0.871D-03-0.107D+00-0.121D+00
 Coeff-Com:  0.401D+00 0.796D+00
 Coeff:     -0.726D-03 0.883D-02 0.223D-01 0.871D-03-0.107D+00-0.121D+00
 Coeff:      0.401D+00 0.796D+00
 Gap=     0.282 Goal=   None    Shift=    0.000
 RMSDP=6.11D-08 MaxDP=3.53D-06 DE=-2.23D-09 OVMax= 1.14D-05

 Cycle  14  Pass 1  IDiag  1:
 RMSU=  3.43D-08    CP:  1.00D+00  1.05D+00  8.04D-01  1.41D+00  1.36D+00
                    CP:  1.09D+00  1.28D+00  1.06D+00
 E= -2048.61520735219     Delta-E=       -0.000000000598 Rises=F Damp=F
 DIIS: error= 1.78D-07 at cycle   9 NSaved=   9.
 NSaved= 9 IEnMin= 9 EnMin= -2048.61520735219     IErMin= 9 ErrMin= 1.78D-07
 ErrMax= 1.78D-07  0.00D+00 EMaxC= 1.00D-01 BMatC= 3.86D-11 BMatP= 4.31D-10
 IDIUse=1 WtCom= 1.00D+00 WtEn= 0.00D+00
 Coeff-Com: -0.440D-03 0.470D-02 0.121D-01 0.190D-02-0.515D-01-0.664D-01
 Coeff-Com:  0.882D-01 0.314D+00 0.697D+00
 Coeff:     -0.440D-03 0.470D-02 0.121D-01 0.190D-02-0.515D-01-0.664D-01
 Coeff:      0.882D-01 0.314D+00 0.697D+00
 Gap=     0.282 Goal=   None    Shift=    0.000
 RMSDP=1.54D-08 MaxDP=6.93D-07 DE=-5.98D-10 OVMax= 2.99D-06

 Cycle  15  Pass 1  IDiag  1:
 RMSU=  1.09D-08    CP:  1.00D+00  1.05D+00  8.04D-01  1.41D+00  1.36D+00
                    CP:  1.10D+00  1.31D+00  1.20D+00  1.10D+00
 E= -2048.61520735224     Delta-E=       -0.000000000051 Rises=F Damp=F
 DIIS: error= 8.91D-08 at cycle  10 NSaved=  10.
 NSaved=10 IEnMin=10 EnMin= -2048.61520735224     IErMin=10 ErrMin= 8.91D-08
 ErrMax= 8.91D-08  0.00D+00 EMaxC= 1.00D-01 BMatC= 6.68D-12 BMatP= 3.86D-11
 IDIUse=1 WtCom= 1.00D+00 WtEn= 0.00D+00
 Coeff-Com: -0.101D-04-0.120D-03-0.234D-03 0.180D-03 0.319D-02-0.666D-04
 Coeff-Com: -0.510D-01-0.580D-01 0.254D+00 0.852D+00
 Coeff:     -0.101D-04-0.120D-03-0.234D-03 0.180D-03 0.319D-02-0.666D-04
 Coeff:     -0.510D-01-0.580D-01 0.254D+00 0.852D+00
 Gap=     0.282 Goal=   None    Shift=    0.000
 RMSDP=8.46D-09 MaxDP=4.11D-07 DE=-5.09D-11 OVMax= 1.71D-06

 SCF Done:  E(RwB97XD) =  -2048.61520735     A.U. after   15 cycles
            NFock= 15  Conv=0.85D-08     -V/T= 2.0049
 KE= 2.038565194681D+03 PE=-1.620990955475D+04 EE= 6.408094554044D+03
 Leave Link  502 at Thu Jan 18 05:55:31 2018, MaxMem=  4294967296 cpu:           24071.5 elap:             779.7
 (Enter /share/apps/g16/l601.exe)
 Copying SCF densities to generalized density rwf, IOpCl= 0 IROHF=0.

 **********************************************************************

            Population analysis using the SCF density.

 **********************************************************************

 Orbital symmetries:
       Occupied  (A) (A) (A) (A) (A) (A) (A) (A) (A) (A) (A) (A)
                 (A) (A) (A) (A) (A) (A) (A) (A) (A) (A) (A) (A)
                 (A) (A) (A) (A) (A) (A) (A) (A) (A) (A) (A) (A)
                 (A) (A) (A) (A) (A) (A) (A) (A) (A) (A) (A) (A)
                 (A) (A) (A) (A) (A) (A) (A) (A) (A) (A) (A) (A)
                 (A) (A) (A) (A) (A) (A) (A) (A) (A) (A) (A) (A)
                 (A) (A) (A) (A) (A) (A) (A) (A) (A) (A) (A) (A)
                 (A) (A) (A) (A) (A) (A) (A) (A) (A) (A) (A) (A)
                 (A) (A) (A) (A) (A) (A) (A) (A) (A) (A) (A) (A)
                 (A) (A) (A) (A) (A) (A) (A) (A) (A) (A) (A) (A)
                 (A) (A) (A) (A) (A) (A) (A) (A) (A) (A) (A) (A)
                 (A) (A) (A) (A) (A) (A) (A) (A) (A) (A) (A) (A)
                 (A) (A) (A) (A) (A) (A) (A) (A) (A) (A)
       Virtual   (A) (A) (A) (A) (A) (A) (A) (A) (A) (A) (A) (A)
                 (A) (A) (A) (A) (A) (A) (A) (A) (A) (A) (A) (A)
                 (A) (A) (A) (A) (A) (A) (A) (A) (A) (A) (A) (A)
                 (A) (A) (A) (A) (A) (A) (A) (A) (A) (A) (A) (A)
                 (A) (A) (A) (A) (A) (A) (A) (A) (A) (A) (A) (A)
                 (A) (A) (A) (A) (A) (A) (A) (A) (A) (A) (A) (A)
                 (A) (A) (A) (A) (A) (A) (A) (A) (A) (A) (A) (A)
                 (A) (A) (A) (A) (A) (A) (A) (A) (A) (A) (A) (A)
                 (A) (A) (A) (A) (A) (A) (A) (A) (A) (A) (A) (A)
                 (A) (A) (A) (A) (A) (A) (A) (A) (A) (A) (A) (A)
                 (A) (A) (A) (A) (A) (A) (A) (A) (A) (A) (A) (A)
                 (A) (A) (A) (A) (A) (A) (A) (A) (A) (A) (A) (A)
                 (A) (A) (A) (A) (A) (A) (A) (A) (A) (A) (A) (A)
                 (A) (A) (A) (A) (A) (A) (A) (A) (A) (A) (A) (A)
                 (A) (A) (A) (A) (A) (A) (A) (A) (A) (A) (A) (A)
                 (A) (A) (A) (A) (A) (A) (A) (A) (A) (A) (A) (A)
                 (A) (A) (A) (A) (A) (A) (A) (A) (A) (A) (A) (A)
                 (A) (A) (A) (A) (A) (A) (A) (A) (A) (A) (A) (A)
                 (A) (A) (A) (A) (A) (A) (A) (A) (A) (A) (A) (A)
                 (A) (A) (A) (A) (A) (A) (A) (A) (A) (A) (A) (A)
                 (A) (A) (A) (A) (A) (A) (A) (A) (A) (A) (A) (A)
                 (A) (A) (A) (A) (A) (A) (A) (A) (A) (A) (A) (A)
                 (A) (A) (A) (A) (A) (A) (A) (A) (A) (A) (A) (A)
                 (A) (A) (A) (A) (A) (A) (A) (A) (A) (A) (A) (A)
                 (A) (A) (A) (A) (A) (A) (A) (A) (A) (A) (A) (A)
                 (A) (A) (A) (A) (A) (A) (A) (A) (A) (A) (A) (A)
                 (A) (A) (A) (A) (A) (A) (A) (A) (A) (A) (A) (A)
                 (A) (A) (A) (A) (A) (A) (A) (A) (A) (A) (A) (A)
                 (A) (A) (A) (A) (A) (A) (A) (A) (A) (A) (A) (A)
                 (A) (A) (A) (A) (A) (A) (A) (A) (A) (A) (A) (A)
                 (A) (A) (A) (A) (A) (A) (A) (A) (A) (A) (A) (A)
                 (A) (A) (A) (A) (A) (A) (A) (A) (A) (A) (A) (A)
                 (A) (A) (A) (A) (A) (A) (A) (A) (A) (A) (A) (A)
                 (A) (A) (A) (A) (A) (A) (A) (A) (A) (A) (A) (A)
                 (A) (A) (A) (A) (A) (A) (A) (A) (A) (A) (A) (A)
                 (A) (A) (A) (A) (A) (A) (A) (A) (A) (A) (A) (A)
                 (A) (A) (A) (A) (A) (A) (A) (A) (A) (A) (A) (A)
                 (A) (A) (A) (A) (A) (A) (A) (A) (A) (A) (A) (A)
                 (A) (A) (A) (A) (A) (A) (A) (A) (A) (A) (A) (A)
                 (A) (A) (A) (A) (A) (A) (A) (A) (A) (A) (A) (A)
                 (A) (A) (A) (A) (A) (A) (A) (A) (A) (A) (A) (A)
                 (A) (A) (A) (A) (A) (A) (A) (A) (A) (A) (A) (A)
                 (A) (A) (A) (A) (A) (A) (A) (A) (A) (A) (A) (A)
                 (A) (A) (A) (A) (A) (A) (A) (A) (A) (A) (A) (A)
                 (A) (A) (A) (A) (A) (A) (A) (A) (A) (A) (A) (A)
                 (A) (A) (A) (A) (A) (A) (A) (A) (A) (A) (A) (A)
                 (A) (A) (A) (A) (A) (A) (A) (A) (A) (A) (A) (A)
                 (A) (A) (A) (A) (A) (A) (A) (A) (A) (A) (A) (A)
                 (A) (A) (A) (A) (A) (A) (A)
 The electronic state is 1-A.
 Alpha  occ. eigenvalues --  -19.24674 -19.21298 -19.20639 -14.52792 -14.51603
 Alpha  occ. eigenvalues --  -14.49578 -14.48625 -14.47796 -14.47198 -14.46936
 Alpha  occ. eigenvalues --  -14.46718 -14.45652 -14.44345 -14.44178 -14.43196
 Alpha  occ. eigenvalues --  -14.42029 -14.41800 -14.40883 -14.40845 -14.40571
 Alpha  occ. eigenvalues --  -10.44423 -10.41098 -10.39763 -10.39412 -10.38330
 Alpha  occ. eigenvalues --  -10.38244 -10.37400 -10.37031 -10.36255 -10.35808
 Alpha  occ. eigenvalues --  -10.34809 -10.34619 -10.34121 -10.34016 -10.33811
 Alpha  occ. eigenvalues --  -10.33360 -10.32819 -10.32729 -10.32260 -10.30357
 Alpha  occ. eigenvalues --  -10.29958 -10.28929 -10.28174  -1.18828  -1.15911
 Alpha  occ. eigenvalues --   -1.13334  -1.12327  -1.12164  -1.10503  -1.09388
 Alpha  occ. eigenvalues --   -1.08722  -1.08502  -1.05783  -1.04822  -1.02330
 Alpha  occ. eigenvalues --   -1.01602  -1.01318  -0.99854  -0.98531  -0.97988
 Alpha  occ. eigenvalues --   -0.96995  -0.96478  -0.93428  -0.90666  -0.89239
 Alpha  occ. eigenvalues --   -0.87195  -0.85331  -0.83949  -0.83647  -0.82588
 Alpha  occ. eigenvalues --   -0.81968  -0.78220  -0.77268  -0.75131  -0.74579
 Alpha  occ. eigenvalues --   -0.73802  -0.73642  -0.72924  -0.71852  -0.70770
 Alpha  occ. eigenvalues --   -0.67620  -0.67503  -0.67102  -0.66954  -0.65129
 Alpha  occ. eigenvalues --   -0.64717  -0.64219  -0.63572  -0.62925  -0.62639
 Alpha  occ. eigenvalues --   -0.61821  -0.61438  -0.60922  -0.60051  -0.59591
 Alpha  occ. eigenvalues --   -0.59372  -0.58590  -0.58394  -0.57482  -0.56910
 Alpha  occ. eigenvalues --   -0.56401  -0.55790  -0.55344  -0.54509  -0.54329
 Alpha  occ. eigenvalues --   -0.54183  -0.53827  -0.53386  -0.53238  -0.52792
 Alpha  occ. eigenvalues --   -0.52333  -0.51641  -0.51255  -0.51088  -0.50134
 Alpha  occ. eigenvalues --   -0.49833  -0.49711  -0.49486  -0.49027  -0.48883
 Alpha  occ. eigenvalues --   -0.48392  -0.48079  -0.47996  -0.47761  -0.46802
 Alpha  occ. eigenvalues --   -0.46655  -0.45843  -0.45557  -0.43421  -0.41995
 Alpha  occ. eigenvalues --   -0.41813  -0.40834  -0.38837  -0.37926  -0.37768
 Alpha  occ. eigenvalues --   -0.37642  -0.37118  -0.36416  -0.36144  -0.35044
 Alpha  occ. eigenvalues --   -0.34693  -0.34509  -0.33705  -0.33439  -0.32823
 Alpha  occ. eigenvalues --   -0.32337  -0.32224  -0.31816  -0.31109  -0.31035
 Alpha  occ. eigenvalues --   -0.30843  -0.29148  -0.27098  -0.24682
 Alpha virt. eigenvalues --    0.03554   0.03899   0.07010   0.07466   0.08677
 Alpha virt. eigenvalues --    0.08929   0.09333   0.09972   0.11036   0.12330
 Alpha virt. eigenvalues --    0.13292   0.13487   0.14015   0.14670   0.14741
 Alpha virt. eigenvalues --    0.14923   0.15887   0.17278   0.17971   0.18101
 Alpha virt. eigenvalues --    0.18499   0.18946   0.19238   0.19953   0.20628
 Alpha virt. eigenvalues --    0.20779   0.21124   0.21175   0.21944   0.22170
 Alpha virt. eigenvalues --    0.22741   0.22962   0.23139   0.24044   0.24502
 Alpha virt. eigenvalues --    0.24728   0.25083   0.25331   0.25616   0.26487
 Alpha virt. eigenvalues --    0.27374   0.27575   0.27982   0.28797   0.28924
 Alpha virt. eigenvalues --    0.29335   0.29999   0.30269   0.30738   0.31304
 Alpha virt. eigenvalues --    0.31767   0.32445   0.32973   0.33233   0.33695
 Alpha virt. eigenvalues --    0.34180   0.34764   0.35121   0.35728   0.36845
 Alpha virt. eigenvalues --    0.36987   0.37146   0.38048   0.38510   0.38969
 Alpha virt. eigenvalues --    0.39596   0.40255   0.40911   0.41461   0.42079
 Alpha virt. eigenvalues --    0.42910   0.43030   0.43359   0.43758   0.44479
 Alpha virt. eigenvalues --    0.45378   0.45938   0.46608   0.47148   0.47683
 Alpha virt. eigenvalues --    0.48153   0.48376   0.49065   0.49802   0.50066
 Alpha virt. eigenvalues --    0.50339   0.50853   0.51083   0.51855   0.52341
 Alpha virt. eigenvalues --    0.52453   0.52730   0.52999   0.53979   0.53993
 Alpha virt. eigenvalues --    0.54529   0.55351   0.55601   0.55925   0.55948
 Alpha virt. eigenvalues --    0.57003   0.57204   0.57440   0.57832   0.58329
 Alpha virt. eigenvalues --    0.58691   0.59457   0.59691   0.59888   0.60456
 Alpha virt. eigenvalues --    0.60541   0.61143   0.61413   0.61841   0.62200
 Alpha virt. eigenvalues --    0.62743   0.63380   0.63945   0.64272   0.64758
 Alpha virt. eigenvalues --    0.65372   0.65549   0.65905   0.66131   0.66681
 Alpha virt. eigenvalues --    0.67404   0.67603   0.68099   0.68207   0.68668
 Alpha virt. eigenvalues --    0.69646   0.69931   0.70074   0.70603   0.71066
 Alpha virt. eigenvalues --    0.71187   0.72046   0.72532   0.72629   0.73052
 Alpha virt. eigenvalues --    0.73263   0.73603   0.73823   0.74204   0.74693
 Alpha virt. eigenvalues --    0.75263   0.75411   0.75614   0.76307   0.76511
 Alpha virt. eigenvalues --    0.76833   0.77248   0.77254   0.77808   0.78389
 Alpha virt. eigenvalues --    0.78599   0.78946   0.79257   0.79659   0.79739
 Alpha virt. eigenvalues --    0.80325   0.80471   0.80921   0.81636   0.81743
 Alpha virt. eigenvalues --    0.81919   0.82055   0.82861   0.83176   0.83784
 Alpha virt. eigenvalues --    0.84179   0.84518   0.84979   0.85506   0.86131
 Alpha virt. eigenvalues --    0.86489   0.86843   0.87269   0.87606   0.88360
 Alpha virt. eigenvalues --    0.88842   0.89596   0.90113   0.90792   0.91200
 Alpha virt. eigenvalues --    0.91589   0.91871   0.92351   0.93292   0.93827
 Alpha virt. eigenvalues --    0.94396   0.94425   0.95073   0.95500   0.95635
 Alpha virt. eigenvalues --    0.95781   0.95904   0.96771   0.97371   0.97459
 Alpha virt. eigenvalues --    0.98750   0.99046   0.99845   1.00145   1.00373
 Alpha virt. eigenvalues --    1.01287   1.01583   1.02552   1.02782   1.03032
 Alpha virt. eigenvalues --    1.03523   1.04070   1.04611   1.05106   1.05381
 Alpha virt. eigenvalues --    1.05877   1.06586   1.07026   1.08343   1.08763
 Alpha virt. eigenvalues --    1.08992   1.09288   1.09307   1.10652   1.10725
 Alpha virt. eigenvalues --    1.11030   1.12255   1.12448   1.12833   1.13273
 Alpha virt. eigenvalues --    1.13361   1.14053   1.14194   1.14915   1.15124
 Alpha virt. eigenvalues --    1.15655   1.15844   1.16830   1.17246   1.17621
 Alpha virt. eigenvalues --    1.17874   1.18256   1.18478   1.19039   1.19941
 Alpha virt. eigenvalues --    1.20520   1.20841   1.20893   1.21157   1.21260
 Alpha virt. eigenvalues --    1.21976   1.23198   1.23367   1.23824   1.24497
 Alpha virt. eigenvalues --    1.24512   1.25220   1.25591   1.25916   1.26726
 Alpha virt. eigenvalues --    1.27069   1.27326   1.28047   1.28660   1.29087
 Alpha virt. eigenvalues --    1.29338   1.29776   1.30774   1.31338   1.31416
 Alpha virt. eigenvalues --    1.32865   1.33180   1.33601   1.34260   1.34458
 Alpha virt. eigenvalues --    1.34770   1.35502   1.35929   1.36289   1.36659
 Alpha virt. eigenvalues --    1.38120   1.38379   1.38617   1.39514   1.40110
 Alpha virt. eigenvalues --    1.41301   1.41733   1.42203   1.43565   1.43665
 Alpha virt. eigenvalues --    1.44560   1.46106   1.46444   1.47148   1.48390
 Alpha virt. eigenvalues --    1.48544   1.49683   1.50133   1.50749   1.51364
 Alpha virt. eigenvalues --    1.51703   1.52228   1.53743   1.53907   1.54407
 Alpha virt. eigenvalues --    1.55023   1.56232   1.56794   1.57620   1.58401
 Alpha virt. eigenvalues --    1.59402   1.60047   1.60151   1.60481   1.61065
 Alpha virt. eigenvalues --    1.61322   1.62347   1.62549   1.63687   1.63815
 Alpha virt. eigenvalues --    1.64200   1.64420   1.65381   1.65491   1.66804
 Alpha virt. eigenvalues --    1.67492   1.68164   1.68555   1.68784   1.69045
 Alpha virt. eigenvalues --    1.69852   1.70034   1.70204   1.71082   1.71120
 Alpha virt. eigenvalues --    1.71407   1.71822   1.72699   1.72901   1.73088
 Alpha virt. eigenvalues --    1.73520   1.74309   1.74479   1.74683   1.75226
 Alpha virt. eigenvalues --    1.75536   1.76122   1.76599   1.76683   1.77088
 Alpha virt. eigenvalues --    1.77549   1.77993   1.78459   1.79321   1.79475
 Alpha virt. eigenvalues --    1.79901   1.80182   1.80692   1.80826   1.81415
 Alpha virt. eigenvalues --    1.82185   1.82766   1.82988   1.83793   1.84107
 Alpha virt. eigenvalues --    1.84841   1.85028   1.85348   1.85657   1.86005
 Alpha virt. eigenvalues --    1.86297   1.86516   1.86864   1.87538   1.87714
 Alpha virt. eigenvalues --    1.88738   1.89372   1.89558   1.89891   1.90289
 Alpha virt. eigenvalues --    1.90760   1.90908   1.91512   1.91846   1.92764
 Alpha virt. eigenvalues --    1.93064   1.93406   1.93733   1.94102   1.95087
 Alpha virt. eigenvalues --    1.95608   1.95987   1.96349   1.97244   1.97852
 Alpha virt. eigenvalues --    1.97977   1.99085   2.00112   2.00713   2.01574
 Alpha virt. eigenvalues --    2.01739   2.02845   2.03109   2.03387   2.04692
 Alpha virt. eigenvalues --    2.05099   2.06114   2.06667   2.07268   2.08094
 Alpha virt. eigenvalues --    2.08605   2.09144   2.09278   2.10662   2.11437
 Alpha virt. eigenvalues --    2.12360   2.12661   2.13003   2.13664   2.14730
 Alpha virt. eigenvalues --    2.15521   2.16135   2.16791   2.17066   2.17615
 Alpha virt. eigenvalues --    2.18611   2.18989   2.19839   2.20749   2.20875
 Alpha virt. eigenvalues --    2.21288   2.22105   2.22568   2.22937   2.23604
 Alpha virt. eigenvalues --    2.24613   2.25234   2.25372   2.26443   2.27203
 Alpha virt. eigenvalues --    2.27870   2.28108   2.28652   2.29008   2.29663
 Alpha virt. eigenvalues --    2.30485   2.30557   2.30778   2.31678   2.32256
 Alpha virt. eigenvalues --    2.32548   2.33623   2.33857   2.34573   2.34975
 Alpha virt. eigenvalues --    2.35841   2.36013   2.37037   2.37355   2.37819
 Alpha virt. eigenvalues --    2.38387   2.38716   2.39258   2.40049   2.40375
 Alpha virt. eigenvalues --    2.40812   2.41562   2.42087   2.43166   2.43688
 Alpha virt. eigenvalues --    2.44324   2.44930   2.45170   2.45754   2.46472
 Alpha virt. eigenvalues --    2.46557   2.46863   2.48467   2.49094   2.49563
 Alpha virt. eigenvalues --    2.50431   2.51406   2.52037   2.53225   2.53922
 Alpha virt. eigenvalues --    2.54468   2.56053   2.57016   2.57244   2.58092
 Alpha virt. eigenvalues --    2.59085   2.59840   2.61465   2.61846   2.62674
 Alpha virt. eigenvalues --    2.64097   2.65065   2.65333   2.65677   2.66121
 Alpha virt. eigenvalues --    2.66276   2.66979   2.68126   2.68797   2.69301
 Alpha virt. eigenvalues --    2.69929   2.70818   2.71273   2.71424   2.72100
 Alpha virt. eigenvalues --    2.73123   2.73489   2.73920   2.74277   2.75196
 Alpha virt. eigenvalues --    2.75312   2.76487   2.76962   2.77337   2.78395
 Alpha virt. eigenvalues --    2.79246   2.79915   2.80318   2.81092   2.82058
 Alpha virt. eigenvalues --    2.82390   2.82553   2.83693   2.84225   2.84316
 Alpha virt. eigenvalues --    2.85234   2.85406   2.85746   2.86470   2.87053
 Alpha virt. eigenvalues --    2.87173   2.87612   2.89223   2.89522   2.91062
 Alpha virt. eigenvalues --    2.91650   2.95059   2.95818   2.96757   2.98899
 Alpha virt. eigenvalues --    2.99751   3.00217   3.02229   3.02889   3.03211
 Alpha virt. eigenvalues --    3.04848   3.04975   3.06295   3.08098   3.09870
 Alpha virt. eigenvalues --    3.10904   3.11602   3.12680   3.15605   3.17006
 Alpha virt. eigenvalues --    3.17229   3.17752   3.19071   3.20052   3.21492
 Alpha virt. eigenvalues --    3.22896   3.23393   3.24872   3.25208   3.27934
 Alpha virt. eigenvalues --    3.45034   3.48107   3.48657   3.49763   3.51766
 Alpha virt. eigenvalues --    3.53371   3.55560   3.56843   3.59137   3.61049
 Alpha virt. eigenvalues --    3.64918   3.70969   3.76343
          Condensed to atoms (all electrons):
 Mulliken charges:
               1
     1  N   -0.314556
     2  C    0.242139
     3  C    0.073471
     4  N   -0.244925
     5  C    0.118584
     6  H    0.025211
     7  N   -0.277651
     8  C    0.152523
     9  H   -0.003313
    10  N   -0.279683
    11  C    0.203234
    12  C    0.067713
    13  N   -0.045116
    14  H    0.109548
    15  H    0.086680
    16  H    0.017846
    17  H    0.039826
    18  H    0.016409
    19  N   -0.275323
    20  C    0.201843
    21  C    0.249241
    22  N   -0.100801
    23  H    0.118305
    24  H    0.119497
    25  N   -0.282407
    26  C    0.204243
    27  N   -0.120248
    28  H    0.115884
    29  C    0.168925
    30  O   -0.320145
    31  C    0.017992
    32  N   -0.215468
    33  C    0.119589
    34  H    0.016768
    35  H   -0.099531
    36  H    0.038468
    37  H    0.021732
    38  H    0.069838
    39  H    0.044865
    40  H    0.069692
    41  H    0.025647
    42  C   -0.094381
    43  O   -0.268863
    44  C    0.169030
    45  H    0.129855
    46  N   -0.112679
    47  O   -0.326658
    48  C    0.316958
    49  H    0.039084
    50  C    0.164233
    51  C    0.007048
    52  N   -0.264150
    53  H    0.018724
    54  H    0.039809
    55  H    0.011416
    56  H    0.122135
    57  H    0.120976
    58  N   -0.062941
    59  C    0.114262
    60  C    0.190749
    61  N   -0.244068
    62  H    0.019040
    63  C    0.157671
    64  N   -0.295455
    65  H    0.037082
    66  C    0.118799
    67  N   -0.244026
    68  C    0.048237
    69  C    0.226329
    70  N   -0.314765
 Sum of Mulliken charges =  -0.00000
 Mulliken charges with hydrogens summed into heavy atoms:
               1
     1  N   -0.314556
     2  C    0.316221
     3  C    0.073471
     4  N   -0.244925
     5  C    0.143796
     7  N   -0.277651
     8  C    0.149210
    10  N   -0.279683
    11  C    0.203234
    12  C    0.067713
    13  N    0.151112
    19  N   -0.275323
    20  C    0.201843
    21  C    0.209911
    22  N    0.137001
    25  N   -0.282407
    26  C    0.204243
    27  N   -0.004364
    29  C    0.168925
    30  O   -0.320145
    31  C    0.017992
    32  N   -0.215468
    33  C    0.136357
    42  C   -0.068734
    43  O   -0.268863
    44  C    0.169030
    46  N    0.017176
    47  O   -0.326658
    48  C    0.316958
    50  C    0.203317
    51  C    0.191443
    52  N   -0.264150
    58  N    0.180171
    59  C    0.114262
    60  C    0.190749
    61  N   -0.244068
    63  C    0.176711
    64  N   -0.295455
    66  C    0.155881
    67  N   -0.244026
    68  C    0.048237
    69  C    0.296278
    70  N   -0.314765
 Electronic spatial extent (au):  <R**2>=          21527.4964
 Charge=             -0.0000 electrons
 Dipole moment (field-independent basis, Debye):
    X=              4.6749    Y=             -6.1426    Z=             -5.6471  Tot=              9.5643
 Quadrupole moment (field-independent basis, Debye-Ang):
   XX=           -147.3251   YY=           -225.8943   ZZ=           -266.0926
   XY=            -12.8205   XZ=             -6.9099   YZ=             -7.6300
 Traceless Quadrupole moment (field-independent basis, Debye-Ang):
   XX=             65.7789   YY=            -12.7903   ZZ=            -52.9886
   XY=            -12.8205   XZ=             -6.9099   YZ=             -7.6300
 Octapole moment (field-independent basis, Debye-Ang**2):
  XXX=            -79.6490  YYY=            -17.9901  ZZZ=            -37.6047  XYY=             63.7922
  XXY=           -111.2437  XXZ=            -28.3360  XZZ=             23.9572  YZZ=            -52.5637
  YYZ=            -60.9762  XYZ=             18.4900
 Hexadecapole moment (field-independent basis, Debye-Ang**3):
 XXXX=         -16179.2450 YYYY=          -3219.4150 ZZZZ=          -3466.5659 XXXY=           -704.3498
 XXXZ=            -78.0085 YYYX=            105.0195 YYYZ=              4.8248 ZZZX=            -45.9973
 ZZZY=            -57.9531 XXYY=          -3993.5684 XXZZ=          -4071.3647 YYZZ=          -1231.6003
 XXYZ=             81.9525 YYXZ=           -107.3709 ZZXY=            -92.6466
 N-N= 5.714634598671D+03 E-N=-1.620990953566D+04  KE= 2.038565194681D+03
 No NMR shielding tensors so no spin-rotation constants.
 Leave Link  601 at Thu Jan 18 05:55:33 2018, MaxMem=  4294967296 cpu:              46.6 elap:               1.6
 (Enter /share/apps/g16/l9999.exe)
 1\1\GINC-COMPUTE-0-3\SP\RwB97XD\CC-pVDZ\C23H27N17O3\SATYA\18-Jan-2018\
 0\\#p wb97xd/cc-pvdz sp scf=(maxcycles=20)\\Base pair stacking\\0,1\N,
 0,-1.36822,6.0036,-5.7763\C,0,-1.77234,7.36491,-5.3744\C,0,-1.29264,3.
 82228,-6.04726\N,0,-0.18954,4.33469,-6.71458\C,0,-0.27922,5.62835,-6.5
 2462\H,0,0.42832,6.36231,-6.91146\N,0,-2.89717,2.344,-5.15109\C,0,-3.5
 0073,3.42556,-4.64756\H,0,-4.40705,3.22876,-4.0765\N,0,-3.15444,4.7076
 9,-4.7431\C,0,-2.0286,4.83898,-5.46398\C,0,-1.76647,2.50942,-5.87166\N
 ,0,-1.16255,1.43101,-6.37511\H,0,-0.32331,1.50633,-6.91477\H,0,-1.5281
 8,0.51154,-6.2301\H,0,-1.93425,7.92049,-6.19006\H,0,-2.61084,7.31811,-
 4.83232\H,0,-1.04672,7.78246,-4.82747\N,0,-1.0341,4.90918,-2.89059\C,0
 ,-1.53152,3.63598,-2.75064\C,0,-1.80037,6.15333,-2.67699\N,0,-4.16986,
 1.50192,-2.01123\H,0,-4.3309,0.51642,-1.96557\H,0,-4.94324,2.09853,-1.
 79524\N,0,-2.7937,3.31022,-2.39734\C,0,-2.97102,2.00192,-2.34692\N,0,-
 1.98872,1.08138,-2.62116\H,0,-2.21439,0.10057,-2.55742\C,0,-0.6831,1.3
 9389,-2.98661\O,0,0.12703,0.48652,-3.21269\C,0,-0.47742,2.79573,-3.045
 02\N,0,0.6589,3.52672,-3.36336\C,0,0.28209,4.77222,-3.25872\H,0,0.9265
 ,5.63322,-3.43953\H,0,-1.81287,6.68815,-3.52115\H,0,-2.73696,5.92458,-
 2.41483\H,0,-1.37318,6.68913,-1.9495\H,0,-4.14321,-4.60211,-2.68853\H,
 0,-3.42746,-4.71664,-1.08253\H,0,-4.03121,-3.1667,-1.6695\H,0,0.4761,-
 5.31121,-3.83122\C,0,-0.17399,-4.50796,-3.48421\O,0,1.35405,-2.7814,-4
 .04209\C,0,0.27251,-3.15223,-3.58652\H,0,-0.34604,-1.24533,-3.17486\N,
 0,-0.62607,-2.21446,-3.11917\O,0,-2.59269,-1.55372,-2.19558\C,0,-1.866
 87,-2.45242,-2.58315\H,0,-1.7653,-5.78525,-2.8661\C,0,-1.37915,-4.7717
 1,-2.96592\C,0,-3.54345,-4.08762,-1.95256\N,0,-2.2259,-3.78436,-2.5181
 3\H,0,-6.36904,-4.6449,-3.81552\H,0,-5.66665,-3.44675,-2.95926\H,0,-5.
 26308,-5.00152,-2.66961\H,0,-0.4935,-2.00446,-7.49949\H,0,-0.96007,-3.
 64424,-7.55874\N,0,-1.08361,-2.73592,-7.15761\C,0,-1.99506,-2.51114,-6
 .20898\C,0,-3.74254,-3.11842,-4.71257\N,0,-3.8863,-1.88844,-4.19207\H,
 0,-3.07828,-0.0153,-4.38961\C,0,-3.02871,-1.03994,-4.75553\N,0,-2.1150
 6,-1.26315,-5.7058\H,0,-4.32705,-6.2709,-5.12777\C,0,-3.94428,-5.25125
 ,-5.18026\N,0,-2.98573,-4.85543,-5.98162\C,0,-2.84787,-3.50498,-5.6952
 5\C,0,-5.52256,-4.34351,-3.37662\N,0,-4.44809,-4.2517,-4.38414\\Versio
 n=EM64L-G16RevA.03\State=1-A\HF=-2048.6152074\RMSD=8.460e-09\Dipole=-3
 .472077,-1.3467332,0.5387006\Quadrupole=-28.708103,44.2090101,-15.5009
 072,20.0691884,-15.0128771,-5.3763981\PG=C01 [X(C23H27N17O3)]\\@


 YOU KNOW YOU'RE A TEACHER WHEN YOU SAY 2, WRITE 3, AND MEAN 4.
 -- RONALD ANSTROM, HIGH SCHOOL TEACHER, UNDERWOOD, N.D. 1974
 Job cpu time:       0 days  6 hours 51 minutes 57.7 seconds.
 Elapsed time:       0 days  0 hours 13 minutes 20.4 seconds.
 File lengths (MBytes):  RWF=    298 Int=      0 D2E=      0 Chk=     33 Scr=      1
 Normal termination of Gaussian 16 at Thu Jan 18 05:55:33 2018.
