 Entering Gaussian System, Link 0=g16
 Input=str10.0.2.5.com
 Output=str10.0.2.5.log
 Initial command:
 /share/apps/g16/l1.exe "/state/partition1/scr/Gau-31006.inp" -scrdir="/state/partition1/scr/"
 Entering Link 1 = /share/apps/g16/l1.exe PID=     31007.
  
 Copyright (c) 1988,1990,1992,1993,1995,1998,2003,2009,2016,
            Gaussian, Inc.  All Rights Reserved.
  
 This is part of the Gaussian(R) 16 program.  It is based on
 the Gaussian(R) 09 system (copyright 2009, Gaussian, Inc.),
 the Gaussian(R) 03 system (copyright 2003, Gaussian, Inc.),
 the Gaussian(R) 98 system (copyright 1998, Gaussian, Inc.),
 the Gaussian(R) 94 system (copyright 1995, Gaussian, Inc.),
 the Gaussian 92(TM) system (copyright 1992, Gaussian, Inc.),
 the Gaussian 90(TM) system (copyright 1990, Gaussian, Inc.),
 the Gaussian 88(TM) system (copyright 1988, Gaussian, Inc.),
 the Gaussian 86(TM) system (copyright 1986, Carnegie Mellon
 University), and the Gaussian 82(TM) system (copyright 1983,
 Carnegie Mellon University). Gaussian is a federally registered
 trademark of Gaussian, Inc.
  
 This software contains proprietary and confidential information,
 including trade secrets, belonging to Gaussian, Inc.
  
 This software is provided under written license and may be
 used, copied, transmitted, or stored only in accord with that
 written license.
  
 The following legend is applicable only to US Government
 contracts under FAR:
  
                    RESTRICTED RIGHTS LEGEND
  
 Use, reproduction and disclosure by the US Government is
 subject to restrictions as set forth in subparagraphs (a)
 and (c) of the Commercial Computer Software - Restricted
 Rights clause in FAR 52.227-19.
  
 Gaussian, Inc.
 340 Quinnipiac St., Bldg. 40, Wallingford CT 06492
  
  
 ---------------------------------------------------------------
 Warning -- This program may not be used in any manner that
 competes with the business of Gaussian, Inc. or will provide
 assistance to any competitor of Gaussian, Inc.  The licensee
 of this program is prohibited from giving any competitor of
 Gaussian, Inc. access to this program.  By using this program,
 the user acknowledges that Gaussian, Inc. is engaged in the
 business of creating and licensing software in the field of
 computational chemistry and represents and warrants to the
 licensee that it is not a competitor of Gaussian, Inc. and that
 it will not use this program in any manner prohibited above.
 ---------------------------------------------------------------
  

 Cite this work as:
 Gaussian 16, Revision A.03,
 M. J. Frisch, G. W. Trucks, H. B. Schlegel, G. E. Scuseria, 
 M. A. Robb, J. R. Cheeseman, G. Scalmani, V. Barone, 
 G. A. Petersson, H. Nakatsuji, X. Li, M. Caricato, A. V. Marenich, 
 J. Bloino, B. G. Janesko, R. Gomperts, B. Mennucci, H. P. Hratchian, 
 J. V. Ortiz, A. F. Izmaylov, J. L. Sonnenberg, D. Williams-Young, 
 F. Ding, F. Lipparini, F. Egidi, J. Goings, B. Peng, A. Petrone, 
 T. Henderson, D. Ranasinghe, V. G. Zakrzewski, J. Gao, N. Rega, 
 G. Zheng, W. Liang, M. Hada, M. Ehara, K. Toyota, R. Fukuda, 
 J. Hasegawa, M. Ishida, T. Nakajima, Y. Honda, O. Kitao, H. Nakai, 
 T. Vreven, K. Throssell, J. A. Montgomery, Jr., J. E. Peralta, 
 F. Ogliaro, M. J. Bearpark, J. J. Heyd, E. N. Brothers, K. N. Kudin, 
 V. N. Staroverov, T. A. Keith, R. Kobayashi, J. Normand, 
 K. Raghavachari, A. P. Rendell, J. C. Burant, S. S. Iyengar, 
 J. Tomasi, M. Cossi, J. M. Millam, M. Klene, C. Adamo, R. Cammi, 
 J. W. Ochterski, R. L. Martin, K. Morokuma, O. Farkas, 
 J. B. Foresman, and D. J. Fox, Gaussian, Inc., Wallingford CT, 2016.
 
 ******************************************
 Gaussian 16:  EM64L-G16RevA.03 25-Dec-2016
                17-Jan-2018 
 ******************************************
 %nprocshared=32
 Will use up to   32 processors via shared memory.
 %mem=32GB
 %chk=allatoms_t.chk
 ---------------------------------------
 #p wb97xd/cc-pvdz sp scf=(maxcycles=20)
 ---------------------------------------
 1/38=1,172=1/1;
 2/12=2,17=6,18=5,40=1/2;
 3/5=16,11=2,25=1,30=1,74=-58/1,2,3;
 4//1;
 5/5=2,7=20,38=5/2;
 6/7=2,8=2,9=2,10=2,28=1/1;
 99/5=1,9=1/99;
 Leave Link    1 at Wed Jan 17 20:21:12 2018, MaxMem=  4294967296 cpu:               2.7 elap:               0.1
 (Enter /share/apps/g16/l101.exe)
 ------------------
 Base pair stacking
 ------------------
 Symbolic Z-matrix:
 Charge =  0 Multiplicity = 1
 N                    -0.19605   0.91679  -6.47105 
 C                    -0.73023   2.28871  -6.57363 
 C                    -0.01915  -1.27352  -6.37851 
 N                     1.26993  -0.77467  -6.25948 
 C                     1.11176   0.52494  -6.32 
 H                     1.92237   1.25167  -6.25909 
 N                    -1.86488  -2.73472  -6.52372 
 C                    -2.62463  -1.64079  -6.6407 
 H                    -3.69271  -1.82562  -6.74702 
 N                    -2.26478  -0.35884  -6.64603 
 C                    -0.93348  -0.24282  -6.50964 
 C                    -0.52918  -2.58451  -6.38803 
 N                     0.23088  -3.67529  -6.27112 
 H                     1.22418  -3.61144  -6.1686 
 H                    -0.16643  -4.59299  -6.28203 
 H                    -0.32915   2.74552  -7.36775 
 H                    -1.72379   2.25347  -6.67715 
 H                    -0.501     2.80065  -5.74576 
 N                    -0.73907   2.41841  -3.26456 
 C                    -1.25727   1.14581  -3.26328 
 C                    -1.52959   3.66196  -3.36129 
 N                    -3.99469  -0.98725  -3.39872 
 H                    -4.16386  -1.97229  -3.38065 
 H                    -4.79416  -0.39094  -3.47605 
 N                    -2.56517   0.82019  -3.34948 
 C                    -2.75197  -0.48748  -3.32272 
 N                    -1.73695  -1.40758  -3.21948 
 H                    -1.97303  -2.38792  -3.20649 
 C                    -0.3841   -1.09521  -3.12957 
 O                     0.45267  -2.00213  -3.03986 
 C                    -0.16769   0.30597  -3.15705 
 N                     1.01084   1.03662  -3.09292 
 C                     0.62364   2.28152  -3.16 
 H                     1.29308   3.14212  -3.13738 
 H                    -1.25368   4.17181  -4.17537 
 H                    -2.50007   3.4333   -3.42565 
 H                    -1.37345   4.22222  -2.54856 
 H                    -3.7533   -7.10802  -3.84208 
 H                    -3.6253   -7.16981  -2.08582 
 H                    -3.99059  -5.64263  -2.88935 
 H                     0.97808  -7.81239  -3.32784 
 C                     0.25059  -7.0047   -3.2464 
 O                     1.88109  -5.28273  -3.30466 
 C                     0.70831  -5.64893  -3.23206 
 H                    -0.00901  -3.73595  -3.11248 
 N                    -0.29346  -4.7053   -3.12585 
 O                    -2.45533  -4.03399  -2.94466 
 C                    -1.64306  -4.93765  -3.03565 
 H                    -1.45887  -8.27638  -3.16654 
 C                    -1.05952  -7.26306  -3.16 
 C                    -3.43775  -6.5674   -2.96218 
 N                    -2.0058   -6.27002  -3.05609 
 H                    -5.56968  -9.72346  -6.86174 
 H                    -5.53449  -8.4051   -5.90113 
 H                    -5.44074  -9.89625  -5.24405 
 H                     1.37584  -7.16832  -6.31721 
 H                     1.01144  -8.82828  -6.46493 
 N                     0.68478  -7.89088  -6.33931 
 C                    -0.61486  -7.6176   -6.20724 
 C                    -2.92857  -8.15854  -6.08142 
 N                    -3.33837  -6.89029  -5.91402 
 H                    -2.54153  -5.00698  -5.77681 
 C                    -2.29727  -6.06023  -5.90822 
 N                    -0.99486  -6.33198  -6.04035 
 H                    -3.19679  -11.36447  -6.40123 
 C                    -2.84202  -10.33662  -6.32 
 N                    -1.58362  -9.97558  -6.38132 
 C                    -1.62442  -8.59695  -6.23142 
 C                    -5.18137  -9.3316   -6.02768 
 N                    -3.71047  -9.28782  -6.1396 
 
 ITRead=  0  0  0  0  0  0  0  0  0  0  0  0  0  0  0  0  0  0  0  0
 ITRead=  0  0  0  0  0  0  0  0  0  0  0  0  0  0  0  0  0  0  0  0
 ITRead=  0  0  0  0  0  0  0  0  0  0  0  0  0  0  0  0  0  0  0  0
 ITRead=  0  0  0  0  0  0  0  0  0  0
 MicOpt= -1 -1 -1 -1 -1 -1 -1 -1 -1 -1 -1 -1 -1 -1 -1 -1 -1 -1 -1 -1
 MicOpt= -1 -1 -1 -1 -1 -1 -1 -1 -1 -1 -1 -1 -1 -1 -1 -1 -1 -1 -1 -1
 MicOpt= -1 -1 -1 -1 -1 -1 -1 -1 -1 -1 -1 -1 -1 -1 -1 -1 -1 -1 -1 -1
 MicOpt= -1 -1 -1 -1 -1 -1 -1 -1 -1 -1
 NAtoms=     70 NQM=       70 NQMF=       0 NMMI=      0 NMMIF=      0
                NMic=       0 NMicF=      0.
                    Isotopes and Nuclear Properties:
 (Nuclear quadrupole moments (NQMom) in fm**2, nuclear magnetic moments (NMagM)
  in nuclear magnetons)

  Atom         1           2           3           4           5           6           7           8           9          10
 IAtWgt=          14          12          12          14          12           1          14          12           1          14
 AtmWgt=  14.0030740  12.0000000  12.0000000  14.0030740  12.0000000   1.0078250  14.0030740  12.0000000   1.0078250  14.0030740
 NucSpn=           2           0           0           2           0           1           2           0           1           2
 AtZEff=  -0.0000000  -0.0000000  -0.0000000  -0.0000000  -0.0000000  -0.0000000  -0.0000000  -0.0000000  -0.0000000  -0.0000000
 NQMom=    2.0440000   0.0000000   0.0000000   2.0440000   0.0000000   0.0000000   2.0440000   0.0000000   0.0000000   2.0440000
 NMagM=    0.4037610   0.0000000   0.0000000   0.4037610   0.0000000   2.7928460   0.4037610   0.0000000   2.7928460   0.4037610
 AtZNuc=   7.0000000   6.0000000   6.0000000   7.0000000   6.0000000   1.0000000   7.0000000   6.0000000   1.0000000   7.0000000

  Atom        11          12          13          14          15          16          17          18          19          20
 IAtWgt=          12          12          14           1           1           1           1           1          14          12
 AtmWgt=  12.0000000  12.0000000  14.0030740   1.0078250   1.0078250   1.0078250   1.0078250   1.0078250  14.0030740  12.0000000
 NucSpn=           0           0           2           1           1           1           1           1           2           0
 AtZEff=  -0.0000000  -0.0000000  -0.0000000  -0.0000000  -0.0000000  -0.0000000  -0.0000000  -0.0000000  -0.0000000  -0.0000000
 NQMom=    0.0000000   0.0000000   2.0440000   0.0000000   0.0000000   0.0000000   0.0000000   0.0000000   2.0440000   0.0000000
 NMagM=    0.0000000   0.0000000   0.4037610   2.7928460   2.7928460   2.7928460   2.7928460   2.7928460   0.4037610   0.0000000
 AtZNuc=   6.0000000   6.0000000   7.0000000   1.0000000   1.0000000   1.0000000   1.0000000   1.0000000   7.0000000   6.0000000

  Atom        21          22          23          24          25          26          27          28          29          30
 IAtWgt=          12          14           1           1          14          12          14           1          12          16
 AtmWgt=  12.0000000  14.0030740   1.0078250   1.0078250  14.0030740  12.0000000  14.0030740   1.0078250  12.0000000  15.9949146
 NucSpn=           0           2           1           1           2           0           2           1           0           0
 AtZEff=  -0.0000000  -0.0000000  -0.0000000  -0.0000000  -0.0000000  -0.0000000  -0.0000000  -0.0000000  -0.0000000  -0.0000000
 NQMom=    0.0000000   2.0440000   0.0000000   0.0000000   2.0440000   0.0000000   2.0440000   0.0000000   0.0000000   0.0000000
 NMagM=    0.0000000   0.4037610   2.7928460   2.7928460   0.4037610   0.0000000   0.4037610   2.7928460   0.0000000   0.0000000
 AtZNuc=   6.0000000   7.0000000   1.0000000   1.0000000   7.0000000   6.0000000   7.0000000   1.0000000   6.0000000   8.0000000

  Atom        31          32          33          34          35          36          37          38          39          40
 IAtWgt=          12          14          12           1           1           1           1           1           1           1
 AtmWgt=  12.0000000  14.0030740  12.0000000   1.0078250   1.0078250   1.0078250   1.0078250   1.0078250   1.0078250   1.0078250
 NucSpn=           0           2           0           1           1           1           1           1           1           1
 AtZEff=  -0.0000000  -0.0000000  -0.0000000  -0.0000000  -0.0000000  -0.0000000  -0.0000000  -0.0000000  -0.0000000  -0.0000000
 NQMom=    0.0000000   2.0440000   0.0000000   0.0000000   0.0000000   0.0000000   0.0000000   0.0000000   0.0000000   0.0000000
 NMagM=    0.0000000   0.4037610   0.0000000   2.7928460   2.7928460   2.7928460   2.7928460   2.7928460   2.7928460   2.7928460
 AtZNuc=   6.0000000   7.0000000   6.0000000   1.0000000   1.0000000   1.0000000   1.0000000   1.0000000   1.0000000   1.0000000

  Atom        41          42          43          44          45          46          47          48          49          50
 IAtWgt=           1          12          16          12           1          14          16          12           1          12
 AtmWgt=   1.0078250  12.0000000  15.9949146  12.0000000   1.0078250  14.0030740  15.9949146  12.0000000   1.0078250  12.0000000
 NucSpn=           1           0           0           0           1           2           0           0           1           0
 AtZEff=  -0.0000000  -0.0000000  -0.0000000  -0.0000000  -0.0000000  -0.0000000  -0.0000000  -0.0000000  -0.0000000  -0.0000000
 NQMom=    0.0000000   0.0000000   0.0000000   0.0000000   0.0000000   2.0440000   0.0000000   0.0000000   0.0000000   0.0000000
 NMagM=    2.7928460   0.0000000   0.0000000   0.0000000   2.7928460   0.4037610   0.0000000   0.0000000   2.7928460   0.0000000
 AtZNuc=   1.0000000   6.0000000   8.0000000   6.0000000   1.0000000   7.0000000   8.0000000   6.0000000   1.0000000   6.0000000

  Atom        51          52          53          54          55          56          57          58          59          60
 IAtWgt=          12          14           1           1           1           1           1          14          12          12
 AtmWgt=  12.0000000  14.0030740   1.0078250   1.0078250   1.0078250   1.0078250   1.0078250  14.0030740  12.0000000  12.0000000
 NucSpn=           0           2           1           1           1           1           1           2           0           0
 AtZEff=  -0.0000000  -0.0000000  -0.0000000  -0.0000000  -0.0000000  -0.0000000  -0.0000000  -0.0000000  -0.0000000  -0.0000000
 NQMom=    0.0000000   2.0440000   0.0000000   0.0000000   0.0000000   0.0000000   0.0000000   2.0440000   0.0000000   0.0000000
 NMagM=    0.0000000   0.4037610   2.7928460   2.7928460   2.7928460   2.7928460   2.7928460   0.4037610   0.0000000   0.0000000
 AtZNuc=   6.0000000   7.0000000   1.0000000   1.0000000   1.0000000   1.0000000   1.0000000   7.0000000   6.0000000   6.0000000

  Atom        61          62          63          64          65          66          67          68          69          70
 IAtWgt=          14           1          12          14           1          12          14          12          12          14
 AtmWgt=  14.0030740   1.0078250  12.0000000  14.0030740   1.0078250  12.0000000  14.0030740  12.0000000  12.0000000  14.0030740
 NucSpn=           2           1           0           2           1           0           2           0           0           2
 AtZEff=  -0.0000000  -0.0000000  -0.0000000  -0.0000000  -0.0000000  -0.0000000  -0.0000000  -0.0000000  -0.0000000  -0.0000000
 NQMom=    2.0440000   0.0000000   0.0000000   2.0440000   0.0000000   0.0000000   2.0440000   0.0000000   0.0000000   2.0440000
 NMagM=    0.4037610   2.7928460   0.0000000   0.4037610   2.7928460   0.0000000   0.4037610   0.0000000   0.0000000   0.4037610
 AtZNuc=   7.0000000   1.0000000   6.0000000   7.0000000   1.0000000   6.0000000   7.0000000   6.0000000   6.0000000   7.0000000
 Leave Link  101 at Wed Jan 17 20:21:13 2018, MaxMem=  4294967296 cpu:               6.4 elap:               0.2
 (Enter /share/apps/g16/l202.exe)
 Stoichiometry    C23H27N17O3
 Framework group  C1[X(C23H27N17O3)]
 Deg. of freedom   204
 Full point group                 C1      NOp   1
 Largest Abelian subgroup         C1      NOp   1
 Largest concise Abelian subgroup C1      NOp   1
                         Standard orientation:                         
 ---------------------------------------------------------------------
 Center     Atomic      Atomic             Coordinates (Angstroms)
 Number     Number       Type             X           Y           Z
 ---------------------------------------------------------------------
      1          7           0       -4.216941   -0.579488    2.124431
      2          6           0       -5.473051    0.133096    2.428483
      3          6           0       -2.101244   -1.057534    1.760270
      4          7           0       -2.799995   -2.245933    1.604698
      5          6           0       -4.046652   -1.910364    1.830322
      6          1           0       -4.890457   -2.600069    1.795185
      7          7           0       -0.369426    0.539888    1.869640
      8          6           0       -1.316549    1.433833    2.171978
      9          1           0       -0.961318    2.450355    2.335545
     10          7           0       -2.630433    1.261425    2.301981
     11          6           0       -2.961238   -0.021557    2.080738
     12          6           0       -0.734424   -0.742621    1.652806
     13          7           0        0.209564   -1.636429    1.350887
     14          1           0       -0.015014   -2.596846    1.182375
     15          1           0        1.172918   -1.376674    1.282889
     16          1           0       -5.898773   -0.269932    3.238728
     17          1           0       -5.276443    1.097755    2.601391
     18          1           0       -6.098683    0.056114    1.652174
     19          7           0       -5.949766    0.463917   -0.831907
     20          6           0       -4.620574    0.793344   -0.944907
     21          6           0       -7.041388    1.411370   -0.529599
     22          7           0       -2.094037    3.174684   -0.857802
     23          1           0       -1.102253    3.202660   -0.979589
     24          1           0       -2.550319    4.040483   -0.650642
     25          7           0       -4.092672    2.027994   -0.799924
     26          6           0       -2.782086    2.028157   -0.967180
     27          7           0       -2.043126    0.906153   -1.254500
     28          1           0       -1.045254    1.000275   -1.365678
     29          6           0       -2.565232   -0.374345   -1.408099
     30          8           0       -1.810698   -1.320042   -1.667082
     31          6           0       -3.972134   -0.390427   -1.231284
     32          7           0       -4.876052   -1.441873   -1.296763
     33          6           0       -6.033441   -0.888990   -1.053928
     34          1           0       -6.983286   -1.424000   -1.024711
     35          1           0       -7.498092    1.137430    0.316082
     36          1           0       -6.662365    2.329308   -0.420092
     37          1           0       -7.701790    1.411919   -1.279712
     38          1           0        3.931050    2.023681   -1.161422
     39          1           0        3.786236    2.049871   -2.917268
     40          1           0        2.426152    2.553824   -1.913485
     41          1           0        3.849623   -2.692439   -2.109115
     42          6           0        3.157859   -1.852880   -2.039540
     43          8           0        1.224056   -3.219687   -1.900427
     44          6           0        1.754474   -2.109415   -1.927622
     45          1           0       -0.029032   -1.118837   -1.765747
     46          7           0        0.968185   -0.977897   -1.845894
     47          8           0        0.617880    1.264996   -1.783557
     48          6           0        1.392080    0.327329   -1.861399
     49          1           0        4.658879   -0.342092   -2.140815
     50          6           0        3.601713   -0.590628   -2.057326
     51          6           0        3.258602    1.870490   -1.992332
     52          7           0        2.758680    0.493034   -1.971638
     53          1           0        7.097219    3.163914    1.655199
     54          1           0        5.694556    3.405286    0.857477
     55          1           0        7.076022    3.160642    0.023346
     56          1           0        3.472981   -3.266928    0.897125
     57          1           0        5.175238   -3.157958    0.874259
     58          7           0        4.290406   -2.690887    0.885354
     59          6           0        4.205395   -1.358986    0.884491
     60          6           0        5.075297    0.855681    0.869561
     61          7           0        3.873552    1.455680    0.884691
     62          1           0        1.887200    0.951400    0.911939
     63          6           0        2.899013    0.548493    0.899049
     64          7           0        2.982106   -0.785926    0.899945
     65          1           0        8.300373    0.633717    0.826878
     66          6           0        7.227791    0.438039    0.841481
     67          7           0        6.688236   -0.756314    0.850470
     68          6           0        5.323793   -0.505847    0.868293
     69          6           0        6.564754    2.913606    0.846606
     70          7           0        6.310030    1.459965    0.852192
 ---------------------------------------------------------------------
 Rotational constants (GHZ):           0.1830437           0.0476632           0.0474630
 Leave Link  202 at Wed Jan 17 20:21:13 2018, MaxMem=  4294967296 cpu:               0.3 elap:               0.0
 (Enter /share/apps/g16/l301.exe)
 Standard basis: CC-pVDZ (5D, 7F)
 Ernie: Thresh=  0.10000D-02 Tol=  0.10000D-05 Strict=F.
 Ernie:  86 primitive shells out of 1081 were deleted.
 There are   780 symmetry adapted cartesian basis functions of A   symmetry.
 There are   737 symmetry adapted basis functions of A   symmetry.
   737 basis functions,  1608 primitive gaussians,   780 cartesian basis functions
   154 alpha electrons      154 beta electrons
       nuclear repulsion energy      5525.1103346954 Hartrees.
 IExCor= 4639 DFT=T Ex+Corr=wB97XD ExCW=0 ScaHFX=  1.000000
 ScaDFX=  1.000000  1.000000  1.000000  1.000000 ScalE2=  1.000000  1.000000
 IRadAn=      5 IRanWt=     -1 IRanGd=            0 ICorTp=0 IEmpDi=121
 HFx  wShort=  0.000000 wLong=  0.200000 cFull=  0.222036 cShort=  0.000000 cLong=  0.777964
 DFx  wShort=  0.000000 wLong=  0.200000 cFull=  0.000000 cShort=  0.000000 cLong=  1.000000
 NAtoms=   70 NActive=   70 NUniq=   70 SFac= 1.00D+00 NAtFMM=   60 NAOKFM=T Big=T
 Integral buffers will be    131072 words long.
 Raffenetti 2 integral format.
 Two-electron integral symmetry is turned on.
 R6Disp:  Grimme-D2 Dispersion energy=       -0.0761762219 Hartrees.
 Nuclear repulsion after empirical dispersion term =     5525.0341584735 Hartrees.
 Leave Link  301 at Wed Jan 17 20:21:13 2018, MaxMem=  4294967296 cpu:               2.1 elap:               0.1
 (Enter /share/apps/g16/l302.exe)
 NPDir=0 NMtPBC=     1 NCelOv=     1 NCel=       1 NClECP=     1 NCelD=      1
         NCelK=      1 NCelE2=     1 NClLst=     1 CellRange=     0.0.
 One-electron integrals computed using PRISM.
 One-electron integral symmetry used in STVInt
 NBasis=   737 RedAO= T EigKep=  6.76D-04  NBF=   737
 NBsUse=   737 1.00D-06 EigRej= -1.00D+00 NBFU=   737
 Precomputing XC quadrature grid using
 IXCGrd= 4 IRadAn=           5 IRanWt=          -1 IRanGd=           0 AccXCQ= 0.00D+00.
 Generated NRdTot=       0 NPtTot=           0 NUsed=           0 NTot=          32
 NSgBfM=   760   760   760   760   760 MxSgAt=    70 MxSgA2=    70.
 Leave Link  302 at Wed Jan 17 20:21:17 2018, MaxMem=  4294967296 cpu:             132.3 elap:               4.2
 (Enter /share/apps/g16/l303.exe)
 DipDrv:  MaxL=1.
 Leave Link  303 at Wed Jan 17 20:21:17 2018, MaxMem=  4294967296 cpu:              12.4 elap:               0.4
 (Enter /share/apps/g16/l401.exe)
 ExpMin= 1.22D-01 ExpMax= 1.17D+04 ExpMxC= 4.01D+02 IAcc=3 IRadAn=         5 AccDes= 0.00D+00
 Harris functional with IExCor= 4639 and IRadAn=       5 diagonalized for initial guess.
 HarFok:  IExCor= 4639 AccDes= 0.00D+00 IRadAn=         5 IDoV= 1 UseB2=F ITyADJ=14
 ICtDFT=  3500011 ScaDFX=  1.000000  1.000000  1.000000  1.000000
 FoFCou: FMM=F IPFlag=           0 FMFlag=      100000 FMFlg1=        2001
         NFxFlg=           0 DoJE=T BraDBF=F KetDBF=T FulRan=T
         wScrn=  0.000000 ICntrl=       500 IOpCl=  0 I1Cent=   200000004 NGrid=           0
         NMat0=    1 NMatS0=      1 NMatT0=    0 NMatD0=    1 NMtDS0=    0 NMtDT0=    0
 Petite list used in FoFCou.
 Harris En= -1963.88598617111    
 JPrj=0 DoOrth=F DoCkMO=F.
 Leave Link  401 at Wed Jan 17 20:21:30 2018, MaxMem=  4294967296 cpu:             402.7 elap:              12.6
 (Enter /share/apps/g16/l502.exe)
 Integral symmetry usage will be decided dynamically.
 Closed shell SCF:
 Using DIIS extrapolation, IDIIS=  1040.
 NGot=  4294967296 LenX=  4293717438 LenY=  4293108258
 Requested convergence on RMS density matrix=1.00D-08 within  20 cycles.
 Requested convergence on MAX density matrix=1.00D-06.
 Requested convergence on             energy=1.00D-06.
 No special actions if energy rises.
 Fock matrices will be formed incrementally for  20 cycles.
 Integral accuracy reduced to 1.0D-05 until final iterations.

 Cycle   1  Pass 0  IDiag  1:
 FoFJK:  IHMeth= 1 ICntrl=       0 DoSepK=T KAlg= 0 I1Cent=           0 FoldK=F
 IRaf=         1 NMat=       1 IRICut=       1 DoRegI=T DoRafI=F ISym2E= 0 IDoP0=0 IntGTp=1.
 FoFCou: FMM=T IPFlag=           0 FMFlag=      100000 FMFlg1=        2001
         NFxFlg=           0 DoJE=T BraDBF=F KetDBF=F FulRan=T
         wScrn=  0.000000 ICntrl=       500 IOpCl=  0 I1Cent=           0 NGrid=           0
         NMat0=    1 NMatS0=      1 NMatT0=    0 NMatD0=    1 NMtDS0=    0 NMtDT0=    0
 Symmetry not used in FoFCou.
 FMM levels:  10  Number of levels for PrismC:   9
 E= -2048.31935558270    
 DIIS: error= 2.45D-02 at cycle   1 NSaved=   1.
 NSaved= 1 IEnMin= 1 EnMin= -2048.31935558270     IErMin= 1 ErrMin= 2.45D-02
 ErrMax= 2.45D-02  0.00D+00 EMaxC= 1.00D-01 BMatC= 8.33D-01 BMatP= 8.33D-01
 IDIUse=3 WtCom= 7.55D-01 WtEn= 2.45D-01
 Coeff-Com:  0.100D+01
 Coeff-En:   0.100D+01
 Coeff:      0.100D+01
 Gap=     0.279 Goal=   None    Shift=    0.000
 GapD=    0.279 DampG=1.000 DampE=0.500 DampFc=0.5000 IDamp=-1.
 Damping current iteration by 5.00D-01
 RMSDP=1.58D-03 MaxDP=1.30D-01              OVMax= 2.02D-01

 Cycle   2  Pass 0  IDiag  1:
 RMSU=  7.87D-04    CP:  9.98D-01
 E= -2048.51589357652     Delta-E=       -0.196537993816 Rises=F Damp=T
 DIIS: error= 1.37D-02 at cycle   2 NSaved=   2.
 NSaved= 2 IEnMin= 2 EnMin= -2048.51589357652     IErMin= 2 ErrMin= 1.37D-02
 ErrMax= 1.37D-02  0.00D+00 EMaxC= 1.00D-01 BMatC= 1.45D-01 BMatP= 8.33D-01
 IDIUse=3 WtCom= 8.63D-01 WtEn= 1.37D-01
 Coeff-Com: -0.196D+00 0.120D+01
 Coeff-En:   0.000D+00 0.100D+01
 Coeff:     -0.169D+00 0.117D+01
 Gap=     0.297 Goal=   None    Shift=    0.000
 RMSDP=5.93D-04 MaxDP=3.47D-02 DE=-1.97D-01 OVMax= 1.43D-01

 Cycle   3  Pass 0  IDiag  1:
 RMSU=  5.82D-04    CP:  9.94D-01  1.14D+00
 E= -2048.69377081678     Delta-E=       -0.177877240262 Rises=F Damp=F
 DIIS: error= 6.95D-03 at cycle   3 NSaved=   3.
 NSaved= 3 IEnMin= 3 EnMin= -2048.69377081678     IErMin= 3 ErrMin= 6.95D-03
 ErrMax= 6.95D-03  0.00D+00 EMaxC= 1.00D-01 BMatC= 6.50D-02 BMatP= 1.45D-01
 IDIUse=3 WtCom= 9.31D-01 WtEn= 6.95D-02
 Coeff-Com: -0.232D+00 0.554D+00 0.678D+00
 Coeff-En:   0.000D+00 0.000D+00 0.100D+01
 Coeff:     -0.216D+00 0.516D+00 0.700D+00
 Gap=     0.286 Goal=   None    Shift=    0.000
 RMSDP=3.70D-04 MaxDP=3.31D-02 DE=-1.78D-01 OVMax= 4.75D-02

 Cycle   4  Pass 0  IDiag  1:
 RMSU=  2.09D-04    CP:  9.94D-01  1.43D+00  6.52D-01
 E= -2048.74255760980     Delta-E=       -0.048786793022 Rises=F Damp=F
 DIIS: error= 2.47D-03 at cycle   4 NSaved=   4.
 NSaved= 4 IEnMin= 4 EnMin= -2048.74255760980     IErMin= 4 ErrMin= 2.47D-03
 ErrMax= 2.47D-03  0.00D+00 EMaxC= 1.00D-01 BMatC= 9.57D-03 BMatP= 6.50D-02
 IDIUse=3 WtCom= 9.75D-01 WtEn= 2.47D-02
 Coeff-Com: -0.962D-01 0.186D+00 0.376D+00 0.534D+00
 Coeff-En:   0.000D+00 0.000D+00 0.725D-01 0.928D+00
 Coeff:     -0.938D-01 0.182D+00 0.369D+00 0.543D+00
 Gap=     0.287 Goal=   None    Shift=    0.000
 RMSDP=1.29D-04 MaxDP=1.03D-02 DE=-4.88D-02 OVMax= 1.40D-02

 Cycle   5  Pass 0  IDiag  1:
 RMSU=  6.11D-05    CP:  9.94D-01  1.40D+00  7.89D-01  6.24D-01
 E= -2048.75050254373     Delta-E=       -0.007944933932 Rises=F Damp=F
 DIIS: error= 4.87D-04 at cycle   5 NSaved=   5.
 NSaved= 5 IEnMin= 5 EnMin= -2048.75050254373     IErMin= 5 ErrMin= 4.87D-04
 ErrMax= 4.87D-04  0.00D+00 EMaxC= 1.00D-01 BMatC= 2.81D-04 BMatP= 9.57D-03
 IDIUse=3 WtCom= 9.95D-01 WtEn= 4.87D-03
 Coeff-Com: -0.248D-01 0.425D-01 0.120D+00 0.235D+00 0.627D+00
 Coeff-En:   0.000D+00 0.000D+00 0.000D+00 0.000D+00 0.100D+01
 Coeff:     -0.247D-01 0.423D-01 0.120D+00 0.234D+00 0.629D+00
 Gap=     0.287 Goal=   None    Shift=    0.000
 RMSDP=2.56D-05 MaxDP=1.78D-03 DE=-7.94D-03 OVMax= 2.97D-03

 Failed to achieve initial convergence to 1.0D-08 in  6 cycles.
 Switch to full accuracy anyway.
 Cycle   6  Pass 1  IDiag  1:
 E= -2048.75069527197     Delta-E=       -0.000192728234 Rises=F Damp=F
 DIIS: error= 2.25D-04 at cycle   1 NSaved=   1.
 NSaved= 1 IEnMin= 1 EnMin= -2048.75069527197     IErMin= 1 ErrMin= 2.25D-04
 ErrMax= 2.25D-04  0.00D+00 EMaxC= 1.00D-01 BMatC= 7.21D-05 BMatP= 7.21D-05
 IDIUse=3 WtCom= 9.98D-01 WtEn= 2.25D-03
 Coeff-Com:  0.100D+01
 Coeff-En:   0.100D+01
 Coeff:      0.100D+01
 Gap=     0.287 Goal=   None    Shift=    0.000
 RMSDP=2.56D-05 MaxDP=1.78D-03 DE=-1.93D-04 OVMax= 1.97D-03

 Cycle   7  Pass 1  IDiag  1:
 RMSU=  1.04D-04    CP:  1.00D+00
 E= -2048.75074688879     Delta-E=       -0.000051616826 Rises=F Damp=F
 DIIS: error= 2.36D-04 at cycle   2 NSaved=   2.
 NSaved= 2 IEnMin= 2 EnMin= -2048.75074688879     IErMin= 1 ErrMin= 2.25D-04
 ErrMax= 2.36D-04  0.00D+00 EMaxC= 1.00D-01 BMatC= 4.29D-05 BMatP= 7.21D-05
 IDIUse=3 WtCom= 9.98D-01 WtEn= 2.36D-03
 Coeff-Com:  0.413D+00 0.587D+00
 Coeff-En:   0.000D+00 0.100D+01
 Coeff:      0.412D+00 0.588D+00
 Gap=     0.287 Goal=   None    Shift=    0.000
 RMSDP=1.12D-05 MaxDP=1.12D-03 DE=-5.16D-05 OVMax= 1.42D-03

 Cycle   8  Pass 1  IDiag  1:
 RMSU=  1.09D-05    CP:  1.00D+00  1.02D+00
 E= -2048.75077775083     Delta-E=       -0.000030862041 Rises=F Damp=F
 DIIS: error= 9.82D-05 at cycle   3 NSaved=   3.
 NSaved= 3 IEnMin= 3 EnMin= -2048.75077775083     IErMin= 3 ErrMin= 9.82D-05
 ErrMax= 9.82D-05  0.00D+00 EMaxC= 1.00D-01 BMatC= 9.79D-06 BMatP= 4.29D-05
 IDIUse=1 WtCom= 1.00D+00 WtEn= 0.00D+00
 Coeff-Com: -0.182D-01 0.310D+00 0.709D+00
 Coeff:     -0.182D-01 0.310D+00 0.709D+00
 Gap=     0.287 Goal=   None    Shift=    0.000
 RMSDP=5.47D-06 MaxDP=4.11D-04 DE=-3.09D-05 OVMax= 5.25D-04

 Cycle   9  Pass 1  IDiag  1:
 RMSU=  3.74D-06    CP:  1.00D+00  1.05D+00  7.61D-01
 E= -2048.75078686026     Delta-E=       -0.000009109425 Rises=F Damp=F
 DIIS: error= 3.26D-05 at cycle   4 NSaved=   4.
 NSaved= 4 IEnMin= 4 EnMin= -2048.75078686026     IErMin= 4 ErrMin= 3.26D-05
 ErrMax= 3.26D-05  0.00D+00 EMaxC= 1.00D-01 BMatC= 4.91D-07 BMatP= 9.79D-06
 IDIUse=1 WtCom= 1.00D+00 WtEn= 0.00D+00
 Coeff-Com: -0.314D-01 0.837D-01 0.262D+00 0.686D+00
 Coeff:     -0.314D-01 0.837D-01 0.262D+00 0.686D+00
 Gap=     0.287 Goal=   None    Shift=    0.000
 RMSDP=1.42D-06 MaxDP=1.19D-04 DE=-9.11D-06 OVMax= 3.69D-04

 Cycle  10  Pass 1  IDiag  1:
 RMSU=  1.25D-06    CP:  1.00D+00  1.05D+00  7.97D-01  1.11D+00
 E= -2048.75078767893     Delta-E=       -0.000000818673 Rises=F Damp=F
 DIIS: error= 1.40D-05 at cycle   5 NSaved=   5.
 NSaved= 5 IEnMin= 5 EnMin= -2048.75078767893     IErMin= 5 ErrMin= 1.40D-05
 ErrMax= 1.40D-05  0.00D+00 EMaxC= 1.00D-01 BMatC= 1.10D-07 BMatP= 4.91D-07
 IDIUse=1 WtCom= 1.00D+00 WtEn= 0.00D+00
 Coeff-Com: -0.346D-02-0.536D-01-0.116D+00 0.195D+00 0.978D+00
 Coeff:     -0.346D-02-0.536D-01-0.116D+00 0.195D+00 0.978D+00
 Gap=     0.287 Goal=   None    Shift=    0.000
 RMSDP=1.16D-06 MaxDP=7.89D-05 DE=-8.19D-07 OVMax= 2.07D-04

 Cycle  11  Pass 1  IDiag  1:
 RMSU=  4.83D-07    CP:  1.00D+00  1.05D+00  8.05D-01  1.39D+00  1.18D+00
 E= -2048.75078792313     Delta-E=       -0.000000244196 Rises=F Damp=F
 DIIS: error= 6.69D-06 at cycle   6 NSaved=   6.
 NSaved= 6 IEnMin= 6 EnMin= -2048.75078792313     IErMin= 6 ErrMin= 6.69D-06
 ErrMax= 6.69D-06  0.00D+00 EMaxC= 1.00D-01 BMatC= 2.91D-08 BMatP= 1.10D-07
 IDIUse=1 WtCom= 1.00D+00 WtEn= 0.00D+00
 Coeff-Com:  0.458D-02-0.441D-01-0.113D+00-0.910D-02 0.532D+00 0.630D+00
 Coeff:      0.458D-02-0.441D-01-0.113D+00-0.910D-02 0.532D+00 0.630D+00
 Gap=     0.287 Goal=   None    Shift=    0.000
 RMSDP=3.67D-07 MaxDP=3.42D-05 DE=-2.44D-07 OVMax= 9.80D-05

 Cycle  12  Pass 1  IDiag  1:
 RMSU=  1.83D-07    CP:  1.00D+00  1.05D+00  8.07D-01  1.46D+00  1.31D+00
                    CP:  9.21D-01
 E= -2048.75078796418     Delta-E=       -0.000000041048 Rises=F Damp=F
 DIIS: error= 1.03D-06 at cycle   7 NSaved=   7.
 NSaved= 7 IEnMin= 7 EnMin= -2048.75078796418     IErMin= 7 ErrMin= 1.03D-06
 ErrMax= 1.03D-06  0.00D+00 EMaxC= 1.00D-01 BMatC= 7.59D-10 BMatP= 2.91D-08
 IDIUse=1 WtCom= 1.00D+00 WtEn= 0.00D+00
 Coeff-Com:  0.108D-02-0.680D-02-0.191D-01-0.101D-01 0.549D-01 0.130D+00
 Coeff-Com:  0.850D+00
 Coeff:      0.108D-02-0.680D-02-0.191D-01-0.101D-01 0.549D-01 0.130D+00
 Coeff:      0.850D+00
 Gap=     0.287 Goal=   None    Shift=    0.000
 RMSDP=8.68D-08 MaxDP=5.47D-06 DE=-4.10D-08 OVMax= 2.02D-05

 Cycle  13  Pass 1  IDiag  1:
 RMSU=  5.38D-08    CP:  1.00D+00  1.05D+00  8.07D-01  1.47D+00  1.33D+00
                    CP:  1.01D+00  1.14D+00
 E= -2048.75078796607     Delta-E=       -0.000000001894 Rises=F Damp=F
 DIIS: error= 4.53D-07 at cycle   8 NSaved=   8.
 NSaved= 8 IEnMin= 8 EnMin= -2048.75078796607     IErMin= 8 ErrMin= 4.53D-07
 ErrMax= 4.53D-07  0.00D+00 EMaxC= 1.00D-01 BMatC= 3.15D-10 BMatP= 7.59D-10
 IDIUse=1 WtCom= 1.00D+00 WtEn= 0.00D+00
 Coeff-Com: -0.697D-03 0.863D-02 0.211D-01-0.735D-03-0.115D+00-0.103D+00
 Coeff-Com:  0.422D+00 0.768D+00
 Coeff:     -0.697D-03 0.863D-02 0.211D-01-0.735D-03-0.115D+00-0.103D+00
 Coeff:      0.422D+00 0.768D+00
 Gap=     0.287 Goal=   None    Shift=    0.000
 RMSDP=4.71D-08 MaxDP=2.79D-06 DE=-1.89D-09 OVMax= 9.99D-06

 Cycle  14  Pass 1  IDiag  1:
 RMSU=  2.80D-08    CP:  1.00D+00  1.05D+00  8.07D-01  1.47D+00  1.34D+00
                    CP:  1.05D+00  1.29D+00  1.04D+00
 E= -2048.75078796669     Delta-E=       -0.000000000614 Rises=F Damp=F
 DIIS: error= 1.50D-07 at cycle   9 NSaved=   9.
 NSaved= 9 IEnMin= 9 EnMin= -2048.75078796669     IErMin= 9 ErrMin= 1.50D-07
 ErrMax= 1.50D-07  0.00D+00 EMaxC= 1.00D-01 BMatC= 2.51D-11 BMatP= 3.15D-10
 IDIUse=1 WtCom= 1.00D+00 WtEn= 0.00D+00
 Coeff-Com: -0.379D-03 0.400D-02 0.100D-01 0.798D-03-0.490D-01-0.530D-01
 Coeff-Com:  0.738D-01 0.277D+00 0.736D+00
 Coeff:     -0.379D-03 0.400D-02 0.100D-01 0.798D-03-0.490D-01-0.530D-01
 Coeff:      0.738D-01 0.277D+00 0.736D+00
 Gap=     0.287 Goal=   None    Shift=    0.000
 RMSDP=1.34D-08 MaxDP=7.39D-07 DE=-6.14D-10 OVMax= 2.91D-06

 Cycle  15  Pass 1  IDiag  1:
 RMSU=  8.73D-09    CP:  1.00D+00  1.05D+00  8.07D-01  1.47D+00  1.34D+00
                    CP:  1.06D+00  1.32D+00  1.18D+00  1.11D+00
 E= -2048.75078796640     Delta-E=        0.000000000285 Rises=F Damp=F
 DIIS: error= 6.55D-08 at cycle  10 NSaved=  10.
 NSaved=10 IEnMin= 9 EnMin= -2048.75078796669     IErMin=10 ErrMin= 6.55D-08
 ErrMax= 6.55D-08  0.00D+00 EMaxC= 1.00D-01 BMatC= 4.61D-12 BMatP= 2.51D-11
 IDIUse=1 WtCom= 1.00D+00 WtEn= 0.00D+00
 Coeff-Com:  0.132D-04-0.403D-03-0.869D-03 0.214D-03 0.682D-02 0.259D-02
 Coeff-Com: -0.584D-01-0.680D-01 0.262D+00 0.856D+00
 Coeff:      0.132D-04-0.403D-03-0.869D-03 0.214D-03 0.682D-02 0.259D-02
 Coeff:     -0.584D-01-0.680D-01 0.262D+00 0.856D+00
 Gap=     0.287 Goal=   None    Shift=    0.000
 RMSDP=6.51D-09 MaxDP=4.12D-07 DE= 2.85D-10 OVMax= 1.22D-06

 SCF Done:  E(RwB97XD) =  -2048.75078797     A.U. after   15 cycles
            NFock= 15  Conv=0.65D-08     -V/T= 2.0054
 KE= 2.037773505129D+03 PE=-1.583018059434D+04 EE= 6.218622142767D+03
 Leave Link  502 at Wed Jan 17 20:33:01 2018, MaxMem=  4294967296 cpu:           21392.9 elap:             690.9
 (Enter /share/apps/g16/l601.exe)
 Copying SCF densities to generalized density rwf, IOpCl= 0 IROHF=0.

 **********************************************************************

            Population analysis using the SCF density.

 **********************************************************************

 Orbital symmetries:
       Occupied  (A) (A) (A) (A) (A) (A) (A) (A) (A) (A) (A) (A)
                 (A) (A) (A) (A) (A) (A) (A) (A) (A) (A) (A) (A)
                 (A) (A) (A) (A) (A) (A) (A) (A) (A) (A) (A) (A)
                 (A) (A) (A) (A) (A) (A) (A) (A) (A) (A) (A) (A)
                 (A) (A) (A) (A) (A) (A) (A) (A) (A) (A) (A) (A)
                 (A) (A) (A) (A) (A) (A) (A) (A) (A) (A) (A) (A)
                 (A) (A) (A) (A) (A) (A) (A) (A) (A) (A) (A) (A)
                 (A) (A) (A) (A) (A) (A) (A) (A) (A) (A) (A) (A)
                 (A) (A) (A) (A) (A) (A) (A) (A) (A) (A) (A) (A)
                 (A) (A) (A) (A) (A) (A) (A) (A) (A) (A) (A) (A)
                 (A) (A) (A) (A) (A) (A) (A) (A) (A) (A) (A) (A)
                 (A) (A) (A) (A) (A) (A) (A) (A) (A) (A) (A) (A)
                 (A) (A) (A) (A) (A) (A) (A) (A) (A) (A)
       Virtual   (A) (A) (A) (A) (A) (A) (A) (A) (A) (A) (A) (A)
                 (A) (A) (A) (A) (A) (A) (A) (A) (A) (A) (A) (A)
                 (A) (A) (A) (A) (A) (A) (A) (A) (A) (A) (A) (A)
                 (A) (A) (A) (A) (A) (A) (A) (A) (A) (A) (A) (A)
                 (A) (A) (A) (A) (A) (A) (A) (A) (A) (A) (A) (A)
                 (A) (A) (A) (A) (A) (A) (A) (A) (A) (A) (A) (A)
                 (A) (A) (A) (A) (A) (A) (A) (A) (A) (A) (A) (A)
                 (A) (A) (A) (A) (A) (A) (A) (A) (A) (A) (A) (A)
                 (A) (A) (A) (A) (A) (A) (A) (A) (A) (A) (A) (A)
                 (A) (A) (A) (A) (A) (A) (A) (A) (A) (A) (A) (A)
                 (A) (A) (A) (A) (A) (A) (A) (A) (A) (A) (A) (A)
                 (A) (A) (A) (A) (A) (A) (A) (A) (A) (A) (A) (A)
                 (A) (A) (A) (A) (A) (A) (A) (A) (A) (A) (A) (A)
                 (A) (A) (A) (A) (A) (A) (A) (A) (A) (A) (A) (A)
                 (A) (A) (A) (A) (A) (A) (A) (A) (A) (A) (A) (A)
                 (A) (A) (A) (A) (A) (A) (A) (A) (A) (A) (A) (A)
                 (A) (A) (A) (A) (A) (A) (A) (A) (A) (A) (A) (A)
                 (A) (A) (A) (A) (A) (A) (A) (A) (A) (A) (A) (A)
                 (A) (A) (A) (A) (A) (A) (A) (A) (A) (A) (A) (A)
                 (A) (A) (A) (A) (A) (A) (A) (A) (A) (A) (A) (A)
                 (A) (A) (A) (A) (A) (A) (A) (A) (A) (A) (A) (A)
                 (A) (A) (A) (A) (A) (A) (A) (A) (A) (A) (A) (A)
                 (A) (A) (A) (A) (A) (A) (A) (A) (A) (A) (A) (A)
                 (A) (A) (A) (A) (A) (A) (A) (A) (A) (A) (A) (A)
                 (A) (A) (A) (A) (A) (A) (A) (A) (A) (A) (A) (A)
                 (A) (A) (A) (A) (A) (A) (A) (A) (A) (A) (A) (A)
                 (A) (A) (A) (A) (A) (A) (A) (A) (A) (A) (A) (A)
                 (A) (A) (A) (A) (A) (A) (A) (A) (A) (A) (A) (A)
                 (A) (A) (A) (A) (A) (A) (A) (A) (A) (A) (A) (A)
                 (A) (A) (A) (A) (A) (A) (A) (A) (A) (A) (A) (A)
                 (A) (A) (A) (A) (A) (A) (A) (A) (A) (A) (A) (A)
                 (A) (A) (A) (A) (A) (A) (A) (A) (A) (A) (A) (A)
                 (A) (A) (A) (A) (A) (A) (A) (A) (A) (A) (A) (A)
                 (A) (A) (A) (A) (A) (A) (A) (A) (A) (A) (A) (A)
                 (A) (A) (A) (A) (A) (A) (A) (A) (A) (A) (A) (A)
                 (A) (A) (A) (A) (A) (A) (A) (A) (A) (A) (A) (A)
                 (A) (A) (A) (A) (A) (A) (A) (A) (A) (A) (A) (A)
                 (A) (A) (A) (A) (A) (A) (A) (A) (A) (A) (A) (A)
                 (A) (A) (A) (A) (A) (A) (A) (A) (A) (A) (A) (A)
                 (A) (A) (A) (A) (A) (A) (A) (A) (A) (A) (A) (A)
                 (A) (A) (A) (A) (A) (A) (A) (A) (A) (A) (A) (A)
                 (A) (A) (A) (A) (A) (A) (A) (A) (A) (A) (A) (A)
                 (A) (A) (A) (A) (A) (A) (A) (A) (A) (A) (A) (A)
                 (A) (A) (A) (A) (A) (A) (A) (A) (A) (A) (A) (A)
                 (A) (A) (A) (A) (A) (A) (A) (A) (A) (A) (A) (A)
                 (A) (A) (A) (A) (A) (A) (A) (A) (A) (A) (A) (A)
                 (A) (A) (A) (A) (A) (A) (A) (A) (A) (A) (A) (A)
                 (A) (A) (A) (A) (A) (A) (A) (A) (A) (A) (A) (A)
                 (A) (A) (A) (A) (A) (A) (A)
 The electronic state is 1-A.
 Alpha  occ. eigenvalues --  -19.25080 -19.21399 -19.20771 -14.52670 -14.51507
 Alpha  occ. eigenvalues --  -14.49715 -14.48855 -14.48382 -14.47102 -14.46990
 Alpha  occ. eigenvalues --  -14.46753 -14.45469 -14.44810 -14.44696 -14.43057
 Alpha  occ. eigenvalues --  -14.42260 -14.41814 -14.41548 -14.41247 -14.41069
 Alpha  occ. eigenvalues --  -10.44653 -10.41472 -10.40248 -10.39438 -10.38517
 Alpha  occ. eigenvalues --  -10.38062 -10.37563 -10.36749 -10.36340 -10.36108
 Alpha  occ. eigenvalues --  -10.35005 -10.34194 -10.34103 -10.34077 -10.33750
 Alpha  occ. eigenvalues --  -10.33721 -10.33402 -10.32956 -10.31967 -10.31076
 Alpha  occ. eigenvalues --  -10.30160 -10.28955 -10.28705  -1.18622  -1.15428
 Alpha  occ. eigenvalues --   -1.13553  -1.12373  -1.11496  -1.11270  -1.09716
 Alpha  occ. eigenvalues --   -1.08772  -1.08344  -1.05693  -1.05216  -1.01692
 Alpha  occ. eigenvalues --   -1.01122  -1.01056  -0.99896  -0.98968  -0.97379
 Alpha  occ. eigenvalues --   -0.97324  -0.97044  -0.93380  -0.90089  -0.87916
 Alpha  occ. eigenvalues --   -0.86107  -0.84871  -0.84194  -0.83324  -0.82591
 Alpha  occ. eigenvalues --   -0.82411  -0.78021  -0.77280  -0.75226  -0.75153
 Alpha  occ. eigenvalues --   -0.73873  -0.73309  -0.72515  -0.71542  -0.70663
 Alpha  occ. eigenvalues --   -0.67703  -0.67083  -0.66732  -0.65746  -0.64825
 Alpha  occ. eigenvalues --   -0.64459  -0.63248  -0.63175  -0.62855  -0.62055
 Alpha  occ. eigenvalues --   -0.60879  -0.60795  -0.60350  -0.59839  -0.58901
 Alpha  occ. eigenvalues --   -0.58819  -0.58774  -0.58438  -0.56968  -0.56061
 Alpha  occ. eigenvalues --   -0.55721  -0.55547  -0.55477  -0.54614  -0.54364
 Alpha  occ. eigenvalues --   -0.54232  -0.53842  -0.53387  -0.53138  -0.53019
 Alpha  occ. eigenvalues --   -0.52452  -0.51955  -0.51341  -0.50758  -0.50694
 Alpha  occ. eigenvalues --   -0.50571  -0.50280  -0.49620  -0.49405  -0.49285
 Alpha  occ. eigenvalues --   -0.48819  -0.48660  -0.48177  -0.47373  -0.47309
 Alpha  occ. eigenvalues --   -0.47167  -0.45863  -0.45490  -0.44987  -0.42891
 Alpha  occ. eigenvalues --   -0.41528  -0.40908  -0.38936  -0.37950  -0.37917
 Alpha  occ. eigenvalues --   -0.37829  -0.37515  -0.37399  -0.35343  -0.35035
 Alpha  occ. eigenvalues --   -0.34723  -0.34169  -0.33825  -0.33662  -0.33270
 Alpha  occ. eigenvalues --   -0.33235  -0.32568  -0.32103  -0.31354  -0.31230
 Alpha  occ. eigenvalues --   -0.30905  -0.30128  -0.26657  -0.25649
 Alpha virt. eigenvalues --    0.03070   0.04666   0.06541   0.07543   0.08552
 Alpha virt. eigenvalues --    0.09102   0.09373   0.10148   0.10321   0.12624
 Alpha virt. eigenvalues --    0.13334   0.13660   0.13902   0.14311   0.14848
 Alpha virt. eigenvalues --    0.14900   0.16472   0.17285   0.18049   0.18249
 Alpha virt. eigenvalues --    0.18781   0.19026   0.19535   0.20425   0.20642
 Alpha virt. eigenvalues --    0.20770   0.21149   0.21333   0.21671   0.22036
 Alpha virt. eigenvalues --    0.22176   0.22422   0.22495   0.23159   0.23492
 Alpha virt. eigenvalues --    0.24307   0.24515   0.24558   0.24752   0.25817
 Alpha virt. eigenvalues --    0.26002   0.26616   0.27384   0.27613   0.28410
 Alpha virt. eigenvalues --    0.28511   0.29308   0.29943   0.30617   0.31018
 Alpha virt. eigenvalues --    0.31542   0.31906   0.32225   0.32769   0.33387
 Alpha virt. eigenvalues --    0.34027   0.34568   0.35044   0.35537   0.36369
 Alpha virt. eigenvalues --    0.36594   0.36882   0.37460   0.37972   0.38896
 Alpha virt. eigenvalues --    0.39208   0.40125   0.40568   0.41156   0.41331
 Alpha virt. eigenvalues --    0.42249   0.42815   0.43041   0.43323   0.43780
 Alpha virt. eigenvalues --    0.44559   0.45055   0.45838   0.46132   0.46371
 Alpha virt. eigenvalues --    0.47204   0.47351   0.47713   0.48547   0.49051
 Alpha virt. eigenvalues --    0.49545   0.50011   0.50295   0.50591   0.51098
 Alpha virt. eigenvalues --    0.51697   0.51740   0.52293   0.53075   0.53288
 Alpha virt. eigenvalues --    0.53863   0.54246   0.54471   0.54774   0.54908
 Alpha virt. eigenvalues --    0.55758   0.56085   0.56643   0.56761   0.57095
 Alpha virt. eigenvalues --    0.57355   0.57993   0.58599   0.58778   0.59000
 Alpha virt. eigenvalues --    0.59985   0.60480   0.60757   0.61055   0.61673
 Alpha virt. eigenvalues --    0.62181   0.62348   0.62485   0.62876   0.63146
 Alpha virt. eigenvalues --    0.63685   0.64336   0.64830   0.64930   0.65764
 Alpha virt. eigenvalues --    0.66104   0.66538   0.66983   0.67714   0.67847
 Alpha virt. eigenvalues --    0.68276   0.68877   0.69160   0.69793   0.69940
 Alpha virt. eigenvalues --    0.70511   0.71307   0.71653   0.71835   0.72290
 Alpha virt. eigenvalues --    0.73051   0.73287   0.73401   0.73699   0.74041
 Alpha virt. eigenvalues --    0.74300   0.74732   0.74872   0.75144   0.75387
 Alpha virt. eigenvalues --    0.75872   0.76476   0.76713   0.77650   0.77794
 Alpha virt. eigenvalues --    0.78375   0.78779   0.79132   0.79480   0.79720
 Alpha virt. eigenvalues --    0.79913   0.80201   0.80300   0.80836   0.81117
 Alpha virt. eigenvalues --    0.81680   0.81771   0.82294   0.82513   0.82919
 Alpha virt. eigenvalues --    0.83390   0.84171   0.84286   0.85286   0.85440
 Alpha virt. eigenvalues --    0.85583   0.86610   0.87092   0.87487   0.87953
 Alpha virt. eigenvalues --    0.88224   0.88534   0.89272   0.90002   0.90655
 Alpha virt. eigenvalues --    0.90812   0.91060   0.91600   0.92418   0.92945
 Alpha virt. eigenvalues --    0.93186   0.93439   0.94265   0.94671   0.95071
 Alpha virt. eigenvalues --    0.95389   0.95705   0.95959   0.96416   0.96866
 Alpha virt. eigenvalues --    0.97642   0.97676   0.97969   0.98545   0.98806
 Alpha virt. eigenvalues --    0.99283   0.99802   1.00155   1.00624   1.01411
 Alpha virt. eigenvalues --    1.01828   1.02561   1.02680   1.02969   1.03360
 Alpha virt. eigenvalues --    1.03580   1.04331   1.05070   1.05161   1.05419
 Alpha virt. eigenvalues --    1.05788   1.07153   1.07381   1.08094   1.08428
 Alpha virt. eigenvalues --    1.08734   1.09179   1.10182   1.10757   1.11245
 Alpha virt. eigenvalues --    1.11879   1.12313   1.12709   1.13429   1.14027
 Alpha virt. eigenvalues --    1.14059   1.14505   1.14957   1.15375   1.15670
 Alpha virt. eigenvalues --    1.16254   1.16843   1.17124   1.17384   1.17657
 Alpha virt. eigenvalues --    1.17768   1.18437   1.18849   1.19213   1.19676
 Alpha virt. eigenvalues --    1.19958   1.20199   1.21010   1.21254   1.21466
 Alpha virt. eigenvalues --    1.22216   1.22448   1.22806   1.23317   1.23511
 Alpha virt. eigenvalues --    1.23739   1.24285   1.24612   1.25734   1.25851
 Alpha virt. eigenvalues --    1.25973   1.26136   1.27141   1.27301   1.28011
 Alpha virt. eigenvalues --    1.28471   1.29324   1.29534   1.30477   1.30862
 Alpha virt. eigenvalues --    1.31371   1.32186   1.32911   1.33573   1.34030
 Alpha virt. eigenvalues --    1.34361   1.34965   1.35349   1.36234   1.36875
 Alpha virt. eigenvalues --    1.37409   1.38733   1.38917   1.39601   1.40029
 Alpha virt. eigenvalues --    1.40705   1.41387   1.42154   1.42308   1.43873
 Alpha virt. eigenvalues --    1.45373   1.46576   1.46858   1.47226   1.48648
 Alpha virt. eigenvalues --    1.48972   1.49264   1.49974   1.51424   1.52504
 Alpha virt. eigenvalues --    1.53280   1.53330   1.53773   1.54347   1.55015
 Alpha virt. eigenvalues --    1.55299   1.56160   1.57030   1.57504   1.58203
 Alpha virt. eigenvalues --    1.58626   1.59301   1.60109   1.60771   1.61309
 Alpha virt. eigenvalues --    1.61900   1.62489   1.62899   1.64007   1.64876
 Alpha virt. eigenvalues --    1.65020   1.65922   1.66520   1.67129   1.67303
 Alpha virt. eigenvalues --    1.68176   1.68457   1.69003   1.69460   1.69844
 Alpha virt. eigenvalues --    1.69940   1.70301   1.70888   1.71691   1.71986
 Alpha virt. eigenvalues --    1.72413   1.72796   1.73179   1.74040   1.74309
 Alpha virt. eigenvalues --    1.74436   1.74819   1.75063   1.75515   1.75830
 Alpha virt. eigenvalues --    1.76092   1.76694   1.77016   1.77125   1.77522
 Alpha virt. eigenvalues --    1.78167   1.78525   1.78792   1.78925   1.79462
 Alpha virt. eigenvalues --    1.79704   1.79752   1.79876   1.80556   1.81104
 Alpha virt. eigenvalues --    1.81872   1.81926   1.82352   1.82393   1.83157
 Alpha virt. eigenvalues --    1.83620   1.83946   1.84334   1.84503   1.84966
 Alpha virt. eigenvalues --    1.85405   1.85831   1.86795   1.86917   1.87225
 Alpha virt. eigenvalues --    1.87970   1.88259   1.88794   1.89360   1.90197
 Alpha virt. eigenvalues --    1.90541   1.91010   1.91284   1.91986   1.92551
 Alpha virt. eigenvalues --    1.92957   1.93207   1.93953   1.94799   1.95098
 Alpha virt. eigenvalues --    1.95567   1.95782   1.96522   1.97065   1.98177
 Alpha virt. eigenvalues --    1.99541   1.99764   2.00772   2.01035   2.01692
 Alpha virt. eigenvalues --    2.02271   2.02771   2.03507   2.03651   2.04239
 Alpha virt. eigenvalues --    2.04458   2.05365   2.06043   2.06594   2.07280
 Alpha virt. eigenvalues --    2.08264   2.08660   2.08833   2.09673   2.10524
 Alpha virt. eigenvalues --    2.11582   2.12226   2.13044   2.14403   2.14647
 Alpha virt. eigenvalues --    2.15157   2.16161   2.16450   2.17780   2.17876
 Alpha virt. eigenvalues --    2.18617   2.19383   2.20060   2.20333   2.21491
 Alpha virt. eigenvalues --    2.22420   2.23240   2.23640   2.23859   2.23979
 Alpha virt. eigenvalues --    2.25117   2.26211   2.26471   2.26795   2.26878
 Alpha virt. eigenvalues --    2.27352   2.27489   2.29008   2.29711   2.29816
 Alpha virt. eigenvalues --    2.30422   2.30596   2.31199   2.31884   2.32448
 Alpha virt. eigenvalues --    2.32961   2.33237   2.33959   2.34221   2.34520
 Alpha virt. eigenvalues --    2.34857   2.36061   2.36262   2.36710   2.37630
 Alpha virt. eigenvalues --    2.38639   2.38672   2.39793   2.40318   2.41062
 Alpha virt. eigenvalues --    2.41818   2.42825   2.42994   2.43727   2.44293
 Alpha virt. eigenvalues --    2.44523   2.44892   2.45381   2.45684   2.46274
 Alpha virt. eigenvalues --    2.47081   2.48987   2.50288   2.50751   2.51219
 Alpha virt. eigenvalues --    2.51928   2.53425   2.54819   2.55501   2.56546
 Alpha virt. eigenvalues --    2.57361   2.57590   2.58224   2.59708   2.60007
 Alpha virt. eigenvalues --    2.61106   2.61776   2.62375   2.63890   2.64356
 Alpha virt. eigenvalues --    2.64912   2.65022   2.65743   2.66404   2.67154
 Alpha virt. eigenvalues --    2.67409   2.67823   2.68466   2.69263   2.69658
 Alpha virt. eigenvalues --    2.70359   2.70967   2.71539   2.72311   2.73057
 Alpha virt. eigenvalues --    2.73735   2.74636   2.75849   2.76638   2.77073
 Alpha virt. eigenvalues --    2.77233   2.77769   2.78587   2.78749   2.79059
 Alpha virt. eigenvalues --    2.79738   2.80394   2.80854   2.81293   2.81540
 Alpha virt. eigenvalues --    2.82109   2.83136   2.83825   2.84189   2.84669
 Alpha virt. eigenvalues --    2.85417   2.86101   2.86685   2.86962   2.87160
 Alpha virt. eigenvalues --    2.88016   2.88493   2.89402   2.93014   2.93498
 Alpha virt. eigenvalues --    2.95013   2.96219   2.96270   2.97003   2.99399
 Alpha virt. eigenvalues --    2.99967   3.00985   3.02958   3.03738   3.04785
 Alpha virt. eigenvalues --    3.06035   3.08829   3.10796   3.12430   3.14599
 Alpha virt. eigenvalues --    3.15180   3.16162   3.16711   3.18054   3.20006
 Alpha virt. eigenvalues --    3.20829   3.22644   3.23623   3.25692   3.26042
 Alpha virt. eigenvalues --    3.44317   3.46875   3.47589   3.48796   3.50911
 Alpha virt. eigenvalues --    3.52622   3.54781   3.56498   3.57848   3.60407
 Alpha virt. eigenvalues --    3.63411   3.71234   3.75709
          Condensed to atoms (all electrons):
 Mulliken charges:
               1
     1  N   -0.299128
     2  C    0.195864
     3  C    0.041291
     4  N   -0.241455
     5  C    0.148643
     6  H    0.027547
     7  N   -0.289156
     8  C    0.120766
     9  H    0.005927
    10  N   -0.274889
    11  C    0.232253
    12  C    0.079303
    13  N   -0.057466
    14  H    0.117911
    15  H    0.088696
    16  H    0.026634
    17  H    0.034969
    18  H   -0.002909
    19  N   -0.300982
    20  C    0.232997
    21  C    0.180033
    22  N   -0.114967
    23  H    0.119101
    24  H    0.119348
    25  N   -0.300451
    26  C    0.240965
    27  N   -0.133287
    28  H    0.119178
    29  C    0.182540
    30  O   -0.316938
    31  C   -0.003033
    32  N   -0.213510
    33  C    0.099105
    34  H    0.023867
    35  H    0.015612
    36  H    0.035300
    37  H    0.029011
    38  H    0.061100
    39  H    0.047756
    40  H    0.071027
    41  H    0.017052
    42  C   -0.092873
    43  O   -0.276114
    44  C    0.174851
    45  H    0.131184
    46  N   -0.124206
    47  O   -0.348031
    48  C    0.335742
    49  H    0.045448
    50  C    0.150007
    51  C    0.041188
    52  N   -0.269987
    53  H    0.036380
    54  H    0.042499
    55  H    0.029871
    56  H    0.125412
    57  H    0.119910
    58  N   -0.058861
    59  C    0.096191
    60  C    0.234167
    61  N   -0.277916
    62  H    0.038731
    63  C    0.158802
    64  N   -0.304237
    65  H    0.039877
    66  C    0.140577
    67  N   -0.258021
    68  C    0.039681
    69  C    0.178198
    70  N   -0.314099
 Sum of Mulliken charges =  -0.00000
 Mulliken charges with hydrogens summed into heavy atoms:
               1
     1  N   -0.299128
     2  C    0.254558
     3  C    0.041291
     4  N   -0.241455
     5  C    0.176190
     7  N   -0.289156
     8  C    0.126693
    10  N   -0.274889
    11  C    0.232253
    12  C    0.079303
    13  N    0.149142
    19  N   -0.300982
    20  C    0.232997
    21  C    0.259957
    22  N    0.123483
    25  N   -0.300451
    26  C    0.240965
    27  N   -0.014109
    29  C    0.182540
    30  O   -0.316938
    31  C   -0.003033
    32  N   -0.213510
    33  C    0.122973
    42  C   -0.075821
    43  O   -0.276114
    44  C    0.174851
    46  N    0.006978
    47  O   -0.348031
    48  C    0.335742
    50  C    0.195455
    51  C    0.221071
    52  N   -0.269987
    58  N    0.186461
    59  C    0.096191
    60  C    0.234167
    61  N   -0.277916
    63  C    0.197532
    64  N   -0.304237
    66  C    0.180454
    67  N   -0.258021
    68  C    0.039681
    69  C    0.286948
    70  N   -0.314099
 Electronic spatial extent (au):  <R**2>=          23444.8444
 Charge=             -0.0000 electrons
 Dipole moment (field-independent basis, Debye):
    X=              5.1463    Y=              7.8524    Z=              1.1472  Tot=              9.4584
 Quadrupole moment (field-independent basis, Debye-Ang):
   XX=           -145.7055   YY=           -235.0081   ZZ=           -252.4347
   XY=              1.9298   XZ=            -13.3052   YZ=            -16.9143
 Traceless Quadrupole moment (field-independent basis, Debye-Ang):
   XX=             65.3439   YY=            -23.9586   ZZ=            -41.3853
   XY=              1.9298   XZ=            -13.3052   YZ=            -16.9143
 Octapole moment (field-independent basis, Debye-Ang**2):
  XXX=            -66.6339  YYY=             96.8757  ZZZ=            -15.0076  XYY=            103.5799
  XXY=            160.1784  XXZ=             45.9885  XZZ=             12.2535  YZZ=             19.7749
  YYZ=             34.9189  XYZ=             24.7541
 Hexadecapole moment (field-independent basis, Debye-Ang**3):
 XXXX=         -17948.9230 YYYY=          -3386.0016 ZZZZ=          -3682.2622 XXXY=            891.4922
 XXXZ=           -174.4683 YYYX=           -160.3427 YYYZ=           -176.7561 ZZZX=            -95.7592
 ZZZY=            -42.7864 XXYY=          -4000.2728 XXZZ=          -4415.5771 YYZZ=          -1295.6676
 XXYZ=            -23.1236 YYXZ=             74.3557 ZZXY=             38.2577
 N-N= 5.525034158473D+03 E-N=-1.583018059077D+04  KE= 2.037773505129D+03
 No NMR shielding tensors so no spin-rotation constants.
 Leave Link  601 at Wed Jan 17 20:33:03 2018, MaxMem=  4294967296 cpu:              45.8 elap:               1.6
 (Enter /share/apps/g16/l9999.exe)
 1\1\GINC-COMPUTE-0-3\SP\RwB97XD\CC-pVDZ\C23H27N17O3\SATYA\17-Jan-2018\
 0\\#p wb97xd/cc-pvdz sp scf=(maxcycles=20)\\Base pair stacking\\0,1\N,
 0,-0.19605,0.91679,-6.47105\C,0,-0.73023,2.28871,-6.57363\C,0,-0.01915
 ,-1.27352,-6.37851\N,0,1.26993,-0.77467,-6.25948\C,0,1.11176,0.52494,-
 6.32\H,0,1.92237,1.25167,-6.25909\N,0,-1.86488,-2.73472,-6.52372\C,0,-
 2.62463,-1.64079,-6.6407\H,0,-3.69271,-1.82562,-6.74702\N,0,-2.26478,-
 0.35884,-6.64603\C,0,-0.93348,-0.24282,-6.50964\C,0,-0.52918,-2.58451,
 -6.38803\N,0,0.23088,-3.67529,-6.27112\H,0,1.22418,-3.61144,-6.1686\H,
 0,-0.16643,-4.59299,-6.28203\H,0,-0.32915,2.74552,-7.36775\H,0,-1.7237
 9,2.25347,-6.67715\H,0,-0.501,2.80065,-5.74576\N,0,-0.73907,2.41841,-3
 .26456\C,0,-1.25727,1.14581,-3.26328\C,0,-1.52959,3.66196,-3.36129\N,0
 ,-3.99469,-0.98725,-3.39872\H,0,-4.16386,-1.97229,-3.38065\H,0,-4.7941
 6,-0.39094,-3.47605\N,0,-2.56517,0.82019,-3.34948\C,0,-2.75197,-0.4874
 8,-3.32272\N,0,-1.73695,-1.40758,-3.21948\H,0,-1.97303,-2.38792,-3.206
 49\C,0,-0.3841,-1.09521,-3.12957\O,0,0.45267,-2.00213,-3.03986\C,0,-0.
 16769,0.30597,-3.15705\N,0,1.01084,1.03662,-3.09292\C,0,0.62364,2.2815
 2,-3.16\H,0,1.29308,3.14212,-3.13738\H,0,-1.25368,4.17181,-4.17537\H,0
 ,-2.50007,3.4333,-3.42565\H,0,-1.37345,4.22222,-2.54856\H,0,-3.7533,-7
 .10802,-3.84208\H,0,-3.6253,-7.16981,-2.08582\H,0,-3.99059,-5.64263,-2
 .88935\H,0,0.97808,-7.81239,-3.32784\C,0,0.25059,-7.0047,-3.2464\O,0,1
 .88109,-5.28273,-3.30466\C,0,0.70831,-5.64893,-3.23206\H,0,-0.00901,-3
 .73595,-3.11248\N,0,-0.29346,-4.7053,-3.12585\O,0,-2.45533,-4.03399,-2
 .94466\C,0,-1.64306,-4.93765,-3.03565\H,0,-1.45887,-8.27638,-3.16654\C
 ,0,-1.05952,-7.26306,-3.16\C,0,-3.43775,-6.5674,-2.96218\N,0,-2.0058,-
 6.27002,-3.05609\H,0,-5.56968,-9.72346,-6.86174\H,0,-5.53449,-8.4051,-
 5.90113\H,0,-5.44074,-9.89625,-5.24405\H,0,1.37584,-7.16832,-6.31721\H
 ,0,1.01144,-8.82828,-6.46493\N,0,0.68478,-7.89088,-6.33931\C,0,-0.6148
 6,-7.6176,-6.20724\C,0,-2.92857,-8.15854,-6.08142\N,0,-3.33837,-6.8902
 9,-5.91402\H,0,-2.54153,-5.00698,-5.77681\C,0,-2.29727,-6.06023,-5.908
 22\N,0,-0.99486,-6.33198,-6.04035\H,0,-3.19679,-11.36447,-6.40123\C,0,
 -2.84202,-10.33662,-6.32\N,0,-1.58362,-9.97558,-6.38132\C,0,-1.62442,-
 8.59695,-6.23142\C,0,-5.18137,-9.3316,-6.02768\N,0,-3.71047,-9.28782,-
 6.1396\\Version=EM64L-G16RevA.03\State=1-A\HF=-2048.750788\RMSD=6.508e
 -09\Dipole=-3.3862738,-1.4958811,-0.3779315\Quadrupole=-18.0083931,47.
 5959484,-29.5875553,12.4397473,-13.5156732,0.417605\PG=C01 [X(C23H27N1
 7O3)]\\@


 A warm smile is the universal language of kindness.
                             -- William Arthur Ward
 Job cpu time:       0 days  6 hours  6 minutes 40.0 seconds.
 Elapsed time:       0 days  0 hours 11 minutes 50.3 seconds.
 File lengths (MBytes):  RWF=    298 Int=      0 D2E=      0 Chk=     33 Scr=      1
 Normal termination of Gaussian 16 at Wed Jan 17 20:33:03 2018.
