 Entering Gaussian System, Link 0=g16
 Input=str10.0.1.5.com
 Output=str10.0.1.5.log
 Initial command:
 /share/apps/g16/l1.exe "/state/partition1/scr/Gau-26675.inp" -scrdir="/state/partition1/scr/"
 Entering Link 1 = /share/apps/g16/l1.exe PID=     26676.
  
 Copyright (c) 1988,1990,1992,1993,1995,1998,2003,2009,2016,
            Gaussian, Inc.  All Rights Reserved.
  
 This is part of the Gaussian(R) 16 program.  It is based on
 the Gaussian(R) 09 system (copyright 2009, Gaussian, Inc.),
 the Gaussian(R) 03 system (copyright 2003, Gaussian, Inc.),
 the Gaussian(R) 98 system (copyright 1998, Gaussian, Inc.),
 the Gaussian(R) 94 system (copyright 1995, Gaussian, Inc.),
 the Gaussian 92(TM) system (copyright 1992, Gaussian, Inc.),
 the Gaussian 90(TM) system (copyright 1990, Gaussian, Inc.),
 the Gaussian 88(TM) system (copyright 1988, Gaussian, Inc.),
 the Gaussian 86(TM) system (copyright 1986, Carnegie Mellon
 University), and the Gaussian 82(TM) system (copyright 1983,
 Carnegie Mellon University). Gaussian is a federally registered
 trademark of Gaussian, Inc.
  
 This software contains proprietary and confidential information,
 including trade secrets, belonging to Gaussian, Inc.
  
 This software is provided under written license and may be
 used, copied, transmitted, or stored only in accord with that
 written license.
  
 The following legend is applicable only to US Government
 contracts under FAR:
  
                    RESTRICTED RIGHTS LEGEND
  
 Use, reproduction and disclosure by the US Government is
 subject to restrictions as set forth in subparagraphs (a)
 and (c) of the Commercial Computer Software - Restricted
 Rights clause in FAR 52.227-19.
  
 Gaussian, Inc.
 340 Quinnipiac St., Bldg. 40, Wallingford CT 06492
  
  
 ---------------------------------------------------------------
 Warning -- This program may not be used in any manner that
 competes with the business of Gaussian, Inc. or will provide
 assistance to any competitor of Gaussian, Inc.  The licensee
 of this program is prohibited from giving any competitor of
 Gaussian, Inc. access to this program.  By using this program,
 the user acknowledges that Gaussian, Inc. is engaged in the
 business of creating and licensing software in the field of
 computational chemistry and represents and warrants to the
 licensee that it is not a competitor of Gaussian, Inc. and that
 it will not use this program in any manner prohibited above.
 ---------------------------------------------------------------
  

 Cite this work as:
 Gaussian 16, Revision A.03,
 M. J. Frisch, G. W. Trucks, H. B. Schlegel, G. E. Scuseria, 
 M. A. Robb, J. R. Cheeseman, G. Scalmani, V. Barone, 
 G. A. Petersson, H. Nakatsuji, X. Li, M. Caricato, A. V. Marenich, 
 J. Bloino, B. G. Janesko, R. Gomperts, B. Mennucci, H. P. Hratchian, 
 J. V. Ortiz, A. F. Izmaylov, J. L. Sonnenberg, D. Williams-Young, 
 F. Ding, F. Lipparini, F. Egidi, J. Goings, B. Peng, A. Petrone, 
 T. Henderson, D. Ranasinghe, V. G. Zakrzewski, J. Gao, N. Rega, 
 G. Zheng, W. Liang, M. Hada, M. Ehara, K. Toyota, R. Fukuda, 
 J. Hasegawa, M. Ishida, T. Nakajima, Y. Honda, O. Kitao, H. Nakai, 
 T. Vreven, K. Throssell, J. A. Montgomery, Jr., J. E. Peralta, 
 F. Ogliaro, M. J. Bearpark, J. J. Heyd, E. N. Brothers, K. N. Kudin, 
 V. N. Staroverov, T. A. Keith, R. Kobayashi, J. Normand, 
 K. Raghavachari, A. P. Rendell, J. C. Burant, S. S. Iyengar, 
 J. Tomasi, M. Cossi, J. M. Millam, M. Klene, C. Adamo, R. Cammi, 
 J. W. Ochterski, R. L. Martin, K. Morokuma, O. Farkas, 
 J. B. Foresman, and D. J. Fox, Gaussian, Inc., Wallingford CT, 2016.
 
 ******************************************
 Gaussian 16:  EM64L-G16RevA.03 25-Dec-2016
                17-Jan-2018 
 ******************************************
 %nprocshared=32
 Will use up to   32 processors via shared memory.
 %mem=32GB
 %chk=allatoms_t.chk
 ---------------------------------------
 #p wb97xd/cc-pvdz sp scf=(maxcycles=20)
 ---------------------------------------
 1/38=1,172=1/1;
 2/12=2,17=6,18=5,40=1/2;
 3/5=16,11=2,25=1,30=1,74=-58/1,2,3;
 4//1;
 5/5=2,7=20,38=5/2;
 6/7=2,8=2,9=2,10=2,28=1/1;
 99/5=1,9=1/99;
 Leave Link    1 at Wed Jan 17 19:32:03 2018, MaxMem=  4294967296 cpu:               2.7 elap:               0.1
 (Enter /share/apps/g16/l101.exe)
 ------------------
 Base pair stacking
 ------------------
 Symbolic Z-matrix:
 Charge =  0 Multiplicity = 1
 N                     0.15      2.87913  -6.47105 
 C                    -0.38417   4.25104  -6.57363 
 C                     0.32691   0.68882  -6.37851 
 N                     1.61598   1.18766  -6.25948 
 C                     1.45781   2.48728  -6.32 
 H                     2.26842   3.21401  -6.25909 
 N                    -1.51883  -0.77238  -6.52372 
 C                    -2.27857   0.32155  -6.6407 
 H                    -3.34665   0.13671  -6.74702 
 N                    -1.91873   1.60349  -6.64603 
 C                    -0.58743   1.71951  -6.50964 
 C                    -0.18313  -0.62217  -6.38803 
 N                     0.57694  -1.71296  -6.27112 
 H                     1.57023  -1.6491   -6.1686 
 H                     0.17962  -2.63066  -6.28203 
 H                     0.01691   4.70786  -7.36775 
 H                    -1.37774   4.2158   -6.67715 
 H                    -0.15495   4.76299  -5.74576 
 N                    -0.65189   3.41471  -3.26456 
 C                    -1.1701    2.14211  -3.26328 
 C                    -1.44241   4.65826  -3.36129 
 N                    -3.90752   0.00905  -3.39872 
 H                    -4.07668  -0.97598  -3.38065 
 H                    -4.70699   0.60537  -3.47605 
 N                    -2.478     1.8165   -3.34948 
 C                    -2.6648    0.50883  -3.32272 
 N                    -1.64977  -0.41127  -3.21948 
 H                    -1.88585  -1.39161  -3.20649 
 C                    -0.29692  -0.0989   -3.12957 
 O                     0.53984  -1.00582  -3.03986 
 C                    -0.08052   1.30228  -3.15705 
 N                     1.09802   2.03292  -3.09292 
 C                     0.71082   3.27783  -3.16 
 H                     1.38025   4.13842  -3.13738 
 H                    -1.16651   5.16812  -4.17537 
 H                    -2.4129    4.42961  -3.42565 
 H                    -1.28627   5.21852  -2.54856 
 H                    -3.66613  -6.11171  -3.84208 
 H                    -3.53812  -6.1735   -2.08582 
 H                    -3.90341  -4.64632  -2.88935 
 H                     1.06526  -6.81609  -3.32784 
 C                     0.33777  -6.0084   -3.2464 
 O                     1.96827  -4.28642  -3.30466 
 C                     0.79548  -4.65262  -3.23206 
 H                     0.07817  -2.73965  -3.11248 
 N                    -0.20628  -3.70899  -3.12585 
 O                    -2.36816  -3.03769  -2.94466 
 C                    -1.55588  -3.94134  -3.03565 
 H                    -1.3717   -7.28007  -3.16654 
 C                    -0.97234  -6.26675  -3.16 
 C                    -3.35058  -5.57109  -2.96218 
 N                    -1.91863  -5.27371  -3.05609 
 H                    -5.22363  -7.76113  -6.86174 
 H                    -5.18844  -6.44276  -5.90113 
 H                    -5.09469  -7.93392  -5.24405 
 H                     1.72189  -5.20598  -6.31721 
 H                     1.35749  -6.86595  -6.46493 
 N                     1.03083  -5.92854  -6.33931 
 C                    -0.26881  -5.65527  -6.20724 
 C                    -2.58252  -6.19621  -6.08142 
 N                    -2.99231  -4.92795  -5.91402 
 H                    -2.19548  -3.04465  -5.77681 
 C                    -1.95122  -4.09789  -5.90822 
 N                    -0.64881  -4.36965  -6.04035 
 H                    -2.85074  -9.40213  -6.40123 
 C                    -2.49597  -8.37428  -6.32 
 N                    -1.23757  -8.01324  -6.38132 
 C                    -1.27837  -6.63462  -6.23142 
 C                    -4.83532  -7.36927  -6.02768 
 N                    -3.36441  -7.32548  -6.1396 
 
 ITRead=  0  0  0  0  0  0  0  0  0  0  0  0  0  0  0  0  0  0  0  0
 ITRead=  0  0  0  0  0  0  0  0  0  0  0  0  0  0  0  0  0  0  0  0
 ITRead=  0  0  0  0  0  0  0  0  0  0  0  0  0  0  0  0  0  0  0  0
 ITRead=  0  0  0  0  0  0  0  0  0  0
 MicOpt= -1 -1 -1 -1 -1 -1 -1 -1 -1 -1 -1 -1 -1 -1 -1 -1 -1 -1 -1 -1
 MicOpt= -1 -1 -1 -1 -1 -1 -1 -1 -1 -1 -1 -1 -1 -1 -1 -1 -1 -1 -1 -1
 MicOpt= -1 -1 -1 -1 -1 -1 -1 -1 -1 -1 -1 -1 -1 -1 -1 -1 -1 -1 -1 -1
 MicOpt= -1 -1 -1 -1 -1 -1 -1 -1 -1 -1
 NAtoms=     70 NQM=       70 NQMF=       0 NMMI=      0 NMMIF=      0
                NMic=       0 NMicF=      0.
                    Isotopes and Nuclear Properties:
 (Nuclear quadrupole moments (NQMom) in fm**2, nuclear magnetic moments (NMagM)
  in nuclear magnetons)

  Atom         1           2           3           4           5           6           7           8           9          10
 IAtWgt=          14          12          12          14          12           1          14          12           1          14
 AtmWgt=  14.0030740  12.0000000  12.0000000  14.0030740  12.0000000   1.0078250  14.0030740  12.0000000   1.0078250  14.0030740
 NucSpn=           2           0           0           2           0           1           2           0           1           2
 AtZEff=  -0.0000000  -0.0000000  -0.0000000  -0.0000000  -0.0000000  -0.0000000  -0.0000000  -0.0000000  -0.0000000  -0.0000000
 NQMom=    2.0440000   0.0000000   0.0000000   2.0440000   0.0000000   0.0000000   2.0440000   0.0000000   0.0000000   2.0440000
 NMagM=    0.4037610   0.0000000   0.0000000   0.4037610   0.0000000   2.7928460   0.4037610   0.0000000   2.7928460   0.4037610
 AtZNuc=   7.0000000   6.0000000   6.0000000   7.0000000   6.0000000   1.0000000   7.0000000   6.0000000   1.0000000   7.0000000

  Atom        11          12          13          14          15          16          17          18          19          20
 IAtWgt=          12          12          14           1           1           1           1           1          14          12
 AtmWgt=  12.0000000  12.0000000  14.0030740   1.0078250   1.0078250   1.0078250   1.0078250   1.0078250  14.0030740  12.0000000
 NucSpn=           0           0           2           1           1           1           1           1           2           0
 AtZEff=  -0.0000000  -0.0000000  -0.0000000  -0.0000000  -0.0000000  -0.0000000  -0.0000000  -0.0000000  -0.0000000  -0.0000000
 NQMom=    0.0000000   0.0000000   2.0440000   0.0000000   0.0000000   0.0000000   0.0000000   0.0000000   2.0440000   0.0000000
 NMagM=    0.0000000   0.0000000   0.4037610   2.7928460   2.7928460   2.7928460   2.7928460   2.7928460   0.4037610   0.0000000
 AtZNuc=   6.0000000   6.0000000   7.0000000   1.0000000   1.0000000   1.0000000   1.0000000   1.0000000   7.0000000   6.0000000

  Atom        21          22          23          24          25          26          27          28          29          30
 IAtWgt=          12          14           1           1          14          12          14           1          12          16
 AtmWgt=  12.0000000  14.0030740   1.0078250   1.0078250  14.0030740  12.0000000  14.0030740   1.0078250  12.0000000  15.9949146
 NucSpn=           0           2           1           1           2           0           2           1           0           0
 AtZEff=  -0.0000000  -0.0000000  -0.0000000  -0.0000000  -0.0000000  -0.0000000  -0.0000000  -0.0000000  -0.0000000  -0.0000000
 NQMom=    0.0000000   2.0440000   0.0000000   0.0000000   2.0440000   0.0000000   2.0440000   0.0000000   0.0000000   0.0000000
 NMagM=    0.0000000   0.4037610   2.7928460   2.7928460   0.4037610   0.0000000   0.4037610   2.7928460   0.0000000   0.0000000
 AtZNuc=   6.0000000   7.0000000   1.0000000   1.0000000   7.0000000   6.0000000   7.0000000   1.0000000   6.0000000   8.0000000

  Atom        31          32          33          34          35          36          37          38          39          40
 IAtWgt=          12          14          12           1           1           1           1           1           1           1
 AtmWgt=  12.0000000  14.0030740  12.0000000   1.0078250   1.0078250   1.0078250   1.0078250   1.0078250   1.0078250   1.0078250
 NucSpn=           0           2           0           1           1           1           1           1           1           1
 AtZEff=  -0.0000000  -0.0000000  -0.0000000  -0.0000000  -0.0000000  -0.0000000  -0.0000000  -0.0000000  -0.0000000  -0.0000000
 NQMom=    0.0000000   2.0440000   0.0000000   0.0000000   0.0000000   0.0000000   0.0000000   0.0000000   0.0000000   0.0000000
 NMagM=    0.0000000   0.4037610   0.0000000   2.7928460   2.7928460   2.7928460   2.7928460   2.7928460   2.7928460   2.7928460
 AtZNuc=   6.0000000   7.0000000   6.0000000   1.0000000   1.0000000   1.0000000   1.0000000   1.0000000   1.0000000   1.0000000

  Atom        41          42          43          44          45          46          47          48          49          50
 IAtWgt=           1          12          16          12           1          14          16          12           1          12
 AtmWgt=   1.0078250  12.0000000  15.9949146  12.0000000   1.0078250  14.0030740  15.9949146  12.0000000   1.0078250  12.0000000
 NucSpn=           1           0           0           0           1           2           0           0           1           0
 AtZEff=  -0.0000000  -0.0000000  -0.0000000  -0.0000000  -0.0000000  -0.0000000  -0.0000000  -0.0000000  -0.0000000  -0.0000000
 NQMom=    0.0000000   0.0000000   0.0000000   0.0000000   0.0000000   2.0440000   0.0000000   0.0000000   0.0000000   0.0000000
 NMagM=    2.7928460   0.0000000   0.0000000   0.0000000   2.7928460   0.4037610   0.0000000   0.0000000   2.7928460   0.0000000
 AtZNuc=   1.0000000   6.0000000   8.0000000   6.0000000   1.0000000   7.0000000   8.0000000   6.0000000   1.0000000   6.0000000

  Atom        51          52          53          54          55          56          57          58          59          60
 IAtWgt=          12          14           1           1           1           1           1          14          12          12
 AtmWgt=  12.0000000  14.0030740   1.0078250   1.0078250   1.0078250   1.0078250   1.0078250  14.0030740  12.0000000  12.0000000
 NucSpn=           0           2           1           1           1           1           1           2           0           0
 AtZEff=  -0.0000000  -0.0000000  -0.0000000  -0.0000000  -0.0000000  -0.0000000  -0.0000000  -0.0000000  -0.0000000  -0.0000000
 NQMom=    0.0000000   2.0440000   0.0000000   0.0000000   0.0000000   0.0000000   0.0000000   2.0440000   0.0000000   0.0000000
 NMagM=    0.0000000   0.4037610   2.7928460   2.7928460   2.7928460   2.7928460   2.7928460   0.4037610   0.0000000   0.0000000
 AtZNuc=   6.0000000   7.0000000   1.0000000   1.0000000   1.0000000   1.0000000   1.0000000   7.0000000   6.0000000   6.0000000

  Atom        61          62          63          64          65          66          67          68          69          70
 IAtWgt=          14           1          12          14           1          12          14          12          12          14
 AtmWgt=  14.0030740   1.0078250  12.0000000  14.0030740   1.0078250  12.0000000  14.0030740  12.0000000  12.0000000  14.0030740
 NucSpn=           2           1           0           2           1           0           2           0           0           2
 AtZEff=  -0.0000000  -0.0000000  -0.0000000  -0.0000000  -0.0000000  -0.0000000  -0.0000000  -0.0000000  -0.0000000  -0.0000000
 NQMom=    2.0440000   0.0000000   0.0000000   2.0440000   0.0000000   0.0000000   2.0440000   0.0000000   0.0000000   2.0440000
 NMagM=    0.4037610   2.7928460   0.0000000   0.4037610   2.7928460   0.0000000   0.4037610   0.0000000   0.0000000   0.4037610
 AtZNuc=   7.0000000   1.0000000   6.0000000   7.0000000   1.0000000   6.0000000   7.0000000   6.0000000   6.0000000   7.0000000
 Leave Link  101 at Wed Jan 17 19:32:03 2018, MaxMem=  4294967296 cpu:               5.3 elap:               0.2
 (Enter /share/apps/g16/l202.exe)
 Stoichiometry    C23H27N17O3
 Framework group  C1[X(C23H27N17O3)]
 Deg. of freedom   204
 Full point group                 C1      NOp   1
 Largest Abelian subgroup         C1      NOp   1
 Largest concise Abelian subgroup C1      NOp   1
                         Standard orientation:                         
 ---------------------------------------------------------------------
 Center     Atomic      Atomic             Coordinates (Angstroms)
 Number     Number       Type             X           Y           Z
 ---------------------------------------------------------------------
      1          7           0        4.813688   -1.543319   -1.304968
      2          6           0        6.082553   -1.059662   -1.882942
      3          6           0        2.682777   -1.821124   -0.836610
      4          7           0        3.374828   -2.730164   -0.049576
      5          6           0        4.630930   -2.526420   -0.363245
      6          1           0        5.473144   -3.070070    0.065770
      7          7           0        0.955804   -0.570125   -1.844337
      8          6           0        1.915656    0.059679   -2.529613
      9          1           0        1.567402    0.828368   -3.218164
     10          7           0        3.234895   -0.116654   -2.492216
     11          6           0        3.556267   -1.082524   -1.615724
     12          6           0        1.311552   -1.536902   -0.970349
     13          7           0        0.354846   -2.166734   -0.285350
     14          1           0        0.572250   -2.888917    0.372221
     15          1           0       -0.611285   -1.938308   -0.406054
     16          1           0        6.551078   -1.815124   -2.341133
     17          1           0        5.893309   -0.335338   -2.545272
     18          1           0        6.666719   -0.699564   -1.155561
     19          7           0        5.394193    1.066833    0.710366
     20          6           0        4.060224    1.367413    0.575346
     21          6           0        6.498231    1.746428    0.003297
     22          7           0        1.536848    3.273768   -0.859973
     23          1           0        0.539993    3.332352   -0.814424
     24          1           0        2.001605    3.915159   -1.470995
     25          7           0        3.538132    2.326381   -0.219547
     26          6           0        2.220573    2.375803   -0.134654
     27          7           0        1.469858    1.550168    0.666770
     28          1           0        0.467332    1.659294    0.668282
     29          6           0        1.985814    0.556540    1.492818
     30          8           0        1.220669   -0.134389    2.176842
     31          6           0        3.400088    0.491393    1.412360
     32          7           0        4.301476   -0.342377    2.059842
     33          6           0        5.468890    0.034624    1.613480
     34          1           0        6.420046   -0.408043    1.911154
     35          1           0        6.999288    1.083129   -0.551482
     36          1           0        6.123601    2.458906   -0.588567
     37          1           0        7.118326    2.159763    0.669207
     38          1           0       -4.493476    2.276914   -0.259962
     39          1           0       -4.441125    3.224513    1.224615
     40          1           0       -3.031244    3.166653    0.166190
     41          1           0       -4.452226   -1.236318    3.026700
     42          6           0       -3.759493   -0.538172    2.556646
     43          8           0       -1.818232   -1.717364    3.240863
     44          6           0       -2.351633   -0.773970    2.657510
     45          1           0       -0.564140    0.036278    2.077291
     46          7           0       -1.564468    0.168982    2.027863
     47          8           0       -1.216005    2.054951    0.811766
     48          6           0       -1.991280    1.275240    1.336801
     49          1           0       -5.266861    0.756387    1.783492
     50          6           0       -4.206258    0.532133    1.889228
     51          6           0       -3.865279    2.602177    0.555904
     52          7           0       -3.362124    1.433970    1.283821
     53          1           0       -6.517198    1.555954   -3.366327
     54          1           0       -5.158854    2.220950   -2.754125
     55          1           0       -6.581722    2.409822   -1.977029
     56          1           0       -2.924524   -3.411770    0.814578
     57          1           0       -4.625863   -3.357006    0.702533
     58          7           0       -3.742624   -2.939451    0.486290
     59          6           0       -3.660529   -1.803246   -0.209038
     60          6           0       -4.534574    0.063429   -1.397849
     61          7           0       -3.334921    0.601260   -1.673535
     62          1           0       -1.348855    0.216186   -1.345138
     63          6           0       -2.359108   -0.149557   -1.166620
     64          7           0       -2.439300   -1.287867   -0.469911
     65          1           0       -7.756968   -0.197670   -1.385587
     66          6           0       -6.684698   -0.340352   -1.248420
     67          7           0       -6.142957   -1.345461   -0.605029
     68          6           0       -4.779989   -1.101665   -0.692272
     69          6           0       -6.027417    1.782769   -2.524505
     70          7           0       -5.769746    0.550463   -1.754409
 ---------------------------------------------------------------------
 Rotational constants (GHZ):           0.1782491           0.0505427           0.0500946
 Leave Link  202 at Wed Jan 17 19:32:03 2018, MaxMem=  4294967296 cpu:               0.3 elap:               0.0
 (Enter /share/apps/g16/l301.exe)
 Standard basis: CC-pVDZ (5D, 7F)
 Ernie: Thresh=  0.10000D-02 Tol=  0.10000D-05 Strict=F.
 Ernie:  86 primitive shells out of 1081 were deleted.
 There are   780 symmetry adapted cartesian basis functions of A   symmetry.
 There are   737 symmetry adapted basis functions of A   symmetry.
   737 basis functions,  1608 primitive gaussians,   780 cartesian basis functions
   154 alpha electrons      154 beta electrons
       nuclear repulsion energy      5582.1351499041 Hartrees.
 IExCor= 4639 DFT=T Ex+Corr=wB97XD ExCW=0 ScaHFX=  1.000000
 ScaDFX=  1.000000  1.000000  1.000000  1.000000 ScalE2=  1.000000  1.000000
 IRadAn=      5 IRanWt=     -1 IRanGd=            0 ICorTp=0 IEmpDi=121
 HFx  wShort=  0.000000 wLong=  0.200000 cFull=  0.222036 cShort=  0.000000 cLong=  0.777964
 DFx  wShort=  0.000000 wLong=  0.200000 cFull=  0.000000 cShort=  0.000000 cLong=  1.000000
 NAtoms=   70 NActive=   70 NUniq=   70 SFac= 1.00D+00 NAtFMM=   60 NAOKFM=T Big=T
 Integral buffers will be    131072 words long.
 Raffenetti 2 integral format.
 Two-electron integral symmetry is turned on.
 R6Disp:  Grimme-D2 Dispersion energy=       -0.0787291269 Hartrees.
 Nuclear repulsion after empirical dispersion term =     5582.0564207772 Hartrees.
 Leave Link  301 at Wed Jan 17 19:32:03 2018, MaxMem=  4294967296 cpu:               2.1 elap:               0.1
 (Enter /share/apps/g16/l302.exe)
 NPDir=0 NMtPBC=     1 NCelOv=     1 NCel=       1 NClECP=     1 NCelD=      1
         NCelK=      1 NCelE2=     1 NClLst=     1 CellRange=     0.0.
 One-electron integrals computed using PRISM.
 One-electron integral symmetry used in STVInt
 NBasis=   737 RedAO= T EigKep=  6.37D-04  NBF=   737
 NBsUse=   737 1.00D-06 EigRej= -1.00D+00 NBFU=   737
 Precomputing XC quadrature grid using
 IXCGrd= 4 IRadAn=           5 IRanWt=          -1 IRanGd=           0 AccXCQ= 0.00D+00.
 Generated NRdTot=       0 NPtTot=           0 NUsed=           0 NTot=          32
 NSgBfM=   764   764   764   764   764 MxSgAt=    70 MxSgA2=    70.
 Leave Link  302 at Wed Jan 17 19:32:12 2018, MaxMem=  4294967296 cpu:             274.5 elap:               8.9
 (Enter /share/apps/g16/l303.exe)
 DipDrv:  MaxL=1.
 Leave Link  303 at Wed Jan 17 19:32:12 2018, MaxMem=  4294967296 cpu:              12.5 elap:               0.4
 (Enter /share/apps/g16/l401.exe)
 ExpMin= 1.22D-01 ExpMax= 1.17D+04 ExpMxC= 4.01D+02 IAcc=3 IRadAn=         5 AccDes= 0.00D+00
 Harris functional with IExCor= 4639 and IRadAn=       5 diagonalized for initial guess.
 HarFok:  IExCor= 4639 AccDes= 0.00D+00 IRadAn=         5 IDoV= 1 UseB2=F ITyADJ=14
 ICtDFT=  3500011 ScaDFX=  1.000000  1.000000  1.000000  1.000000
 FoFCou: FMM=F IPFlag=           0 FMFlag=      100000 FMFlg1=        2001
         NFxFlg=           0 DoJE=T BraDBF=F KetDBF=T FulRan=T
         wScrn=  0.000000 ICntrl=       500 IOpCl=  0 I1Cent=   200000004 NGrid=           0
         NMat0=    1 NMatS0=      1 NMatT0=    0 NMatD0=    1 NMtDS0=    0 NMtDT0=    0
 Petite list used in FoFCou.
 Harris En= -1963.88179562642    
 JPrj=0 DoOrth=F DoCkMO=F.
 Leave Link  401 at Wed Jan 17 19:32:25 2018, MaxMem=  4294967296 cpu:             409.9 elap:              12.9
 (Enter /share/apps/g16/l502.exe)
 Integral symmetry usage will be decided dynamically.
 Closed shell SCF:
 Using DIIS extrapolation, IDIIS=  1040.
 NGot=  4294967296 LenX=  4293717438 LenY=  4293108258
 Requested convergence on RMS density matrix=1.00D-08 within  20 cycles.
 Requested convergence on MAX density matrix=1.00D-06.
 Requested convergence on             energy=1.00D-06.
 No special actions if energy rises.
 Fock matrices will be formed incrementally for  20 cycles.
 Integral accuracy reduced to 1.0D-05 until final iterations.

 Cycle   1  Pass 0  IDiag  1:
 FoFJK:  IHMeth= 1 ICntrl=       0 DoSepK=T KAlg= 0 I1Cent=           0 FoldK=F
 IRaf=         1 NMat=       1 IRICut=       1 DoRegI=T DoRafI=F ISym2E= 0 IDoP0=0 IntGTp=1.
 FoFCou: FMM=T IPFlag=           0 FMFlag=      100000 FMFlg1=        2001
         NFxFlg=           0 DoJE=T BraDBF=F KetDBF=F FulRan=T
         wScrn=  0.000000 ICntrl=       500 IOpCl=  0 I1Cent=           0 NGrid=           0
         NMat0=    1 NMatS0=      1 NMatT0=    0 NMatD0=    1 NMtDS0=    0 NMtDT0=    0
 Symmetry not used in FoFCou.
 FMM levels:  10  Number of levels for PrismC:   9
 E= -2048.31405295426    
 DIIS: error= 1.74D-02 at cycle   1 NSaved=   1.
 NSaved= 1 IEnMin= 1 EnMin= -2048.31405295426     IErMin= 1 ErrMin= 1.74D-02
 ErrMax= 1.74D-02  0.00D+00 EMaxC= 1.00D-01 BMatC= 8.35D-01 BMatP= 8.35D-01
 IDIUse=3 WtCom= 8.26D-01 WtEn= 1.74D-01
 Coeff-Com:  0.100D+01
 Coeff-En:   0.100D+01
 Coeff:      0.100D+01
 Gap=     0.261 Goal=   None    Shift=    0.000
 GapD=    0.261 DampG=1.000 DampE=0.500 DampFc=0.5000 IDamp=-1.
 Damping current iteration by 5.00D-01
 RMSDP=1.60D-03 MaxDP=1.18D-01              OVMax= 1.97D-01

 Cycle   2  Pass 0  IDiag  1:
 RMSU=  7.98D-04    CP:  9.98D-01
 E= -2048.50960585622     Delta-E=       -0.195552901960 Rises=F Damp=T
 DIIS: error= 9.48D-03 at cycle   2 NSaved=   2.
 NSaved= 2 IEnMin= 2 EnMin= -2048.50960585622     IErMin= 2 ErrMin= 9.48D-03
 ErrMax= 9.48D-03  0.00D+00 EMaxC= 1.00D-01 BMatC= 1.46D-01 BMatP= 8.35D-01
 IDIUse=3 WtCom= 9.05D-01 WtEn= 9.48D-02
 Coeff-Com: -0.188D+00 0.119D+01
 Coeff-En:   0.000D+00 0.100D+01
 Coeff:     -0.170D+00 0.117D+01
 Gap=     0.318 Goal=   None    Shift=    0.000
 RMSDP=6.05D-04 MaxDP=3.32D-02 DE=-1.96D-01 OVMax= 1.32D-01

 Cycle   3  Pass 0  IDiag  1:
 RMSU=  5.97D-04    CP:  9.94D-01  1.11D+00
 E= -2048.68444887960     Delta-E=       -0.174843023383 Rises=F Damp=F
 DIIS: error= 8.16D-03 at cycle   3 NSaved=   3.
 NSaved= 3 IEnMin= 3 EnMin= -2048.68444887960     IErMin= 3 ErrMin= 8.16D-03
 ErrMax= 8.16D-03  0.00D+00 EMaxC= 1.00D-01 BMatC= 7.10D-02 BMatP= 1.46D-01
 IDIUse=3 WtCom= 9.18D-01 WtEn= 8.16D-02
 Coeff-Com: -0.237D+00 0.566D+00 0.670D+00
 Coeff-En:   0.000D+00 0.000D+00 0.100D+01
 Coeff:     -0.217D+00 0.520D+00 0.697D+00
 Gap=     0.283 Goal=   None    Shift=    0.000
 RMSDP=3.93D-04 MaxDP=2.89D-02 DE=-1.75D-01 OVMax= 6.71D-02

 Cycle   4  Pass 0  IDiag  1:
 RMSU=  2.16D-04    CP:  9.94D-01  1.42D+00  6.37D-01
 E= -2048.73764012240     Delta-E=       -0.053191242797 Rises=F Damp=F
 DIIS: error= 3.05D-03 at cycle   4 NSaved=   4.
 NSaved= 4 IEnMin= 4 EnMin= -2048.73764012240     IErMin= 4 ErrMin= 3.05D-03
 ErrMax= 3.05D-03  0.00D+00 EMaxC= 1.00D-01 BMatC= 1.07D-02 BMatP= 7.10D-02
 IDIUse=3 WtCom= 9.69D-01 WtEn= 3.05D-02
 Coeff-Com: -0.974D-01 0.189D+00 0.378D+00 0.530D+00
 Coeff-En:   0.000D+00 0.000D+00 0.856D-01 0.914D+00
 Coeff:     -0.944D-01 0.183D+00 0.370D+00 0.542D+00
 Gap=     0.284 Goal=   None    Shift=    0.000
 RMSDP=1.38D-04 MaxDP=1.05D-02 DE=-5.32D-02 OVMax= 1.57D-02

 Cycle   5  Pass 0  IDiag  1:
 RMSU=  6.25D-05    CP:  9.94D-01  1.39D+00  7.82D-01  6.17D-01
 E= -2048.74665342111     Delta-E=       -0.009013298716 Rises=F Damp=F
 DIIS: error= 4.59D-04 at cycle   5 NSaved=   5.
 NSaved= 5 IEnMin= 5 EnMin= -2048.74665342111     IErMin= 5 ErrMin= 4.59D-04
 ErrMax= 4.59D-04  0.00D+00 EMaxC= 1.00D-01 BMatC= 2.98D-04 BMatP= 1.07D-02
 IDIUse=3 WtCom= 9.95D-01 WtEn= 4.59D-03
 Coeff-Com: -0.249D-01 0.425D-01 0.120D+00 0.235D+00 0.627D+00
 Coeff-En:   0.000D+00 0.000D+00 0.000D+00 0.000D+00 0.100D+01
 Coeff:     -0.247D-01 0.423D-01 0.120D+00 0.234D+00 0.628D+00
 Gap=     0.284 Goal=   None    Shift=    0.000
 RMSDP=2.73D-05 MaxDP=1.34D-03 DE=-9.01D-03 OVMax= 3.36D-03

 Failed to achieve initial convergence to 1.0D-08 in  6 cycles.
 Switch to full accuracy anyway.
 Cycle   6  Pass 1  IDiag  1:
 E= -2048.74683680001     Delta-E=       -0.000183378897 Rises=F Damp=F
 DIIS: error= 2.42D-04 at cycle   1 NSaved=   1.
 NSaved= 1 IEnMin= 1 EnMin= -2048.74683680001     IErMin= 1 ErrMin= 2.42D-04
 ErrMax= 2.42D-04  0.00D+00 EMaxC= 1.00D-01 BMatC= 7.81D-05 BMatP= 7.81D-05
 IDIUse=3 WtCom= 9.98D-01 WtEn= 2.42D-03
 Coeff-Com:  0.100D+01
 Coeff-En:   0.100D+01
 Coeff:      0.100D+01
 Gap=     0.284 Goal=   None    Shift=    0.000
 RMSDP=2.73D-05 MaxDP=1.34D-03 DE=-1.83D-04 OVMax= 2.33D-03

 Cycle   7  Pass 1  IDiag  1:
 RMSU=  1.15D-04    CP:  1.00D+00
 E= -2048.74689252801     Delta-E=       -0.000055728003 Rises=F Damp=F
 DIIS: error= 1.85D-04 at cycle   2 NSaved=   2.
 NSaved= 2 IEnMin= 2 EnMin= -2048.74689252801     IErMin= 2 ErrMin= 1.85D-04
 ErrMax= 1.85D-04  0.00D+00 EMaxC= 1.00D-01 BMatC= 4.48D-05 BMatP= 7.81D-05
 IDIUse=3 WtCom= 9.98D-01 WtEn= 1.85D-03
 Coeff-Com:  0.407D+00 0.593D+00
 Coeff-En:   0.000D+00 0.100D+01
 Coeff:      0.406D+00 0.594D+00
 Gap=     0.284 Goal=   None    Shift=    0.000
 RMSDP=1.21D-05 MaxDP=7.65D-04 DE=-5.57D-05 OVMax= 1.73D-03

 Cycle   8  Pass 1  IDiag  1:
 RMSU=  1.19D-05    CP:  1.00D+00  1.02D+00
 E= -2048.74692537139     Delta-E=       -0.000032843377 Rises=F Damp=F
 DIIS: error= 8.51D-05 at cycle   3 NSaved=   3.
 NSaved= 3 IEnMin= 3 EnMin= -2048.74692537139     IErMin= 3 ErrMin= 8.51D-05
 ErrMax= 8.51D-05  0.00D+00 EMaxC= 1.00D-01 BMatC= 1.07D-05 BMatP= 4.48D-05
 IDIUse=1 WtCom= 1.00D+00 WtEn= 0.00D+00
 Coeff-Com: -0.180D-01 0.315D+00 0.703D+00
 Coeff:     -0.180D-01 0.315D+00 0.703D+00
 Gap=     0.284 Goal=   None    Shift=    0.000
 RMSDP=5.84D-06 MaxDP=3.54D-04 DE=-3.28D-05 OVMax= 6.53D-04

 Cycle   9  Pass 1  IDiag  1:
 RMSU=  3.87D-06    CP:  1.00D+00  1.05D+00  7.51D-01
 E= -2048.74693564408     Delta-E=       -0.000010272695 Rises=F Damp=F
 DIIS: error= 3.70D-05 at cycle   4 NSaved=   4.
 NSaved= 4 IEnMin= 4 EnMin= -2048.74693564408     IErMin= 4 ErrMin= 3.70D-05
 ErrMax= 3.70D-05  0.00D+00 EMaxC= 1.00D-01 BMatC= 5.50D-07 BMatP= 1.07D-05
 IDIUse=1 WtCom= 1.00D+00 WtEn= 0.00D+00
 Coeff-Com: -0.300D-01 0.909D-01 0.271D+00 0.668D+00
 Coeff:     -0.300D-01 0.909D-01 0.271D+00 0.668D+00
 Gap=     0.284 Goal=   None    Shift=    0.000
 RMSDP=1.48D-06 MaxDP=8.22D-05 DE=-1.03D-05 OVMax= 4.04D-04

 Cycle  10  Pass 1  IDiag  1:
 RMSU=  1.31D-06    CP:  1.00D+00  1.05D+00  7.90D-01  1.09D+00
 E= -2048.74693651162     Delta-E=       -0.000000867535 Rises=F Damp=F
 DIIS: error= 1.49D-05 at cycle   5 NSaved=   5.
 NSaved= 5 IEnMin= 5 EnMin= -2048.74693651162     IErMin= 5 ErrMin= 1.49D-05
 ErrMax= 1.49D-05  0.00D+00 EMaxC= 1.00D-01 BMatC= 1.19D-07 BMatP= 5.50D-07
 IDIUse=1 WtCom= 1.00D+00 WtEn= 0.00D+00
 Coeff-Com: -0.365D-02-0.525D-01-0.108D+00 0.201D+00 0.963D+00
 Coeff:     -0.365D-02-0.525D-01-0.108D+00 0.201D+00 0.963D+00
 Gap=     0.284 Goal=   None    Shift=    0.000
 RMSDP=1.18D-06 MaxDP=5.48D-05 DE=-8.68D-07 OVMax= 2.29D-04

 Cycle  11  Pass 1  IDiag  1:
 RMSU=  5.02D-07    CP:  1.00D+00  1.05D+00  8.00D-01  1.36D+00  1.18D+00
 E= -2048.74693677081     Delta-E=       -0.000000259192 Rises=F Damp=F
 DIIS: error= 8.31D-06 at cycle   6 NSaved=   6.
 NSaved= 6 IEnMin= 6 EnMin= -2048.74693677081     IErMin= 6 ErrMin= 8.31D-06
 ErrMax= 8.31D-06  0.00D+00 EMaxC= 1.00D-01 BMatC= 3.16D-08 BMatP= 1.19D-07
 IDIUse=1 WtCom= 1.00D+00 WtEn= 0.00D+00
 Coeff-Com:  0.470D-02-0.470D-01-0.116D+00-0.119D-01 0.527D+00 0.643D+00
 Coeff:      0.470D-02-0.470D-01-0.116D+00-0.119D-01 0.527D+00 0.643D+00
 Gap=     0.284 Goal=   None    Shift=    0.000
 RMSDP=4.10D-07 MaxDP=2.54D-05 DE=-2.59D-07 OVMax= 1.14D-04

 Cycle  12  Pass 1  IDiag  1:
 RMSU=  2.00D-07    CP:  1.00D+00  1.05D+00  8.03D-01  1.44D+00  1.32D+00
                    CP:  9.49D-01
 E= -2048.74693681724     Delta-E=       -0.000000046425 Rises=F Damp=F
 DIIS: error= 1.16D-06 at cycle   7 NSaved=   7.
 NSaved= 7 IEnMin= 7 EnMin= -2048.74693681724     IErMin= 7 ErrMin= 1.16D-06
 ErrMax= 1.16D-06  0.00D+00 EMaxC= 1.00D-01 BMatC= 7.91D-10 BMatP= 3.16D-08
 IDIUse=1 WtCom= 1.00D+00 WtEn= 0.00D+00
 Coeff-Com:  0.117D-02-0.832D-02-0.219D-01-0.105D-01 0.683D-01 0.140D+00
 Coeff-Com:  0.831D+00
 Coeff:      0.117D-02-0.832D-02-0.219D-01-0.105D-01 0.683D-01 0.140D+00
 Coeff:      0.831D+00
 Gap=     0.284 Goal=   None    Shift=    0.000
 RMSDP=8.75D-08 MaxDP=3.98D-06 DE=-4.64D-08 OVMax= 2.33D-05

 Cycle  13  Pass 1  IDiag  1:
 RMSU=  5.70D-08    CP:  1.00D+00  1.05D+00  8.02D-01  1.45D+00  1.34D+00
                    CP:  1.03D+00  1.12D+00
 E= -2048.74693681879     Delta-E=       -0.000000001550 Rises=F Damp=F
 DIIS: error= 6.54D-07 at cycle   8 NSaved=   8.
 NSaved= 8 IEnMin= 8 EnMin= -2048.74693681879     IErMin= 8 ErrMin= 6.54D-07
 ErrMax= 6.54D-07  0.00D+00 EMaxC= 1.00D-01 BMatC= 3.63D-10 BMatP= 7.91D-10
 IDIUse=1 WtCom= 1.00D+00 WtEn= 0.00D+00
 Coeff-Com: -0.743D-03 0.926D-02 0.220D-01-0.541D-03-0.115D+00-0.113D+00
 Coeff-Com:  0.421D+00 0.777D+00
 Coeff:     -0.743D-03 0.926D-02 0.220D-01-0.541D-03-0.115D+00-0.113D+00
 Coeff:      0.421D+00 0.777D+00
 Gap=     0.284 Goal=   None    Shift=    0.000
 RMSDP=5.31D-08 MaxDP=3.01D-06 DE=-1.55D-09 OVMax= 1.15D-05

 Cycle  14  Pass 1  IDiag  1:
 RMSU=  3.06D-08    CP:  1.00D+00  1.05D+00  8.02D-01  1.45D+00  1.34D+00
                    CP:  1.08D+00  1.28D+00  1.03D+00
 E= -2048.74693681942     Delta-E=       -0.000000000638 Rises=F Damp=F
 DIIS: error= 1.68D-07 at cycle   9 NSaved=   9.
 NSaved= 9 IEnMin= 9 EnMin= -2048.74693681942     IErMin= 9 ErrMin= 1.68D-07
 ErrMax= 1.68D-07  0.00D+00 EMaxC= 1.00D-01 BMatC= 2.87D-11 BMatP= 3.63D-10
 IDIUse=1 WtCom= 1.00D+00 WtEn= 0.00D+00
 Coeff-Com: -0.412D-03 0.448D-02 0.108D-01 0.998D-03-0.509D-01-0.586D-01
 Coeff-Com:  0.840D-01 0.288D+00 0.722D+00
 Coeff:     -0.412D-03 0.448D-02 0.108D-01 0.998D-03-0.509D-01-0.586D-01
 Coeff:      0.840D-01 0.288D+00 0.722D+00
 Gap=     0.284 Goal=   None    Shift=    0.000
 RMSDP=1.39D-08 MaxDP=5.26D-07 DE=-6.38D-10 OVMax= 3.23D-06

 Cycle  15  Pass 1  IDiag  1:
 RMSU=  9.63D-09    CP:  1.00D+00  1.05D+00  8.02D-01  1.45D+00  1.35D+00
                    CP:  1.09D+00  1.31D+00  1.17D+00  1.11D+00
 E= -2048.74693681959     Delta-E=       -0.000000000167 Rises=F Damp=F
 DIIS: error= 8.04D-08 at cycle  10 NSaved=  10.
 NSaved=10 IEnMin=10 EnMin= -2048.74693681959     IErMin=10 ErrMin= 8.04D-08
 ErrMax= 8.04D-08  0.00D+00 EMaxC= 1.00D-01 BMatC= 5.24D-12 BMatP= 2.87D-11
 IDIUse=1 WtCom= 1.00D+00 WtEn= 0.00D+00
 Coeff-Com:  0.919D-05-0.344D-03-0.742D-03 0.216D-03 0.574D-02 0.218D-02
 Coeff-Com: -0.564D-01-0.686D-01 0.254D+00 0.864D+00
 Coeff:      0.919D-05-0.344D-03-0.742D-03 0.216D-03 0.574D-02 0.218D-02
 Coeff:     -0.564D-01-0.686D-01 0.254D+00 0.864D+00
 Gap=     0.284 Goal=   None    Shift=    0.000
 RMSDP=7.34D-09 MaxDP=3.11D-07 DE=-1.67D-10 OVMax= 1.57D-06

 SCF Done:  E(RwB97XD) =  -2048.74693682     A.U. after   15 cycles
            NFock= 15  Conv=0.73D-08     -V/T= 2.0054
 KE= 2.037801824081D+03 PE=-1.594445291561D+04 EE= 6.275847733937D+03
 Leave Link  502 at Wed Jan 17 19:44:36 2018, MaxMem=  4294967296 cpu:           22449.7 elap:             730.4
 (Enter /share/apps/g16/l601.exe)
 Copying SCF densities to generalized density rwf, IOpCl= 0 IROHF=0.

 **********************************************************************

            Population analysis using the SCF density.

 **********************************************************************

 Orbital symmetries:
       Occupied  (A) (A) (A) (A) (A) (A) (A) (A) (A) (A) (A) (A)
                 (A) (A) (A) (A) (A) (A) (A) (A) (A) (A) (A) (A)
                 (A) (A) (A) (A) (A) (A) (A) (A) (A) (A) (A) (A)
                 (A) (A) (A) (A) (A) (A) (A) (A) (A) (A) (A) (A)
                 (A) (A) (A) (A) (A) (A) (A) (A) (A) (A) (A) (A)
                 (A) (A) (A) (A) (A) (A) (A) (A) (A) (A) (A) (A)
                 (A) (A) (A) (A) (A) (A) (A) (A) (A) (A) (A) (A)
                 (A) (A) (A) (A) (A) (A) (A) (A) (A) (A) (A) (A)
                 (A) (A) (A) (A) (A) (A) (A) (A) (A) (A) (A) (A)
                 (A) (A) (A) (A) (A) (A) (A) (A) (A) (A) (A) (A)
                 (A) (A) (A) (A) (A) (A) (A) (A) (A) (A) (A) (A)
                 (A) (A) (A) (A) (A) (A) (A) (A) (A) (A) (A) (A)
                 (A) (A) (A) (A) (A) (A) (A) (A) (A) (A)
       Virtual   (A) (A) (A) (A) (A) (A) (A) (A) (A) (A) (A) (A)
                 (A) (A) (A) (A) (A) (A) (A) (A) (A) (A) (A) (A)
                 (A) (A) (A) (A) (A) (A) (A) (A) (A) (A) (A) (A)
                 (A) (A) (A) (A) (A) (A) (A) (A) (A) (A) (A) (A)
                 (A) (A) (A) (A) (A) (A) (A) (A) (A) (A) (A) (A)
                 (A) (A) (A) (A) (A) (A) (A) (A) (A) (A) (A) (A)
                 (A) (A) (A) (A) (A) (A) (A) (A) (A) (A) (A) (A)
                 (A) (A) (A) (A) (A) (A) (A) (A) (A) (A) (A) (A)
                 (A) (A) (A) (A) (A) (A) (A) (A) (A) (A) (A) (A)
                 (A) (A) (A) (A) (A) (A) (A) (A) (A) (A) (A) (A)
                 (A) (A) (A) (A) (A) (A) (A) (A) (A) (A) (A) (A)
                 (A) (A) (A) (A) (A) (A) (A) (A) (A) (A) (A) (A)
                 (A) (A) (A) (A) (A) (A) (A) (A) (A) (A) (A) (A)
                 (A) (A) (A) (A) (A) (A) (A) (A) (A) (A) (A) (A)
                 (A) (A) (A) (A) (A) (A) (A) (A) (A) (A) (A) (A)
                 (A) (A) (A) (A) (A) (A) (A) (A) (A) (A) (A) (A)
                 (A) (A) (A) (A) (A) (A) (A) (A) (A) (A) (A) (A)
                 (A) (A) (A) (A) (A) (A) (A) (A) (A) (A) (A) (A)
                 (A) (A) (A) (A) (A) (A) (A) (A) (A) (A) (A) (A)
                 (A) (A) (A) (A) (A) (A) (A) (A) (A) (A) (A) (A)
                 (A) (A) (A) (A) (A) (A) (A) (A) (A) (A) (A) (A)
                 (A) (A) (A) (A) (A) (A) (A) (A) (A) (A) (A) (A)
                 (A) (A) (A) (A) (A) (A) (A) (A) (A) (A) (A) (A)
                 (A) (A) (A) (A) (A) (A) (A) (A) (A) (A) (A) (A)
                 (A) (A) (A) (A) (A) (A) (A) (A) (A) (A) (A) (A)
                 (A) (A) (A) (A) (A) (A) (A) (A) (A) (A) (A) (A)
                 (A) (A) (A) (A) (A) (A) (A) (A) (A) (A) (A) (A)
                 (A) (A) (A) (A) (A) (A) (A) (A) (A) (A) (A) (A)
                 (A) (A) (A) (A) (A) (A) (A) (A) (A) (A) (A) (A)
                 (A) (A) (A) (A) (A) (A) (A) (A) (A) (A) (A) (A)
                 (A) (A) (A) (A) (A) (A) (A) (A) (A) (A) (A) (A)
                 (A) (A) (A) (A) (A) (A) (A) (A) (A) (A) (A) (A)
                 (A) (A) (A) (A) (A) (A) (A) (A) (A) (A) (A) (A)
                 (A) (A) (A) (A) (A) (A) (A) (A) (A) (A) (A) (A)
                 (A) (A) (A) (A) (A) (A) (A) (A) (A) (A) (A) (A)
                 (A) (A) (A) (A) (A) (A) (A) (A) (A) (A) (A) (A)
                 (A) (A) (A) (A) (A) (A) (A) (A) (A) (A) (A) (A)
                 (A) (A) (A) (A) (A) (A) (A) (A) (A) (A) (A) (A)
                 (A) (A) (A) (A) (A) (A) (A) (A) (A) (A) (A) (A)
                 (A) (A) (A) (A) (A) (A) (A) (A) (A) (A) (A) (A)
                 (A) (A) (A) (A) (A) (A) (A) (A) (A) (A) (A) (A)
                 (A) (A) (A) (A) (A) (A) (A) (A) (A) (A) (A) (A)
                 (A) (A) (A) (A) (A) (A) (A) (A) (A) (A) (A) (A)
                 (A) (A) (A) (A) (A) (A) (A) (A) (A) (A) (A) (A)
                 (A) (A) (A) (A) (A) (A) (A) (A) (A) (A) (A) (A)
                 (A) (A) (A) (A) (A) (A) (A) (A) (A) (A) (A) (A)
                 (A) (A) (A) (A) (A) (A) (A) (A) (A) (A) (A) (A)
                 (A) (A) (A) (A) (A) (A) (A) (A) (A) (A) (A) (A)
                 (A) (A) (A) (A) (A) (A) (A)
 The electronic state is 1-A.
 Alpha  occ. eigenvalues --  -19.25256 -19.21514 -19.20726 -14.52645 -14.51740
 Alpha  occ. eigenvalues --  -14.49284 -14.49079 -14.48040 -14.47132 -14.46836
 Alpha  occ. eigenvalues --  -14.46690 -14.45401 -14.44452 -14.44417 -14.42775
 Alpha  occ. eigenvalues --  -14.41976 -14.41402 -14.41358 -14.41346 -14.40886
 Alpha  occ. eigenvalues --  -10.44810 -10.41226 -10.39968 -10.39557 -10.38356
 Alpha  occ. eigenvalues --  -10.37986 -10.37259 -10.37035 -10.35987 -10.35927
 Alpha  occ. eigenvalues --  -10.34607 -10.34344 -10.34245 -10.34191 -10.33777
 Alpha  occ. eigenvalues --  -10.33744 -10.33580 -10.32694 -10.31600 -10.31574
 Alpha  occ. eigenvalues --  -10.30256 -10.28865 -10.28387  -1.18825  -1.15331
 Alpha  occ. eigenvalues --   -1.13337  -1.12496  -1.11631  -1.10935  -1.09414
 Alpha  occ. eigenvalues --   -1.08688  -1.08550  -1.05566  -1.04861  -1.01846
 Alpha  occ. eigenvalues --   -1.01040  -1.00904  -0.99762  -0.98677  -0.97332
 Alpha  occ. eigenvalues --   -0.96982  -0.96883  -0.93234  -0.90323  -0.87735
 Alpha  occ. eigenvalues --   -0.86083  -0.84714  -0.84167  -0.83210  -0.82883
 Alpha  occ. eigenvalues --   -0.82621  -0.78201  -0.77093  -0.74971  -0.74890
 Alpha  occ. eigenvalues --   -0.73703  -0.73306  -0.72695  -0.71483  -0.70438
 Alpha  occ. eigenvalues --   -0.67526  -0.66846  -0.66737  -0.65904  -0.64559
 Alpha  occ. eigenvalues --   -0.64273  -0.63430  -0.63163  -0.62688  -0.61886
 Alpha  occ. eigenvalues --   -0.61037  -0.60835  -0.60484  -0.59651  -0.58934
 Alpha  occ. eigenvalues --   -0.58868  -0.58769  -0.58389  -0.57020  -0.55963
 Alpha  occ. eigenvalues --   -0.55699  -0.55427  -0.55277  -0.54456  -0.54332
 Alpha  occ. eigenvalues --   -0.54087  -0.53773  -0.53411  -0.53103  -0.52967
 Alpha  occ. eigenvalues --   -0.52864  -0.52201  -0.51665  -0.50840  -0.50634
 Alpha  occ. eigenvalues --   -0.50294  -0.50177  -0.49317  -0.49283  -0.49049
 Alpha  occ. eigenvalues --   -0.48805  -0.48528  -0.48251  -0.47719  -0.47389
 Alpha  occ. eigenvalues --   -0.47206  -0.46131  -0.44950  -0.44843  -0.43062
 Alpha  occ. eigenvalues --   -0.41384  -0.40760  -0.38961  -0.37888  -0.37701
 Alpha  occ. eigenvalues --   -0.37568  -0.37377  -0.37148  -0.35811  -0.34674
 Alpha  occ. eigenvalues --   -0.34506  -0.34157  -0.33893  -0.33754  -0.33034
 Alpha  occ. eigenvalues --   -0.32693  -0.32532  -0.31968  -0.31475  -0.31055
 Alpha  occ. eigenvalues --   -0.30789  -0.29852  -0.27068  -0.24789
 Alpha virt. eigenvalues --    0.03633   0.04086   0.06477   0.07138   0.08391
 Alpha virt. eigenvalues --    0.09370   0.09789   0.10398   0.11064   0.12293
 Alpha virt. eigenvalues --    0.12916   0.13513   0.14113   0.14760   0.14981
 Alpha virt. eigenvalues --    0.15164   0.16234   0.17407   0.17798   0.18332
 Alpha virt. eigenvalues --    0.18711   0.19305   0.19566   0.20541   0.20738
 Alpha virt. eigenvalues --    0.20861   0.20905   0.21171   0.21685   0.21884
 Alpha virt. eigenvalues --    0.22224   0.22419   0.22587   0.23380   0.23488
 Alpha virt. eigenvalues --    0.24098   0.24332   0.24639   0.24841   0.25701
 Alpha virt. eigenvalues --    0.26049   0.27117   0.27555   0.27885   0.28696
 Alpha virt. eigenvalues --    0.28897   0.29093   0.29343   0.30508   0.30548
 Alpha virt. eigenvalues --    0.31692   0.31818   0.32377   0.33035   0.33214
 Alpha virt. eigenvalues --    0.34443   0.34785   0.35256   0.35660   0.36384
 Alpha virt. eigenvalues --    0.36676   0.37012   0.37375   0.38006   0.39363
 Alpha virt. eigenvalues --    0.39541   0.39993   0.40636   0.41121   0.41502
 Alpha virt. eigenvalues --    0.42452   0.42587   0.43261   0.44133   0.44243
 Alpha virt. eigenvalues --    0.44531   0.45054   0.45940   0.46355   0.46603
 Alpha virt. eigenvalues --    0.46775   0.47600   0.48112   0.48533   0.49323
 Alpha virt. eigenvalues --    0.49890   0.49934   0.50731   0.50945   0.51792
 Alpha virt. eigenvalues --    0.51866   0.52068   0.52558   0.52794   0.53202
 Alpha virt. eigenvalues --    0.53869   0.54009   0.54153   0.55042   0.55329
 Alpha virt. eigenvalues --    0.55703   0.56142   0.56652   0.56918   0.57529
 Alpha virt. eigenvalues --    0.58045   0.58182   0.58478   0.59238   0.59613
 Alpha virt. eigenvalues --    0.59644   0.60120   0.60859   0.61661   0.61926
 Alpha virt. eigenvalues --    0.62173   0.62330   0.62864   0.62916   0.63559
 Alpha virt. eigenvalues --    0.63643   0.64268   0.65116   0.65491   0.66104
 Alpha virt. eigenvalues --    0.66504   0.66812   0.67184   0.67667   0.67953
 Alpha virt. eigenvalues --    0.68570   0.69012   0.69345   0.69954   0.70362
 Alpha virt. eigenvalues --    0.70768   0.71547   0.71615   0.72246   0.72357
 Alpha virt. eigenvalues --    0.72960   0.73773   0.74076   0.74398   0.74518
 Alpha virt. eigenvalues --    0.74909   0.75174   0.75292   0.75558   0.75995
 Alpha virt. eigenvalues --    0.76321   0.76887   0.77066   0.77503   0.77639
 Alpha virt. eigenvalues --    0.78210   0.78755   0.79143   0.79510   0.80086
 Alpha virt. eigenvalues --    0.80395   0.80719   0.80990   0.81491   0.81978
 Alpha virt. eigenvalues --    0.82159   0.82635   0.82943   0.83292   0.83732
 Alpha virt. eigenvalues --    0.84576   0.84908   0.85242   0.85449   0.85857
 Alpha virt. eigenvalues --    0.86549   0.86787   0.87254   0.87592   0.88138
 Alpha virt. eigenvalues --    0.88581   0.88852   0.89319   0.89610   0.89968
 Alpha virt. eigenvalues --    0.90404   0.90920   0.91509   0.92199   0.92506
 Alpha virt. eigenvalues --    0.92890   0.93219   0.93974   0.94725   0.95368
 Alpha virt. eigenvalues --    0.95654   0.95890   0.96571   0.96662   0.97137
 Alpha virt. eigenvalues --    0.97318   0.97823   0.98222   0.98641   0.99148
 Alpha virt. eigenvalues --    0.99470   1.00308   1.00827   1.01270   1.01488
 Alpha virt. eigenvalues --    1.02172   1.02383   1.03199   1.03334   1.03926
 Alpha virt. eigenvalues --    1.04385   1.04994   1.05450   1.06107   1.06504
 Alpha virt. eigenvalues --    1.06882   1.07697   1.08055   1.08539   1.09303
 Alpha virt. eigenvalues --    1.09587   1.09673   1.10519   1.10933   1.11977
 Alpha virt. eigenvalues --    1.12170   1.12847   1.13473   1.13513   1.14058
 Alpha virt. eigenvalues --    1.14337   1.14654   1.15619   1.15887   1.16469
 Alpha virt. eigenvalues --    1.16897   1.17110   1.17652   1.18113   1.18543
 Alpha virt. eigenvalues --    1.18741   1.18754   1.19491   1.19810   1.20117
 Alpha virt. eigenvalues --    1.20769   1.21117   1.21281   1.21787   1.22338
 Alpha virt. eigenvalues --    1.22656   1.22731   1.23713   1.23823   1.24356
 Alpha virt. eigenvalues --    1.24876   1.25377   1.25859   1.25997   1.26766
 Alpha virt. eigenvalues --    1.26933   1.27735   1.28043   1.28305   1.29041
 Alpha virt. eigenvalues --    1.29566   1.30108   1.30449   1.30817   1.31129
 Alpha virt. eigenvalues --    1.31859   1.32245   1.33557   1.33947   1.34642
 Alpha virt. eigenvalues --    1.34879   1.35302   1.35800   1.36052   1.37190
 Alpha virt. eigenvalues --    1.38635   1.39282   1.39963   1.40083   1.40816
 Alpha virt. eigenvalues --    1.41694   1.41956   1.42446   1.42795   1.45302
 Alpha virt. eigenvalues --    1.45895   1.46171   1.47052   1.47477   1.48171
 Alpha virt. eigenvalues --    1.48846   1.49468   1.50387   1.52466   1.52835
 Alpha virt. eigenvalues --    1.52984   1.53366   1.53521   1.54532   1.54968
 Alpha virt. eigenvalues --    1.55361   1.56348   1.57319   1.57867   1.58299
 Alpha virt. eigenvalues --    1.58971   1.60015   1.61120   1.61584   1.61936
 Alpha virt. eigenvalues --    1.62442   1.63165   1.63870   1.64325   1.65161
 Alpha virt. eigenvalues --    1.65652   1.65841   1.66566   1.66752   1.67515
 Alpha virt. eigenvalues --    1.67800   1.68137   1.69125   1.69453   1.70132
 Alpha virt. eigenvalues --    1.70612   1.71459   1.71887   1.72089   1.72667
 Alpha virt. eigenvalues --    1.73071   1.73751   1.73994   1.74277   1.74659
 Alpha virt. eigenvalues --    1.74890   1.75265   1.75607   1.76115   1.76356
 Alpha virt. eigenvalues --    1.76461   1.77444   1.77594   1.77692   1.78026
 Alpha virt. eigenvalues --    1.78478   1.78612   1.79066   1.79471   1.79546
 Alpha virt. eigenvalues --    1.80301   1.80613   1.80656   1.80997   1.81469
 Alpha virt. eigenvalues --    1.81825   1.82041   1.82648   1.83250   1.84248
 Alpha virt. eigenvalues --    1.84645   1.84928   1.85314   1.85684   1.85905
 Alpha virt. eigenvalues --    1.86354   1.87134   1.87204   1.87896   1.88466
 Alpha virt. eigenvalues --    1.88677   1.88974   1.89266   1.89775   1.90063
 Alpha virt. eigenvalues --    1.90859   1.91569   1.91888   1.92300   1.92827
 Alpha virt. eigenvalues --    1.93050   1.93895   1.95073   1.95346   1.95775
 Alpha virt. eigenvalues --    1.96847   1.97389   1.97914   1.99048   1.99452
 Alpha virt. eigenvalues --    1.99847   2.00407   2.01173   2.01972   2.02535
 Alpha virt. eigenvalues --    2.03051   2.03214   2.04183   2.04459   2.04956
 Alpha virt. eigenvalues --    2.05509   2.06499   2.07036   2.07627   2.07880
 Alpha virt. eigenvalues --    2.08392   2.09247   2.09618   2.09940   2.11273
 Alpha virt. eigenvalues --    2.12074   2.12611   2.14794   2.15043   2.15260
 Alpha virt. eigenvalues --    2.16131   2.16644   2.17566   2.17976   2.19285
 Alpha virt. eigenvalues --    2.19838   2.20159   2.21111   2.21721   2.22237
 Alpha virt. eigenvalues --    2.22442   2.23017   2.23679   2.24121   2.24706
 Alpha virt. eigenvalues --    2.25370   2.25809   2.26489   2.27338   2.27478
 Alpha virt. eigenvalues --    2.28075   2.28373   2.29177   2.29610   2.30465
 Alpha virt. eigenvalues --    2.30770   2.32202   2.32624   2.32847   2.33174
 Alpha virt. eigenvalues --    2.33661   2.33819   2.34217   2.34599   2.35078
 Alpha virt. eigenvalues --    2.35442   2.36873   2.37304   2.37640   2.37720
 Alpha virt. eigenvalues --    2.38906   2.40089   2.40679   2.41319   2.41653
 Alpha virt. eigenvalues --    2.42867   2.43278   2.43603   2.44156   2.45128
 Alpha virt. eigenvalues --    2.45409   2.45799   2.45913   2.46567   2.47803
 Alpha virt. eigenvalues --    2.48397   2.49419   2.50198   2.51476   2.51673
 Alpha virt. eigenvalues --    2.53162   2.54703   2.55457   2.56047   2.56752
 Alpha virt. eigenvalues --    2.57184   2.58575   2.59590   2.61392   2.61756
 Alpha virt. eigenvalues --    2.62359   2.62856   2.63035   2.63915   2.64619
 Alpha virt. eigenvalues --    2.64874   2.65529   2.65651   2.65889   2.66818
 Alpha virt. eigenvalues --    2.68174   2.69048   2.69296   2.69866   2.70367
 Alpha virt. eigenvalues --    2.70835   2.71368   2.72160   2.72473   2.73960
 Alpha virt. eigenvalues --    2.74430   2.75070   2.75239   2.77146   2.77678
 Alpha virt. eigenvalues --    2.78258   2.78537   2.78729   2.79777   2.79861
 Alpha virt. eigenvalues --    2.80108   2.80873   2.81315   2.81743   2.81907
 Alpha virt. eigenvalues --    2.82798   2.83382   2.83807   2.84281   2.85245
 Alpha virt. eigenvalues --    2.85872   2.86491   2.86746   2.87057   2.87337
 Alpha virt. eigenvalues --    2.88070   2.88636   2.89878   2.93043   2.94595
 Alpha virt. eigenvalues --    2.95748   2.97232   2.98352   2.99494   2.99768
 Alpha virt. eigenvalues --    3.02012   3.02887   3.03731   3.04681   3.06259
 Alpha virt. eigenvalues --    3.08056   3.10177   3.11233   3.12821   3.14722
 Alpha virt. eigenvalues --    3.16138   3.16351   3.17470   3.19816   3.21012
 Alpha virt. eigenvalues --    3.21236   3.23899   3.24252   3.24535   3.27984
 Alpha virt. eigenvalues --    3.44887   3.47096   3.47747   3.49180   3.50996
 Alpha virt. eigenvalues --    3.53060   3.54852   3.56510   3.58279   3.60304
 Alpha virt. eigenvalues --    3.64052   3.71350   3.75955
          Condensed to atoms (all electrons):
 Mulliken charges:
               1
     1  N   -0.299187
     2  C    0.187585
     3  C    0.053031
     4  N   -0.239851
     5  C    0.139764
     6  H    0.025023
     7  N   -0.286505
     8  C    0.124169
     9  H    0.006584
    10  N   -0.274458
    11  C    0.231242
    12  C    0.071341
    13  N   -0.046058
    14  H    0.115223
    15  H    0.085876
    16  H    0.027741
    17  H    0.035098
    18  H    0.007960
    19  N   -0.299821
    20  C    0.245599
    21  C    0.186114
    22  N   -0.117813
    23  H    0.118796
    24  H    0.119515
    25  N   -0.294242
    26  C    0.228095
    27  N   -0.130809
    28  H    0.121153
    29  C    0.178893
    30  O   -0.320011
    31  C   -0.007609
    32  N   -0.210016
    33  C    0.103172
    34  H    0.020753
    35  H   -0.000692
    36  H    0.036078
    37  H    0.028296
    38  H    0.034859
    39  H    0.052748
    40  H    0.076008
    41  H    0.019040
    42  C   -0.105467
    43  O   -0.275261
    44  C    0.172529
    45  H    0.128179
    46  N   -0.109682
    47  O   -0.347674
    48  C    0.321493
    49  H    0.044559
    50  C    0.165538
    51  C    0.056913
    52  N   -0.269311
    53  H    0.037845
    54  H    0.043496
    55  H    0.029788
    56  H    0.126451
    57  H    0.118659
    58  N   -0.050807
    59  C    0.093916
    60  C    0.217014
    61  N   -0.267083
    62  H    0.028331
    63  C    0.166070
    64  N   -0.304788
    65  H    0.038324
    66  C    0.133273
    67  N   -0.254747
    68  C    0.043516
    69  C    0.177367
    70  N   -0.311127
 Sum of Mulliken charges =  -0.00000
 Mulliken charges with hydrogens summed into heavy atoms:
               1
     1  N   -0.299187
     2  C    0.258385
     3  C    0.053031
     4  N   -0.239851
     5  C    0.164786
     7  N   -0.286505
     8  C    0.130753
    10  N   -0.274458
    11  C    0.231242
    12  C    0.071341
    13  N    0.155041
    19  N   -0.299821
    20  C    0.245599
    21  C    0.249795
    22  N    0.120498
    25  N   -0.294242
    26  C    0.228095
    27  N   -0.009655
    29  C    0.178893
    30  O   -0.320011
    31  C   -0.007609
    32  N   -0.210016
    33  C    0.123926
    42  C   -0.086427
    43  O   -0.275261
    44  C    0.172529
    46  N    0.018496
    47  O   -0.347674
    48  C    0.321493
    50  C    0.210097
    51  C    0.220529
    52  N   -0.269311
    58  N    0.194302
    59  C    0.093916
    60  C    0.217014
    61  N   -0.267083
    63  C    0.194401
    64  N   -0.304788
    66  C    0.171597
    67  N   -0.254747
    68  C    0.043516
    69  C    0.288496
    70  N   -0.311127
 Electronic spatial extent (au):  <R**2>=          22438.7498
 Charge=             -0.0000 electrons
 Dipole moment (field-independent basis, Debye):
    X=             -4.9584    Y=              5.7974    Z=             -5.2786  Tot=              9.2768
 Quadrupole moment (field-independent basis, Debye-Ang):
   XX=           -146.5235   YY=           -224.0999   ZZ=           -263.3998
   XY=            -10.4730   XZ=             -2.6068   YZ=             -1.2957
 Traceless Quadrupole moment (field-independent basis, Debye-Ang):
   XX=             64.8175   YY=            -12.7588   ZZ=            -52.0587
   XY=            -10.4730   XZ=             -2.6068   YZ=             -1.2957
 Octapole moment (field-independent basis, Debye-Ang**2):
  XXX=             84.7163  YYY=             30.6410  ZZZ=            -60.7256  XYY=            -49.3612
  XXY=             98.4321  XXZ=            -97.0359  XZZ=            -61.0197  YZZ=             53.9782
  YYZ=            -22.5197  XYZ=             41.9687
 Hexadecapole moment (field-independent basis, Debye-Ang**3):
 XXXX=         -16973.9135 YYYY=          -3497.5836 ZZZZ=          -3871.9755 XXXY=           -770.1383
 XXXZ=            311.2353 YYYX=            139.5638 YYYZ=           -194.9185 ZZZX=             88.4350
 ZZZY=             24.6057 XXYY=          -3971.7790 XXZZ=          -4053.7570 YYZZ=          -1242.9626
 XXYZ=           -131.2389 YYXZ=            -69.5101 ZZXY=            -79.7260
 N-N= 5.582056420777D+03 E-N=-1.594445290175D+04  KE= 2.037801824081D+03
 No NMR shielding tensors so no spin-rotation constants.
 Leave Link  601 at Wed Jan 17 19:44:37 2018, MaxMem=  4294967296 cpu:              48.6 elap:               1.7
 (Enter /share/apps/g16/l9999.exe)
 1\1\GINC-COMPUTE-0-3\SP\RwB97XD\CC-pVDZ\C23H27N17O3\SATYA\17-Jan-2018\
 0\\#p wb97xd/cc-pvdz sp scf=(maxcycles=20)\\Base pair stacking\\0,1\N,
 0,0.15,2.87913,-6.47105\C,0,-0.38417,4.25104,-6.57363\C,0,0.32691,0.68
 882,-6.37851\N,0,1.61598,1.18766,-6.25948\C,0,1.45781,2.48728,-6.32\H,
 0,2.26842,3.21401,-6.25909\N,0,-1.51883,-0.77238,-6.52372\C,0,-2.27857
 ,0.32155,-6.6407\H,0,-3.34665,0.13671,-6.74702\N,0,-1.91873,1.60349,-6
 .64603\C,0,-0.58743,1.71951,-6.50964\C,0,-0.18313,-0.62217,-6.38803\N,
 0,0.57694,-1.71296,-6.27112\H,0,1.57023,-1.6491,-6.1686\H,0,0.17962,-2
 .63066,-6.28203\H,0,0.01691,4.70786,-7.36775\H,0,-1.37774,4.2158,-6.67
 715\H,0,-0.15495,4.76299,-5.74576\N,0,-0.65189,3.41471,-3.26456\C,0,-1
 .1701,2.14211,-3.26328\C,0,-1.44241,4.65826,-3.36129\N,0,-3.90752,0.00
 905,-3.39872\H,0,-4.07668,-0.97598,-3.38065\H,0,-4.70699,0.60537,-3.47
 605\N,0,-2.478,1.8165,-3.34948\C,0,-2.6648,0.50883,-3.32272\N,0,-1.649
 77,-0.41127,-3.21948\H,0,-1.88585,-1.39161,-3.20649\C,0,-0.29692,-0.09
 89,-3.12957\O,0,0.53984,-1.00582,-3.03986\C,0,-0.08052,1.30228,-3.1570
 5\N,0,1.09802,2.03292,-3.09292\C,0,0.71082,3.27783,-3.16\H,0,1.38025,4
 .13842,-3.13738\H,0,-1.16651,5.16812,-4.17537\H,0,-2.4129,4.42961,-3.4
 2565\H,0,-1.28627,5.21852,-2.54856\H,0,-3.66613,-6.11171,-3.84208\H,0,
 -3.53812,-6.1735,-2.08582\H,0,-3.90341,-4.64632,-2.88935\H,0,1.06526,-
 6.81609,-3.32784\C,0,0.33777,-6.0084,-3.2464\O,0,1.96827,-4.28642,-3.3
 0466\C,0,0.79548,-4.65262,-3.23206\H,0,0.07817,-2.73965,-3.11248\N,0,-
 0.20628,-3.70899,-3.12585\O,0,-2.36816,-3.03769,-2.94466\C,0,-1.55588,
 -3.94134,-3.03565\H,0,-1.3717,-7.28007,-3.16654\C,0,-0.97234,-6.26675,
 -3.16\C,0,-3.35058,-5.57109,-2.96218\N,0,-1.91863,-5.27371,-3.05609\H,
 0,-5.22363,-7.76113,-6.86174\H,0,-5.18844,-6.44276,-5.90113\H,0,-5.094
 69,-7.93392,-5.24405\H,0,1.72189,-5.20598,-6.31721\H,0,1.35749,-6.8659
 5,-6.46493\N,0,1.03083,-5.92854,-6.33931\C,0,-0.26881,-5.65527,-6.2072
 4\C,0,-2.58252,-6.19621,-6.08142\N,0,-2.99231,-4.92795,-5.91402\H,0,-2
 .19548,-3.04465,-5.77681\C,0,-1.95122,-4.09789,-5.90822\N,0,-0.64881,-
 4.36965,-6.04035\H,0,-2.85074,-9.40213,-6.40123\C,0,-2.49597,-8.37428,
 -6.32\N,0,-1.23757,-8.01324,-6.38132\C,0,-1.27837,-6.63462,-6.23142\C,
 0,-4.83532,-7.36927,-6.02768\N,0,-3.36441,-7.32548,-6.1396\\Version=EM
 64L-G16RevA.03\State=1-A\HF=-2048.7469368\RMSD=7.342e-09\Dipole=-3.326
 5241,-1.4497508,-0.3915224\Quadrupole=-15.8858033,45.3918849,-29.50608
 16,15.5807371,-13.6386574,-0.0126043\PG=C01 [X(C23H27N17O3)]\\@


 IF THERE IS ONE WAY BETTER THAN ANOTHER IT IS THE WAY OF NATURE.

                          -- ARISTOTLE
 Job cpu time:       0 days  6 hours 26 minutes 48.0 seconds.
 Elapsed time:       0 days  0 hours 12 minutes 34.9 seconds.
 File lengths (MBytes):  RWF=    298 Int=      0 D2E=      0 Chk=     33 Scr=      1
 Normal termination of Gaussian 16 at Wed Jan 17 19:44:38 2018.
