 Entering Gaussian System, Link 0=g16
 Input=str10.15.-1.0.com
 Output=str10.15.-1.0.log
 Initial command:
 /share/apps/g16/l1.exe "/state/partition1/scr/Gau-719.inp" -scrdir="/state/partition1/scr/"
 Entering Link 1 = /share/apps/g16/l1.exe PID=       720.
  
 Copyright (c) 1988,1990,1992,1993,1995,1998,2003,2009,2016,
            Gaussian, Inc.  All Rights Reserved.
  
 This is part of the Gaussian(R) 16 program.  It is based on
 the Gaussian(R) 09 system (copyright 2009, Gaussian, Inc.),
 the Gaussian(R) 03 system (copyright 2003, Gaussian, Inc.),
 the Gaussian(R) 98 system (copyright 1998, Gaussian, Inc.),
 the Gaussian(R) 94 system (copyright 1995, Gaussian, Inc.),
 the Gaussian 92(TM) system (copyright 1992, Gaussian, Inc.),
 the Gaussian 90(TM) system (copyright 1990, Gaussian, Inc.),
 the Gaussian 88(TM) system (copyright 1988, Gaussian, Inc.),
 the Gaussian 86(TM) system (copyright 1986, Carnegie Mellon
 University), and the Gaussian 82(TM) system (copyright 1983,
 Carnegie Mellon University). Gaussian is a federally registered
 trademark of Gaussian, Inc.
  
 This software contains proprietary and confidential information,
 including trade secrets, belonging to Gaussian, Inc.
  
 This software is provided under written license and may be
 used, copied, transmitted, or stored only in accord with that
 written license.
  
 The following legend is applicable only to US Government
 contracts under FAR:
  
                    RESTRICTED RIGHTS LEGEND
  
 Use, reproduction and disclosure by the US Government is
 subject to restrictions as set forth in subparagraphs (a)
 and (c) of the Commercial Computer Software - Restricted
 Rights clause in FAR 52.227-19.
  
 Gaussian, Inc.
 340 Quinnipiac St., Bldg. 40, Wallingford CT 06492
  
  
 ---------------------------------------------------------------
 Warning -- This program may not be used in any manner that
 competes with the business of Gaussian, Inc. or will provide
 assistance to any competitor of Gaussian, Inc.  The licensee
 of this program is prohibited from giving any competitor of
 Gaussian, Inc. access to this program.  By using this program,
 the user acknowledges that Gaussian, Inc. is engaged in the
 business of creating and licensing software in the field of
 computational chemistry and represents and warrants to the
 licensee that it is not a competitor of Gaussian, Inc. and that
 it will not use this program in any manner prohibited above.
 ---------------------------------------------------------------
  

 Cite this work as:
 Gaussian 16, Revision A.03,
 M. J. Frisch, G. W. Trucks, H. B. Schlegel, G. E. Scuseria, 
 M. A. Robb, J. R. Cheeseman, G. Scalmani, V. Barone, 
 G. A. Petersson, H. Nakatsuji, X. Li, M. Caricato, A. V. Marenich, 
 J. Bloino, B. G. Janesko, R. Gomperts, B. Mennucci, H. P. Hratchian, 
 J. V. Ortiz, A. F. Izmaylov, J. L. Sonnenberg, D. Williams-Young, 
 F. Ding, F. Lipparini, F. Egidi, J. Goings, B. Peng, A. Petrone, 
 T. Henderson, D. Ranasinghe, V. G. Zakrzewski, J. Gao, N. Rega, 
 G. Zheng, W. Liang, M. Hada, M. Ehara, K. Toyota, R. Fukuda, 
 J. Hasegawa, M. Ishida, T. Nakajima, Y. Honda, O. Kitao, H. Nakai, 
 T. Vreven, K. Throssell, J. A. Montgomery, Jr., J. E. Peralta, 
 F. Ogliaro, M. J. Bearpark, J. J. Heyd, E. N. Brothers, K. N. Kudin, 
 V. N. Staroverov, T. A. Keith, R. Kobayashi, J. Normand, 
 K. Raghavachari, A. P. Rendell, J. C. Burant, S. S. Iyengar, 
 J. Tomasi, M. Cossi, J. M. Millam, M. Klene, C. Adamo, R. Cammi, 
 J. W. Ochterski, R. L. Martin, K. Morokuma, O. Farkas, 
 J. B. Foresman, and D. J. Fox, Gaussian, Inc., Wallingford CT, 2016.
 
 ******************************************
 Gaussian 16:  EM64L-G16RevA.03 25-Dec-2016
                18-Jan-2018 
 ******************************************
 %nprocshared=32
 Will use up to   32 processors via shared memory.
 %mem=32GB
 %chk=allatoms_t.chk
 ---------------------------------------
 #p wb97xd/cc-pvdz sp scf=(maxcycles=20)
 ---------------------------------------
 1/38=1,172=1/1;
 2/12=2,17=6,18=5,40=1/2;
 3/5=16,11=2,25=1,30=1,74=-58/1,2,3;
 4//1;
 5/5=2,7=20,38=5/2;
 6/7=2,8=2,9=2,10=2,28=1/1;
 99/5=1,9=1/99;
 Leave Link    1 at Thu Jan 18 02:48:56 2018, MaxMem=  4294967296 cpu:               2.7 elap:               0.1
 (Enter /share/apps/g16/l101.exe)
 ------------------
 Base pair stacking
 ------------------
 Symbolic Z-matrix:
 Charge =  0 Multiplicity = 1
 N                     2.78057   7.59917  -6.28143 
 C                     2.40716   8.94877  -6.74742 
 C                     2.82226   5.42841  -5.9302 
 N                     3.90326   5.95442  -5.23775 
 C                     3.83488   7.24117  -5.47707 
 H                     4.53415   7.98209  -5.08849 
 N                     1.23918   3.93354  -6.83694 
 C                     0.66761   5.00174  -7.40247 
 H                    -0.21728   4.7928   -8.00212 
 N                     1.02333   6.28327  -7.33879 
 C                     2.12089   6.43014  -6.57839 
 C                     2.34197   4.11447  -6.07786 
 N                     2.91396   3.0494   -5.51249 
 H                     3.73178   3.13643  -4.94258 
 H                     2.5447    2.12868  -5.63927 
 H                     3.15907   9.33935  -7.2787 
 H                     1.59046   8.89015  -7.32074 
 H                     2.21804   9.53517  -5.95979 
 N                     0.04224   5.89218  -3.46665 
 C                    -0.46424   4.61907  -3.5702 
 C                    -0.69163   7.13189  -3.79107 
 N                    -3.08383   2.47891  -4.35708 
 H                    -3.2561    1.49425  -4.36112 
 H                    -3.83405   3.07198  -4.65061 
 N                    -1.7074    4.2894   -3.98241 
 C                    -1.9003    2.98236  -3.97537 
 N                    -0.94979   2.06653  -3.59418 
 H                    -1.1854    1.08635  -3.62042 
 C                     0.3358    2.38313  -3.16653 
 O                     1.11758   1.47987  -2.84453 
 C                     0.5579    3.78368  -3.16874 
 N                     1.68342   4.51757  -2.82016 
 C                     1.33171   5.75998  -3.01229 
 H                     1.97645   6.62199  -2.83757 
 H                    -0.21361   7.62363  -4.51804 
 H                    -1.61392   6.90022  -4.09761 
 H                    -0.74726   7.71069  -2.97822 
 H                    -2.76235  -3.64992  -4.58674 
 H                    -3.09029  -3.67168  -2.85566 
 H                    -3.23036  -2.16372  -3.75997 
 H                     1.67491  -4.33454  -2.85798 
 C                     0.95434  -3.52643  -2.98433 
 O                     2.55226  -1.80349  -2.65994 
 C                     1.39869  -2.16991  -2.88309 
 H                     0.68279  -0.25592  -2.99465 
 N                     0.40726  -1.2258   -3.05904 
 O                    -1.72572  -0.55418  -3.45468 
 C                    -0.92115  -1.4583   -3.31363 
 H                    -0.72356  -4.79883  -3.3182 
 C                    -0.33504  -3.78495  -3.23185 
 C                    -2.68128  -3.08897  -3.66758 
 N                    -1.27206  -2.7914   -3.39687 
 H                    -2.04028  -3.11058  -8.35608 
 H                    -2.43868  -1.71209  -7.61608 
 H                    -2.72397  -3.1378   -6.87444 
 H                     3.82736  -0.41709  -4.69801 
 H                     3.53087  -2.08872  -4.86494 
 N                     3.21348  -1.1487   -4.99473 
 C                     2.02425  -0.88365  -5.5394 
 C                    -0.07105  -1.44476  -6.51746 
 N                    -0.47118  -0.17274  -6.67952 
 H                     0.21432   1.72665  -6.32879 
 C                     0.45915   0.66956  -6.23463 
 N                     1.65087   0.40606  -5.68878 
 H                    -0.24705  -4.66995  -6.65658 
 C                     0.05412  -3.63392  -6.49887 
 N                     1.1923   -3.26155  -5.96636 
 C                     1.12581  -1.87581  -5.97225 
 C                    -2.09742  -2.64095  -7.47507 
 N                    -0.75898  -2.58595  -6.85574 
 
 ITRead=  0  0  0  0  0  0  0  0  0  0  0  0  0  0  0  0  0  0  0  0
 ITRead=  0  0  0  0  0  0  0  0  0  0  0  0  0  0  0  0  0  0  0  0
 ITRead=  0  0  0  0  0  0  0  0  0  0  0  0  0  0  0  0  0  0  0  0
 ITRead=  0  0  0  0  0  0  0  0  0  0
 MicOpt= -1 -1 -1 -1 -1 -1 -1 -1 -1 -1 -1 -1 -1 -1 -1 -1 -1 -1 -1 -1
 MicOpt= -1 -1 -1 -1 -1 -1 -1 -1 -1 -1 -1 -1 -1 -1 -1 -1 -1 -1 -1 -1
 MicOpt= -1 -1 -1 -1 -1 -1 -1 -1 -1 -1 -1 -1 -1 -1 -1 -1 -1 -1 -1 -1
 MicOpt= -1 -1 -1 -1 -1 -1 -1 -1 -1 -1
 NAtoms=     70 NQM=       70 NQMF=       0 NMMI=      0 NMMIF=      0
                NMic=       0 NMicF=      0.
                    Isotopes and Nuclear Properties:
 (Nuclear quadrupole moments (NQMom) in fm**2, nuclear magnetic moments (NMagM)
  in nuclear magnetons)

  Atom         1           2           3           4           5           6           7           8           9          10
 IAtWgt=          14          12          12          14          12           1          14          12           1          14
 AtmWgt=  14.0030740  12.0000000  12.0000000  14.0030740  12.0000000   1.0078250  14.0030740  12.0000000   1.0078250  14.0030740
 NucSpn=           2           0           0           2           0           1           2           0           1           2
 AtZEff=  -0.0000000  -0.0000000  -0.0000000  -0.0000000  -0.0000000  -0.0000000  -0.0000000  -0.0000000  -0.0000000  -0.0000000
 NQMom=    2.0440000   0.0000000   0.0000000   2.0440000   0.0000000   0.0000000   2.0440000   0.0000000   0.0000000   2.0440000
 NMagM=    0.4037610   0.0000000   0.0000000   0.4037610   0.0000000   2.7928460   0.4037610   0.0000000   2.7928460   0.4037610
 AtZNuc=   7.0000000   6.0000000   6.0000000   7.0000000   6.0000000   1.0000000   7.0000000   6.0000000   1.0000000   7.0000000

  Atom        11          12          13          14          15          16          17          18          19          20
 IAtWgt=          12          12          14           1           1           1           1           1          14          12
 AtmWgt=  12.0000000  12.0000000  14.0030740   1.0078250   1.0078250   1.0078250   1.0078250   1.0078250  14.0030740  12.0000000
 NucSpn=           0           0           2           1           1           1           1           1           2           0
 AtZEff=  -0.0000000  -0.0000000  -0.0000000  -0.0000000  -0.0000000  -0.0000000  -0.0000000  -0.0000000  -0.0000000  -0.0000000
 NQMom=    0.0000000   0.0000000   2.0440000   0.0000000   0.0000000   0.0000000   0.0000000   0.0000000   2.0440000   0.0000000
 NMagM=    0.0000000   0.0000000   0.4037610   2.7928460   2.7928460   2.7928460   2.7928460   2.7928460   0.4037610   0.0000000
 AtZNuc=   6.0000000   6.0000000   7.0000000   1.0000000   1.0000000   1.0000000   1.0000000   1.0000000   7.0000000   6.0000000

  Atom        21          22          23          24          25          26          27          28          29          30
 IAtWgt=          12          14           1           1          14          12          14           1          12          16
 AtmWgt=  12.0000000  14.0030740   1.0078250   1.0078250  14.0030740  12.0000000  14.0030740   1.0078250  12.0000000  15.9949146
 NucSpn=           0           2           1           1           2           0           2           1           0           0
 AtZEff=  -0.0000000  -0.0000000  -0.0000000  -0.0000000  -0.0000000  -0.0000000  -0.0000000  -0.0000000  -0.0000000  -0.0000000
 NQMom=    0.0000000   2.0440000   0.0000000   0.0000000   2.0440000   0.0000000   2.0440000   0.0000000   0.0000000   0.0000000
 NMagM=    0.0000000   0.4037610   2.7928460   2.7928460   0.4037610   0.0000000   0.4037610   2.7928460   0.0000000   0.0000000
 AtZNuc=   6.0000000   7.0000000   1.0000000   1.0000000   7.0000000   6.0000000   7.0000000   1.0000000   6.0000000   8.0000000

  Atom        31          32          33          34          35          36          37          38          39          40
 IAtWgt=          12          14          12           1           1           1           1           1           1           1
 AtmWgt=  12.0000000  14.0030740  12.0000000   1.0078250   1.0078250   1.0078250   1.0078250   1.0078250   1.0078250   1.0078250
 NucSpn=           0           2           0           1           1           1           1           1           1           1
 AtZEff=  -0.0000000  -0.0000000  -0.0000000  -0.0000000  -0.0000000  -0.0000000  -0.0000000  -0.0000000  -0.0000000  -0.0000000
 NQMom=    0.0000000   2.0440000   0.0000000   0.0000000   0.0000000   0.0000000   0.0000000   0.0000000   0.0000000   0.0000000
 NMagM=    0.0000000   0.4037610   0.0000000   2.7928460   2.7928460   2.7928460   2.7928460   2.7928460   2.7928460   2.7928460
 AtZNuc=   6.0000000   7.0000000   6.0000000   1.0000000   1.0000000   1.0000000   1.0000000   1.0000000   1.0000000   1.0000000

  Atom        41          42          43          44          45          46          47          48          49          50
 IAtWgt=           1          12          16          12           1          14          16          12           1          12
 AtmWgt=   1.0078250  12.0000000  15.9949146  12.0000000   1.0078250  14.0030740  15.9949146  12.0000000   1.0078250  12.0000000
 NucSpn=           1           0           0           0           1           2           0           0           1           0
 AtZEff=  -0.0000000  -0.0000000  -0.0000000  -0.0000000  -0.0000000  -0.0000000  -0.0000000  -0.0000000  -0.0000000  -0.0000000
 NQMom=    0.0000000   0.0000000   0.0000000   0.0000000   0.0000000   2.0440000   0.0000000   0.0000000   0.0000000   0.0000000
 NMagM=    2.7928460   0.0000000   0.0000000   0.0000000   2.7928460   0.4037610   0.0000000   0.0000000   2.7928460   0.0000000
 AtZNuc=   1.0000000   6.0000000   8.0000000   6.0000000   1.0000000   7.0000000   8.0000000   6.0000000   1.0000000   6.0000000

  Atom        51          52          53          54          55          56          57          58          59          60
 IAtWgt=          12          14           1           1           1           1           1          14          12          12
 AtmWgt=  12.0000000  14.0030740   1.0078250   1.0078250   1.0078250   1.0078250   1.0078250  14.0030740  12.0000000  12.0000000
 NucSpn=           0           2           1           1           1           1           1           2           0           0
 AtZEff=  -0.0000000  -0.0000000  -0.0000000  -0.0000000  -0.0000000  -0.0000000  -0.0000000  -0.0000000  -0.0000000  -0.0000000
 NQMom=    0.0000000   2.0440000   0.0000000   0.0000000   0.0000000   0.0000000   0.0000000   2.0440000   0.0000000   0.0000000
 NMagM=    0.0000000   0.4037610   2.7928460   2.7928460   2.7928460   2.7928460   2.7928460   0.4037610   0.0000000   0.0000000
 AtZNuc=   6.0000000   7.0000000   1.0000000   1.0000000   1.0000000   1.0000000   1.0000000   7.0000000   6.0000000   6.0000000

  Atom        61          62          63          64          65          66          67          68          69          70
 IAtWgt=          14           1          12          14           1          12          14          12          12          14
 AtmWgt=  14.0030740   1.0078250  12.0000000  14.0030740   1.0078250  12.0000000  14.0030740  12.0000000  12.0000000  14.0030740
 NucSpn=           2           1           0           2           1           0           2           0           0           2
 AtZEff=  -0.0000000  -0.0000000  -0.0000000  -0.0000000  -0.0000000  -0.0000000  -0.0000000  -0.0000000  -0.0000000  -0.0000000
 NQMom=    2.0440000   0.0000000   0.0000000   2.0440000   0.0000000   0.0000000   2.0440000   0.0000000   0.0000000   2.0440000
 NMagM=    0.4037610   2.7928460   0.0000000   0.4037610   2.7928460   0.0000000   0.4037610   0.0000000   0.0000000   0.4037610
 AtZNuc=   7.0000000   1.0000000   6.0000000   7.0000000   1.0000000   6.0000000   7.0000000   6.0000000   6.0000000   7.0000000
 Leave Link  101 at Thu Jan 18 02:48:56 2018, MaxMem=  4294967296 cpu:               7.6 elap:               0.3
 (Enter /share/apps/g16/l202.exe)
 Stoichiometry    C23H27N17O3
 Framework group  C1[X(C23H27N17O3)]
 Deg. of freedom   204
 Full point group                 C1      NOp   1
 Largest Abelian subgroup         C1      NOp   1
 Largest concise Abelian subgroup C1      NOp   1
                         Standard orientation:                         
 ---------------------------------------------------------------------
 Center     Atomic      Atomic             Coordinates (Angstroms)
 Number     Number       Type             X           Y           Z
 ---------------------------------------------------------------------
      1          7           0       -6.310591   -1.266054    0.350178
      2          6           0       -7.585861   -0.888420    0.989772
      3          6           0       -4.175044   -1.603862   -0.053089
      4          7           0       -4.857168   -2.048285   -1.176446
      5          6           0       -6.116456   -1.826984   -0.888530
      6          1           0       -6.953024   -2.055833   -1.549376
      7          7           0       -2.461204   -1.059060    1.472984
      8          6           0       -3.428922   -0.627032    2.288117
      9          1           0       -3.089236   -0.230792    3.244085
     10          7           0       -4.747056   -0.611055    2.100558
     11          6           0       -5.057591   -1.118957    0.896390
     12          6           0       -2.806135   -1.564501    0.268561
     13          7           0       -1.841568   -1.996272   -0.546531
     14          1           0       -2.050848   -2.378004   -1.447467
     15          1           0       -0.877395   -1.952917   -0.284537
     16          1           0       -8.165950   -1.697706    1.083223
     17          1           0       -7.404782   -0.503071    1.894121
     18          1           0       -8.054661   -0.207609    0.426997
     19          7           0       -3.849786    2.057768   -0.759730
     20          6           0       -2.511670    2.150089   -0.461439
     21          6           0       -4.931471    2.783943   -0.064516
     22          7           0        0.056690    3.481217    1.460367
     23          1           0        1.052043    3.406666    1.514793
     24          1           0       -0.388789    4.094067    2.113578
     25          7           0       -1.964596    2.913542    0.509074
     26          6           0       -0.649813    2.790794    0.552580
     27          7           0        0.075620    1.982748   -0.289042
     28          1           0        1.078011    1.951184   -0.183357
     29          6           0       -0.466309    1.188564   -1.294750
     30          8           0        0.277248    0.495146   -1.999758
     31          6           0       -1.877933    1.309851   -1.353736
     32          7           0       -2.799644    0.702269   -2.195277
     33          6           0       -3.952903    1.174802   -1.806816
     34          1           0       -4.913364    0.911577   -2.251233
     35          1           0       -5.568877    2.128796    0.339579
     36          1           0       -4.538243    3.352824    0.656596
     37          1           0       -5.418634    3.363797   -0.716643
     38          1           0        5.945341    1.747078    1.272746
     39          1           0        6.174210    2.881181   -0.056196
     40          1           0        4.660694    2.879362    0.849676
     41          1           0        5.827703   -1.259464   -2.481379
     42          6           0        5.179896   -0.540644   -1.979510
     43          8           0        3.193772   -1.338322   -3.002312
     44          6           0        3.773230   -0.563676   -2.241433
     45          1           0        2.047682    0.402221   -1.714325
     46          7           0        3.045276    0.387338   -1.555219
     47          8           0        2.802997    2.125343   -0.113745
     48          6           0        3.528078    1.322315   -0.674159
     49          1           0        6.742749    0.418576   -0.891757
     50          6           0        5.680501    0.359421   -1.125183
     51          6           0        5.455665    2.261504    0.459311
     52          7           0        4.893904    1.281184   -0.474032
     53          1           0        4.965786   -0.620704    4.180370
     54          1           0        3.745151    0.390611    3.793859
     55          1           0        5.253988    0.685824    3.245836
     56          1           0        1.412738   -3.118814   -1.836345
     57          1           0        3.090475   -3.321899   -1.603809
     58          7           0        2.229842   -2.913623   -1.297474
     59          6           0        2.175316   -2.130476   -0.218173
     60          6           0        3.079909   -0.986314    1.661810
     61          7           0        1.910292   -0.451671    2.049825
     62          1           0       -0.055677   -0.432680    1.470853
     63          6           0        0.931314   -0.823721    1.227578
     64          7           0        0.983906   -1.608024    0.146059
     65          1           0        6.249127   -1.618720    1.752901
     66          6           0        5.189226   -1.564173    1.502765
     67          7           0        4.632078   -2.170193    0.482959
     68          6           0        3.294698   -1.812154    0.572137
     69          6           0        4.590838   -0.029611    3.466214
     70          7           0        4.308329   -0.830035    2.258934
 ---------------------------------------------------------------------
 Rotational constants (GHZ):           0.1693473           0.0512955           0.0490551
 Leave Link  202 at Thu Jan 18 02:48:56 2018, MaxMem=  4294967296 cpu:               4.4 elap:               0.2
 (Enter /share/apps/g16/l301.exe)
 Standard basis: CC-pVDZ (5D, 7F)
 Ernie: Thresh=  0.10000D-02 Tol=  0.10000D-05 Strict=F.
 Ernie:  86 primitive shells out of 1081 were deleted.
 There are   780 symmetry adapted cartesian basis functions of A   symmetry.
 There are   737 symmetry adapted basis functions of A   symmetry.
   737 basis functions,  1608 primitive gaussians,   780 cartesian basis functions
   154 alpha electrons      154 beta electrons
       nuclear repulsion energy      5543.0864907057 Hartrees.
 IExCor= 4639 DFT=T Ex+Corr=wB97XD ExCW=0 ScaHFX=  1.000000
 ScaDFX=  1.000000  1.000000  1.000000  1.000000 ScalE2=  1.000000  1.000000
 IRadAn=      5 IRanWt=     -1 IRanGd=            0 ICorTp=0 IEmpDi=121
 HFx  wShort=  0.000000 wLong=  0.200000 cFull=  0.222036 cShort=  0.000000 cLong=  0.777964
 DFx  wShort=  0.000000 wLong=  0.200000 cFull=  0.000000 cShort=  0.000000 cLong=  1.000000
 NAtoms=   70 NActive=   70 NUniq=   70 SFac= 1.00D+00 NAtFMM=   60 NAOKFM=T Big=T
 Integral buffers will be    131072 words long.
 Raffenetti 2 integral format.
 Two-electron integral symmetry is turned on.
 R6Disp:  Grimme-D2 Dispersion energy=       -0.0739964032 Hartrees.
 Nuclear repulsion after empirical dispersion term =     5543.0124943024 Hartrees.
 Leave Link  301 at Thu Jan 18 02:48:56 2018, MaxMem=  4294967296 cpu:               2.2 elap:               0.1
 (Enter /share/apps/g16/l302.exe)
 NPDir=0 NMtPBC=     1 NCelOv=     1 NCel=       1 NClECP=     1 NCelD=      1
         NCelK=      1 NCelE2=     1 NClLst=     1 CellRange=     0.0.
 One-electron integrals computed using PRISM.
 One-electron integral symmetry used in STVInt
 NBasis=   737 RedAO= T EigKep=  7.04D-04  NBF=   737
 NBsUse=   737 1.00D-06 EigRej= -1.00D+00 NBFU=   737
 Precomputing XC quadrature grid using
 IXCGrd= 4 IRadAn=           5 IRanWt=          -1 IRanGd=           0 AccXCQ= 0.00D+00.
 Generated NRdTot=       0 NPtTot=           0 NUsed=           0 NTot=          32
 NSgBfM=   762   761   762   762   762 MxSgAt=    70 MxSgA2=    70.
 Leave Link  302 at Thu Jan 18 02:49:01 2018, MaxMem=  4294967296 cpu:             135.8 elap:               4.3
 (Enter /share/apps/g16/l303.exe)
 DipDrv:  MaxL=1.
 Leave Link  303 at Thu Jan 18 02:49:01 2018, MaxMem=  4294967296 cpu:              12.5 elap:               0.4
 (Enter /share/apps/g16/l401.exe)
 ExpMin= 1.22D-01 ExpMax= 1.17D+04 ExpMxC= 4.01D+02 IAcc=3 IRadAn=         5 AccDes= 0.00D+00
 Harris functional with IExCor= 4639 and IRadAn=       5 diagonalized for initial guess.
 HarFok:  IExCor= 4639 AccDes= 0.00D+00 IRadAn=         5 IDoV= 1 UseB2=F ITyADJ=14
 ICtDFT=  3500011 ScaDFX=  1.000000  1.000000  1.000000  1.000000
 FoFCou: FMM=F IPFlag=           0 FMFlag=      100000 FMFlg1=        2001
         NFxFlg=           0 DoJE=T BraDBF=F KetDBF=T FulRan=T
         wScrn=  0.000000 ICntrl=       500 IOpCl=  0 I1Cent=   200000004 NGrid=           0
         NMat0=    1 NMatS0=      1 NMatT0=    0 NMatD0=    1 NMtDS0=    0 NMtDT0=    0
 Petite list used in FoFCou.
 Harris En= -1963.87749261669    
 JPrj=0 DoOrth=F DoCkMO=F.
 Leave Link  401 at Thu Jan 18 02:49:14 2018, MaxMem=  4294967296 cpu:             417.1 elap:              13.2
 (Enter /share/apps/g16/l502.exe)
 Integral symmetry usage will be decided dynamically.
 Closed shell SCF:
 Using DIIS extrapolation, IDIIS=  1040.
 NGot=  4294967296 LenX=  4293717438 LenY=  4293108258
 Requested convergence on RMS density matrix=1.00D-08 within  20 cycles.
 Requested convergence on MAX density matrix=1.00D-06.
 Requested convergence on             energy=1.00D-06.
 No special actions if energy rises.
 Fock matrices will be formed incrementally for  20 cycles.
 Integral accuracy reduced to 1.0D-05 until final iterations.

 Cycle   1  Pass 0  IDiag  1:
 FoFJK:  IHMeth= 1 ICntrl=       0 DoSepK=T KAlg= 0 I1Cent=           0 FoldK=F
 IRaf=         1 NMat=       1 IRICut=       1 DoRegI=T DoRafI=F ISym2E= 0 IDoP0=0 IntGTp=1.
 FoFCou: FMM=T IPFlag=           0 FMFlag=      100000 FMFlg1=        2001
         NFxFlg=           0 DoJE=T BraDBF=F KetDBF=F FulRan=T
         wScrn=  0.000000 ICntrl=       500 IOpCl=  0 I1Cent=           0 NGrid=           0
         NMat0=    1 NMatS0=      1 NMatT0=    0 NMatD0=    1 NMtDS0=    0 NMtDT0=    0
 Symmetry not used in FoFCou.
 FMM levels:  10  Number of levels for PrismC:   9
 E= -2048.30554107986    
 DIIS: error= 1.67D-02 at cycle   1 NSaved=   1.
 NSaved= 1 IEnMin= 1 EnMin= -2048.30554107986     IErMin= 1 ErrMin= 1.67D-02
 ErrMax= 1.67D-02  0.00D+00 EMaxC= 1.00D-01 BMatC= 8.38D-01 BMatP= 8.38D-01
 IDIUse=3 WtCom= 8.33D-01 WtEn= 1.67D-01
 Coeff-Com:  0.100D+01
 Coeff-En:   0.100D+01
 Coeff:      0.100D+01
 Gap=     0.254 Goal=   None    Shift=    0.000
 GapD=    0.254 DampG=1.000 DampE=0.500 DampFc=0.5000 IDamp=-1.
 Damping current iteration by 5.00D-01
 RMSDP=1.60D-03 MaxDP=1.14D-01              OVMax= 1.94D-01

 Cycle   2  Pass 0  IDiag  1:
 RMSU=  8.01D-04    CP:  9.97D-01
 E= -2048.50128608242     Delta-E=       -0.195745002566 Rises=F Damp=T
 DIIS: error= 9.31D-03 at cycle   2 NSaved=   2.
 NSaved= 2 IEnMin= 2 EnMin= -2048.50128608242     IErMin= 2 ErrMin= 9.31D-03
 ErrMax= 9.31D-03  0.00D+00 EMaxC= 1.00D-01 BMatC= 1.47D-01 BMatP= 8.38D-01
 IDIUse=3 WtCom= 9.07D-01 WtEn= 9.31D-02
 Coeff-Com: -0.177D+00 0.118D+01
 Coeff-En:   0.000D+00 0.100D+01
 Coeff:     -0.161D+00 0.116D+01
 Gap=     0.362 Goal=   None    Shift=    0.000
 RMSDP=6.03D-04 MaxDP=3.28D-02 DE=-1.96D-01 OVMax= 1.65D-01

 Cycle   3  Pass 0  IDiag  1:
 RMSU=  5.98D-04    CP:  9.94D-01  1.08D+00
 E= -2048.67779245856     Delta-E=       -0.176506376134 Rises=F Damp=F
 DIIS: error= 7.87D-03 at cycle   3 NSaved=   3.
 NSaved= 3 IEnMin= 3 EnMin= -2048.67779245856     IErMin= 3 ErrMin= 7.87D-03
 ErrMax= 7.87D-03  0.00D+00 EMaxC= 1.00D-01 BMatC= 7.30D-02 BMatP= 1.47D-01
 IDIUse=3 WtCom= 9.21D-01 WtEn= 7.87D-02
 Coeff-Com: -0.234D+00 0.564D+00 0.670D+00
 Coeff-En:   0.000D+00 0.000D+00 0.100D+01
 Coeff:     -0.216D+00 0.520D+00 0.696D+00
 Gap=     0.279 Goal=   None    Shift=    0.000
 RMSDP=3.95D-04 MaxDP=2.69D-02 DE=-1.77D-01 OVMax= 6.61D-02

 Cycle   4  Pass 0  IDiag  1:
 RMSU=  2.18D-04    CP:  9.94D-01  1.39D+00  6.42D-01
 E= -2048.73318639654     Delta-E=       -0.055393937983 Rises=F Damp=F
 DIIS: error= 3.70D-03 at cycle   4 NSaved=   4.
 NSaved= 4 IEnMin= 4 EnMin= -2048.73318639654     IErMin= 4 ErrMin= 3.70D-03
 ErrMax= 3.70D-03  0.00D+00 EMaxC= 1.00D-01 BMatC= 1.08D-02 BMatP= 7.30D-02
 IDIUse=3 WtCom= 9.63D-01 WtEn= 3.70D-02
 Coeff-Com: -0.969D-01 0.188D+00 0.377D+00 0.532D+00
 Coeff-En:   0.000D+00 0.000D+00 0.815D-01 0.918D+00
 Coeff:     -0.934D-01 0.181D+00 0.366D+00 0.547D+00
 Gap=     0.283 Goal=   None    Shift=    0.000
 RMSDP=1.38D-04 MaxDP=1.10D-02 DE=-5.54D-02 OVMax= 1.78D-02

 Cycle   5  Pass 0  IDiag  1:
 RMSU=  6.14D-05    CP:  9.94D-01  1.36D+00  7.87D-01  6.17D-01
 E= -2048.74228906011     Delta-E=       -0.009102663563 Rises=F Damp=F
 DIIS: error= 4.76D-04 at cycle   5 NSaved=   5.
 NSaved= 5 IEnMin= 5 EnMin= -2048.74228906011     IErMin= 5 ErrMin= 4.76D-04
 ErrMax= 4.76D-04  0.00D+00 EMaxC= 1.00D-01 BMatC= 3.12D-04 BMatP= 1.08D-02
 IDIUse=3 WtCom= 9.95D-01 WtEn= 4.76D-03
 Coeff-Com: -0.243D-01 0.413D-01 0.117D+00 0.237D+00 0.629D+00
 Coeff-En:   0.000D+00 0.000D+00 0.000D+00 0.000D+00 0.100D+01
 Coeff:     -0.241D-01 0.411D-01 0.117D+00 0.236D+00 0.630D+00
 Gap=     0.284 Goal=   None    Shift=    0.000
 RMSDP=2.77D-05 MaxDP=1.83D-03 DE=-9.10D-03 OVMax= 3.29D-03

 Failed to achieve initial convergence to 1.0D-08 in  6 cycles.
 Switch to full accuracy anyway.
 Cycle   6  Pass 1  IDiag  1:
 E= -2048.74252446812     Delta-E=       -0.000235408012 Rises=F Damp=F
 DIIS: error= 2.20D-04 at cycle   1 NSaved=   1.
 NSaved= 1 IEnMin= 1 EnMin= -2048.74252446812     IErMin= 1 ErrMin= 2.20D-04
 ErrMax= 2.20D-04  0.00D+00 EMaxC= 1.00D-01 BMatC= 7.62D-05 BMatP= 7.62D-05
 IDIUse=3 WtCom= 9.98D-01 WtEn= 2.20D-03
 Coeff-Com:  0.100D+01
 Coeff-En:   0.100D+01
 Coeff:      0.100D+01
 Gap=     0.284 Goal=   None    Shift=    0.000
 RMSDP=2.77D-05 MaxDP=1.83D-03 DE=-2.35D-04 OVMax= 2.03D-03

 Cycle   7  Pass 1  IDiag  1:
 RMSU=  1.07D-04    CP:  1.00D+00
 E= -2048.74257862288     Delta-E=       -0.000054154763 Rises=F Damp=F
 DIIS: error= 2.22D-04 at cycle   2 NSaved=   2.
 NSaved= 2 IEnMin= 2 EnMin= -2048.74257862288     IErMin= 1 ErrMin= 2.20D-04
 ErrMax= 2.22D-04  0.00D+00 EMaxC= 1.00D-01 BMatC= 4.66D-05 BMatP= 7.62D-05
 IDIUse=3 WtCom= 9.98D-01 WtEn= 2.22D-03
 Coeff-Com:  0.418D+00 0.582D+00
 Coeff-En:   0.000D+00 0.100D+01
 Coeff:      0.417D+00 0.583D+00
 Gap=     0.284 Goal=   None    Shift=    0.000
 RMSDP=1.18D-05 MaxDP=1.12D-03 DE=-5.42D-05 OVMax= 1.40D-03

 Cycle   8  Pass 1  IDiag  1:
 RMSU=  1.15D-05    CP:  1.00D+00  1.02D+00
 E= -2048.74261261463     Delta-E=       -0.000033991753 Rises=F Damp=F
 DIIS: error= 8.54D-05 at cycle   3 NSaved=   3.
 NSaved= 3 IEnMin= 3 EnMin= -2048.74261261463     IErMin= 3 ErrMin= 8.54D-05
 ErrMax= 8.54D-05  0.00D+00 EMaxC= 1.00D-01 BMatC= 1.02D-05 BMatP= 4.66D-05
 IDIUse=1 WtCom= 1.00D+00 WtEn= 0.00D+00
 Coeff-Com: -0.184D-01 0.304D+00 0.714D+00
 Coeff:     -0.184D-01 0.304D+00 0.714D+00
 Gap=     0.284 Goal=   None    Shift=    0.000
 RMSDP=5.67D-06 MaxDP=4.69D-04 DE=-3.40D-05 OVMax= 6.11D-04

 Cycle   9  Pass 1  IDiag  1:
 RMSU=  3.90D-06    CP:  1.00D+00  1.05D+00  7.69D-01
 E= -2048.74262211619     Delta-E=       -0.000009501555 Rises=F Damp=F
 DIIS: error= 3.58D-05 at cycle   4 NSaved=   4.
 NSaved= 4 IEnMin= 4 EnMin= -2048.74262211619     IErMin= 4 ErrMin= 3.58D-05
 ErrMax= 3.58D-05  0.00D+00 EMaxC= 1.00D-01 BMatC= 5.42D-07 BMatP= 1.02D-05
 IDIUse=1 WtCom= 1.00D+00 WtEn= 0.00D+00
 Coeff-Com: -0.319D-01 0.845D-01 0.267D+00 0.680D+00
 Coeff:     -0.319D-01 0.845D-01 0.267D+00 0.680D+00
 Gap=     0.284 Goal=   None    Shift=    0.000
 RMSDP=1.52D-06 MaxDP=1.07D-04 DE=-9.50D-06 OVMax= 3.99D-04

 Cycle  10  Pass 1  IDiag  1:
 RMSU=  1.36D-06    CP:  1.00D+00  1.05D+00  8.02D-01  1.11D+00
 E= -2048.74262301339     Delta-E=       -0.000000897201 Rises=F Damp=F
 DIIS: error= 1.07D-05 at cycle   5 NSaved=   5.
 NSaved= 5 IEnMin= 5 EnMin= -2048.74262301339     IErMin= 5 ErrMin= 1.07D-05
 ErrMax= 1.07D-05  0.00D+00 EMaxC= 1.00D-01 BMatC= 1.38D-07 BMatP= 5.42D-07
 IDIUse=1 WtCom= 1.00D+00 WtEn= 0.00D+00
 Coeff-Com: -0.446D-02-0.506D-01-0.114D+00 0.226D+00 0.943D+00
 Coeff:     -0.446D-02-0.506D-01-0.114D+00 0.226D+00 0.943D+00
 Gap=     0.284 Goal=   None    Shift=    0.000
 RMSDP=1.23D-06 MaxDP=6.93D-05 DE=-8.97D-07 OVMax= 1.99D-04

 Cycle  11  Pass 1  IDiag  1:
 RMSU=  5.13D-07    CP:  1.00D+00  1.05D+00  8.10D-01  1.39D+00  1.16D+00
 E= -2048.74262329326     Delta-E=       -0.000000279871 Rises=F Damp=F
 DIIS: error= 7.65D-06 at cycle   6 NSaved=   6.
 NSaved= 6 IEnMin= 6 EnMin= -2048.74262329326     IErMin= 6 ErrMin= 7.65D-06
 ErrMax= 7.65D-06  0.00D+00 EMaxC= 1.00D-01 BMatC= 3.21D-08 BMatP= 1.38D-07
 IDIUse=1 WtCom= 1.00D+00 WtEn= 0.00D+00
 Coeff-Com:  0.475D-02-0.443D-01-0.120D+00 0.102D-02 0.509D+00 0.649D+00
 Coeff:      0.475D-02-0.443D-01-0.120D+00 0.102D-02 0.509D+00 0.649D+00
 Gap=     0.284 Goal=   None    Shift=    0.000
 RMSDP=4.16D-07 MaxDP=2.46D-05 DE=-2.80D-07 OVMax= 1.05D-04

 Cycle  12  Pass 1  IDiag  1:
 RMSU=  1.96D-07    CP:  1.00D+00  1.05D+00  8.12D-01  1.47D+00  1.29D+00
                    CP:  9.35D-01
 E= -2048.74262334158     Delta-E=       -0.000000048321 Rises=F Damp=F
 DIIS: error= 1.39D-06 at cycle   7 NSaved=   7.
 NSaved= 7 IEnMin= 7 EnMin= -2048.74262334158     IErMin= 7 ErrMin= 1.39D-06
 ErrMax= 1.39D-06  0.00D+00 EMaxC= 1.00D-01 BMatC= 9.71D-10 BMatP= 3.21D-08
 IDIUse=1 WtCom= 1.00D+00 WtEn= 0.00D+00
 Coeff-Com:  0.134D-02-0.877D-02-0.256D-01-0.707D-02 0.744D-01 0.160D+00
 Coeff-Com:  0.806D+00
 Coeff:      0.134D-02-0.877D-02-0.256D-01-0.707D-02 0.744D-01 0.160D+00
 Coeff:      0.806D+00
 Gap=     0.284 Goal=   None    Shift=    0.000
 RMSDP=8.87D-08 MaxDP=4.44D-06 DE=-4.83D-08 OVMax= 1.86D-05

 Cycle  13  Pass 1  IDiag  1:
 RMSU=  5.48D-08    CP:  1.00D+00  1.05D+00  8.11D-01  1.48D+00  1.31D+00
                    CP:  1.02D+00  1.13D+00
 E= -2048.74262334301     Delta-E=       -0.000000001430 Rises=F Damp=F
 DIIS: error= 6.41D-07 at cycle   8 NSaved=   8.
 NSaved= 8 IEnMin= 8 EnMin= -2048.74262334301     IErMin= 8 ErrMin= 6.41D-07
 ErrMax= 6.41D-07  0.00D+00 EMaxC= 1.00D-01 BMatC= 3.72D-10 BMatP= 9.71D-10
 IDIUse=1 WtCom= 1.00D+00 WtEn= 0.00D+00
 Coeff-Com: -0.719D-03 0.860D-02 0.217D-01-0.170D-02-0.111D+00-0.106D+00
 Coeff-Com:  0.400D+00 0.790D+00
 Coeff:     -0.719D-03 0.860D-02 0.217D-01-0.170D-02-0.111D+00-0.106D+00
 Coeff:      0.400D+00 0.790D+00
 Gap=     0.284 Goal=   None    Shift=    0.000
 RMSDP=5.31D-08 MaxDP=2.45D-06 DE=-1.43D-09 OVMax= 1.02D-05

 Cycle  14  Pass 1  IDiag  1:
 RMSU=  2.86D-08    CP:  1.00D+00  1.05D+00  8.11D-01  1.48D+00  1.32D+00
                    CP:  1.07D+00  1.29D+00  1.08D+00
 E= -2048.74262334385     Delta-E=       -0.000000000838 Rises=F Damp=F
 DIIS: error= 2.16D-07 at cycle   9 NSaved=   9.
 NSaved= 9 IEnMin= 9 EnMin= -2048.74262334385     IErMin= 9 ErrMin= 2.16D-07
 ErrMax= 2.16D-07  0.00D+00 EMaxC= 1.00D-01 BMatC= 3.22D-11 BMatP= 3.72D-10
 IDIUse=1 WtCom= 1.00D+00 WtEn= 0.00D+00
 Coeff-Com: -0.437D-03 0.451D-02 0.117D-01 0.266D-03-0.533D-01-0.609D-01
 Coeff-Com:  0.787D-01 0.305D+00 0.715D+00
 Coeff:     -0.437D-03 0.451D-02 0.117D-01 0.266D-03-0.533D-01-0.609D-01
 Coeff:      0.787D-01 0.305D+00 0.715D+00
 Gap=     0.284 Goal=   None    Shift=    0.000
 RMSDP=1.45D-08 MaxDP=6.53D-07 DE=-8.38D-10 OVMax= 2.81D-06

 Cycle  15  Pass 1  IDiag  1:
 RMSU=  9.56D-09    CP:  1.00D+00  1.05D+00  8.11D-01  1.48D+00  1.32D+00
                    CP:  1.07D+00  1.32D+00  1.21D+00  1.13D+00
 E= -2048.74262334391     Delta-E=       -0.000000000056 Rises=F Damp=F
 DIIS: error= 7.62D-08 at cycle  10 NSaved=  10.
 NSaved=10 IEnMin=10 EnMin= -2048.74262334391     IErMin=10 ErrMin= 7.62D-08
 ErrMax= 7.62D-08  0.00D+00 EMaxC= 1.00D-01 BMatC= 4.91D-12 BMatP= 3.22D-11
 IDIUse=1 WtCom= 1.00D+00 WtEn= 0.00D+00
 Coeff-Com:  0.438D-05-0.285D-03-0.635D-03 0.167D-03 0.508D-02 0.168D-02
 Coeff-Com: -0.477D-01-0.600D-01 0.244D+00 0.857D+00
 Coeff:      0.438D-05-0.285D-03-0.635D-03 0.167D-03 0.508D-02 0.168D-02
 Coeff:     -0.477D-01-0.600D-01 0.244D+00 0.857D+00
 Gap=     0.284 Goal=   None    Shift=    0.000
 RMSDP=6.73D-09 MaxDP=2.88D-07 DE=-5.64D-11 OVMax= 1.25D-06

 SCF Done:  E(RwB97XD) =  -2048.74262334     A.U. after   15 cycles
            NFock= 15  Conv=0.67D-08     -V/T= 2.0054
 KE= 2.037789290069D+03 PE=-1.586715942771D+04 EE= 6.237615019997D+03
 Leave Link  502 at Thu Jan 18 03:00:55 2018, MaxMem=  4294967296 cpu:           21650.7 elap:             700.6
 (Enter /share/apps/g16/l601.exe)
 Copying SCF densities to generalized density rwf, IOpCl= 0 IROHF=0.

 **********************************************************************

            Population analysis using the SCF density.

 **********************************************************************

 Orbital symmetries:
       Occupied  (A) (A) (A) (A) (A) (A) (A) (A) (A) (A) (A) (A)
                 (A) (A) (A) (A) (A) (A) (A) (A) (A) (A) (A) (A)
                 (A) (A) (A) (A) (A) (A) (A) (A) (A) (A) (A) (A)
                 (A) (A) (A) (A) (A) (A) (A) (A) (A) (A) (A) (A)
                 (A) (A) (A) (A) (A) (A) (A) (A) (A) (A) (A) (A)
                 (A) (A) (A) (A) (A) (A) (A) (A) (A) (A) (A) (A)
                 (A) (A) (A) (A) (A) (A) (A) (A) (A) (A) (A) (A)
                 (A) (A) (A) (A) (A) (A) (A) (A) (A) (A) (A) (A)
                 (A) (A) (A) (A) (A) (A) (A) (A) (A) (A) (A) (A)
                 (A) (A) (A) (A) (A) (A) (A) (A) (A) (A) (A) (A)
                 (A) (A) (A) (A) (A) (A) (A) (A) (A) (A) (A) (A)
                 (A) (A) (A) (A) (A) (A) (A) (A) (A) (A) (A) (A)
                 (A) (A) (A) (A) (A) (A) (A) (A) (A) (A)
       Virtual   (A) (A) (A) (A) (A) (A) (A) (A) (A) (A) (A) (A)
                 (A) (A) (A) (A) (A) (A) (A) (A) (A) (A) (A) (A)
                 (A) (A) (A) (A) (A) (A) (A) (A) (A) (A) (A) (A)
                 (A) (A) (A) (A) (A) (A) (A) (A) (A) (A) (A) (A)
                 (A) (A) (A) (A) (A) (A) (A) (A) (A) (A) (A) (A)
                 (A) (A) (A) (A) (A) (A) (A) (A) (A) (A) (A) (A)
                 (A) (A) (A) (A) (A) (A) (A) (A) (A) (A) (A) (A)
                 (A) (A) (A) (A) (A) (A) (A) (A) (A) (A) (A) (A)
                 (A) (A) (A) (A) (A) (A) (A) (A) (A) (A) (A) (A)
                 (A) (A) (A) (A) (A) (A) (A) (A) (A) (A) (A) (A)
                 (A) (A) (A) (A) (A) (A) (A) (A) (A) (A) (A) (A)
                 (A) (A) (A) (A) (A) (A) (A) (A) (A) (A) (A) (A)
                 (A) (A) (A) (A) (A) (A) (A) (A) (A) (A) (A) (A)
                 (A) (A) (A) (A) (A) (A) (A) (A) (A) (A) (A) (A)
                 (A) (A) (A) (A) (A) (A) (A) (A) (A) (A) (A) (A)
                 (A) (A) (A) (A) (A) (A) (A) (A) (A) (A) (A) (A)
                 (A) (A) (A) (A) (A) (A) (A) (A) (A) (A) (A) (A)
                 (A) (A) (A) (A) (A) (A) (A) (A) (A) (A) (A) (A)
                 (A) (A) (A) (A) (A) (A) (A) (A) (A) (A) (A) (A)
                 (A) (A) (A) (A) (A) (A) (A) (A) (A) (A) (A) (A)
                 (A) (A) (A) (A) (A) (A) (A) (A) (A) (A) (A) (A)
                 (A) (A) (A) (A) (A) (A) (A) (A) (A) (A) (A) (A)
                 (A) (A) (A) (A) (A) (A) (A) (A) (A) (A) (A) (A)
                 (A) (A) (A) (A) (A) (A) (A) (A) (A) (A) (A) (A)
                 (A) (A) (A) (A) (A) (A) (A) (A) (A) (A) (A) (A)
                 (A) (A) (A) (A) (A) (A) (A) (A) (A) (A) (A) (A)
                 (A) (A) (A) (A) (A) (A) (A) (A) (A) (A) (A) (A)
                 (A) (A) (A) (A) (A) (A) (A) (A) (A) (A) (A) (A)
                 (A) (A) (A) (A) (A) (A) (A) (A) (A) (A) (A) (A)
                 (A) (A) (A) (A) (A) (A) (A) (A) (A) (A) (A) (A)
                 (A) (A) (A) (A) (A) (A) (A) (A) (A) (A) (A) (A)
                 (A) (A) (A) (A) (A) (A) (A) (A) (A) (A) (A) (A)
                 (A) (A) (A) (A) (A) (A) (A) (A) (A) (A) (A) (A)
                 (A) (A) (A) (A) (A) (A) (A) (A) (A) (A) (A) (A)
                 (A) (A) (A) (A) (A) (A) (A) (A) (A) (A) (A) (A)
                 (A) (A) (A) (A) (A) (A) (A) (A) (A) (A) (A) (A)
                 (A) (A) (A) (A) (A) (A) (A) (A) (A) (A) (A) (A)
                 (A) (A) (A) (A) (A) (A) (A) (A) (A) (A) (A) (A)
                 (A) (A) (A) (A) (A) (A) (A) (A) (A) (A) (A) (A)
                 (A) (A) (A) (A) (A) (A) (A) (A) (A) (A) (A) (A)
                 (A) (A) (A) (A) (A) (A) (A) (A) (A) (A) (A) (A)
                 (A) (A) (A) (A) (A) (A) (A) (A) (A) (A) (A) (A)
                 (A) (A) (A) (A) (A) (A) (A) (A) (A) (A) (A) (A)
                 (A) (A) (A) (A) (A) (A) (A) (A) (A) (A) (A) (A)
                 (A) (A) (A) (A) (A) (A) (A) (A) (A) (A) (A) (A)
                 (A) (A) (A) (A) (A) (A) (A) (A) (A) (A) (A) (A)
                 (A) (A) (A) (A) (A) (A) (A) (A) (A) (A) (A) (A)
                 (A) (A) (A) (A) (A) (A) (A) (A) (A) (A) (A) (A)
                 (A) (A) (A) (A) (A) (A) (A)
 The electronic state is 1-A.
 Alpha  occ. eigenvalues --  -19.25739 -19.22152 -19.20753 -14.52364 -14.51403
 Alpha  occ. eigenvalues --  -14.49556 -14.48720 -14.47682 -14.46992 -14.46688
 Alpha  occ. eigenvalues --  -14.45765 -14.44227 -14.42939 -14.42698 -14.42481
 Alpha  occ. eigenvalues --  -14.42124 -14.42012 -14.41495 -14.40789 -14.40708
 Alpha  occ. eigenvalues --  -10.45375 -10.41242 -10.39955 -10.38302 -10.38133
 Alpha  occ. eigenvalues --  -10.37226 -10.36752 -10.35913 -10.35904 -10.35639
 Alpha  occ. eigenvalues --  -10.34810 -10.34545 -10.34332 -10.34054 -10.33606
 Alpha  occ. eigenvalues --  -10.33342 -10.33267 -10.31763 -10.31246 -10.30755
 Alpha  occ. eigenvalues --  -10.30618 -10.29183 -10.28101  -1.19338  -1.14043
 Alpha  occ. eigenvalues --   -1.13257  -1.13228  -1.12107  -1.10587  -1.09248
 Alpha  occ. eigenvalues --   -1.08619  -1.07601  -1.05539  -1.03115  -1.02501
 Alpha  occ. eigenvalues --   -1.00923  -0.99777  -0.99720  -0.98546  -0.97635
 Alpha  occ. eigenvalues --   -0.96537  -0.95254  -0.93148  -0.90699  -0.86459
 Alpha  occ. eigenvalues --   -0.84953  -0.84639  -0.84069  -0.83785  -0.83008
 Alpha  occ. eigenvalues --   -0.82427  -0.78680  -0.75641  -0.74603  -0.73673
 Alpha  occ. eigenvalues --   -0.73495  -0.73413  -0.73259  -0.71635  -0.68984
 Alpha  occ. eigenvalues --   -0.67374  -0.66876  -0.66411  -0.65318  -0.64385
 Alpha  occ. eigenvalues --   -0.63733  -0.63290  -0.62755  -0.62633  -0.61732
 Alpha  occ. eigenvalues --   -0.60729  -0.60665  -0.59366  -0.59144  -0.58382
 Alpha  occ. eigenvalues --   -0.58225  -0.58037  -0.57426  -0.57035  -0.56405
 Alpha  occ. eigenvalues --   -0.55904  -0.55781  -0.55045  -0.54320  -0.54239
 Alpha  occ. eigenvalues --   -0.53663  -0.53516  -0.52906  -0.52660  -0.52529
 Alpha  occ. eigenvalues --   -0.52316  -0.51843  -0.51602  -0.51466  -0.50789
 Alpha  occ. eigenvalues --   -0.50238  -0.49670  -0.49542  -0.49175  -0.48886
 Alpha  occ. eigenvalues --   -0.48650  -0.48350  -0.47833  -0.47665  -0.47510
 Alpha  occ. eigenvalues --   -0.47466  -0.45715  -0.45453  -0.43412  -0.42725
 Alpha  occ. eigenvalues --   -0.41714  -0.39520  -0.39365  -0.37743  -0.37303
 Alpha  occ. eigenvalues --   -0.37214  -0.37189  -0.36349  -0.35817  -0.34314
 Alpha  occ. eigenvalues --   -0.34117  -0.34011  -0.33511  -0.33443  -0.32955
 Alpha  occ. eigenvalues --   -0.32725  -0.32282  -0.31913  -0.31559  -0.30986
 Alpha  occ. eigenvalues --   -0.30813  -0.27866  -0.26335  -0.25419
 Alpha virt. eigenvalues --    0.02975   0.05344   0.07324   0.07669   0.08943
 Alpha virt. eigenvalues --    0.09640   0.09824   0.10461   0.10892   0.12191
 Alpha virt. eigenvalues --    0.13394   0.13633   0.13906   0.14665   0.14859
 Alpha virt. eigenvalues --    0.16056   0.16439   0.17906   0.18064   0.18113
 Alpha virt. eigenvalues --    0.18931   0.19033   0.19315   0.20027   0.20123
 Alpha virt. eigenvalues --    0.20845   0.21079   0.21885   0.22018   0.22559
 Alpha virt. eigenvalues --    0.22589   0.22709   0.23249   0.23379   0.23515
 Alpha virt. eigenvalues --    0.23947   0.24040   0.24649   0.25627   0.26246
 Alpha virt. eigenvalues --    0.26321   0.26813   0.26978   0.27957   0.28400
 Alpha virt. eigenvalues --    0.28538   0.29387   0.29721   0.30353   0.30516
 Alpha virt. eigenvalues --    0.31367   0.31910   0.32763   0.32996   0.33846
 Alpha virt. eigenvalues --    0.34309   0.34546   0.35011   0.35759   0.36242
 Alpha virt. eigenvalues --    0.36645   0.37522   0.37746   0.38479   0.39346
 Alpha virt. eigenvalues --    0.40045   0.40825   0.41448   0.41669   0.42132
 Alpha virt. eigenvalues --    0.42145   0.42505   0.42960   0.43550   0.44033
 Alpha virt. eigenvalues --    0.44577   0.45716   0.46189   0.46330   0.46773
 Alpha virt. eigenvalues --    0.47501   0.47900   0.48077   0.49615   0.49771
 Alpha virt. eigenvalues --    0.50056   0.50250   0.50862   0.50981   0.51270
 Alpha virt. eigenvalues --    0.51667   0.52013   0.52497   0.53559   0.53722
 Alpha virt. eigenvalues --    0.53933   0.54449   0.54777   0.55236   0.55640
 Alpha virt. eigenvalues --    0.55833   0.56215   0.56463   0.57071   0.57384
 Alpha virt. eigenvalues --    0.57715   0.58011   0.59133   0.59569   0.59701
 Alpha virt. eigenvalues --    0.60422   0.60735   0.61006   0.61339   0.61657
 Alpha virt. eigenvalues --    0.61972   0.62331   0.63049   0.63316   0.64174
 Alpha virt. eigenvalues --    0.64294   0.64479   0.65018   0.65162   0.65751
 Alpha virt. eigenvalues --    0.65876   0.66007   0.66517   0.66737   0.67592
 Alpha virt. eigenvalues --    0.68228   0.68908   0.69253   0.69502   0.69960
 Alpha virt. eigenvalues --    0.70796   0.70878   0.71273   0.71328   0.72164
 Alpha virt. eigenvalues --    0.72450   0.73041   0.73289   0.73869   0.74169
 Alpha virt. eigenvalues --    0.74769   0.75028   0.75065   0.75467   0.75742
 Alpha virt. eigenvalues --    0.75973   0.76120   0.76504   0.76997   0.77405
 Alpha virt. eigenvalues --    0.77553   0.78032   0.78353   0.78911   0.79284
 Alpha virt. eigenvalues --    0.79719   0.79927   0.80064   0.80458   0.80557
 Alpha virt. eigenvalues --    0.81763   0.82093   0.82686   0.83316   0.83674
 Alpha virt. eigenvalues --    0.84014   0.84260   0.84843   0.85307   0.85626
 Alpha virt. eigenvalues --    0.85938   0.86259   0.86666   0.87404   0.87860
 Alpha virt. eigenvalues --    0.88265   0.88771   0.89331   0.89793   0.89997
 Alpha virt. eigenvalues --    0.90856   0.91058   0.91563   0.92025   0.92585
 Alpha virt. eigenvalues --    0.93258   0.93645   0.94257   0.94334   0.94929
 Alpha virt. eigenvalues --    0.95051   0.95341   0.95962   0.96384   0.96714
 Alpha virt. eigenvalues --    0.97435   0.97744   0.98321   0.98481   0.98956
 Alpha virt. eigenvalues --    0.99597   1.00045   1.00454   1.00834   1.00950
 Alpha virt. eigenvalues --    1.01488   1.01973   1.02600   1.02788   1.03656
 Alpha virt. eigenvalues --    1.03909   1.04559   1.05020   1.05071   1.05773
 Alpha virt. eigenvalues --    1.05871   1.06582   1.06670   1.07762   1.08256
 Alpha virt. eigenvalues --    1.08965   1.09705   1.10393   1.10982   1.11291
 Alpha virt. eigenvalues --    1.11346   1.12104   1.12688   1.12946   1.13419
 Alpha virt. eigenvalues --    1.14211   1.14432   1.14683   1.15426   1.16041
 Alpha virt. eigenvalues --    1.17038   1.17370   1.17416   1.18064   1.18377
 Alpha virt. eigenvalues --    1.18597   1.18899   1.19256   1.19688   1.20197
 Alpha virt. eigenvalues --    1.20683   1.21034   1.21422   1.21629   1.22103
 Alpha virt. eigenvalues --    1.22256   1.22543   1.22663   1.23692   1.23735
 Alpha virt. eigenvalues --    1.24030   1.24264   1.24698   1.25071   1.25949
 Alpha virt. eigenvalues --    1.26438   1.26936   1.27529   1.27993   1.28614
 Alpha virt. eigenvalues --    1.29633   1.30582   1.30791   1.31286   1.31968
 Alpha virt. eigenvalues --    1.32528   1.32795   1.33142   1.33806   1.34547
 Alpha virt. eigenvalues --    1.35144   1.35829   1.36576   1.37190   1.37490
 Alpha virt. eigenvalues --    1.38183   1.39353   1.40240   1.40717   1.41114
 Alpha virt. eigenvalues --    1.41412   1.42440   1.43453   1.43585   1.44410
 Alpha virt. eigenvalues --    1.45387   1.45675   1.46799   1.47364   1.48417
 Alpha virt. eigenvalues --    1.49268   1.49665   1.49745   1.50009   1.51149
 Alpha virt. eigenvalues --    1.52022   1.53067   1.53179   1.53983   1.54543
 Alpha virt. eigenvalues --    1.55343   1.55496   1.55984   1.56540   1.58229
 Alpha virt. eigenvalues --    1.58602   1.59676   1.60554   1.60818   1.61332
 Alpha virt. eigenvalues --    1.61647   1.62454   1.63325   1.63828   1.64615
 Alpha virt. eigenvalues --    1.65142   1.66008   1.66548   1.67073   1.67407
 Alpha virt. eigenvalues --    1.67981   1.68600   1.68749   1.69052   1.69731
 Alpha virt. eigenvalues --    1.70007   1.70433   1.70948   1.71151   1.71448
 Alpha virt. eigenvalues --    1.71871   1.72815   1.73087   1.73407   1.74003
 Alpha virt. eigenvalues --    1.74254   1.74880   1.75145   1.75250   1.75539
 Alpha virt. eigenvalues --    1.75818   1.76135   1.77019   1.77109   1.77506
 Alpha virt. eigenvalues --    1.78038   1.78579   1.78726   1.79066   1.79461
 Alpha virt. eigenvalues --    1.79879   1.80136   1.80425   1.80663   1.81209
 Alpha virt. eigenvalues --    1.81509   1.81776   1.82114   1.82599   1.82759
 Alpha virt. eigenvalues --    1.83115   1.83476   1.83863   1.84271   1.84737
 Alpha virt. eigenvalues --    1.85751   1.86649   1.86875   1.87284   1.87518
 Alpha virt. eigenvalues --    1.87740   1.88391   1.89184   1.89840   1.90111
 Alpha virt. eigenvalues --    1.90188   1.90955   1.91529   1.91579   1.91891
 Alpha virt. eigenvalues --    1.92523   1.93215   1.93310   1.93677   1.94445
 Alpha virt. eigenvalues --    1.95427   1.95697   1.95928   1.97174   1.97309
 Alpha virt. eigenvalues --    1.99061   1.99949   2.00701   2.00737   2.01228
 Alpha virt. eigenvalues --    2.02049   2.02385   2.02588   2.03915   2.04323
 Alpha virt. eigenvalues --    2.04816   2.05985   2.06644   2.07620   2.07980
 Alpha virt. eigenvalues --    2.08280   2.08651   2.09681   2.10247   2.10595
 Alpha virt. eigenvalues --    2.11105   2.11695   2.12485   2.12721   2.13973
 Alpha virt. eigenvalues --    2.14606   2.15180   2.17708   2.17925   2.19143
 Alpha virt. eigenvalues --    2.19711   2.20444   2.20706   2.21242   2.21745
 Alpha virt. eigenvalues --    2.22178   2.22607   2.22963   2.23478   2.24255
 Alpha virt. eigenvalues --    2.24710   2.24941   2.26064   2.26301   2.27289
 Alpha virt. eigenvalues --    2.27797   2.28192   2.28509   2.29783   2.29836
 Alpha virt. eigenvalues --    2.30219   2.30726   2.31273   2.32570   2.33063
 Alpha virt. eigenvalues --    2.33280   2.33628   2.33874   2.34389   2.34703
 Alpha virt. eigenvalues --    2.34809   2.35014   2.35956   2.36586   2.38045
 Alpha virt. eigenvalues --    2.38321   2.39977   2.40448   2.40585   2.41383
 Alpha virt. eigenvalues --    2.41985   2.43086   2.43542   2.43991   2.45022
 Alpha virt. eigenvalues --    2.45363   2.45824   2.46256   2.46578   2.47445
 Alpha virt. eigenvalues --    2.48423   2.48826   2.49682   2.49966   2.51812
 Alpha virt. eigenvalues --    2.52337   2.54331   2.55071   2.55474   2.55917
 Alpha virt. eigenvalues --    2.57040   2.58147   2.58954   2.59645   2.60094
 Alpha virt. eigenvalues --    2.60764   2.61298   2.62543   2.63430   2.64175
 Alpha virt. eigenvalues --    2.65074   2.65352   2.65774   2.66021   2.66823
 Alpha virt. eigenvalues --    2.67264   2.68266   2.68773   2.68959   2.69640
 Alpha virt. eigenvalues --    2.70707   2.71365   2.72131   2.72463   2.72661
 Alpha virt. eigenvalues --    2.74095   2.74617   2.75184   2.76103   2.76375
 Alpha virt. eigenvalues --    2.77946   2.78373   2.79070   2.79546   2.79804
 Alpha virt. eigenvalues --    2.80352   2.80910   2.81506   2.81576   2.82088
 Alpha virt. eigenvalues --    2.82370   2.82624   2.83637   2.84221   2.84700
 Alpha virt. eigenvalues --    2.85097   2.85845   2.86534   2.86852   2.87101
 Alpha virt. eigenvalues --    2.88109   2.88273   2.89534   2.91379   2.93443
 Alpha virt. eigenvalues --    2.95092   2.95443   2.97001   2.97156   2.99173
 Alpha virt. eigenvalues --    2.99679   3.00676   3.02563   3.04898   3.06222
 Alpha virt. eigenvalues --    3.07648   3.09917   3.11769   3.14122   3.14747
 Alpha virt. eigenvalues --    3.15439   3.16365   3.16784   3.18332   3.20128
 Alpha virt. eigenvalues --    3.22830   3.23218   3.23549   3.24837   3.27481
 Alpha virt. eigenvalues --    3.46334   3.47044   3.47553   3.50267   3.50798
 Alpha virt. eigenvalues --    3.52941   3.55520   3.56160   3.57656   3.60094
 Alpha virt. eigenvalues --    3.63212   3.70467   3.75203
          Condensed to atoms (all electrons):
 Mulliken charges:
               1
     1  N   -0.310807
     2  C    0.179583
     3  C    0.037041
     4  N   -0.244326
     5  C    0.119686
     6  H    0.027255
     7  N   -0.287039
     8  C    0.137173
     9  H    0.014964
    10  N   -0.291722
    11  C    0.237908
    12  C    0.094940
    13  N   -0.038648
    14  H    0.112070
    15  H    0.092976
    16  H    0.028998
    17  H    0.035876
    18  H    0.022481
    19  N   -0.305393
    20  C    0.257763
    21  C    0.183888
    22  N   -0.122689
    23  H    0.116295
    24  H    0.118660
    25  N   -0.308911
    26  C    0.244048
    27  N   -0.146606
    28  H    0.121832
    29  C    0.179121
    30  O   -0.326822
    31  C   -0.016268
    32  N   -0.227195
    33  C    0.133441
    34  H    0.023988
    35  H    0.023686
    36  H    0.030117
    37  H    0.021883
    38  H    0.046459
    39  H    0.063147
    40  H    0.076110
    41  H    0.022398
    42  C   -0.052070
    43  O   -0.277577
    44  C    0.154388
    45  H    0.135637
    46  N   -0.124052
    47  O   -0.347080
    48  C    0.345641
    49  H    0.040262
    50  C    0.157684
    51  C    0.042108
    52  N   -0.282681
    53  H    0.033309
    54  H    0.041399
    55  H    0.010979
    56  H    0.119182
    57  H    0.115908
    58  N   -0.014618
    59  C    0.092331
    60  C    0.231972
    61  N   -0.273394
    62  H    0.030577
    63  C    0.155646
    64  N   -0.303338
    65  H    0.027014
    66  C    0.116901
    67  N   -0.244366
    68  C    0.008582
    69  C    0.183322
    70  N   -0.301027
 Sum of Mulliken charges =  -0.00000
 Mulliken charges with hydrogens summed into heavy atoms:
               1
     1  N   -0.310807
     2  C    0.266938
     3  C    0.037041
     4  N   -0.244326
     5  C    0.146941
     7  N   -0.287039
     8  C    0.152137
    10  N   -0.291722
    11  C    0.237908
    12  C    0.094940
    13  N    0.166398
    19  N   -0.305393
    20  C    0.257763
    21  C    0.259574
    22  N    0.112267
    25  N   -0.308911
    26  C    0.244048
    27  N   -0.024774
    29  C    0.179121
    30  O   -0.326822
    31  C   -0.016268
    32  N   -0.227195
    33  C    0.157429
    42  C   -0.029672
    43  O   -0.277577
    44  C    0.154388
    46  N    0.011585
    47  O   -0.347080
    48  C    0.345641
    50  C    0.197946
    51  C    0.227824
    52  N   -0.282681
    58  N    0.220472
    59  C    0.092331
    60  C    0.231972
    61  N   -0.273394
    63  C    0.186222
    64  N   -0.303338
    66  C    0.143915
    67  N   -0.244366
    68  C    0.008582
    69  C    0.269009
    70  N   -0.301027
 Electronic spatial extent (au):  <R**2>=          22671.8512
 Charge=              0.0000 electrons
 Dipole moment (field-independent basis, Debye):
    X=              4.6808    Y=              4.5131    Z=              5.4960  Tot=              8.5137
 Quadrupole moment (field-independent basis, Debye-Ang):
   XX=           -144.1076   YY=           -229.0115   ZZ=           -253.2254
   XY=              6.0397   XZ=             18.7715   YZ=             10.5427
 Traceless Quadrupole moment (field-independent basis, Debye-Ang):
   XX=             64.6739   YY=            -20.2300   ZZ=            -44.4439
   XY=              6.0397   XZ=             18.7715   YZ=             10.5427
 Octapole moment (field-independent basis, Debye-Ang**2):
  XXX=            -67.3937  YYY=             46.4194  ZZZ=             84.8661  XYY=             12.2097
  XXY=             89.4583  XXZ=             58.3399  XZZ=             71.8073  YZZ=             22.7429
  YYZ=              3.9272  XYZ=             13.2652
 Hexadecapole moment (field-independent basis, Debye-Ang**3):
 XXXX=         -16152.5945 YYYY=          -4268.3416 ZZZZ=          -3447.8981 XXXY=            430.7385
 XXXZ=            440.3376 YYYX=            -10.6814 YYYZ=            270.4857 ZZZX=            275.1041
 ZZZY=             75.8957 XXYY=          -4245.5588 XXZZ=          -4087.6200 YYZZ=          -1204.3393
 XXYZ=            -24.0743 YYXZ=            -18.4120 ZZXY=            -11.4482
 N-N= 5.543012494302D+03 E-N=-1.586715942740D+04  KE= 2.037789290069D+03
 No NMR shielding tensors so no spin-rotation constants.
 Leave Link  601 at Thu Jan 18 03:00:57 2018, MaxMem=  4294967296 cpu:              47.3 elap:               1.7
 (Enter /share/apps/g16/l9999.exe)
 1\1\GINC-COMPUTE-0-3\SP\RwB97XD\CC-pVDZ\C23H27N17O3\SATYA\18-Jan-2018\
 0\\#p wb97xd/cc-pvdz sp scf=(maxcycles=20)\\Base pair stacking\\0,1\N,
 0,2.78057,7.59917,-6.28143\C,0,2.40716,8.94877,-6.74742\C,0,2.82226,5.
 42841,-5.9302\N,0,3.90326,5.95442,-5.23775\C,0,3.83488,7.24117,-5.4770
 7\H,0,4.53415,7.98209,-5.08849\N,0,1.23918,3.93354,-6.83694\C,0,0.6676
 1,5.00174,-7.40247\H,0,-0.21728,4.7928,-8.00212\N,0,1.02333,6.28327,-7
 .33879\C,0,2.12089,6.43014,-6.57839\C,0,2.34197,4.11447,-6.07786\N,0,2
 .91396,3.0494,-5.51249\H,0,3.73178,3.13643,-4.94258\H,0,2.5447,2.12868
 ,-5.63927\H,0,3.15907,9.33935,-7.2787\H,0,1.59046,8.89015,-7.32074\H,0
 ,2.21804,9.53517,-5.95979\N,0,0.04224,5.89218,-3.46665\C,0,-0.46424,4.
 61907,-3.5702\C,0,-0.69163,7.13189,-3.79107\N,0,-3.08383,2.47891,-4.35
 708\H,0,-3.2561,1.49425,-4.36112\H,0,-3.83405,3.07198,-4.65061\N,0,-1.
 7074,4.2894,-3.98241\C,0,-1.9003,2.98236,-3.97537\N,0,-0.94979,2.06653
 ,-3.59418\H,0,-1.1854,1.08635,-3.62042\C,0,0.3358,2.38313,-3.16653\O,0
 ,1.11758,1.47987,-2.84453\C,0,0.5579,3.78368,-3.16874\N,0,1.68342,4.51
 757,-2.82016\C,0,1.33171,5.75998,-3.01229\H,0,1.97645,6.62199,-2.83757
 \H,0,-0.21361,7.62363,-4.51804\H,0,-1.61392,6.90022,-4.09761\H,0,-0.74
 726,7.71069,-2.97822\H,0,-2.76235,-3.64992,-4.58674\H,0,-3.09029,-3.67
 168,-2.85566\H,0,-3.23036,-2.16372,-3.75997\H,0,1.67491,-4.33454,-2.85
 798\C,0,0.95434,-3.52643,-2.98433\O,0,2.55226,-1.80349,-2.65994\C,0,1.
 39869,-2.16991,-2.88309\H,0,0.68279,-0.25592,-2.99465\N,0,0.40726,-1.2
 258,-3.05904\O,0,-1.72572,-0.55418,-3.45468\C,0,-0.92115,-1.4583,-3.31
 363\H,0,-0.72356,-4.79883,-3.3182\C,0,-0.33504,-3.78495,-3.23185\C,0,-
 2.68128,-3.08897,-3.66758\N,0,-1.27206,-2.7914,-3.39687\H,0,-2.04028,-
 3.11058,-8.35608\H,0,-2.43868,-1.71209,-7.61608\H,0,-2.72397,-3.1378,-
 6.87444\H,0,3.82736,-0.41709,-4.69801\H,0,3.53087,-2.08872,-4.86494\N,
 0,3.21348,-1.1487,-4.99473\C,0,2.02425,-0.88365,-5.5394\C,0,-0.07105,-
 1.44476,-6.51746\N,0,-0.47118,-0.17274,-6.67952\H,0,0.21432,1.72665,-6
 .32879\C,0,0.45915,0.66956,-6.23463\N,0,1.65087,0.40606,-5.68878\H,0,-
 0.24705,-4.66995,-6.65658\C,0,0.05412,-3.63392,-6.49887\N,0,1.1923,-3.
 26155,-5.96636\C,0,1.12581,-1.87581,-5.97225\C,0,-2.09742,-2.64095,-7.
 47507\N,0,-0.75898,-2.58595,-6.85574\\Version=EM64L-G16RevA.03\State=1
 -A\HF=-2048.7426233\RMSD=6.731e-09\Dipole=-2.9619725,-1.3250177,-0.831
 0188\Quadrupole=-5.756356,42.1170818,-36.3607258,22.2519194,-4.0249822
 ,3.939219\PG=C01 [X(C23H27N17O3)]\\@


 Age does not diminish the extreme disappointment of
 having a scoop of ice cream fall from the cone.
 -- Jim Fiebig
 Job cpu time:       0 days  6 hours 11 minutes 22.8 seconds.
 Elapsed time:       0 days  0 hours 12 minutes  1.0 seconds.
 File lengths (MBytes):  RWF=    298 Int=      0 D2E=      0 Chk=     33 Scr=      1
 Normal termination of Gaussian 16 at Thu Jan 18 03:00:58 2018.
