 Entering Gaussian System, Link 0=g16
 Input=str10.-10.-0.5.com
 Output=str10.-10.-0.5.log
 Initial command:
 /share/apps/g16/l1.exe "/state/partition1/scr/Gau-2109.inp" -scrdir="/state/partition1/scr/"
 Entering Link 1 = /share/apps/g16/l1.exe PID=      2110.
  
 Copyright (c) 1988,1990,1992,1993,1995,1998,2003,2009,2016,
            Gaussian, Inc.  All Rights Reserved.
  
 This is part of the Gaussian(R) 16 program.  It is based on
 the Gaussian(R) 09 system (copyright 2009, Gaussian, Inc.),
 the Gaussian(R) 03 system (copyright 2003, Gaussian, Inc.),
 the Gaussian(R) 98 system (copyright 1998, Gaussian, Inc.),
 the Gaussian(R) 94 system (copyright 1995, Gaussian, Inc.),
 the Gaussian 92(TM) system (copyright 1992, Gaussian, Inc.),
 the Gaussian 90(TM) system (copyright 1990, Gaussian, Inc.),
 the Gaussian 88(TM) system (copyright 1988, Gaussian, Inc.),
 the Gaussian 86(TM) system (copyright 1986, Carnegie Mellon
 University), and the Gaussian 82(TM) system (copyright 1983,
 Carnegie Mellon University). Gaussian is a federally registered
 trademark of Gaussian, Inc.
  
 This software contains proprietary and confidential information,
 including trade secrets, belonging to Gaussian, Inc.
  
 This software is provided under written license and may be
 used, copied, transmitted, or stored only in accord with that
 written license.
  
 The following legend is applicable only to US Government
 contracts under FAR:
  
                    RESTRICTED RIGHTS LEGEND
  
 Use, reproduction and disclosure by the US Government is
 subject to restrictions as set forth in subparagraphs (a)
 and (c) of the Commercial Computer Software - Restricted
 Rights clause in FAR 52.227-19.
  
 Gaussian, Inc.
 340 Quinnipiac St., Bldg. 40, Wallingford CT 06492
  
  
 ---------------------------------------------------------------
 Warning -- This program may not be used in any manner that
 competes with the business of Gaussian, Inc. or will provide
 assistance to any competitor of Gaussian, Inc.  The licensee
 of this program is prohibited from giving any competitor of
 Gaussian, Inc. access to this program.  By using this program,
 the user acknowledges that Gaussian, Inc. is engaged in the
 business of creating and licensing software in the field of
 computational chemistry and represents and warrants to the
 licensee that it is not a competitor of Gaussian, Inc. and that
 it will not use this program in any manner prohibited above.
 ---------------------------------------------------------------
  

 Cite this work as:
 Gaussian 16, Revision A.03,
 M. J. Frisch, G. W. Trucks, H. B. Schlegel, G. E. Scuseria, 
 M. A. Robb, J. R. Cheeseman, G. Scalmani, V. Barone, 
 G. A. Petersson, H. Nakatsuji, X. Li, M. Caricato, A. V. Marenich, 
 J. Bloino, B. G. Janesko, R. Gomperts, B. Mennucci, H. P. Hratchian, 
 J. V. Ortiz, A. F. Izmaylov, J. L. Sonnenberg, D. Williams-Young, 
 F. Ding, F. Lipparini, F. Egidi, J. Goings, B. Peng, A. Petrone, 
 T. Henderson, D. Ranasinghe, V. G. Zakrzewski, J. Gao, N. Rega, 
 G. Zheng, W. Liang, M. Hada, M. Ehara, K. Toyota, R. Fukuda, 
 J. Hasegawa, M. Ishida, T. Nakajima, Y. Honda, O. Kitao, H. Nakai, 
 T. Vreven, K. Throssell, J. A. Montgomery, Jr., J. E. Peralta, 
 F. Ogliaro, M. J. Bearpark, J. J. Heyd, E. N. Brothers, K. N. Kudin, 
 V. N. Staroverov, T. A. Keith, R. Kobayashi, J. Normand, 
 K. Raghavachari, A. P. Rendell, J. C. Burant, S. S. Iyengar, 
 J. Tomasi, M. Cossi, J. M. Millam, M. Klene, C. Adamo, R. Cammi, 
 J. W. Ochterski, R. L. Martin, K. Morokuma, O. Farkas, 
 J. B. Foresman, and D. J. Fox, Gaussian, Inc., Wallingford CT, 2016.
 
 ******************************************
 Gaussian 16:  EM64L-G16RevA.03 25-Dec-2016
                17-Jan-2018 
 ******************************************
 %nprocshared=32
 Will use up to   32 processors via shared memory.
 %mem=32GB
 %chk=allatoms_t.chk
 ---------------------------------------
 #p wb97xd/cc-pvdz sp scf=(maxcycles=20)
 ---------------------------------------
 1/38=1,172=1/1;
 2/12=2,17=6,18=5,40=1/2;
 3/5=16,11=2,25=1,30=1,74=-58/1,2,3;
 4//1;
 5/5=2,7=20,38=5/2;
 6/7=2,8=2,9=2,10=2,28=1/1;
 99/5=1,9=1/99;
 Leave Link    1 at Wed Jan 17 20:58:16 2018, MaxMem=  4294967296 cpu:               2.7 elap:               0.1
 (Enter /share/apps/g16/l101.exe)
 ------------------
 Base pair stacking
 ------------------
 Symbolic Z-matrix:
 Charge =  0 Multiplicity = 1
 N                    -0.25312   6.89838  -6.25009 
 C                    -0.77157   8.27057  -6.0879 
 C                    -0.08618   4.70761  -6.34993 
 N                     1.17538   5.20658  -6.64011 
 C                     1.02432   6.50647  -6.56835 
 H                     1.81876   7.23337  -6.73985 
 N                    -1.89458   3.24606  -5.95429 
 C                    -2.6343    4.34021  -5.74638 
 H                    -3.67896   4.15532  -5.49988 
 N                    -2.279     5.62244  -5.79703 
 C                    -0.97721   5.7385   -6.10732 
 C                    -0.58838   3.39633  -6.2647 
 N                     0.15166   2.30533  -6.4726 
 H                     1.12288   2.36922  -6.70471 
 H                    -0.23926   1.38743  -6.40345 
 H                    -0.65266   8.77645  -6.94238 
 H                    -1.74297   8.23531  -5.85496 
 H                    -0.27164   8.73368  -5.35605 
 N                    -0.75395   5.40618  -3.09127 
 C                    -1.26667   4.13336  -3.0198 
 C                    -1.54688   6.65053  -3.03159 
 N                    -3.99064   2.00079  -2.7134 
 H                    -4.15609   1.01548  -2.68125 
 H                    -4.7903    2.59768  -2.64281 
 N                    -2.57049   3.80823  -2.88416 
 C                    -2.75244   2.50018  -2.84524 
 N                    -1.73662   1.57929  -2.93235 
 H                    -1.96884   0.59872  -2.89358 
 C                    -0.38791   1.89116  -3.07228 
 O                     0.45002   0.98354  -3.14179 
 C                    -0.17673   3.29274  -3.1156 
 N                     0.99665   4.02311  -3.2446 
 C                     0.60612   5.26863  -3.22523 
 H                     1.27112   6.12922  -3.30541 
 H                    -1.41442   7.17283  -3.87329 
 H                    -2.51438   6.42224  -2.93114 
 H                    -1.25189   7.19853  -2.24961 
 H                    -3.84126  -4.1124   -3.28364 
 H                    -3.41259  -4.20068  -1.57687 
 H                    -3.90792  -2.66176  -2.28236 
 H                     0.90656  -4.82135  -3.60328 
 C                     0.20558  -4.01547  -3.38553 
 O                     1.805    -2.29173  -3.69809 
 C                     0.66157  -2.65976  -3.42994 
 H                    -0.02066  -0.74929  -3.15978 
 N                    -0.30505  -1.71851  -3.13848 
 O                    -2.40202  -1.05145  -2.5773 
 C                    -1.61936  -1.95309  -2.82051 
 H                    -1.46703  -5.28933  -3.03133 
 C                    -1.07054  -4.27596  -3.0785 
 C                    -3.37772  -3.58495  -2.46328 
 N                    -1.9828   -3.28524  -2.79813 
 H                    -5.59684  -3.7333   -5.44038 
 H                    -5.22408  -2.47437  -4.47174 
 H                    -4.93698  -4.00143  -3.972 
 H                     1.16626  -1.17144  -7.1026 
 H                     0.75021  -2.82191  -7.21643 
 N                     0.4975   -1.89574  -6.93435 
 C                    -0.67925  -1.63903  -6.35944 
 C                    -2.82515  -2.20108  -5.49867 
 N                    -3.13759  -0.94767  -5.13019 
 H                    -2.31441   0.92908  -5.15788 
 C                    -2.14292  -0.11289  -5.4246 
 N                    -0.96355  -0.36807  -6.0004 
 H                    -3.22976  -5.38385  -5.89667 
 C                    -2.85387  -4.36046  -5.87901 
 N                    -1.68343  -3.98848  -6.33659 
 C                    -1.65244  -2.62154  -6.10157 
 C                    -4.9466   -3.38943  -4.76292 
 N                    -3.59726  -3.32978  -5.35767 
 
 ITRead=  0  0  0  0  0  0  0  0  0  0  0  0  0  0  0  0  0  0  0  0
 ITRead=  0  0  0  0  0  0  0  0  0  0  0  0  0  0  0  0  0  0  0  0
 ITRead=  0  0  0  0  0  0  0  0  0  0  0  0  0  0  0  0  0  0  0  0
 ITRead=  0  0  0  0  0  0  0  0  0  0
 MicOpt= -1 -1 -1 -1 -1 -1 -1 -1 -1 -1 -1 -1 -1 -1 -1 -1 -1 -1 -1 -1
 MicOpt= -1 -1 -1 -1 -1 -1 -1 -1 -1 -1 -1 -1 -1 -1 -1 -1 -1 -1 -1 -1
 MicOpt= -1 -1 -1 -1 -1 -1 -1 -1 -1 -1 -1 -1 -1 -1 -1 -1 -1 -1 -1 -1
 MicOpt= -1 -1 -1 -1 -1 -1 -1 -1 -1 -1
 NAtoms=     70 NQM=       70 NQMF=       0 NMMI=      0 NMMIF=      0
                NMic=       0 NMicF=      0.
                    Isotopes and Nuclear Properties:
 (Nuclear quadrupole moments (NQMom) in fm**2, nuclear magnetic moments (NMagM)
  in nuclear magnetons)

  Atom         1           2           3           4           5           6           7           8           9          10
 IAtWgt=          14          12          12          14          12           1          14          12           1          14
 AtmWgt=  14.0030740  12.0000000  12.0000000  14.0030740  12.0000000   1.0078250  14.0030740  12.0000000   1.0078250  14.0030740
 NucSpn=           2           0           0           2           0           1           2           0           1           2
 AtZEff=  -0.0000000  -0.0000000  -0.0000000  -0.0000000  -0.0000000  -0.0000000  -0.0000000  -0.0000000  -0.0000000  -0.0000000
 NQMom=    2.0440000   0.0000000   0.0000000   2.0440000   0.0000000   0.0000000   2.0440000   0.0000000   0.0000000   2.0440000
 NMagM=    0.4037610   0.0000000   0.0000000   0.4037610   0.0000000   2.7928460   0.4037610   0.0000000   2.7928460   0.4037610
 AtZNuc=   7.0000000   6.0000000   6.0000000   7.0000000   6.0000000   1.0000000   7.0000000   6.0000000   1.0000000   7.0000000

  Atom        11          12          13          14          15          16          17          18          19          20
 IAtWgt=          12          12          14           1           1           1           1           1          14          12
 AtmWgt=  12.0000000  12.0000000  14.0030740   1.0078250   1.0078250   1.0078250   1.0078250   1.0078250  14.0030740  12.0000000
 NucSpn=           0           0           2           1           1           1           1           1           2           0
 AtZEff=  -0.0000000  -0.0000000  -0.0000000  -0.0000000  -0.0000000  -0.0000000  -0.0000000  -0.0000000  -0.0000000  -0.0000000
 NQMom=    0.0000000   0.0000000   2.0440000   0.0000000   0.0000000   0.0000000   0.0000000   0.0000000   2.0440000   0.0000000
 NMagM=    0.0000000   0.0000000   0.4037610   2.7928460   2.7928460   2.7928460   2.7928460   2.7928460   0.4037610   0.0000000
 AtZNuc=   6.0000000   6.0000000   7.0000000   1.0000000   1.0000000   1.0000000   1.0000000   1.0000000   7.0000000   6.0000000

  Atom        21          22          23          24          25          26          27          28          29          30
 IAtWgt=          12          14           1           1          14          12          14           1          12          16
 AtmWgt=  12.0000000  14.0030740   1.0078250   1.0078250  14.0030740  12.0000000  14.0030740   1.0078250  12.0000000  15.9949146
 NucSpn=           0           2           1           1           2           0           2           1           0           0
 AtZEff=  -0.0000000  -0.0000000  -0.0000000  -0.0000000  -0.0000000  -0.0000000  -0.0000000  -0.0000000  -0.0000000  -0.0000000
 NQMom=    0.0000000   2.0440000   0.0000000   0.0000000   2.0440000   0.0000000   2.0440000   0.0000000   0.0000000   0.0000000
 NMagM=    0.0000000   0.4037610   2.7928460   2.7928460   0.4037610   0.0000000   0.4037610   2.7928460   0.0000000   0.0000000
 AtZNuc=   6.0000000   7.0000000   1.0000000   1.0000000   7.0000000   6.0000000   7.0000000   1.0000000   6.0000000   8.0000000

  Atom        31          32          33          34          35          36          37          38          39          40
 IAtWgt=          12          14          12           1           1           1           1           1           1           1
 AtmWgt=  12.0000000  14.0030740  12.0000000   1.0078250   1.0078250   1.0078250   1.0078250   1.0078250   1.0078250   1.0078250
 NucSpn=           0           2           0           1           1           1           1           1           1           1
 AtZEff=  -0.0000000  -0.0000000  -0.0000000  -0.0000000  -0.0000000  -0.0000000  -0.0000000  -0.0000000  -0.0000000  -0.0000000
 NQMom=    0.0000000   2.0440000   0.0000000   0.0000000   0.0000000   0.0000000   0.0000000   0.0000000   0.0000000   0.0000000
 NMagM=    0.0000000   0.4037610   0.0000000   2.7928460   2.7928460   2.7928460   2.7928460   2.7928460   2.7928460   2.7928460
 AtZNuc=   6.0000000   7.0000000   6.0000000   1.0000000   1.0000000   1.0000000   1.0000000   1.0000000   1.0000000   1.0000000

  Atom        41          42          43          44          45          46          47          48          49          50
 IAtWgt=           1          12          16          12           1          14          16          12           1          12
 AtmWgt=   1.0078250  12.0000000  15.9949146  12.0000000   1.0078250  14.0030740  15.9949146  12.0000000   1.0078250  12.0000000
 NucSpn=           1           0           0           0           1           2           0           0           1           0
 AtZEff=  -0.0000000  -0.0000000  -0.0000000  -0.0000000  -0.0000000  -0.0000000  -0.0000000  -0.0000000  -0.0000000  -0.0000000
 NQMom=    0.0000000   0.0000000   0.0000000   0.0000000   0.0000000   2.0440000   0.0000000   0.0000000   0.0000000   0.0000000
 NMagM=    2.7928460   0.0000000   0.0000000   0.0000000   2.7928460   0.4037610   0.0000000   0.0000000   2.7928460   0.0000000
 AtZNuc=   1.0000000   6.0000000   8.0000000   6.0000000   1.0000000   7.0000000   8.0000000   6.0000000   1.0000000   6.0000000

  Atom        51          52          53          54          55          56          57          58          59          60
 IAtWgt=          12          14           1           1           1           1           1          14          12          12
 AtmWgt=  12.0000000  14.0030740   1.0078250   1.0078250   1.0078250   1.0078250   1.0078250  14.0030740  12.0000000  12.0000000
 NucSpn=           0           2           1           1           1           1           1           2           0           0
 AtZEff=  -0.0000000  -0.0000000  -0.0000000  -0.0000000  -0.0000000  -0.0000000  -0.0000000  -0.0000000  -0.0000000  -0.0000000
 NQMom=    0.0000000   2.0440000   0.0000000   0.0000000   0.0000000   0.0000000   0.0000000   2.0440000   0.0000000   0.0000000
 NMagM=    0.0000000   0.4037610   2.7928460   2.7928460   2.7928460   2.7928460   2.7928460   0.4037610   0.0000000   0.0000000
 AtZNuc=   6.0000000   7.0000000   1.0000000   1.0000000   1.0000000   1.0000000   1.0000000   7.0000000   6.0000000   6.0000000

  Atom        61          62          63          64          65          66          67          68          69          70
 IAtWgt=          14           1          12          14           1          12          14          12          12          14
 AtmWgt=  14.0030740   1.0078250  12.0000000  14.0030740   1.0078250  12.0000000  14.0030740  12.0000000  12.0000000  14.0030740
 NucSpn=           2           1           0           2           1           0           2           0           0           2
 AtZEff=  -0.0000000  -0.0000000  -0.0000000  -0.0000000  -0.0000000  -0.0000000  -0.0000000  -0.0000000  -0.0000000  -0.0000000
 NQMom=    2.0440000   0.0000000   0.0000000   2.0440000   0.0000000   0.0000000   2.0440000   0.0000000   0.0000000   2.0440000
 NMagM=    0.4037610   2.7928460   0.0000000   0.4037610   2.7928460   0.0000000   0.4037610   0.0000000   0.0000000   0.4037610
 AtZNuc=   7.0000000   1.0000000   6.0000000   7.0000000   1.0000000   6.0000000   7.0000000   6.0000000   6.0000000   7.0000000
 Leave Link  101 at Wed Jan 17 20:58:16 2018, MaxMem=  4294967296 cpu:               5.2 elap:               0.2
 (Enter /share/apps/g16/l202.exe)
 Stoichiometry    C23H27N17O3
 Framework group  C1[X(C23H27N17O3)]
 Deg. of freedom   204
 Full point group                 C1      NOp   1
 Largest Abelian subgroup         C1      NOp   1
 Largest concise Abelian subgroup C1      NOp   1
                         Standard orientation:                         
 ---------------------------------------------------------------------
 Center     Atomic      Atomic             Coordinates (Angstroms)
 Number     Number       Type             X           Y           Z
 ---------------------------------------------------------------------
      1          7           0        5.992137   -1.003267   -0.793072
      2          6           0        7.260953   -0.314158   -1.098417
      3          6           0        3.860949   -1.527943   -0.651426
      4          7           0        4.553756   -2.540329   -0.003504
      5          6           0        5.809993   -2.183719   -0.114771
      6          1           0        6.652753   -2.749801    0.283020
      7          7           0        2.132762   -0.205932   -1.561714
      8          6           0        3.092404    0.627767   -1.975972
      9          1           0        2.743571    1.505613   -2.518156
     10          7           0        4.412060    0.540296   -1.821783
     11          6           0        4.734135   -0.573419   -1.143319
     12          6           0        2.489235   -1.317557   -0.881781
     13          7           0        1.532747   -2.150989   -0.467432
     14          1           0        1.750678   -2.985819    0.039312
     15          1           0        0.566258   -1.969416   -0.649287
     16          1           0        7.842163   -0.912164   -1.650481
     17          1           0        7.071192    0.525790   -1.605959
     18          1           0        7.732929   -0.087383   -0.246467
     19          7           0        4.207911    1.308843    1.188423
     20          6           0        2.873721    1.523029    0.939181
     21          6           0        5.319582    2.100420    0.624242
     22          7           0        0.360681    3.324281   -0.642550
     23          1           0       -0.637677    3.311065   -0.691019
     24          1           0        0.831502    4.028287   -1.174922
     25          7           0        2.358303    2.484857    0.143388
     26          6           0        1.038542    2.438167    0.102580
     27          7           0        0.279712    1.520544    0.787899
     28          1           0       -0.723903    1.559658    0.697496
     29          6           0        0.788710    0.522092    1.612446
     30          8           0        0.016510   -0.256040    2.185988
     31          6           0        2.205253    0.559580    1.666302
     32          7           0        3.101727   -0.243299    2.358126
     33          6           0        4.274464    0.237207    2.045058
     34          1           0        5.223940   -0.153818    2.412293
     35          1           0        5.917939    1.504266    0.090041
     36          1           0        4.949936    2.816006    0.033005
     37          1           0        5.842580    2.519328    1.365731
     38          1           0       -5.608733    1.880843   -0.676561
     39          1           0       -5.765331    2.748544    0.848951
     40          1           0       -4.262584    2.845623   -0.069565
     41          1           0       -5.613498   -1.792793    2.430037
     42          6           0       -4.933666   -1.024015    2.062558
     43          8           0       -2.982535   -2.100860    2.875338
     44          6           0       -3.527735   -1.166717    2.288042
     45          1           0       -1.758975   -0.204423    1.922259
     46          7           0       -2.757426   -0.138938    1.782523
     47          8           0       -2.437965    1.829338    0.695780
     48          6           0       -3.198838    0.970633    1.106098
     49          1           0       -6.454259    0.202619    1.208762
     50          6           0       -5.394425    0.047088    1.406019
     51          6           0       -5.085134    2.204517    0.210649
     52          7           0       -4.566764    1.036538    0.928193
     53          1           0       -5.318240    1.680297   -3.460928
     54          1           0       -4.096760    2.283505   -2.563017
     55          1           0       -5.601540    2.192235   -1.937410
     56          1           0       -1.707652   -3.838334   -0.058871
     57          1           0       -3.386827   -3.878911   -0.356917
     58          7           0       -2.529845   -3.362589   -0.371638
     59          6           0       -2.486477   -2.095974   -0.789932
     60          6           0       -3.409928   -0.075169   -1.641576
     61          7           0       -2.244966    0.593575   -1.650434
     62          1           0       -0.274155    0.284315   -1.180492
     63          6           0       -1.258079   -0.182039   -1.206160
     64          7           0       -1.299499   -1.450879   -0.786749
     65          1           0       -6.578279   -0.557148   -2.067470
     66          6           0       -5.516403   -0.651690   -1.838529
     67          7           0       -4.949059   -1.735552   -1.368377
     68          6           0       -3.613362   -1.383601   -1.238903
     69          6           0       -4.938583    1.745150   -2.538071
     70          7           0       -4.643802    0.392070   -2.027892
 ---------------------------------------------------------------------
 Rotational constants (GHZ):           0.1858348           0.0523192           0.0510454
 Leave Link  202 at Wed Jan 17 20:58:16 2018, MaxMem=  4294967296 cpu:               0.3 elap:               0.0
 (Enter /share/apps/g16/l301.exe)
 Standard basis: CC-pVDZ (5D, 7F)
 Ernie: Thresh=  0.10000D-02 Tol=  0.10000D-05 Strict=F.
 Ernie:  86 primitive shells out of 1081 were deleted.
 There are   780 symmetry adapted cartesian basis functions of A   symmetry.
 There are   737 symmetry adapted basis functions of A   symmetry.
   737 basis functions,  1608 primitive gaussians,   780 cartesian basis functions
   154 alpha electrons      154 beta electrons
       nuclear repulsion energy      5653.2937300597 Hartrees.
 IExCor= 4639 DFT=T Ex+Corr=wB97XD ExCW=0 ScaHFX=  1.000000
 ScaDFX=  1.000000  1.000000  1.000000  1.000000 ScalE2=  1.000000  1.000000
 IRadAn=      5 IRanWt=     -1 IRanGd=            0 ICorTp=0 IEmpDi=121
 HFx  wShort=  0.000000 wLong=  0.200000 cFull=  0.222036 cShort=  0.000000 cLong=  0.777964
 DFx  wShort=  0.000000 wLong=  0.200000 cFull=  0.000000 cShort=  0.000000 cLong=  1.000000
 NAtoms=   70 NActive=   70 NUniq=   70 SFac= 1.00D+00 NAtFMM=   60 NAOKFM=T Big=T
 Integral buffers will be    131072 words long.
 Raffenetti 2 integral format.
 Two-electron integral symmetry is turned on.
 R6Disp:  Grimme-D2 Dispersion energy=       -0.0831591578 Hartrees.
 Nuclear repulsion after empirical dispersion term =     5653.2105709019 Hartrees.
 Leave Link  301 at Wed Jan 17 20:58:17 2018, MaxMem=  4294967296 cpu:               2.1 elap:               0.1
 (Enter /share/apps/g16/l302.exe)
 NPDir=0 NMtPBC=     1 NCelOv=     1 NCel=       1 NClECP=     1 NCelD=      1
         NCelK=      1 NCelE2=     1 NClLst=     1 CellRange=     0.0.
 One-electron integrals computed using PRISM.
 One-electron integral symmetry used in STVInt
 NBasis=   737 RedAO= T EigKep=  6.50D-04  NBF=   737
 NBsUse=   737 1.00D-06 EigRej= -1.00D+00 NBFU=   737
 Precomputing XC quadrature grid using
 IXCGrd= 4 IRadAn=           5 IRanWt=          -1 IRanGd=           0 AccXCQ= 0.00D+00.
 Generated NRdTot=       0 NPtTot=           0 NUsed=           0 NTot=          32
 NSgBfM=   769   768   768   768   769 MxSgAt=    70 MxSgA2=    70.
 Leave Link  302 at Wed Jan 17 20:58:21 2018, MaxMem=  4294967296 cpu:             135.1 elap:               4.3
 (Enter /share/apps/g16/l303.exe)
 DipDrv:  MaxL=1.
 Leave Link  303 at Wed Jan 17 20:58:21 2018, MaxMem=  4294967296 cpu:              13.1 elap:               0.5
 (Enter /share/apps/g16/l401.exe)
 ExpMin= 1.22D-01 ExpMax= 1.17D+04 ExpMxC= 4.01D+02 IAcc=3 IRadAn=         5 AccDes= 0.00D+00
 Harris functional with IExCor= 4639 and IRadAn=       5 diagonalized for initial guess.
 HarFok:  IExCor= 4639 AccDes= 0.00D+00 IRadAn=         5 IDoV= 1 UseB2=F ITyADJ=14
 ICtDFT=  3500011 ScaDFX=  1.000000  1.000000  1.000000  1.000000
 FoFCou: FMM=F IPFlag=           0 FMFlag=      100000 FMFlg1=        2001
         NFxFlg=           0 DoJE=T BraDBF=F KetDBF=T FulRan=T
         wScrn=  0.000000 ICntrl=       500 IOpCl=  0 I1Cent=   200000004 NGrid=           0
         NMat0=    1 NMatS0=      1 NMatT0=    0 NMatD0=    1 NMtDS0=    0 NMtDT0=    0
 Petite list used in FoFCou.
 Harris En= -1963.84522230434    
 JPrj=0 DoOrth=F DoCkMO=F.
 Leave Link  401 at Wed Jan 17 20:58:35 2018, MaxMem=  4294967296 cpu:             435.3 elap:              13.9
 (Enter /share/apps/g16/l502.exe)
 Integral symmetry usage will be decided dynamically.
 Closed shell SCF:
 Using DIIS extrapolation, IDIIS=  1040.
 NGot=  4294967296 LenX=  4293717438 LenY=  4293108258
 Requested convergence on RMS density matrix=1.00D-08 within  20 cycles.
 Requested convergence on MAX density matrix=1.00D-06.
 Requested convergence on             energy=1.00D-06.
 No special actions if energy rises.
 Fock matrices will be formed incrementally for  20 cycles.
 Integral accuracy reduced to 1.0D-05 until final iterations.

 Cycle   1  Pass 0  IDiag  1:
 FoFJK:  IHMeth= 1 ICntrl=       0 DoSepK=T KAlg= 0 I1Cent=           0 FoldK=F
 IRaf=         1 NMat=       1 IRICut=       1 DoRegI=T DoRafI=F ISym2E= 0 IDoP0=0 IntGTp=1.
 FoFCou: FMM=T IPFlag=           0 FMFlag=      100000 FMFlg1=        2001
         NFxFlg=           0 DoJE=T BraDBF=F KetDBF=F FulRan=T
         wScrn=  0.000000 ICntrl=       500 IOpCl=  0 I1Cent=           0 NGrid=           0
         NMat0=    1 NMatS0=      1 NMatT0=    0 NMatD0=    1 NMtDS0=    0 NMtDT0=    0
 Symmetry not used in FoFCou.
 FMM levels:  10  Number of levels for PrismC:   9
 E= -2048.27697186874    
 DIIS: error= 1.84D-02 at cycle   1 NSaved=   1.
 NSaved= 1 IEnMin= 1 EnMin= -2048.27697186874     IErMin= 1 ErrMin= 1.84D-02
 ErrMax= 1.84D-02  0.00D+00 EMaxC= 1.00D-01 BMatC= 8.42D-01 BMatP= 8.42D-01
 IDIUse=3 WtCom= 8.16D-01 WtEn= 1.84D-01
 Coeff-Com:  0.100D+01
 Coeff-En:   0.100D+01
 Coeff:      0.100D+01
 Gap=     0.254 Goal=   None    Shift=    0.000
 GapD=    0.254 DampG=1.000 DampE=0.500 DampFc=0.5000 IDamp=-1.
 Damping current iteration by 5.00D-01
 RMSDP=1.65D-03 MaxDP=1.24D-01              OVMax= 2.19D-01

 Cycle   2  Pass 0  IDiag  1:
 RMSU=  8.22D-04    CP:  9.97D-01
 E= -2048.47299458298     Delta-E=       -0.196022714245 Rises=F Damp=T
 DIIS: error= 1.03D-02 at cycle   2 NSaved=   2.
 NSaved= 2 IEnMin= 2 EnMin= -2048.47299458298     IErMin= 2 ErrMin= 1.03D-02
 ErrMax= 1.03D-02  0.00D+00 EMaxC= 1.00D-01 BMatC= 1.48D-01 BMatP= 8.42D-01
 IDIUse=3 WtCom= 8.97D-01 WtEn= 1.03D-01
 Coeff-Com: -0.169D+00 0.117D+01
 Coeff-En:   0.000D+00 0.100D+01
 Coeff:     -0.152D+00 0.115D+01
 Gap=     0.364 Goal=   None    Shift=    0.000
 RMSDP=6.22D-04 MaxDP=3.56D-02 DE=-1.96D-01 OVMax= 1.40D-01

 Cycle   3  Pass 0  IDiag  1:
 RMSU=  6.17D-04    CP:  9.94D-01  1.08D+00
 E= -2048.65159768336     Delta-E=       -0.178603100374 Rises=F Damp=F
 DIIS: error= 5.40D-03 at cycle   3 NSaved=   3.
 NSaved= 3 IEnMin= 3 EnMin= -2048.65159768336     IErMin= 3 ErrMin= 5.40D-03
 ErrMax= 5.40D-03  0.00D+00 EMaxC= 1.00D-01 BMatC= 7.49D-02 BMatP= 1.48D-01
 IDIUse=3 WtCom= 9.46D-01 WtEn= 5.40D-02
 Coeff-Com: -0.233D+00 0.563D+00 0.670D+00
 Coeff-En:   0.000D+00 0.000D+00 0.100D+01
 Coeff:     -0.220D+00 0.533D+00 0.687D+00
 Gap=     0.282 Goal=   None    Shift=    0.000
 RMSDP=3.96D-04 MaxDP=3.06D-02 DE=-1.79D-01 OVMax= 7.56D-02

 Cycle   4  Pass 0  IDiag  1:
 RMSU=  2.17D-04    CP:  9.94D-01  1.39D+00  6.53D-01
 E= -2048.70911307491     Delta-E=       -0.057515391549 Rises=F Damp=F
 DIIS: error= 2.11D-03 at cycle   4 NSaved=   4.
 NSaved= 4 IEnMin= 4 EnMin= -2048.70911307491     IErMin= 4 ErrMin= 2.11D-03
 ErrMax= 2.11D-03  0.00D+00 EMaxC= 1.00D-01 BMatC= 9.70D-03 BMatP= 7.49D-02
 IDIUse=3 WtCom= 9.79D-01 WtEn= 2.11D-02
 Coeff-Com: -0.988D-01 0.192D+00 0.366D+00 0.541D+00
 Coeff-En:   0.000D+00 0.000D+00 0.526D-01 0.947D+00
 Coeff:     -0.967D-01 0.187D+00 0.360D+00 0.550D+00
 Gap=     0.285 Goal=   None    Shift=    0.000
 RMSDP=1.34D-04 MaxDP=1.13D-02 DE=-5.75D-02 OVMax= 1.46D-02

 Cycle   5  Pass 0  IDiag  1:
 RMSU=  6.34D-05    CP:  9.93D-01  1.36D+00  7.86D-01  6.30D-01
 E= -2048.71728237154     Delta-E=       -0.008169296638 Rises=F Damp=F
 DIIS: error= 4.49D-04 at cycle   5 NSaved=   5.
 NSaved= 5 IEnMin= 5 EnMin= -2048.71728237154     IErMin= 5 ErrMin= 4.49D-04
 ErrMax= 4.49D-04  0.00D+00 EMaxC= 1.00D-01 BMatC= 2.97D-04 BMatP= 9.70D-03
 IDIUse=3 WtCom= 9.96D-01 WtEn= 4.49D-03
 Coeff-Com: -0.259D-01 0.446D-01 0.116D+00 0.236D+00 0.629D+00
 Coeff-En:   0.000D+00 0.000D+00 0.000D+00 0.000D+00 0.100D+01
 Coeff:     -0.258D-01 0.444D-01 0.116D+00 0.235D+00 0.631D+00
 Gap=     0.285 Goal=   None    Shift=    0.000
 RMSDP=2.75D-05 MaxDP=1.62D-03 DE=-8.17D-03 OVMax= 3.14D-03

 Failed to achieve initial convergence to 1.0D-08 in  6 cycles.
 Switch to full accuracy anyway.
 Cycle   6  Pass 1  IDiag  1:
 E= -2048.71749471649     Delta-E=       -0.000212344951 Rises=F Damp=F
 DIIS: error= 2.82D-04 at cycle   1 NSaved=   1.
 NSaved= 1 IEnMin= 1 EnMin= -2048.71749471649     IErMin= 1 ErrMin= 2.82D-04
 ErrMax= 2.82D-04  0.00D+00 EMaxC= 1.00D-01 BMatC= 7.96D-05 BMatP= 7.96D-05
 IDIUse=3 WtCom= 9.97D-01 WtEn= 2.82D-03
 Coeff-Com:  0.100D+01
 Coeff-En:   0.100D+01
 Coeff:      0.100D+01
 Gap=     0.285 Goal=   None    Shift=    0.000
 RMSDP=2.75D-05 MaxDP=1.62D-03 DE=-2.12D-04 OVMax= 2.13D-03

 Cycle   7  Pass 1  IDiag  1:
 RMSU=  1.16D-04    CP:  1.00D+00
 E= -2048.71755122484     Delta-E=       -0.000056508347 Rises=F Damp=F
 DIIS: error= 1.90D-04 at cycle   2 NSaved=   2.
 NSaved= 2 IEnMin= 2 EnMin= -2048.71755122484     IErMin= 2 ErrMin= 1.90D-04
 ErrMax= 1.90D-04  0.00D+00 EMaxC= 1.00D-01 BMatC= 4.53D-05 BMatP= 7.96D-05
 IDIUse=3 WtCom= 9.98D-01 WtEn= 1.90D-03
 Coeff-Com:  0.406D+00 0.594D+00
 Coeff-En:   0.000D+00 0.100D+01
 Coeff:      0.405D+00 0.595D+00
 Gap=     0.285 Goal=   None    Shift=    0.000
 RMSDP=1.21D-05 MaxDP=1.02D-03 DE=-5.65D-05 OVMax= 1.65D-03

 Cycle   8  Pass 1  IDiag  1:
 RMSU=  1.18D-05    CP:  1.00D+00  1.02D+00
 E= -2048.71758450191     Delta-E=       -0.000033277066 Rises=F Damp=F
 DIIS: error= 9.68D-05 at cycle   3 NSaved=   3.
 NSaved= 3 IEnMin= 3 EnMin= -2048.71758450191     IErMin= 3 ErrMin= 9.68D-05
 ErrMax= 9.68D-05  0.00D+00 EMaxC= 1.00D-01 BMatC= 1.06D-05 BMatP= 4.53D-05
 IDIUse=1 WtCom= 1.00D+00 WtEn= 0.00D+00
 Coeff-Com: -0.182D-01 0.313D+00 0.705D+00
 Coeff:     -0.182D-01 0.313D+00 0.705D+00
 Gap=     0.285 Goal=   None    Shift=    0.000
 RMSDP=5.87D-06 MaxDP=4.53D-04 DE=-3.33D-05 OVMax= 5.90D-04

 Cycle   9  Pass 1  IDiag  1:
 RMSU=  3.98D-06    CP:  1.00D+00  1.05D+00  7.56D-01
 E= -2048.71759466980     Delta-E=       -0.000010167896 Rises=F Damp=F
 DIIS: error= 1.87D-05 at cycle   4 NSaved=   4.
 NSaved= 4 IEnMin= 4 EnMin= -2048.71759466980     IErMin= 4 ErrMin= 1.87D-05
 ErrMax= 1.87D-05  0.00D+00 EMaxC= 1.00D-01 BMatC= 5.74D-07 BMatP= 1.06D-05
 IDIUse=1 WtCom= 1.00D+00 WtEn= 0.00D+00
 Coeff-Com: -0.303D-01 0.907D-01 0.274D+00 0.666D+00
 Coeff:     -0.303D-01 0.907D-01 0.274D+00 0.666D+00
 Gap=     0.285 Goal=   None    Shift=    0.000
 RMSDP=1.52D-06 MaxDP=1.12D-04 DE=-1.02D-05 OVMax= 3.80D-04

 Cycle  10  Pass 1  IDiag  1:
 RMSU=  1.37D-06    CP:  1.00D+00  1.05D+00  7.93D-01  1.08D+00
 E= -2048.71759557237     Delta-E=       -0.000000902563 Rises=F Damp=F
 DIIS: error= 1.09D-05 at cycle   5 NSaved=   5.
 NSaved= 5 IEnMin= 5 EnMin= -2048.71759557237     IErMin= 5 ErrMin= 1.09D-05
 ErrMax= 1.09D-05  0.00D+00 EMaxC= 1.00D-01 BMatC= 1.36D-07 BMatP= 5.74D-07
 IDIUse=1 WtCom= 1.00D+00 WtEn= 0.00D+00
 Coeff-Com: -0.453D-02-0.510D-01-0.104D+00 0.224D+00 0.936D+00
 Coeff:     -0.453D-02-0.510D-01-0.104D+00 0.224D+00 0.936D+00
 Gap=     0.285 Goal=   None    Shift=    0.000
 RMSDP=1.22D-06 MaxDP=6.62D-05 DE=-9.03D-07 OVMax= 1.91D-04

 Cycle  11  Pass 1  IDiag  1:
 RMSU=  5.12D-07    CP:  1.00D+00  1.05D+00  8.03D-01  1.35D+00  1.15D+00
 E= -2048.71759585028     Delta-E=       -0.000000277915 Rises=F Damp=F
 DIIS: error= 4.21D-06 at cycle   6 NSaved=   6.
 NSaved= 6 IEnMin= 6 EnMin= -2048.71759585028     IErMin= 6 ErrMin= 4.21D-06
 ErrMax= 4.21D-06  0.00D+00 EMaxC= 1.00D-01 BMatC= 3.28D-08 BMatP= 1.36D-07
 IDIUse=1 WtCom= 1.00D+00 WtEn= 0.00D+00
 Coeff-Com:  0.456D-02-0.466D-01-0.117D+00-0.231D-02 0.508D+00 0.654D+00
 Coeff:      0.456D-02-0.466D-01-0.117D+00-0.231D-02 0.508D+00 0.654D+00
 Gap=     0.285 Goal=   None    Shift=    0.000
 RMSDP=4.30D-07 MaxDP=2.96D-05 DE=-2.78D-07 OVMax= 1.03D-04

 Cycle  12  Pass 1  IDiag  1:
 RMSU=  1.99D-07    CP:  1.00D+00  1.05D+00  8.05D-01  1.43D+00  1.29D+00
                    CP:  9.44D-01
 E= -2048.71759589950     Delta-E=       -0.000000049215 Rises=F Damp=F
 DIIS: error= 9.18D-07 at cycle   7 NSaved=   7.
 NSaved= 7 IEnMin= 7 EnMin= -2048.71759589950     IErMin= 7 ErrMin= 9.18D-07
 ErrMax= 9.18D-07  0.00D+00 EMaxC= 1.00D-01 BMatC= 8.76D-10 BMatP= 3.28D-08
 IDIUse=1 WtCom= 1.00D+00 WtEn= 0.00D+00
 Coeff-Com:  0.120D-02-0.863D-02-0.231D-01-0.896D-02 0.668D-01 0.147D+00
 Coeff-Com:  0.826D+00
 Coeff:      0.120D-02-0.863D-02-0.231D-01-0.896D-02 0.668D-01 0.147D+00
 Coeff:      0.826D+00
 Gap=     0.285 Goal=   None    Shift=    0.000
 RMSDP=8.88D-08 MaxDP=4.43D-06 DE=-4.92D-08 OVMax= 1.92D-05

 Cycle  13  Pass 1  IDiag  1:
 RMSU=  5.39D-08    CP:  1.00D+00  1.05D+00  8.05D-01  1.44D+00  1.31D+00
                    CP:  1.03D+00  1.14D+00
 E= -2048.71759590158     Delta-E=       -0.000000002084 Rises=F Damp=F
 DIIS: error= 5.60D-07 at cycle   8 NSaved=   8.
 NSaved= 8 IEnMin= 8 EnMin= -2048.71759590158     IErMin= 8 ErrMin= 5.60D-07
 ErrMax= 5.60D-07  0.00D+00 EMaxC= 1.00D-01 BMatC= 3.77D-10 BMatP= 8.76D-10
 IDIUse=1 WtCom= 1.00D+00 WtEn= 0.00D+00
 Coeff-Com: -0.712D-03 0.919D-02 0.221D-01-0.201D-02-0.112D+00-0.113D+00
 Coeff-Com:  0.416D+00 0.780D+00
 Coeff:     -0.712D-03 0.919D-02 0.221D-01-0.201D-02-0.112D+00-0.113D+00
 Coeff:      0.416D+00 0.780D+00
 Gap=     0.285 Goal=   None    Shift=    0.000
 RMSDP=5.31D-08 MaxDP=2.72D-06 DE=-2.08D-09 OVMax= 9.65D-06

 Cycle  14  Pass 1  IDiag  1:
 RMSU=  2.97D-08    CP:  1.00D+00  1.05D+00  8.05D-01  1.45D+00  1.32D+00
                    CP:  1.07D+00  1.30D+00  1.08D+00
 E= -2048.71759590250     Delta-E=       -0.000000000917 Rises=F Damp=F
 DIIS: error= 1.30D-07 at cycle   9 NSaved=   9.
 NSaved= 9 IEnMin= 9 EnMin= -2048.71759590250     IErMin= 9 ErrMin= 1.30D-07
 ErrMax= 1.30D-07  0.00D+00 EMaxC= 1.00D-01 BMatC= 2.89D-11 BMatP= 3.77D-10
 IDIUse=1 WtCom= 1.00D+00 WtEn= 0.00D+00
 Coeff-Com: -0.397D-03 0.442D-02 0.109D-01 0.239D-03-0.487D-01-0.587D-01
 Coeff-Com:  0.750D-01 0.280D+00 0.737D+00
 Coeff:     -0.397D-03 0.442D-02 0.109D-01 0.239D-03-0.487D-01-0.587D-01
 Coeff:      0.750D-01 0.280D+00 0.737D+00
 Gap=     0.285 Goal=   None    Shift=    0.000
 RMSDP=1.43D-08 MaxDP=6.67D-07 DE=-9.17D-10 OVMax= 2.79D-06

 Cycle  15  Pass 1  IDiag  1:
 RMSU=  9.63D-09    CP:  1.00D+00  1.05D+00  8.05D-01  1.45D+00  1.32D+00
                    CP:  1.08D+00  1.33D+00  1.21D+00  1.13D+00
 E= -2048.71759590233     Delta-E=        0.000000000164 Rises=F Damp=F
 DIIS: error= 7.03D-08 at cycle  10 NSaved=  10.
 NSaved=10 IEnMin= 9 EnMin= -2048.71759590250     IErMin=10 ErrMin= 7.03D-08
 ErrMax= 7.03D-08  0.00D+00 EMaxC= 1.00D-01 BMatC= 4.95D-12 BMatP= 2.89D-11
 IDIUse=1 WtCom= 1.00D+00 WtEn= 0.00D+00
 Coeff-Com:  0.145D-04-0.418D-03-0.928D-03 0.175D-03 0.657D-02 0.322D-02
 Coeff-Com: -0.556D-01-0.708D-01 0.250D+00 0.868D+00
 Coeff:      0.145D-04-0.418D-03-0.928D-03 0.175D-03 0.657D-02 0.322D-02
 Coeff:     -0.556D-01-0.708D-01 0.250D+00 0.868D+00
 Gap=     0.285 Goal=   None    Shift=    0.000
 RMSDP=7.06D-09 MaxDP=3.63D-07 DE= 1.64D-10 OVMax= 1.33D-06

 SCF Done:  E(RwB97XD) =  -2048.71759590     A.U. after   15 cycles
            NFock= 15  Conv=0.71D-08     -V/T= 2.0053
 KE= 2.037989134493D+03 PE=-1.608702281815D+04 EE= 6.347105516855D+03
 Leave Link  502 at Wed Jan 17 21:11:19 2018, MaxMem=  4294967296 cpu:           23496.3 elap:             764.2
 (Enter /share/apps/g16/l601.exe)
 Copying SCF densities to generalized density rwf, IOpCl= 0 IROHF=0.

 **********************************************************************

            Population analysis using the SCF density.

 **********************************************************************

 Orbital symmetries:
       Occupied  (A) (A) (A) (A) (A) (A) (A) (A) (A) (A) (A) (A)
                 (A) (A) (A) (A) (A) (A) (A) (A) (A) (A) (A) (A)
                 (A) (A) (A) (A) (A) (A) (A) (A) (A) (A) (A) (A)
                 (A) (A) (A) (A) (A) (A) (A) (A) (A) (A) (A) (A)
                 (A) (A) (A) (A) (A) (A) (A) (A) (A) (A) (A) (A)
                 (A) (A) (A) (A) (A) (A) (A) (A) (A) (A) (A) (A)
                 (A) (A) (A) (A) (A) (A) (A) (A) (A) (A) (A) (A)
                 (A) (A) (A) (A) (A) (A) (A) (A) (A) (A) (A) (A)
                 (A) (A) (A) (A) (A) (A) (A) (A) (A) (A) (A) (A)
                 (A) (A) (A) (A) (A) (A) (A) (A) (A) (A) (A) (A)
                 (A) (A) (A) (A) (A) (A) (A) (A) (A) (A) (A) (A)
                 (A) (A) (A) (A) (A) (A) (A) (A) (A) (A) (A) (A)
                 (A) (A) (A) (A) (A) (A) (A) (A) (A) (A)
       Virtual   (A) (A) (A) (A) (A) (A) (A) (A) (A) (A) (A) (A)
                 (A) (A) (A) (A) (A) (A) (A) (A) (A) (A) (A) (A)
                 (A) (A) (A) (A) (A) (A) (A) (A) (A) (A) (A) (A)
                 (A) (A) (A) (A) (A) (A) (A) (A) (A) (A) (A) (A)
                 (A) (A) (A) (A) (A) (A) (A) (A) (A) (A) (A) (A)
                 (A) (A) (A) (A) (A) (A) (A) (A) (A) (A) (A) (A)
                 (A) (A) (A) (A) (A) (A) (A) (A) (A) (A) (A) (A)
                 (A) (A) (A) (A) (A) (A) (A) (A) (A) (A) (A) (A)
                 (A) (A) (A) (A) (A) (A) (A) (A) (A) (A) (A) (A)
                 (A) (A) (A) (A) (A) (A) (A) (A) (A) (A) (A) (A)
                 (A) (A) (A) (A) (A) (A) (A) (A) (A) (A) (A) (A)
                 (A) (A) (A) (A) (A) (A) (A) (A) (A) (A) (A) (A)
                 (A) (A) (A) (A) (A) (A) (A) (A) (A) (A) (A) (A)
                 (A) (A) (A) (A) (A) (A) (A) (A) (A) (A) (A) (A)
                 (A) (A) (A) (A) (A) (A) (A) (A) (A) (A) (A) (A)
                 (A) (A) (A) (A) (A) (A) (A) (A) (A) (A) (A) (A)
                 (A) (A) (A) (A) (A) (A) (A) (A) (A) (A) (A) (A)
                 (A) (A) (A) (A) (A) (A) (A) (A) (A) (A) (A) (A)
                 (A) (A) (A) (A) (A) (A) (A) (A) (A) (A) (A) (A)
                 (A) (A) (A) (A) (A) (A) (A) (A) (A) (A) (A) (A)
                 (A) (A) (A) (A) (A) (A) (A) (A) (A) (A) (A) (A)
                 (A) (A) (A) (A) (A) (A) (A) (A) (A) (A) (A) (A)
                 (A) (A) (A) (A) (A) (A) (A) (A) (A) (A) (A) (A)
                 (A) (A) (A) (A) (A) (A) (A) (A) (A) (A) (A) (A)
                 (A) (A) (A) (A) (A) (A) (A) (A) (A) (A) (A) (A)
                 (A) (A) (A) (A) (A) (A) (A) (A) (A) (A) (A) (A)
                 (A) (A) (A) (A) (A) (A) (A) (A) (A) (A) (A) (A)
                 (A) (A) (A) (A) (A) (A) (A) (A) (A) (A) (A) (A)
                 (A) (A) (A) (A) (A) (A) (A) (A) (A) (A) (A) (A)
                 (A) (A) (A) (A) (A) (A) (A) (A) (A) (A) (A) (A)
                 (A) (A) (A) (A) (A) (A) (A) (A) (A) (A) (A) (A)
                 (A) (A) (A) (A) (A) (A) (A) (A) (A) (A) (A) (A)
                 (A) (A) (A) (A) (A) (A) (A) (A) (A) (A) (A) (A)
                 (A) (A) (A) (A) (A) (A) (A) (A) (A) (A) (A) (A)
                 (A) (A) (A) (A) (A) (A) (A) (A) (A) (A) (A) (A)
                 (A) (A) (A) (A) (A) (A) (A) (A) (A) (A) (A) (A)
                 (A) (A) (A) (A) (A) (A) (A) (A) (A) (A) (A) (A)
                 (A) (A) (A) (A) (A) (A) (A) (A) (A) (A) (A) (A)
                 (A) (A) (A) (A) (A) (A) (A) (A) (A) (A) (A) (A)
                 (A) (A) (A) (A) (A) (A) (A) (A) (A) (A) (A) (A)
                 (A) (A) (A) (A) (A) (A) (A) (A) (A) (A) (A) (A)
                 (A) (A) (A) (A) (A) (A) (A) (A) (A) (A) (A) (A)
                 (A) (A) (A) (A) (A) (A) (A) (A) (A) (A) (A) (A)
                 (A) (A) (A) (A) (A) (A) (A) (A) (A) (A) (A) (A)
                 (A) (A) (A) (A) (A) (A) (A) (A) (A) (A) (A) (A)
                 (A) (A) (A) (A) (A) (A) (A) (A) (A) (A) (A) (A)
                 (A) (A) (A) (A) (A) (A) (A) (A) (A) (A) (A) (A)
                 (A) (A) (A) (A) (A) (A) (A) (A) (A) (A) (A) (A)
                 (A) (A) (A) (A) (A) (A) (A)
 The electronic state is 1-A.
 Alpha  occ. eigenvalues --  -19.25118 -19.21537 -19.20592 -14.52299 -14.52066
 Alpha  occ. eigenvalues --  -14.49835 -14.48545 -14.47344 -14.47336 -14.46766
 Alpha  occ. eigenvalues --  -14.46565 -14.45152 -14.43881 -14.43820 -14.43059
 Alpha  occ. eigenvalues --  -14.42276 -14.41775 -14.41597 -14.40869 -14.40668
 Alpha  occ. eigenvalues --  -10.44858 -10.41074 -10.39625 -10.39352 -10.38162
 Alpha  occ. eigenvalues --  -10.37761 -10.37265 -10.36902 -10.36277 -10.35314
 Alpha  occ. eigenvalues --  -10.34939 -10.34777 -10.34246 -10.34096 -10.33926
 Alpha  occ. eigenvalues --  -10.33791 -10.33145 -10.32324 -10.32205 -10.30466
 Alpha  occ. eigenvalues --  -10.30343 -10.29328 -10.27947  -1.18963  -1.15065
 Alpha  occ. eigenvalues --   -1.13120  -1.12536  -1.12337  -1.10420  -1.09027
 Alpha  occ. eigenvalues --   -1.08652  -1.08449  -1.05830  -1.04270  -1.02099
 Alpha  occ. eigenvalues --   -1.01296  -1.00857  -0.99611  -0.98383  -0.97948
 Alpha  occ. eigenvalues --   -0.96404  -0.96350  -0.93471  -0.90607  -0.87840
 Alpha  occ. eigenvalues --   -0.86336  -0.84941  -0.83888  -0.83386  -0.83332
 Alpha  occ. eigenvalues --   -0.82156  -0.78447  -0.76703  -0.74628  -0.74348
 Alpha  occ. eigenvalues --   -0.73782  -0.73485  -0.73036  -0.71888  -0.70154
 Alpha  occ. eigenvalues --   -0.67256  -0.67182  -0.66730  -0.66113  -0.64633
 Alpha  occ. eigenvalues --   -0.63996  -0.63847  -0.63550  -0.62832  -0.62478
 Alpha  occ. eigenvalues --   -0.61597  -0.61141  -0.60298  -0.59328  -0.59187
 Alpha  occ. eigenvalues --   -0.58627  -0.58214  -0.57861  -0.57432  -0.56387
 Alpha  occ. eigenvalues --   -0.55915  -0.55650  -0.55369  -0.54947  -0.54097
 Alpha  occ. eigenvalues --   -0.53901  -0.53435  -0.53324  -0.52813  -0.52747
 Alpha  occ. eigenvalues --   -0.52568  -0.52087  -0.51459  -0.51090  -0.50224
 Alpha  occ. eigenvalues --   -0.50035  -0.49827  -0.49433  -0.49229  -0.49067
 Alpha  occ. eigenvalues --   -0.48572  -0.48436  -0.48071  -0.47880  -0.47190
 Alpha  occ. eigenvalues --   -0.47093  -0.46007  -0.45531  -0.43770  -0.42439
 Alpha  occ. eigenvalues --   -0.41949  -0.40370  -0.38989  -0.37953  -0.37644
 Alpha  occ. eigenvalues --   -0.37251  -0.37044  -0.36913  -0.35950  -0.34667
 Alpha  occ. eigenvalues --   -0.34376  -0.34269  -0.33809  -0.33649  -0.32848
 Alpha  occ. eigenvalues --   -0.32475  -0.32442  -0.31722  -0.31328  -0.31225
 Alpha  occ. eigenvalues --   -0.31186  -0.29052  -0.26701  -0.25305
 Alpha virt. eigenvalues --    0.03243   0.04625   0.06947   0.07094   0.09045
 Alpha virt. eigenvalues --    0.09108   0.09613   0.10420   0.10846   0.12397
 Alpha virt. eigenvalues --    0.13286   0.13398   0.14286   0.14450   0.14866
 Alpha virt. eigenvalues --    0.15067   0.16212   0.17442   0.17936   0.18338
 Alpha virt. eigenvalues --    0.18517   0.18964   0.19209   0.19551   0.20514
 Alpha virt. eigenvalues --    0.20701   0.21369   0.21698   0.21995   0.22312
 Alpha virt. eigenvalues --    0.22478   0.22846   0.23035   0.23660   0.23807
 Alpha virt. eigenvalues --    0.24505   0.24554   0.25091   0.25942   0.26037
 Alpha virt. eigenvalues --    0.26766   0.27328   0.27763   0.28315   0.28887
 Alpha virt. eigenvalues --    0.29054   0.29526   0.30012   0.30079   0.30694
 Alpha virt. eigenvalues --    0.31376   0.31786   0.32655   0.33487   0.33714
 Alpha virt. eigenvalues --    0.34042   0.34403   0.34989   0.35708   0.36627
 Alpha virt. eigenvalues --    0.36870   0.36988   0.38076   0.38234   0.39191
 Alpha virt. eigenvalues --    0.39998   0.40376   0.40670   0.41551   0.42156
 Alpha virt. eigenvalues --    0.42530   0.42984   0.43450   0.43490   0.44175
 Alpha virt. eigenvalues --    0.45342   0.45553   0.46420   0.47095   0.47384
 Alpha virt. eigenvalues --    0.47732   0.48155   0.48479   0.48745   0.50275
 Alpha virt. eigenvalues --    0.50420   0.50552   0.50861   0.51083   0.51436
 Alpha virt. eigenvalues --    0.52205   0.52597   0.52855   0.53320   0.53469
 Alpha virt. eigenvalues --    0.54059   0.54529   0.55196   0.55529   0.55671
 Alpha virt. eigenvalues --    0.56141   0.56517   0.57017   0.57108   0.57419
 Alpha virt. eigenvalues --    0.58062   0.58691   0.58925   0.59685   0.60244
 Alpha virt. eigenvalues --    0.60495   0.60960   0.61237   0.61499   0.62240
 Alpha virt. eigenvalues --    0.62348   0.63353   0.63555   0.63888   0.64009
 Alpha virt. eigenvalues --    0.64278   0.64787   0.65032   0.65431   0.66305
 Alpha virt. eigenvalues --    0.66498   0.67119   0.67350   0.67435   0.67981
 Alpha virt. eigenvalues --    0.68251   0.69525   0.69856   0.70209   0.70601
 Alpha virt. eigenvalues --    0.70792   0.71508   0.72017   0.72433   0.72834
 Alpha virt. eigenvalues --    0.73080   0.73510   0.73649   0.74408   0.74632
 Alpha virt. eigenvalues --    0.74848   0.75065   0.75563   0.76198   0.76305
 Alpha virt. eigenvalues --    0.76389   0.76806   0.77162   0.77563   0.77987
 Alpha virt. eigenvalues --    0.78475   0.78611   0.78840   0.79069   0.79276
 Alpha virt. eigenvalues --    0.79838   0.80499   0.81049   0.81108   0.81494
 Alpha virt. eigenvalues --    0.82089   0.82625   0.82972   0.83237   0.83646
 Alpha virt. eigenvalues --    0.83975   0.84353   0.85132   0.86013   0.86126
 Alpha virt. eigenvalues --    0.86753   0.87375   0.87540   0.87789   0.88250
 Alpha virt. eigenvalues --    0.89012   0.89315   0.89881   0.90539   0.90859
 Alpha virt. eigenvalues --    0.91336   0.91793   0.92237   0.92836   0.93054
 Alpha virt. eigenvalues --    0.93935   0.94301   0.94750   0.95198   0.95412
 Alpha virt. eigenvalues --    0.96044   0.96629   0.97078   0.97260   0.97392
 Alpha virt. eigenvalues --    0.98097   0.98563   0.99138   0.99930   1.00408
 Alpha virt. eigenvalues --    1.00799   1.01172   1.01839   1.01881   1.02454
 Alpha virt. eigenvalues --    1.03017   1.03668   1.04080   1.04630   1.04988
 Alpha virt. eigenvalues --    1.05470   1.06127   1.06469   1.07027   1.07164
 Alpha virt. eigenvalues --    1.08100   1.08286   1.08724   1.09783   1.10159
 Alpha virt. eigenvalues --    1.10785   1.11334   1.11877   1.11902   1.12234
 Alpha virt. eigenvalues --    1.12447   1.13063   1.13395   1.13843   1.14186
 Alpha virt. eigenvalues --    1.14321   1.14897   1.15726   1.16484   1.16797
 Alpha virt. eigenvalues --    1.16995   1.17199   1.18016   1.18375   1.18465
 Alpha virt. eigenvalues --    1.19387   1.19568   1.20166   1.20577   1.20721
 Alpha virt. eigenvalues --    1.20957   1.21279   1.21453   1.21913   1.22180
 Alpha virt. eigenvalues --    1.23384   1.23824   1.24431   1.24656   1.25134
 Alpha virt. eigenvalues --    1.25256   1.25805   1.26562   1.26758   1.27500
 Alpha virt. eigenvalues --    1.27783   1.28129   1.28630   1.29773   1.30783
 Alpha virt. eigenvalues --    1.30892   1.31235   1.32100   1.32735   1.33147
 Alpha virt. eigenvalues --    1.33412   1.33647   1.34190   1.34393   1.35562
 Alpha virt. eigenvalues --    1.36194   1.36680   1.37817   1.37995   1.38385
 Alpha virt. eigenvalues --    1.39287   1.39743   1.40019   1.41576   1.42711
 Alpha virt. eigenvalues --    1.43261   1.44089   1.44316   1.44963   1.46682
 Alpha virt. eigenvalues --    1.47035   1.48081   1.48440   1.48823   1.49167
 Alpha virt. eigenvalues --    1.50119   1.50748   1.51455   1.53497   1.53728
 Alpha virt. eigenvalues --    1.53968   1.54848   1.55032   1.55418   1.56269
 Alpha virt. eigenvalues --    1.56853   1.58246   1.58745   1.59442   1.60148
 Alpha virt. eigenvalues --    1.60912   1.61504   1.61990   1.62058   1.62882
 Alpha virt. eigenvalues --    1.63156   1.63827   1.64187   1.65111   1.65589
 Alpha virt. eigenvalues --    1.66067   1.66200   1.66649   1.67438   1.68105
 Alpha virt. eigenvalues --    1.68321   1.68844   1.69656   1.70101   1.70432
 Alpha virt. eigenvalues --    1.71180   1.71399   1.72023   1.72374   1.72766
 Alpha virt. eigenvalues --    1.72987   1.73352   1.73795   1.74156   1.74365
 Alpha virt. eigenvalues --    1.74745   1.75285   1.75707   1.76048   1.76277
 Alpha virt. eigenvalues --    1.76763   1.76963   1.77636   1.78059   1.78306
 Alpha virt. eigenvalues --    1.78596   1.79056   1.79393   1.79651   1.79947
 Alpha virt. eigenvalues --    1.80598   1.80950   1.81676   1.81935   1.82199
 Alpha virt. eigenvalues --    1.82845   1.83294   1.84077   1.84562   1.84645
 Alpha virt. eigenvalues --    1.85159   1.85522   1.85730   1.86225   1.86567
 Alpha virt. eigenvalues --    1.87318   1.87740   1.87947   1.88428   1.89055
 Alpha virt. eigenvalues --    1.89399   1.90052   1.90745   1.90858   1.91146
 Alpha virt. eigenvalues --    1.92062   1.92208   1.92404   1.93476   1.93619
 Alpha virt. eigenvalues --    1.94045   1.95011   1.95584   1.95816   1.96695
 Alpha virt. eigenvalues --    1.97268   1.97672   1.98852   1.99179   2.00169
 Alpha virt. eigenvalues --    2.00424   2.00880   2.02317   2.02685   2.03356
 Alpha virt. eigenvalues --    2.04129   2.04804   2.05305   2.05570   2.06102
 Alpha virt. eigenvalues --    2.06831   2.07315   2.07779   2.08477   2.09135
 Alpha virt. eigenvalues --    2.09773   2.10116   2.10806   2.11421   2.11916
 Alpha virt. eigenvalues --    2.12812   2.13883   2.14259   2.15585   2.16113
 Alpha virt. eigenvalues --    2.16430   2.18362   2.18742   2.19204   2.20238
 Alpha virt. eigenvalues --    2.20420   2.20868   2.22456   2.22985   2.23843
 Alpha virt. eigenvalues --    2.23963   2.24253   2.24548   2.25156   2.26050
 Alpha virt. eigenvalues --    2.26136   2.27027   2.27537   2.27607   2.28364
 Alpha virt. eigenvalues --    2.28488   2.28709   2.29612   2.30233   2.30560
 Alpha virt. eigenvalues --    2.31716   2.32417   2.33210   2.33421   2.33970
 Alpha virt. eigenvalues --    2.34268   2.34400   2.34701   2.35605   2.35781
 Alpha virt. eigenvalues --    2.36812   2.37119   2.37547   2.37959   2.38664
 Alpha virt. eigenvalues --    2.39468   2.40009   2.40471   2.41411   2.42191
 Alpha virt. eigenvalues --    2.43102   2.43729   2.44340   2.44492   2.45017
 Alpha virt. eigenvalues --    2.45200   2.45810   2.46872   2.47857   2.47965
 Alpha virt. eigenvalues --    2.48918   2.49857   2.50932   2.52278   2.52832
 Alpha virt. eigenvalues --    2.52987   2.55279   2.55806   2.56821   2.57047
 Alpha virt. eigenvalues --    2.58033   2.58926   2.60892   2.61076   2.61734
 Alpha virt. eigenvalues --    2.62303   2.63293   2.63798   2.65234   2.65495
 Alpha virt. eigenvalues --    2.65877   2.66619   2.67266   2.67375   2.68502
 Alpha virt. eigenvalues --    2.68812   2.69262   2.69910   2.71285   2.72065
 Alpha virt. eigenvalues --    2.72121   2.72476   2.73450   2.73613   2.74112
 Alpha virt. eigenvalues --    2.74695   2.75733   2.76470   2.77680   2.78301
 Alpha virt. eigenvalues --    2.79261   2.79512   2.79865   2.80705   2.80834
 Alpha virt. eigenvalues --    2.81675   2.82075   2.82664   2.82720   2.83279
 Alpha virt. eigenvalues --    2.83778   2.84222   2.84309   2.85683   2.86169
 Alpha virt. eigenvalues --    2.86855   2.86998   2.87876   2.88683   2.88748
 Alpha virt. eigenvalues --    2.90290   2.92325   2.93785   2.95307   2.96217
 Alpha virt. eigenvalues --    2.97048   2.98336   2.99067   2.99639   2.99987
 Alpha virt. eigenvalues --    3.01835   3.02369   3.03156   3.05574   3.06075
 Alpha virt. eigenvalues --    3.07599   3.10649   3.12369   3.14938   3.15838
 Alpha virt. eigenvalues --    3.16211   3.17608   3.18519   3.19142   3.21144
 Alpha virt. eigenvalues --    3.22702   3.22909   3.23941   3.24882   3.28051
 Alpha virt. eigenvalues --    3.45447   3.47675   3.48426   3.49750   3.51122
 Alpha virt. eigenvalues --    3.52994   3.55484   3.56685   3.58482   3.60668
 Alpha virt. eigenvalues --    3.64436   3.70868   3.75926
          Condensed to atoms (all electrons):
 Mulliken charges:
               1
     1  N   -0.308702
     2  C    0.182910
     3  C    0.062748
     4  N   -0.244526
     5  C    0.120117
     6  H    0.027697
     7  N   -0.279827
     8  C    0.144298
     9  H    0.009305
    10  N   -0.283958
    11  C    0.219219
    12  C    0.076785
    13  N   -0.041784
    14  H    0.110614
    15  H    0.089806
    16  H    0.029637
    17  H    0.044285
    18  H    0.024699
    19  N   -0.285882
    20  C    0.227472
    21  C    0.214044
    22  N   -0.111605
    23  H    0.116740
    24  H    0.116989
    25  N   -0.297202
    26  C    0.222175
    27  N   -0.140309
    28  H    0.122330
    29  C    0.174915
    30  O   -0.322856
    31  C   -0.005513
    32  N   -0.217286
    33  C    0.124042
    34  H    0.019089
    35  H   -0.028935
    36  H    0.033404
    37  H    0.020763
    38  H    0.047681
    39  H    0.056528
    40  H    0.072057
    41  H    0.025587
    42  C   -0.084689
    43  O   -0.269638
    44  C    0.165150
    45  H    0.132742
    46  N   -0.119415
    47  O   -0.333205
    48  C    0.326496
    49  H    0.040237
    50  C    0.162833
    51  C    0.040493
    52  N   -0.273298
    53  H    0.030205
    54  H    0.041837
    55  H    0.006707
    56  H    0.122147
    57  H    0.120298
    58  N   -0.053688
    59  C    0.113910
    60  C    0.206172
    61  N   -0.250587
    62  H    0.036314
    63  C    0.143350
    64  N   -0.299823
    65  H    0.033689
    66  C    0.114896
    67  N   -0.242432
    68  C    0.033563
    69  C    0.190061
    70  N   -0.301873
 Sum of Mulliken charges =  -0.00000
 Mulliken charges with hydrogens summed into heavy atoms:
               1
     1  N   -0.308702
     2  C    0.281531
     3  C    0.062748
     4  N   -0.244526
     5  C    0.147814
     7  N   -0.279827
     8  C    0.153603
    10  N   -0.283958
    11  C    0.219219
    12  C    0.076785
    13  N    0.158636
    19  N   -0.285882
    20  C    0.227472
    21  C    0.239276
    22  N    0.122124
    25  N   -0.297202
    26  C    0.222175
    27  N   -0.017979
    29  C    0.174915
    30  O   -0.322856
    31  C   -0.005513
    32  N   -0.217286
    33  C    0.143131
    42  C   -0.059102
    43  O   -0.269638
    44  C    0.165150
    46  N    0.013328
    47  O   -0.333205
    48  C    0.326496
    50  C    0.203070
    51  C    0.216759
    52  N   -0.273298
    58  N    0.188757
    59  C    0.113910
    60  C    0.206172
    61  N   -0.250587
    63  C    0.179664
    64  N   -0.299823
    66  C    0.148585
    67  N   -0.242432
    68  C    0.033563
    69  C    0.268810
    70  N   -0.301873
 Electronic spatial extent (au):  <R**2>=          21850.4650
 Charge=              0.0000 electrons
 Dipole moment (field-independent basis, Debye):
    X=             -4.4650    Y=              5.3983    Z=             -5.6576  Tot=              9.0048
 Quadrupole moment (field-independent basis, Debye-Ang):
   XX=           -145.9889   YY=           -224.2989   ZZ=           -264.1518
   XY=            -13.3241   XZ=             11.7480   YZ=              1.7085
 Traceless Quadrupole moment (field-independent basis, Debye-Ang):
   XX=             65.4910   YY=            -12.8190   ZZ=            -52.6719
   XY=            -13.3241   XZ=             11.7480   YZ=              1.7085
 Octapole moment (field-independent basis, Debye-Ang**2):
  XXX=             82.9646  YYY=              8.1001  ZZZ=            -56.6553  XYY=            -46.5493
  XXY=            103.2936  XXZ=            -33.6355  XZZ=            -34.5801  YZZ=             57.3997
  YYZ=            -36.5500  XYZ=             25.9213
 Hexadecapole moment (field-independent basis, Debye-Ang**3):
 XXXX=         -16112.7910 YYYY=          -3413.7930 ZZZZ=          -3471.6862 XXXY=           -651.7988
 XXXZ=            201.3541 YYYX=             97.0183 YYYZ=           -124.9274 ZZZX=            131.6715
 ZZZY=             24.8902 XXYY=          -4111.4244 XXZZ=          -4047.8130 YYZZ=          -1245.7414
 XXYZ=            -56.4509 YYXZ=             50.5687 ZZXY=           -117.2433
 N-N= 5.653210570902D+03 E-N=-1.608702281001D+04  KE= 2.037989134493D+03
 No NMR shielding tensors so no spin-rotation constants.
 Leave Link  601 at Wed Jan 17 21:11:21 2018, MaxMem=  4294967296 cpu:              45.6 elap:               1.6
 (Enter /share/apps/g16/l9999.exe)
 1\1\GINC-COMPUTE-0-3\SP\RwB97XD\CC-pVDZ\C23H27N17O3\SATYA\17-Jan-2018\
 0\\#p wb97xd/cc-pvdz sp scf=(maxcycles=20)\\Base pair stacking\\0,1\N,
 0,-0.25312,6.89838,-6.25009\C,0,-0.77157,8.27057,-6.0879\C,0,-0.08618,
 4.70761,-6.34993\N,0,1.17538,5.20658,-6.64011\C,0,1.02432,6.50647,-6.5
 6835\H,0,1.81876,7.23337,-6.73985\N,0,-1.89458,3.24606,-5.95429\C,0,-2
 .6343,4.34021,-5.74638\H,0,-3.67896,4.15532,-5.49988\N,0,-2.279,5.6224
 4,-5.79703\C,0,-0.97721,5.7385,-6.10732\C,0,-0.58838,3.39633,-6.2647\N
 ,0,0.15166,2.30533,-6.4726\H,0,1.12288,2.36922,-6.70471\H,0,-0.23926,1
 .38743,-6.40345\H,0,-0.65266,8.77645,-6.94238\H,0,-1.74297,8.23531,-5.
 85496\H,0,-0.27164,8.73368,-5.35605\N,0,-0.75395,5.40618,-3.09127\C,0,
 -1.26667,4.13336,-3.0198\C,0,-1.54688,6.65053,-3.03159\N,0,-3.99064,2.
 00079,-2.7134\H,0,-4.15609,1.01548,-2.68125\H,0,-4.7903,2.59768,-2.642
 81\N,0,-2.57049,3.80823,-2.88416\C,0,-2.75244,2.50018,-2.84524\N,0,-1.
 73662,1.57929,-2.93235\H,0,-1.96884,0.59872,-2.89358\C,0,-0.38791,1.89
 116,-3.07228\O,0,0.45002,0.98354,-3.14179\C,0,-0.17673,3.29274,-3.1156
 \N,0,0.99665,4.02311,-3.2446\C,0,0.60612,5.26863,-3.22523\H,0,1.27112,
 6.12922,-3.30541\H,0,-1.41442,7.17283,-3.87329\H,0,-2.51438,6.42224,-2
 .93114\H,0,-1.25189,7.19853,-2.24961\H,0,-3.84126,-4.1124,-3.28364\H,0
 ,-3.41259,-4.20068,-1.57687\H,0,-3.90792,-2.66176,-2.28236\H,0,0.90656
 ,-4.82135,-3.60328\C,0,0.20558,-4.01547,-3.38553\O,0,1.805,-2.29173,-3
 .69809\C,0,0.66157,-2.65976,-3.42994\H,0,-0.02066,-0.74929,-3.15978\N,
 0,-0.30505,-1.71851,-3.13848\O,0,-2.40202,-1.05145,-2.5773\C,0,-1.6193
 6,-1.95309,-2.82051\H,0,-1.46703,-5.28933,-3.03133\C,0,-1.07054,-4.275
 96,-3.0785\C,0,-3.37772,-3.58495,-2.46328\N,0,-1.9828,-3.28524,-2.7981
 3\H,0,-5.59684,-3.7333,-5.44038\H,0,-5.22408,-2.47437,-4.47174\H,0,-4.
 93698,-4.00143,-3.972\H,0,1.16626,-1.17144,-7.1026\H,0,0.75021,-2.8219
 1,-7.21643\N,0,0.4975,-1.89574,-6.93435\C,0,-0.67925,-1.63903,-6.35944
 \C,0,-2.82515,-2.20108,-5.49867\N,0,-3.13759,-0.94767,-5.13019\H,0,-2.
 31441,0.92908,-5.15788\C,0,-2.14292,-0.11289,-5.4246\N,0,-0.96355,-0.3
 6807,-6.0004\H,0,-3.22976,-5.38385,-5.89667\C,0,-2.85387,-4.36046,-5.8
 7901\N,0,-1.68343,-3.98848,-6.33659\C,0,-1.65244,-2.62154,-6.10157\C,0
 ,-4.9466,-3.38943,-4.76292\N,0,-3.59726,-3.32978,-5.35767\\Version=EM6
 4L-G16RevA.03\State=1-A\HF=-2048.7175959\RMSD=7.058e-09\Dipole=-3.2925
 345,-1.3077255,0.0107479\Quadrupole=-20.2775338,43.3358738,-23.0583401
 ,21.8201104,-16.5140582,-3.788791\PG=C01 [X(C23H27N17O3)]\\@


 I do not feel obliged to believe that the same God who
 has endowed us with sense, reason, and intellect has
 intended us to forgo their use.
                   --Galileo Galilei
 Job cpu time:       0 days  6 hours 42 minutes 18.3 seconds.
 Elapsed time:       0 days  0 hours 13 minutes  4.9 seconds.
 File lengths (MBytes):  RWF=    298 Int=      0 D2E=      0 Chk=     33 Scr=      1
 Normal termination of Gaussian 16 at Wed Jan 17 21:11:22 2018.
