 Entering Gaussian System, Link 0=g16
 Input=str10.15.1.5.com
 Output=str10.15.1.5.log
 Initial command:
 /share/apps/g16/l1.exe "/state/partition1/scr/Gau-7096.inp" -scrdir="/state/partition1/scr/"
 Entering Link 1 = /share/apps/g16/l1.exe PID=      7097.
  
 Copyright (c) 1988,1990,1992,1993,1995,1998,2003,2009,2016,
            Gaussian, Inc.  All Rights Reserved.
  
 This is part of the Gaussian(R) 16 program.  It is based on
 the Gaussian(R) 09 system (copyright 2009, Gaussian, Inc.),
 the Gaussian(R) 03 system (copyright 2003, Gaussian, Inc.),
 the Gaussian(R) 98 system (copyright 1998, Gaussian, Inc.),
 the Gaussian(R) 94 system (copyright 1995, Gaussian, Inc.),
 the Gaussian 92(TM) system (copyright 1992, Gaussian, Inc.),
 the Gaussian 90(TM) system (copyright 1990, Gaussian, Inc.),
 the Gaussian 88(TM) system (copyright 1988, Gaussian, Inc.),
 the Gaussian 86(TM) system (copyright 1986, Carnegie Mellon
 University), and the Gaussian 82(TM) system (copyright 1983,
 Carnegie Mellon University). Gaussian is a federally registered
 trademark of Gaussian, Inc.
  
 This software contains proprietary and confidential information,
 including trade secrets, belonging to Gaussian, Inc.
  
 This software is provided under written license and may be
 used, copied, transmitted, or stored only in accord with that
 written license.
  
 The following legend is applicable only to US Government
 contracts under FAR:
  
                    RESTRICTED RIGHTS LEGEND
  
 Use, reproduction and disclosure by the US Government is
 subject to restrictions as set forth in subparagraphs (a)
 and (c) of the Commercial Computer Software - Restricted
 Rights clause in FAR 52.227-19.
  
 Gaussian, Inc.
 340 Quinnipiac St., Bldg. 40, Wallingford CT 06492
  
  
 ---------------------------------------------------------------
 Warning -- This program may not be used in any manner that
 competes with the business of Gaussian, Inc. or will provide
 assistance to any competitor of Gaussian, Inc.  The licensee
 of this program is prohibited from giving any competitor of
 Gaussian, Inc. access to this program.  By using this program,
 the user acknowledges that Gaussian, Inc. is engaged in the
 business of creating and licensing software in the field of
 computational chemistry and represents and warrants to the
 licensee that it is not a competitor of Gaussian, Inc. and that
 it will not use this program in any manner prohibited above.
 ---------------------------------------------------------------
  

 Cite this work as:
 Gaussian 16, Revision A.03,
 M. J. Frisch, G. W. Trucks, H. B. Schlegel, G. E. Scuseria, 
 M. A. Robb, J. R. Cheeseman, G. Scalmani, V. Barone, 
 G. A. Petersson, H. Nakatsuji, X. Li, M. Caricato, A. V. Marenich, 
 J. Bloino, B. G. Janesko, R. Gomperts, B. Mennucci, H. P. Hratchian, 
 J. V. Ortiz, A. F. Izmaylov, J. L. Sonnenberg, D. Williams-Young, 
 F. Ding, F. Lipparini, F. Egidi, J. Goings, B. Peng, A. Petrone, 
 T. Henderson, D. Ranasinghe, V. G. Zakrzewski, J. Gao, N. Rega, 
 G. Zheng, W. Liang, M. Hada, M. Ehara, K. Toyota, R. Fukuda, 
 J. Hasegawa, M. Ishida, T. Nakajima, Y. Honda, O. Kitao, H. Nakai, 
 T. Vreven, K. Throssell, J. A. Montgomery, Jr., J. E. Peralta, 
 F. Ogliaro, M. J. Bearpark, J. J. Heyd, E. N. Brothers, K. N. Kudin, 
 V. N. Staroverov, T. A. Keith, R. Kobayashi, J. Normand, 
 K. Raghavachari, A. P. Rendell, J. C. Burant, S. S. Iyengar, 
 J. Tomasi, M. Cossi, J. M. Millam, M. Klene, C. Adamo, R. Cammi, 
 J. W. Ochterski, R. L. Martin, K. Morokuma, O. Farkas, 
 J. B. Foresman, and D. J. Fox, Gaussian, Inc., Wallingford CT, 2016.
 
 ******************************************
 Gaussian 16:  EM64L-G16RevA.03 25-Dec-2016
                18-Jan-2018 
 ******************************************
 %nprocshared=32
 Will use up to   32 processors via shared memory.
 %mem=32GB
 %chk=allatoms_t.chk
 ---------------------------------------
 #p wb97xd/cc-pvdz sp scf=(maxcycles=20)
 ---------------------------------------
 1/38=1,172=1/1;
 2/12=2,17=6,18=5,40=1/2;
 3/5=16,11=2,25=1,30=1,74=-58/1,2,3;
 4//1;
 5/5=2,7=20,38=5/2;
 6/7=2,8=2,9=2,10=2,28=1/1;
 99/5=1,9=1/99;
 Leave Link    1 at Thu Jan 18 03:51:48 2018, MaxMem=  4294967296 cpu:               2.7 elap:               0.1
 (Enter /share/apps/g16/l101.exe)
 ------------------
 Base pair stacking
 ------------------
 Symbolic Z-matrix:
 Charge =  0 Multiplicity = 1
 N                     1.94557   2.73424  -6.44699 
 C                     1.57216   4.08384  -6.91298 
 C                     1.98726   0.56348  -6.09576 
 N                     3.06826   1.08949  -5.40331 
 C                     2.99988   2.37624  -5.64263 
 H                     3.69915   3.11716  -5.25405 
 N                     0.40418  -0.93139  -7.0025 
 C                    -0.16739   0.13681  -7.56803 
 H                    -1.05228  -0.07213  -8.16768 
 N                     0.18833   1.41834  -7.50434 
 C                     1.28589   1.56521  -6.74394 
 C                     1.50697  -0.75046  -6.24341 
 N                     2.07896  -1.81553  -5.67805 
 H                     2.89678  -1.7285   -5.10814 
 H                     1.7097   -2.73625  -5.80482 
 H                     2.32407   4.47442  -7.44426 
 H                     0.75546   4.02522  -7.4863 
 H                     1.38304   4.67024  -6.12534 
 N                    -0.17175   3.42291  -3.49443 
 C                    -0.67822   2.1498   -3.59798 
 C                    -0.90562   4.66263  -3.81884 
 N                    -3.29782   0.00964  -4.38486 
 H                    -3.47009  -0.97501  -4.3889 
 H                    -4.04804   0.60271  -4.67839 
 N                    -1.92139   1.82013  -4.01019 
 C                    -2.11429   0.51309  -4.00315 
 N                    -1.16378  -0.40273  -3.62196 
 H                    -1.39939  -1.38292  -3.6482 
 C                     0.12182  -0.08614  -3.19431 
 O                     0.90359  -0.9894   -2.87231 
 C                     0.34391   1.31441  -3.19652 
 N                     1.46943   2.0483   -2.84794 
 C                     1.11772   3.29071  -3.04006 
 H                     1.76246   4.15272  -2.86535 
 H                    -0.4276    5.15437  -4.54582 
 H                    -1.82791   4.43095  -4.12538 
 H                    -0.96125   5.24142  -3.006 
 H                    -2.97633  -6.11918  -4.61451 
 H                    -3.30428  -6.14095  -2.88344 
 H                    -3.44435  -4.63298  -3.78775 
 H                     1.46093  -6.8038   -2.88576 
 C                     0.74035  -5.9957   -3.01211 
 O                     2.33828  -4.27276  -2.68772 
 C                     1.1847   -4.63918  -2.91087 
 H                     0.4688   -2.72519  -3.02243 
 N                     0.19327  -3.69507  -3.08682 
 O                    -1.93971  -3.02345  -3.48246 
 C                    -1.13514  -3.92757  -3.34141 
 H                    -0.93755  -7.26809  -3.34598 
 C                    -0.54903  -6.25422  -3.25963 
 C                    -2.89527  -5.55824  -3.69536 
 N                    -1.48604  -5.26067  -3.42465 
 H                    -2.87527  -7.97551  -8.52164 
 H                    -3.27368  -6.57702  -7.78164 
 H                    -3.55897  -8.00273  -7.04 
 H                     2.99236  -5.28202  -4.86357 
 H                     2.69588  -6.95365  -5.0305 
 N                     2.37848  -6.01363  -5.16029 
 C                     1.18925  -5.74858  -5.70495 
 C                    -0.90604  -6.3097   -6.68302 
 N                    -1.30618  -5.03767  -6.84508 
 H                    -0.62068  -3.13828  -6.49435 
 C                    -0.37585  -4.19537  -6.40018 
 N                     0.81587  -4.45887  -5.85434 
 H                    -1.08205  -9.53488  -6.82213 
 C                    -0.78088  -8.49885  -6.66443 
 N                     0.3573   -8.12648  -6.13192 
 C                     0.29081  -6.74074  -6.1378 
 C                    -2.93242  -7.50588  -7.64063 
 N                    -1.59398  -7.45088  -7.02129 
 
 ITRead=  0  0  0  0  0  0  0  0  0  0  0  0  0  0  0  0  0  0  0  0
 ITRead=  0  0  0  0  0  0  0  0  0  0  0  0  0  0  0  0  0  0  0  0
 ITRead=  0  0  0  0  0  0  0  0  0  0  0  0  0  0  0  0  0  0  0  0
 ITRead=  0  0  0  0  0  0  0  0  0  0
 MicOpt= -1 -1 -1 -1 -1 -1 -1 -1 -1 -1 -1 -1 -1 -1 -1 -1 -1 -1 -1 -1
 MicOpt= -1 -1 -1 -1 -1 -1 -1 -1 -1 -1 -1 -1 -1 -1 -1 -1 -1 -1 -1 -1
 MicOpt= -1 -1 -1 -1 -1 -1 -1 -1 -1 -1 -1 -1 -1 -1 -1 -1 -1 -1 -1 -1
 MicOpt= -1 -1 -1 -1 -1 -1 -1 -1 -1 -1
 NAtoms=     70 NQM=       70 NQMF=       0 NMMI=      0 NMMIF=      0
                NMic=       0 NMicF=      0.
                    Isotopes and Nuclear Properties:
 (Nuclear quadrupole moments (NQMom) in fm**2, nuclear magnetic moments (NMagM)
  in nuclear magnetons)

  Atom         1           2           3           4           5           6           7           8           9          10
 IAtWgt=          14          12          12          14          12           1          14          12           1          14
 AtmWgt=  14.0030740  12.0000000  12.0000000  14.0030740  12.0000000   1.0078250  14.0030740  12.0000000   1.0078250  14.0030740
 NucSpn=           2           0           0           2           0           1           2           0           1           2
 AtZEff=  -0.0000000  -0.0000000  -0.0000000  -0.0000000  -0.0000000  -0.0000000  -0.0000000  -0.0000000  -0.0000000  -0.0000000
 NQMom=    2.0440000   0.0000000   0.0000000   2.0440000   0.0000000   0.0000000   2.0440000   0.0000000   0.0000000   2.0440000
 NMagM=    0.4037610   0.0000000   0.0000000   0.4037610   0.0000000   2.7928460   0.4037610   0.0000000   2.7928460   0.4037610
 AtZNuc=   7.0000000   6.0000000   6.0000000   7.0000000   6.0000000   1.0000000   7.0000000   6.0000000   1.0000000   7.0000000

  Atom        11          12          13          14          15          16          17          18          19          20
 IAtWgt=          12          12          14           1           1           1           1           1          14          12
 AtmWgt=  12.0000000  12.0000000  14.0030740   1.0078250   1.0078250   1.0078250   1.0078250   1.0078250  14.0030740  12.0000000
 NucSpn=           0           0           2           1           1           1           1           1           2           0
 AtZEff=  -0.0000000  -0.0000000  -0.0000000  -0.0000000  -0.0000000  -0.0000000  -0.0000000  -0.0000000  -0.0000000  -0.0000000
 NQMom=    0.0000000   0.0000000   2.0440000   0.0000000   0.0000000   0.0000000   0.0000000   0.0000000   2.0440000   0.0000000
 NMagM=    0.0000000   0.0000000   0.4037610   2.7928460   2.7928460   2.7928460   2.7928460   2.7928460   0.4037610   0.0000000
 AtZNuc=   6.0000000   6.0000000   7.0000000   1.0000000   1.0000000   1.0000000   1.0000000   1.0000000   7.0000000   6.0000000

  Atom        21          22          23          24          25          26          27          28          29          30
 IAtWgt=          12          14           1           1          14          12          14           1          12          16
 AtmWgt=  12.0000000  14.0030740   1.0078250   1.0078250  14.0030740  12.0000000  14.0030740   1.0078250  12.0000000  15.9949146
 NucSpn=           0           2           1           1           2           0           2           1           0           0
 AtZEff=  -0.0000000  -0.0000000  -0.0000000  -0.0000000  -0.0000000  -0.0000000  -0.0000000  -0.0000000  -0.0000000  -0.0000000
 NQMom=    0.0000000   2.0440000   0.0000000   0.0000000   2.0440000   0.0000000   2.0440000   0.0000000   0.0000000   0.0000000
 NMagM=    0.0000000   0.4037610   2.7928460   2.7928460   0.4037610   0.0000000   0.4037610   2.7928460   0.0000000   0.0000000
 AtZNuc=   6.0000000   7.0000000   1.0000000   1.0000000   7.0000000   6.0000000   7.0000000   1.0000000   6.0000000   8.0000000

  Atom        31          32          33          34          35          36          37          38          39          40
 IAtWgt=          12          14          12           1           1           1           1           1           1           1
 AtmWgt=  12.0000000  14.0030740  12.0000000   1.0078250   1.0078250   1.0078250   1.0078250   1.0078250   1.0078250   1.0078250
 NucSpn=           0           2           0           1           1           1           1           1           1           1
 AtZEff=  -0.0000000  -0.0000000  -0.0000000  -0.0000000  -0.0000000  -0.0000000  -0.0000000  -0.0000000  -0.0000000  -0.0000000
 NQMom=    0.0000000   2.0440000   0.0000000   0.0000000   0.0000000   0.0000000   0.0000000   0.0000000   0.0000000   0.0000000
 NMagM=    0.0000000   0.4037610   0.0000000   2.7928460   2.7928460   2.7928460   2.7928460   2.7928460   2.7928460   2.7928460
 AtZNuc=   6.0000000   7.0000000   6.0000000   1.0000000   1.0000000   1.0000000   1.0000000   1.0000000   1.0000000   1.0000000

  Atom        41          42          43          44          45          46          47          48          49          50
 IAtWgt=           1          12          16          12           1          14          16          12           1          12
 AtmWgt=   1.0078250  12.0000000  15.9949146  12.0000000   1.0078250  14.0030740  15.9949146  12.0000000   1.0078250  12.0000000
 NucSpn=           1           0           0           0           1           2           0           0           1           0
 AtZEff=  -0.0000000  -0.0000000  -0.0000000  -0.0000000  -0.0000000  -0.0000000  -0.0000000  -0.0000000  -0.0000000  -0.0000000
 NQMom=    0.0000000   0.0000000   0.0000000   0.0000000   0.0000000   2.0440000   0.0000000   0.0000000   0.0000000   0.0000000
 NMagM=    2.7928460   0.0000000   0.0000000   0.0000000   2.7928460   0.4037610   0.0000000   0.0000000   2.7928460   0.0000000
 AtZNuc=   1.0000000   6.0000000   8.0000000   6.0000000   1.0000000   7.0000000   8.0000000   6.0000000   1.0000000   6.0000000

  Atom        51          52          53          54          55          56          57          58          59          60
 IAtWgt=          12          14           1           1           1           1           1          14          12          12
 AtmWgt=  12.0000000  14.0030740   1.0078250   1.0078250   1.0078250   1.0078250   1.0078250  14.0030740  12.0000000  12.0000000
 NucSpn=           0           2           1           1           1           1           1           2           0           0
 AtZEff=  -0.0000000  -0.0000000  -0.0000000  -0.0000000  -0.0000000  -0.0000000  -0.0000000  -0.0000000  -0.0000000  -0.0000000
 NQMom=    0.0000000   2.0440000   0.0000000   0.0000000   0.0000000   0.0000000   0.0000000   2.0440000   0.0000000   0.0000000
 NMagM=    0.0000000   0.4037610   2.7928460   2.7928460   2.7928460   2.7928460   2.7928460   0.4037610   0.0000000   0.0000000
 AtZNuc=   6.0000000   7.0000000   1.0000000   1.0000000   1.0000000   1.0000000   1.0000000   7.0000000   6.0000000   6.0000000

  Atom        61          62          63          64          65          66          67          68          69          70
 IAtWgt=          14           1          12          14           1          12          14          12          12          14
 AtmWgt=  14.0030740   1.0078250  12.0000000  14.0030740   1.0078250  12.0000000  14.0030740  12.0000000  12.0000000  14.0030740
 NucSpn=           2           1           0           2           1           0           2           0           0           2
 AtZEff=  -0.0000000  -0.0000000  -0.0000000  -0.0000000  -0.0000000  -0.0000000  -0.0000000  -0.0000000  -0.0000000  -0.0000000
 NQMom=    2.0440000   0.0000000   0.0000000   2.0440000   0.0000000   0.0000000   2.0440000   0.0000000   0.0000000   2.0440000
 NMagM=    0.4037610   2.7928460   0.0000000   0.4037610   2.7928460   0.0000000   0.4037610   0.0000000   0.0000000   0.4037610
 AtZNuc=   7.0000000   1.0000000   6.0000000   7.0000000   1.0000000   6.0000000   7.0000000   6.0000000   6.0000000   7.0000000
 Leave Link  101 at Thu Jan 18 03:51:48 2018, MaxMem=  4294967296 cpu:               5.2 elap:               0.2
 (Enter /share/apps/g16/l202.exe)
 Stoichiometry    C23H27N17O3
 Framework group  C1[X(C23H27N17O3)]
 Deg. of freedom   204
 Full point group                 C1      NOp   1
 Largest Abelian subgroup         C1      NOp   1
 Largest concise Abelian subgroup C1      NOp   1
                         Standard orientation:                         
 ---------------------------------------------------------------------
 Center     Atomic      Atomic             Coordinates (Angstroms)
 Number     Number       Type             X           Y           Z
 ---------------------------------------------------------------------
      1          7           0        4.794730   -2.196996   -0.402319
      2          6           0        6.049070   -2.204763   -1.179861
      3          6           0        2.677098   -2.072675    0.178612
      4          7           0        3.385631   -2.321085    1.345235
      5          6           0        4.633068   -2.386045    0.948553
      6          1           0        5.483628   -2.571223    1.605204
      7          7           0        0.930173   -1.664604   -1.352624
      8          6           0        1.873546   -1.615532   -2.298779
      9          1           0        1.510534   -1.425728   -3.307968
     10          7           0        3.191822   -1.765013   -2.186009
     11          6           0        3.532155   -1.993570   -0.906810
     12          6           0        1.304787   -1.896284   -0.075484
     13          7           0        0.364553   -1.945636    0.870404
     14          1           0        0.596209   -2.114572    1.829047
     15          1           0       -0.602926   -1.815489    0.653162
     16          1           0        6.496957   -3.093766   -1.083687
     17          1           0        5.845427   -2.037787   -2.144112
     18          1           0        6.658398   -1.488056   -0.840657
     19          7           0        5.402316    1.416084    0.099089
     20          6           0        4.070001    1.643941   -0.148013
     21          6           0        6.510714    1.757786   -0.814917
     22          7           0        1.557996    2.839089   -2.227250
     23          1           0        0.561351    2.914526   -2.211874
     24          1           0        2.026771    3.185874   -3.040092
     25          7           0        3.553739    2.213679   -1.258394
     26          6           0        2.236286    2.297388   -1.204318
     27          7           0        1.480372    1.857405   -0.144832
     28          1           0        0.478366    1.961953   -0.189859
     29          6           0        1.990281    1.268128    1.007829
     30          8           0        1.220754    0.905692    1.906269
     31          6           0        3.404359    1.171361    0.964365
     32          7           0        4.300753    0.657168    1.891176
     33          6           0        5.470657    0.823357    1.336289
     34          1           0        6.419236    0.530456    1.787600
     35          1           0        7.009575    0.927639   -1.061504
     36          1           0        6.140415    2.180516   -1.641016
     37          1           0        7.131630    2.397934   -0.363834
     38          1           0       -4.477930    2.181626   -1.303199
     39          1           0       -4.423613    3.637631   -0.312377
     40          1           0       -3.012254    3.161966   -1.257457
     41          1           0       -4.458644    0.248888    3.102560
     42          6           0       -3.761868    0.702586    2.397658
     43          8           0       -1.827311   -0.118355    3.497965
     44          6           0       -2.355301    0.520521    2.588091
     45          1           0       -0.563056    1.029804    1.741448
     46          7           0       -1.562677    1.135919    1.640321
     47          8           0       -1.203333    2.388278   -0.219700
     48          6           0       -1.983134    1.881598    0.567603
     49          1           0       -5.261849    1.592892    1.171604
     50          6           0       -4.202493    1.424627    1.360785
     51          6           0       -3.849581    2.799948   -0.679567
     52          7           0       -3.353130    2.011579    0.451703
     53          1           0       -6.568501   -0.737665   -3.717549
     54          1           0       -5.186455    0.128342   -3.671904
     55          1           0       -6.583004    0.792169   -3.149358
     56          1           0       -2.889410   -2.164287    2.566914
     57          1           0       -4.592892   -2.146739    2.477727
     58          7           0       -3.713346   -1.973826    2.033062
     59          6           0       -3.643410   -1.509862    0.783654
     60          6           0       -4.538364   -0.750470   -1.286152
     61          7           0       -3.343413   -0.527569   -1.857854
     62          1           0       -1.351385   -0.679136   -1.400192
     63          6           0       -2.358619   -0.831256   -1.014721
     64          7           0       -2.426617   -1.296072    0.237035
     65          1           0       -7.760879   -0.866122   -1.053466
     66          6           0       -6.686096   -0.921334   -0.878180
     67          7           0       -6.133037   -1.330025    0.237516
     68          6           0       -4.771452   -1.226674   -0.007711
     69          6           0       -6.051085   -0.052951   -3.204282
     70          7           0       -5.779904   -0.555171   -1.843302
 ---------------------------------------------------------------------
 Rotational constants (GHZ):           0.1670523           0.0506599           0.0491681
 Leave Link  202 at Thu Jan 18 03:51:48 2018, MaxMem=  4294967296 cpu:               0.3 elap:               0.0
 (Enter /share/apps/g16/l301.exe)
 Standard basis: CC-pVDZ (5D, 7F)
 Ernie: Thresh=  0.10000D-02 Tol=  0.10000D-05 Strict=F.
 Ernie:  86 primitive shells out of 1081 were deleted.
 There are   780 symmetry adapted cartesian basis functions of A   symmetry.
 There are   737 symmetry adapted basis functions of A   symmetry.
   737 basis functions,  1608 primitive gaussians,   780 cartesian basis functions
   154 alpha electrons      154 beta electrons
       nuclear repulsion energy      5527.1195643596 Hartrees.
 IExCor= 4639 DFT=T Ex+Corr=wB97XD ExCW=0 ScaHFX=  1.000000
 ScaDFX=  1.000000  1.000000  1.000000  1.000000 ScalE2=  1.000000  1.000000
 IRadAn=      5 IRanWt=     -1 IRanGd=            0 ICorTp=0 IEmpDi=121
 HFx  wShort=  0.000000 wLong=  0.200000 cFull=  0.222036 cShort=  0.000000 cLong=  0.777964
 DFx  wShort=  0.000000 wLong=  0.200000 cFull=  0.000000 cShort=  0.000000 cLong=  1.000000
 NAtoms=   70 NActive=   70 NUniq=   70 SFac= 1.00D+00 NAtFMM=   60 NAOKFM=T Big=T
 Integral buffers will be    131072 words long.
 Raffenetti 2 integral format.
 Two-electron integral symmetry is turned on.
 R6Disp:  Grimme-D2 Dispersion energy=       -0.0735673852 Hartrees.
 Nuclear repulsion after empirical dispersion term =     5527.0459969744 Hartrees.
 Leave Link  301 at Thu Jan 18 03:51:49 2018, MaxMem=  4294967296 cpu:               2.1 elap:               0.1
 (Enter /share/apps/g16/l302.exe)
 NPDir=0 NMtPBC=     1 NCelOv=     1 NCel=       1 NClECP=     1 NCelD=      1
         NCelK=      1 NCelE2=     1 NClLst=     1 CellRange=     0.0.
 One-electron integrals computed using PRISM.
 One-electron integral symmetry used in STVInt
 NBasis=   737 RedAO= T EigKep=  6.56D-04  NBF=   737
 NBsUse=   737 1.00D-06 EigRej= -1.00D+00 NBFU=   737
 Precomputing XC quadrature grid using
 IXCGrd= 4 IRadAn=           5 IRanWt=          -1 IRanGd=           0 AccXCQ= 0.00D+00.
 Generated NRdTot=       0 NPtTot=           0 NUsed=           0 NTot=          32
 NSgBfM=   765   765   765   765   765 MxSgAt=    70 MxSgA2=    70.
 Leave Link  302 at Thu Jan 18 03:51:53 2018, MaxMem=  4294967296 cpu:             133.7 elap:               4.2
 (Enter /share/apps/g16/l303.exe)
 DipDrv:  MaxL=1.
 Leave Link  303 at Thu Jan 18 03:51:53 2018, MaxMem=  4294967296 cpu:              12.4 elap:               0.4
 (Enter /share/apps/g16/l401.exe)
 ExpMin= 1.22D-01 ExpMax= 1.17D+04 ExpMxC= 4.01D+02 IAcc=3 IRadAn=         5 AccDes= 0.00D+00
 Harris functional with IExCor= 4639 and IRadAn=       5 diagonalized for initial guess.
 HarFok:  IExCor= 4639 AccDes= 0.00D+00 IRadAn=         5 IDoV= 1 UseB2=F ITyADJ=14
 ICtDFT=  3500011 ScaDFX=  1.000000  1.000000  1.000000  1.000000
 FoFCou: FMM=F IPFlag=           0 FMFlag=      100000 FMFlg1=        2001
         NFxFlg=           0 DoJE=T BraDBF=F KetDBF=T FulRan=T
         wScrn=  0.000000 ICntrl=       500 IOpCl=  0 I1Cent=   200000004 NGrid=           0
         NMat0=    1 NMatS0=      1 NMatT0=    0 NMatD0=    1 NMtDS0=    0 NMtDT0=    0
 Petite list used in FoFCou.
 Harris En= -1963.87337668154    
 JPrj=0 DoOrth=F DoCkMO=F.
 Leave Link  401 at Thu Jan 18 03:52:06 2018, MaxMem=  4294967296 cpu:             408.0 elap:              12.9
 (Enter /share/apps/g16/l502.exe)
 Integral symmetry usage will be decided dynamically.
 Closed shell SCF:
 Using DIIS extrapolation, IDIIS=  1040.
 NGot=  4294967296 LenX=  4293717438 LenY=  4293108258
 Requested convergence on RMS density matrix=1.00D-08 within  20 cycles.
 Requested convergence on MAX density matrix=1.00D-06.
 Requested convergence on             energy=1.00D-06.
 No special actions if energy rises.
 Fock matrices will be formed incrementally for  20 cycles.
 Integral accuracy reduced to 1.0D-05 until final iterations.

 Cycle   1  Pass 0  IDiag  1:
 FoFJK:  IHMeth= 1 ICntrl=       0 DoSepK=T KAlg= 0 I1Cent=           0 FoldK=F
 IRaf=         1 NMat=       1 IRICut=       1 DoRegI=T DoRafI=F ISym2E= 0 IDoP0=0 IntGTp=1.
 FoFCou: FMM=T IPFlag=           0 FMFlag=      100000 FMFlg1=        2001
         NFxFlg=           0 DoJE=T BraDBF=F KetDBF=F FulRan=T
         wScrn=  0.000000 ICntrl=       500 IOpCl=  0 I1Cent=           0 NGrid=           0
         NMat0=    1 NMatS0=      1 NMatT0=    0 NMatD0=    1 NMtDS0=    0 NMtDT0=    0
 Symmetry not used in FoFCou.
 FMM levels:  10  Number of levels for PrismC:   9
 E= -2048.31219846057    
 DIIS: error= 2.52D-02 at cycle   1 NSaved=   1.
 NSaved= 1 IEnMin= 1 EnMin= -2048.31219846057     IErMin= 1 ErrMin= 2.52D-02
 ErrMax= 2.52D-02  0.00D+00 EMaxC= 1.00D-01 BMatC= 8.32D-01 BMatP= 8.32D-01
 IDIUse=3 WtCom= 7.48D-01 WtEn= 2.52D-01
 Coeff-Com:  0.100D+01
 Coeff-En:   0.100D+01
 Coeff:      0.100D+01
 Gap=     0.265 Goal=   None    Shift=    0.000
 GapD=    0.265 DampG=1.000 DampE=0.500 DampFc=0.5000 IDamp=-1.
 Damping current iteration by 5.00D-01
 RMSDP=1.58D-03 MaxDP=1.21D-01              OVMax= 1.56D-01

 Cycle   2  Pass 0  IDiag  1:
 RMSU=  7.88D-04    CP:  9.98D-01
 E= -2048.50676697594     Delta-E=       -0.194568515370 Rises=F Damp=T
 DIIS: error= 1.38D-02 at cycle   2 NSaved=   2.
 NSaved= 2 IEnMin= 2 EnMin= -2048.50676697594     IErMin= 2 ErrMin= 1.38D-02
 ErrMax= 1.38D-02  0.00D+00 EMaxC= 1.00D-01 BMatC= 1.45D-01 BMatP= 8.32D-01
 IDIUse=3 WtCom= 8.62D-01 WtEn= 1.38D-01
 Coeff-Com: -0.192D+00 0.119D+01
 Coeff-En:   0.000D+00 0.100D+01
 Coeff:     -0.166D+00 0.117D+01
 Gap=     0.332 Goal=   None    Shift=    0.000
 RMSDP=5.97D-04 MaxDP=3.13D-02 DE=-1.95D-01 OVMax= 1.38D-01

 Cycle   3  Pass 0  IDiag  1:
 RMSU=  5.87D-04    CP:  9.94D-01  1.13D+00
 E= -2048.68244854952     Delta-E=       -0.175681573590 Rises=F Damp=F
 DIIS: error= 6.52D-03 at cycle   3 NSaved=   3.
 NSaved= 3 IEnMin= 3 EnMin= -2048.68244854952     IErMin= 3 ErrMin= 6.52D-03
 ErrMax= 6.52D-03  0.00D+00 EMaxC= 1.00D-01 BMatC= 6.71D-02 BMatP= 1.45D-01
 IDIUse=3 WtCom= 9.35D-01 WtEn= 6.52D-02
 Coeff-Com: -0.233D+00 0.558D+00 0.675D+00
 Coeff-En:   0.000D+00 0.000D+00 0.100D+01
 Coeff:     -0.218D+00 0.522D+00 0.696D+00
 Gap=     0.281 Goal=   None    Shift=    0.000
 RMSDP=3.76D-04 MaxDP=2.75D-02 DE=-1.76D-01 OVMax= 6.38D-02

 Cycle   4  Pass 0  IDiag  1:
 RMSU=  2.11D-04    CP:  9.94D-01  1.42D+00  6.49D-01
 E= -2048.73332301205     Delta-E=       -0.050874462526 Rises=F Damp=F
 DIIS: error= 2.33D-03 at cycle   4 NSaved=   4.
 NSaved= 4 IEnMin= 4 EnMin= -2048.73332301205     IErMin= 4 ErrMin= 2.33D-03
 ErrMax= 2.33D-03  0.00D+00 EMaxC= 1.00D-01 BMatC= 9.56D-03 BMatP= 6.71D-02
 IDIUse=3 WtCom= 9.77D-01 WtEn= 2.33D-02
 Coeff-Com: -0.970D-01 0.188D+00 0.373D+00 0.536D+00
 Coeff-En:   0.000D+00 0.000D+00 0.708D-01 0.929D+00
 Coeff:     -0.947D-01 0.183D+00 0.366D+00 0.545D+00
 Gap=     0.284 Goal=   None    Shift=    0.000
 RMSDP=1.30D-04 MaxDP=9.65D-03 DE=-5.09D-02 OVMax= 1.51D-02

 Cycle   5  Pass 0  IDiag  1:
 RMSU=  6.08D-05    CP:  9.94D-01  1.39D+00  7.85D-01  6.26D-01
 E= -2048.74143018711     Delta-E=       -0.008107175060 Rises=F Damp=F
 DIIS: error= 4.01D-04 at cycle   5 NSaved=   5.
 NSaved= 5 IEnMin= 5 EnMin= -2048.74143018711     IErMin= 5 ErrMin= 4.01D-04
 ErrMax= 4.01D-04  0.00D+00 EMaxC= 1.00D-01 BMatC= 2.65D-04 BMatP= 9.56D-03
 IDIUse=3 WtCom= 9.96D-01 WtEn= 4.01D-03
 Coeff-Com: -0.244D-01 0.417D-01 0.116D+00 0.230D+00 0.637D+00
 Coeff-En:   0.000D+00 0.000D+00 0.000D+00 0.000D+00 0.100D+01
 Coeff:     -0.243D-01 0.416D-01 0.116D+00 0.229D+00 0.638D+00
 Gap=     0.284 Goal=   None    Shift=    0.000
 RMSDP=2.63D-05 MaxDP=1.45D-03 DE=-8.11D-03 OVMax= 2.98D-03

 Failed to achieve initial convergence to 1.0D-08 in  6 cycles.
 Switch to full accuracy anyway.
 Cycle   6  Pass 1  IDiag  1:
 E= -2048.74148156194     Delta-E=       -0.000051374828 Rises=F Damp=F
 DIIS: error= 2.70D-04 at cycle   1 NSaved=   1.
 NSaved= 1 IEnMin= 1 EnMin= -2048.74148156194     IErMin= 1 ErrMin= 2.70D-04
 ErrMax= 2.70D-04  0.00D+00 EMaxC= 1.00D-01 BMatC= 7.48D-05 BMatP= 7.48D-05
 IDIUse=3 WtCom= 9.97D-01 WtEn= 2.70D-03
 Coeff-Com:  0.100D+01
 Coeff-En:   0.100D+01
 Coeff:      0.100D+01
 Gap=     0.284 Goal=   None    Shift=    0.000
 RMSDP=2.63D-05 MaxDP=1.45D-03 DE=-5.14D-05 OVMax= 2.60D-03

 Cycle   7  Pass 1  IDiag  1:
 RMSU=  1.19D-04    CP:  1.00D+00
 E= -2048.74153718713     Delta-E=       -0.000055625195 Rises=F Damp=F
 DIIS: error= 1.98D-04 at cycle   2 NSaved=   2.
 NSaved= 2 IEnMin= 2 EnMin= -2048.74153718713     IErMin= 2 ErrMin= 1.98D-04
 ErrMax= 1.98D-04  0.00D+00 EMaxC= 1.00D-01 BMatC= 4.18D-05 BMatP= 7.48D-05
 IDIUse=3 WtCom= 9.98D-01 WtEn= 1.98D-03
 Coeff-Com:  0.402D+00 0.598D+00
 Coeff-En:   0.000D+00 0.100D+01
 Coeff:      0.401D+00 0.599D+00
 Gap=     0.285 Goal=   None    Shift=    0.000
 RMSDP=1.19D-05 MaxDP=9.30D-04 DE=-5.56D-05 OVMax= 1.62D-03

 Cycle   8  Pass 1  IDiag  1:
 RMSU=  1.15D-05    CP:  1.00D+00  1.03D+00
 E= -2048.74156769732     Delta-E=       -0.000030510190 Rises=F Damp=F
 DIIS: error= 9.95D-05 at cycle   3 NSaved=   3.
 NSaved= 3 IEnMin= 3 EnMin= -2048.74156769732     IErMin= 3 ErrMin= 9.95D-05
 ErrMax= 9.95D-05  0.00D+00 EMaxC= 1.00D-01 BMatC= 1.02D-05 BMatP= 4.18D-05
 IDIUse=1 WtCom= 1.00D+00 WtEn= 0.00D+00
 Coeff-Com: -0.185D-01 0.318D+00 0.701D+00
 Coeff:     -0.185D-01 0.318D+00 0.701D+00
 Gap=     0.285 Goal=   None    Shift=    0.000
 RMSDP=5.77D-06 MaxDP=3.43D-04 DE=-3.05D-05 OVMax= 5.87D-04

 Cycle   9  Pass 1  IDiag  1:
 RMSU=  3.75D-06    CP:  1.00D+00  1.05D+00  7.51D-01
 E= -2048.74157743009     Delta-E=       -0.000009732769 Rises=F Damp=F
 DIIS: error= 2.26D-05 at cycle   4 NSaved=   4.
 NSaved= 4 IEnMin= 4 EnMin= -2048.74157743009     IErMin= 4 ErrMin= 2.26D-05
 ErrMax= 2.26D-05  0.00D+00 EMaxC= 1.00D-01 BMatC= 5.08D-07 BMatP= 1.02D-05
 IDIUse=1 WtCom= 1.00D+00 WtEn= 0.00D+00
 Coeff-Com: -0.296D-01 0.907D-01 0.267D+00 0.671D+00
 Coeff:     -0.296D-01 0.907D-01 0.267D+00 0.671D+00
 Gap=     0.285 Goal=   None    Shift=    0.000
 RMSDP=1.43D-06 MaxDP=8.82D-05 DE=-9.73D-06 OVMax= 4.29D-04

 Cycle  10  Pass 1  IDiag  1:
 RMSU=  1.27D-06    CP:  1.00D+00  1.06D+00  7.89D-01  1.10D+00
 E= -2048.74157824147     Delta-E=       -0.000000811373 Rises=F Damp=F
 DIIS: error= 1.38D-05 at cycle   5 NSaved=   5.
 NSaved= 5 IEnMin= 5 EnMin= -2048.74157824147     IErMin= 5 ErrMin= 1.38D-05
 ErrMax= 1.38D-05  0.00D+00 EMaxC= 1.00D-01 BMatC= 1.12D-07 BMatP= 5.08D-07
 IDIUse=1 WtCom= 1.00D+00 WtEn= 0.00D+00
 Coeff-Com: -0.326D-02-0.534D-01-0.109D+00 0.201D+00 0.965D+00
 Coeff:     -0.326D-02-0.534D-01-0.109D+00 0.201D+00 0.965D+00
 Gap=     0.285 Goal=   None    Shift=    0.000
 RMSDP=1.15D-06 MaxDP=5.26D-05 DE=-8.11D-07 OVMax= 2.45D-04

 Cycle  11  Pass 1  IDiag  1:
 RMSU=  4.94D-07    CP:  1.00D+00  1.06D+00  7.99D-01  1.36D+00  1.18D+00
 E= -2048.74157848543     Delta-E=       -0.000000243961 Rises=F Damp=F
 DIIS: error= 7.48D-06 at cycle   6 NSaved=   6.
 NSaved= 6 IEnMin= 6 EnMin= -2048.74157848543     IErMin= 6 ErrMin= 7.48D-06
 ErrMax= 7.48D-06  0.00D+00 EMaxC= 1.00D-01 BMatC= 2.90D-08 BMatP= 1.12D-07
 IDIUse=1 WtCom= 1.00D+00 WtEn= 0.00D+00
 Coeff-Com:  0.480D-02-0.472D-01-0.116D+00-0.121D-01 0.526D+00 0.644D+00
 Coeff:      0.480D-02-0.472D-01-0.116D+00-0.121D-01 0.526D+00 0.644D+00
 Gap=     0.285 Goal=   None    Shift=    0.000
 RMSDP=3.97D-07 MaxDP=2.34D-05 DE=-2.44D-07 OVMax= 1.24D-04

 Cycle  12  Pass 1  IDiag  1:
 RMSU=  1.97D-07    CP:  1.00D+00  1.06D+00  8.01D-01  1.44D+00  1.32D+00
                    CP:  9.66D-01
 E= -2048.74157852812     Delta-E=       -0.000000042693 Rises=F Damp=F
 DIIS: error= 9.23D-07 at cycle   7 NSaved=   7.
 NSaved= 7 IEnMin= 7 EnMin= -2048.74157852812     IErMin= 7 ErrMin= 9.23D-07
 ErrMax= 9.23D-07  0.00D+00 EMaxC= 1.00D-01 BMatC= 7.20D-10 BMatP= 2.90D-08
 IDIUse=1 WtCom= 1.00D+00 WtEn= 0.00D+00
 Coeff-Com:  0.114D-02-0.796D-02-0.207D-01-0.101D-01 0.638D-01 0.136D+00
 Coeff-Com:  0.838D+00
 Coeff:      0.114D-02-0.796D-02-0.207D-01-0.101D-01 0.638D-01 0.136D+00
 Coeff:      0.838D+00
 Gap=     0.285 Goal=   None    Shift=    0.000
 RMSDP=8.53D-08 MaxDP=3.58D-06 DE=-4.27D-08 OVMax= 2.42D-05

 Cycle  13  Pass 1  IDiag  1:
 RMSU=  5.42D-08    CP:  1.00D+00  1.06D+00  8.01D-01  1.45D+00  1.34D+00
                    CP:  1.05D+00  1.12D+00
 E= -2048.74157852962     Delta-E=       -0.000000001497 Rises=F Damp=F
 DIIS: error= 5.43D-07 at cycle   8 NSaved=   8.
 NSaved= 8 IEnMin= 8 EnMin= -2048.74157852962     IErMin= 8 ErrMin= 5.43D-07
 ErrMax= 5.43D-07  0.00D+00 EMaxC= 1.00D-01 BMatC= 3.29D-10 BMatP= 7.20D-10
 IDIUse=1 WtCom= 1.00D+00 WtEn= 0.00D+00
 Coeff-Com: -0.764D-03 0.923D-02 0.219D-01-0.395D-03-0.114D+00-0.111D+00
 Coeff-Com:  0.427D+00 0.769D+00
 Coeff:     -0.764D-03 0.923D-02 0.219D-01-0.395D-03-0.114D+00-0.111D+00
 Coeff:      0.427D+00 0.769D+00
 Gap=     0.285 Goal=   None    Shift=    0.000
 RMSDP=5.07D-08 MaxDP=3.10D-06 DE=-1.50D-09 OVMax= 1.25D-05

 Cycle  14  Pass 1  IDiag  1:
 RMSU=  2.92D-08    CP:  1.00D+00  1.06D+00  8.01D-01  1.45D+00  1.35D+00
                    CP:  1.10D+00  1.27D+00  1.04D+00
 E= -2048.74157852998     Delta-E=       -0.000000000357 Rises=F Damp=F
 DIIS: error= 1.92D-07 at cycle   9 NSaved=   9.
 NSaved= 9 IEnMin= 9 EnMin= -2048.74157852998     IErMin= 9 ErrMin= 1.92D-07
 ErrMax= 1.92D-07  0.00D+00 EMaxC= 1.00D-01 BMatC= 2.48D-11 BMatP= 3.29D-10
 IDIUse=1 WtCom= 1.00D+00 WtEn= 0.00D+00
 Coeff-Com: -0.407D-03 0.431D-02 0.104D-01 0.922D-03-0.492D-01-0.561D-01
 Coeff-Com:  0.799D-01 0.275D+00 0.735D+00
 Coeff:     -0.407D-03 0.431D-02 0.104D-01 0.922D-03-0.492D-01-0.561D-01
 Coeff:      0.799D-01 0.275D+00 0.735D+00
 Gap=     0.285 Goal=   None    Shift=    0.000
 RMSDP=1.35D-08 MaxDP=5.99D-07 DE=-3.57D-10 OVMax= 3.52D-06

 Cycle  15  Pass 1  IDiag  1:
 RMSU=  8.97D-09    CP:  1.00D+00  1.06D+00  8.00D-01  1.45D+00  1.35D+00
                    CP:  1.11D+00  1.30D+00  1.18D+00  1.12D+00
 E= -2048.74157853014     Delta-E=       -0.000000000169 Rises=F Damp=F
 DIIS: error= 5.40D-08 at cycle  10 NSaved=  10.
 NSaved=10 IEnMin=10 EnMin= -2048.74157853014     IErMin=10 ErrMin= 5.40D-08
 ErrMax= 5.40D-08  0.00D+00 EMaxC= 1.00D-01 BMatC= 4.72D-12 BMatP= 2.48D-11
 IDIUse=1 WtCom= 1.00D+00 WtEn= 0.00D+00
 Coeff-Com:  0.191D-04-0.444D-03-0.957D-03 0.229D-03 0.686D-02 0.360D-02
 Coeff-Com: -0.598D-01-0.754D-01 0.259D+00 0.867D+00
 Coeff:      0.191D-04-0.444D-03-0.957D-03 0.229D-03 0.686D-02 0.360D-02
 Coeff:     -0.598D-01-0.754D-01 0.259D+00 0.867D+00
 Gap=     0.285 Goal=   None    Shift=    0.000
 RMSDP=6.99D-09 MaxDP=2.92D-07 DE=-1.69D-10 OVMax= 1.72D-06

 SCF Done:  E(RwB97XD) =  -2048.74157853     A.U. after   15 cycles
            NFock= 15  Conv=0.70D-08     -V/T= 2.0054
 KE= 2.037802381002D+03 PE=-1.583460085613D+04 EE= 6.221010899623D+03
 Leave Link  502 at Thu Jan 18 04:03:38 2018, MaxMem=  4294967296 cpu:           21245.5 elap:             691.5
 (Enter /share/apps/g16/l601.exe)
 Copying SCF densities to generalized density rwf, IOpCl= 0 IROHF=0.

 **********************************************************************

            Population analysis using the SCF density.

 **********************************************************************

 Orbital symmetries:
       Occupied  (A) (A) (A) (A) (A) (A) (A) (A) (A) (A) (A) (A)
                 (A) (A) (A) (A) (A) (A) (A) (A) (A) (A) (A) (A)
                 (A) (A) (A) (A) (A) (A) (A) (A) (A) (A) (A) (A)
                 (A) (A) (A) (A) (A) (A) (A) (A) (A) (A) (A) (A)
                 (A) (A) (A) (A) (A) (A) (A) (A) (A) (A) (A) (A)
                 (A) (A) (A) (A) (A) (A) (A) (A) (A) (A) (A) (A)
                 (A) (A) (A) (A) (A) (A) (A) (A) (A) (A) (A) (A)
                 (A) (A) (A) (A) (A) (A) (A) (A) (A) (A) (A) (A)
                 (A) (A) (A) (A) (A) (A) (A) (A) (A) (A) (A) (A)
                 (A) (A) (A) (A) (A) (A) (A) (A) (A) (A) (A) (A)
                 (A) (A) (A) (A) (A) (A) (A) (A) (A) (A) (A) (A)
                 (A) (A) (A) (A) (A) (A) (A) (A) (A) (A) (A) (A)
                 (A) (A) (A) (A) (A) (A) (A) (A) (A) (A)
       Virtual   (A) (A) (A) (A) (A) (A) (A) (A) (A) (A) (A) (A)
                 (A) (A) (A) (A) (A) (A) (A) (A) (A) (A) (A) (A)
                 (A) (A) (A) (A) (A) (A) (A) (A) (A) (A) (A) (A)
                 (A) (A) (A) (A) (A) (A) (A) (A) (A) (A) (A) (A)
                 (A) (A) (A) (A) (A) (A) (A) (A) (A) (A) (A) (A)
                 (A) (A) (A) (A) (A) (A) (A) (A) (A) (A) (A) (A)
                 (A) (A) (A) (A) (A) (A) (A) (A) (A) (A) (A) (A)
                 (A) (A) (A) (A) (A) (A) (A) (A) (A) (A) (A) (A)
                 (A) (A) (A) (A) (A) (A) (A) (A) (A) (A) (A) (A)
                 (A) (A) (A) (A) (A) (A) (A) (A) (A) (A) (A) (A)
                 (A) (A) (A) (A) (A) (A) (A) (A) (A) (A) (A) (A)
                 (A) (A) (A) (A) (A) (A) (A) (A) (A) (A) (A) (A)
                 (A) (A) (A) (A) (A) (A) (A) (A) (A) (A) (A) (A)
                 (A) (A) (A) (A) (A) (A) (A) (A) (A) (A) (A) (A)
                 (A) (A) (A) (A) (A) (A) (A) (A) (A) (A) (A) (A)
                 (A) (A) (A) (A) (A) (A) (A) (A) (A) (A) (A) (A)
                 (A) (A) (A) (A) (A) (A) (A) (A) (A) (A) (A) (A)
                 (A) (A) (A) (A) (A) (A) (A) (A) (A) (A) (A) (A)
                 (A) (A) (A) (A) (A) (A) (A) (A) (A) (A) (A) (A)
                 (A) (A) (A) (A) (A) (A) (A) (A) (A) (A) (A) (A)
                 (A) (A) (A) (A) (A) (A) (A) (A) (A) (A) (A) (A)
                 (A) (A) (A) (A) (A) (A) (A) (A) (A) (A) (A) (A)
                 (A) (A) (A) (A) (A) (A) (A) (A) (A) (A) (A) (A)
                 (A) (A) (A) (A) (A) (A) (A) (A) (A) (A) (A) (A)
                 (A) (A) (A) (A) (A) (A) (A) (A) (A) (A) (A) (A)
                 (A) (A) (A) (A) (A) (A) (A) (A) (A) (A) (A) (A)
                 (A) (A) (A) (A) (A) (A) (A) (A) (A) (A) (A) (A)
                 (A) (A) (A) (A) (A) (A) (A) (A) (A) (A) (A) (A)
                 (A) (A) (A) (A) (A) (A) (A) (A) (A) (A) (A) (A)
                 (A) (A) (A) (A) (A) (A) (A) (A) (A) (A) (A) (A)
                 (A) (A) (A) (A) (A) (A) (A) (A) (A) (A) (A) (A)
                 (A) (A) (A) (A) (A) (A) (A) (A) (A) (A) (A) (A)
                 (A) (A) (A) (A) (A) (A) (A) (A) (A) (A) (A) (A)
                 (A) (A) (A) (A) (A) (A) (A) (A) (A) (A) (A) (A)
                 (A) (A) (A) (A) (A) (A) (A) (A) (A) (A) (A) (A)
                 (A) (A) (A) (A) (A) (A) (A) (A) (A) (A) (A) (A)
                 (A) (A) (A) (A) (A) (A) (A) (A) (A) (A) (A) (A)
                 (A) (A) (A) (A) (A) (A) (A) (A) (A) (A) (A) (A)
                 (A) (A) (A) (A) (A) (A) (A) (A) (A) (A) (A) (A)
                 (A) (A) (A) (A) (A) (A) (A) (A) (A) (A) (A) (A)
                 (A) (A) (A) (A) (A) (A) (A) (A) (A) (A) (A) (A)
                 (A) (A) (A) (A) (A) (A) (A) (A) (A) (A) (A) (A)
                 (A) (A) (A) (A) (A) (A) (A) (A) (A) (A) (A) (A)
                 (A) (A) (A) (A) (A) (A) (A) (A) (A) (A) (A) (A)
                 (A) (A) (A) (A) (A) (A) (A) (A) (A) (A) (A) (A)
                 (A) (A) (A) (A) (A) (A) (A) (A) (A) (A) (A) (A)
                 (A) (A) (A) (A) (A) (A) (A) (A) (A) (A) (A) (A)
                 (A) (A) (A) (A) (A) (A) (A) (A) (A) (A) (A) (A)
                 (A) (A) (A) (A) (A) (A) (A)
 The electronic state is 1-A.
 Alpha  occ. eigenvalues --  -19.25442 -19.22065 -19.20867 -14.52360 -14.51943
 Alpha  occ. eigenvalues --  -14.49311 -14.48790 -14.47438 -14.47434 -14.47064
 Alpha  occ. eigenvalues --  -14.46840 -14.45210 -14.44278 -14.44155 -14.42352
 Alpha  occ. eigenvalues --  -14.42219 -14.41334 -14.41139 -14.40997 -14.40579
 Alpha  occ. eigenvalues --  -10.45004 -10.41449 -10.39995 -10.39610 -10.38503
 Alpha  occ. eigenvalues --  -10.37797 -10.37034 -10.36984 -10.35759 -10.35603
 Alpha  occ. eigenvalues --  -10.34792 -10.34723 -10.33902 -10.33870 -10.33793
 Alpha  occ. eigenvalues --  -10.33463 -10.33310 -10.32442 -10.31600 -10.31341
 Alpha  occ. eigenvalues --  -10.30444 -10.28581 -10.28481  -1.19008  -1.15064
 Alpha  occ. eigenvalues --   -1.13470  -1.13044  -1.11332  -1.11003  -1.09185
 Alpha  occ. eigenvalues --   -1.08865  -1.08724  -1.05246  -1.04593  -1.02172
 Alpha  occ. eigenvalues --   -1.00772  -1.00560  -0.99940  -0.98823  -0.97097
 Alpha  occ. eigenvalues --   -0.96905  -0.96652  -0.92906  -0.90561  -0.87471
 Alpha  occ. eigenvalues --   -0.85778  -0.84590  -0.84012  -0.83245  -0.83001
 Alpha  occ. eigenvalues --   -0.82465  -0.78427  -0.76822  -0.74990  -0.74721
 Alpha  occ. eigenvalues --   -0.73858  -0.72998  -0.72962  -0.71176  -0.70146
 Alpha  occ. eigenvalues --   -0.67661  -0.66648  -0.66409  -0.66065  -0.64634
 Alpha  occ. eigenvalues --   -0.63946  -0.63728  -0.62840  -0.62802  -0.62034
 Alpha  occ. eigenvalues --   -0.60555  -0.60488  -0.60170  -0.59368  -0.59082
 Alpha  occ. eigenvalues --   -0.58838  -0.58560  -0.57847  -0.56684  -0.56035
 Alpha  occ. eigenvalues --   -0.55864  -0.55583  -0.55097  -0.54601  -0.54279
 Alpha  occ. eigenvalues --   -0.54022  -0.53715  -0.53506  -0.53255  -0.52961
 Alpha  occ. eigenvalues --   -0.52626  -0.52019  -0.51890  -0.50874  -0.50527
 Alpha  occ. eigenvalues --   -0.50418  -0.49931  -0.49701  -0.49206  -0.49012
 Alpha  occ. eigenvalues --   -0.48987  -0.48624  -0.48300  -0.47499  -0.47400
 Alpha  occ. eigenvalues --   -0.47086  -0.46124  -0.44894  -0.44849  -0.43017
 Alpha  occ. eigenvalues --   -0.41196  -0.40557  -0.39171  -0.37909  -0.37587
 Alpha  occ. eigenvalues --   -0.37474  -0.37292  -0.37093  -0.35853  -0.34565
 Alpha  occ. eigenvalues --   -0.34362  -0.33988  -0.33754  -0.33467  -0.33330
 Alpha  occ. eigenvalues --   -0.32964  -0.32468  -0.31936  -0.31277  -0.31024
 Alpha  occ. eigenvalues --   -0.30552  -0.29776  -0.26734  -0.24912
 Alpha virt. eigenvalues --    0.03552   0.04220   0.06683   0.07522   0.08639
 Alpha virt. eigenvalues --    0.09220   0.09691   0.10629   0.11020   0.11859
 Alpha virt. eigenvalues --    0.12863   0.13495   0.14213   0.14447   0.14972
 Alpha virt. eigenvalues --    0.15626   0.16255   0.17079   0.17786   0.18492
 Alpha virt. eigenvalues --    0.18894   0.19326   0.19454   0.20159   0.20858
 Alpha virt. eigenvalues --    0.21085   0.21189   0.21359   0.21967   0.22077
 Alpha virt. eigenvalues --    0.22516   0.22631   0.22906   0.23405   0.23634
 Alpha virt. eigenvalues --    0.23909   0.23979   0.24322   0.24898   0.25152
 Alpha virt. eigenvalues --    0.26312   0.26996   0.27492   0.27599   0.28803
 Alpha virt. eigenvalues --    0.29055   0.29212   0.29285   0.30239   0.30712
 Alpha virt. eigenvalues --    0.31565   0.31872   0.32289   0.32983   0.33243
 Alpha virt. eigenvalues --    0.34342   0.34693   0.35198   0.35787   0.36332
 Alpha virt. eigenvalues --    0.36658   0.36950   0.37468   0.37855   0.39572
 Alpha virt. eigenvalues --    0.39717   0.40187   0.40635   0.41265   0.41792
 Alpha virt. eigenvalues --    0.42291   0.42827   0.43233   0.44077   0.44343
 Alpha virt. eigenvalues --    0.44985   0.45070   0.45820   0.46012   0.46581
 Alpha virt. eigenvalues --    0.47136   0.47331   0.47992   0.48369   0.48969
 Alpha virt. eigenvalues --    0.49765   0.50213   0.50442   0.51029   0.51522
 Alpha virt. eigenvalues --    0.51643   0.51839   0.52421   0.52786   0.52944
 Alpha virt. eigenvalues --    0.53675   0.53909   0.54213   0.54961   0.55389
 Alpha virt. eigenvalues --    0.55524   0.55743   0.56275   0.56771   0.57403
 Alpha virt. eigenvalues --    0.57947   0.58196   0.58671   0.59118   0.59578
 Alpha virt. eigenvalues --    0.59843   0.59918   0.60542   0.61390   0.61695
 Alpha virt. eigenvalues --    0.61930   0.62209   0.62840   0.63372   0.63628
 Alpha virt. eigenvalues --    0.64172   0.64294   0.64783   0.65220   0.65723
 Alpha virt. eigenvalues --    0.66326   0.66359   0.66479   0.67081   0.67212
 Alpha virt. eigenvalues --    0.67991   0.68676   0.69037   0.69407   0.69752
 Alpha virt. eigenvalues --    0.70575   0.71031   0.71414   0.71817   0.72097
 Alpha virt. eigenvalues --    0.72526   0.72781   0.73186   0.73768   0.73943
 Alpha virt. eigenvalues --    0.74241   0.74699   0.75259   0.75364   0.75808
 Alpha virt. eigenvalues --    0.76129   0.76407   0.76861   0.76896   0.77925
 Alpha virt. eigenvalues --    0.78174   0.78357   0.78655   0.78899   0.79706
 Alpha virt. eigenvalues --    0.80036   0.80272   0.80617   0.80857   0.81127
 Alpha virt. eigenvalues --    0.81818   0.81989   0.82591   0.83253   0.83356
 Alpha virt. eigenvalues --    0.83957   0.84353   0.84632   0.85151   0.85597
 Alpha virt. eigenvalues --    0.85714   0.85953   0.86255   0.86745   0.87100
 Alpha virt. eigenvalues --    0.87904   0.88299   0.88806   0.89391   0.89900
 Alpha virt. eigenvalues --    0.90093   0.90454   0.91206   0.91290   0.91674
 Alpha virt. eigenvalues --    0.92869   0.93349   0.94088   0.94293   0.94351
 Alpha virt. eigenvalues --    0.94670   0.95680   0.95902   0.96207   0.96422
 Alpha virt. eigenvalues --    0.97030   0.97357   0.97800   0.98002   0.98430
 Alpha virt. eigenvalues --    0.98797   0.99281   0.99401   1.00472   1.00685
 Alpha virt. eigenvalues --    1.01552   1.02216   1.02743   1.02904   1.03150
 Alpha virt. eigenvalues --    1.04243   1.04460   1.04809   1.05306   1.05679
 Alpha virt. eigenvalues --    1.06214   1.06717   1.07082   1.07511   1.07742
 Alpha virt. eigenvalues --    1.09119   1.09390   1.09903   1.09963   1.10297
 Alpha virt. eigenvalues --    1.11161   1.12286   1.12789   1.13616   1.13720
 Alpha virt. eigenvalues --    1.13990   1.14598   1.15340   1.15711   1.16042
 Alpha virt. eigenvalues --    1.16561   1.16800   1.17335   1.17834   1.18038
 Alpha virt. eigenvalues --    1.18810   1.18868   1.19212   1.19783   1.20036
 Alpha virt. eigenvalues --    1.20625   1.20768   1.21441   1.21630   1.22096
 Alpha virt. eigenvalues --    1.22168   1.22843   1.23100   1.23427   1.23829
 Alpha virt. eigenvalues --    1.24047   1.24789   1.25065   1.25706   1.25809
 Alpha virt. eigenvalues --    1.26307   1.27154   1.27885   1.28283   1.28853
 Alpha virt. eigenvalues --    1.29259   1.29490   1.30311   1.30730   1.31793
 Alpha virt. eigenvalues --    1.32405   1.32732   1.33253   1.34288   1.34435
 Alpha virt. eigenvalues --    1.34955   1.35766   1.36063   1.36389   1.36580
 Alpha virt. eigenvalues --    1.37602   1.38669   1.39051   1.39875   1.40784
 Alpha virt. eigenvalues --    1.41045   1.41722   1.42516   1.43249   1.44686
 Alpha virt. eigenvalues --    1.45616   1.45932   1.46575   1.46769   1.47353
 Alpha virt. eigenvalues --    1.47962   1.48506   1.50014   1.50185   1.51625
 Alpha virt. eigenvalues --    1.51947   1.52089   1.53423   1.53656   1.53983
 Alpha virt. eigenvalues --    1.55332   1.56276   1.56407   1.56599   1.57278
 Alpha virt. eigenvalues --    1.58049   1.58875   1.59726   1.60289   1.60867
 Alpha virt. eigenvalues --    1.61105   1.61543   1.62606   1.63667   1.64811
 Alpha virt. eigenvalues --    1.65088   1.65431   1.65863   1.66113   1.66672
 Alpha virt. eigenvalues --    1.67136   1.67963   1.68377   1.69010   1.70026
 Alpha virt. eigenvalues --    1.70445   1.71048   1.71241   1.71874   1.72067
 Alpha virt. eigenvalues --    1.72359   1.73164   1.73430   1.73743   1.74011
 Alpha virt. eigenvalues --    1.74244   1.74466   1.74961   1.75418   1.75777
 Alpha virt. eigenvalues --    1.76068   1.76592   1.76677   1.77304   1.77448
 Alpha virt. eigenvalues --    1.77898   1.78342   1.78831   1.78980   1.79322
 Alpha virt. eigenvalues --    1.79534   1.79692   1.80449   1.80730   1.81078
 Alpha virt. eigenvalues --    1.81419   1.81636   1.82164   1.82780   1.83328
 Alpha virt. eigenvalues --    1.83712   1.84034   1.84755   1.85167   1.85319
 Alpha virt. eigenvalues --    1.85550   1.86071   1.86884   1.87373   1.87565
 Alpha virt. eigenvalues --    1.87991   1.88246   1.88801   1.89358   1.90171
 Alpha virt. eigenvalues --    1.90496   1.90795   1.91276   1.92184   1.93070
 Alpha virt. eigenvalues --    1.93169   1.93506   1.94331   1.95230   1.95323
 Alpha virt. eigenvalues --    1.95805   1.96362   1.97225   1.97851   1.98299
 Alpha virt. eigenvalues --    1.98748   1.99680   2.00639   2.01378   2.01749
 Alpha virt. eigenvalues --    2.02123   2.02771   2.03201   2.03981   2.04289
 Alpha virt. eigenvalues --    2.04562   2.05220   2.06890   2.07280   2.07533
 Alpha virt. eigenvalues --    2.07760   2.08195   2.08882   2.09439   2.10712
 Alpha virt. eigenvalues --    2.11100   2.11492   2.12728   2.13579   2.13961
 Alpha virt. eigenvalues --    2.14761   2.14981   2.17089   2.17860   2.18668
 Alpha virt. eigenvalues --    2.19124   2.19528   2.20717   2.21197   2.21707
 Alpha virt. eigenvalues --    2.22092   2.22608   2.22932   2.23597   2.24124
 Alpha virt. eigenvalues --    2.24356   2.25813   2.25905   2.27040   2.27256
 Alpha virt. eigenvalues --    2.27621   2.28063   2.28959   2.29146   2.29870
 Alpha virt. eigenvalues --    2.30357   2.31484   2.31681   2.32383   2.32726
 Alpha virt. eigenvalues --    2.32926   2.33402   2.33715   2.33915   2.34062
 Alpha virt. eigenvalues --    2.34808   2.35800   2.36033   2.37207   2.37955
 Alpha virt. eigenvalues --    2.38233   2.38836   2.40083   2.40805   2.41909
 Alpha virt. eigenvalues --    2.42387   2.43060   2.43500   2.43959   2.44347
 Alpha virt. eigenvalues --    2.45162   2.45355   2.45856   2.46512   2.47774
 Alpha virt. eigenvalues --    2.48368   2.49939   2.50754   2.50782   2.51282
 Alpha virt. eigenvalues --    2.52464   2.53824   2.54555   2.55480   2.55696
 Alpha virt. eigenvalues --    2.56852   2.58413   2.58905   2.59904   2.61257
 Alpha virt. eigenvalues --    2.61696   2.61930   2.62129   2.63540   2.64057
 Alpha virt. eigenvalues --    2.64444   2.64868   2.65185   2.65424   2.66002
 Alpha virt. eigenvalues --    2.67279   2.68447   2.68560   2.69013   2.69327
 Alpha virt. eigenvalues --    2.70015   2.70268   2.70716   2.72381   2.73334
 Alpha virt. eigenvalues --    2.73636   2.74532   2.75529   2.76657   2.77138
 Alpha virt. eigenvalues --    2.77369   2.78347   2.78657   2.78846   2.79566
 Alpha virt. eigenvalues --    2.79753   2.79954   2.80845   2.81340   2.81520
 Alpha virt. eigenvalues --    2.82381   2.82531   2.83385   2.83877   2.84290
 Alpha virt. eigenvalues --    2.85280   2.85934   2.86394   2.86511   2.86766
 Alpha virt. eigenvalues --    2.87583   2.88117   2.88992   2.92022   2.94245
 Alpha virt. eigenvalues --    2.94992   2.96203   2.96458   2.97750   2.99624
 Alpha virt. eigenvalues --    3.00354   3.01378   3.01955   3.04765   3.05852
 Alpha virt. eigenvalues --    3.06496   3.10457   3.10827   3.13333   3.14554
 Alpha virt. eigenvalues --    3.15628   3.16049   3.17011   3.18346   3.21019
 Alpha virt. eigenvalues --    3.21218   3.23380   3.23797   3.24032   3.28013
 Alpha virt. eigenvalues --    3.45173   3.47115   3.47354   3.49382   3.50611
 Alpha virt. eigenvalues --    3.53128   3.54967   3.56042   3.57746   3.60052
 Alpha virt. eigenvalues --    3.63287   3.70813   3.75608
          Condensed to atoms (all electrons):
 Mulliken charges:
               1
     1  N   -0.305126
     2  C    0.184784
     3  C    0.040055
     4  N   -0.234208
     5  C    0.139857
     6  H    0.023510
     7  N   -0.294478
     8  C    0.130377
     9  H    0.010014
    10  N   -0.285743
    11  C    0.241664
    12  C    0.079028
    13  N   -0.045511
    14  H    0.118242
    15  H    0.087187
    16  H    0.026796
    17  H    0.034629
    18  H    0.010512
    19  N   -0.305804
    20  C    0.258304
    21  C    0.183211
    22  N   -0.124020
    23  H    0.118207
    24  H    0.119707
    25  N   -0.310520
    26  C    0.250416
    27  N   -0.145344
    28  H    0.121234
    29  C    0.188266
    30  O   -0.321764
    31  C   -0.015168
    32  N   -0.209726
    33  C    0.107389
    34  H    0.020330
    35  H    0.013859
    36  H    0.033701
    37  H    0.027341
    38  H    0.049436
    39  H    0.056296
    40  H    0.075571
    41  H    0.014027
    42  C   -0.103389
    43  O   -0.282924
    44  C    0.176010
    45  H    0.127651
    46  N   -0.108250
    47  O   -0.351900
    48  C    0.335192
    49  H    0.044700
    50  C    0.172393
    51  C    0.047653
    52  N   -0.275810
    53  H    0.036242
    54  H    0.041736
    55  H    0.027656
    56  H    0.126856
    57  H    0.116168
    58  N   -0.039390
    59  C    0.067882
    60  C    0.229961
    61  N   -0.267216
    62  H    0.031630
    63  C    0.161970
    64  N   -0.300470
    65  H    0.037458
    66  C    0.132355
    67  N   -0.256400
    68  C    0.039370
    69  C    0.177474
    70  N   -0.311150
 Sum of Mulliken charges =  -0.00000
 Mulliken charges with hydrogens summed into heavy atoms:
               1
     1  N   -0.305126
     2  C    0.256722
     3  C    0.040055
     4  N   -0.234208
     5  C    0.163368
     7  N   -0.294478
     8  C    0.140391
    10  N   -0.285743
    11  C    0.241664
    12  C    0.079028
    13  N    0.159918
    19  N   -0.305804
    20  C    0.258304
    21  C    0.258112
    22  N    0.113895
    25  N   -0.310520
    26  C    0.250416
    27  N   -0.024110
    29  C    0.188266
    30  O   -0.321764
    31  C   -0.015168
    32  N   -0.209726
    33  C    0.127719
    42  C   -0.089362
    43  O   -0.282924
    44  C    0.176010
    46  N    0.019401
    47  O   -0.351900
    48  C    0.335192
    50  C    0.217093
    51  C    0.228956
    52  N   -0.275810
    58  N    0.203634
    59  C    0.067882
    60  C    0.229961
    61  N   -0.267216
    63  C    0.193601
    64  N   -0.300470
    66  C    0.169813
    67  N   -0.256400
    68  C    0.039370
    69  C    0.283108
    70  N   -0.311150
 Electronic spatial extent (au):  <R**2>=          22782.5739
 Charge=             -0.0000 electrons
 Dipole moment (field-independent basis, Debye):
    X=             -4.8466    Y=              3.8172    Z=             -6.8606  Tot=              9.2265
 Quadrupole moment (field-independent basis, Debye-Ang):
   XX=           -146.1954   YY=           -234.1683   ZZ=           -250.4244
   XY=            -10.1494   XZ=              3.3964   YZ=            -15.6048
 Traceless Quadrupole moment (field-independent basis, Debye-Ang):
   XX=             64.0673   YY=            -23.9056   ZZ=            -40.1617
   XY=            -10.1494   XZ=              3.3964   YZ=            -15.6048
 Octapole moment (field-independent basis, Debye-Ang**2):
  XXX=             91.7123  YYY=             46.0125  ZZZ=            -97.2094  XYY=             -5.9527
  XXY=             35.0304  XXZ=           -136.5360  XZZ=           -100.7762  YZZ=             18.3484
  YYZ=             -8.4654  XYZ=              4.8862
 Hexadecapole moment (field-independent basis, Debye-Ang**3):
 XXXX=         -16909.8894 YYYY=          -4335.0873 ZZZZ=          -3668.3161 XXXY=           -430.9488
 XXXZ=            684.9656 YYYX=            -78.5645 YYYZ=           -156.5410 ZZZX=             89.5791
 ZZZY=           -209.3972 XXYY=          -4132.2118 XXZZ=          -3887.4503 YYZZ=          -1213.1028
 XXYZ=            -68.9742 YYXZ=            -76.4336 ZZXY=            111.8316
 N-N= 5.527045996974D+03 E-N=-1.583460084738D+04  KE= 2.037802381002D+03
 No NMR shielding tensors so no spin-rotation constants.
 Leave Link  601 at Thu Jan 18 04:03:39 2018, MaxMem=  4294967296 cpu:              45.6 elap:               1.6
 (Enter /share/apps/g16/l9999.exe)
 1\1\GINC-COMPUTE-0-3\SP\RwB97XD\CC-pVDZ\C23H27N17O3\SATYA\18-Jan-2018\
 0\\#p wb97xd/cc-pvdz sp scf=(maxcycles=20)\\Base pair stacking\\0,1\N,
 0,1.94557,2.73424,-6.44699\C,0,1.57216,4.08384,-6.91298\C,0,1.98726,0.
 56348,-6.09576\N,0,3.06826,1.08949,-5.40331\C,0,2.99988,2.37624,-5.642
 63\H,0,3.69915,3.11716,-5.25405\N,0,0.40418,-0.93139,-7.0025\C,0,-0.16
 739,0.13681,-7.56803\H,0,-1.05228,-0.07213,-8.16768\N,0,0.18833,1.4183
 4,-7.50434\C,0,1.28589,1.56521,-6.74394\C,0,1.50697,-0.75046,-6.24341\
 N,0,2.07896,-1.81553,-5.67805\H,0,2.89678,-1.7285,-5.10814\H,0,1.7097,
 -2.73625,-5.80482\H,0,2.32407,4.47442,-7.44426\H,0,0.75546,4.02522,-7.
 4863\H,0,1.38304,4.67024,-6.12534\N,0,-0.17175,3.42291,-3.49443\C,0,-0
 .67822,2.1498,-3.59798\C,0,-0.90562,4.66263,-3.81884\N,0,-3.29782,0.00
 964,-4.38486\H,0,-3.47009,-0.97501,-4.3889\H,0,-4.04804,0.60271,-4.678
 39\N,0,-1.92139,1.82013,-4.01019\C,0,-2.11429,0.51309,-4.00315\N,0,-1.
 16378,-0.40273,-3.62196\H,0,-1.39939,-1.38292,-3.6482\C,0,0.12182,-0.0
 8614,-3.19431\O,0,0.90359,-0.9894,-2.87231\C,0,0.34391,1.31441,-3.1965
 2\N,0,1.46943,2.0483,-2.84794\C,0,1.11772,3.29071,-3.04006\H,0,1.76246
 ,4.15272,-2.86535\H,0,-0.4276,5.15437,-4.54582\H,0,-1.82791,4.43095,-4
 .12538\H,0,-0.96125,5.24142,-3.006\H,0,-2.97633,-6.11918,-4.61451\H,0,
 -3.30428,-6.14095,-2.88344\H,0,-3.44435,-4.63298,-3.78775\H,0,1.46093,
 -6.8038,-2.88576\C,0,0.74035,-5.9957,-3.01211\O,0,2.33828,-4.27276,-2.
 68772\C,0,1.1847,-4.63918,-2.91087\H,0,0.4688,-2.72519,-3.02243\N,0,0.
 19327,-3.69507,-3.08682\O,0,-1.93971,-3.02345,-3.48246\C,0,-1.13514,-3
 .92757,-3.34141\H,0,-0.93755,-7.26809,-3.34598\C,0,-0.54903,-6.25422,-
 3.25963\C,0,-2.89527,-5.55824,-3.69536\N,0,-1.48604,-5.26067,-3.42465\
 H,0,-2.87527,-7.97551,-8.52164\H,0,-3.27368,-6.57702,-7.78164\H,0,-3.5
 5897,-8.00273,-7.04\H,0,2.99236,-5.28202,-4.86357\H,0,2.69588,-6.95365
 ,-5.0305\N,0,2.37848,-6.01363,-5.16029\C,0,1.18925,-5.74858,-5.70495\C
 ,0,-0.90604,-6.3097,-6.68302\N,0,-1.30618,-5.03767,-6.84508\H,0,-0.620
 68,-3.13828,-6.49435\C,0,-0.37585,-4.19537,-6.40018\N,0,0.81587,-4.458
 87,-5.85434\H,0,-1.08205,-9.53488,-6.82213\C,0,-0.78088,-8.49885,-6.66
 443\N,0,0.3573,-8.12648,-6.13192\C,0,0.29081,-6.74074,-6.1378\C,0,-2.9
 3242,-7.50588,-7.64063\N,0,-1.59398,-7.45088,-7.02129\\Version=EM64L-G
 16RevA.03\State=1-A\HF=-2048.7415785\RMSD=6.987e-09\Dipole=-3.1892265,
 -1.4410274,-0.9639206\Quadrupole=-9.2935575,44.7643991,-35.4708416,15.
 0213581,-5.3044302,2.8451615\PG=C01 [X(C23H27N17O3)]\\@


 I SUPPOSE A BABY LLAMA HAS A MMAMA AND A PPOPA.
     -- RICHARD AMOUR
 Job cpu time:       0 days  6 hours  4 minutes 18.0 seconds.
 Elapsed time:       0 days  0 hours 11 minutes 51.1 seconds.
 File lengths (MBytes):  RWF=    298 Int=      0 D2E=      0 Chk=     33 Scr=      1
 Normal termination of Gaussian 16 at Thu Jan 18 04:03:40 2018.
