 Entering Gaussian System, Link 0=g16
 Input=str10.-5.1.0.com
 Output=str10.-5.1.0.log
 Initial command:
 /share/apps/g16/l1.exe "/state/partition1/scr/Gau-16971.inp" -scrdir="/state/partition1/scr/"
 Entering Link 1 = /share/apps/g16/l1.exe PID=     16972.
  
 Copyright (c) 1988,1990,1992,1993,1995,1998,2003,2009,2016,
            Gaussian, Inc.  All Rights Reserved.
  
 This is part of the Gaussian(R) 16 program.  It is based on
 the Gaussian(R) 09 system (copyright 2009, Gaussian, Inc.),
 the Gaussian(R) 03 system (copyright 2003, Gaussian, Inc.),
 the Gaussian(R) 98 system (copyright 1998, Gaussian, Inc.),
 the Gaussian(R) 94 system (copyright 1995, Gaussian, Inc.),
 the Gaussian 92(TM) system (copyright 1992, Gaussian, Inc.),
 the Gaussian 90(TM) system (copyright 1990, Gaussian, Inc.),
 the Gaussian 88(TM) system (copyright 1988, Gaussian, Inc.),
 the Gaussian 86(TM) system (copyright 1986, Carnegie Mellon
 University), and the Gaussian 82(TM) system (copyright 1983,
 Carnegie Mellon University). Gaussian is a federally registered
 trademark of Gaussian, Inc.
  
 This software contains proprietary and confidential information,
 including trade secrets, belonging to Gaussian, Inc.
  
 This software is provided under written license and may be
 used, copied, transmitted, or stored only in accord with that
 written license.
  
 The following legend is applicable only to US Government
 contracts under FAR:
  
                    RESTRICTED RIGHTS LEGEND
  
 Use, reproduction and disclosure by the US Government is
 subject to restrictions as set forth in subparagraphs (a)
 and (c) of the Commercial Computer Software - Restricted
 Rights clause in FAR 52.227-19.
  
 Gaussian, Inc.
 340 Quinnipiac St., Bldg. 40, Wallingford CT 06492
  
  
 ---------------------------------------------------------------
 Warning -- This program may not be used in any manner that
 competes with the business of Gaussian, Inc. or will provide
 assistance to any competitor of Gaussian, Inc.  The licensee
 of this program is prohibited from giving any competitor of
 Gaussian, Inc. access to this program.  By using this program,
 the user acknowledges that Gaussian, Inc. is engaged in the
 business of creating and licensing software in the field of
 computational chemistry and represents and warrants to the
 licensee that it is not a competitor of Gaussian, Inc. and that
 it will not use this program in any manner prohibited above.
 ---------------------------------------------------------------
  

 Cite this work as:
 Gaussian 16, Revision A.03,
 M. J. Frisch, G. W. Trucks, H. B. Schlegel, G. E. Scuseria, 
 M. A. Robb, J. R. Cheeseman, G. Scalmani, V. Barone, 
 G. A. Petersson, H. Nakatsuji, X. Li, M. Caricato, A. V. Marenich, 
 J. Bloino, B. G. Janesko, R. Gomperts, B. Mennucci, H. P. Hratchian, 
 J. V. Ortiz, A. F. Izmaylov, J. L. Sonnenberg, D. Williams-Young, 
 F. Ding, F. Lipparini, F. Egidi, J. Goings, B. Peng, A. Petrone, 
 T. Henderson, D. Ranasinghe, V. G. Zakrzewski, J. Gao, N. Rega, 
 G. Zheng, W. Liang, M. Hada, M. Ehara, K. Toyota, R. Fukuda, 
 J. Hasegawa, M. Ishida, T. Nakajima, Y. Honda, O. Kitao, H. Nakai, 
 T. Vreven, K. Throssell, J. A. Montgomery, Jr., J. E. Peralta, 
 F. Ogliaro, M. J. Bearpark, J. J. Heyd, E. N. Brothers, K. N. Kudin, 
 V. N. Staroverov, T. A. Keith, R. Kobayashi, J. Normand, 
 K. Raghavachari, A. P. Rendell, J. C. Burant, S. S. Iyengar, 
 J. Tomasi, M. Cossi, J. M. Millam, M. Klene, C. Adamo, R. Cammi, 
 J. W. Ochterski, R. L. Martin, K. Morokuma, O. Farkas, 
 J. B. Foresman, and D. J. Fox, Gaussian, Inc., Wallingford CT, 2016.
 
 ******************************************
 Gaussian 16:  EM64L-G16RevA.03 25-Dec-2016
                18-Jan-2018 
 ******************************************
 %nprocshared=32
 Will use up to   32 processors via shared memory.
 %mem=32GB
 %chk=allatoms_t.chk
 ---------------------------------------
 #p wb97xd/cc-pvdz sp scf=(maxcycles=20)
 ---------------------------------------
 1/38=1,172=1/1;
 2/12=2,17=6,18=5,40=1/2;
 3/5=16,11=2,25=1,30=1,74=-58/1,2,3;
 4//1;
 5/5=2,7=20,38=5/2;
 6/7=2,8=2,9=2,10=2,28=1/1;
 99/5=1,9=1/99;
 Leave Link    1 at Thu Jan 18 11:48:54 2018, MaxMem=  4294967296 cpu:               2.7 elap:               0.1
 (Enter /share/apps/g16/l101.exe)
 ------------------
 Base pair stacking
 ------------------
 Symbolic Z-matrix:
 Charge =  0 Multiplicity = 1
 N                    -0.23389   3.91276  -6.35691 
 C                    -0.77255   5.28642  -6.32673 
 C                    -0.05212   1.7209   -6.36084 
 N                     1.24038   2.21767  -6.44698 
 C                     1.07913   3.5183   -6.44116 
 H                     1.89109   4.24395  -6.49677 
 N                    -1.90129   0.26226  -6.2349 
 C                    -2.66575   1.35819  -6.18898 
 H                    -3.7371    1.17521  -6.11841 
 N                    -2.30717   2.6402   -6.21702 
 C                    -0.97157   2.75385  -6.30459 
 C                    -0.56133   0.41011  -6.32287 
 N                     0.20344  -0.68268  -6.36882 
 H                     1.19999  -0.6206   -6.43408 
 H                    -0.19344  -1.60016  -6.33961 
 H                    -0.50994   5.76735  -7.16335 
 H                    -1.76942   5.25298  -6.26157 
 H                    -0.40459   5.77365  -5.53477 
 N                    -0.74975   3.91449  -3.17562 
 C                    -1.26669   2.64189  -3.13923 
 C                    -1.54491   5.1587   -3.19442 
 N                    -4.0069    0.50981  -3.05408 
 H                    -4.17448  -0.47534  -3.02892 
 H                    -4.80969   1.10666  -3.05767 
 N                    -2.57735   2.31689  -3.11473 
 C                    -2.76195   1.00904  -3.0818 
 N                    -1.74236   0.08823  -3.07345 
 H                    -1.97704  -0.89219  -3.04752 
 C                    -0.38661   0.39997  -3.09822 
 O                     0.45422  -0.50757  -3.08787 
 C                    -0.17252   1.80132  -3.13371 
 N                     1.0076    2.53151  -3.16599 
 C                     0.61681   3.77687  -3.19003 
 H                     1.28623   4.6373   -3.21876 
 H                    -1.33994   5.67471  -4.0254 
 H                    -2.51747   4.9305   -3.17655 
 H                    -1.3189    5.71281  -2.39398 
 H                    -3.8084   -5.60742  -3.56272 
 H                    -3.52941  -5.68248  -1.82457 
 H                    -3.96172  -4.14928  -2.58206 
 H                     0.94928  -6.31547  -3.46386 
 C                     0.23202  -5.50845  -3.31388 
 O                     1.85247  -3.78602  -3.49961 
 C                     0.6901   -4.1528   -3.32887 
 H                    -0.01306  -2.24081  -3.13345 
 N                    -0.29819  -3.21005  -3.12953 
 O                    -2.43597  -2.54021  -2.75747 
 C                    -1.63513  -3.44312  -2.92501 
 H                    -1.46496  -6.78076  -3.09644 
 C                    -1.06591  -5.7675   -3.11674 
 C                    -3.41779  -5.07345  -2.70927 
 N                    -1.9991   -4.77531  -2.92411 
 H                    -5.63613  -6.71813  -6.14859 
 H                    -5.43391  -5.42908  -5.16901 
 H                    -5.23591  -6.93912  -4.58193 
 H                     1.31092  -4.17123  -6.71194 
 H                     0.92053  -5.82651  -6.84515 
 N                     0.62337  -4.89372  -6.63822 
 C                    -0.63413  -4.62625  -6.27997 
 C                    -2.89519  -5.17378  -5.78044 
 N                    -3.26595  -3.91166  -5.50843 
 H                    -2.45031  -2.03225  -5.45214 
 C                    -2.23578  -3.08076  -5.65427 
 N                    -0.97556  -3.34671  -6.013 
 H                    -3.22573  -8.36904  -6.14544 
 C                    -2.85846  -7.34362  -6.0949 
 N                    -1.62724  -6.97924  -6.3576 
 C                    -1.63689  -5.60578  -6.16202 
 C                    -5.11079  -6.35092  -5.38102 
 N                    -3.67989  -6.30185  -5.73897 
 
 ITRead=  0  0  0  0  0  0  0  0  0  0  0  0  0  0  0  0  0  0  0  0
 ITRead=  0  0  0  0  0  0  0  0  0  0  0  0  0  0  0  0  0  0  0  0
 ITRead=  0  0  0  0  0  0  0  0  0  0  0  0  0  0  0  0  0  0  0  0
 ITRead=  0  0  0  0  0  0  0  0  0  0
 MicOpt= -1 -1 -1 -1 -1 -1 -1 -1 -1 -1 -1 -1 -1 -1 -1 -1 -1 -1 -1 -1
 MicOpt= -1 -1 -1 -1 -1 -1 -1 -1 -1 -1 -1 -1 -1 -1 -1 -1 -1 -1 -1 -1
 MicOpt= -1 -1 -1 -1 -1 -1 -1 -1 -1 -1 -1 -1 -1 -1 -1 -1 -1 -1 -1 -1
 MicOpt= -1 -1 -1 -1 -1 -1 -1 -1 -1 -1
 NAtoms=     70 NQM=       70 NQMF=       0 NMMI=      0 NMMIF=      0
                NMic=       0 NMicF=      0.
                    Isotopes and Nuclear Properties:
 (Nuclear quadrupole moments (NQMom) in fm**2, nuclear magnetic moments (NMagM)
  in nuclear magnetons)

  Atom         1           2           3           4           5           6           7           8           9          10
 IAtWgt=          14          12          12          14          12           1          14          12           1          14
 AtmWgt=  14.0030740  12.0000000  12.0000000  14.0030740  12.0000000   1.0078250  14.0030740  12.0000000   1.0078250  14.0030740
 NucSpn=           2           0           0           2           0           1           2           0           1           2
 AtZEff=  -0.0000000  -0.0000000  -0.0000000  -0.0000000  -0.0000000  -0.0000000  -0.0000000  -0.0000000  -0.0000000  -0.0000000
 NQMom=    2.0440000   0.0000000   0.0000000   2.0440000   0.0000000   0.0000000   2.0440000   0.0000000   0.0000000   2.0440000
 NMagM=    0.4037610   0.0000000   0.0000000   0.4037610   0.0000000   2.7928460   0.4037610   0.0000000   2.7928460   0.4037610
 AtZNuc=   7.0000000   6.0000000   6.0000000   7.0000000   6.0000000   1.0000000   7.0000000   6.0000000   1.0000000   7.0000000

  Atom        11          12          13          14          15          16          17          18          19          20
 IAtWgt=          12          12          14           1           1           1           1           1          14          12
 AtmWgt=  12.0000000  12.0000000  14.0030740   1.0078250   1.0078250   1.0078250   1.0078250   1.0078250  14.0030740  12.0000000
 NucSpn=           0           0           2           1           1           1           1           1           2           0
 AtZEff=  -0.0000000  -0.0000000  -0.0000000  -0.0000000  -0.0000000  -0.0000000  -0.0000000  -0.0000000  -0.0000000  -0.0000000
 NQMom=    0.0000000   0.0000000   2.0440000   0.0000000   0.0000000   0.0000000   0.0000000   0.0000000   2.0440000   0.0000000
 NMagM=    0.0000000   0.0000000   0.4037610   2.7928460   2.7928460   2.7928460   2.7928460   2.7928460   0.4037610   0.0000000
 AtZNuc=   6.0000000   6.0000000   7.0000000   1.0000000   1.0000000   1.0000000   1.0000000   1.0000000   7.0000000   6.0000000

  Atom        21          22          23          24          25          26          27          28          29          30
 IAtWgt=          12          14           1           1          14          12          14           1          12          16
 AtmWgt=  12.0000000  14.0030740   1.0078250   1.0078250  14.0030740  12.0000000  14.0030740   1.0078250  12.0000000  15.9949146
 NucSpn=           0           2           1           1           2           0           2           1           0           0
 AtZEff=  -0.0000000  -0.0000000  -0.0000000  -0.0000000  -0.0000000  -0.0000000  -0.0000000  -0.0000000  -0.0000000  -0.0000000
 NQMom=    0.0000000   2.0440000   0.0000000   0.0000000   2.0440000   0.0000000   2.0440000   0.0000000   0.0000000   0.0000000
 NMagM=    0.0000000   0.4037610   2.7928460   2.7928460   0.4037610   0.0000000   0.4037610   2.7928460   0.0000000   0.0000000
 AtZNuc=   6.0000000   7.0000000   1.0000000   1.0000000   7.0000000   6.0000000   7.0000000   1.0000000   6.0000000   8.0000000

  Atom        31          32          33          34          35          36          37          38          39          40
 IAtWgt=          12          14          12           1           1           1           1           1           1           1
 AtmWgt=  12.0000000  14.0030740  12.0000000   1.0078250   1.0078250   1.0078250   1.0078250   1.0078250   1.0078250   1.0078250
 NucSpn=           0           2           0           1           1           1           1           1           1           1
 AtZEff=  -0.0000000  -0.0000000  -0.0000000  -0.0000000  -0.0000000  -0.0000000  -0.0000000  -0.0000000  -0.0000000  -0.0000000
 NQMom=    0.0000000   2.0440000   0.0000000   0.0000000   0.0000000   0.0000000   0.0000000   0.0000000   0.0000000   0.0000000
 NMagM=    0.0000000   0.4037610   0.0000000   2.7928460   2.7928460   2.7928460   2.7928460   2.7928460   2.7928460   2.7928460
 AtZNuc=   6.0000000   7.0000000   6.0000000   1.0000000   1.0000000   1.0000000   1.0000000   1.0000000   1.0000000   1.0000000

  Atom        41          42          43          44          45          46          47          48          49          50
 IAtWgt=           1          12          16          12           1          14          16          12           1          12
 AtmWgt=   1.0078250  12.0000000  15.9949146  12.0000000   1.0078250  14.0030740  15.9949146  12.0000000   1.0078250  12.0000000
 NucSpn=           1           0           0           0           1           2           0           0           1           0
 AtZEff=  -0.0000000  -0.0000000  -0.0000000  -0.0000000  -0.0000000  -0.0000000  -0.0000000  -0.0000000  -0.0000000  -0.0000000
 NQMom=    0.0000000   0.0000000   0.0000000   0.0000000   0.0000000   2.0440000   0.0000000   0.0000000   0.0000000   0.0000000
 NMagM=    2.7928460   0.0000000   0.0000000   0.0000000   2.7928460   0.4037610   0.0000000   0.0000000   2.7928460   0.0000000
 AtZNuc=   1.0000000   6.0000000   8.0000000   6.0000000   1.0000000   7.0000000   8.0000000   6.0000000   1.0000000   6.0000000

  Atom        51          52          53          54          55          56          57          58          59          60
 IAtWgt=          12          14           1           1           1           1           1          14          12          12
 AtmWgt=  12.0000000  14.0030740   1.0078250   1.0078250   1.0078250   1.0078250   1.0078250  14.0030740  12.0000000  12.0000000
 NucSpn=           0           2           1           1           1           1           1           2           0           0
 AtZEff=  -0.0000000  -0.0000000  -0.0000000  -0.0000000  -0.0000000  -0.0000000  -0.0000000  -0.0000000  -0.0000000  -0.0000000
 NQMom=    0.0000000   2.0440000   0.0000000   0.0000000   0.0000000   0.0000000   0.0000000   2.0440000   0.0000000   0.0000000
 NMagM=    0.0000000   0.4037610   2.7928460   2.7928460   2.7928460   2.7928460   2.7928460   0.4037610   0.0000000   0.0000000
 AtZNuc=   6.0000000   7.0000000   1.0000000   1.0000000   1.0000000   1.0000000   1.0000000   7.0000000   6.0000000   6.0000000

  Atom        61          62          63          64          65          66          67          68          69          70
 IAtWgt=          14           1          12          14           1          12          14          12          12          14
 AtmWgt=  14.0030740   1.0078250  12.0000000  14.0030740   1.0078250  12.0000000  14.0030740  12.0000000  12.0000000  14.0030740
 NucSpn=           2           1           0           2           1           0           2           0           0           2
 AtZEff=  -0.0000000  -0.0000000  -0.0000000  -0.0000000  -0.0000000  -0.0000000  -0.0000000  -0.0000000  -0.0000000  -0.0000000
 NQMom=    2.0440000   0.0000000   0.0000000   2.0440000   0.0000000   0.0000000   2.0440000   0.0000000   0.0000000   2.0440000
 NMagM=    0.4037610   2.7928460   0.0000000   0.4037610   2.7928460   0.0000000   0.4037610   0.0000000   0.0000000   0.4037610
 AtZNuc=   7.0000000   1.0000000   6.0000000   7.0000000   1.0000000   6.0000000   7.0000000   6.0000000   6.0000000   7.0000000
 Leave Link  101 at Thu Jan 18 11:48:54 2018, MaxMem=  4294967296 cpu:               7.8 elap:               0.3
 (Enter /share/apps/g16/l202.exe)
 Stoichiometry    C23H27N17O3
 Framework group  C1[X(C23H27N17O3)]
 Deg. of freedom   204
 Full point group                 C1      NOp   1
 Largest Abelian subgroup         C1      NOp   1
 Largest concise Abelian subgroup C1      NOp   1
                         Standard orientation:                         
 ---------------------------------------------------------------------
 Center     Atomic      Atomic             Coordinates (Angstroms)
 Number     Number       Type             X           Y           Z
 ---------------------------------------------------------------------
      1          7           0        5.120768   -1.317404   -1.260628
      2          6           0        6.395950   -0.734119   -1.720734
      3          6           0        2.982960   -1.697437   -0.910406
      4          7           0        3.670336   -2.694966   -0.234236
      5          6           0        4.930772   -2.426075   -0.472297
      6          1           0        5.771180   -3.008892   -0.094173
      7          7           0        1.260631   -0.349563   -1.793435
      8          6           0        2.227084    0.387750   -2.350129
      9          1           0        1.883355    1.238850   -2.936416
     10          7           0        3.548190    0.232289   -2.291608
     11          6           0        3.863617   -0.840874   -1.547807
     12          6           0        1.610509   -1.422639   -1.051016
     13          7           0        0.647205   -2.159870   -0.494500
     14          1           0        0.860113   -2.963014    0.063044
     15          1           0       -0.319588   -1.934655   -0.615846
     16          1           0        6.896288   -1.409076   -2.263215
     17          1           0        6.211288    0.072310   -2.281703
     18          1           0        6.948019   -0.468893   -0.930251
     19          7           0        5.100758    1.074861    0.898861
     20          6           0        3.764826    1.358768    0.748048
     21          6           0        6.207842    1.811351    0.256491
     22          7           0        1.239815    3.295708   -0.642760
     23          1           0        0.241235    3.334125   -0.618263
     24          1           0        1.706399    3.977529   -1.206793
     25          7           0        3.243268    2.350272   -0.006241
     26          6           0        1.923386    2.371753    0.049293
     27          7           0        1.170039    1.490552    0.786502
     28          1           0        0.165862    1.581740    0.769655
     29          6           0        1.685403    0.462651    1.569875
     30          8           0        0.917803   -0.277924    2.196828
     31          6           0        3.102138    0.426933    1.520268
     32          7           0        4.003883   -0.424849    2.143345
     33          6           0        5.173990   -0.003540    1.746400
     34          1           0        6.126200   -0.444929    2.042644
     35          1           0        6.734107    1.188202   -0.321037
     36          1           0        5.833627    2.548294   -0.304887
     37          1           0        6.804385    2.198664    0.958593
     38          1           0       -4.782867    2.161414   -0.243636
     39          1           0       -4.782931    3.027482    1.290821
     40          1           0       -3.348019    3.052268    0.265249
     41          1           0       -4.751408   -1.524414    2.848338
     42          6           0       -4.061293   -0.789577    2.433618
     43          8           0       -2.114470   -1.969881    3.099863
     44          6           0       -2.651942   -1.005661    2.555631
     45          1           0       -0.867116   -0.133587    2.063482
     46          7           0       -1.868376   -0.016057    1.997116
     47          8           0       -1.527528    1.939232    0.893538
     48          6           0       -2.299889    1.118514    1.356723
     49          1           0       -5.574548    0.518390    1.695324
     50          6           0       -4.512628    0.307455    1.814416
     51          6           0       -4.180038    2.452765    0.603588
     52          7           0       -3.671890    1.255690    1.279252
     53          1           0       -6.207036    1.830657   -3.264123
     54          1           0       -4.884775    2.428183   -2.517995
     55          1           0       -6.335790    2.479891   -1.772362
     56          1           0       -2.635982   -3.607198    0.305593
     57          1           0       -4.333669   -3.568677    0.142879
     58          7           0       -3.453872   -3.108686    0.018031
     59          6           0       -3.375895   -1.884861   -0.508620
     60          6           0       -4.254428    0.113648   -1.455116
     61          7           0       -3.059356    0.706880   -1.610924
     62          1           0       -1.076429    0.316279   -1.270257
     63          6           0       -2.083138   -0.089474   -1.179954
     64          7           0       -2.159206   -1.315534   -0.652164
     65          1           0       -7.468649   -0.206032   -1.592067
     66          6           0       -6.398310   -0.346725   -1.438748
     67          7           0       -5.854314   -1.421971   -0.923383
     68          6           0       -4.495263   -1.143231   -0.928048
     69          6           0       -5.749865    1.946162   -2.382283
     70          7           0       -5.488512    0.622997   -1.783166
 ---------------------------------------------------------------------
 Rotational constants (GHZ):           0.1807766           0.0516296           0.0510590
 Leave Link  202 at Thu Jan 18 11:48:54 2018, MaxMem=  4294967296 cpu:               0.4 elap:               0.0
 (Enter /share/apps/g16/l301.exe)
 Standard basis: CC-pVDZ (5D, 7F)
 Ernie: Thresh=  0.10000D-02 Tol=  0.10000D-05 Strict=F.
 Ernie:  86 primitive shells out of 1081 were deleted.
 There are   780 symmetry adapted cartesian basis functions of A   symmetry.
 There are   737 symmetry adapted basis functions of A   symmetry.
   737 basis functions,  1608 primitive gaussians,   780 cartesian basis functions
   154 alpha electrons      154 beta electrons
       nuclear repulsion energy      5622.7487719102 Hartrees.
 IExCor= 4639 DFT=T Ex+Corr=wB97XD ExCW=0 ScaHFX=  1.000000
 ScaDFX=  1.000000  1.000000  1.000000  1.000000 ScalE2=  1.000000  1.000000
 IRadAn=      5 IRanWt=     -1 IRanGd=            0 ICorTp=0 IEmpDi=121
 HFx  wShort=  0.000000 wLong=  0.200000 cFull=  0.222036 cShort=  0.000000 cLong=  0.777964
 DFx  wShort=  0.000000 wLong=  0.200000 cFull=  0.000000 cShort=  0.000000 cLong=  1.000000
 NAtoms=   70 NActive=   70 NUniq=   70 SFac= 1.00D+00 NAtFMM=   60 NAOKFM=T Big=T
 Integral buffers will be    131072 words long.
 Raffenetti 2 integral format.
 Two-electron integral symmetry is turned on.
 R6Disp:  Grimme-D2 Dispersion energy=       -0.0811640795 Hartrees.
 Nuclear repulsion after empirical dispersion term =     5622.6676078307 Hartrees.
 Leave Link  301 at Thu Jan 18 11:48:54 2018, MaxMem=  4294967296 cpu:               2.9 elap:               0.1
 (Enter /share/apps/g16/l302.exe)
 NPDir=0 NMtPBC=     1 NCelOv=     1 NCel=       1 NClECP=     1 NCelD=      1
         NCelK=      1 NCelE2=     1 NClLst=     1 CellRange=     0.0.
 One-electron integrals computed using PRISM.
 One-electron integral symmetry used in STVInt
 NBasis=   737 RedAO= T EigKep=  5.66D-04  NBF=   737
 NBsUse=   737 1.00D-06 EigRej= -1.00D+00 NBFU=   737
 Precomputing XC quadrature grid using
 IXCGrd= 4 IRadAn=           5 IRanWt=          -1 IRanGd=           0 AccXCQ= 0.00D+00.
 Generated NRdTot=       0 NPtTot=           0 NUsed=           0 NTot=          32
 NSgBfM=   770   769   769   770   770 MxSgAt=    70 MxSgA2=    70.
 Leave Link  302 at Thu Jan 18 11:48:58 2018, MaxMem=  4294967296 cpu:             138.3 elap:               4.4
 (Enter /share/apps/g16/l303.exe)
 DipDrv:  MaxL=1.
 Leave Link  303 at Thu Jan 18 11:48:59 2018, MaxMem=  4294967296 cpu:              13.1 elap:               0.5
 (Enter /share/apps/g16/l401.exe)
 ExpMin= 1.22D-01 ExpMax= 1.17D+04 ExpMxC= 4.01D+02 IAcc=3 IRadAn=         5 AccDes= 0.00D+00
 Harris functional with IExCor= 4639 and IRadAn=       5 diagonalized for initial guess.
 HarFok:  IExCor= 4639 AccDes= 0.00D+00 IRadAn=         5 IDoV= 1 UseB2=F ITyADJ=14
 ICtDFT=  3500011 ScaDFX=  1.000000  1.000000  1.000000  1.000000
 FoFCou: FMM=F IPFlag=           0 FMFlag=      100000 FMFlg1=        2001
         NFxFlg=           0 DoJE=T BraDBF=F KetDBF=T FulRan=T
         wScrn=  0.000000 ICntrl=       500 IOpCl=  0 I1Cent=   200000004 NGrid=           0
         NMat0=    1 NMatS0=      1 NMatT0=    0 NMatD0=    1 NMtDS0=    0 NMtDT0=    0
 Petite list used in FoFCou.
 Harris En= -1963.86931670443    
 JPrj=0 DoOrth=F DoCkMO=F.
 Leave Link  401 at Thu Jan 18 11:49:12 2018, MaxMem=  4294967296 cpu:             416.2 elap:              13.0
 (Enter /share/apps/g16/l502.exe)
 Integral symmetry usage will be decided dynamically.
 Closed shell SCF:
 Using DIIS extrapolation, IDIIS=  1040.
 NGot=  4294967296 LenX=  4293717438 LenY=  4293108258
 Requested convergence on RMS density matrix=1.00D-08 within  20 cycles.
 Requested convergence on MAX density matrix=1.00D-06.
 Requested convergence on             energy=1.00D-06.
 No special actions if energy rises.
 Fock matrices will be formed incrementally for  20 cycles.
 Integral accuracy reduced to 1.0D-05 until final iterations.

 Cycle   1  Pass 0  IDiag  1:
 FoFJK:  IHMeth= 1 ICntrl=       0 DoSepK=T KAlg= 0 I1Cent=           0 FoldK=F
 IRaf=         1 NMat=       1 IRICut=       1 DoRegI=T DoRafI=F ISym2E= 0 IDoP0=0 IntGTp=1.
 FoFCou: FMM=T IPFlag=           0 FMFlag=      100000 FMFlg1=        2001
         NFxFlg=           0 DoJE=T BraDBF=F KetDBF=F FulRan=T
         wScrn=  0.000000 ICntrl=       500 IOpCl=  0 I1Cent=           0 NGrid=           0
         NMat0=    1 NMatS0=      1 NMatT0=    0 NMatD0=    1 NMtDS0=    0 NMtDT0=    0
 Symmetry not used in FoFCou.
 FMM levels:  10  Number of levels for PrismC:   9
 E= -2048.30322211297    
 DIIS: error= 2.08D-02 at cycle   1 NSaved=   1.
 NSaved= 1 IEnMin= 1 EnMin= -2048.30322211297     IErMin= 1 ErrMin= 2.08D-02
 ErrMax= 2.08D-02  0.00D+00 EMaxC= 1.00D-01 BMatC= 8.36D-01 BMatP= 8.36D-01
 IDIUse=3 WtCom= 7.92D-01 WtEn= 2.08D-01
 Coeff-Com:  0.100D+01
 Coeff-En:   0.100D+01
 Coeff:      0.100D+01
 Gap=     0.251 Goal=   None    Shift=    0.000
 GapD=    0.251 DampG=1.000 DampE=0.500 DampFc=0.5000 IDamp=-1.
 Damping current iteration by 5.00D-01
 RMSDP=1.62D-03 MaxDP=1.21D-01              OVMax= 1.95D-01

 Cycle   2  Pass 0  IDiag  1:
 RMSU=  8.08D-04    CP:  9.98D-01
 E= -2048.49823851429     Delta-E=       -0.195016401321 Rises=F Damp=T
 DIIS: error= 1.14D-02 at cycle   2 NSaved=   2.
 NSaved= 2 IEnMin= 2 EnMin= -2048.49823851429     IErMin= 2 ErrMin= 1.14D-02
 ErrMax= 1.14D-02  0.00D+00 EMaxC= 1.00D-01 BMatC= 1.47D-01 BMatP= 8.36D-01
 IDIUse=3 WtCom= 8.86D-01 WtEn= 1.14D-01
 Coeff-Com: -0.182D+00 0.118D+01
 Coeff-En:   0.000D+00 0.100D+01
 Coeff:     -0.161D+00 0.116D+01
 Gap=     0.321 Goal=   None    Shift=    0.000
 RMSDP=6.13D-04 MaxDP=3.36D-02 DE=-1.95D-01 OVMax= 1.22D-01

 Cycle   3  Pass 0  IDiag  1:
 RMSU=  6.05D-04    CP:  9.94D-01  1.11D+00
 E= -2048.67426019711     Delta-E=       -0.176021682819 Rises=F Damp=F
 DIIS: error= 7.15D-03 at cycle   3 NSaved=   3.
 NSaved= 3 IEnMin= 3 EnMin= -2048.67426019711     IErMin= 3 ErrMin= 7.15D-03
 ErrMax= 7.15D-03  0.00D+00 EMaxC= 1.00D-01 BMatC= 7.16D-02 BMatP= 1.47D-01
 IDIUse=3 WtCom= 9.28D-01 WtEn= 7.15D-02
 Coeff-Com: -0.234D+00 0.563D+00 0.671D+00
 Coeff-En:   0.000D+00 0.000D+00 0.100D+01
 Coeff:     -0.217D+00 0.523D+00 0.694D+00
 Gap=     0.274 Goal=   None    Shift=    0.000
 RMSDP=3.94D-04 MaxDP=2.94D-02 DE=-1.76D-01 OVMax= 7.06D-02

 Cycle   4  Pass 0  IDiag  1:
 RMSU=  2.18D-04    CP:  9.94D-01  1.42D+00  6.43D-01
 E= -2048.72808423369     Delta-E=       -0.053824036584 Rises=F Damp=F
 DIIS: error= 2.39D-03 at cycle   4 NSaved=   4.
 NSaved= 4 IEnMin= 4 EnMin= -2048.72808423369     IErMin= 4 ErrMin= 2.39D-03
 ErrMax= 2.39D-03  0.00D+00 EMaxC= 1.00D-01 BMatC= 1.05D-02 BMatP= 7.16D-02
 IDIUse=3 WtCom= 9.76D-01 WtEn= 2.39D-02
 Coeff-Com: -0.977D-01 0.189D+00 0.376D+00 0.533D+00
 Coeff-En:   0.000D+00 0.000D+00 0.794D-01 0.921D+00
 Coeff:     -0.954D-01 0.185D+00 0.369D+00 0.542D+00
 Gap=     0.276 Goal=   None    Shift=    0.000
 RMSDP=1.37D-04 MaxDP=1.05D-02 DE=-5.38D-02 OVMax= 1.53D-02

 Cycle   5  Pass 0  IDiag  1:
 RMSU=  6.30D-05    CP:  9.94D-01  1.38D+00  7.84D-01  6.19D-01
 E= -2048.73691980864     Delta-E=       -0.008835574949 Rises=F Damp=F
 DIIS: error= 4.78D-04 at cycle   5 NSaved=   5.
 NSaved= 5 IEnMin= 5 EnMin= -2048.73691980864     IErMin= 5 ErrMin= 4.78D-04
 ErrMax= 4.78D-04  0.00D+00 EMaxC= 1.00D-01 BMatC= 2.98D-04 BMatP= 1.05D-02
 IDIUse=3 WtCom= 9.95D-01 WtEn= 4.78D-03
 Coeff-Com: -0.257D-01 0.442D-01 0.121D+00 0.235D+00 0.625D+00
 Coeff-En:   0.000D+00 0.000D+00 0.000D+00 0.000D+00 0.100D+01
 Coeff:     -0.256D-01 0.440D-01 0.121D+00 0.234D+00 0.627D+00
 Gap=     0.276 Goal=   None    Shift=    0.000
 RMSDP=2.78D-05 MaxDP=1.42D-03 DE=-8.84D-03 OVMax= 3.43D-03

 Failed to achieve initial convergence to 1.0D-08 in  6 cycles.
 Switch to full accuracy anyway.
 Cycle   6  Pass 1  IDiag  1:
 E= -2048.73709258665     Delta-E=       -0.000172778012 Rises=F Damp=F
 DIIS: error= 2.66D-04 at cycle   1 NSaved=   1.
 NSaved= 1 IEnMin= 1 EnMin= -2048.73709258665     IErMin= 1 ErrMin= 2.66D-04
 ErrMax= 2.66D-04  0.00D+00 EMaxC= 1.00D-01 BMatC= 8.20D-05 BMatP= 8.20D-05
 IDIUse=3 WtCom= 9.97D-01 WtEn= 2.66D-03
 Coeff-Com:  0.100D+01
 Coeff-En:   0.100D+01
 Coeff:      0.100D+01
 Gap=     0.276 Goal=   None    Shift=    0.000
 RMSDP=2.78D-05 MaxDP=1.42D-03 DE=-1.73D-04 OVMax= 2.57D-03

 Cycle   7  Pass 1  IDiag  1:
 RMSU=  1.21D-04    CP:  1.00D+00
 E= -2048.73714909909     Delta-E=       -0.000056512437 Rises=F Damp=F
 DIIS: error= 1.84D-04 at cycle   2 NSaved=   2.
 NSaved= 2 IEnMin= 2 EnMin= -2048.73714909909     IErMin= 2 ErrMin= 1.84D-04
 ErrMax= 1.84D-04  0.00D+00 EMaxC= 1.00D-01 BMatC= 4.73D-05 BMatP= 8.20D-05
 IDIUse=3 WtCom= 9.98D-01 WtEn= 1.84D-03
 Coeff-Com:  0.407D+00 0.593D+00
 Coeff-En:   0.888D-02 0.991D+00
 Coeff:      0.407D+00 0.593D+00
 Gap=     0.276 Goal=   None    Shift=    0.000
 RMSDP=1.28D-05 MaxDP=8.47D-04 DE=-5.65D-05 OVMax= 1.88D-03

 Cycle   8  Pass 1  IDiag  1:
 RMSU=  1.25D-05    CP:  1.00D+00  1.02D+00
 E= -2048.73718398829     Delta-E=       -0.000034889203 Rises=F Damp=F
 DIIS: error= 8.94D-05 at cycle   3 NSaved=   3.
 NSaved= 3 IEnMin= 3 EnMin= -2048.73718398829     IErMin= 3 ErrMin= 8.94D-05
 ErrMax= 8.94D-05  0.00D+00 EMaxC= 1.00D-01 BMatC= 1.14D-05 BMatP= 4.73D-05
 IDIUse=1 WtCom= 1.00D+00 WtEn= 0.00D+00
 Coeff-Com: -0.179D-01 0.317D+00 0.701D+00
 Coeff:     -0.179D-01 0.317D+00 0.701D+00
 Gap=     0.276 Goal=   None    Shift=    0.000
 RMSDP=6.06D-06 MaxDP=3.48D-04 DE=-3.49D-05 OVMax= 7.26D-04

 Cycle   9  Pass 1  IDiag  1:
 RMSU=  3.98D-06    CP:  1.00D+00  1.05D+00  7.47D-01
 E= -2048.73719507607     Delta-E=       -0.000011087782 Rises=F Damp=F
 DIIS: error= 2.99D-05 at cycle   4 NSaved=   4.
 NSaved= 4 IEnMin= 4 EnMin= -2048.73719507607     IErMin= 4 ErrMin= 2.99D-05
 ErrMax= 2.99D-05  0.00D+00 EMaxC= 1.00D-01 BMatC= 5.96D-07 BMatP= 1.14D-05
 IDIUse=1 WtCom= 1.00D+00 WtEn= 0.00D+00
 Coeff-Com: -0.296D-01 0.944D-01 0.277D+00 0.659D+00
 Coeff:     -0.296D-01 0.944D-01 0.277D+00 0.659D+00
 Gap=     0.276 Goal=   None    Shift=    0.000
 RMSDP=1.52D-06 MaxDP=8.88D-05 DE=-1.11D-05 OVMax= 4.33D-04

 Cycle  10  Pass 1  IDiag  1:
 RMSU=  1.36D-06    CP:  1.00D+00  1.05D+00  7.85D-01  1.08D+00
 E= -2048.73719599394     Delta-E=       -0.000000917861 Rises=F Damp=F
 DIIS: error= 1.08D-05 at cycle   5 NSaved=   5.
 NSaved= 5 IEnMin= 5 EnMin= -2048.73719599394     IErMin= 5 ErrMin= 1.08D-05
 ErrMax= 1.08D-05  0.00D+00 EMaxC= 1.00D-01 BMatC= 1.27D-07 BMatP= 5.96D-07
 IDIUse=1 WtCom= 1.00D+00 WtEn= 0.00D+00
 Coeff-Com: -0.390D-02-0.517D-01-0.104D+00 0.204D+00 0.956D+00
 Coeff:     -0.390D-02-0.517D-01-0.104D+00 0.204D+00 0.956D+00
 Gap=     0.276 Goal=   None    Shift=    0.000
 RMSDP=1.21D-06 MaxDP=6.00D-05 DE=-9.18D-07 OVMax= 2.59D-04

 Cycle  11  Pass 1  IDiag  1:
 RMSU=  5.13D-07    CP:  1.00D+00  1.05D+00  7.96D-01  1.35D+00  1.18D+00
 E= -2048.73719626889     Delta-E=       -0.000000274956 Rises=F Damp=F
 DIIS: error= 6.02D-06 at cycle   6 NSaved=   6.
 NSaved= 6 IEnMin= 6 EnMin= -2048.73719626889     IErMin= 6 ErrMin= 6.02D-06
 ErrMax= 6.02D-06  0.00D+00 EMaxC= 1.00D-01 BMatC= 3.43D-08 BMatP= 1.27D-07
 IDIUse=1 WtCom= 1.00D+00 WtEn= 0.00D+00
 Coeff-Com:  0.470D-02-0.481D-01-0.118D+00-0.129D-01 0.527D+00 0.647D+00
 Coeff:      0.470D-02-0.481D-01-0.118D+00-0.129D-01 0.527D+00 0.647D+00
 Gap=     0.276 Goal=   None    Shift=    0.000
 RMSDP=4.39D-07 MaxDP=2.78D-05 DE=-2.75D-07 OVMax= 1.26D-04

 Cycle  12  Pass 1  IDiag  1:
 RMSU=  2.08D-07    CP:  1.00D+00  1.05D+00  7.99D-01  1.43D+00  1.32D+00
                    CP:  9.49D-01
 E= -2048.73719631926     Delta-E=       -0.000000050365 Rises=F Damp=F
 DIIS: error= 9.39D-07 at cycle   7 NSaved=   7.
 NSaved= 7 IEnMin= 7 EnMin= -2048.73719631926     IErMin= 7 ErrMin= 9.39D-07
 ErrMax= 9.39D-07  0.00D+00 EMaxC= 1.00D-01 BMatC= 8.34D-10 BMatP= 3.43D-08
 IDIUse=1 WtCom= 1.00D+00 WtEn= 0.00D+00
 Coeff-Com:  0.122D-02-0.913D-02-0.236D-01-0.111D-01 0.760D-01 0.145D+00
 Coeff-Com:  0.822D+00
 Coeff:      0.122D-02-0.913D-02-0.236D-01-0.111D-01 0.760D-01 0.145D+00
 Coeff:      0.822D+00
 Gap=     0.276 Goal=   None    Shift=    0.000
 RMSDP=8.87D-08 MaxDP=4.57D-06 DE=-5.04D-08 OVMax= 2.56D-05

 Cycle  13  Pass 1  IDiag  1:
 RMSU=  5.85D-08    CP:  1.00D+00  1.05D+00  7.98D-01  1.44D+00  1.34D+00
                    CP:  1.03D+00  1.12D+00
 E= -2048.73719632121     Delta-E=       -0.000000001955 Rises=F Damp=F
 DIIS: error= 6.24D-07 at cycle   8 NSaved=   8.
 NSaved= 8 IEnMin= 8 EnMin= -2048.73719632121     IErMin= 8 ErrMin= 6.24D-07
 ErrMax= 6.24D-07  0.00D+00 EMaxC= 1.00D-01 BMatC= 3.93D-10 BMatP= 8.34D-10
 IDIUse=1 WtCom= 1.00D+00 WtEn= 0.00D+00
 Coeff-Com: -0.749D-03 0.948D-02 0.224D-01-0.652D-03-0.114D+00-0.118D+00
 Coeff-Com:  0.415D+00 0.786D+00
 Coeff:     -0.749D-03 0.948D-02 0.224D-01-0.652D-03-0.114D+00-0.118D+00
 Coeff:      0.415D+00 0.786D+00
 Gap=     0.276 Goal=   None    Shift=    0.000
 RMSDP=5.69D-08 MaxDP=3.27D-06 DE=-1.95D-09 OVMax= 1.23D-05

 Cycle  14  Pass 1  IDiag  1:
 RMSU=  3.22D-08    CP:  1.00D+00  1.05D+00  7.98D-01  1.44D+00  1.35D+00
                    CP:  1.08D+00  1.29D+00  1.05D+00
 E= -2048.73719632173     Delta-E=       -0.000000000518 Rises=F Damp=F
 DIIS: error= 2.08D-07 at cycle   9 NSaved=   9.
 NSaved= 9 IEnMin= 9 EnMin= -2048.73719632173     IErMin= 9 ErrMin= 2.08D-07
 ErrMax= 2.08D-07  0.00D+00 EMaxC= 1.00D-01 BMatC= 3.25D-11 BMatP= 3.93D-10
 IDIUse=1 WtCom= 1.00D+00 WtEn= 0.00D+00
 Coeff-Com: -0.425D-03 0.472D-02 0.113D-01 0.110D-02-0.518D-01-0.619D-01
 Coeff-Com:  0.865D-01 0.297D+00 0.713D+00
 Coeff:     -0.425D-03 0.472D-02 0.113D-01 0.110D-02-0.518D-01-0.619D-01
 Coeff:      0.865D-01 0.297D+00 0.713D+00
 Gap=     0.276 Goal=   None    Shift=    0.000
 RMSDP=1.46D-08 MaxDP=5.82D-07 DE=-5.18D-10 OVMax= 3.30D-06

 Cycle  15  Pass 1  IDiag  1:
 RMSU=  1.01D-08    CP:  1.00D+00  1.05D+00  7.98D-01  1.44D+00  1.35D+00
                    CP:  1.08D+00  1.31D+00  1.19D+00  1.10D+00
 E= -2048.73719632214     Delta-E=       -0.000000000413 Rises=F Damp=F
 DIIS: error= 8.65D-08 at cycle  10 NSaved=  10.
 NSaved=10 IEnMin=10 EnMin= -2048.73719632214     IErMin=10 ErrMin= 8.65D-08
 ErrMax= 8.65D-08  0.00D+00 EMaxC= 1.00D-01 BMatC= 6.17D-12 BMatP= 3.25D-11
 IDIUse=1 WtCom= 1.00D+00 WtEn= 0.00D+00
 Coeff-Com:  0.391D-05-0.294D-03-0.628D-03 0.251D-03 0.505D-02 0.163D-02
 Coeff-Com: -0.563D-01-0.679D-01 0.262D+00 0.856D+00
 Coeff:      0.391D-05-0.294D-03-0.628D-03 0.251D-03 0.505D-02 0.163D-02
 Coeff:     -0.563D-01-0.679D-01 0.262D+00 0.856D+00
 Gap=     0.276 Goal=   None    Shift=    0.000
 RMSDP=8.03D-09 MaxDP=3.53D-07 DE=-4.13D-10 OVMax= 1.74D-06

 SCF Done:  E(RwB97XD) =  -2048.73719632     A.U. after   15 cycles
            NFock= 15  Conv=0.80D-08     -V/T= 2.0053
 KE= 2.037885736734D+03 PE=-1.602577108260D+04 EE= 6.316480541709D+03
 Leave Link  502 at Thu Jan 18 12:01:33 2018, MaxMem=  4294967296 cpu:           22821.3 elap:             741.3
 (Enter /share/apps/g16/l601.exe)
 Copying SCF densities to generalized density rwf, IOpCl= 0 IROHF=0.

 **********************************************************************

            Population analysis using the SCF density.

 **********************************************************************

 Orbital symmetries:
       Occupied  (A) (A) (A) (A) (A) (A) (A) (A) (A) (A) (A) (A)
                 (A) (A) (A) (A) (A) (A) (A) (A) (A) (A) (A) (A)
                 (A) (A) (A) (A) (A) (A) (A) (A) (A) (A) (A) (A)
                 (A) (A) (A) (A) (A) (A) (A) (A) (A) (A) (A) (A)
                 (A) (A) (A) (A) (A) (A) (A) (A) (A) (A) (A) (A)
                 (A) (A) (A) (A) (A) (A) (A) (A) (A) (A) (A) (A)
                 (A) (A) (A) (A) (A) (A) (A) (A) (A) (A) (A) (A)
                 (A) (A) (A) (A) (A) (A) (A) (A) (A) (A) (A) (A)
                 (A) (A) (A) (A) (A) (A) (A) (A) (A) (A) (A) (A)
                 (A) (A) (A) (A) (A) (A) (A) (A) (A) (A) (A) (A)
                 (A) (A) (A) (A) (A) (A) (A) (A) (A) (A) (A) (A)
                 (A) (A) (A) (A) (A) (A) (A) (A) (A) (A) (A) (A)
                 (A) (A) (A) (A) (A) (A) (A) (A) (A) (A)
       Virtual   (A) (A) (A) (A) (A) (A) (A) (A) (A) (A) (A) (A)
                 (A) (A) (A) (A) (A) (A) (A) (A) (A) (A) (A) (A)
                 (A) (A) (A) (A) (A) (A) (A) (A) (A) (A) (A) (A)
                 (A) (A) (A) (A) (A) (A) (A) (A) (A) (A) (A) (A)
                 (A) (A) (A) (A) (A) (A) (A) (A) (A) (A) (A) (A)
                 (A) (A) (A) (A) (A) (A) (A) (A) (A) (A) (A) (A)
                 (A) (A) (A) (A) (A) (A) (A) (A) (A) (A) (A) (A)
                 (A) (A) (A) (A) (A) (A) (A) (A) (A) (A) (A) (A)
                 (A) (A) (A) (A) (A) (A) (A) (A) (A) (A) (A) (A)
                 (A) (A) (A) (A) (A) (A) (A) (A) (A) (A) (A) (A)
                 (A) (A) (A) (A) (A) (A) (A) (A) (A) (A) (A) (A)
                 (A) (A) (A) (A) (A) (A) (A) (A) (A) (A) (A) (A)
                 (A) (A) (A) (A) (A) (A) (A) (A) (A) (A) (A) (A)
                 (A) (A) (A) (A) (A) (A) (A) (A) (A) (A) (A) (A)
                 (A) (A) (A) (A) (A) (A) (A) (A) (A) (A) (A) (A)
                 (A) (A) (A) (A) (A) (A) (A) (A) (A) (A) (A) (A)
                 (A) (A) (A) (A) (A) (A) (A) (A) (A) (A) (A) (A)
                 (A) (A) (A) (A) (A) (A) (A) (A) (A) (A) (A) (A)
                 (A) (A) (A) (A) (A) (A) (A) (A) (A) (A) (A) (A)
                 (A) (A) (A) (A) (A) (A) (A) (A) (A) (A) (A) (A)
                 (A) (A) (A) (A) (A) (A) (A) (A) (A) (A) (A) (A)
                 (A) (A) (A) (A) (A) (A) (A) (A) (A) (A) (A) (A)
                 (A) (A) (A) (A) (A) (A) (A) (A) (A) (A) (A) (A)
                 (A) (A) (A) (A) (A) (A) (A) (A) (A) (A) (A) (A)
                 (A) (A) (A) (A) (A) (A) (A) (A) (A) (A) (A) (A)
                 (A) (A) (A) (A) (A) (A) (A) (A) (A) (A) (A) (A)
                 (A) (A) (A) (A) (A) (A) (A) (A) (A) (A) (A) (A)
                 (A) (A) (A) (A) (A) (A) (A) (A) (A) (A) (A) (A)
                 (A) (A) (A) (A) (A) (A) (A) (A) (A) (A) (A) (A)
                 (A) (A) (A) (A) (A) (A) (A) (A) (A) (A) (A) (A)
                 (A) (A) (A) (A) (A) (A) (A) (A) (A) (A) (A) (A)
                 (A) (A) (A) (A) (A) (A) (A) (A) (A) (A) (A) (A)
                 (A) (A) (A) (A) (A) (A) (A) (A) (A) (A) (A) (A)
                 (A) (A) (A) (A) (A) (A) (A) (A) (A) (A) (A) (A)
                 (A) (A) (A) (A) (A) (A) (A) (A) (A) (A) (A) (A)
                 (A) (A) (A) (A) (A) (A) (A) (A) (A) (A) (A) (A)
                 (A) (A) (A) (A) (A) (A) (A) (A) (A) (A) (A) (A)
                 (A) (A) (A) (A) (A) (A) (A) (A) (A) (A) (A) (A)
                 (A) (A) (A) (A) (A) (A) (A) (A) (A) (A) (A) (A)
                 (A) (A) (A) (A) (A) (A) (A) (A) (A) (A) (A) (A)
                 (A) (A) (A) (A) (A) (A) (A) (A) (A) (A) (A) (A)
                 (A) (A) (A) (A) (A) (A) (A) (A) (A) (A) (A) (A)
                 (A) (A) (A) (A) (A) (A) (A) (A) (A) (A) (A) (A)
                 (A) (A) (A) (A) (A) (A) (A) (A) (A) (A) (A) (A)
                 (A) (A) (A) (A) (A) (A) (A) (A) (A) (A) (A) (A)
                 (A) (A) (A) (A) (A) (A) (A) (A) (A) (A) (A) (A)
                 (A) (A) (A) (A) (A) (A) (A) (A) (A) (A) (A) (A)
                 (A) (A) (A) (A) (A) (A) (A) (A) (A) (A) (A) (A)
                 (A) (A) (A) (A) (A) (A) (A)
 The electronic state is 1-A.
 Alpha  occ. eigenvalues --  -19.25224 -19.21472 -19.20578 -14.52649 -14.51769
 Alpha  occ. eigenvalues --  -14.49261 -14.49060 -14.47954 -14.47152 -14.46639
 Alpha  occ. eigenvalues --  -14.46580 -14.45363 -14.44329 -14.44318 -14.42907
 Alpha  occ. eigenvalues --  -14.41784 -14.41598 -14.41414 -14.41136 -14.40986
 Alpha  occ. eigenvalues --  -10.44804 -10.41010 -10.39863 -10.39543 -10.38194
 Alpha  occ. eigenvalues --  -10.37964 -10.37166 -10.37104 -10.36044 -10.35873
 Alpha  occ. eigenvalues --  -10.34432 -10.34406 -10.34396 -10.34337 -10.33849
 Alpha  occ. eigenvalues --  -10.33662 -10.33630 -10.32580 -10.31876 -10.31222
 Alpha  occ. eigenvalues --  -10.30328 -10.28967 -10.28194  -1.18853  -1.15340
 Alpha  occ. eigenvalues --   -1.13183  -1.12471  -1.11815  -1.10740  -1.09297
 Alpha  occ. eigenvalues --   -1.08697  -1.08471  -1.05684  -1.04763  -1.01889
 Alpha  occ. eigenvalues --   -1.01071  -1.01018  -0.99630  -0.98494  -0.97530
 Alpha  occ. eigenvalues --   -0.96870  -0.96715  -0.93350  -0.90363  -0.87723
 Alpha  occ. eigenvalues --   -0.86185  -0.84858  -0.84076  -0.83346  -0.83017
 Alpha  occ. eigenvalues --   -0.82489  -0.78252  -0.77041  -0.74896  -0.74722
 Alpha  occ. eigenvalues --   -0.73603  -0.73419  -0.72742  -0.71610  -0.70407
 Alpha  occ. eigenvalues --   -0.67418  -0.66879  -0.66795  -0.65965  -0.64436
 Alpha  occ. eigenvalues --   -0.64246  -0.63521  -0.63293  -0.62564  -0.61758
 Alpha  occ. eigenvalues --   -0.61642  -0.60987  -0.60497  -0.59629  -0.59221
 Alpha  occ. eigenvalues --   -0.58959  -0.58591  -0.58285  -0.57188  -0.56124
 Alpha  occ. eigenvalues --   -0.55626  -0.55502  -0.55180  -0.54398  -0.54279
 Alpha  occ. eigenvalues --   -0.54034  -0.53802  -0.53406  -0.52994  -0.52932
 Alpha  occ. eigenvalues --   -0.52684  -0.52426  -0.51655  -0.51090  -0.50691
 Alpha  occ. eigenvalues --   -0.50205  -0.50058  -0.49438  -0.49111  -0.48864
 Alpha  occ. eigenvalues --   -0.48713  -0.48262  -0.48159  -0.48083  -0.47537
 Alpha  occ. eigenvalues --   -0.47140  -0.46183  -0.44776  -0.44653  -0.43179
 Alpha  occ. eigenvalues --   -0.41446  -0.40720  -0.38902  -0.37775  -0.37710
 Alpha  occ. eigenvalues --   -0.37532  -0.37187  -0.36914  -0.35923  -0.34734
 Alpha  occ. eigenvalues --   -0.34583  -0.34261  -0.33909  -0.33726  -0.32901
 Alpha  occ. eigenvalues --   -0.32530  -0.32374  -0.31857  -0.31448  -0.31105
 Alpha  occ. eigenvalues --   -0.30729  -0.29812  -0.27226  -0.24511
 Alpha virt. eigenvalues --    0.03085   0.04533   0.06529   0.06825   0.08240
 Alpha virt. eigenvalues --    0.09484   0.10089   0.10437   0.11311   0.12450
 Alpha virt. eigenvalues --    0.12579   0.13645   0.14134   0.14806   0.14913
 Alpha virt. eigenvalues --    0.15429   0.16224   0.17602   0.17871   0.18294
 Alpha virt. eigenvalues --    0.18482   0.19391   0.19635   0.20398   0.20554
 Alpha virt. eigenvalues --    0.20788   0.20963   0.21161   0.21583   0.21818
 Alpha virt. eigenvalues --    0.22265   0.22528   0.22623   0.23365   0.23583
 Alpha virt. eigenvalues --    0.24373   0.24599   0.24866   0.25016   0.25649
 Alpha virt. eigenvalues --    0.27012   0.27210   0.27756   0.28183   0.28625
 Alpha virt. eigenvalues --    0.28968   0.29136   0.29285   0.30474   0.30707
 Alpha virt. eigenvalues --    0.31119   0.31909   0.32391   0.33170   0.33223
 Alpha virt. eigenvalues --    0.34406   0.34760   0.35249   0.35772   0.36423
 Alpha virt. eigenvalues --    0.36584   0.37261   0.37552   0.38063   0.39272
 Alpha virt. eigenvalues --    0.39624   0.39949   0.40481   0.41631   0.42042
 Alpha virt. eigenvalues --    0.42502   0.42866   0.43172   0.44168   0.44360
 Alpha virt. eigenvalues --    0.44836   0.45534   0.45979   0.46604   0.46945
 Alpha virt. eigenvalues --    0.47688   0.48098   0.48115   0.48385   0.49197
 Alpha virt. eigenvalues --    0.49976   0.50388   0.50743   0.50910   0.51869
 Alpha virt. eigenvalues --    0.52090   0.52410   0.52621   0.52840   0.53142
 Alpha virt. eigenvalues --    0.54054   0.54431   0.54842   0.55227   0.55521
 Alpha virt. eigenvalues --    0.55880   0.56573   0.56832   0.57316   0.57658
 Alpha virt. eigenvalues --    0.58025   0.58417   0.59036   0.59143   0.59682
 Alpha virt. eigenvalues --    0.60175   0.60502   0.61375   0.61804   0.61936
 Alpha virt. eigenvalues --    0.62491   0.62856   0.62991   0.63429   0.63658
 Alpha virt. eigenvalues --    0.64601   0.64972   0.65153   0.65500   0.66470
 Alpha virt. eigenvalues --    0.66731   0.66846   0.67271   0.67855   0.68033
 Alpha virt. eigenvalues --    0.68897   0.69038   0.69594   0.69859   0.70680
 Alpha virt. eigenvalues --    0.71039   0.71633   0.71895   0.72309   0.72570
 Alpha virt. eigenvalues --    0.72836   0.73872   0.74233   0.74365   0.74633
 Alpha virt. eigenvalues --    0.75121   0.75347   0.75517   0.75762   0.76274
 Alpha virt. eigenvalues --    0.76686   0.76847   0.77203   0.77493   0.78128
 Alpha virt. eigenvalues --    0.78256   0.78712   0.79253   0.79708   0.80332
 Alpha virt. eigenvalues --    0.80444   0.80697   0.81151   0.81717   0.81855
 Alpha virt. eigenvalues --    0.82526   0.83077   0.83293   0.83898   0.84170
 Alpha virt. eigenvalues --    0.84686   0.85345   0.85593   0.85700   0.86133
 Alpha virt. eigenvalues --    0.86763   0.86920   0.87616   0.88177   0.88468
 Alpha virt. eigenvalues --    0.88684   0.89221   0.89512   0.89962   0.90578
 Alpha virt. eigenvalues --    0.90628   0.91028   0.91660   0.92052   0.92930
 Alpha virt. eigenvalues --    0.93209   0.93639   0.93772   0.94641   0.95107
 Alpha virt. eigenvalues --    0.95661   0.95984   0.96477   0.96939   0.97607
 Alpha virt. eigenvalues --    0.97764   0.97945   0.98436   0.99253   0.99590
 Alpha virt. eigenvalues --    1.00190   1.00712   1.00979   1.01795   1.02073
 Alpha virt. eigenvalues --    1.02972   1.03413   1.03776   1.04175   1.04300
 Alpha virt. eigenvalues --    1.04869   1.05146   1.05612   1.05759   1.06466
 Alpha virt. eigenvalues --    1.06968   1.07943   1.08768   1.09056   1.10007
 Alpha virt. eigenvalues --    1.10233   1.10674   1.11072   1.11551   1.12086
 Alpha virt. eigenvalues --    1.12594   1.12942   1.13408   1.13663   1.14489
 Alpha virt. eigenvalues --    1.14734   1.15491   1.15910   1.16301   1.16585
 Alpha virt. eigenvalues --    1.17271   1.17516   1.17750   1.18605   1.19049
 Alpha virt. eigenvalues --    1.19200   1.19607   1.19742   1.20415   1.20591
 Alpha virt. eigenvalues --    1.20981   1.21176   1.22121   1.22190   1.22932
 Alpha virt. eigenvalues --    1.23054   1.23437   1.23971   1.24636   1.24975
 Alpha virt. eigenvalues --    1.25308   1.25908   1.26090   1.26933   1.27969
 Alpha virt. eigenvalues --    1.28157   1.28288   1.28954   1.29353   1.29634
 Alpha virt. eigenvalues --    1.30168   1.30890   1.31287   1.31651   1.31982
 Alpha virt. eigenvalues --    1.32753   1.33454   1.33794   1.34380   1.34861
 Alpha virt. eigenvalues --    1.35735   1.35971   1.36693   1.37147   1.37542
 Alpha virt. eigenvalues --    1.38834   1.39636   1.40003   1.40397   1.40713
 Alpha virt. eigenvalues --    1.41847   1.42706   1.44124   1.44669   1.45316
 Alpha virt. eigenvalues --    1.46205   1.46448   1.46838   1.48092   1.48429
 Alpha virt. eigenvalues --    1.49083   1.50562   1.51307   1.52149   1.52486
 Alpha virt. eigenvalues --    1.52802   1.54163   1.54632   1.55421   1.55941
 Alpha virt. eigenvalues --    1.56381   1.57031   1.57606   1.57706   1.58831
 Alpha virt. eigenvalues --    1.59908   1.60248   1.61225   1.61586   1.62172
 Alpha virt. eigenvalues --    1.63459   1.63545   1.64279   1.65073   1.65435
 Alpha virt. eigenvalues --    1.66215   1.66444   1.66609   1.66865   1.68103
 Alpha virt. eigenvalues --    1.68224   1.69128   1.69852   1.70158   1.70541
 Alpha virt. eigenvalues --    1.71218   1.71776   1.71927   1.72398   1.72590
 Alpha virt. eigenvalues --    1.73129   1.73498   1.74148   1.74693   1.75162
 Alpha virt. eigenvalues --    1.75187   1.75963   1.76245   1.76571   1.76980
 Alpha virt. eigenvalues --    1.77192   1.77645   1.77864   1.78177   1.78546
 Alpha virt. eigenvalues --    1.79028   1.79295   1.79554   1.79704   1.79995
 Alpha virt. eigenvalues --    1.80561   1.80647   1.81538   1.81895   1.82003
 Alpha virt. eigenvalues --    1.82495   1.82716   1.83731   1.84375   1.84752
 Alpha virt. eigenvalues --    1.84913   1.85307   1.85827   1.86216   1.86689
 Alpha virt. eigenvalues --    1.87371   1.87656   1.87715   1.88408   1.88751
 Alpha virt. eigenvalues --    1.89138   1.89377   1.89620   1.89937   1.90523
 Alpha virt. eigenvalues --    1.91131   1.91721   1.92235   1.92626   1.93034
 Alpha virt. eigenvalues --    1.94208   1.94874   1.95228   1.95841   1.96520
 Alpha virt. eigenvalues --    1.97907   1.98369   1.98664   1.99068   1.99648
 Alpha virt. eigenvalues --    1.99968   2.01036   2.01426   2.02532   2.02765
 Alpha virt. eigenvalues --    2.03316   2.04579   2.05018   2.05494   2.05952
 Alpha virt. eigenvalues --    2.06904   2.07517   2.07989   2.08981   2.09220
 Alpha virt. eigenvalues --    2.09867   2.09962   2.10858   2.11585   2.12230
 Alpha virt. eigenvalues --    2.12682   2.13180   2.13865   2.14937   2.16424
 Alpha virt. eigenvalues --    2.16732   2.17036   2.17965   2.18647   2.19501
 Alpha virt. eigenvalues --    2.20532   2.20830   2.21650   2.22247   2.22715
 Alpha virt. eigenvalues --    2.22979   2.23320   2.24166   2.24929   2.25359
 Alpha virt. eigenvalues --    2.25465   2.26462   2.26901   2.27385   2.27954
 Alpha virt. eigenvalues --    2.28383   2.28847   2.29375   2.30326   2.31129
 Alpha virt. eigenvalues --    2.32011   2.32667   2.33116   2.33254   2.33330
 Alpha virt. eigenvalues --    2.34536   2.34863   2.34894   2.35648   2.36101
 Alpha virt. eigenvalues --    2.36616   2.37088   2.37483   2.38179   2.38727
 Alpha virt. eigenvalues --    2.39057   2.40462   2.41297   2.41710   2.42103
 Alpha virt. eigenvalues --    2.42415   2.43168   2.43916   2.44927   2.45311
 Alpha virt. eigenvalues --    2.45740   2.45866   2.46489   2.47244   2.48089
 Alpha virt. eigenvalues --    2.49452   2.49977   2.50433   2.51962   2.52488
 Alpha virt. eigenvalues --    2.53174   2.54682   2.56303   2.56692   2.58118
 Alpha virt. eigenvalues --    2.58271   2.59277   2.60461   2.61734   2.62048
 Alpha virt. eigenvalues --    2.63341   2.63835   2.64334   2.64751   2.65575
 Alpha virt. eigenvalues --    2.65753   2.65915   2.66209   2.66644   2.67419
 Alpha virt. eigenvalues --    2.69038   2.69157   2.69464   2.70258   2.71365
 Alpha virt. eigenvalues --    2.71769   2.72155   2.72711   2.73139   2.74909
 Alpha virt. eigenvalues --    2.75410   2.75480   2.76221   2.77291   2.78126
 Alpha virt. eigenvalues --    2.78181   2.78683   2.79070   2.79938   2.80640
 Alpha virt. eigenvalues --    2.80817   2.81342   2.81711   2.82020   2.82614
 Alpha virt. eigenvalues --    2.83289   2.83626   2.83973   2.84945   2.85993
 Alpha virt. eigenvalues --    2.86766   2.86885   2.87203   2.87741   2.88297
 Alpha virt. eigenvalues --    2.89228   2.90470   2.91323   2.93829   2.94573
 Alpha virt. eigenvalues --    2.95689   2.98217   2.98446   2.99810   3.00305
 Alpha virt. eigenvalues --    3.03005   3.03801   3.04103   3.05365   3.07549
 Alpha virt. eigenvalues --    3.09261   3.10512   3.11460   3.13208   3.14744
 Alpha virt. eigenvalues --    3.16177   3.16900   3.18105   3.19841   3.21213
 Alpha virt. eigenvalues --    3.21532   3.23926   3.24386   3.25768   3.29613
 Alpha virt. eigenvalues --    3.45044   3.47022   3.48072   3.49401   3.51319
 Alpha virt. eigenvalues --    3.53091   3.55115   3.56690   3.58732   3.60472
 Alpha virt. eigenvalues --    3.64353   3.71918   3.75841
          Condensed to atoms (all electrons):
 Mulliken charges:
               1
     1  N   -0.299688
     2  C    0.184991
     3  C    0.065072
     4  N   -0.240034
     5  C    0.130628
     6  H    0.024502
     7  N   -0.283242
     8  C    0.130017
     9  H    0.005344
    10  N   -0.268762
    11  C    0.222080
    12  C    0.067365
    13  N   -0.042866
    14  H    0.113446
    15  H    0.085644
    16  H    0.026786
    17  H    0.035577
    18  H    0.021545
    19  N   -0.294450
    20  C    0.237284
    21  C    0.192702
    22  N   -0.115181
    23  H    0.118681
    24  H    0.118757
    25  N   -0.284852
    26  C    0.210905
    27  N   -0.123427
    28  H    0.120260
    29  C    0.170084
    30  O   -0.321839
    31  C   -0.000176
    32  N   -0.211319
    33  C    0.108631
    34  H    0.019654
    35  H   -0.016140
    36  H    0.036727
    37  H    0.025677
    38  H    0.009587
    39  H    0.054111
    40  H    0.079661
    41  H    0.022116
    42  C   -0.101997
    43  O   -0.271811
    44  C    0.165859
    45  H    0.127954
    46  N   -0.104982
    47  O   -0.346007
    48  C    0.322739
    49  H    0.044206
    50  C    0.167274
    51  C    0.064330
    52  N   -0.270293
    53  H    0.035014
    54  H    0.043280
    55  H    0.032483
    56  H    0.125172
    57  H    0.118909
    58  N   -0.050115
    59  C    0.094999
    60  C    0.209292
    61  N   -0.265112
    62  H    0.019837
    63  C    0.165584
    64  N   -0.299241
    65  H    0.037201
    66  C    0.127869
    67  N   -0.251731
    68  C    0.048556
    69  C    0.184417
    70  N   -0.309543
 Sum of Mulliken charges =  -0.00000
 Mulliken charges with hydrogens summed into heavy atoms:
               1
     1  N   -0.299688
     2  C    0.268899
     3  C    0.065072
     4  N   -0.240034
     5  C    0.155129
     7  N   -0.283242
     8  C    0.135361
    10  N   -0.268762
    11  C    0.222080
    12  C    0.067365
    13  N    0.156224
    19  N   -0.294450
    20  C    0.237284
    21  C    0.238967
    22  N    0.122257
    25  N   -0.284852
    26  C    0.210905
    27  N   -0.003167
    29  C    0.170084
    30  O   -0.321839
    31  C   -0.000176
    32  N   -0.211319
    33  C    0.128285
    42  C   -0.079881
    43  O   -0.271811
    44  C    0.165859
    46  N    0.022972
    47  O   -0.346007
    48  C    0.322739
    50  C    0.211480
    51  C    0.207690
    52  N   -0.270293
    58  N    0.193966
    59  C    0.094999
    60  C    0.209292
    61  N   -0.265112
    63  C    0.185421
    64  N   -0.299241
    66  C    0.165070
    67  N   -0.251731
    68  C    0.048556
    69  C    0.295194
    70  N   -0.309543
 Electronic spatial extent (au):  <R**2>=          22029.2874
 Charge=             -0.0000 electrons
 Dipole moment (field-independent basis, Debye):
    X=             -4.8206    Y=              5.8103    Z=             -5.2381  Tot=              9.1889
 Quadrupole moment (field-independent basis, Debye-Ang):
   XX=           -146.6942   YY=           -224.1264   ZZ=           -264.4200
   XY=            -11.0746   XZ=              0.2232   YZ=              1.6752
 Traceless Quadrupole moment (field-independent basis, Debye-Ang):
   XX=             65.0527   YY=            -12.3795   ZZ=            -52.6731
   XY=            -11.0746   XZ=              0.2232   YZ=              1.6752
 Octapole moment (field-independent basis, Debye-Ang**2):
  XXX=             91.7943  YYY=             24.0405  ZZZ=            -54.3236  XYY=            -57.3615
  XXY=            103.2674  XXZ=            -72.4946  XZZ=            -49.5044  YZZ=             57.1217
  YYZ=            -31.3584  XYZ=             36.2792
 Hexadecapole moment (field-independent basis, Debye-Ang**3):
 XXXX=         -16619.0666 YYYY=          -3410.2781 ZZZZ=          -3767.0894 XXXY=           -770.5596
 XXXZ=            207.5559 YYYX=            155.0668 YYYZ=           -151.2882 ZZZX=             84.2218
 ZZZY=             41.3545 XXYY=          -3938.2019 XXZZ=          -4013.0640 YYZZ=          -1266.8121
 XXYZ=           -104.5166 YYXZ=            -11.8785 ZZXY=           -104.6343
 N-N= 5.622667607831D+03 E-N=-1.602577106535D+04  KE= 2.037885736734D+03
 No NMR shielding tensors so no spin-rotation constants.
 Leave Link  601 at Thu Jan 18 12:01:36 2018, MaxMem=  4294967296 cpu:              48.1 elap:               1.7
 (Enter /share/apps/g16/l9999.exe)
 1\1\GINC-COMPUTE-0-3\SP\RwB97XD\CC-pVDZ\C23H27N17O3\SATYA\18-Jan-2018\
 0\\#p wb97xd/cc-pvdz sp scf=(maxcycles=20)\\Base pair stacking\\0,1\N,
 0,-0.23389,3.91276,-6.35691\C,0,-0.77255,5.28642,-6.32673\C,0,-0.05212
 ,1.7209,-6.36084\N,0,1.24038,2.21767,-6.44698\C,0,1.07913,3.5183,-6.44
 116\H,0,1.89109,4.24395,-6.49677\N,0,-1.90129,0.26226,-6.2349\C,0,-2.6
 6575,1.35819,-6.18898\H,0,-3.7371,1.17521,-6.11841\N,0,-2.30717,2.6402
 ,-6.21702\C,0,-0.97157,2.75385,-6.30459\C,0,-0.56133,0.41011,-6.32287\
 N,0,0.20344,-0.68268,-6.36882\H,0,1.19999,-0.6206,-6.43408\H,0,-0.1934
 4,-1.60016,-6.33961\H,0,-0.50994,5.76735,-7.16335\H,0,-1.76942,5.25298
 ,-6.26157\H,0,-0.40459,5.77365,-5.53477\N,0,-0.74975,3.91449,-3.17562\
 C,0,-1.26669,2.64189,-3.13923\C,0,-1.54491,5.1587,-3.19442\N,0,-4.0069
 ,0.50981,-3.05408\H,0,-4.17448,-0.47534,-3.02892\H,0,-4.80969,1.10666,
 -3.05767\N,0,-2.57735,2.31689,-3.11473\C,0,-2.76195,1.00904,-3.0818\N,
 0,-1.74236,0.08823,-3.07345\H,0,-1.97704,-0.89219,-3.04752\C,0,-0.3866
 1,0.39997,-3.09822\O,0,0.45422,-0.50757,-3.08787\C,0,-0.17252,1.80132,
 -3.13371\N,0,1.0076,2.53151,-3.16599\C,0,0.61681,3.77687,-3.19003\H,0,
 1.28623,4.6373,-3.21876\H,0,-1.33994,5.67471,-4.0254\H,0,-2.51747,4.93
 05,-3.17655\H,0,-1.3189,5.71281,-2.39398\H,0,-3.8084,-5.60742,-3.56272
 \H,0,-3.52941,-5.68248,-1.82457\H,0,-3.96172,-4.14928,-2.58206\H,0,0.9
 4928,-6.31547,-3.46386\C,0,0.23202,-5.50845,-3.31388\O,0,1.85247,-3.78
 602,-3.49961\C,0,0.6901,-4.1528,-3.32887\H,0,-0.01306,-2.24081,-3.1334
 5\N,0,-0.29819,-3.21005,-3.12953\O,0,-2.43597,-2.54021,-2.75747\C,0,-1
 .63513,-3.44312,-2.92501\H,0,-1.46496,-6.78076,-3.09644\C,0,-1.06591,-
 5.7675,-3.11674\C,0,-3.41779,-5.07345,-2.70927\N,0,-1.9991,-4.77531,-2
 .92411\H,0,-5.63613,-6.71813,-6.14859\H,0,-5.43391,-5.42908,-5.16901\H
 ,0,-5.23591,-6.93912,-4.58193\H,0,1.31092,-4.17123,-6.71194\H,0,0.9205
 3,-5.82651,-6.84515\N,0,0.62337,-4.89372,-6.63822\C,0,-0.63413,-4.6262
 5,-6.27997\C,0,-2.89519,-5.17378,-5.78044\N,0,-3.26595,-3.91166,-5.508
 43\H,0,-2.45031,-2.03225,-5.45214\C,0,-2.23578,-3.08076,-5.65427\N,0,-
 0.97556,-3.34671,-6.013\H,0,-3.22573,-8.36904,-6.14544\C,0,-2.85846,-7
 .34362,-6.0949\N,0,-1.62724,-6.97924,-6.3576\C,0,-1.63689,-5.60578,-6.
 16202\C,0,-5.11079,-6.35092,-5.38102\N,0,-3.67989,-6.30185,-5.73897\\V
 ersion=EM64L-G16RevA.03\State=1-A\HF=-2048.7371963\RMSD=8.026e-09\Dipo
 le=-3.3268183,-1.3997067,-0.2066917\Quadrupole=-18.4757566,44.8041627,
 -26.3284061,17.1801856,-15.1685847,-1.3765452\PG=C01 [X(C23H27N17O3)]\
 \@


 A true friend is someone who is there for
 you when he'd rather be anywhere else.
                               -- Len Wein
 Job cpu time:       0 days  6 hours 30 minutes 54.2 seconds.
 Elapsed time:       0 days  0 hours 12 minutes 41.6 seconds.
 File lengths (MBytes):  RWF=    298 Int=      0 D2E=      0 Chk=     33 Scr=      1
 Normal termination of Gaussian 16 at Thu Jan 18 12:01:36 2018.
