 Entering Gaussian System, Link 0=g16
 Input=str10.-5.-2.5.com
 Output=str10.-5.-2.5.log
 Initial command:
 /share/apps/g16/l1.exe "/state/partition1/scr/Gau-28978.inp" -scrdir="/state/partition1/scr/"
 Entering Link 1 = /share/apps/g16/l1.exe PID=     28979.
  
 Copyright (c) 1988,1990,1992,1993,1995,1998,2003,2009,2016,
            Gaussian, Inc.  All Rights Reserved.
  
 This is part of the Gaussian(R) 16 program.  It is based on
 the Gaussian(R) 09 system (copyright 2009, Gaussian, Inc.),
 the Gaussian(R) 03 system (copyright 2003, Gaussian, Inc.),
 the Gaussian(R) 98 system (copyright 1998, Gaussian, Inc.),
 the Gaussian(R) 94 system (copyright 1995, Gaussian, Inc.),
 the Gaussian 92(TM) system (copyright 1992, Gaussian, Inc.),
 the Gaussian 90(TM) system (copyright 1990, Gaussian, Inc.),
 the Gaussian 88(TM) system (copyright 1988, Gaussian, Inc.),
 the Gaussian 86(TM) system (copyright 1986, Carnegie Mellon
 University), and the Gaussian 82(TM) system (copyright 1983,
 Carnegie Mellon University). Gaussian is a federally registered
 trademark of Gaussian, Inc.
  
 This software contains proprietary and confidential information,
 including trade secrets, belonging to Gaussian, Inc.
  
 This software is provided under written license and may be
 used, copied, transmitted, or stored only in accord with that
 written license.
  
 The following legend is applicable only to US Government
 contracts under FAR:
  
                    RESTRICTED RIGHTS LEGEND
  
 Use, reproduction and disclosure by the US Government is
 subject to restrictions as set forth in subparagraphs (a)
 and (c) of the Commercial Computer Software - Restricted
 Rights clause in FAR 52.227-19.
  
 Gaussian, Inc.
 340 Quinnipiac St., Bldg. 40, Wallingford CT 06492
  
  
 ---------------------------------------------------------------
 Warning -- This program may not be used in any manner that
 competes with the business of Gaussian, Inc. or will provide
 assistance to any competitor of Gaussian, Inc.  The licensee
 of this program is prohibited from giving any competitor of
 Gaussian, Inc. access to this program.  By using this program,
 the user acknowledges that Gaussian, Inc. is engaged in the
 business of creating and licensing software in the field of
 computational chemistry and represents and warrants to the
 licensee that it is not a competitor of Gaussian, Inc. and that
 it will not use this program in any manner prohibited above.
 ---------------------------------------------------------------
  

 Cite this work as:
 Gaussian 16, Revision A.03,
 M. J. Frisch, G. W. Trucks, H. B. Schlegel, G. E. Scuseria, 
 M. A. Robb, J. R. Cheeseman, G. Scalmani, V. Barone, 
 G. A. Petersson, H. Nakatsuji, X. Li, M. Caricato, A. V. Marenich, 
 J. Bloino, B. G. Janesko, R. Gomperts, B. Mennucci, H. P. Hratchian, 
 J. V. Ortiz, A. F. Izmaylov, J. L. Sonnenberg, D. Williams-Young, 
 F. Ding, F. Lipparini, F. Egidi, J. Goings, B. Peng, A. Petrone, 
 T. Henderson, D. Ranasinghe, V. G. Zakrzewski, J. Gao, N. Rega, 
 G. Zheng, W. Liang, M. Hada, M. Ehara, K. Toyota, R. Fukuda, 
 J. Hasegawa, M. Ishida, T. Nakajima, Y. Honda, O. Kitao, H. Nakai, 
 T. Vreven, K. Throssell, J. A. Montgomery, Jr., J. E. Peralta, 
 F. Ogliaro, M. J. Bearpark, J. J. Heyd, E. N. Brothers, K. N. Kudin, 
 V. N. Staroverov, T. A. Keith, R. Kobayashi, J. Normand, 
 K. Raghavachari, A. P. Rendell, J. C. Burant, S. S. Iyengar, 
 J. Tomasi, M. Cossi, J. M. Millam, M. Klene, C. Adamo, R. Cammi, 
 J. W. Ochterski, R. L. Martin, K. Morokuma, O. Farkas, 
 J. B. Foresman, and D. J. Fox, Gaussian, Inc., Wallingford CT, 2016.
 
 ******************************************
 Gaussian 16:  EM64L-G16RevA.03 25-Dec-2016
                18-Jan-2018 
 ******************************************
 %nprocshared=32
 Will use up to   32 processors via shared memory.
 %mem=32GB
 %chk=allatoms_t.chk
 ---------------------------------------
 #p wb97xd/cc-pvdz sp scf=(maxcycles=20)
 ---------------------------------------
 1/38=1,172=1/1;
 2/12=2,17=6,18=5,40=1/2;
 3/5=16,11=2,25=1,30=1,74=-58/1,2,3;
 4//1;
 5/5=2,7=20,38=5/2;
 6/7=2,8=2,9=2,10=2,28=1/1;
 99/5=1,9=1/99;
 Leave Link    1 at Thu Jan 18 14:04:57 2018, MaxMem=  4294967296 cpu:               2.7 elap:               0.1
 (Enter /share/apps/g16/l101.exe)
 ------------------
 Base pair stacking
 ------------------
 Symbolic Z-matrix:
 Charge =  0 Multiplicity = 1
 N                     0.9736    10.77429  -6.43536 
 C                     0.43494   12.14795  -6.40518 
 C                     1.15537   8.58243  -6.43929 
 N                     2.44786   9.07919  -6.52542 
 C                     2.28662   10.37982  -6.51961 
 H                     3.09858   11.10547  -6.57521 
 N                    -0.6938    7.12378  -6.31335 
 C                    -1.45826   8.21972  -6.26743 
 H                    -2.52961   8.03674  -6.19686 
 N                    -1.09968   9.50172  -6.29546 
 C                     0.23592   9.61537  -6.38303 
 C                     0.64615   7.27163  -6.40132 
 N                     1.41093   6.17884  -6.44727 
 H                     2.40747   6.24092  -6.51252 
 H                     1.01405   5.26136  -6.41805 
 H                     0.69754   12.62887  -7.24179 
 H                    -0.56194   12.1145  -6.34001 
 H                     0.8029    12.63518  -5.61321 
 N                    -0.44498   7.39816  -3.18855 
 C                    -0.96192   6.12557  -3.15216 
 C                    -1.24014   8.64238  -3.20735 
 N                    -3.70213   3.99349  -3.06701 
 H                    -3.86971   3.00833  -3.04185 
 H                    -4.50492   4.59033  -3.0706 
 N                    -2.27258   5.80056  -3.12766 
 C                    -2.45718   4.49272  -3.09473 
 N                    -1.43759   3.57191  -3.08638 
 H                    -1.67227   2.59149  -3.06045 
 C                    -0.08184   3.88365  -3.11115 
 O                     0.75899   2.9761   -3.1008 
 C                     0.13225   5.285    -3.14664 
 N                     1.31237   6.01519  -3.17891 
 C                     0.92158   7.26055  -3.20296 
 H                     1.591     8.12097  -3.23169 
 H                    -1.03517   9.15838  -4.03833 
 H                    -2.2127    8.41418  -3.18947 
 H                    -1.01413   9.19649  -2.40691 
 H                    -3.50363  -2.12374  -3.57565 
 H                    -3.22464  -2.1988   -1.8375 
 H                    -3.65695  -0.66561  -2.59499 
 H                     1.25405  -2.83179  -3.47679 
 C                     0.53679  -2.02477  -3.32681 
 O                     2.15724  -0.30234  -3.51253 
 C                     0.99487  -0.66913  -3.3418 
 H                     0.29171   1.24286  -3.14637 
 N                     0.00658   0.27363  -3.14246 
 O                    -2.1312    0.94346  -2.7704 
 C                    -1.33036   0.04055  -2.93794 
 H                    -1.16019  -3.29708  -3.10937 
 C                    -0.76114  -2.28382  -3.12967 
 C                    -3.11302  -1.58978  -2.7222 
 N                    -1.69432  -1.29164  -2.93704 
 H                    -4.42865   0.14339  -6.22703 
 H                    -4.22642   1.43244  -5.24745 
 H                    -4.02842  -0.0776   -4.66037 
 H                     2.5184    2.69029  -6.79038 
 H                     2.12801   1.03501  -6.92359 
 N                     1.83086   1.9678   -6.71666 
 C                     0.57336   2.23527  -6.35842 
 C                    -1.6877    1.68774  -5.85888 
 N                    -2.05847   2.94987  -5.58687 
 H                    -1.24282   4.82927  -5.53058 
 C                    -1.0283    3.78076  -5.73272 
 N                     0.23193   3.51481  -6.09144 
 H                    -2.01824  -1.50752  -6.22388 
 C                    -1.65097  -0.4821   -6.17334 
 N                    -0.41975  -0.11771  -6.43604 
 C                    -0.4294    1.25574  -6.24046 
 C                    -3.9033    0.51061  -5.45946 
 N                    -2.4724    0.55968  -5.81741 
 
 ITRead=  0  0  0  0  0  0  0  0  0  0  0  0  0  0  0  0  0  0  0  0
 ITRead=  0  0  0  0  0  0  0  0  0  0  0  0  0  0  0  0  0  0  0  0
 ITRead=  0  0  0  0  0  0  0  0  0  0  0  0  0  0  0  0  0  0  0  0
 ITRead=  0  0  0  0  0  0  0  0  0  0
 MicOpt= -1 -1 -1 -1 -1 -1 -1 -1 -1 -1 -1 -1 -1 -1 -1 -1 -1 -1 -1 -1
 MicOpt= -1 -1 -1 -1 -1 -1 -1 -1 -1 -1 -1 -1 -1 -1 -1 -1 -1 -1 -1 -1
 MicOpt= -1 -1 -1 -1 -1 -1 -1 -1 -1 -1 -1 -1 -1 -1 -1 -1 -1 -1 -1 -1
 MicOpt= -1 -1 -1 -1 -1 -1 -1 -1 -1 -1
 NAtoms=     70 NQM=       70 NQMF=       0 NMMI=      0 NMMIF=      0
                NMic=       0 NMicF=      0.
                    Isotopes and Nuclear Properties:
 (Nuclear quadrupole moments (NQMom) in fm**2, nuclear magnetic moments (NMagM)
  in nuclear magnetons)

  Atom         1           2           3           4           5           6           7           8           9          10
 IAtWgt=          14          12          12          14          12           1          14          12           1          14
 AtmWgt=  14.0030740  12.0000000  12.0000000  14.0030740  12.0000000   1.0078250  14.0030740  12.0000000   1.0078250  14.0030740
 NucSpn=           2           0           0           2           0           1           2           0           1           2
 AtZEff=  -0.0000000  -0.0000000  -0.0000000  -0.0000000  -0.0000000  -0.0000000  -0.0000000  -0.0000000  -0.0000000  -0.0000000
 NQMom=    2.0440000   0.0000000   0.0000000   2.0440000   0.0000000   0.0000000   2.0440000   0.0000000   0.0000000   2.0440000
 NMagM=    0.4037610   0.0000000   0.0000000   0.4037610   0.0000000   2.7928460   0.4037610   0.0000000   2.7928460   0.4037610
 AtZNuc=   7.0000000   6.0000000   6.0000000   7.0000000   6.0000000   1.0000000   7.0000000   6.0000000   1.0000000   7.0000000

  Atom        11          12          13          14          15          16          17          18          19          20
 IAtWgt=          12          12          14           1           1           1           1           1          14          12
 AtmWgt=  12.0000000  12.0000000  14.0030740   1.0078250   1.0078250   1.0078250   1.0078250   1.0078250  14.0030740  12.0000000
 NucSpn=           0           0           2           1           1           1           1           1           2           0
 AtZEff=  -0.0000000  -0.0000000  -0.0000000  -0.0000000  -0.0000000  -0.0000000  -0.0000000  -0.0000000  -0.0000000  -0.0000000
 NQMom=    0.0000000   0.0000000   2.0440000   0.0000000   0.0000000   0.0000000   0.0000000   0.0000000   2.0440000   0.0000000
 NMagM=    0.0000000   0.0000000   0.4037610   2.7928460   2.7928460   2.7928460   2.7928460   2.7928460   0.4037610   0.0000000
 AtZNuc=   6.0000000   6.0000000   7.0000000   1.0000000   1.0000000   1.0000000   1.0000000   1.0000000   7.0000000   6.0000000

  Atom        21          22          23          24          25          26          27          28          29          30
 IAtWgt=          12          14           1           1          14          12          14           1          12          16
 AtmWgt=  12.0000000  14.0030740   1.0078250   1.0078250  14.0030740  12.0000000  14.0030740   1.0078250  12.0000000  15.9949146
 NucSpn=           0           2           1           1           2           0           2           1           0           0
 AtZEff=  -0.0000000  -0.0000000  -0.0000000  -0.0000000  -0.0000000  -0.0000000  -0.0000000  -0.0000000  -0.0000000  -0.0000000
 NQMom=    0.0000000   2.0440000   0.0000000   0.0000000   2.0440000   0.0000000   2.0440000   0.0000000   0.0000000   0.0000000
 NMagM=    0.0000000   0.4037610   2.7928460   2.7928460   0.4037610   0.0000000   0.4037610   2.7928460   0.0000000   0.0000000
 AtZNuc=   6.0000000   7.0000000   1.0000000   1.0000000   7.0000000   6.0000000   7.0000000   1.0000000   6.0000000   8.0000000

  Atom        31          32          33          34          35          36          37          38          39          40
 IAtWgt=          12          14          12           1           1           1           1           1           1           1
 AtmWgt=  12.0000000  14.0030740  12.0000000   1.0078250   1.0078250   1.0078250   1.0078250   1.0078250   1.0078250   1.0078250
 NucSpn=           0           2           0           1           1           1           1           1           1           1
 AtZEff=  -0.0000000  -0.0000000  -0.0000000  -0.0000000  -0.0000000  -0.0000000  -0.0000000  -0.0000000  -0.0000000  -0.0000000
 NQMom=    0.0000000   2.0440000   0.0000000   0.0000000   0.0000000   0.0000000   0.0000000   0.0000000   0.0000000   0.0000000
 NMagM=    0.0000000   0.4037610   0.0000000   2.7928460   2.7928460   2.7928460   2.7928460   2.7928460   2.7928460   2.7928460
 AtZNuc=   6.0000000   7.0000000   6.0000000   1.0000000   1.0000000   1.0000000   1.0000000   1.0000000   1.0000000   1.0000000

  Atom        41          42          43          44          45          46          47          48          49          50
 IAtWgt=           1          12          16          12           1          14          16          12           1          12
 AtmWgt=   1.0078250  12.0000000  15.9949146  12.0000000   1.0078250  14.0030740  15.9949146  12.0000000   1.0078250  12.0000000
 NucSpn=           1           0           0           0           1           2           0           0           1           0
 AtZEff=  -0.0000000  -0.0000000  -0.0000000  -0.0000000  -0.0000000  -0.0000000  -0.0000000  -0.0000000  -0.0000000  -0.0000000
 NQMom=    0.0000000   0.0000000   0.0000000   0.0000000   0.0000000   2.0440000   0.0000000   0.0000000   0.0000000   0.0000000
 NMagM=    2.7928460   0.0000000   0.0000000   0.0000000   2.7928460   0.4037610   0.0000000   0.0000000   2.7928460   0.0000000
 AtZNuc=   1.0000000   6.0000000   8.0000000   6.0000000   1.0000000   7.0000000   8.0000000   6.0000000   1.0000000   6.0000000

  Atom        51          52          53          54          55          56          57          58          59          60
 IAtWgt=          12          14           1           1           1           1           1          14          12          12
 AtmWgt=  12.0000000  14.0030740   1.0078250   1.0078250   1.0078250   1.0078250   1.0078250  14.0030740  12.0000000  12.0000000
 NucSpn=           0           2           1           1           1           1           1           2           0           0
 AtZEff=  -0.0000000  -0.0000000  -0.0000000  -0.0000000  -0.0000000  -0.0000000  -0.0000000  -0.0000000  -0.0000000  -0.0000000
 NQMom=    0.0000000   2.0440000   0.0000000   0.0000000   0.0000000   0.0000000   0.0000000   2.0440000   0.0000000   0.0000000
 NMagM=    0.0000000   0.4037610   2.7928460   2.7928460   2.7928460   2.7928460   2.7928460   0.4037610   0.0000000   0.0000000
 AtZNuc=   6.0000000   7.0000000   1.0000000   1.0000000   1.0000000   1.0000000   1.0000000   7.0000000   6.0000000   6.0000000

  Atom        61          62          63          64          65          66          67          68          69          70
 IAtWgt=          14           1          12          14           1          12          14          12          12          14
 AtmWgt=  14.0030740   1.0078250  12.0000000  14.0030740   1.0078250  12.0000000  14.0030740  12.0000000  12.0000000  14.0030740
 NucSpn=           2           1           0           2           1           0           2           0           0           2
 AtZEff=  -0.0000000  -0.0000000  -0.0000000  -0.0000000  -0.0000000  -0.0000000  -0.0000000  -0.0000000  -0.0000000  -0.0000000
 NQMom=    2.0440000   0.0000000   0.0000000   2.0440000   0.0000000   0.0000000   2.0440000   0.0000000   0.0000000   2.0440000
 NMagM=    0.4037610   2.7928460   0.0000000   0.4037610   2.7928460   0.0000000   0.4037610   0.0000000   0.0000000   0.4037610
 AtZNuc=   7.0000000   1.0000000   6.0000000   7.0000000   1.0000000   6.0000000   7.0000000   6.0000000   6.0000000   7.0000000
 Leave Link  101 at Thu Jan 18 14:04:58 2018, MaxMem=  4294967296 cpu:               7.7 elap:               0.3
 (Enter /share/apps/g16/l202.exe)
 Stoichiometry    C23H27N17O3
 Framework group  C1[X(C23H27N17O3)]
 Deg. of freedom   204
 Full point group                 C1      NOp   1
 Largest Abelian subgroup         C1      NOp   1
 Largest concise Abelian subgroup C1      NOp   1
                         Standard orientation:                         
 ---------------------------------------------------------------------
 Center     Atomic      Atomic             Coordinates (Angstroms)
 Number     Number       Type             X           Y           Z
 ---------------------------------------------------------------------
      1          7           0       -7.069845   -0.590836    0.266428
      2          6           0       -8.313636    0.179173    0.461564
      3          6           0       -4.969073   -1.241523    0.292327
      4          7           0       -5.673726   -2.231403   -0.377242
      5          6           0       -6.911159   -1.799772   -0.366042
      6          1           0       -7.756099   -2.328098   -0.808633
      7          7           0       -3.233443    0.005565    1.289979
      8          6           0       -4.168415    0.905330    1.612224
      9          1           0       -3.806855    1.777586    2.155083
     10          7           0       -5.476801    0.889456    1.365719
     11          6           0       -5.816210   -0.223832    0.695046
     12          6           0       -3.606861   -1.103695    0.615319
     13          7           0       -2.675006   -2.003019    0.292745
     14          1           0       -2.906153   -2.838818   -0.206468
     15          1           0       -1.714607   -1.872045    0.538950
     16          1           0       -8.966869   -0.367375    0.985711
     17          1           0       -8.110277    1.021737    0.959426
     18          1           0       -8.710126    0.406931   -0.427776
     19          7           0       -3.003233    1.512871   -1.462584
     20          6           0       -1.677197    1.664897   -1.136160
     21          6           0       -4.088539    2.437435   -1.077866
     22          7           0        0.848721    3.466090    0.424997
     23          1           0        1.837488    3.391836    0.551819
     24          1           0        0.396524    4.257284    0.837587
     25          7           0       -1.147167    2.676305   -0.414921
     26          6           0        0.159315    2.546490   -0.267069
     27          7           0        0.892519    1.506502   -0.785104
     28          1           0        1.887556    1.488648   -0.622154
     29          6           0        0.368121    0.455026   -1.530261
     30          8           0        1.117407   -0.434592   -1.952041
     31          6           0       -1.034419    0.580681   -1.697505
     32          7           0       -1.938725   -0.235592   -2.362959
     33          6           0       -3.090801    0.355538   -2.197120
     34          1           0       -4.039298   -0.011228   -2.590955
     35          1           0       -4.765675    1.949020   -0.528563
     36          1           0       -3.707896    3.190738   -0.543157
     37          1           0       -4.525851    2.801081   -1.899658
     38          1           0        6.675701    1.640283    1.081777
     39          1           0        7.002553    2.311738   -0.514139
     40          1           0        5.451360    2.615592    0.268693
     41          1           0        6.618991   -2.362574   -1.586658
     42          6           0        5.975173   -1.512433   -1.360835
     43          8           0        4.009501   -2.543722   -2.197310
     44          6           0        4.581512   -1.586061   -1.677237
     45          1           0        2.869178   -0.471493   -1.558994
     46          7           0        3.857635   -0.457124   -1.350506
     47          8           0        3.612814    1.641388   -0.517733
     48          6           0        4.333438    0.691717   -0.769697
     49          1           0        7.521020   -0.299130   -0.533762
     50          6           0        6.468704   -0.405332   -0.793959
     51          6           0        6.240721    1.892593    0.126163
     52          7           0        5.686811    0.686236   -0.494836
     53          1           0        4.164678    1.515687    3.671101
     54          1           0        3.047561    2.160897    2.672162
     55          1           0        4.584504    1.964182    2.159134
     56          1           0        0.479676   -3.885903    0.162661
     57          1           0        2.128299   -4.014180    0.581813
     58          7           0        1.304732   -3.449120    0.521327
     59          6           0        1.307667   -2.170050    0.902318
     60          6           0        2.287799   -0.181024    1.765358
     61          7           0        1.167072    0.553722    1.672884
     62          1           0       -0.780721    0.344515    1.070444
     63          6           0        0.169386   -0.176787    1.179042
     64          7           0        0.164454   -1.457998    0.796859
     65          1           0        5.383930   -0.831748    2.430713
     66          6           0        4.337053   -0.871800    2.128435
     67          7           0        3.740550   -1.934868    1.647016
     68          6           0        2.440655   -1.510582    1.412574
     69          6           0        3.855444    1.574403    2.721926
     70          7           0        3.517102    0.225769    2.227233
 ---------------------------------------------------------------------
 Rotational constants (GHZ):           0.1945481           0.0475178           0.0455113
 Leave Link  202 at Thu Jan 18 14:04:58 2018, MaxMem=  4294967296 cpu:               0.4 elap:               0.0
 (Enter /share/apps/g16/l301.exe)
 Standard basis: CC-pVDZ (5D, 7F)
 Ernie: Thresh=  0.10000D-02 Tol=  0.10000D-05 Strict=F.
 Ernie:  86 primitive shells out of 1081 were deleted.
 There are   780 symmetry adapted cartesian basis functions of A   symmetry.
 There are   737 symmetry adapted basis functions of A   symmetry.
   737 basis functions,  1608 primitive gaussians,   780 cartesian basis functions
   154 alpha electrons      154 beta electrons
       nuclear repulsion energy      5541.5844128931 Hartrees.
 IExCor= 4639 DFT=T Ex+Corr=wB97XD ExCW=0 ScaHFX=  1.000000
 ScaDFX=  1.000000  1.000000  1.000000  1.000000 ScalE2=  1.000000  1.000000
 IRadAn=      5 IRanWt=     -1 IRanGd=            0 ICorTp=0 IEmpDi=121
 HFx  wShort=  0.000000 wLong=  0.200000 cFull=  0.222036 cShort=  0.000000 cLong=  0.777964
 DFx  wShort=  0.000000 wLong=  0.200000 cFull=  0.000000 cShort=  0.000000 cLong=  1.000000
 NAtoms=   70 NActive=   70 NUniq=   70 SFac= 1.00D+00 NAtFMM=   60 NAOKFM=T Big=T
 Integral buffers will be    131072 words long.
 Raffenetti 2 integral format.
 Two-electron integral symmetry is turned on.
 R6Disp:  Grimme-D2 Dispersion energy=       -0.0768870555 Hartrees.
 Nuclear repulsion after empirical dispersion term =     5541.5075258376 Hartrees.
 Leave Link  301 at Thu Jan 18 14:04:58 2018, MaxMem=  4294967296 cpu:               3.0 elap:               0.1
 (Enter /share/apps/g16/l302.exe)
 NPDir=0 NMtPBC=     1 NCelOv=     1 NCel=       1 NClECP=     1 NCelD=      1
         NCelK=      1 NCelE2=     1 NClLst=     1 CellRange=     0.0.
 One-electron integrals computed using PRISM.
 One-electron integral symmetry used in STVInt
 NBasis=   737 RedAO= T EigKep=  6.82D-04  NBF=   737
 NBsUse=   737 1.00D-06 EigRej= -1.00D+00 NBFU=   737
 Precomputing XC quadrature grid using
 IXCGrd= 4 IRadAn=           5 IRanWt=          -1 IRanGd=           0 AccXCQ= 0.00D+00.
 Generated NRdTot=       0 NPtTot=           0 NUsed=           0 NTot=          32
 NSgBfM=   757   757   757   757   757 MxSgAt=    70 MxSgA2=    70.
 Leave Link  302 at Thu Jan 18 14:05:02 2018, MaxMem=  4294967296 cpu:             138.2 elap:               4.4
 (Enter /share/apps/g16/l303.exe)
 DipDrv:  MaxL=1.
 Leave Link  303 at Thu Jan 18 14:05:03 2018, MaxMem=  4294967296 cpu:              12.4 elap:               0.4
 (Enter /share/apps/g16/l401.exe)
 ExpMin= 1.22D-01 ExpMax= 1.17D+04 ExpMxC= 4.01D+02 IAcc=3 IRadAn=         5 AccDes= 0.00D+00
 Harris functional with IExCor= 4639 and IRadAn=       5 diagonalized for initial guess.
 HarFok:  IExCor= 4639 AccDes= 0.00D+00 IRadAn=         5 IDoV= 1 UseB2=F ITyADJ=14
 ICtDFT=  3500011 ScaDFX=  1.000000  1.000000  1.000000  1.000000
 FoFCou: FMM=F IPFlag=           0 FMFlag=      100000 FMFlg1=        2001
         NFxFlg=           0 DoJE=T BraDBF=F KetDBF=T FulRan=T
         wScrn=  0.000000 ICntrl=       500 IOpCl=  0 I1Cent=   200000004 NGrid=           0
         NMat0=    1 NMatS0=      1 NMatT0=    0 NMatD0=    1 NMtDS0=    0 NMtDT0=    0
 Petite list used in FoFCou.
 Harris En= -1963.87161273051    
 JPrj=0 DoOrth=F DoCkMO=F.
 Leave Link  401 at Thu Jan 18 14:05:16 2018, MaxMem=  4294967296 cpu:             407.7 elap:              12.8
 (Enter /share/apps/g16/l502.exe)
 Integral symmetry usage will be decided dynamically.
 Closed shell SCF:
 Using DIIS extrapolation, IDIIS=  1040.
 NGot=  4294967296 LenX=  4293717438 LenY=  4293108258
 Requested convergence on RMS density matrix=1.00D-08 within  20 cycles.
 Requested convergence on MAX density matrix=1.00D-06.
 Requested convergence on             energy=1.00D-06.
 No special actions if energy rises.
 Fock matrices will be formed incrementally for  20 cycles.
 Integral accuracy reduced to 1.0D-05 until final iterations.

 Cycle   1  Pass 0  IDiag  1:
 FoFJK:  IHMeth= 1 ICntrl=       0 DoSepK=T KAlg= 0 I1Cent=           0 FoldK=F
 IRaf=         1 NMat=       1 IRICut=       1 DoRegI=T DoRafI=F ISym2E= 0 IDoP0=0 IntGTp=1.
 FoFCou: FMM=T IPFlag=           0 FMFlag=      100000 FMFlg1=        2001
         NFxFlg=           0 DoJE=T BraDBF=F KetDBF=F FulRan=T
         wScrn=  0.000000 ICntrl=       500 IOpCl=  0 I1Cent=           0 NGrid=           0
         NMat0=    1 NMatS0=      1 NMatT0=    0 NMatD0=    1 NMtDS0=    0 NMtDT0=    0
 Symmetry not used in FoFCou.
 FMM levels:  10  Number of levels for PrismC:   9
 E= -2048.30141211561    
 DIIS: error= 2.34D-02 at cycle   1 NSaved=   1.
 NSaved= 1 IEnMin= 1 EnMin= -2048.30141211561     IErMin= 1 ErrMin= 2.34D-02
 ErrMax= 2.34D-02  0.00D+00 EMaxC= 1.00D-01 BMatC= 8.37D-01 BMatP= 8.37D-01
 IDIUse=3 WtCom= 7.66D-01 WtEn= 2.34D-01
 Coeff-Com:  0.100D+01
 Coeff-En:   0.100D+01
 Coeff:      0.100D+01
 Gap=     0.247 Goal=   None    Shift=    0.000
 GapD=    0.247 DampG=1.000 DampE=0.500 DampFc=0.5000 IDamp=-1.
 Damping current iteration by 5.00D-01
 RMSDP=1.62D-03 MaxDP=1.27D-01              OVMax= 2.20D-01

 Cycle   2  Pass 0  IDiag  1:
 RMSU=  8.08D-04    CP:  9.97D-01
 E= -2048.49839351238     Delta-E=       -0.196981396773 Rises=F Damp=T
 DIIS: error= 1.28D-02 at cycle   2 NSaved=   2.
 NSaved= 2 IEnMin= 2 EnMin= -2048.49839351238     IErMin= 2 ErrMin= 1.28D-02
 ErrMax= 1.28D-02  0.00D+00 EMaxC= 1.00D-01 BMatC= 1.47D-01 BMatP= 8.37D-01
 IDIUse=3 WtCom= 8.72D-01 WtEn= 1.28D-01
 Coeff-Com: -0.182D+00 0.118D+01
 Coeff-En:   0.000D+00 0.100D+01
 Coeff:     -0.158D+00 0.116D+01
 Gap=     0.367 Goal=   None    Shift=    0.000
 RMSDP=6.05D-04 MaxDP=3.46D-02 DE=-1.97D-01 OVMax= 1.52D-01

 Cycle   3  Pass 0  IDiag  1:
 RMSU=  5.97D-04    CP:  9.94D-01  1.11D+00
 E= -2048.67898903694     Delta-E=       -0.180595524555 Rises=F Damp=F
 DIIS: error= 8.05D-03 at cycle   3 NSaved=   3.
 NSaved= 3 IEnMin= 3 EnMin= -2048.67898903694     IErMin= 3 ErrMin= 8.05D-03
 ErrMax= 8.05D-03  0.00D+00 EMaxC= 1.00D-01 BMatC= 6.79D-02 BMatP= 1.47D-01
 IDIUse=3 WtCom= 9.19D-01 WtEn= 8.05D-02
 Coeff-Com: -0.230D+00 0.553D+00 0.678D+00
 Coeff-En:   0.000D+00 0.000D+00 0.100D+01
 Coeff:     -0.212D+00 0.508D+00 0.704D+00
 Gap=     0.276 Goal=   None    Shift=    0.000
 RMSDP=3.81D-04 MaxDP=3.30D-02 DE=-1.81D-01 OVMax= 5.85D-02

 Cycle   4  Pass 0  IDiag  1:
 RMSU=  2.11D-04    CP:  9.94D-01  1.40D+00  6.54D-01
 E= -2048.73041850960     Delta-E=       -0.051429472662 Rises=F Damp=F
 DIIS: error= 3.58D-03 at cycle   4 NSaved=   4.
 NSaved= 4 IEnMin= 4 EnMin= -2048.73041850960     IErMin= 4 ErrMin= 3.58D-03
 ErrMax= 3.58D-03  0.00D+00 EMaxC= 1.00D-01 BMatC= 1.02D-02 BMatP= 6.79D-02
 IDIUse=3 WtCom= 9.64D-01 WtEn= 3.58D-02
 Coeff-Com: -0.946D-01 0.183D+00 0.379D+00 0.533D+00
 Coeff-En:   0.000D+00 0.000D+00 0.778D-01 0.922D+00
 Coeff:     -0.912D-01 0.177D+00 0.368D+00 0.547D+00
 Gap=     0.282 Goal=   None    Shift=    0.000
 RMSDP=1.36D-04 MaxDP=1.29D-02 DE=-5.14D-02 OVMax= 1.71D-02

 Cycle   5  Pass 0  IDiag  1:
 RMSU=  6.25D-05    CP:  9.93D-01  1.37D+00  7.96D-01  6.16D-01
 E= -2048.73886546186     Delta-E=       -0.008446952259 Rises=F Damp=F
 DIIS: error= 6.13D-04 at cycle   5 NSaved=   5.
 NSaved= 5 IEnMin= 5 EnMin= -2048.73886546186     IErMin= 5 ErrMin= 6.13D-04
 ErrMax= 6.13D-04  0.00D+00 EMaxC= 1.00D-01 BMatC= 3.20D-04 BMatP= 1.02D-02
 IDIUse=3 WtCom= 9.94D-01 WtEn= 6.13D-03
 Coeff-Com: -0.243D-01 0.413D-01 0.121D+00 0.242D+00 0.620D+00
 Coeff-En:   0.000D+00 0.000D+00 0.000D+00 0.000D+00 0.100D+01
 Coeff:     -0.241D-01 0.410D-01 0.120D+00 0.241D+00 0.622D+00
 Gap=     0.283 Goal=   None    Shift=    0.000
 RMSDP=2.72D-05 MaxDP=2.28D-03 DE=-8.45D-03 OVMax= 3.68D-03

 Failed to achieve initial convergence to 1.0D-08 in  6 cycles.
 Switch to full accuracy anyway.
 Cycle   6  Pass 1  IDiag  1:
 E= -2048.73922330420     Delta-E=       -0.000357842338 Rises=F Damp=F
 DIIS: error= 2.01D-04 at cycle   1 NSaved=   1.
 NSaved= 1 IEnMin= 1 EnMin= -2048.73922330420     IErMin= 1 ErrMin= 2.01D-04
 ErrMax= 2.01D-04  0.00D+00 EMaxC= 1.00D-01 BMatC= 7.60D-05 BMatP= 7.60D-05
 IDIUse=3 WtCom= 9.98D-01 WtEn= 2.01D-03
 Coeff-Com:  0.100D+01
 Coeff-En:   0.100D+01
 Coeff:      0.100D+01
 Gap=     0.282 Goal=   None    Shift=    0.000
 RMSDP=2.72D-05 MaxDP=2.28D-03 DE=-3.58D-04 OVMax= 2.26D-03

 Cycle   7  Pass 1  IDiag  1:
 RMSU=  1.09D-04    CP:  1.00D+00
 E= -2048.73927524720     Delta-E=       -0.000051943008 Rises=F Damp=F
 DIIS: error= 2.72D-04 at cycle   2 NSaved=   2.
 NSaved= 2 IEnMin= 2 EnMin= -2048.73927524720     IErMin= 1 ErrMin= 2.01D-04
 ErrMax= 2.72D-04  0.00D+00 EMaxC= 1.00D-01 BMatC= 4.86D-05 BMatP= 7.60D-05
 IDIUse=3 WtCom= 9.97D-01 WtEn= 2.72D-03
 Coeff-Com:  0.426D+00 0.574D+00
 Coeff-En:   0.296D-01 0.970D+00
 Coeff:      0.425D+00 0.575D+00
 Gap=     0.283 Goal=   None    Shift=    0.000
 RMSDP=1.18D-05 MaxDP=1.30D-03 DE=-5.19D-05 OVMax= 1.56D-03

 Cycle   8  Pass 1  IDiag  1:
 RMSU=  1.16D-05    CP:  1.00D+00  1.02D+00
 E= -2048.73931071379     Delta-E=       -0.000035466584 Rises=F Damp=F
 DIIS: error= 1.52D-04 at cycle   3 NSaved=   3.
 NSaved= 3 IEnMin= 3 EnMin= -2048.73931071379     IErMin= 3 ErrMin= 1.52D-04
 ErrMax= 1.52D-04  0.00D+00 EMaxC= 1.00D-01 BMatC= 1.00D-05 BMatP= 4.86D-05
 IDIUse=3 WtCom= 9.98D-01 WtEn= 1.52D-03
 Coeff-Com: -0.181D-01 0.298D+00 0.720D+00
 Coeff-En:   0.000D+00 0.111D+00 0.889D+00
 Coeff:     -0.181D-01 0.298D+00 0.720D+00
 Gap=     0.283 Goal=   None    Shift=    0.000
 RMSDP=5.69D-06 MaxDP=5.09D-04 DE=-3.55D-05 OVMax= 5.87D-04

 Cycle   9  Pass 1  IDiag  1:
 RMSU=  3.91D-06    CP:  1.00D+00  1.05D+00  7.72D-01
 E= -2048.73932010246     Delta-E=       -0.000009388667 Rises=F Damp=F
 DIIS: error= 2.94D-05 at cycle   4 NSaved=   4.
 NSaved= 4 IEnMin= 4 EnMin= -2048.73932010246     IErMin= 4 ErrMin= 2.94D-05
 ErrMax= 2.94D-05  0.00D+00 EMaxC= 1.00D-01 BMatC= 5.26D-07 BMatP= 1.00D-05
 IDIUse=1 WtCom= 1.00D+00 WtEn= 0.00D+00
 Coeff-Com: -0.322D-01 0.803D-01 0.266D+00 0.686D+00
 Coeff:     -0.322D-01 0.803D-01 0.266D+00 0.686D+00
 Gap=     0.283 Goal=   None    Shift=    0.000
 RMSDP=1.48D-06 MaxDP=1.21D-04 DE=-9.39D-06 OVMax= 5.02D-04

 Cycle  10  Pass 1  IDiag  1:
 RMSU=  1.33D-06    CP:  1.00D+00  1.05D+00  8.04D-01  1.10D+00
 E= -2048.73932098425     Delta-E=       -0.000000881796 Rises=F Damp=F
 DIIS: error= 1.52D-05 at cycle   5 NSaved=   5.
 NSaved= 5 IEnMin= 5 EnMin= -2048.73932098425     IErMin= 5 ErrMin= 1.52D-05
 ErrMax= 1.52D-05  0.00D+00 EMaxC= 1.00D-01 BMatC= 1.24D-07 BMatP= 5.26D-07
 IDIUse=1 WtCom= 1.00D+00 WtEn= 0.00D+00
 Coeff-Com: -0.398D-02-0.515D-01-0.118D+00 0.206D+00 0.968D+00
 Coeff:     -0.398D-02-0.515D-01-0.118D+00 0.206D+00 0.968D+00
 Gap=     0.283 Goal=   None    Shift=    0.000
 RMSDP=1.22D-06 MaxDP=6.78D-05 DE=-8.82D-07 OVMax= 2.51D-04

 Cycle  11  Pass 1  IDiag  1:
 RMSU=  4.93D-07    CP:  1.00D+00  1.05D+00  8.11D-01  1.38D+00  1.17D+00
 E= -2048.73932124908     Delta-E=       -0.000000264825 Rises=F Damp=F
 DIIS: error= 7.10D-06 at cycle   6 NSaved=   6.
 NSaved= 6 IEnMin= 6 EnMin= -2048.73932124908     IErMin= 6 ErrMin= 7.10D-06
 ErrMax= 7.10D-06  0.00D+00 EMaxC= 1.00D-01 BMatC= 3.10D-08 BMatP= 1.24D-07
 IDIUse=1 WtCom= 1.00D+00 WtEn= 0.00D+00
 Coeff-Com:  0.457D-02-0.424D-01-0.116D+00-0.327D-02 0.524D+00 0.633D+00
 Coeff:      0.457D-02-0.424D-01-0.116D+00-0.327D-02 0.524D+00 0.633D+00
 Gap=     0.283 Goal=   None    Shift=    0.000
 RMSDP=3.78D-07 MaxDP=3.25D-05 DE=-2.65D-07 OVMax= 1.26D-04

 Cycle  12  Pass 1  IDiag  1:
 RMSU=  1.83D-07    CP:  1.00D+00  1.05D+00  8.13D-01  1.45D+00  1.29D+00
                    CP:  9.11D-01
 E= -2048.73932129300     Delta-E=       -0.000000043924 Rises=F Damp=F
 DIIS: error= 1.47D-06 at cycle   7 NSaved=   7.
 NSaved= 7 IEnMin= 7 EnMin= -2048.73932129300     IErMin= 7 ErrMin= 1.47D-06
 ErrMax= 1.47D-06  0.00D+00 EMaxC= 1.00D-01 BMatC= 8.40D-10 BMatP= 3.10D-08
 IDIUse=1 WtCom= 1.00D+00 WtEn= 0.00D+00
 Coeff-Com:  0.121D-02-0.786D-02-0.231D-01-0.857D-02 0.703D-01 0.149D+00
 Coeff-Com:  0.819D+00
 Coeff:      0.121D-02-0.786D-02-0.231D-01-0.857D-02 0.703D-01 0.149D+00
 Coeff:      0.819D+00
 Gap=     0.283 Goal=   None    Shift=    0.000
 RMSDP=8.31D-08 MaxDP=4.51D-06 DE=-4.39D-08 OVMax= 2.23D-05

 Cycle  13  Pass 1  IDiag  1:
 RMSU=  5.14D-08    CP:  1.00D+00  1.05D+00  8.12D-01  1.46D+00  1.31D+00
                    CP:  9.90D-01  1.13D+00
 E= -2048.73932129478     Delta-E=       -0.000000001776 Rises=F Damp=F
 DIIS: error= 6.39D-07 at cycle   8 NSaved=   8.
 NSaved= 8 IEnMin= 8 EnMin= -2048.73932129478     IErMin= 8 ErrMin= 6.39D-07
 ErrMax= 6.39D-07  0.00D+00 EMaxC= 1.00D-01 BMatC= 3.19D-10 BMatP= 8.40D-10
 IDIUse=1 WtCom= 1.00D+00 WtEn= 0.00D+00
 Coeff-Com: -0.689D-03 0.815D-02 0.211D-01-0.121D-02-0.112D+00-0.102D+00
 Coeff-Com:  0.397D+00 0.788D+00
 Coeff:     -0.689D-03 0.815D-02 0.211D-01-0.121D-02-0.112D+00-0.102D+00
 Coeff:      0.397D+00 0.788D+00
 Gap=     0.283 Goal=   None    Shift=    0.000
 RMSDP=4.73D-08 MaxDP=2.53D-06 DE=-1.78D-09 OVMax= 1.10D-05

 Cycle  14  Pass 1  IDiag  1:
 RMSU=  2.70D-08    CP:  1.00D+00  1.05D+00  8.12D-01  1.47D+00  1.32D+00
                    CP:  1.03D+00  1.28D+00  1.06D+00
 E= -2048.73932129514     Delta-E=       -0.000000000366 Rises=F Damp=F
 DIIS: error= 1.95D-07 at cycle   9 NSaved=   9.
 NSaved= 9 IEnMin= 9 EnMin= -2048.73932129514     IErMin= 9 ErrMin= 1.95D-07
 ErrMax= 1.95D-07  0.00D+00 EMaxC= 1.00D-01 BMatC= 2.56D-11 BMatP= 3.19D-10
 IDIUse=1 WtCom= 1.00D+00 WtEn= 0.00D+00
 Coeff-Com: -0.394D-03 0.402D-02 0.107D-01 0.471D-03-0.505D-01-0.551D-01
 Coeff-Com:  0.758D-01 0.291D+00 0.724D+00
 Coeff:     -0.394D-03 0.402D-02 0.107D-01 0.471D-03-0.505D-01-0.551D-01
 Coeff:      0.758D-01 0.291D+00 0.724D+00
 Gap=     0.283 Goal=   None    Shift=    0.000
 RMSDP=1.29D-08 MaxDP=6.11D-07 DE=-3.66D-10 OVMax= 3.18D-06

 Cycle  15  Pass 1  IDiag  1:
 RMSU=  8.90D-09    CP:  1.00D+00  1.05D+00  8.12D-01  1.47D+00  1.32D+00
                    CP:  1.04D+00  1.31D+00  1.19D+00  1.11D+00
 E= -2048.73932129550     Delta-E=       -0.000000000362 Rises=F Damp=F
 DIIS: error= 6.50D-08 at cycle  10 NSaved=  10.
 NSaved=10 IEnMin=10 EnMin= -2048.73932129550     IErMin=10 ErrMin= 6.50D-08
 ErrMax= 6.50D-08  0.00D+00 EMaxC= 1.00D-01 BMatC= 4.08D-12 BMatP= 2.56D-11
 IDIUse=1 WtCom= 1.00D+00 WtEn= 0.00D+00
 Coeff-Com:  0.202D-04-0.439D-03-0.104D-02 0.114D-03 0.724D-02 0.349D-02
 Coeff-Com: -0.522D-01-0.755D-01 0.234D+00 0.884D+00
 Coeff:      0.202D-04-0.439D-03-0.104D-02 0.114D-03 0.724D-02 0.349D-02
 Coeff:     -0.522D-01-0.755D-01 0.234D+00 0.884D+00
 Gap=     0.283 Goal=   None    Shift=    0.000
 RMSDP=6.37D-09 MaxDP=3.55D-07 DE=-3.62D-10 OVMax= 1.36D-06

 SCF Done:  E(RwB97XD) =  -2048.73932130     A.U. after   15 cycles
            NFock= 15  Conv=0.64D-08     -V/T= 2.0053
 KE= 2.037846206058D+03 PE=-1.586374562557D+04 EE= 6.235652572378D+03
 Leave Link  502 at Thu Jan 18 14:17:11 2018, MaxMem=  4294967296 cpu:           22099.4 elap:             715.5
 (Enter /share/apps/g16/l601.exe)
 Copying SCF densities to generalized density rwf, IOpCl= 0 IROHF=0.

 **********************************************************************

            Population analysis using the SCF density.

 **********************************************************************

 Orbital symmetries:
       Occupied  (A) (A) (A) (A) (A) (A) (A) (A) (A) (A) (A) (A)
                 (A) (A) (A) (A) (A) (A) (A) (A) (A) (A) (A) (A)
                 (A) (A) (A) (A) (A) (A) (A) (A) (A) (A) (A) (A)
                 (A) (A) (A) (A) (A) (A) (A) (A) (A) (A) (A) (A)
                 (A) (A) (A) (A) (A) (A) (A) (A) (A) (A) (A) (A)
                 (A) (A) (A) (A) (A) (A) (A) (A) (A) (A) (A) (A)
                 (A) (A) (A) (A) (A) (A) (A) (A) (A) (A) (A) (A)
                 (A) (A) (A) (A) (A) (A) (A) (A) (A) (A) (A) (A)
                 (A) (A) (A) (A) (A) (A) (A) (A) (A) (A) (A) (A)
                 (A) (A) (A) (A) (A) (A) (A) (A) (A) (A) (A) (A)
                 (A) (A) (A) (A) (A) (A) (A) (A) (A) (A) (A) (A)
                 (A) (A) (A) (A) (A) (A) (A) (A) (A) (A) (A) (A)
                 (A) (A) (A) (A) (A) (A) (A) (A) (A) (A)
       Virtual   (A) (A) (A) (A) (A) (A) (A) (A) (A) (A) (A) (A)
                 (A) (A) (A) (A) (A) (A) (A) (A) (A) (A) (A) (A)
                 (A) (A) (A) (A) (A) (A) (A) (A) (A) (A) (A) (A)
                 (A) (A) (A) (A) (A) (A) (A) (A) (A) (A) (A) (A)
                 (A) (A) (A) (A) (A) (A) (A) (A) (A) (A) (A) (A)
                 (A) (A) (A) (A) (A) (A) (A) (A) (A) (A) (A) (A)
                 (A) (A) (A) (A) (A) (A) (A) (A) (A) (A) (A) (A)
                 (A) (A) (A) (A) (A) (A) (A) (A) (A) (A) (A) (A)
                 (A) (A) (A) (A) (A) (A) (A) (A) (A) (A) (A) (A)
                 (A) (A) (A) (A) (A) (A) (A) (A) (A) (A) (A) (A)
                 (A) (A) (A) (A) (A) (A) (A) (A) (A) (A) (A) (A)
                 (A) (A) (A) (A) (A) (A) (A) (A) (A) (A) (A) (A)
                 (A) (A) (A) (A) (A) (A) (A) (A) (A) (A) (A) (A)
                 (A) (A) (A) (A) (A) (A) (A) (A) (A) (A) (A) (A)
                 (A) (A) (A) (A) (A) (A) (A) (A) (A) (A) (A) (A)
                 (A) (A) (A) (A) (A) (A) (A) (A) (A) (A) (A) (A)
                 (A) (A) (A) (A) (A) (A) (A) (A) (A) (A) (A) (A)
                 (A) (A) (A) (A) (A) (A) (A) (A) (A) (A) (A) (A)
                 (A) (A) (A) (A) (A) (A) (A) (A) (A) (A) (A) (A)
                 (A) (A) (A) (A) (A) (A) (A) (A) (A) (A) (A) (A)
                 (A) (A) (A) (A) (A) (A) (A) (A) (A) (A) (A) (A)
                 (A) (A) (A) (A) (A) (A) (A) (A) (A) (A) (A) (A)
                 (A) (A) (A) (A) (A) (A) (A) (A) (A) (A) (A) (A)
                 (A) (A) (A) (A) (A) (A) (A) (A) (A) (A) (A) (A)
                 (A) (A) (A) (A) (A) (A) (A) (A) (A) (A) (A) (A)
                 (A) (A) (A) (A) (A) (A) (A) (A) (A) (A) (A) (A)
                 (A) (A) (A) (A) (A) (A) (A) (A) (A) (A) (A) (A)
                 (A) (A) (A) (A) (A) (A) (A) (A) (A) (A) (A) (A)
                 (A) (A) (A) (A) (A) (A) (A) (A) (A) (A) (A) (A)
                 (A) (A) (A) (A) (A) (A) (A) (A) (A) (A) (A) (A)
                 (A) (A) (A) (A) (A) (A) (A) (A) (A) (A) (A) (A)
                 (A) (A) (A) (A) (A) (A) (A) (A) (A) (A) (A) (A)
                 (A) (A) (A) (A) (A) (A) (A) (A) (A) (A) (A) (A)
                 (A) (A) (A) (A) (A) (A) (A) (A) (A) (A) (A) (A)
                 (A) (A) (A) (A) (A) (A) (A) (A) (A) (A) (A) (A)
                 (A) (A) (A) (A) (A) (A) (A) (A) (A) (A) (A) (A)
                 (A) (A) (A) (A) (A) (A) (A) (A) (A) (A) (A) (A)
                 (A) (A) (A) (A) (A) (A) (A) (A) (A) (A) (A) (A)
                 (A) (A) (A) (A) (A) (A) (A) (A) (A) (A) (A) (A)
                 (A) (A) (A) (A) (A) (A) (A) (A) (A) (A) (A) (A)
                 (A) (A) (A) (A) (A) (A) (A) (A) (A) (A) (A) (A)
                 (A) (A) (A) (A) (A) (A) (A) (A) (A) (A) (A) (A)
                 (A) (A) (A) (A) (A) (A) (A) (A) (A) (A) (A) (A)
                 (A) (A) (A) (A) (A) (A) (A) (A) (A) (A) (A) (A)
                 (A) (A) (A) (A) (A) (A) (A) (A) (A) (A) (A) (A)
                 (A) (A) (A) (A) (A) (A) (A) (A) (A) (A) (A) (A)
                 (A) (A) (A) (A) (A) (A) (A) (A) (A) (A) (A) (A)
                 (A) (A) (A) (A) (A) (A) (A) (A) (A) (A) (A) (A)
                 (A) (A) (A) (A) (A) (A) (A)
 The electronic state is 1-A.
 Alpha  occ. eigenvalues --  -19.26158 -19.21952 -19.20515 -14.52789 -14.51133
 Alpha  occ. eigenvalues --  -14.50248 -14.48188 -14.47916 -14.46388 -14.46374
 Alpha  occ. eigenvalues --  -14.46332 -14.43966 -14.43347 -14.42944 -14.42802
 Alpha  occ. eigenvalues --  -14.42609 -14.42321 -14.41824 -14.41494 -14.40529
 Alpha  occ. eigenvalues --  -10.45747 -10.40859 -10.40060 -10.38275 -10.38043
 Alpha  occ. eigenvalues --  -10.37788 -10.36802 -10.36656 -10.36199 -10.35713
 Alpha  occ. eigenvalues --  -10.35575 -10.34898 -10.34420 -10.34403 -10.34030
 Alpha  occ. eigenvalues --  -10.33197 -10.32927 -10.32159 -10.31158 -10.31050
 Alpha  occ. eigenvalues --  -10.30108 -10.29573 -10.27876  -1.19768  -1.13820
 Alpha  occ. eigenvalues --   -1.13033  -1.12975  -1.12873  -1.10266  -1.09629
 Alpha  occ. eigenvalues --   -1.08337  -1.07642  -1.06423  -1.03202  -1.02598
 Alpha  occ. eigenvalues --   -1.01848  -0.99586  -0.99447  -0.98388  -0.98263
 Alpha  occ. eigenvalues --   -0.96124  -0.95285  -0.94023  -0.91199  -0.86339
 Alpha  occ. eigenvalues --   -0.85392  -0.84899  -0.84196  -0.83715  -0.83664
 Alpha  occ. eigenvalues --   -0.81804  -0.79045  -0.75640  -0.74402  -0.74183
 Alpha  occ. eigenvalues --   -0.73541  -0.73420  -0.73275  -0.72490  -0.69014
 Alpha  occ. eigenvalues --   -0.67679  -0.67133  -0.66672  -0.65349  -0.64576
 Alpha  occ. eigenvalues --   -0.64085  -0.63459  -0.62863  -0.62504  -0.61471
 Alpha  occ. eigenvalues --   -0.61408  -0.61038  -0.59648  -0.59273  -0.58510
 Alpha  occ. eigenvalues --   -0.58102  -0.57947  -0.57862  -0.57651  -0.56655
 Alpha  occ. eigenvalues --   -0.56419  -0.56066  -0.54993  -0.54493  -0.54150
 Alpha  occ. eigenvalues --   -0.54056  -0.53352  -0.53163  -0.53054  -0.52553
 Alpha  occ. eigenvalues --   -0.52280  -0.51967  -0.51568  -0.51526  -0.51343
 Alpha  occ. eigenvalues --   -0.50353  -0.49889  -0.49498  -0.48623  -0.48546
 Alpha  occ. eigenvalues --   -0.48400  -0.48246  -0.48025  -0.47853  -0.47711
 Alpha  occ. eigenvalues --   -0.47272  -0.46179  -0.45255  -0.44262  -0.43010
 Alpha  occ. eigenvalues --   -0.42016  -0.39733  -0.39510  -0.38615  -0.37086
 Alpha  occ. eigenvalues --   -0.37059  -0.36565  -0.35954  -0.35463  -0.34935
 Alpha  occ. eigenvalues --   -0.34868  -0.34342  -0.33232  -0.33134  -0.33043
 Alpha  occ. eigenvalues --   -0.32619  -0.32495  -0.31960  -0.31797  -0.31709
 Alpha  occ. eigenvalues --   -0.31520  -0.28029  -0.27019  -0.25241
 Alpha virt. eigenvalues --    0.03034   0.05213   0.06327   0.08077   0.08703
 Alpha virt. eigenvalues --    0.08913   0.09878   0.10080   0.11079   0.12218
 Alpha virt. eigenvalues --    0.12568   0.13081   0.14659   0.14946   0.15122
 Alpha virt. eigenvalues --    0.15405   0.16235   0.17554   0.17925   0.18491
 Alpha virt. eigenvalues --    0.18648   0.18907   0.19429   0.19663   0.20389
 Alpha virt. eigenvalues --    0.20583   0.20794   0.21660   0.21893   0.22260
 Alpha virt. eigenvalues --    0.22782   0.22941   0.23003   0.23322   0.23810
 Alpha virt. eigenvalues --    0.23933   0.24660   0.25392   0.25982   0.26355
 Alpha virt. eigenvalues --    0.26450   0.26688   0.27477   0.27639   0.27976
 Alpha virt. eigenvalues --    0.28555   0.28881   0.29437   0.30239   0.30648
 Alpha virt. eigenvalues --    0.31733   0.32430   0.32917   0.33542   0.33899
 Alpha virt. eigenvalues --    0.33960   0.35144   0.35461   0.36141   0.36575
 Alpha virt. eigenvalues --    0.36964   0.37641   0.38326   0.38775   0.39216
 Alpha virt. eigenvalues --    0.40521   0.40766   0.41203   0.41381   0.41750
 Alpha virt. eigenvalues --    0.42132   0.43007   0.43249   0.44097   0.44444
 Alpha virt. eigenvalues --    0.45457   0.45478   0.46112   0.46328   0.47142
 Alpha virt. eigenvalues --    0.47583   0.48348   0.48681   0.49078   0.49478
 Alpha virt. eigenvalues --    0.49982   0.50553   0.50844   0.51074   0.51512
 Alpha virt. eigenvalues --    0.51714   0.52325   0.52860   0.53271   0.53583
 Alpha virt. eigenvalues --    0.54235   0.54573   0.55015   0.55323   0.55965
 Alpha virt. eigenvalues --    0.56336   0.56583   0.57401   0.57612   0.57847
 Alpha virt. eigenvalues --    0.58174   0.58689   0.59159   0.59751   0.60059
 Alpha virt. eigenvalues --    0.60389   0.60663   0.61019   0.61393   0.61461
 Alpha virt. eigenvalues --    0.62269   0.62425   0.63017   0.63474   0.63533
 Alpha virt. eigenvalues --    0.63863   0.64411   0.64585   0.64661   0.65233
 Alpha virt. eigenvalues --    0.65668   0.66351   0.67182   0.67282   0.67998
 Alpha virt. eigenvalues --    0.68261   0.68581   0.69158   0.69308   0.69895
 Alpha virt. eigenvalues --    0.70269   0.71057   0.71495   0.72278   0.72630
 Alpha virt. eigenvalues --    0.72933   0.73146   0.73248   0.73648   0.74309
 Alpha virt. eigenvalues --    0.74667   0.74883   0.75368   0.75776   0.76025
 Alpha virt. eigenvalues --    0.76295   0.76455   0.76662   0.77168   0.77553
 Alpha virt. eigenvalues --    0.78181   0.78647   0.78766   0.79222   0.79638
 Alpha virt. eigenvalues --    0.80456   0.80590   0.80718   0.80770   0.81506
 Alpha virt. eigenvalues --    0.81519   0.81608   0.82652   0.82810   0.83045
 Alpha virt. eigenvalues --    0.83609   0.83805   0.84395   0.84753   0.84985
 Alpha virt. eigenvalues --    0.86359   0.86755   0.86855   0.87454   0.87692
 Alpha virt. eigenvalues --    0.87879   0.88934   0.89701   0.89726   0.90089
 Alpha virt. eigenvalues --    0.90639   0.91174   0.91679   0.92421   0.92673
 Alpha virt. eigenvalues --    0.93356   0.93498   0.94000   0.94464   0.95102
 Alpha virt. eigenvalues --    0.95608   0.96137   0.96195   0.96837   0.97095
 Alpha virt. eigenvalues --    0.98035   0.98311   0.98800   0.99533   0.99884
 Alpha virt. eigenvalues --    1.00288   1.00726   1.00989   1.01782   1.01892
 Alpha virt. eigenvalues --    1.02331   1.02625   1.03244   1.03443   1.03932
 Alpha virt. eigenvalues --    1.04269   1.04483   1.05185   1.05608   1.05833
 Alpha virt. eigenvalues --    1.06559   1.07662   1.07893   1.08883   1.09671
 Alpha virt. eigenvalues --    1.10054   1.10625   1.11066   1.11807   1.12071
 Alpha virt. eigenvalues --    1.12248   1.12989   1.13261   1.13758   1.14245
 Alpha virt. eigenvalues --    1.14579   1.15276   1.15819   1.16004   1.16449
 Alpha virt. eigenvalues --    1.16709   1.17116   1.17328   1.18187   1.18282
 Alpha virt. eigenvalues --    1.18988   1.19271   1.19903   1.20486   1.20669
 Alpha virt. eigenvalues --    1.20969   1.21164   1.21703   1.21869   1.22574
 Alpha virt. eigenvalues --    1.22673   1.23149   1.23611   1.24205   1.24531
 Alpha virt. eigenvalues --    1.24577   1.25093   1.25894   1.26115   1.26346
 Alpha virt. eigenvalues --    1.27033   1.28042   1.28242   1.28981   1.29564
 Alpha virt. eigenvalues --    1.31039   1.31120   1.31653   1.32321   1.32708
 Alpha virt. eigenvalues --    1.33434   1.33962   1.34384   1.34533   1.34841
 Alpha virt. eigenvalues --    1.35855   1.35993   1.36972   1.37374   1.37749
 Alpha virt. eigenvalues --    1.38498   1.38988   1.39577   1.40521   1.41095
 Alpha virt. eigenvalues --    1.42001   1.42596   1.43805   1.44532   1.45407
 Alpha virt. eigenvalues --    1.45656   1.46390   1.47039   1.47412   1.48416
 Alpha virt. eigenvalues --    1.48860   1.49260   1.49914   1.51204   1.51912
 Alpha virt. eigenvalues --    1.52555   1.53362   1.53997   1.54967   1.55419
 Alpha virt. eigenvalues --    1.55494   1.56549   1.57009   1.58240   1.58976
 Alpha virt. eigenvalues --    1.59528   1.59950   1.60527   1.60826   1.61475
 Alpha virt. eigenvalues --    1.61651   1.62749   1.63930   1.64204   1.64921
 Alpha virt. eigenvalues --    1.65484   1.65794   1.66881   1.67466   1.67785
 Alpha virt. eigenvalues --    1.67950   1.68207   1.69142   1.69281   1.69623
 Alpha virt. eigenvalues --    1.69900   1.70564   1.71028   1.71381   1.72262
 Alpha virt. eigenvalues --    1.72580   1.72801   1.73370   1.73890   1.73992
 Alpha virt. eigenvalues --    1.74291   1.74472   1.74767   1.75493   1.75906
 Alpha virt. eigenvalues --    1.76114   1.76415   1.76821   1.77286   1.77898
 Alpha virt. eigenvalues --    1.78085   1.78630   1.78756   1.79305   1.79536
 Alpha virt. eigenvalues --    1.79607   1.79964   1.80147   1.80661   1.80729
 Alpha virt. eigenvalues --    1.81282   1.82095   1.83037   1.83400   1.83681
 Alpha virt. eigenvalues --    1.84279   1.84560   1.84959   1.85171   1.85919
 Alpha virt. eigenvalues --    1.86548   1.86888   1.87286   1.87477   1.88420
 Alpha virt. eigenvalues --    1.88675   1.88893   1.89844   1.90126   1.90537
 Alpha virt. eigenvalues --    1.90924   1.91504   1.91625   1.91998   1.92507
 Alpha virt. eigenvalues --    1.92944   1.93706   1.94047   1.94408   1.94846
 Alpha virt. eigenvalues --    1.95788   1.97044   1.97685   1.98354   1.98650
 Alpha virt. eigenvalues --    1.99232   1.99845   2.00549   2.01551   2.02239
 Alpha virt. eigenvalues --    2.02565   2.03440   2.03647   2.04213   2.04855
 Alpha virt. eigenvalues --    2.04954   2.06355   2.06893   2.07447   2.08154
 Alpha virt. eigenvalues --    2.08682   2.09234   2.10180   2.10811   2.11155
 Alpha virt. eigenvalues --    2.12496   2.12616   2.12850   2.13154   2.13376
 Alpha virt. eigenvalues --    2.14902   2.15648   2.16471   2.17286   2.18972
 Alpha virt. eigenvalues --    2.19337   2.20395   2.20952   2.21421   2.21708
 Alpha virt. eigenvalues --    2.21809   2.22356   2.23399   2.23680   2.24662
 Alpha virt. eigenvalues --    2.24814   2.26217   2.26759   2.27362   2.27586
 Alpha virt. eigenvalues --    2.28016   2.28378   2.29181   2.29276   2.30338
 Alpha virt. eigenvalues --    2.30791   2.31376   2.31944   2.33148   2.33361
 Alpha virt. eigenvalues --    2.33588   2.33995   2.34783   2.34927   2.35242
 Alpha virt. eigenvalues --    2.36183   2.36460   2.37082   2.37230   2.37614
 Alpha virt. eigenvalues --    2.38502   2.39813   2.40614   2.41017   2.41723
 Alpha virt. eigenvalues --    2.42165   2.42739   2.42920   2.43705   2.43936
 Alpha virt. eigenvalues --    2.45121   2.46131   2.46577   2.46791   2.47850
 Alpha virt. eigenvalues --    2.48326   2.49354   2.49879   2.50805   2.52417
 Alpha virt. eigenvalues --    2.52692   2.54263   2.54327   2.55269   2.56338
 Alpha virt. eigenvalues --    2.57510   2.58018   2.58401   2.59244   2.60304
 Alpha virt. eigenvalues --    2.60577   2.61031   2.62218   2.62751   2.63834
 Alpha virt. eigenvalues --    2.64516   2.65679   2.65874   2.66579   2.67073
 Alpha virt. eigenvalues --    2.67549   2.67822   2.68103   2.68911   2.70487
 Alpha virt. eigenvalues --    2.71516   2.71732   2.72023   2.72833   2.73519
 Alpha virt. eigenvalues --    2.74147   2.74467   2.74852   2.75885   2.77042
 Alpha virt. eigenvalues --    2.78260   2.78834   2.79181   2.79943   2.80541
 Alpha virt. eigenvalues --    2.80741   2.81564   2.81674   2.82086   2.82997
 Alpha virt. eigenvalues --    2.83124   2.83678   2.84009   2.84278   2.85705
 Alpha virt. eigenvalues --    2.86147   2.86538   2.86755   2.87674   2.88140
 Alpha virt. eigenvalues --    2.88671   2.90206   2.90404   2.93296   2.94379
 Alpha virt. eigenvalues --    2.96597   2.97307   2.98010   2.98819   2.99293
 Alpha virt. eigenvalues --    3.00107   3.01937   3.04381   3.05274   3.06758
 Alpha virt. eigenvalues --    3.07104   3.10163   3.10911   3.14024   3.14707
 Alpha virt. eigenvalues --    3.15760   3.16004   3.16398   3.18739   3.20667
 Alpha virt. eigenvalues --    3.22671   3.22732   3.23944   3.25082   3.27871
 Alpha virt. eigenvalues --    3.46132   3.47014   3.48136   3.50164   3.50306
 Alpha virt. eigenvalues --    3.52648   3.54421   3.56496   3.58450   3.60228
 Alpha virt. eigenvalues --    3.63038   3.71562   3.74746
          Condensed to atoms (all electrons):
 Mulliken charges:
               1
     1  N   -0.310751
     2  C    0.180161
     3  C    0.039066
     4  N   -0.255666
     5  C    0.132524
     6  H    0.031209
     7  N   -0.263891
     8  C    0.114947
     9  H    0.022143
    10  N   -0.286341
    11  C    0.234550
    12  C    0.082198
    13  N   -0.034138
    14  H    0.107622
    15  H    0.090247
    16  H    0.029461
    17  H    0.036297
    18  H    0.026889
    19  N   -0.294565
    20  C    0.238664
    21  C    0.192722
    22  N   -0.105081
    23  H    0.110408
    24  H    0.114937
    25  N   -0.293011
    26  C    0.217402
    27  N   -0.111498
    28  H    0.119817
    29  C    0.134214
    30  O   -0.323913
    31  C    0.009362
    32  N   -0.225156
    33  C    0.113888
    34  H    0.027180
    35  H    0.018348
    36  H    0.024582
    37  H    0.019123
    38  H    0.053685
    39  H    0.066182
    40  H    0.085707
    41  H    0.031920
    42  C   -0.090013
    43  O   -0.265662
    44  C    0.187379
    45  H    0.133262
    46  N   -0.125247
    47  O   -0.347902
    48  C    0.340053
    49  H    0.045113
    50  C    0.156838
    51  C    0.034598
    52  N   -0.285926
    53  H    0.031423
    54  H    0.031474
    55  H   -0.017097
    56  H    0.116396
    57  H    0.121952
    58  N   -0.063625
    59  C    0.141350
    60  C    0.220001
    61  N   -0.275289
    62  H    0.045454
    63  C    0.154434
    64  N   -0.304330
    65  H    0.022725
    66  C    0.110304
    67  N   -0.248231
    68  C    0.025034
    69  C    0.195647
    70  N   -0.291561
 Sum of Mulliken charges =  -0.00000
 Mulliken charges with hydrogens summed into heavy atoms:
               1
     1  N   -0.310751
     2  C    0.272808
     3  C    0.039066
     4  N   -0.255666
     5  C    0.163733
     7  N   -0.263891
     8  C    0.137090
    10  N   -0.286341
    11  C    0.234550
    12  C    0.082198
    13  N    0.163731
    19  N   -0.294565
    20  C    0.238664
    21  C    0.254776
    22  N    0.120264
    25  N   -0.293011
    26  C    0.217402
    27  N    0.008318
    29  C    0.134214
    30  O   -0.323913
    31  C    0.009362
    32  N   -0.225156
    33  C    0.141069
    42  C   -0.058093
    43  O   -0.265662
    44  C    0.187379
    46  N    0.008015
    47  O   -0.347902
    48  C    0.340053
    50  C    0.201951
    51  C    0.240172
    52  N   -0.285926
    58  N    0.174722
    59  C    0.141350
    60  C    0.220001
    61  N   -0.275289
    63  C    0.199888
    64  N   -0.304330
    66  C    0.133030
    67  N   -0.248231
    68  C    0.025034
    69  C    0.241447
    70  N   -0.291561
 Electronic spatial extent (au):  <R**2>=          23786.6991
 Charge=             -0.0000 electrons
 Dipole moment (field-independent basis, Debye):
    X=              4.0760    Y=              5.4572    Z=              4.7633  Tot=              8.3117
 Quadrupole moment (field-independent basis, Debye-Ang):
   XX=           -138.5158   YY=           -227.0410   ZZ=           -258.2536
   XY=             18.3219   XZ=             22.7605   YZ=             -2.6433
 Traceless Quadrupole moment (field-independent basis, Debye-Ang):
   XX=             69.4210   YY=            -19.1042   ZZ=            -50.3168
   XY=             18.3219   XZ=             22.7605   YZ=             -2.6433
 Octapole moment (field-independent basis, Debye-Ang**2):
  XXX=            -24.5909  YYY=             15.2035  ZZZ=             40.8300  XYY=             26.3413
  XXY=            111.7576  XXZ=             -0.4883  XZZ=             21.9415  YZZ=             50.0159
  YYZ=             34.7169  XYZ=             20.5252
 Hexadecapole moment (field-independent basis, Debye-Ang**3):
 XXXX=         -16814.8168 YYYY=          -3510.2031 ZZZZ=          -2950.6795 XXXY=            496.1728
 XXXZ=            398.7290 YYYX=             80.1020 YYYZ=             86.0247 ZZZX=            151.0718
 ZZZY=              4.8799 XXYY=          -4748.7054 XXZZ=          -4527.8798 YYZZ=          -1207.6315
 XXYZ=             -7.5873 YYXZ=            100.9117 ZZXY=            112.0827
 N-N= 5.541507525838D+03 E-N=-1.586374561183D+04  KE= 2.037846206058D+03
 No NMR shielding tensors so no spin-rotation constants.
 Leave Link  601 at Thu Jan 18 14:17:13 2018, MaxMem=  4294967296 cpu:              49.3 elap:               1.7
 (Enter /share/apps/g16/l9999.exe)
 1\1\GINC-COMPUTE-0-3\SP\RwB97XD\CC-pVDZ\C23H27N17O3\SATYA\18-Jan-2018\
 0\\#p wb97xd/cc-pvdz sp scf=(maxcycles=20)\\Base pair stacking\\0,1\N,
 0,0.9736,10.77429,-6.43536\C,0,0.43494,12.14795,-6.40518\C,0,1.15537,8
 .58243,-6.43929\N,0,2.44786,9.07919,-6.52542\C,0,2.28662,10.37982,-6.5
 1961\H,0,3.09858,11.10547,-6.57521\N,0,-0.6938,7.12378,-6.31335\C,0,-1
 .45826,8.21972,-6.26743\H,0,-2.52961,8.03674,-6.19686\N,0,-1.09968,9.5
 0172,-6.29546\C,0,0.23592,9.61537,-6.38303\C,0,0.64615,7.27163,-6.4013
 2\N,0,1.41093,6.17884,-6.44727\H,0,2.40747,6.24092,-6.51252\H,0,1.0140
 5,5.26136,-6.41805\H,0,0.69754,12.62887,-7.24179\H,0,-0.56194,12.1145,
 -6.34001\H,0,0.8029,12.63518,-5.61321\N,0,-0.44498,7.39816,-3.18855\C,
 0,-0.96192,6.12557,-3.15216\C,0,-1.24014,8.64238,-3.20735\N,0,-3.70213
 ,3.99349,-3.06701\H,0,-3.86971,3.00833,-3.04185\H,0,-4.50492,4.59033,-
 3.0706\N,0,-2.27258,5.80056,-3.12766\C,0,-2.45718,4.49272,-3.09473\N,0
 ,-1.43759,3.57191,-3.08638\H,0,-1.67227,2.59149,-3.06045\C,0,-0.08184,
 3.88365,-3.11115\O,0,0.75899,2.9761,-3.1008\C,0,0.13225,5.285,-3.14664
 \N,0,1.31237,6.01519,-3.17891\C,0,0.92158,7.26055,-3.20296\H,0,1.591,8
 .12097,-3.23169\H,0,-1.03517,9.15838,-4.03833\H,0,-2.2127,8.41418,-3.1
 8947\H,0,-1.01413,9.19649,-2.40691\H,0,-3.50363,-2.12374,-3.57565\H,0,
 -3.22464,-2.1988,-1.8375\H,0,-3.65695,-0.66561,-2.59499\H,0,1.25405,-2
 .83179,-3.47679\C,0,0.53679,-2.02477,-3.32681\O,0,2.15724,-0.30234,-3.
 51253\C,0,0.99487,-0.66913,-3.3418\H,0,0.29171,1.24286,-3.14637\N,0,0.
 00658,0.27363,-3.14246\O,0,-2.1312,0.94346,-2.7704\C,0,-1.33036,0.0405
 5,-2.93794\H,0,-1.16019,-3.29708,-3.10937\C,0,-0.76114,-2.28382,-3.129
 67\C,0,-3.11302,-1.58978,-2.7222\N,0,-1.69432,-1.29164,-2.93704\H,0,-4
 .42865,0.14339,-6.22703\H,0,-4.22642,1.43244,-5.24745\H,0,-4.02842,-0.
 0776,-4.66037\H,0,2.5184,2.69029,-6.79038\H,0,2.12801,1.03501,-6.92359
 \N,0,1.83086,1.9678,-6.71666\C,0,0.57336,2.23527,-6.35842\C,0,-1.6877,
 1.68774,-5.85888\N,0,-2.05847,2.94987,-5.58687\H,0,-1.24282,4.82927,-5
 .53058\C,0,-1.0283,3.78076,-5.73272\N,0,0.23193,3.51481,-6.09144\H,0,-
 2.01824,-1.50752,-6.22388\C,0,-1.65097,-0.4821,-6.17334\N,0,-0.41975,-
 0.11771,-6.43604\C,0,-0.4294,1.25574,-6.24046\C,0,-3.9033,0.51061,-5.4
 5946\N,0,-2.4724,0.55968,-5.81741\\Version=EM64L-G16RevA.03\State=1-A\
 HF=-2048.7393213\RMSD=6.370e-09\Dipole=-3.0482057,-1.1742573,-0.151152
 7\Quadrupole=-14.7977775,43.7661352,-28.9683577,29.2531999,-15.6480146
 ,-4.5702882\PG=C01 [X(C23H27N17O3)]\\@


 HE WHO LAUGHS LAST PROBABLY DIDN'T GET THE JOKE.
 Job cpu time:       0 days  6 hours 18 minutes 43.4 seconds.
 Elapsed time:       0 days  0 hours 12 minutes 15.5 seconds.
 File lengths (MBytes):  RWF=    298 Int=      0 D2E=      0 Chk=     33 Scr=      1
 Normal termination of Gaussian 16 at Thu Jan 18 14:17:14 2018.
