 Entering Gaussian System, Link 0=g16
 Input=str10.0.2.0.com
 Output=str10.0.2.0.log
 Initial command:
 /share/apps/g16/l1.exe "/state/partition1/scr/Gau-28827.inp" -scrdir="/state/partition1/scr/"
 Entering Link 1 = /share/apps/g16/l1.exe PID=     28828.
  
 Copyright (c) 1988,1990,1992,1993,1995,1998,2003,2009,2016,
            Gaussian, Inc.  All Rights Reserved.
  
 This is part of the Gaussian(R) 16 program.  It is based on
 the Gaussian(R) 09 system (copyright 2009, Gaussian, Inc.),
 the Gaussian(R) 03 system (copyright 2003, Gaussian, Inc.),
 the Gaussian(R) 98 system (copyright 1998, Gaussian, Inc.),
 the Gaussian(R) 94 system (copyright 1995, Gaussian, Inc.),
 the Gaussian 92(TM) system (copyright 1992, Gaussian, Inc.),
 the Gaussian 90(TM) system (copyright 1990, Gaussian, Inc.),
 the Gaussian 88(TM) system (copyright 1988, Gaussian, Inc.),
 the Gaussian 86(TM) system (copyright 1986, Carnegie Mellon
 University), and the Gaussian 82(TM) system (copyright 1983,
 Carnegie Mellon University). Gaussian is a federally registered
 trademark of Gaussian, Inc.
  
 This software contains proprietary and confidential information,
 including trade secrets, belonging to Gaussian, Inc.
  
 This software is provided under written license and may be
 used, copied, transmitted, or stored only in accord with that
 written license.
  
 The following legend is applicable only to US Government
 contracts under FAR:
  
                    RESTRICTED RIGHTS LEGEND
  
 Use, reproduction and disclosure by the US Government is
 subject to restrictions as set forth in subparagraphs (a)
 and (c) of the Commercial Computer Software - Restricted
 Rights clause in FAR 52.227-19.
  
 Gaussian, Inc.
 340 Quinnipiac St., Bldg. 40, Wallingford CT 06492
  
  
 ---------------------------------------------------------------
 Warning -- This program may not be used in any manner that
 competes with the business of Gaussian, Inc. or will provide
 assistance to any competitor of Gaussian, Inc.  The licensee
 of this program is prohibited from giving any competitor of
 Gaussian, Inc. access to this program.  By using this program,
 the user acknowledges that Gaussian, Inc. is engaged in the
 business of creating and licensing software in the field of
 computational chemistry and represents and warrants to the
 licensee that it is not a competitor of Gaussian, Inc. and that
 it will not use this program in any manner prohibited above.
 ---------------------------------------------------------------
  

 Cite this work as:
 Gaussian 16, Revision A.03,
 M. J. Frisch, G. W. Trucks, H. B. Schlegel, G. E. Scuseria, 
 M. A. Robb, J. R. Cheeseman, G. Scalmani, V. Barone, 
 G. A. Petersson, H. Nakatsuji, X. Li, M. Caricato, A. V. Marenich, 
 J. Bloino, B. G. Janesko, R. Gomperts, B. Mennucci, H. P. Hratchian, 
 J. V. Ortiz, A. F. Izmaylov, J. L. Sonnenberg, D. Williams-Young, 
 F. Ding, F. Lipparini, F. Egidi, J. Goings, B. Peng, A. Petrone, 
 T. Henderson, D. Ranasinghe, V. G. Zakrzewski, J. Gao, N. Rega, 
 G. Zheng, W. Liang, M. Hada, M. Ehara, K. Toyota, R. Fukuda, 
 J. Hasegawa, M. Ishida, T. Nakajima, Y. Honda, O. Kitao, H. Nakai, 
 T. Vreven, K. Throssell, J. A. Montgomery, Jr., J. E. Peralta, 
 F. Ogliaro, M. J. Bearpark, J. J. Heyd, E. N. Brothers, K. N. Kudin, 
 V. N. Staroverov, T. A. Keith, R. Kobayashi, J. Normand, 
 K. Raghavachari, A. P. Rendell, J. C. Burant, S. S. Iyengar, 
 J. Tomasi, M. Cossi, J. M. Millam, M. Klene, C. Adamo, R. Cammi, 
 J. W. Ochterski, R. L. Martin, K. Morokuma, O. Farkas, 
 J. B. Foresman, and D. J. Fox, Gaussian, Inc., Wallingford CT, 2016.
 
 ******************************************
 Gaussian 16:  EM64L-G16RevA.03 25-Dec-2016
                17-Jan-2018 
 ******************************************
 %nprocshared=32
 Will use up to   32 processors via shared memory.
 %mem=32GB
 %chk=allatoms_t.chk
 ---------------------------------------
 #p wb97xd/cc-pvdz sp scf=(maxcycles=20)
 ---------------------------------------
 1/38=1,172=1/1;
 2/12=2,17=6,18=5,40=1/2;
 3/5=16,11=2,25=1,30=1,74=-58/1,2,3;
 4//1;
 5/5=2,7=20,38=5/2;
 6/7=2,8=2,9=2,10=2,28=1/1;
 99/5=1,9=1/99;
 Leave Link    1 at Wed Jan 17 19:56:52 2018, MaxMem=  4294967296 cpu:               2.7 elap:               0.1
 (Enter /share/apps/g16/l101.exe)
 ------------------
 Base pair stacking
 ------------------
 Symbolic Z-matrix:
 Charge =  0 Multiplicity = 1
 N                    -0.02303   1.89796  -6.47105 
 C                    -0.5572    3.26987  -6.57363 
 C                     0.15388  -0.29235  -6.37851 
 N                     1.44296   0.2065   -6.25948 
 C                     1.28478   1.50611  -6.32 
 H                     2.0954    2.23284  -6.25909 
 N                    -1.69186  -1.75355  -6.52372 
 C                    -2.4516   -0.65962  -6.6407 
 H                    -3.51968  -0.84445  -6.74702 
 N                    -2.09175   0.62232  -6.64603 
 C                    -0.76045   0.73834  -6.50964 
 C                    -0.35615  -1.60334  -6.38803 
 N                     0.40391  -2.69413  -6.27112 
 H                     1.3972   -2.63027  -6.1686 
 H                     0.0066   -3.61182  -6.28203 
 H                    -0.15612   3.72669  -7.36775 
 H                    -1.55076   3.23463  -6.67715 
 H                    -0.32798   3.78182  -5.74576 
 N                    -0.69548   2.91656  -3.26456 
 C                    -1.21369   1.64396  -3.26328 
 C                    -1.486     4.16011  -3.36129 
 N                    -3.95111  -0.4891   -3.39872 
 H                    -4.12027  -1.47414  -3.38065 
 H                    -4.75057   0.10721  -3.47605 
 N                    -2.52158   1.31834  -3.34948 
 C                    -2.70838   0.01067  -3.32272 
 N                    -1.69336  -0.90943  -3.21948 
 H                    -1.92944  -1.88976  -3.20649 
 C                    -0.34051  -0.59705  -3.12957 
 O                     0.49626  -1.50398  -3.03986 
 C                    -0.1241    0.80412  -3.15705 
 N                     1.05443   1.53477  -3.09292 
 C                     0.66723   2.77967  -3.16 
 H                     1.33666   3.64027  -3.13738 
 H                    -1.2101    4.66996  -4.17537 
 H                    -2.45649   3.93146  -3.42565 
 H                    -1.32986   4.72037  -2.54856 
 H                    -3.70971  -6.60986  -3.84208 
 H                    -3.58171  -6.67165  -2.08582 
 H                    -3.947    -5.14448  -2.88935 
 H                     1.02167  -7.31424  -3.32784 
 C                     0.29418  -6.50655  -3.2464 
 O                     1.92468  -4.78458  -3.30466 
 C                     0.7519   -5.15078  -3.23206 
 H                     0.03458  -3.2378   -3.11248 
 N                    -0.24987  -4.20715  -3.12585 
 O                    -2.41175  -3.53584  -2.94466 
 C                    -1.59947  -4.4395   -3.03565 
 H                    -1.41529  -7.77822  -3.16654 
 C                    -1.01593  -6.7649   -3.16 
 C                    -3.39417  -6.06925  -2.96218 
 N                    -1.96221  -5.77187  -3.05609 
 H                    -5.39666  -8.74229  -6.86174 
 H                    -5.36147  -7.42393  -5.90113 
 H                    -5.26771  -8.91508  -5.24405 
 H                     1.54886  -6.18715  -6.31721 
 H                     1.18446  -7.84712  -6.46493 
 N                     0.8578   -6.90971  -6.33931 
 C                    -0.44183  -6.63644  -6.20724 
 C                    -2.75555  -7.17738  -6.08142 
 N                    -3.16534  -5.90912  -5.91402 
 H                    -2.36851  -4.02582  -5.77681 
 C                    -2.12425  -5.07906  -5.90822 
 N                    -0.82184  -5.35082  -6.04035 
 H                    -3.02376  -10.3833  -6.40123 
 C                    -2.66899  -9.35545  -6.32 
 N                    -1.41059  -8.99441  -6.38132 
 C                    -1.45139  -7.61579  -6.23142 
 C                    -5.00835  -8.35044  -6.02768 
 N                    -3.53744  -8.30665  -6.1396 
 
 ITRead=  0  0  0  0  0  0  0  0  0  0  0  0  0  0  0  0  0  0  0  0
 ITRead=  0  0  0  0  0  0  0  0  0  0  0  0  0  0  0  0  0  0  0  0
 ITRead=  0  0  0  0  0  0  0  0  0  0  0  0  0  0  0  0  0  0  0  0
 ITRead=  0  0  0  0  0  0  0  0  0  0
 MicOpt= -1 -1 -1 -1 -1 -1 -1 -1 -1 -1 -1 -1 -1 -1 -1 -1 -1 -1 -1 -1
 MicOpt= -1 -1 -1 -1 -1 -1 -1 -1 -1 -1 -1 -1 -1 -1 -1 -1 -1 -1 -1 -1
 MicOpt= -1 -1 -1 -1 -1 -1 -1 -1 -1 -1 -1 -1 -1 -1 -1 -1 -1 -1 -1 -1
 MicOpt= -1 -1 -1 -1 -1 -1 -1 -1 -1 -1
 NAtoms=     70 NQM=       70 NQMF=       0 NMMI=      0 NMMIF=      0
                NMic=       0 NMicF=      0.
                    Isotopes and Nuclear Properties:
 (Nuclear quadrupole moments (NQMom) in fm**2, nuclear magnetic moments (NMagM)
  in nuclear magnetons)

  Atom         1           2           3           4           5           6           7           8           9          10
 IAtWgt=          14          12          12          14          12           1          14          12           1          14
 AtmWgt=  14.0030740  12.0000000  12.0000000  14.0030740  12.0000000   1.0078250  14.0030740  12.0000000   1.0078250  14.0030740
 NucSpn=           2           0           0           2           0           1           2           0           1           2
 AtZEff=  -0.0000000  -0.0000000  -0.0000000  -0.0000000  -0.0000000  -0.0000000  -0.0000000  -0.0000000  -0.0000000  -0.0000000
 NQMom=    2.0440000   0.0000000   0.0000000   2.0440000   0.0000000   0.0000000   2.0440000   0.0000000   0.0000000   2.0440000
 NMagM=    0.4037610   0.0000000   0.0000000   0.4037610   0.0000000   2.7928460   0.4037610   0.0000000   2.7928460   0.4037610
 AtZNuc=   7.0000000   6.0000000   6.0000000   7.0000000   6.0000000   1.0000000   7.0000000   6.0000000   1.0000000   7.0000000

  Atom        11          12          13          14          15          16          17          18          19          20
 IAtWgt=          12          12          14           1           1           1           1           1          14          12
 AtmWgt=  12.0000000  12.0000000  14.0030740   1.0078250   1.0078250   1.0078250   1.0078250   1.0078250  14.0030740  12.0000000
 NucSpn=           0           0           2           1           1           1           1           1           2           0
 AtZEff=  -0.0000000  -0.0000000  -0.0000000  -0.0000000  -0.0000000  -0.0000000  -0.0000000  -0.0000000  -0.0000000  -0.0000000
 NQMom=    0.0000000   0.0000000   2.0440000   0.0000000   0.0000000   0.0000000   0.0000000   0.0000000   2.0440000   0.0000000
 NMagM=    0.0000000   0.0000000   0.4037610   2.7928460   2.7928460   2.7928460   2.7928460   2.7928460   0.4037610   0.0000000
 AtZNuc=   6.0000000   6.0000000   7.0000000   1.0000000   1.0000000   1.0000000   1.0000000   1.0000000   7.0000000   6.0000000

  Atom        21          22          23          24          25          26          27          28          29          30
 IAtWgt=          12          14           1           1          14          12          14           1          12          16
 AtmWgt=  12.0000000  14.0030740   1.0078250   1.0078250  14.0030740  12.0000000  14.0030740   1.0078250  12.0000000  15.9949146
 NucSpn=           0           2           1           1           2           0           2           1           0           0
 AtZEff=  -0.0000000  -0.0000000  -0.0000000  -0.0000000  -0.0000000  -0.0000000  -0.0000000  -0.0000000  -0.0000000  -0.0000000
 NQMom=    0.0000000   2.0440000   0.0000000   0.0000000   2.0440000   0.0000000   2.0440000   0.0000000   0.0000000   0.0000000
 NMagM=    0.0000000   0.4037610   2.7928460   2.7928460   0.4037610   0.0000000   0.4037610   2.7928460   0.0000000   0.0000000
 AtZNuc=   6.0000000   7.0000000   1.0000000   1.0000000   7.0000000   6.0000000   7.0000000   1.0000000   6.0000000   8.0000000

  Atom        31          32          33          34          35          36          37          38          39          40
 IAtWgt=          12          14          12           1           1           1           1           1           1           1
 AtmWgt=  12.0000000  14.0030740  12.0000000   1.0078250   1.0078250   1.0078250   1.0078250   1.0078250   1.0078250   1.0078250
 NucSpn=           0           2           0           1           1           1           1           1           1           1
 AtZEff=  -0.0000000  -0.0000000  -0.0000000  -0.0000000  -0.0000000  -0.0000000  -0.0000000  -0.0000000  -0.0000000  -0.0000000
 NQMom=    0.0000000   2.0440000   0.0000000   0.0000000   0.0000000   0.0000000   0.0000000   0.0000000   0.0000000   0.0000000
 NMagM=    0.0000000   0.4037610   0.0000000   2.7928460   2.7928460   2.7928460   2.7928460   2.7928460   2.7928460   2.7928460
 AtZNuc=   6.0000000   7.0000000   6.0000000   1.0000000   1.0000000   1.0000000   1.0000000   1.0000000   1.0000000   1.0000000

  Atom        41          42          43          44          45          46          47          48          49          50
 IAtWgt=           1          12          16          12           1          14          16          12           1          12
 AtmWgt=   1.0078250  12.0000000  15.9949146  12.0000000   1.0078250  14.0030740  15.9949146  12.0000000   1.0078250  12.0000000
 NucSpn=           1           0           0           0           1           2           0           0           1           0
 AtZEff=  -0.0000000  -0.0000000  -0.0000000  -0.0000000  -0.0000000  -0.0000000  -0.0000000  -0.0000000  -0.0000000  -0.0000000
 NQMom=    0.0000000   0.0000000   0.0000000   0.0000000   0.0000000   2.0440000   0.0000000   0.0000000   0.0000000   0.0000000
 NMagM=    2.7928460   0.0000000   0.0000000   0.0000000   2.7928460   0.4037610   0.0000000   0.0000000   2.7928460   0.0000000
 AtZNuc=   1.0000000   6.0000000   8.0000000   6.0000000   1.0000000   7.0000000   8.0000000   6.0000000   1.0000000   6.0000000

  Atom        51          52          53          54          55          56          57          58          59          60
 IAtWgt=          12          14           1           1           1           1           1          14          12          12
 AtmWgt=  12.0000000  14.0030740   1.0078250   1.0078250   1.0078250   1.0078250   1.0078250  14.0030740  12.0000000  12.0000000
 NucSpn=           0           2           1           1           1           1           1           2           0           0
 AtZEff=  -0.0000000  -0.0000000  -0.0000000  -0.0000000  -0.0000000  -0.0000000  -0.0000000  -0.0000000  -0.0000000  -0.0000000
 NQMom=    0.0000000   2.0440000   0.0000000   0.0000000   0.0000000   0.0000000   0.0000000   2.0440000   0.0000000   0.0000000
 NMagM=    0.0000000   0.4037610   2.7928460   2.7928460   2.7928460   2.7928460   2.7928460   0.4037610   0.0000000   0.0000000
 AtZNuc=   6.0000000   7.0000000   1.0000000   1.0000000   1.0000000   1.0000000   1.0000000   7.0000000   6.0000000   6.0000000

  Atom        61          62          63          64          65          66          67          68          69          70
 IAtWgt=          14           1          12          14           1          12          14          12          12          14
 AtmWgt=  14.0030740   1.0078250  12.0000000  14.0030740   1.0078250  12.0000000  14.0030740  12.0000000  12.0000000  14.0030740
 NucSpn=           2           1           0           2           1           0           2           0           0           2
 AtZEff=  -0.0000000  -0.0000000  -0.0000000  -0.0000000  -0.0000000  -0.0000000  -0.0000000  -0.0000000  -0.0000000  -0.0000000
 NQMom=    2.0440000   0.0000000   0.0000000   2.0440000   0.0000000   0.0000000   2.0440000   0.0000000   0.0000000   2.0440000
 NMagM=    0.4037610   2.7928460   0.0000000   0.4037610   2.7928460   0.0000000   0.4037610   0.0000000   0.0000000   0.4037610
 AtZNuc=   7.0000000   1.0000000   6.0000000   7.0000000   1.0000000   6.0000000   7.0000000   6.0000000   6.0000000   7.0000000
 Leave Link  101 at Wed Jan 17 19:56:53 2018, MaxMem=  4294967296 cpu:               7.1 elap:               0.3
 (Enter /share/apps/g16/l202.exe)
 Stoichiometry    C23H27N17O3
 Framework group  C1[X(C23H27N17O3)]
 Deg. of freedom   204
 Full point group                 C1      NOp   1
 Largest Abelian subgroup         C1      NOp   1
 Largest concise Abelian subgroup C1      NOp   1
                         Standard orientation:                         
 ---------------------------------------------------------------------
 Center     Atomic      Atomic             Coordinates (Angstroms)
 Number     Number       Type             X           Y           Z
 ---------------------------------------------------------------------
      1          7           0        4.512983   -1.214558   -1.743826
      2          6           0        5.775998   -0.622960   -2.226321
      3          6           0        2.389069   -1.571572   -1.297901
      4          7           0        3.084145   -2.645733   -0.761438
      5          6           0        4.335899   -2.387652   -1.051567
      6          1           0        5.178806   -3.024799   -0.782303
      7          7           0        0.659958   -0.102861   -1.942891
      8          6           0        1.613988    0.659003   -2.487834
      9          1           0        1.262581    1.570218   -2.969977
     10          7           0        2.930739    0.465179   -2.526428
     11          6           0        3.256387   -0.681205   -1.906606
     12          6           0        1.019899   -1.249910   -1.326599
     13          7           0        0.069005   -2.011760   -0.782018
     14          1           0        0.289665   -2.869193   -0.315830
     15          1           0       -0.895816   -1.751578   -0.821443
     16          1           0        6.221822   -1.256057   -2.859255
     17          1           0        5.583414    0.237361   -2.697361
     18          1           0        6.382224   -0.447815   -1.450552
     19          7           0        5.676253    0.783011    0.791491
     20          6           0        4.344556    1.120504    0.764379
     21          6           0        6.774717    1.596876    0.233193
     22          7           0        1.820157    3.334190   -0.123745
     23          1           0        0.825652    3.390878   -0.040138
     24          1           0        2.281147    4.095171   -0.581017
     25          7           0        3.819999    2.243277    0.227483
     26          6           0        2.505669    2.285226    0.355496
     27          7           0        1.760188    1.303758    0.962528
     28          1           0        0.759844    1.419898    1.015189
     29          6           0        2.278764    0.140091    1.521836
     30          8           0        1.518348   -0.682952    2.046356
     31          6           0        3.689612    0.080808    1.391997
     32          7           0        4.591981   -0.889861    1.804824
     33          6           0        5.754851   -0.431531    1.428170
     34          1           0        6.705305   -0.941058    1.590342
     35          1           0        7.252338    1.075523   -0.473109
     36          1           0        6.398227    2.431224   -0.167298
     37          1           0        7.416318    1.837712    0.960618
     38          1           0       -4.210208    2.287532    0.383943
     39          1           0       -4.108981    2.863597    2.046036
     40          1           0       -2.724606    3.038730    0.967064
     41          1           0       -4.150733   -1.893538    2.763369
     42          6           0       -3.457738   -1.112463    2.450453
     43          8           0       -1.520623   -2.438370    2.792012
     44          6           0       -2.051923   -1.379787    2.457486
     45          1           0       -0.265284   -0.475383    2.035212
     46          7           0       -1.264229   -0.324500    2.043760
     47          8           0       -0.913239    1.788746    1.289963
     48          6           0       -1.688815    0.916418    1.639542
     49          1           0       -4.961305    0.341831    2.037993
     50          6           0       -3.902310    0.088199    2.061397
     51          6           0       -3.558528    2.407788    1.236528
     52          7           0       -3.057784    1.097258    1.660239
     53          1           0       -6.810587    2.395797   -2.736588
     54          1           0       -5.428215    2.886245   -2.022031
     55          1           0       -6.829853    2.904034   -1.185869
     56          1           0       -3.204104   -3.444379    0.083187
     57          1           0       -4.906451   -3.347503    0.030848
     58          7           0       -4.021763   -2.900274   -0.105306
     59          6           0       -3.937254   -1.634506   -0.519849
     60          6           0       -4.808002    0.466271   -1.220050
     61          7           0       -3.606441    1.041023   -1.394256
     62          1           0       -1.619867    0.569677   -1.215546
     63          6           0       -2.631544    0.182918   -1.100773
     64          7           0       -2.714152   -1.085247   -0.685422
     65          1           0       -8.033059    0.242767   -1.185569
     66          6           0       -6.960379    0.061044   -1.112974
     67          7           0       -6.420367   -1.071608   -0.734601
     68          6           0       -5.055995   -0.828306   -0.798023
     69          6           0       -6.298259    2.415695   -1.878036
     70          7           0       -6.042977    1.035567   -1.421857
 ---------------------------------------------------------------------
 Rotational constants (GHZ):           0.1803112           0.0491689           0.0490067
 Leave Link  202 at Wed Jan 17 19:56:53 2018, MaxMem=  4294967296 cpu:               0.4 elap:               0.0
 (Enter /share/apps/g16/l301.exe)
 Standard basis: CC-pVDZ (5D, 7F)
 Ernie: Thresh=  0.10000D-02 Tol=  0.10000D-05 Strict=F.
 Ernie:  86 primitive shells out of 1081 were deleted.
 There are   780 symmetry adapted cartesian basis functions of A   symmetry.
 There are   737 symmetry adapted basis functions of A   symmetry.
   737 basis functions,  1608 primitive gaussians,   780 cartesian basis functions
   154 alpha electrons      154 beta electrons
       nuclear repulsion energy      5556.8253533942 Hartrees.
 IExCor= 4639 DFT=T Ex+Corr=wB97XD ExCW=0 ScaHFX=  1.000000
 ScaDFX=  1.000000  1.000000  1.000000  1.000000 ScalE2=  1.000000  1.000000
 IRadAn=      5 IRanWt=     -1 IRanGd=            0 ICorTp=0 IEmpDi=121
 HFx  wShort=  0.000000 wLong=  0.200000 cFull=  0.222036 cShort=  0.000000 cLong=  0.777964
 DFx  wShort=  0.000000 wLong=  0.200000 cFull=  0.000000 cShort=  0.000000 cLong=  1.000000
 NAtoms=   70 NActive=   70 NUniq=   70 SFac= 1.00D+00 NAtFMM=   60 NAOKFM=T Big=T
 Integral buffers will be    131072 words long.
 Raffenetti 2 integral format.
 Two-electron integral symmetry is turned on.
 R6Disp:  Grimme-D2 Dispersion energy=       -0.0775768972 Hartrees.
 Nuclear repulsion after empirical dispersion term =     5556.7477764971 Hartrees.
 Leave Link  301 at Wed Jan 17 19:56:53 2018, MaxMem=  4294967296 cpu:               2.8 elap:               0.1
 (Enter /share/apps/g16/l302.exe)
 NPDir=0 NMtPBC=     1 NCelOv=     1 NCel=       1 NClECP=     1 NCelD=      1
         NCelK=      1 NCelE2=     1 NClLst=     1 CellRange=     0.0.
 One-electron integrals computed using PRISM.
 One-electron integral symmetry used in STVInt
 NBasis=   737 RedAO= T EigKep=  7.00D-04  NBF=   737
 NBsUse=   737 1.00D-06 EigRej= -1.00D+00 NBFU=   737
 Precomputing XC quadrature grid using
 IXCGrd= 4 IRadAn=           5 IRanWt=          -1 IRanGd=           0 AccXCQ= 0.00D+00.
 Generated NRdTot=       0 NPtTot=           0 NUsed=           0 NTot=          32
 NSgBfM=   762   761   762   762   762 MxSgAt=    70 MxSgA2=    70.
 Leave Link  302 at Wed Jan 17 19:56:57 2018, MaxMem=  4294967296 cpu:             147.1 elap:               4.7
 (Enter /share/apps/g16/l303.exe)
 DipDrv:  MaxL=1.
 Leave Link  303 at Wed Jan 17 19:56:58 2018, MaxMem=  4294967296 cpu:              13.3 elap:               0.5
 (Enter /share/apps/g16/l401.exe)
 ExpMin= 1.22D-01 ExpMax= 1.17D+04 ExpMxC= 4.01D+02 IAcc=3 IRadAn=         5 AccDes= 0.00D+00
 Harris functional with IExCor= 4639 and IRadAn=       5 diagonalized for initial guess.
 HarFok:  IExCor= 4639 AccDes= 0.00D+00 IRadAn=         5 IDoV= 1 UseB2=F ITyADJ=14
 ICtDFT=  3500011 ScaDFX=  1.000000  1.000000  1.000000  1.000000
 FoFCou: FMM=F IPFlag=           0 FMFlag=      100000 FMFlg1=        2001
         NFxFlg=           0 DoJE=T BraDBF=F KetDBF=T FulRan=T
         wScrn=  0.000000 ICntrl=       500 IOpCl=  0 I1Cent=   200000004 NGrid=           0
         NMat0=    1 NMatS0=      1 NMatT0=    0 NMatD0=    1 NMtDS0=    0 NMtDT0=    0
 Petite list used in FoFCou.
 Harris En= -1963.88511456273    
 JPrj=0 DoOrth=F DoCkMO=F.
 Leave Link  401 at Wed Jan 17 19:57:11 2018, MaxMem=  4294967296 cpu:             407.5 elap:              12.8
 (Enter /share/apps/g16/l502.exe)
 Integral symmetry usage will be decided dynamically.
 Closed shell SCF:
 Using DIIS extrapolation, IDIIS=  1040.
 NGot=  4294967296 LenX=  4293717438 LenY=  4293108258
 Requested convergence on RMS density matrix=1.00D-08 within  20 cycles.
 Requested convergence on MAX density matrix=1.00D-06.
 Requested convergence on             energy=1.00D-06.
 No special actions if energy rises.
 Fock matrices will be formed incrementally for  20 cycles.
 Integral accuracy reduced to 1.0D-05 until final iterations.

 Cycle   1  Pass 0  IDiag  1:
 FoFJK:  IHMeth= 1 ICntrl=       0 DoSepK=T KAlg= 0 I1Cent=           0 FoldK=F
 IRaf=         1 NMat=       1 IRICut=       1 DoRegI=T DoRafI=F ISym2E= 0 IDoP0=0 IntGTp=1.
 FoFCou: FMM=T IPFlag=           0 FMFlag=      100000 FMFlg1=        2001
         NFxFlg=           0 DoJE=T BraDBF=F KetDBF=F FulRan=T
         wScrn=  0.000000 ICntrl=       500 IOpCl=  0 I1Cent=           0 NGrid=           0
         NMat0=    1 NMatS0=      1 NMatT0=    0 NMatD0=    1 NMtDS0=    0 NMtDT0=    0
 Symmetry not used in FoFCou.
 FMM levels:  10  Number of levels for PrismC:   9
 E= -2048.31740966340    
 DIIS: error= 2.02D-02 at cycle   1 NSaved=   1.
 NSaved= 1 IEnMin= 1 EnMin= -2048.31740966340     IErMin= 1 ErrMin= 2.02D-02
 ErrMax= 2.02D-02  0.00D+00 EMaxC= 1.00D-01 BMatC= 8.35D-01 BMatP= 8.35D-01
 IDIUse=3 WtCom= 7.98D-01 WtEn= 2.02D-01
 Coeff-Com:  0.100D+01
 Coeff-En:   0.100D+01
 Coeff:      0.100D+01
 Gap=     0.270 Goal=   None    Shift=    0.000
 GapD=    0.270 DampG=1.000 DampE=0.500 DampFc=0.5000 IDamp=-1.
 Damping current iteration by 5.00D-01
 RMSDP=1.59D-03 MaxDP=1.26D-01              OVMax= 2.02D-01

 Cycle   2  Pass 0  IDiag  1:
 RMSU=  7.93D-04    CP:  9.98D-01
 E= -2048.51361223290     Delta-E=       -0.196202569501 Rises=F Damp=T
 DIIS: error= 1.11D-02 at cycle   2 NSaved=   2.
 NSaved= 2 IEnMin= 2 EnMin= -2048.51361223290     IErMin= 2 ErrMin= 1.11D-02
 ErrMax= 1.11D-02  0.00D+00 EMaxC= 1.00D-01 BMatC= 1.46D-01 BMatP= 8.35D-01
 IDIUse=3 WtCom= 8.89D-01 WtEn= 1.11D-01
 Coeff-Com: -0.192D+00 0.119D+01
 Coeff-En:   0.000D+00 0.100D+01
 Coeff:     -0.170D+00 0.117D+01
 Gap=     0.307 Goal=   None    Shift=    0.000
 RMSDP=6.00D-04 MaxDP=3.45D-02 DE=-1.96D-01 OVMax= 1.41D-01

 Cycle   3  Pass 0  IDiag  1:
 RMSU=  5.90D-04    CP:  9.94D-01  1.12D+00
 E= -2048.68991033387     Delta-E=       -0.176298100972 Rises=F Damp=F
 DIIS: error= 7.24D-03 at cycle   3 NSaved=   3.
 NSaved= 3 IEnMin= 3 EnMin= -2048.68991033387     IErMin= 3 ErrMin= 7.24D-03
 ErrMax= 7.24D-03  0.00D+00 EMaxC= 1.00D-01 BMatC= 6.84D-02 BMatP= 1.46D-01
 IDIUse=3 WtCom= 9.28D-01 WtEn= 7.24D-02
 Coeff-Com: -0.235D+00 0.561D+00 0.673D+00
 Coeff-En:   0.000D+00 0.000D+00 0.100D+01
 Coeff:     -0.218D+00 0.521D+00 0.697D+00
 Gap=     0.285 Goal=   None    Shift=    0.000
 RMSDP=3.82D-04 MaxDP=3.18D-02 DE=-1.76D-01 OVMax= 6.22D-02

 Cycle   4  Pass 0  IDiag  1:
 RMSU=  2.12D-04    CP:  9.94D-01  1.43D+00  6.46D-01
 E= -2048.74137841275     Delta-E=       -0.051468078876 Rises=F Damp=F
 DIIS: error= 2.55D-03 at cycle   4 NSaved=   4.
 NSaved= 4 IEnMin= 4 EnMin= -2048.74137841275     IErMin= 4 ErrMin= 2.55D-03
 ErrMax= 2.55D-03  0.00D+00 EMaxC= 1.00D-01 BMatC= 9.98D-03 BMatP= 6.84D-02
 IDIUse=3 WtCom= 9.74D-01 WtEn= 2.55D-02
 Coeff-Com: -0.974D-01 0.189D+00 0.376D+00 0.533D+00
 Coeff-En:   0.000D+00 0.000D+00 0.747D-01 0.925D+00
 Coeff:     -0.949D-01 0.184D+00 0.368D+00 0.543D+00
 Gap=     0.286 Goal=   None    Shift=    0.000
 RMSDP=1.33D-04 MaxDP=1.02D-02 DE=-5.15D-02 OVMax= 1.48D-02

 Cycle   5  Pass 0  IDiag  1:
 RMSU=  6.18D-05    CP:  9.94D-01  1.40D+00  7.85D-01  6.23D-01
 E= -2048.74973794479     Delta-E=       -0.008359532041 Rises=F Damp=F
 DIIS: error= 4.85D-04 at cycle   5 NSaved=   5.
 NSaved= 5 IEnMin= 5 EnMin= -2048.74973794479     IErMin= 5 ErrMin= 4.85D-04
 ErrMax= 4.85D-04  0.00D+00 EMaxC= 1.00D-01 BMatC= 2.86D-04 BMatP= 9.98D-03
 IDIUse=3 WtCom= 9.95D-01 WtEn= 4.85D-03
 Coeff-Com: -0.250D-01 0.429D-01 0.120D+00 0.234D+00 0.628D+00
 Coeff-En:   0.000D+00 0.000D+00 0.000D+00 0.000D+00 0.100D+01
 Coeff:     -0.249D-01 0.427D-01 0.119D+00 0.233D+00 0.630D+00
 Gap=     0.286 Goal=   None    Shift=    0.000
 RMSDP=2.64D-05 MaxDP=1.45D-03 DE=-8.36D-03 OVMax= 3.16D-03

 Failed to achieve initial convergence to 1.0D-08 in  6 cycles.
 Switch to full accuracy anyway.
 Cycle   6  Pass 1  IDiag  1:
 E= -2048.74992471066     Delta-E=       -0.000186765878 Rises=F Damp=F
 DIIS: error= 2.22D-04 at cycle   1 NSaved=   1.
 NSaved= 1 IEnMin= 1 EnMin= -2048.74992471066     IErMin= 1 ErrMin= 2.22D-04
 ErrMax= 2.22D-04  0.00D+00 EMaxC= 1.00D-01 BMatC= 7.73D-05 BMatP= 7.73D-05
 IDIUse=3 WtCom= 9.98D-01 WtEn= 2.22D-03
 Coeff-Com:  0.100D+01
 Coeff-En:   0.100D+01
 Coeff:      0.100D+01
 Gap=     0.286 Goal=   None    Shift=    0.000
 RMSDP=2.64D-05 MaxDP=1.45D-03 DE=-1.87D-04 OVMax= 2.17D-03

 Cycle   7  Pass 1  IDiag  1:
 RMSU=  1.19D-04    CP:  1.00D+00
 E= -2048.74998131156     Delta-E=       -0.000056600900 Rises=F Damp=F
 DIIS: error= 2.27D-04 at cycle   2 NSaved=   2.
 NSaved= 2 IEnMin= 2 EnMin= -2048.74998131156     IErMin= 1 ErrMin= 2.22D-04
 ErrMax= 2.27D-04  0.00D+00 EMaxC= 1.00D-01 BMatC= 4.38D-05 BMatP= 7.73D-05
 IDIUse=3 WtCom= 9.98D-01 WtEn= 2.27D-03
 Coeff-Com:  0.404D+00 0.596D+00
 Coeff-En:   0.000D+00 0.100D+01
 Coeff:      0.403D+00 0.597D+00
 Gap=     0.286 Goal=   None    Shift=    0.000
 RMSDP=1.19D-05 MaxDP=9.64D-04 DE=-5.66D-05 OVMax= 1.60D-03

 Cycle   8  Pass 1  IDiag  1:
 RMSU=  1.15D-05    CP:  1.00D+00  1.02D+00
 E= -2048.75001265727     Delta-E=       -0.000031345701 Rises=F Damp=F
 DIIS: error= 1.01D-04 at cycle   3 NSaved=   3.
 NSaved= 3 IEnMin= 3 EnMin= -2048.75001265727     IErMin= 3 ErrMin= 1.01D-04
 ErrMax= 1.01D-04  0.00D+00 EMaxC= 1.00D-01 BMatC= 1.07D-05 BMatP= 4.38D-05
 IDIUse=3 WtCom= 9.99D-01 WtEn= 1.01D-03
 Coeff-Com: -0.189D-01 0.319D+00 0.700D+00
 Coeff-En:   0.000D+00 0.151D+00 0.849D+00
 Coeff:     -0.189D-01 0.319D+00 0.700D+00
 Gap=     0.286 Goal=   None    Shift=    0.000
 RMSDP=5.81D-06 MaxDP=4.01D-04 DE=-3.13D-05 OVMax= 6.02D-04

 Cycle   9  Pass 1  IDiag  1:
 RMSU=  3.81D-06    CP:  1.00D+00  1.05D+00  7.46D-01
 E= -2048.75002273728     Delta-E=       -0.000010080018 Rises=F Damp=F
 DIIS: error= 3.79D-05 at cycle   4 NSaved=   4.
 NSaved= 4 IEnMin= 4 EnMin= -2048.75002273728     IErMin= 4 ErrMin= 3.79D-05
 ErrMax= 3.79D-05  0.00D+00 EMaxC= 1.00D-01 BMatC= 5.20D-07 BMatP= 1.07D-05
 IDIUse=1 WtCom= 1.00D+00 WtEn= 0.00D+00
 Coeff-Com: -0.297D-01 0.904D-01 0.265D+00 0.675D+00
 Coeff:     -0.297D-01 0.904D-01 0.265D+00 0.675D+00
 Gap=     0.286 Goal=   None    Shift=    0.000
 RMSDP=1.44D-06 MaxDP=1.06D-04 DE=-1.01D-05 OVMax= 3.91D-04

 Cycle  10  Pass 1  IDiag  1:
 RMSU=  1.28D-06    CP:  1.00D+00  1.05D+00  7.84D-01  1.10D+00
 E= -2048.75002357026     Delta-E=       -0.000000832979 Rises=F Damp=F
 DIIS: error= 1.50D-05 at cycle   5 NSaved=   5.
 NSaved= 5 IEnMin= 5 EnMin= -2048.75002357026     IErMin= 5 ErrMin= 1.50D-05
 ErrMax= 1.50D-05  0.00D+00 EMaxC= 1.00D-01 BMatC= 1.15D-07 BMatP= 5.20D-07
 IDIUse=1 WtCom= 1.00D+00 WtEn= 0.00D+00
 Coeff-Com: -0.307D-02-0.543D-01-0.111D+00 0.198D+00 0.971D+00
 Coeff:     -0.307D-02-0.543D-01-0.111D+00 0.198D+00 0.971D+00
 Gap=     0.286 Goal=   None    Shift=    0.000
 RMSDP=1.16D-06 MaxDP=6.95D-05 DE=-8.33D-07 OVMax= 2.21D-04

 Cycle  11  Pass 1  IDiag  1:
 RMSU=  4.93D-07    CP:  1.00D+00  1.05D+00  7.93D-01  1.37D+00  1.18D+00
 E= -2048.75002382045     Delta-E=       -0.000000250184 Rises=F Damp=F
 DIIS: error= 8.28D-06 at cycle   6 NSaved=   6.
 NSaved= 6 IEnMin= 6 EnMin= -2048.75002382045     IErMin= 6 ErrMin= 8.28D-06
 ErrMax= 8.28D-06  0.00D+00 EMaxC= 1.00D-01 BMatC= 3.02D-08 BMatP= 1.15D-07
 IDIUse=1 WtCom= 1.00D+00 WtEn= 0.00D+00
 Coeff-Com:  0.471D-02-0.470D-01-0.114D+00-0.106D-01 0.530D+00 0.637D+00
 Coeff:      0.471D-02-0.470D-01-0.114D+00-0.106D-01 0.530D+00 0.637D+00
 Gap=     0.286 Goal=   None    Shift=    0.000
 RMSDP=3.88D-07 MaxDP=3.09D-05 DE=-2.50D-07 OVMax= 1.08D-04

 Cycle  12  Pass 1  IDiag  1:
 RMSU=  1.90D-07    CP:  1.00D+00  1.05D+00  7.95D-01  1.44D+00  1.31D+00
                    CP:  9.34D-01
 E= -2048.75002386348     Delta-E=       -0.000000043036 Rises=F Damp=F
 DIIS: error= 1.21D-06 at cycle   7 NSaved=   7.
 NSaved= 7 IEnMin= 7 EnMin= -2048.75002386348     IErMin= 7 ErrMin= 1.21D-06
 ErrMax= 1.21D-06  0.00D+00 EMaxC= 1.00D-01 BMatC= 7.59D-10 BMatP= 3.02D-08
 IDIUse=1 WtCom= 1.00D+00 WtEn= 0.00D+00
 Coeff-Com:  0.111D-02-0.768D-02-0.202D-01-0.101D-01 0.607D-01 0.134D+00
 Coeff-Com:  0.843D+00
 Coeff:      0.111D-02-0.768D-02-0.202D-01-0.101D-01 0.607D-01 0.134D+00
 Coeff:      0.843D+00
 Gap=     0.286 Goal=   None    Shift=    0.000
 RMSDP=8.62D-08 MaxDP=4.92D-06 DE=-4.30D-08 OVMax= 2.24D-05

 Cycle  13  Pass 1  IDiag  1:
 RMSU=  5.49D-08    CP:  1.00D+00  1.05D+00  7.95D-01  1.45D+00  1.33D+00
                    CP:  1.02D+00  1.13D+00
 E= -2048.75002386511     Delta-E=       -0.000000001623 Rises=F Damp=F
 DIIS: error= 4.40D-07 at cycle   8 NSaved=   8.
 NSaved= 8 IEnMin= 8 EnMin= -2048.75002386511     IErMin= 8 ErrMin= 4.40D-07
 ErrMax= 4.40D-07  0.00D+00 EMaxC= 1.00D-01 BMatC= 3.33D-10 BMatP= 7.59D-10
 IDIUse=1 WtCom= 1.00D+00 WtEn= 0.00D+00
 Coeff-Com: -0.740D-03 0.918D-02 0.213D-01-0.564D-03-0.115D+00-0.108D+00
 Coeff-Com:  0.424D+00 0.769D+00
 Coeff:     -0.740D-03 0.918D-02 0.213D-01-0.564D-03-0.115D+00-0.108D+00
 Coeff:      0.424D+00 0.769D+00
 Gap=     0.286 Goal=   None    Shift=    0.000
 RMSDP=4.91D-08 MaxDP=2.55D-06 DE=-1.62D-09 OVMax= 1.10D-05

 Cycle  14  Pass 1  IDiag  1:
 RMSU=  2.91D-08    CP:  1.00D+00  1.05D+00  7.95D-01  1.45D+00  1.34D+00
                    CP:  1.06D+00  1.28D+00  1.03D+00
 E= -2048.75002386609     Delta-E=       -0.000000000984 Rises=F Damp=F
 DIIS: error= 1.63D-07 at cycle   9 NSaved=   9.
 NSaved= 9 IEnMin= 9 EnMin= -2048.75002386609     IErMin= 9 ErrMin= 1.63D-07
 ErrMax= 1.63D-07  0.00D+00 EMaxC= 1.00D-01 BMatC= 2.58D-11 BMatP= 3.33D-10
 IDIUse=1 WtCom= 1.00D+00 WtEn= 0.00D+00
 Coeff-Com: -0.395D-03 0.427D-02 0.101D-01 0.870D-03-0.489D-01-0.545D-01
 Coeff-Com:  0.788D-01 0.278D+00 0.732D+00
 Coeff:     -0.395D-03 0.427D-02 0.101D-01 0.870D-03-0.489D-01-0.545D-01
 Coeff:      0.788D-01 0.278D+00 0.732D+00
 Gap=     0.286 Goal=   None    Shift=    0.000
 RMSDP=1.34D-08 MaxDP=6.42D-07 DE=-9.84D-10 OVMax= 3.20D-06

 Cycle  15  Pass 1  IDiag  1:
 RMSU=  8.97D-09    CP:  1.00D+00  1.05D+00  7.95D-01  1.45D+00  1.34D+00
                    CP:  1.07D+00  1.30D+00  1.17D+00  1.11D+00
 E= -2048.75002386601     Delta-E=        0.000000000080 Rises=F Damp=F
 DIIS: error= 7.08D-08 at cycle  10 NSaved=  10.
 NSaved=10 IEnMin= 9 EnMin= -2048.75002386609     IErMin=10 ErrMin= 7.08D-08
 ErrMax= 7.08D-08  0.00D+00 EMaxC= 1.00D-01 BMatC= 4.75D-12 BMatP= 2.58D-11
 IDIUse=1 WtCom= 1.00D+00 WtEn= 0.00D+00
 Coeff-Com:  0.177D-04-0.437D-03-0.924D-03 0.205D-03 0.693D-02 0.305D-02
 Coeff-Com: -0.595D-01-0.722D-01 0.257D+00 0.866D+00
 Coeff:      0.177D-04-0.437D-03-0.924D-03 0.205D-03 0.693D-02 0.305D-02
 Coeff:     -0.595D-01-0.722D-01 0.257D+00 0.866D+00
 Gap=     0.286 Goal=   None    Shift=    0.000
 RMSDP=6.89D-09 MaxDP=3.89D-07 DE= 8.00D-11 OVMax= 1.44D-06

 SCF Done:  E(RwB97XD) =  -2048.75002387     A.U. after   15 cycles
            NFock= 15  Conv=0.69D-08     -V/T= 2.0054
 KE= 2.037778734167D+03 PE=-1.589371678070D+04 EE= 6.250440246166D+03
 Leave Link  502 at Wed Jan 17 20:09:02 2018, MaxMem=  4294967296 cpu:           22011.7 elap:             711.3
 (Enter /share/apps/g16/l601.exe)
 Copying SCF densities to generalized density rwf, IOpCl= 0 IROHF=0.

 **********************************************************************

            Population analysis using the SCF density.

 **********************************************************************

 Orbital symmetries:
       Occupied  (A) (A) (A) (A) (A) (A) (A) (A) (A) (A) (A) (A)
                 (A) (A) (A) (A) (A) (A) (A) (A) (A) (A) (A) (A)
                 (A) (A) (A) (A) (A) (A) (A) (A) (A) (A) (A) (A)
                 (A) (A) (A) (A) (A) (A) (A) (A) (A) (A) (A) (A)
                 (A) (A) (A) (A) (A) (A) (A) (A) (A) (A) (A) (A)
                 (A) (A) (A) (A) (A) (A) (A) (A) (A) (A) (A) (A)
                 (A) (A) (A) (A) (A) (A) (A) (A) (A) (A) (A) (A)
                 (A) (A) (A) (A) (A) (A) (A) (A) (A) (A) (A) (A)
                 (A) (A) (A) (A) (A) (A) (A) (A) (A) (A) (A) (A)
                 (A) (A) (A) (A) (A) (A) (A) (A) (A) (A) (A) (A)
                 (A) (A) (A) (A) (A) (A) (A) (A) (A) (A) (A) (A)
                 (A) (A) (A) (A) (A) (A) (A) (A) (A) (A) (A) (A)
                 (A) (A) (A) (A) (A) (A) (A) (A) (A) (A)
       Virtual   (A) (A) (A) (A) (A) (A) (A) (A) (A) (A) (A) (A)
                 (A) (A) (A) (A) (A) (A) (A) (A) (A) (A) (A) (A)
                 (A) (A) (A) (A) (A) (A) (A) (A) (A) (A) (A) (A)
                 (A) (A) (A) (A) (A) (A) (A) (A) (A) (A) (A) (A)
                 (A) (A) (A) (A) (A) (A) (A) (A) (A) (A) (A) (A)
                 (A) (A) (A) (A) (A) (A) (A) (A) (A) (A) (A) (A)
                 (A) (A) (A) (A) (A) (A) (A) (A) (A) (A) (A) (A)
                 (A) (A) (A) (A) (A) (A) (A) (A) (A) (A) (A) (A)
                 (A) (A) (A) (A) (A) (A) (A) (A) (A) (A) (A) (A)
                 (A) (A) (A) (A) (A) (A) (A) (A) (A) (A) (A) (A)
                 (A) (A) (A) (A) (A) (A) (A) (A) (A) (A) (A) (A)
                 (A) (A) (A) (A) (A) (A) (A) (A) (A) (A) (A) (A)
                 (A) (A) (A) (A) (A) (A) (A) (A) (A) (A) (A) (A)
                 (A) (A) (A) (A) (A) (A) (A) (A) (A) (A) (A) (A)
                 (A) (A) (A) (A) (A) (A) (A) (A) (A) (A) (A) (A)
                 (A) (A) (A) (A) (A) (A) (A) (A) (A) (A) (A) (A)
                 (A) (A) (A) (A) (A) (A) (A) (A) (A) (A) (A) (A)
                 (A) (A) (A) (A) (A) (A) (A) (A) (A) (A) (A) (A)
                 (A) (A) (A) (A) (A) (A) (A) (A) (A) (A) (A) (A)
                 (A) (A) (A) (A) (A) (A) (A) (A) (A) (A) (A) (A)
                 (A) (A) (A) (A) (A) (A) (A) (A) (A) (A) (A) (A)
                 (A) (A) (A) (A) (A) (A) (A) (A) (A) (A) (A) (A)
                 (A) (A) (A) (A) (A) (A) (A) (A) (A) (A) (A) (A)
                 (A) (A) (A) (A) (A) (A) (A) (A) (A) (A) (A) (A)
                 (A) (A) (A) (A) (A) (A) (A) (A) (A) (A) (A) (A)
                 (A) (A) (A) (A) (A) (A) (A) (A) (A) (A) (A) (A)
                 (A) (A) (A) (A) (A) (A) (A) (A) (A) (A) (A) (A)
                 (A) (A) (A) (A) (A) (A) (A) (A) (A) (A) (A) (A)
                 (A) (A) (A) (A) (A) (A) (A) (A) (A) (A) (A) (A)
                 (A) (A) (A) (A) (A) (A) (A) (A) (A) (A) (A) (A)
                 (A) (A) (A) (A) (A) (A) (A) (A) (A) (A) (A) (A)
                 (A) (A) (A) (A) (A) (A) (A) (A) (A) (A) (A) (A)
                 (A) (A) (A) (A) (A) (A) (A) (A) (A) (A) (A) (A)
                 (A) (A) (A) (A) (A) (A) (A) (A) (A) (A) (A) (A)
                 (A) (A) (A) (A) (A) (A) (A) (A) (A) (A) (A) (A)
                 (A) (A) (A) (A) (A) (A) (A) (A) (A) (A) (A) (A)
                 (A) (A) (A) (A) (A) (A) (A) (A) (A) (A) (A) (A)
                 (A) (A) (A) (A) (A) (A) (A) (A) (A) (A) (A) (A)
                 (A) (A) (A) (A) (A) (A) (A) (A) (A) (A) (A) (A)
                 (A) (A) (A) (A) (A) (A) (A) (A) (A) (A) (A) (A)
                 (A) (A) (A) (A) (A) (A) (A) (A) (A) (A) (A) (A)
                 (A) (A) (A) (A) (A) (A) (A) (A) (A) (A) (A) (A)
                 (A) (A) (A) (A) (A) (A) (A) (A) (A) (A) (A) (A)
                 (A) (A) (A) (A) (A) (A) (A) (A) (A) (A) (A) (A)
                 (A) (A) (A) (A) (A) (A) (A) (A) (A) (A) (A) (A)
                 (A) (A) (A) (A) (A) (A) (A) (A) (A) (A) (A) (A)
                 (A) (A) (A) (A) (A) (A) (A) (A) (A) (A) (A) (A)
                 (A) (A) (A) (A) (A) (A) (A) (A) (A) (A) (A) (A)
                 (A) (A) (A) (A) (A) (A) (A)
 The electronic state is 1-A.
 Alpha  occ. eigenvalues --  -19.25164 -19.21452 -19.20765 -14.52691 -14.51634
 Alpha  occ. eigenvalues --  -14.49514 -14.48965 -14.48203 -14.47119 -14.46927
 Alpha  occ. eigenvalues --  -14.46744 -14.45468 -14.44614 -14.44543 -14.42875
 Alpha  occ. eigenvalues --  -14.42105 -14.41593 -14.41453 -14.41271 -14.40935
 Alpha  occ. eigenvalues --  -10.44736 -10.41357 -10.40123 -10.39497 -10.38451
 Alpha  occ. eigenvalues --  -10.38056 -10.37443 -10.36881 -10.36170 -10.35982
 Alpha  occ. eigenvalues --  -10.34812 -10.34164 -10.34163 -10.33982 -10.33886
 Alpha  occ. eigenvalues --  -10.33732 -10.33616 -10.32855 -10.31807 -10.31342
 Alpha  occ. eigenvalues --  -10.30203 -10.28888 -10.28554  -1.18724  -1.15408
 Alpha  occ. eigenvalues --   -1.13449  -1.12428  -1.11547  -1.11110  -1.09575
 Alpha  occ. eigenvalues --   -1.08724  -1.08452  -1.05595  -1.05044  -1.01759
 Alpha  occ. eigenvalues --   -1.01103  -1.00949  -0.99839  -0.98827  -0.97308
 Alpha  occ. eigenvalues --   -0.97161  -0.96997  -0.93272  -0.90207  -0.87840
 Alpha  occ. eigenvalues --   -0.86115  -0.84781  -0.84179  -0.83243  -0.82657
 Alpha  occ. eigenvalues --   -0.82621  -0.78101  -0.77202  -0.75116  -0.75027
 Alpha  occ. eigenvalues --   -0.73794  -0.73282  -0.72601  -0.71486  -0.70564
 Alpha  occ. eigenvalues --   -0.67618  -0.66977  -0.66711  -0.65817  -0.64697
 Alpha  occ. eigenvalues --   -0.64383  -0.63324  -0.63150  -0.62777  -0.61981
 Alpha  occ. eigenvalues --   -0.60848  -0.60829  -0.60506  -0.59747  -0.58920
 Alpha  occ. eigenvalues --   -0.58878  -0.58811  -0.58429  -0.56978  -0.55983
 Alpha  occ. eigenvalues --   -0.55713  -0.55479  -0.55309  -0.54498  -0.54398
 Alpha  occ. eigenvalues --   -0.54215  -0.53805  -0.53366  -0.53127  -0.53022
 Alpha  occ. eigenvalues --   -0.52716  -0.52063  -0.51488  -0.50730  -0.50616
 Alpha  occ. eigenvalues --   -0.50412  -0.50235  -0.49454  -0.49335  -0.49204
 Alpha  occ. eigenvalues --   -0.48822  -0.48694  -0.48219  -0.47464  -0.47341
 Alpha  occ. eigenvalues --   -0.47189  -0.45990  -0.45165  -0.45019  -0.42873
 Alpha  occ. eigenvalues --   -0.41411  -0.40836  -0.38939  -0.37946  -0.37855
 Alpha  occ. eigenvalues --   -0.37698  -0.37447  -0.37266  -0.35610  -0.34877
 Alpha  occ. eigenvalues --   -0.34533  -0.34176  -0.33773  -0.33705  -0.33136
 Alpha  occ. eigenvalues --   -0.33017  -0.32573  -0.32053  -0.31388  -0.31217
 Alpha  occ. eigenvalues --   -0.30848  -0.29952  -0.26907  -0.25175
 Alpha virt. eigenvalues --    0.03461   0.04322   0.06525   0.07490   0.08566
 Alpha virt. eigenvalues --    0.09123   0.09520   0.10222   0.10579   0.12435
 Alpha virt. eigenvalues --    0.13344   0.13372   0.14051   0.14552   0.14885
 Alpha virt. eigenvalues --    0.14964   0.16326   0.17342   0.17948   0.18246
 Alpha virt. eigenvalues --    0.18804   0.19311   0.19373   0.20542   0.20631
 Alpha virt. eigenvalues --    0.20781   0.21024   0.21460   0.21613   0.21945
 Alpha virt. eigenvalues --    0.22214   0.22394   0.22455   0.23315   0.23480
 Alpha virt. eigenvalues --    0.24245   0.24324   0.24633   0.24748   0.25803
 Alpha virt. eigenvalues --    0.25886   0.27107   0.27496   0.27661   0.28524
 Alpha virt. eigenvalues --    0.28678   0.29284   0.29632   0.30582   0.30836
 Alpha virt. eigenvalues --    0.31717   0.32016   0.32401   0.32844   0.33234
 Alpha virt. eigenvalues --    0.34354   0.34568   0.35190   0.35581   0.36529
 Alpha virt. eigenvalues --    0.36755   0.36886   0.37169   0.37968   0.39025
 Alpha virt. eigenvalues --    0.39402   0.40295   0.40571   0.40853   0.41220
 Alpha virt. eigenvalues --    0.42407   0.42902   0.43112   0.43786   0.44093
 Alpha virt. eigenvalues --    0.44461   0.44799   0.45933   0.46145   0.46400
 Alpha virt. eigenvalues --    0.46898   0.47266   0.48077   0.48555   0.49265
 Alpha virt. eigenvalues --    0.49624   0.49924   0.50742   0.50866   0.51278
 Alpha virt. eigenvalues --    0.51788   0.52133   0.52314   0.53096   0.53281
 Alpha virt. eigenvalues --    0.53785   0.53975   0.54390   0.54731   0.55032
 Alpha virt. eigenvalues --    0.55794   0.55944   0.56457   0.57006   0.57299
 Alpha virt. eigenvalues --    0.57442   0.57931   0.58356   0.58958   0.59219
 Alpha virt. eigenvalues --    0.59892   0.60148   0.60659   0.61277   0.61922
 Alpha virt. eigenvalues --    0.62150   0.62458   0.62606   0.62806   0.63234
 Alpha virt. eigenvalues --    0.63742   0.64492   0.64971   0.65307   0.65954
 Alpha virt. eigenvalues --    0.66349   0.66424   0.67118   0.67769   0.68028
 Alpha virt. eigenvalues --    0.68745   0.69232   0.69437   0.69883   0.70195
 Alpha virt. eigenvalues --    0.70456   0.71469   0.71570   0.72085   0.72726
 Alpha virt. eigenvalues --    0.73141   0.73461   0.73507   0.74102   0.74335
 Alpha virt. eigenvalues --    0.74587   0.74839   0.75101   0.75390   0.75682
 Alpha virt. eigenvalues --    0.76475   0.76573   0.76968   0.77531   0.77656
 Alpha virt. eigenvalues --    0.78214   0.78992   0.79174   0.79485   0.79949
 Alpha virt. eigenvalues --    0.80133   0.80503   0.80689   0.81317   0.81519
 Alpha virt. eigenvalues --    0.81874   0.81968   0.82431   0.82849   0.83739
 Alpha virt. eigenvalues --    0.84160   0.84373   0.84828   0.85091   0.85710
 Alpha virt. eigenvalues --    0.86280   0.86567   0.87476   0.87680   0.88083
 Alpha virt. eigenvalues --    0.88331   0.88553   0.89163   0.89912   0.90289
 Alpha virt. eigenvalues --    0.90558   0.90949   0.91297   0.92005   0.92553
 Alpha virt. eigenvalues --    0.93434   0.93696   0.93988   0.94538   0.94834
 Alpha virt. eigenvalues --    0.95433   0.96116   0.96345   0.96807   0.97067
 Alpha virt. eigenvalues --    0.97613   0.97888   0.98162   0.98630   0.98831
 Alpha virt. eigenvalues --    0.99504   1.00197   1.00351   1.00690   1.01423
 Alpha virt. eigenvalues --    1.01713   1.02437   1.03262   1.03380   1.03435
 Alpha virt. eigenvalues --    1.03864   1.04454   1.05224   1.05638   1.06059
 Alpha virt. eigenvalues --    1.06652   1.07158   1.07701   1.08171   1.08611
 Alpha virt. eigenvalues --    1.08833   1.10064   1.10394   1.11003   1.11467
 Alpha virt. eigenvalues --    1.11777   1.12402   1.13526   1.13764   1.14166
 Alpha virt. eigenvalues --    1.14697   1.14996   1.15324   1.15890   1.16072
 Alpha virt. eigenvalues --    1.16779   1.17015   1.17697   1.17773   1.18047
 Alpha virt. eigenvalues --    1.18495   1.18852   1.19122   1.19624   1.19932
 Alpha virt. eigenvalues --    1.20183   1.20684   1.21342   1.21565   1.21858
 Alpha virt. eigenvalues --    1.22491   1.22700   1.22930   1.23285   1.23395
 Alpha virt. eigenvalues --    1.23762   1.24665   1.24829   1.25748   1.26171
 Alpha virt. eigenvalues --    1.26403   1.26723   1.27347   1.27542   1.28297
 Alpha virt. eigenvalues --    1.28799   1.29509   1.30079   1.30853   1.31238
 Alpha virt. eigenvalues --    1.31832   1.32072   1.33433   1.34054   1.34522
 Alpha virt. eigenvalues --    1.34829   1.34932   1.35353   1.36522   1.37290
 Alpha virt. eigenvalues --    1.37632   1.38380   1.39599   1.40077   1.40422
 Alpha virt. eigenvalues --    1.40664   1.41211   1.41961   1.42461   1.44049
 Alpha virt. eigenvalues --    1.45879   1.46341   1.47803   1.48091   1.48449
 Alpha virt. eigenvalues --    1.49107   1.49637   1.49993   1.51433   1.52337
 Alpha virt. eigenvalues --    1.52822   1.53227   1.53426   1.54218   1.54611
 Alpha virt. eigenvalues --    1.55640   1.56259   1.57635   1.57938   1.58361
 Alpha virt. eigenvalues --    1.59367   1.59778   1.60551   1.61251   1.61925
 Alpha virt. eigenvalues --    1.62615   1.63461   1.63779   1.64428   1.64844
 Alpha virt. eigenvalues --    1.65481   1.65682   1.66393   1.66945   1.67013
 Alpha virt. eigenvalues --    1.68028   1.68667   1.68886   1.69558   1.70030
 Alpha virt. eigenvalues --    1.70302   1.70901   1.71463   1.71515   1.72022
 Alpha virt. eigenvalues --    1.73042   1.73274   1.73415   1.73776   1.74329
 Alpha virt. eigenvalues --    1.74685   1.75197   1.75403   1.75579   1.75994
 Alpha virt. eigenvalues --    1.76272   1.76814   1.77389   1.77613   1.77904
 Alpha virt. eigenvalues --    1.78776   1.78867   1.79053   1.79416   1.79477
 Alpha virt. eigenvalues --    1.79612   1.80198   1.80533   1.81131   1.81402
 Alpha virt. eigenvalues --    1.81821   1.82136   1.82771   1.83231   1.83739
 Alpha virt. eigenvalues --    1.83915   1.84231   1.84463   1.85284   1.85641
 Alpha virt. eigenvalues --    1.86004   1.86411   1.86552   1.87050   1.87704
 Alpha virt. eigenvalues --    1.88231   1.88707   1.88948   1.89676   1.90152
 Alpha virt. eigenvalues --    1.90907   1.91345   1.91523   1.92565   1.92775
 Alpha virt. eigenvalues --    1.93178   1.93437   1.93737   1.95107   1.95419
 Alpha virt. eigenvalues --    1.95602   1.96716   1.96836   1.97882   1.98920
 Alpha virt. eigenvalues --    1.99814   2.00421   2.00674   2.01719   2.02375
 Alpha virt. eigenvalues --    2.02536   2.03310   2.03507   2.03626   2.04027
 Alpha virt. eigenvalues --    2.05547   2.06111   2.06353   2.07077   2.07407
 Alpha virt. eigenvalues --    2.08224   2.09268   2.09967   2.10310   2.11658
 Alpha virt. eigenvalues --    2.12266   2.12763   2.12914   2.13779   2.14891
 Alpha virt. eigenvalues --    2.15857   2.16695   2.17021   2.17492   2.18625
 Alpha virt. eigenvalues --    2.19542   2.19816   2.20131   2.20871   2.21756
 Alpha virt. eigenvalues --    2.22307   2.23040   2.23721   2.24052   2.24301
 Alpha virt. eigenvalues --    2.24990   2.26048   2.26449   2.26868   2.27237
 Alpha virt. eigenvalues --    2.27529   2.27734   2.28997   2.29192   2.30081
 Alpha virt. eigenvalues --    2.30392   2.31363   2.31829   2.32022   2.32378
 Alpha virt. eigenvalues --    2.32778   2.33494   2.34048   2.34272   2.34835
 Alpha virt. eigenvalues --    2.35245   2.36346   2.36730   2.37492   2.37973
 Alpha virt. eigenvalues --    2.39151   2.39632   2.40248   2.40558   2.41626
 Alpha virt. eigenvalues --    2.42503   2.43028   2.43683   2.44048   2.44859
 Alpha virt. eigenvalues --    2.44985   2.45390   2.45611   2.45793   2.46570
 Alpha virt. eigenvalues --    2.47751   2.49005   2.50169   2.51099   2.51410
 Alpha virt. eigenvalues --    2.53343   2.53880   2.55305   2.55509   2.56465
 Alpha virt. eigenvalues --    2.57133   2.58003   2.58596   2.60154   2.60807
 Alpha virt. eigenvalues --    2.61565   2.62045   2.62739   2.63469   2.64403
 Alpha virt. eigenvalues --    2.64972   2.65317   2.65795   2.66217   2.66817
 Alpha virt. eigenvalues --    2.67729   2.68460   2.69056   2.69681   2.69799
 Alpha virt. eigenvalues --    2.70634   2.71114   2.71793   2.71931   2.72837
 Alpha virt. eigenvalues --    2.74102   2.74816   2.75679   2.76853   2.77237
 Alpha virt. eigenvalues --    2.77557   2.78134   2.78310   2.79010   2.79456
 Alpha virt. eigenvalues --    2.79893   2.80590   2.80832   2.81168   2.81901
 Alpha virt. eigenvalues --    2.82442   2.83594   2.83745   2.84439   2.84627
 Alpha virt. eigenvalues --    2.84842   2.86341   2.86398   2.86866   2.87163
 Alpha virt. eigenvalues --    2.87812   2.88779   2.89455   2.92732   2.94750
 Alpha virt. eigenvalues --    2.95028   2.96821   2.97632   2.98081   2.99676
 Alpha virt. eigenvalues --    3.00693   3.01584   3.03211   3.04383   3.05215
 Alpha virt. eigenvalues --    3.06779   3.09417   3.10886   3.12573   3.14799
 Alpha virt. eigenvalues --    3.15500   3.16341   3.17130   3.18768   3.20624
 Alpha virt. eigenvalues --    3.20911   3.22875   3.23788   3.24987   3.26798
 Alpha virt. eigenvalues --    3.44608   3.47127   3.47687   3.48964   3.50910
 Alpha virt. eigenvalues --    3.52845   3.54739   3.56502   3.58081   3.60358
 Alpha virt. eigenvalues --    3.63734   3.71136   3.75844
          Condensed to atoms (all electrons):
 Mulliken charges:
               1
     1  N   -0.298892
     2  C    0.193124
     3  C    0.044266
     4  N   -0.241383
     5  C    0.145863
     6  H    0.025925
     7  N   -0.288150
     8  C    0.121816
     9  H    0.005702
    10  N   -0.274317
    11  C    0.232491
    12  C    0.078529
    13  N   -0.052221
    14  H    0.116535
    15  H    0.087295
    16  H    0.027372
    17  H    0.035257
    18  H   -0.001749
    19  N   -0.301085
    20  C    0.242253
    21  C    0.181868
    22  N   -0.115448
    23  H    0.118962
    24  H    0.119609
    25  N   -0.296488
    26  C    0.233138
    27  N   -0.131199
    28  H    0.119684
    29  C    0.182047
    30  O   -0.318303
    31  C   -0.007812
    32  N   -0.210844
    33  C    0.099565
    34  H    0.022563
    35  H    0.008496
    36  H    0.035994
    37  H    0.029132
    38  H    0.051217
    39  H    0.049738
    40  H    0.073078
    41  H    0.017916
    42  C   -0.100000
    43  O   -0.276572
    44  C    0.176852
    45  H    0.129982
    46  N   -0.117903
    47  O   -0.347063
    48  C    0.324550
    49  H    0.045208
    50  C    0.155358
    51  C    0.051217
    52  N   -0.268203
    53  H    0.037560
    54  H    0.043425
    55  H    0.029248
    56  H    0.126203
    57  H    0.119372
    58  N   -0.056278
    59  C    0.097836
    60  C    0.221558
    61  N   -0.271508
    62  H    0.034408
    63  C    0.163724
    64  N   -0.306497
    65  H    0.039419
    66  C    0.138012
    67  N   -0.256878
    68  C    0.040430
    69  C    0.177449
    70  N   -0.312451
 Sum of Mulliken charges =  -0.00000
 Mulliken charges with hydrogens summed into heavy atoms:
               1
     1  N   -0.298892
     2  C    0.254003
     3  C    0.044266
     4  N   -0.241383
     5  C    0.171788
     7  N   -0.288150
     8  C    0.127518
    10  N   -0.274317
    11  C    0.232491
    12  C    0.078529
    13  N    0.151609
    19  N   -0.301085
    20  C    0.242253
    21  C    0.255489
    22  N    0.123124
    25  N   -0.296488
    26  C    0.233138
    27  N   -0.011515
    29  C    0.182047
    30  O   -0.318303
    31  C   -0.007812
    32  N   -0.210844
    33  C    0.122128
    42  C   -0.082084
    43  O   -0.276572
    44  C    0.176852
    46  N    0.012079
    47  O   -0.347063
    48  C    0.324550
    50  C    0.200565
    51  C    0.225249
    52  N   -0.268203
    58  N    0.189298
    59  C    0.097836
    60  C    0.221558
    61  N   -0.271508
    63  C    0.198133
    64  N   -0.306497
    66  C    0.177431
    67  N   -0.256878
    68  C    0.040430
    69  C    0.287682
    70  N   -0.312451
 Electronic spatial extent (au):  <R**2>=          22873.0489
 Charge=             -0.0000 electrons
 Dipole moment (field-independent basis, Debye):
    X=             -5.0736    Y=              7.0127    Z=             -3.6617  Tot=              9.3983
 Quadrupole moment (field-independent basis, Debye-Ang):
   XX=           -146.1003   YY=           -226.0445   ZZ=           -261.4360
   XY=             -7.8757   XZ=             -8.5216   YZ=              8.1301
 Traceless Quadrupole moment (field-independent basis, Debye-Ang):
   XX=             65.0933   YY=            -14.8509   ZZ=            -50.2424
   XY=             -7.8757   XZ=             -8.5216   YZ=              8.1301
 Octapole moment (field-independent basis, Debye-Ang**2):
  XXX=             74.7806  YYY=             56.2190  ZZZ=            -19.8204  XYY=            -74.1863
  XXY=            127.0786  XXZ=            -83.2730  XZZ=            -38.9768  YZZ=             47.3852
  YYZ=            -38.4164  XYZ=             43.8223
 Hexadecapole moment (field-independent basis, Debye-Ang**3):
 XXXX=         -17413.1485 YYYY=          -3319.7972 ZZZZ=          -3827.2787 XXXY=           -858.9995
 XXXZ=            126.6241 YYYX=            174.1199 YYYZ=            -57.3660 ZZZX=             -8.2762
 ZZZY=             64.9254 XXYY=          -3952.9023 XXZZ=          -4230.2735 YYZZ=          -1314.3802
 XXYZ=           -103.1473 YYXZ=             -5.2313 ZZXY=            -93.4170
 N-N= 5.556747776497D+03 E-N=-1.589371677099D+04  KE= 2.037778734167D+03
 No NMR shielding tensors so no spin-rotation constants.
 Leave Link  601 at Wed Jan 17 20:09:04 2018, MaxMem=  4294967296 cpu:              47.4 elap:               1.7
 (Enter /share/apps/g16/l9999.exe)
 1\1\GINC-COMPUTE-0-3\SP\RwB97XD\CC-pVDZ\C23H27N17O3\SATYA\17-Jan-2018\
 0\\#p wb97xd/cc-pvdz sp scf=(maxcycles=20)\\Base pair stacking\\0,1\N,
 0,-0.02303,1.89796,-6.47105\C,0,-0.5572,3.26987,-6.57363\C,0,0.15388,-
 0.29235,-6.37851\N,0,1.44296,0.2065,-6.25948\C,0,1.28478,1.50611,-6.32
 \H,0,2.0954,2.23284,-6.25909\N,0,-1.69186,-1.75355,-6.52372\C,0,-2.451
 6,-0.65962,-6.6407\H,0,-3.51968,-0.84445,-6.74702\N,0,-2.09175,0.62232
 ,-6.64603\C,0,-0.76045,0.73834,-6.50964\C,0,-0.35615,-1.60334,-6.38803
 \N,0,0.40391,-2.69413,-6.27112\H,0,1.3972,-2.63027,-6.1686\H,0,0.0066,
 -3.61182,-6.28203\H,0,-0.15612,3.72669,-7.36775\H,0,-1.55076,3.23463,-
 6.67715\H,0,-0.32798,3.78182,-5.74576\N,0,-0.69548,2.91656,-3.26456\C,
 0,-1.21369,1.64396,-3.26328\C,0,-1.486,4.16011,-3.36129\N,0,-3.95111,-
 0.4891,-3.39872\H,0,-4.12027,-1.47414,-3.38065\H,0,-4.75057,0.10721,-3
 .47605\N,0,-2.52158,1.31834,-3.34948\C,0,-2.70838,0.01067,-3.32272\N,0
 ,-1.69336,-0.90943,-3.21948\H,0,-1.92944,-1.88976,-3.20649\C,0,-0.3405
 1,-0.59705,-3.12957\O,0,0.49626,-1.50398,-3.03986\C,0,-0.1241,0.80412,
 -3.15705\N,0,1.05443,1.53477,-3.09292\C,0,0.66723,2.77967,-3.16\H,0,1.
 33666,3.64027,-3.13738\H,0,-1.2101,4.66996,-4.17537\H,0,-2.45649,3.931
 46,-3.42565\H,0,-1.32986,4.72037,-2.54856\H,0,-3.70971,-6.60986,-3.842
 08\H,0,-3.58171,-6.67165,-2.08582\H,0,-3.947,-5.14448,-2.88935\H,0,1.0
 2167,-7.31424,-3.32784\C,0,0.29418,-6.50655,-3.2464\O,0,1.92468,-4.784
 58,-3.30466\C,0,0.7519,-5.15078,-3.23206\H,0,0.03458,-3.2378,-3.11248\
 N,0,-0.24987,-4.20715,-3.12585\O,0,-2.41175,-3.53584,-2.94466\C,0,-1.5
 9947,-4.4395,-3.03565\H,0,-1.41529,-7.77822,-3.16654\C,0,-1.01593,-6.7
 649,-3.16\C,0,-3.39417,-6.06925,-2.96218\N,0,-1.96221,-5.77187,-3.0560
 9\H,0,-5.39666,-8.74229,-6.86174\H,0,-5.36147,-7.42393,-5.90113\H,0,-5
 .26771,-8.91508,-5.24405\H,0,1.54886,-6.18715,-6.31721\H,0,1.18446,-7.
 84712,-6.46493\N,0,0.8578,-6.90971,-6.33931\C,0,-0.44183,-6.63644,-6.2
 0724\C,0,-2.75555,-7.17738,-6.08142\N,0,-3.16534,-5.90912,-5.91402\H,0
 ,-2.36851,-4.02582,-5.77681\C,0,-2.12425,-5.07906,-5.90822\N,0,-0.8218
 4,-5.35082,-6.04035\H,0,-3.02376,-10.3833,-6.40123\C,0,-2.66899,-9.355
 45,-6.32\N,0,-1.41059,-8.99441,-6.38132\C,0,-1.45139,-7.61579,-6.23142
 \C,0,-5.00835,-8.35044,-6.02768\N,0,-3.53744,-8.30665,-6.1396\\Version
 =EM64L-G16RevA.03\State=1-A\HF=-2048.7500239\RMSD=6.888e-09\Dipole=-3.
 3667939,-1.480586,-0.3801612\Quadrupole=-16.92155,46.4600787,-29.53852
 87,14.0411167,-13.5905103,0.2670619\PG=C01 [X(C23H27N17O3)]\\@


 PERICLES, SOPHOCLES,
 PELOPONESIAN WAR,
 FRENCH VERBS, LATIN VERBS
 H2SO4.
 Job cpu time:       0 days  6 hours 17 minutes 22.4 seconds.
 Elapsed time:       0 days  0 hours 12 minutes 11.6 seconds.
 File lengths (MBytes):  RWF=    298 Int=      0 D2E=      0 Chk=     33 Scr=      1
 Normal termination of Gaussian 16 at Wed Jan 17 20:09:04 2018.
