 Entering Gaussian System, Link 0=g16
 Input=str10.-10.0.5.com
 Output=str10.-10.0.5.log
 Initial command:
 /share/apps/g16/l1.exe "/state/partition1/scr/Gau-3344.inp" -scrdir="/state/partition1/scr/"
 Entering Link 1 = /share/apps/g16/l1.exe PID=      3345.
  
 Copyright (c) 1988,1990,1992,1993,1995,1998,2003,2009,2016,
            Gaussian, Inc.  All Rights Reserved.
  
 This is part of the Gaussian(R) 16 program.  It is based on
 the Gaussian(R) 09 system (copyright 2009, Gaussian, Inc.),
 the Gaussian(R) 03 system (copyright 2003, Gaussian, Inc.),
 the Gaussian(R) 98 system (copyright 1998, Gaussian, Inc.),
 the Gaussian(R) 94 system (copyright 1995, Gaussian, Inc.),
 the Gaussian 92(TM) system (copyright 1992, Gaussian, Inc.),
 the Gaussian 90(TM) system (copyright 1990, Gaussian, Inc.),
 the Gaussian 88(TM) system (copyright 1988, Gaussian, Inc.),
 the Gaussian 86(TM) system (copyright 1986, Carnegie Mellon
 University), and the Gaussian 82(TM) system (copyright 1983,
 Carnegie Mellon University). Gaussian is a federally registered
 trademark of Gaussian, Inc.
  
 This software contains proprietary and confidential information,
 including trade secrets, belonging to Gaussian, Inc.
  
 This software is provided under written license and may be
 used, copied, transmitted, or stored only in accord with that
 written license.
  
 The following legend is applicable only to US Government
 contracts under FAR:
  
                    RESTRICTED RIGHTS LEGEND
  
 Use, reproduction and disclosure by the US Government is
 subject to restrictions as set forth in subparagraphs (a)
 and (c) of the Commercial Computer Software - Restricted
 Rights clause in FAR 52.227-19.
  
 Gaussian, Inc.
 340 Quinnipiac St., Bldg. 40, Wallingford CT 06492
  
  
 ---------------------------------------------------------------
 Warning -- This program may not be used in any manner that
 competes with the business of Gaussian, Inc. or will provide
 assistance to any competitor of Gaussian, Inc.  The licensee
 of this program is prohibited from giving any competitor of
 Gaussian, Inc. access to this program.  By using this program,
 the user acknowledges that Gaussian, Inc. is engaged in the
 business of creating and licensing software in the field of
 computational chemistry and represents and warrants to the
 licensee that it is not a competitor of Gaussian, Inc. and that
 it will not use this program in any manner prohibited above.
 ---------------------------------------------------------------
  

 Cite this work as:
 Gaussian 16, Revision A.03,
 M. J. Frisch, G. W. Trucks, H. B. Schlegel, G. E. Scuseria, 
 M. A. Robb, J. R. Cheeseman, G. Scalmani, V. Barone, 
 G. A. Petersson, H. Nakatsuji, X. Li, M. Caricato, A. V. Marenich, 
 J. Bloino, B. G. Janesko, R. Gomperts, B. Mennucci, H. P. Hratchian, 
 J. V. Ortiz, A. F. Izmaylov, J. L. Sonnenberg, D. Williams-Young, 
 F. Ding, F. Lipparini, F. Egidi, J. Goings, B. Peng, A. Petrone, 
 T. Henderson, D. Ranasinghe, V. G. Zakrzewski, J. Gao, N. Rega, 
 G. Zheng, W. Liang, M. Hada, M. Ehara, K. Toyota, R. Fukuda, 
 J. Hasegawa, M. Ishida, T. Nakajima, Y. Honda, O. Kitao, H. Nakai, 
 T. Vreven, K. Throssell, J. A. Montgomery, Jr., J. E. Peralta, 
 F. Ogliaro, M. J. Bearpark, J. J. Heyd, E. N. Brothers, K. N. Kudin, 
 V. N. Staroverov, T. A. Keith, R. Kobayashi, J. Normand, 
 K. Raghavachari, A. P. Rendell, J. C. Burant, S. S. Iyengar, 
 J. Tomasi, M. Cossi, J. M. Millam, M. Klene, C. Adamo, R. Cammi, 
 J. W. Ochterski, R. L. Martin, K. Morokuma, O. Farkas, 
 J. B. Foresman, and D. J. Fox, Gaussian, Inc., Wallingford CT, 2016.
 
 ******************************************
 Gaussian 16:  EM64L-G16RevA.03 25-Dec-2016
                17-Jan-2018 
 ******************************************
 %nprocshared=32
 Will use up to   32 processors via shared memory.
 %mem=32GB
 %chk=allatoms_t.chk
 ---------------------------------------
 #p wb97xd/cc-pvdz sp scf=(maxcycles=20)
 ---------------------------------------
 1/38=1,172=1/1;
 2/12=2,17=6,18=5,40=1/2;
 3/5=16,11=2,25=1,30=1,74=-58/1,2,3;
 4//1;
 5/5=2,7=20,38=5/2;
 6/7=2,8=2,9=2,10=2,28=1/1;
 99/5=1,9=1/99;
 Leave Link    1 at Wed Jan 17 21:11:22 2018, MaxMem=  4294967296 cpu:               2.7 elap:               0.1
 (Enter /share/apps/g16/l101.exe)
 ------------------
 Base pair stacking
 ------------------
 Symbolic Z-matrix:
 Charge =  0 Multiplicity = 1
 N                    -0.59396   4.9434   -6.20542 
 C                    -1.1124    6.31559  -6.04323 
 C                    -0.42702   2.75263  -6.30525 
 N                     0.83455   3.2516   -6.59543 
 C                     0.68348   4.55149  -6.52367 
 H                     1.47793   5.27839  -6.69517 
 N                    -2.23541   1.29108  -5.90961 
 C                    -2.97514   2.38523  -5.70171 
 H                    -4.0198    2.20034  -5.45521 
 N                    -2.61984   3.66745  -5.75235 
 C                    -1.31804   3.78352  -6.06264 
 C                    -0.92922   1.44135  -6.22003 
 N                    -0.18917   0.35035  -6.42792 
 H                     0.78205   0.41423  -6.66003 
 H                    -0.5801   -0.56755  -6.35878 
 H                    -0.99349   6.82147  -6.8977 
 H                    -2.0838    6.28033  -5.81029 
 H                    -0.61247   6.7787   -5.31138 
 N                    -0.84047   4.41372  -3.08384 
 C                    -1.35319   3.14091  -3.01238 
 C                    -1.6334    5.65807  -3.02417 
 N                    -4.07716   1.00833  -2.70597 
 H                    -4.24261   0.02302  -2.67382 
 H                    -4.87682   1.60522  -2.63538 
 N                    -2.65701   2.81577  -2.87673 
 C                    -2.83896   1.50772  -2.83782 
 N                    -1.82314   0.58683  -2.92492 
 H                    -2.05536  -0.39374  -2.88616 
 C                    -0.47443   0.8987   -3.06486 
 O                     0.3635   -0.00892  -3.13436 
 C                    -0.26325   2.30028  -3.10817 
 N                     0.91012   3.03065  -3.23718 
 C                     0.5196    4.27617  -3.2178 
 H                     1.18459   5.13677  -3.29798 
 H                    -1.50094   6.18037  -3.86587 
 H                    -2.6009    5.42978  -2.92371 
 H                    -1.33841   6.20607  -2.24219 
 H                    -3.92778  -5.10486  -3.27622 
 H                    -3.49911  -5.19314  -1.56944 
 H                    -3.99444  -3.65422  -2.27494 
 H                     0.82004  -5.81381  -3.59585 
 C                     0.11906  -5.00793  -3.37811 
 O                     1.71848  -3.28419  -3.69067 
 C                     0.57505  -3.65222  -3.42252 
 H                    -0.10718  -1.74175  -3.15235 
 N                    -0.39157  -2.71097  -3.13105 
 O                    -2.48854  -2.04391  -2.56987 
 C                    -1.70588  -2.94555  -2.81308 
 H                    -1.55355  -6.28179  -3.02391 
 C                    -1.15706  -5.26842  -3.07107 
 C                    -3.46424  -4.57741  -2.45586 
 N                    -2.06933  -4.2777   -2.7907 
 H                    -5.93767  -5.68828  -5.3957 
 H                    -5.56491  -4.42935  -4.42706 
 H                    -5.27782  -5.95641  -3.92732 
 H                     0.82542  -3.12643  -7.05792 
 H                     0.40937  -4.7769   -7.17175 
 N                     0.15667  -3.85072  -6.88967 
 C                    -1.02009  -3.59401  -6.31477 
 C                    -3.16599  -4.15606  -5.45399 
 N                    -3.47842  -2.90266  -5.08551 
 H                    -2.65524  -1.0259   -5.1132 
 C                    -2.48375  -2.06788  -5.37992 
 N                    -1.30438  -2.32305  -5.95572 
 H                    -3.5706   -7.33884  -5.85199 
 C                    -3.19471  -6.31544  -5.83434 
 N                    -2.02426  -5.94346  -6.29192 
 C                    -1.99328  -4.57652  -6.0569 
 C                    -5.28744  -5.34442  -4.71824 
 N                    -3.9381   -5.28477  -5.31299 
 
 ITRead=  0  0  0  0  0  0  0  0  0  0  0  0  0  0  0  0  0  0  0  0
 ITRead=  0  0  0  0  0  0  0  0  0  0  0  0  0  0  0  0  0  0  0  0
 ITRead=  0  0  0  0  0  0  0  0  0  0  0  0  0  0  0  0  0  0  0  0
 ITRead=  0  0  0  0  0  0  0  0  0  0
 MicOpt= -1 -1 -1 -1 -1 -1 -1 -1 -1 -1 -1 -1 -1 -1 -1 -1 -1 -1 -1 -1
 MicOpt= -1 -1 -1 -1 -1 -1 -1 -1 -1 -1 -1 -1 -1 -1 -1 -1 -1 -1 -1 -1
 MicOpt= -1 -1 -1 -1 -1 -1 -1 -1 -1 -1 -1 -1 -1 -1 -1 -1 -1 -1 -1 -1
 MicOpt= -1 -1 -1 -1 -1 -1 -1 -1 -1 -1
 NAtoms=     70 NQM=       70 NQMF=       0 NMMI=      0 NMMIF=      0
                NMic=       0 NMicF=      0.
                    Isotopes and Nuclear Properties:
 (Nuclear quadrupole moments (NQMom) in fm**2, nuclear magnetic moments (NMagM)
  in nuclear magnetons)

  Atom         1           2           3           4           5           6           7           8           9          10
 IAtWgt=          14          12          12          14          12           1          14          12           1          14
 AtmWgt=  14.0030740  12.0000000  12.0000000  14.0030740  12.0000000   1.0078250  14.0030740  12.0000000   1.0078250  14.0030740
 NucSpn=           2           0           0           2           0           1           2           0           1           2
 AtZEff=  -0.0000000  -0.0000000  -0.0000000  -0.0000000  -0.0000000  -0.0000000  -0.0000000  -0.0000000  -0.0000000  -0.0000000
 NQMom=    2.0440000   0.0000000   0.0000000   2.0440000   0.0000000   0.0000000   2.0440000   0.0000000   0.0000000   2.0440000
 NMagM=    0.4037610   0.0000000   0.0000000   0.4037610   0.0000000   2.7928460   0.4037610   0.0000000   2.7928460   0.4037610
 AtZNuc=   7.0000000   6.0000000   6.0000000   7.0000000   6.0000000   1.0000000   7.0000000   6.0000000   1.0000000   7.0000000

  Atom        11          12          13          14          15          16          17          18          19          20
 IAtWgt=          12          12          14           1           1           1           1           1          14          12
 AtmWgt=  12.0000000  12.0000000  14.0030740   1.0078250   1.0078250   1.0078250   1.0078250   1.0078250  14.0030740  12.0000000
 NucSpn=           0           0           2           1           1           1           1           1           2           0
 AtZEff=  -0.0000000  -0.0000000  -0.0000000  -0.0000000  -0.0000000  -0.0000000  -0.0000000  -0.0000000  -0.0000000  -0.0000000
 NQMom=    0.0000000   0.0000000   2.0440000   0.0000000   0.0000000   0.0000000   0.0000000   0.0000000   2.0440000   0.0000000
 NMagM=    0.0000000   0.0000000   0.4037610   2.7928460   2.7928460   2.7928460   2.7928460   2.7928460   0.4037610   0.0000000
 AtZNuc=   6.0000000   6.0000000   7.0000000   1.0000000   1.0000000   1.0000000   1.0000000   1.0000000   7.0000000   6.0000000

  Atom        21          22          23          24          25          26          27          28          29          30
 IAtWgt=          12          14           1           1          14          12          14           1          12          16
 AtmWgt=  12.0000000  14.0030740   1.0078250   1.0078250  14.0030740  12.0000000  14.0030740   1.0078250  12.0000000  15.9949146
 NucSpn=           0           2           1           1           2           0           2           1           0           0
 AtZEff=  -0.0000000  -0.0000000  -0.0000000  -0.0000000  -0.0000000  -0.0000000  -0.0000000  -0.0000000  -0.0000000  -0.0000000
 NQMom=    0.0000000   2.0440000   0.0000000   0.0000000   2.0440000   0.0000000   2.0440000   0.0000000   0.0000000   0.0000000
 NMagM=    0.0000000   0.4037610   2.7928460   2.7928460   0.4037610   0.0000000   0.4037610   2.7928460   0.0000000   0.0000000
 AtZNuc=   6.0000000   7.0000000   1.0000000   1.0000000   7.0000000   6.0000000   7.0000000   1.0000000   6.0000000   8.0000000

  Atom        31          32          33          34          35          36          37          38          39          40
 IAtWgt=          12          14          12           1           1           1           1           1           1           1
 AtmWgt=  12.0000000  14.0030740  12.0000000   1.0078250   1.0078250   1.0078250   1.0078250   1.0078250   1.0078250   1.0078250
 NucSpn=           0           2           0           1           1           1           1           1           1           1
 AtZEff=  -0.0000000  -0.0000000  -0.0000000  -0.0000000  -0.0000000  -0.0000000  -0.0000000  -0.0000000  -0.0000000  -0.0000000
 NQMom=    0.0000000   2.0440000   0.0000000   0.0000000   0.0000000   0.0000000   0.0000000   0.0000000   0.0000000   0.0000000
 NMagM=    0.0000000   0.4037610   0.0000000   2.7928460   2.7928460   2.7928460   2.7928460   2.7928460   2.7928460   2.7928460
 AtZNuc=   6.0000000   7.0000000   6.0000000   1.0000000   1.0000000   1.0000000   1.0000000   1.0000000   1.0000000   1.0000000

  Atom        41          42          43          44          45          46          47          48          49          50
 IAtWgt=           1          12          16          12           1          14          16          12           1          12
 AtmWgt=   1.0078250  12.0000000  15.9949146  12.0000000   1.0078250  14.0030740  15.9949146  12.0000000   1.0078250  12.0000000
 NucSpn=           1           0           0           0           1           2           0           0           1           0
 AtZEff=  -0.0000000  -0.0000000  -0.0000000  -0.0000000  -0.0000000  -0.0000000  -0.0000000  -0.0000000  -0.0000000  -0.0000000
 NQMom=    0.0000000   0.0000000   0.0000000   0.0000000   0.0000000   2.0440000   0.0000000   0.0000000   0.0000000   0.0000000
 NMagM=    2.7928460   0.0000000   0.0000000   0.0000000   2.7928460   0.4037610   0.0000000   0.0000000   2.7928460   0.0000000
 AtZNuc=   1.0000000   6.0000000   8.0000000   6.0000000   1.0000000   7.0000000   8.0000000   6.0000000   1.0000000   6.0000000

  Atom        51          52          53          54          55          56          57          58          59          60
 IAtWgt=          12          14           1           1           1           1           1          14          12          12
 AtmWgt=  12.0000000  14.0030740   1.0078250   1.0078250   1.0078250   1.0078250   1.0078250  14.0030740  12.0000000  12.0000000
 NucSpn=           0           2           1           1           1           1           1           2           0           0
 AtZEff=  -0.0000000  -0.0000000  -0.0000000  -0.0000000  -0.0000000  -0.0000000  -0.0000000  -0.0000000  -0.0000000  -0.0000000
 NQMom=    0.0000000   2.0440000   0.0000000   0.0000000   0.0000000   0.0000000   0.0000000   2.0440000   0.0000000   0.0000000
 NMagM=    0.0000000   0.4037610   2.7928460   2.7928460   2.7928460   2.7928460   2.7928460   0.4037610   0.0000000   0.0000000
 AtZNuc=   6.0000000   7.0000000   1.0000000   1.0000000   1.0000000   1.0000000   1.0000000   7.0000000   6.0000000   6.0000000

  Atom        61          62          63          64          65          66          67          68          69          70
 IAtWgt=          14           1          12          14           1          12          14          12          12          14
 AtmWgt=  14.0030740   1.0078250  12.0000000  14.0030740   1.0078250  12.0000000  14.0030740  12.0000000  12.0000000  14.0030740
 NucSpn=           2           1           0           2           1           0           2           0           0           2
 AtZEff=  -0.0000000  -0.0000000  -0.0000000  -0.0000000  -0.0000000  -0.0000000  -0.0000000  -0.0000000  -0.0000000  -0.0000000
 NQMom=    2.0440000   0.0000000   0.0000000   2.0440000   0.0000000   0.0000000   2.0440000   0.0000000   0.0000000   2.0440000
 NMagM=    0.4037610   2.7928460   0.0000000   0.4037610   2.7928460   0.0000000   0.4037610   0.0000000   0.0000000   0.4037610
 AtZNuc=   7.0000000   1.0000000   6.0000000   7.0000000   1.0000000   6.0000000   7.0000000   6.0000000   6.0000000   7.0000000
 Leave Link  101 at Wed Jan 17 21:11:22 2018, MaxMem=  4294967296 cpu:               5.2 elap:               0.2
 (Enter /share/apps/g16/l202.exe)
 Stoichiometry    C23H27N17O3
 Framework group  C1[X(C23H27N17O3)]
 Deg. of freedom   204
 Full point group                 C1      NOp   1
 Largest Abelian subgroup         C1      NOp   1
 Largest concise Abelian subgroup C1      NOp   1
                         Standard orientation:                         
 ---------------------------------------------------------------------
 Center     Atomic      Atomic             Coordinates (Angstroms)
 Number     Number       Type             X           Y           Z
 ---------------------------------------------------------------------
      1          7           0        5.418995   -1.135287   -1.144074
      2          6           0        6.695058   -0.480669   -1.492111
      3          6           0        3.279985   -1.591580   -0.912248
      4          7           0        3.967208   -2.645746   -0.328129
      5          6           0        5.228379   -2.328651   -0.491175
      6          1           0        6.068918   -2.934560   -0.151593
      7          7           0        1.557465   -0.185258   -1.698449
      8          6           0        2.524733    0.627524   -2.135903
      9          1           0        2.181242    1.532484   -2.635223
     10          7           0        3.846388    0.490906   -2.049566
     11          6           0        4.161459   -0.652859   -1.419513
     12          6           0        1.907004   -1.328136   -1.068589
     13          7           0        0.942898   -2.140760   -0.631193
     14          1           0        1.155514   -2.997263   -0.159578
     15          1           0       -0.024256   -1.921247   -0.759935
     16          1           0        7.227453   -1.081207   -2.088837
     17          1           0        6.510693    0.380017   -1.965768
     18          1           0        7.215380   -0.295562   -0.658441
     19          7           0        4.805525    1.082558    1.044626
     20          6           0        3.469231    1.349096    0.867683
     21          6           0        5.915817    1.852595    0.448806
     22          7           0        0.947671    3.280803   -0.536609
     23          1           0       -0.051708    3.302815   -0.536089
     24          1           0        1.416713    3.984087   -1.071500
     25          7           0        2.950139    2.351175    0.125765
     26          6           0        1.629123    2.350381    0.148847
     27          7           0        0.872457    1.438871    0.844636
     28          1           0       -0.132354    1.514584    0.805017
     29          6           0        1.385230    0.399561    1.614546
     30          8           0        0.614728   -0.368805    2.203333
     31          6           0        2.803161    0.387500    1.599453
     32          7           0        3.703189   -0.465566    2.223239
     33          6           0        4.875619   -0.015851    1.866356
     34          1           0        5.827382   -0.449561    2.175088
     35          1           0        6.466258    1.252786   -0.130887
     36          1           0        5.543459    2.597638   -0.103032
     37          1           0        6.488499    2.231216    1.175096
     38          1           0       -5.063560    2.041733   -0.316620
     39          1           0       -5.115525    2.868237    1.238642
     40          1           0       -3.656469    2.941852    0.250162
     41          1           0       -5.047546   -1.720882    2.681553
     42          6           0       -4.359611   -0.964898    2.302792
     43          8           0       -2.410620   -2.130936    2.987560
     44          6           0       -2.950324   -1.161746    2.454482
     45          1           0       -1.168510   -0.249308    2.029133
     46          7           0       -2.169622   -0.145944    1.940758
     47          8           0       -1.833923    1.842016    0.895533
     48          6           0       -2.603852    0.997650    1.318521
     49          1           0       -5.875540    0.337442    1.560046
     50          6           0       -4.813547    0.140334    1.700285
     51          6           0       -4.486587    2.320840    0.552440
     52          7           0       -3.975608    1.115079    1.210283
     53          1           0       -5.905558    2.007830   -3.173563
     54          1           0       -4.621586    2.542264   -2.320383
     55          1           0       -6.096634    2.483279   -1.624087
     56          1           0       -2.331413   -3.729005   -0.110943
     57          1           0       -4.023422   -3.703839   -0.326760
     58          7           0       -3.150481   -3.216592   -0.369189
     59          6           0       -3.082783   -1.940228   -0.753226
     60          6           0       -3.974548    0.135220   -1.500888
     61          7           0       -2.788544    0.764140   -1.548365
     62          1           0       -0.809427    0.374492   -1.185197
     63          6           0       -1.809273   -0.057344   -1.175409
     64          7           0       -1.875043   -1.336029   -0.790430
     65          1           0       -7.174814   -0.226379   -1.783287
     66          6           0       -6.107091   -0.363589   -1.609811
     67          7           0       -5.556222   -1.479599   -1.198998
     68          6           0       -4.204256   -1.177044   -1.125746
     69          6           0       -5.479679    2.032188   -2.269116
     70          7           0       -5.208438    0.655263   -1.812487
 ---------------------------------------------------------------------
 Rotational constants (GHZ):           0.1842137           0.0523487           0.0516025
 Leave Link  202 at Wed Jan 17 21:11:22 2018, MaxMem=  4294967296 cpu:               0.3 elap:               0.0
 (Enter /share/apps/g16/l301.exe)
 Standard basis: CC-pVDZ (5D, 7F)
 Ernie: Thresh=  0.10000D-02 Tol=  0.10000D-05 Strict=F.
 Ernie:  86 primitive shells out of 1081 were deleted.
 There are   780 symmetry adapted cartesian basis functions of A   symmetry.
 There are   737 symmetry adapted basis functions of A   symmetry.
   737 basis functions,  1608 primitive gaussians,   780 cartesian basis functions
   154 alpha electrons      154 beta electrons
       nuclear repulsion energy      5657.5880160993 Hartrees.
 IExCor= 4639 DFT=T Ex+Corr=wB97XD ExCW=0 ScaHFX=  1.000000
 ScaDFX=  1.000000  1.000000  1.000000  1.000000 ScalE2=  1.000000  1.000000
 IRadAn=      5 IRanWt=     -1 IRanGd=            0 ICorTp=0 IEmpDi=121
 HFx  wShort=  0.000000 wLong=  0.200000 cFull=  0.222036 cShort=  0.000000 cLong=  0.777964
 DFx  wShort=  0.000000 wLong=  0.200000 cFull=  0.000000 cShort=  0.000000 cLong=  1.000000
 NAtoms=   70 NActive=   70 NUniq=   70 SFac= 1.00D+00 NAtFMM=   60 NAOKFM=T Big=T
 Integral buffers will be    131072 words long.
 Raffenetti 2 integral format.
 Two-electron integral symmetry is turned on.
 R6Disp:  Grimme-D2 Dispersion energy=       -0.0830496706 Hartrees.
 Nuclear repulsion after empirical dispersion term =     5657.5049664287 Hartrees.
 Leave Link  301 at Wed Jan 17 21:11:22 2018, MaxMem=  4294967296 cpu:               2.1 elap:               0.1
 (Enter /share/apps/g16/l302.exe)
 NPDir=0 NMtPBC=     1 NCelOv=     1 NCel=       1 NClECP=     1 NCelD=      1
         NCelK=      1 NCelE2=     1 NClLst=     1 CellRange=     0.0.
 One-electron integrals computed using PRISM.
 One-electron integral symmetry used in STVInt
 NBasis=   737 RedAO= T EigKep=  6.12D-04  NBF=   737
 NBsUse=   737 1.00D-06 EigRej= -1.00D+00 NBFU=   737
 Precomputing XC quadrature grid using
 IXCGrd= 4 IRadAn=           5 IRanWt=          -1 IRanGd=           0 AccXCQ= 0.00D+00.
 Generated NRdTot=       0 NPtTot=           0 NUsed=           0 NTot=          32
 NSgBfM=   771   771   771   771   771 MxSgAt=    70 MxSgA2=    70.
 Leave Link  302 at Wed Jan 17 21:11:26 2018, MaxMem=  4294967296 cpu:             134.3 elap:               4.2
 (Enter /share/apps/g16/l303.exe)
 DipDrv:  MaxL=1.
 Leave Link  303 at Wed Jan 17 21:11:27 2018, MaxMem=  4294967296 cpu:              12.5 elap:               0.4
 (Enter /share/apps/g16/l401.exe)
 ExpMin= 1.22D-01 ExpMax= 1.17D+04 ExpMxC= 4.01D+02 IAcc=3 IRadAn=         5 AccDes= 0.00D+00
 Harris functional with IExCor= 4639 and IRadAn=       5 diagonalized for initial guess.
 HarFok:  IExCor= 4639 AccDes= 0.00D+00 IRadAn=         5 IDoV= 1 UseB2=F ITyADJ=14
 ICtDFT=  3500011 ScaDFX=  1.000000  1.000000  1.000000  1.000000
 FoFCou: FMM=F IPFlag=           0 FMFlag=      100000 FMFlg1=        2001
         NFxFlg=           0 DoJE=T BraDBF=F KetDBF=T FulRan=T
         wScrn=  0.000000 ICntrl=       500 IOpCl=  0 I1Cent=   200000004 NGrid=           0
         NMat0=    1 NMatS0=      1 NMatT0=    0 NMatD0=    1 NMtDS0=    0 NMtDT0=    0
 Petite list used in FoFCou.
 Harris En= -1963.84818623346    
 JPrj=0 DoOrth=F DoCkMO=F.
 Leave Link  401 at Wed Jan 17 21:11:40 2018, MaxMem=  4294967296 cpu:             417.9 elap:              13.1
 (Enter /share/apps/g16/l502.exe)
 Integral symmetry usage will be decided dynamically.
 Closed shell SCF:
 Using DIIS extrapolation, IDIIS=  1040.
 NGot=  4294967296 LenX=  4293717438 LenY=  4293108258
 Requested convergence on RMS density matrix=1.00D-08 within  20 cycles.
 Requested convergence on MAX density matrix=1.00D-06.
 Requested convergence on             energy=1.00D-06.
 No special actions if energy rises.
 Fock matrices will be formed incrementally for  20 cycles.
 Integral accuracy reduced to 1.0D-05 until final iterations.

 Cycle   1  Pass 0  IDiag  1:
 FoFJK:  IHMeth= 1 ICntrl=       0 DoSepK=T KAlg= 0 I1Cent=           0 FoldK=F
 IRaf=         1 NMat=       1 IRICut=       1 DoRegI=T DoRafI=F ISym2E= 0 IDoP0=0 IntGTp=1.
 FoFCou: FMM=T IPFlag=           0 FMFlag=      100000 FMFlg1=        2001
         NFxFlg=           0 DoJE=T BraDBF=F KetDBF=F FulRan=T
         wScrn=  0.000000 ICntrl=       500 IOpCl=  0 I1Cent=           0 NGrid=           0
         NMat0=    1 NMatS0=      1 NMatT0=    0 NMatD0=    1 NMtDS0=    0 NMtDT0=    0
 Symmetry not used in FoFCou.
 FMM levels:  10  Number of levels for PrismC:   9
 E= -2048.28646563167    
 DIIS: error= 1.79D-02 at cycle   1 NSaved=   1.
 NSaved= 1 IEnMin= 1 EnMin= -2048.28646563167     IErMin= 1 ErrMin= 1.79D-02
 ErrMax= 1.79D-02  0.00D+00 EMaxC= 1.00D-01 BMatC= 8.38D-01 BMatP= 8.38D-01
 IDIUse=3 WtCom= 8.21D-01 WtEn= 1.79D-01
 Coeff-Com:  0.100D+01
 Coeff-En:   0.100D+01
 Coeff:      0.100D+01
 Gap=     0.249 Goal=   None    Shift=    0.000
 GapD=    0.249 DampG=1.000 DampE=0.500 DampFc=0.5000 IDamp=-1.
 Damping current iteration by 5.00D-01
 RMSDP=1.64D-03 MaxDP=1.23D-01              OVMax= 2.00D-01

 Cycle   2  Pass 0  IDiag  1:
 RMSU=  8.17D-04    CP:  9.97D-01
 E= -2048.48091068822     Delta-E=       -0.194445056552 Rises=F Damp=T
 DIIS: error= 9.90D-03 at cycle   2 NSaved=   2.
 NSaved= 2 IEnMin= 2 EnMin= -2048.48091068822     IErMin= 2 ErrMin= 9.90D-03
 ErrMax= 9.90D-03  0.00D+00 EMaxC= 1.00D-01 BMatC= 1.48D-01 BMatP= 8.38D-01
 IDIUse=3 WtCom= 9.01D-01 WtEn= 9.90D-02
 Coeff-Com: -0.175D+00 0.118D+01
 Coeff-En:   0.000D+00 0.100D+01
 Coeff:     -0.158D+00 0.116D+01
 Gap=     0.326 Goal=   None    Shift=    0.000
 RMSDP=6.23D-04 MaxDP=3.50D-02 DE=-1.94D-01 OVMax= 1.56D-01

 Cycle   3  Pass 0  IDiag  1:
 RMSU=  6.16D-04    CP:  9.93D-01  1.10D+00
 E= -2048.65618815855     Delta-E=       -0.175277470324 Rises=F Damp=F
 DIIS: error= 5.94D-03 at cycle   3 NSaved=   3.
 NSaved= 3 IEnMin= 3 EnMin= -2048.65618815855     IErMin= 3 ErrMin= 5.94D-03
 ErrMax= 5.94D-03  0.00D+00 EMaxC= 1.00D-01 BMatC= 7.49D-02 BMatP= 1.48D-01
 IDIUse=3 WtCom= 9.41D-01 WtEn= 5.94D-02
 Coeff-Com: -0.235D+00 0.568D+00 0.668D+00
 Coeff-En:   0.000D+00 0.000D+00 0.100D+01
 Coeff:     -0.221D+00 0.534D+00 0.687D+00
 Gap=     0.274 Goal=   None    Shift=    0.000
 RMSDP=3.97D-04 MaxDP=3.03D-02 DE=-1.75D-01 OVMax= 6.82D-02

 Cycle   4  Pass 0  IDiag  1:
 RMSU=  2.19D-04    CP:  9.94D-01  1.41D+00  6.46D-01
 E= -2048.71302695037     Delta-E=       -0.056838791826 Rises=F Damp=F
 DIIS: error= 2.05D-03 at cycle   4 NSaved=   4.
 NSaved= 4 IEnMin= 4 EnMin= -2048.71302695037     IErMin= 4 ErrMin= 2.05D-03
 ErrMax= 2.05D-03  0.00D+00 EMaxC= 1.00D-01 BMatC= 1.01D-02 BMatP= 7.49D-02
 IDIUse=3 WtCom= 9.80D-01 WtEn= 2.05D-02
 Coeff-Com: -0.998D-01 0.194D+00 0.369D+00 0.537D+00
 Coeff-En:   0.000D+00 0.000D+00 0.631D-01 0.937D+00
 Coeff:     -0.977D-01 0.190D+00 0.363D+00 0.545D+00
 Gap=     0.276 Goal=   None    Shift=    0.000
 RMSDP=1.36D-04 MaxDP=1.07D-02 DE=-5.68D-02 OVMax= 1.49D-02

 Cycle   5  Pass 0  IDiag  1:
 RMSU=  6.36D-05    CP:  9.93D-01  1.38D+00  7.81D-01  6.22D-01
 E= -2048.72153655729     Delta-E=       -0.008509606917 Rises=F Damp=F
 DIIS: error= 4.44D-04 at cycle   5 NSaved=   5.
 NSaved= 5 IEnMin= 5 EnMin= -2048.72153655729     IErMin= 5 ErrMin= 4.44D-04
 ErrMax= 4.44D-04  0.00D+00 EMaxC= 1.00D-01 BMatC= 3.03D-04 BMatP= 1.01D-02
 IDIUse=3 WtCom= 9.96D-01 WtEn= 4.44D-03
 Coeff-Com: -0.270D-01 0.467D-01 0.120D+00 0.238D+00 0.622D+00
 Coeff-En:   0.000D+00 0.000D+00 0.000D+00 0.000D+00 0.100D+01
 Coeff:     -0.269D-01 0.465D-01 0.120D+00 0.237D+00 0.624D+00
 Gap=     0.276 Goal=   None    Shift=    0.000
 RMSDP=2.82D-05 MaxDP=1.55D-03 DE=-8.51D-03 OVMax= 3.45D-03

 Failed to achieve initial convergence to 1.0D-08 in  6 cycles.
 Switch to full accuracy anyway.
 Cycle   6  Pass 1  IDiag  1:
 E= -2048.72176741342     Delta-E=       -0.000230856132 Rises=F Damp=F
 DIIS: error= 2.54D-04 at cycle   1 NSaved=   1.
 NSaved= 1 IEnMin= 1 EnMin= -2048.72176741342     IErMin= 1 ErrMin= 2.54D-04
 ErrMax= 2.54D-04  0.00D+00 EMaxC= 1.00D-01 BMatC= 7.95D-05 BMatP= 7.95D-05
 IDIUse=3 WtCom= 9.97D-01 WtEn= 2.54D-03
 Coeff-Com:  0.100D+01
 Coeff-En:   0.100D+01
 Coeff:      0.100D+01
 Gap=     0.276 Goal=   None    Shift=    0.000
 RMSDP=2.82D-05 MaxDP=1.55D-03 DE=-2.31D-04 OVMax= 2.72D-03

 Cycle   7  Pass 1  IDiag  1:
 RMSU=  1.16D-04    CP:  1.00D+00
 E= -2048.72181999877     Delta-E=       -0.000052585347 Rises=F Damp=F
 DIIS: error= 1.69D-04 at cycle   2 NSaved=   2.
 NSaved= 2 IEnMin= 2 EnMin= -2048.72181999877     IErMin= 2 ErrMin= 1.69D-04
 ErrMax= 1.69D-04  0.00D+00 EMaxC= 1.00D-01 BMatC= 4.99D-05 BMatP= 7.95D-05
 IDIUse=3 WtCom= 9.98D-01 WtEn= 1.69D-03
 Coeff-Com:  0.422D+00 0.578D+00
 Coeff-En:   0.722D-01 0.928D+00
 Coeff:      0.422D+00 0.578D+00
 Gap=     0.276 Goal=   None    Shift=    0.000
 RMSDP=1.28D-05 MaxDP=9.11D-04 DE=-5.26D-05 OVMax= 1.90D-03

 Cycle   8  Pass 1  IDiag  1:
 RMSU=  1.26D-05    CP:  1.00D+00  1.02D+00
 E= -2048.72185799174     Delta-E=       -0.000037992975 Rises=F Damp=F
 DIIS: error= 7.69D-05 at cycle   3 NSaved=   3.
 NSaved= 3 IEnMin= 3 EnMin= -2048.72185799174     IErMin= 3 ErrMin= 7.69D-05
 ErrMax= 7.69D-05  0.00D+00 EMaxC= 1.00D-01 BMatC= 1.04D-05 BMatP= 4.99D-05
 IDIUse=1 WtCom= 1.00D+00 WtEn= 0.00D+00
 Coeff-Com: -0.167D-01 0.300D+00 0.717D+00
 Coeff:     -0.167D-01 0.300D+00 0.717D+00
 Gap=     0.276 Goal=   None    Shift=    0.000
 RMSDP=6.04D-06 MaxDP=3.45D-04 DE=-3.80D-05 OVMax= 7.12D-04

 Cycle   9  Pass 1  IDiag  1:
 RMSU=  4.03D-06    CP:  1.00D+00  1.05D+00  7.62D-01
 E= -2048.72186837636     Delta-E=       -0.000010384616 Rises=F Damp=F
 DIIS: error= 2.22D-05 at cycle   4 NSaved=   4.
 NSaved= 4 IEnMin= 4 EnMin= -2048.72186837636     IErMin= 4 ErrMin= 2.22D-05
 ErrMax= 2.22D-05  0.00D+00 EMaxC= 1.00D-01 BMatC= 6.38D-07 BMatP= 1.04D-05
 IDIUse=1 WtCom= 1.00D+00 WtEn= 0.00D+00
 Coeff-Com: -0.317D-01 0.890D-01 0.290D+00 0.652D+00
 Coeff:     -0.317D-01 0.890D-01 0.290D+00 0.652D+00
 Gap=     0.276 Goal=   None    Shift=    0.000
 RMSDP=1.55D-06 MaxDP=9.42D-05 DE=-1.04D-05 OVMax= 4.65D-04

 Cycle  10  Pass 1  IDiag  1:
 RMSU=  1.41D-06    CP:  1.00D+00  1.05D+00  8.01D-01  1.07D+00
 E= -2048.72186933888     Delta-E=       -0.000000962525 Rises=F Damp=F
 DIIS: error= 1.08D-05 at cycle   5 NSaved=   5.
 NSaved= 5 IEnMin= 5 EnMin= -2048.72186933888     IErMin= 5 ErrMin= 1.08D-05
 ErrMax= 1.08D-05  0.00D+00 EMaxC= 1.00D-01 BMatC= 1.31D-07 BMatP= 6.38D-07
 IDIUse=1 WtCom= 1.00D+00 WtEn= 0.00D+00
 Coeff-Com: -0.532D-02-0.461D-01-0.961D-01 0.210D+00 0.937D+00
 Coeff:     -0.532D-02-0.461D-01-0.961D-01 0.210D+00 0.937D+00
 Gap=     0.276 Goal=   None    Shift=    0.000
 RMSDP=1.20D-06 MaxDP=6.16D-05 DE=-9.63D-07 OVMax= 2.83D-04

 Cycle  11  Pass 1  IDiag  1:
 RMSU=  5.12D-07    CP:  1.00D+00  1.05D+00  8.11D-01  1.33D+00  1.17D+00
 E= -2048.72186961790     Delta-E=       -0.000000279013 Rises=F Damp=F
 DIIS: error= 5.43D-06 at cycle   6 NSaved=   6.
 NSaved= 6 IEnMin= 6 EnMin= -2048.72186961790     IErMin= 6 ErrMin= 5.43D-06
 ErrMax= 5.43D-06  0.00D+00 EMaxC= 1.00D-01 BMatC= 3.52D-08 BMatP= 1.31D-07
 IDIUse=1 WtCom= 1.00D+00 WtEn= 0.00D+00
 Coeff-Com:  0.475D-02-0.449D-01-0.120D+00-0.153D-01 0.515D+00 0.660D+00
 Coeff:      0.475D-02-0.449D-01-0.120D+00-0.153D-01 0.515D+00 0.660D+00
 Gap=     0.276 Goal=   None    Shift=    0.000
 RMSDP=4.60D-07 MaxDP=2.98D-05 DE=-2.79D-07 OVMax= 1.40D-04

 Cycle  12  Pass 1  IDiag  1:
 RMSU=  2.10D-07    CP:  1.00D+00  1.05D+00  8.14D-01  1.42D+00  1.32D+00
                    CP:  9.44D-01
 E= -2048.72186967091     Delta-E=       -0.000000053013 Rises=F Damp=F
 DIIS: error= 1.05D-06 at cycle   7 NSaved=   7.
 NSaved= 7 IEnMin= 7 EnMin= -2048.72186967091     IErMin= 7 ErrMin= 1.05D-06
 ErrMax= 1.05D-06  0.00D+00 EMaxC= 1.00D-01 BMatC= 8.69D-10 BMatP= 3.52D-08
 IDIUse=1 WtCom= 1.00D+00 WtEn= 0.00D+00
 Coeff-Com:  0.134D-02-0.925D-02-0.261D-01-0.119D-01 0.818D-01 0.155D+00
 Coeff-Com:  0.809D+00
 Coeff:      0.134D-02-0.925D-02-0.261D-01-0.119D-01 0.818D-01 0.155D+00
 Coeff:      0.809D+00
 Gap=     0.276 Goal=   None    Shift=    0.000
 RMSDP=8.78D-08 MaxDP=4.84D-06 DE=-5.30D-08 OVMax= 2.71D-05

 Cycle  13  Pass 1  IDiag  1:
 RMSU=  5.73D-08    CP:  1.00D+00  1.05D+00  8.14D-01  1.43D+00  1.34D+00
                    CP:  1.02D+00  1.12D+00
 E= -2048.72186967304     Delta-E=       -0.000000002132 Rises=F Damp=F
 DIIS: error= 5.46D-07 at cycle   8 NSaved=   8.
 NSaved= 8 IEnMin= 8 EnMin= -2048.72186967304     IErMin= 8 ErrMin= 5.46D-07
 ErrMax= 5.46D-07  0.00D+00 EMaxC= 1.00D-01 BMatC= 3.88D-10 BMatP= 8.69D-10
 IDIUse=1 WtCom= 1.00D+00 WtEn= 0.00D+00
 Coeff-Com: -0.725D-03 0.862D-02 0.221D-01-0.146D-03-0.109D+00-0.119D+00
 Coeff-Com:  0.400D+00 0.798D+00
 Coeff:     -0.725D-03 0.862D-02 0.221D-01-0.146D-03-0.109D+00-0.119D+00
 Coeff:      0.400D+00 0.798D+00
 Gap=     0.276 Goal=   None    Shift=    0.000
 RMSDP=5.73D-08 MaxDP=3.45D-06 DE=-2.13D-09 OVMax= 1.29D-05

 Cycle  14  Pass 1  IDiag  1:
 RMSU=  3.13D-08    CP:  1.00D+00  1.05D+00  8.13D-01  1.43D+00  1.35D+00
                    CP:  1.07D+00  1.29D+00  1.05D+00
 E= -2048.72186967355     Delta-E=       -0.000000000509 Rises=F Damp=F
 DIIS: error= 1.39D-07 at cycle   9 NSaved=   9.
 NSaved= 9 IEnMin= 9 EnMin= -2048.72186967355     IErMin= 9 ErrMin= 1.39D-07
 ErrMax= 1.39D-07  0.00D+00 EMaxC= 1.00D-01 BMatC= 3.48D-11 BMatP= 3.88D-10
 IDIUse=1 WtCom= 1.00D+00 WtEn= 0.00D+00
 Coeff-Com: -0.439D-03 0.454D-02 0.119D-01 0.137D-02-0.520D-01-0.651D-01
 Coeff-Com:  0.895D-01 0.316D+00 0.694D+00
 Coeff:     -0.439D-03 0.454D-02 0.119D-01 0.137D-02-0.520D-01-0.651D-01
 Coeff:      0.895D-01 0.316D+00 0.694D+00
 Gap=     0.276 Goal=   None    Shift=    0.000
 RMSDP=1.43D-08 MaxDP=6.34D-07 DE=-5.09D-10 OVMax= 3.30D-06

 Cycle  15  Pass 1  IDiag  1:
 RMSU=  1.03D-08    CP:  1.00D+00  1.05D+00  8.13D-01  1.43D+00  1.35D+00
                    CP:  1.07D+00  1.32D+00  1.18D+00  1.09D+00
 E= -2048.72186967341     Delta-E=        0.000000000139 Rises=F Damp=F
 DIIS: error= 6.95D-08 at cycle  10 NSaved=  10.
 NSaved=10 IEnMin= 9 EnMin= -2048.72186967355     IErMin=10 ErrMin= 6.95D-08
 ErrMax= 6.95D-08  0.00D+00 EMaxC= 1.00D-01 BMatC= 6.03D-12 BMatP= 3.48D-11
 IDIUse=1 WtCom= 1.00D+00 WtEn= 0.00D+00
 Coeff-Com: -0.608D-05-0.176D-03-0.371D-03 0.197D-03 0.372D-02 0.560D-03
 Coeff-Com: -0.509D-01-0.618D-01 0.250D+00 0.859D+00
 Coeff:     -0.608D-05-0.176D-03-0.371D-03 0.197D-03 0.372D-02 0.560D-03
 Coeff:     -0.509D-01-0.618D-01 0.250D+00 0.859D+00
 Gap=     0.276 Goal=   None    Shift=    0.000
 RMSDP=7.85D-09 MaxDP=3.67D-07 DE= 1.39D-10 OVMax= 1.83D-06

 SCF Done:  E(RwB97XD) =  -2048.72186967     A.U. after   15 cycles
            NFock= 15  Conv=0.79D-08     -V/T= 2.0053
 KE= 2.037996575156D+03 PE=-1.609552511978D+04 EE= 6.351301708518D+03
 Leave Link  502 at Wed Jan 17 21:24:23 2018, MaxMem=  4294967296 cpu:           23561.3 elap:             762.6
 (Enter /share/apps/g16/l601.exe)
 Copying SCF densities to generalized density rwf, IOpCl= 0 IROHF=0.

 **********************************************************************

            Population analysis using the SCF density.

 **********************************************************************

 Orbital symmetries:
       Occupied  (A) (A) (A) (A) (A) (A) (A) (A) (A) (A) (A) (A)
                 (A) (A) (A) (A) (A) (A) (A) (A) (A) (A) (A) (A)
                 (A) (A) (A) (A) (A) (A) (A) (A) (A) (A) (A) (A)
                 (A) (A) (A) (A) (A) (A) (A) (A) (A) (A) (A) (A)
                 (A) (A) (A) (A) (A) (A) (A) (A) (A) (A) (A) (A)
                 (A) (A) (A) (A) (A) (A) (A) (A) (A) (A) (A) (A)
                 (A) (A) (A) (A) (A) (A) (A) (A) (A) (A) (A) (A)
                 (A) (A) (A) (A) (A) (A) (A) (A) (A) (A) (A) (A)
                 (A) (A) (A) (A) (A) (A) (A) (A) (A) (A) (A) (A)
                 (A) (A) (A) (A) (A) (A) (A) (A) (A) (A) (A) (A)
                 (A) (A) (A) (A) (A) (A) (A) (A) (A) (A) (A) (A)
                 (A) (A) (A) (A) (A) (A) (A) (A) (A) (A) (A) (A)
                 (A) (A) (A) (A) (A) (A) (A) (A) (A) (A)
       Virtual   (A) (A) (A) (A) (A) (A) (A) (A) (A) (A) (A) (A)
                 (A) (A) (A) (A) (A) (A) (A) (A) (A) (A) (A) (A)
                 (A) (A) (A) (A) (A) (A) (A) (A) (A) (A) (A) (A)
                 (A) (A) (A) (A) (A) (A) (A) (A) (A) (A) (A) (A)
                 (A) (A) (A) (A) (A) (A) (A) (A) (A) (A) (A) (A)
                 (A) (A) (A) (A) (A) (A) (A) (A) (A) (A) (A) (A)
                 (A) (A) (A) (A) (A) (A) (A) (A) (A) (A) (A) (A)
                 (A) (A) (A) (A) (A) (A) (A) (A) (A) (A) (A) (A)
                 (A) (A) (A) (A) (A) (A) (A) (A) (A) (A) (A) (A)
                 (A) (A) (A) (A) (A) (A) (A) (A) (A) (A) (A) (A)
                 (A) (A) (A) (A) (A) (A) (A) (A) (A) (A) (A) (A)
                 (A) (A) (A) (A) (A) (A) (A) (A) (A) (A) (A) (A)
                 (A) (A) (A) (A) (A) (A) (A) (A) (A) (A) (A) (A)
                 (A) (A) (A) (A) (A) (A) (A) (A) (A) (A) (A) (A)
                 (A) (A) (A) (A) (A) (A) (A) (A) (A) (A) (A) (A)
                 (A) (A) (A) (A) (A) (A) (A) (A) (A) (A) (A) (A)
                 (A) (A) (A) (A) (A) (A) (A) (A) (A) (A) (A) (A)
                 (A) (A) (A) (A) (A) (A) (A) (A) (A) (A) (A) (A)
                 (A) (A) (A) (A) (A) (A) (A) (A) (A) (A) (A) (A)
                 (A) (A) (A) (A) (A) (A) (A) (A) (A) (A) (A) (A)
                 (A) (A) (A) (A) (A) (A) (A) (A) (A) (A) (A) (A)
                 (A) (A) (A) (A) (A) (A) (A) (A) (A) (A) (A) (A)
                 (A) (A) (A) (A) (A) (A) (A) (A) (A) (A) (A) (A)
                 (A) (A) (A) (A) (A) (A) (A) (A) (A) (A) (A) (A)
                 (A) (A) (A) (A) (A) (A) (A) (A) (A) (A) (A) (A)
                 (A) (A) (A) (A) (A) (A) (A) (A) (A) (A) (A) (A)
                 (A) (A) (A) (A) (A) (A) (A) (A) (A) (A) (A) (A)
                 (A) (A) (A) (A) (A) (A) (A) (A) (A) (A) (A) (A)
                 (A) (A) (A) (A) (A) (A) (A) (A) (A) (A) (A) (A)
                 (A) (A) (A) (A) (A) (A) (A) (A) (A) (A) (A) (A)
                 (A) (A) (A) (A) (A) (A) (A) (A) (A) (A) (A) (A)
                 (A) (A) (A) (A) (A) (A) (A) (A) (A) (A) (A) (A)
                 (A) (A) (A) (A) (A) (A) (A) (A) (A) (A) (A) (A)
                 (A) (A) (A) (A) (A) (A) (A) (A) (A) (A) (A) (A)
                 (A) (A) (A) (A) (A) (A) (A) (A) (A) (A) (A) (A)
                 (A) (A) (A) (A) (A) (A) (A) (A) (A) (A) (A) (A)
                 (A) (A) (A) (A) (A) (A) (A) (A) (A) (A) (A) (A)
                 (A) (A) (A) (A) (A) (A) (A) (A) (A) (A) (A) (A)
                 (A) (A) (A) (A) (A) (A) (A) (A) (A) (A) (A) (A)
                 (A) (A) (A) (A) (A) (A) (A) (A) (A) (A) (A) (A)
                 (A) (A) (A) (A) (A) (A) (A) (A) (A) (A) (A) (A)
                 (A) (A) (A) (A) (A) (A) (A) (A) (A) (A) (A) (A)
                 (A) (A) (A) (A) (A) (A) (A) (A) (A) (A) (A) (A)
                 (A) (A) (A) (A) (A) (A) (A) (A) (A) (A) (A) (A)
                 (A) (A) (A) (A) (A) (A) (A) (A) (A) (A) (A) (A)
                 (A) (A) (A) (A) (A) (A) (A) (A) (A) (A) (A) (A)
                 (A) (A) (A) (A) (A) (A) (A) (A) (A) (A) (A) (A)
                 (A) (A) (A) (A) (A) (A) (A) (A) (A) (A) (A) (A)
                 (A) (A) (A) (A) (A) (A) (A)
 The electronic state is 1-A.
 Alpha  occ. eigenvalues --  -19.25043 -19.21436 -19.20473 -14.52642 -14.51790
 Alpha  occ. eigenvalues --  -14.49430 -14.48859 -14.47805 -14.47221 -14.46540
 Alpha  occ. eigenvalues --  -14.46534 -14.45370 -14.44231 -14.44180 -14.43073
 Alpha  occ. eigenvalues --  -14.41850 -14.41690 -14.41370 -14.41013 -14.40966
 Alpha  occ. eigenvalues --  -10.44726 -10.40900 -10.39748 -10.39530 -10.38102
 Alpha  occ. eigenvalues --  -10.38008 -10.37182 -10.37087 -10.36194 -10.35824
 Alpha  occ. eigenvalues --  -10.34559 -10.34494 -10.34250 -10.34208 -10.33967
 Alpha  occ. eigenvalues --  -10.33765 -10.33505 -10.32514 -10.32093 -10.30811
 Alpha  occ. eigenvalues --  -10.30401 -10.29065 -10.28088  -1.18818  -1.15417
 Alpha  occ. eigenvalues --   -1.13096  -1.12440  -1.11991  -1.10575  -1.09190
 Alpha  occ. eigenvalues --   -1.08703  -1.08406  -1.05786  -1.04678  -1.01934
 Alpha  occ. eigenvalues --   -1.01190  -1.01147  -0.99565  -0.98379  -0.97744
 Alpha  occ. eigenvalues --   -0.96791  -0.96552  -0.93453  -0.90380  -0.87845
 Alpha  occ. eigenvalues --   -0.86449  -0.85023  -0.83970  -0.83476  -0.83057
 Alpha  occ. eigenvalues --   -0.82306  -0.78269  -0.77022  -0.74857  -0.74572
 Alpha  occ. eigenvalues --   -0.73674  -0.73422  -0.72786  -0.71740  -0.70427
 Alpha  occ. eigenvalues --   -0.67372  -0.66987  -0.66779  -0.66087  -0.64370
 Alpha  occ. eigenvalues --   -0.64255  -0.63792  -0.63423  -0.62489  -0.62461
 Alpha  occ. eigenvalues --   -0.61652  -0.61157  -0.60540  -0.59636  -0.59366
 Alpha  occ. eigenvalues --   -0.59049  -0.58412  -0.58210  -0.57332  -0.56332
 Alpha  occ. eigenvalues --   -0.55641  -0.55563  -0.55318  -0.54441  -0.54134
 Alpha  occ. eigenvalues --   -0.53946  -0.53863  -0.53372  -0.52996  -0.52802
 Alpha  occ. eigenvalues --   -0.52508  -0.52272  -0.51351  -0.51211  -0.50845
 Alpha  occ. eigenvalues --   -0.50169  -0.49883  -0.49548  -0.49022  -0.48808
 Alpha  occ. eigenvalues --   -0.48569  -0.48463  -0.48121  -0.47840  -0.47488
 Alpha  occ. eigenvalues --   -0.47070  -0.46123  -0.45053  -0.44326  -0.42917
 Alpha  occ. eigenvalues --   -0.41595  -0.40733  -0.38813  -0.37756  -0.37712
 Alpha  occ. eigenvalues --   -0.37489  -0.37025  -0.36604  -0.36022  -0.34877
 Alpha  occ. eigenvalues --   -0.34624  -0.34374  -0.33900  -0.33637  -0.32810
 Alpha  occ. eigenvalues --   -0.32443  -0.32129  -0.31779  -0.31400  -0.31225
 Alpha  occ. eigenvalues --   -0.30896  -0.29694  -0.27200  -0.24535
 Alpha virt. eigenvalues --    0.03084   0.04533   0.06814   0.07044   0.08539
 Alpha virt. eigenvalues --    0.09236   0.10014   0.10308   0.10918   0.12631
 Alpha virt. eigenvalues --    0.12655   0.13685   0.14163   0.14723   0.14854
 Alpha virt. eigenvalues --    0.15282   0.16171   0.17750   0.18071   0.18151
 Alpha virt. eigenvalues --    0.18318   0.19445   0.19605   0.20133   0.20376
 Alpha virt. eigenvalues --    0.20698   0.21097   0.21220   0.21775   0.21826
 Alpha virt. eigenvalues --    0.22331   0.22690   0.22766   0.23530   0.23787
 Alpha virt. eigenvalues --    0.24598   0.24710   0.25073   0.25315   0.25639
 Alpha virt. eigenvalues --    0.27610   0.27692   0.28103   0.28406   0.28731
 Alpha virt. eigenvalues --    0.29008   0.29322   0.29674   0.30752   0.30974
 Alpha virt. eigenvalues --    0.31189   0.31877   0.32410   0.33162   0.33285
 Alpha virt. eigenvalues --    0.34228   0.34757   0.35021   0.35759   0.36588
 Alpha virt. eigenvalues --    0.36695   0.37375   0.37767   0.38068   0.38952
 Alpha virt. eigenvalues --    0.39783   0.40104   0.40552   0.41501   0.42296
 Alpha virt. eigenvalues --    0.42648   0.43031   0.43218   0.44109   0.44270
 Alpha virt. eigenvalues --    0.45253   0.45802   0.46450   0.46786   0.47336
 Alpha virt. eigenvalues --    0.47662   0.47864   0.48491   0.49085   0.49241
 Alpha virt. eigenvalues --    0.50118   0.50602   0.50974   0.51140   0.51821
 Alpha virt. eigenvalues --    0.52197   0.52469   0.52712   0.52852   0.53631
 Alpha virt. eigenvalues --    0.54035   0.54750   0.54859   0.55674   0.55936
 Alpha virt. eigenvalues --    0.56441   0.56785   0.57033   0.57160   0.57620
 Alpha virt. eigenvalues --    0.58062   0.58969   0.59306   0.59420   0.59891
 Alpha virt. eigenvalues --    0.60209   0.60891   0.61553   0.61875   0.62054
 Alpha virt. eigenvalues --    0.62547   0.63100   0.63488   0.63552   0.64611
 Alpha virt. eigenvalues --    0.64778   0.65145   0.65758   0.65995   0.66096
 Alpha virt. eigenvalues --    0.66653   0.66966   0.67432   0.67970   0.68557
 Alpha virt. eigenvalues --    0.68845   0.69631   0.69873   0.70474   0.70819
 Alpha virt. eigenvalues --    0.71369   0.71928   0.72089   0.72418   0.72845
 Alpha virt. eigenvalues --    0.73133   0.73690   0.73811   0.74364   0.74524
 Alpha virt. eigenvalues --    0.74910   0.75446   0.75501   0.75917   0.76032
 Alpha virt. eigenvalues --    0.76625   0.76818   0.77163   0.78105   0.78486
 Alpha virt. eigenvalues --    0.78816   0.78922   0.79209   0.79702   0.79863
 Alpha virt. eigenvalues --    0.79996   0.80427   0.81240   0.81711   0.81925
 Alpha virt. eigenvalues --    0.82354   0.82676   0.82853   0.83276   0.83684
 Alpha virt. eigenvalues --    0.84630   0.85431   0.85500   0.85799   0.86147
 Alpha virt. eigenvalues --    0.86694   0.86960   0.88071   0.88269   0.88507
 Alpha virt. eigenvalues --    0.88966   0.89136   0.89620   0.90111   0.90532
 Alpha virt. eigenvalues --    0.91172   0.91458   0.91587   0.91953   0.92579
 Alpha virt. eigenvalues --    0.94099   0.94305   0.94926   0.95045   0.95458
 Alpha virt. eigenvalues --    0.95690   0.96138   0.96678   0.96916   0.97597
 Alpha virt. eigenvalues --    0.98295   0.99049   0.99105   0.99716   1.00348
 Alpha virt. eigenvalues --    1.00564   1.01258   1.01567   1.02040   1.02550
 Alpha virt. eigenvalues --    1.02850   1.03573   1.03873   1.04335   1.04438
 Alpha virt. eigenvalues --    1.05272   1.05499   1.05984   1.06246   1.07054
 Alpha virt. eigenvalues --    1.07481   1.08386   1.08918   1.09220   1.09949
 Alpha virt. eigenvalues --    1.10107   1.11316   1.11419   1.12138   1.12403
 Alpha virt. eigenvalues --    1.12657   1.13260   1.13581   1.13887   1.14435
 Alpha virt. eigenvalues --    1.15335   1.15994   1.16076   1.16511   1.16846
 Alpha virt. eigenvalues --    1.17276   1.17692   1.18413   1.19071   1.19354
 Alpha virt. eigenvalues --    1.19868   1.20273   1.20875   1.21108   1.21464
 Alpha virt. eigenvalues --    1.21882   1.22564   1.22649   1.23012   1.23460
 Alpha virt. eigenvalues --    1.23600   1.24172   1.24516   1.25005   1.25126
 Alpha virt. eigenvalues --    1.25249   1.25829   1.26499   1.26815   1.28011
 Alpha virt. eigenvalues --    1.28240   1.28891   1.29080   1.29691   1.30072
 Alpha virt. eigenvalues --    1.30687   1.31554   1.32230   1.32314   1.33080
 Alpha virt. eigenvalues --    1.33622   1.34649   1.35032   1.35157   1.35881
 Alpha virt. eigenvalues --    1.36182   1.36637   1.37009   1.38298   1.39029
 Alpha virt. eigenvalues --    1.39393   1.39541   1.40035   1.41072   1.41821
 Alpha virt. eigenvalues --    1.42694   1.43216   1.44213   1.44599   1.45617
 Alpha virt. eigenvalues --    1.46689   1.47095   1.47238   1.48314   1.48849
 Alpha virt. eigenvalues --    1.49790   1.49929   1.51313   1.52161   1.52313
 Alpha virt. eigenvalues --    1.53429   1.54249   1.54738   1.55395   1.56933
 Alpha virt. eigenvalues --    1.57354   1.57891   1.58235   1.59045   1.59888
 Alpha virt. eigenvalues --    1.60330   1.60913   1.61766   1.62606   1.62710
 Alpha virt. eigenvalues --    1.63322   1.64655   1.64926   1.65411   1.66015
 Alpha virt. eigenvalues --    1.66595   1.67037   1.67317   1.67710   1.68275
 Alpha virt. eigenvalues --    1.68709   1.69324   1.69593   1.69929   1.70465
 Alpha virt. eigenvalues --    1.70718   1.71033   1.71267   1.72208   1.72305
 Alpha virt. eigenvalues --    1.73006   1.73249   1.73732   1.74697   1.74775
 Alpha virt. eigenvalues --    1.75110   1.75728   1.76223   1.76574   1.77342
 Alpha virt. eigenvalues --    1.77539   1.77764   1.77864   1.78543   1.78976
 Alpha virt. eigenvalues --    1.79496   1.79634   1.80134   1.80639   1.80698
 Alpha virt. eigenvalues --    1.81333   1.81681   1.82080   1.82623   1.82937
 Alpha virt. eigenvalues --    1.83513   1.83761   1.84469   1.84919   1.85208
 Alpha virt. eigenvalues --    1.85342   1.86067   1.86687   1.87131   1.87516
 Alpha virt. eigenvalues --    1.87694   1.88025   1.88174   1.88994   1.89403
 Alpha virt. eigenvalues --    1.89566   1.89761   1.90195   1.90742   1.91154
 Alpha virt. eigenvalues --    1.92063   1.92749   1.93054   1.93317   1.93952
 Alpha virt. eigenvalues --    1.94249   1.94689   1.95222   1.95908   1.96683
 Alpha virt. eigenvalues --    1.97331   1.98394   1.99205   1.99644   2.00329
 Alpha virt. eigenvalues --    2.00823   2.01608   2.02774   2.03201   2.03930
 Alpha virt. eigenvalues --    2.04151   2.05401   2.05769   2.06434   2.06970
 Alpha virt. eigenvalues --    2.08103   2.08407   2.08790   2.09490   2.10163
 Alpha virt. eigenvalues --    2.10576   2.11200   2.11823   2.12091   2.12477
 Alpha virt. eigenvalues --    2.13105   2.14362   2.14546   2.15189   2.15868
 Alpha virt. eigenvalues --    2.16734   2.17097   2.17466   2.18986   2.20172
 Alpha virt. eigenvalues --    2.20356   2.21107   2.21719   2.22025   2.22612
 Alpha virt. eigenvalues --    2.23439   2.23710   2.24718   2.25488   2.26214
 Alpha virt. eigenvalues --    2.26564   2.27362   2.27828   2.28539   2.28805
 Alpha virt. eigenvalues --    2.29174   2.29445   2.30164   2.30325   2.30561
 Alpha virt. eigenvalues --    2.31851   2.32387   2.32977   2.33297   2.33936
 Alpha virt. eigenvalues --    2.34715   2.35388   2.35455   2.36091   2.36698
 Alpha virt. eigenvalues --    2.37230   2.37693   2.38566   2.38854   2.39159
 Alpha virt. eigenvalues --    2.40114   2.40228   2.40942   2.41525   2.41977
 Alpha virt. eigenvalues --    2.43051   2.43724   2.44119   2.44448   2.45203
 Alpha virt. eigenvalues --    2.46016   2.46367   2.47138   2.47546   2.48684
 Alpha virt. eigenvalues --    2.49610   2.50428   2.50944   2.52034   2.52679
 Alpha virt. eigenvalues --    2.53615   2.54333   2.56005   2.57023   2.57751
 Alpha virt. eigenvalues --    2.58716   2.59083   2.60342   2.61652   2.61873
 Alpha virt. eigenvalues --    2.62509   2.63182   2.64247   2.64765   2.65716
 Alpha virt. eigenvalues --    2.66012   2.66824   2.67278   2.67568   2.68115
 Alpha virt. eigenvalues --    2.68253   2.68913   2.69627   2.70784   2.71145
 Alpha virt. eigenvalues --    2.71432   2.72204   2.72654   2.73068   2.74238
 Alpha virt. eigenvalues --    2.74890   2.76000   2.76286   2.77085   2.78131
 Alpha virt. eigenvalues --    2.78834   2.79194   2.80142   2.80532   2.81164
 Alpha virt. eigenvalues --    2.81408   2.81980   2.82278   2.82401   2.82937
 Alpha virt. eigenvalues --    2.83466   2.83796   2.85303   2.85846   2.86271
 Alpha virt. eigenvalues --    2.86849   2.87176   2.87652   2.88195   2.88966
 Alpha virt. eigenvalues --    2.89792   2.90625   2.91968   2.94017   2.95051
 Alpha virt. eigenvalues --    2.96267   2.97962   2.99968   3.00384   3.00758
 Alpha virt. eigenvalues --    3.02435   3.02840   3.03981   3.05252   3.06873
 Alpha virt. eigenvalues --    3.08713   3.10291   3.10837   3.13146   3.15158
 Alpha virt. eigenvalues --    3.16114   3.16689   3.17232   3.18987   3.21113
 Alpha virt. eigenvalues --    3.21971   3.23662   3.24369   3.24672   3.28406
 Alpha virt. eigenvalues --    3.45036   3.47370   3.48233   3.49426   3.51475
 Alpha virt. eigenvalues --    3.53025   3.55364   3.56779   3.58860   3.60747
 Alpha virt. eigenvalues --    3.64486   3.71484   3.75976
          Condensed to atoms (all electrons):
 Mulliken charges:
               1
     1  N   -0.304082
     2  C    0.197997
     3  C    0.069780
     4  N   -0.241556
     5  C    0.123241
     6  H    0.024842
     7  N   -0.281856
     8  C    0.138429
     9  H    0.004148
    10  N   -0.267603
    11  C    0.213408
    12  C    0.071993
    13  N   -0.043233
    14  H    0.111974
    15  H    0.086133
    16  H    0.024327
    17  H    0.036640
    18  H    0.025796
    19  N   -0.287068
    20  C    0.226064
    21  C    0.205815
    22  N   -0.111576
    23  H    0.118273
    24  H    0.118002
    25  N   -0.279595
    26  C    0.203405
    27  N   -0.120740
    28  H    0.115223
    29  C    0.169374
    30  O   -0.322927
    31  C    0.004698
    32  N   -0.213412
    33  C    0.114161
    34  H    0.018021
    35  H   -0.040925
    36  H    0.037592
    37  H    0.023904
    38  H    0.011017
    39  H    0.053621
    40  H    0.081036
    41  H    0.024383
    42  C   -0.094313
    43  O   -0.269428
    44  C    0.162254
    45  H    0.129379
    46  N   -0.106239
    47  O   -0.341486
    48  C    0.326443
    49  H    0.042350
    50  C    0.164464
    51  C    0.057303
    52  N   -0.269531
    53  H    0.028463
    54  H    0.040504
    55  H    0.025330
    56  H    0.123646
    57  H    0.119783
    58  N   -0.053274
    59  C    0.098107
    60  C    0.199863
    61  N   -0.259619
    62  H    0.015372
    63  C    0.163725
    64  N   -0.294497
    65  H    0.036252
    66  C    0.121889
    67  N   -0.248555
    68  C    0.050695
    69  C    0.203172
    70  N   -0.310778
 Sum of Mulliken charges =  -0.00000
 Mulliken charges with hydrogens summed into heavy atoms:
               1
     1  N   -0.304082
     2  C    0.284761
     3  C    0.069780
     4  N   -0.241556
     5  C    0.148084
     7  N   -0.281856
     8  C    0.142578
    10  N   -0.267603
    11  C    0.213408
    12  C    0.071993
    13  N    0.154874
    19  N   -0.287068
    20  C    0.226064
    21  C    0.226385
    22  N    0.124700
    25  N   -0.279595
    26  C    0.203405
    27  N   -0.005517
    29  C    0.169374
    30  O   -0.322927
    31  C    0.004698
    32  N   -0.213412
    33  C    0.132183
    42  C   -0.069930
    43  O   -0.269428
    44  C    0.162254
    46  N    0.023140
    47  O   -0.341486
    48  C    0.326443
    50  C    0.206815
    51  C    0.202977
    52  N   -0.269531
    58  N    0.190155
    59  C    0.098107
    60  C    0.199863
    61  N   -0.259619
    63  C    0.179097
    64  N   -0.294497
    66  C    0.158141
    67  N   -0.248555
    68  C    0.050695
    69  C    0.297468
    70  N   -0.310778
 Electronic spatial extent (au):  <R**2>=          21759.4513
 Charge=             -0.0000 electrons
 Dipole moment (field-independent basis, Debye):
    X=             -4.6932    Y=              5.7816    Z=             -5.3982  Tot=              9.1975
 Quadrupole moment (field-independent basis, Debye-Ang):
   XX=           -146.5748   YY=           -224.5421   ZZ=           -264.9129
   XY=            -11.9132   XZ=              3.6882   YZ=              3.6135
 Traceless Quadrupole moment (field-independent basis, Debye-Ang):
   XX=             65.4351   YY=            -12.5321   ZZ=            -52.9030
   XY=            -11.9132   XZ=              3.6882   YZ=              3.6135
 Octapole moment (field-independent basis, Debye-Ang**2):
  XXX=             91.9480  YYY=             17.8474  ZZZ=            -49.9230  XYY=            -59.8745
  XXY=            106.2580  XXZ=            -51.8414  XZZ=            -39.9290  YZZ=             58.0250
  YYZ=            -40.7038  XYZ=             30.4142
 Hexadecapole moment (field-independent basis, Debye-Ang**3):
 XXXX=         -16345.6797 YYYY=          -3346.5798 ZZZZ=          -3644.8337 XXXY=           -744.7364
 XXXZ=            148.6671 YYYX=            144.5200 YYYZ=           -105.2558 ZZZX=             80.2178
 ZZZY=             44.1647 XXYY=          -3953.3460 XXZZ=          -4003.1637 YYZZ=          -1265.6414
 XXYZ=            -89.6559 YYXZ=             38.7422 ZZXY=           -112.0623
 N-N= 5.657504966429D+03 E-N=-1.609552510198D+04  KE= 2.037996575156D+03
 No NMR shielding tensors so no spin-rotation constants.
 Leave Link  601 at Wed Jan 17 21:24:26 2018, MaxMem=  4294967296 cpu:              79.8 elap:               2.8
 (Enter /share/apps/g16/l9999.exe)
 1\1\GINC-COMPUTE-0-3\SP\RwB97XD\CC-pVDZ\C23H27N17O3\SATYA\17-Jan-2018\
 0\\#p wb97xd/cc-pvdz sp scf=(maxcycles=20)\\Base pair stacking\\0,1\N,
 0,-0.59396,4.9434,-6.20542\C,0,-1.1124,6.31559,-6.04323\C,0,-0.42702,2
 .75263,-6.30525\N,0,0.83455,3.2516,-6.59543\C,0,0.68348,4.55149,-6.523
 67\H,0,1.47793,5.27839,-6.69517\N,0,-2.23541,1.29108,-5.90961\C,0,-2.9
 7514,2.38523,-5.70171\H,0,-4.0198,2.20034,-5.45521\N,0,-2.61984,3.6674
 5,-5.75235\C,0,-1.31804,3.78352,-6.06264\C,0,-0.92922,1.44135,-6.22003
 \N,0,-0.18917,0.35035,-6.42792\H,0,0.78205,0.41423,-6.66003\H,0,-0.580
 1,-0.56755,-6.35878\H,0,-0.99349,6.82147,-6.8977\H,0,-2.0838,6.28033,-
 5.81029\H,0,-0.61247,6.7787,-5.31138\N,0,-0.84047,4.41372,-3.08384\C,0
 ,-1.35319,3.14091,-3.01238\C,0,-1.6334,5.65807,-3.02417\N,0,-4.07716,1
 .00833,-2.70597\H,0,-4.24261,0.02302,-2.67382\H,0,-4.87682,1.60522,-2.
 63538\N,0,-2.65701,2.81577,-2.87673\C,0,-2.83896,1.50772,-2.83782\N,0,
 -1.82314,0.58683,-2.92492\H,0,-2.05536,-0.39374,-2.88616\C,0,-0.47443,
 0.8987,-3.06486\O,0,0.3635,-0.00892,-3.13436\C,0,-0.26325,2.30028,-3.1
 0817\N,0,0.91012,3.03065,-3.23718\C,0,0.5196,4.27617,-3.2178\H,0,1.184
 59,5.13677,-3.29798\H,0,-1.50094,6.18037,-3.86587\H,0,-2.6009,5.42978,
 -2.92371\H,0,-1.33841,6.20607,-2.24219\H,0,-3.92778,-5.10486,-3.27622\
 H,0,-3.49911,-5.19314,-1.56944\H,0,-3.99444,-3.65422,-2.27494\H,0,0.82
 004,-5.81381,-3.59585\C,0,0.11906,-5.00793,-3.37811\O,0,1.71848,-3.284
 19,-3.69067\C,0,0.57505,-3.65222,-3.42252\H,0,-0.10718,-1.74175,-3.152
 35\N,0,-0.39157,-2.71097,-3.13105\O,0,-2.48854,-2.04391,-2.56987\C,0,-
 1.70588,-2.94555,-2.81308\H,0,-1.55355,-6.28179,-3.02391\C,0,-1.15706,
 -5.26842,-3.07107\C,0,-3.46424,-4.57741,-2.45586\N,0,-2.06933,-4.2777,
 -2.7907\H,0,-5.93767,-5.68828,-5.3957\H,0,-5.56491,-4.42935,-4.42706\H
 ,0,-5.27782,-5.95641,-3.92732\H,0,0.82542,-3.12643,-7.05792\H,0,0.4093
 7,-4.7769,-7.17175\N,0,0.15667,-3.85072,-6.88967\C,0,-1.02009,-3.59401
 ,-6.31477\C,0,-3.16599,-4.15606,-5.45399\N,0,-3.47842,-2.90266,-5.0855
 1\H,0,-2.65524,-1.0259,-5.1132\C,0,-2.48375,-2.06788,-5.37992\N,0,-1.3
 0438,-2.32305,-5.95572\H,0,-3.5706,-7.33884,-5.85199\C,0,-3.19471,-6.3
 1544,-5.83434\N,0,-2.02426,-5.94346,-6.29192\C,0,-1.99328,-4.57652,-6.
 0569\C,0,-5.28744,-5.34442,-4.71824\N,0,-3.9381,-5.28477,-5.31299\\Ver
 sion=EM64L-G16RevA.03\State=1-A\HF=-2048.7218697\RMSD=7.853e-09\Dipole
 =-3.3534423,-1.3595838,-0.0056524\Quadrupole=-21.5414521,44.4201841,-2
 2.878732,18.7500925,-15.9303732,-2.7976817\PG=C01 [X(C23H27N17O3)]\\@


 AN AIRPLANE IS A COLLECTION OF SPARE PARTS
 FLYING IN CLOSE FORMATION.
 Job cpu time:       0 days  6 hours 43 minutes 38.6 seconds.
 Elapsed time:       0 days  0 hours 13 minutes  3.6 seconds.
 File lengths (MBytes):  RWF=    298 Int=      0 D2E=      0 Chk=     33 Scr=      1
 Normal termination of Gaussian 16 at Wed Jan 17 21:24:26 2018.
