 Entering Gaussian System, Link 0=g16
 Input=str10.10.-2.0.com
 Output=str10.10.-2.0.log
 Initial command:
 /share/apps/g16/l1.exe "/state/partition1/scr/Gau-17681.inp" -scrdir="/state/partition1/scr/"
 Entering Link 1 = /share/apps/g16/l1.exe PID=     17682.
  
 Copyright (c) 1988,1990,1992,1993,1995,1998,2003,2009,2016,
            Gaussian, Inc.  All Rights Reserved.
  
 This is part of the Gaussian(R) 16 program.  It is based on
 the Gaussian(R) 09 system (copyright 2009, Gaussian, Inc.),
 the Gaussian(R) 03 system (copyright 2003, Gaussian, Inc.),
 the Gaussian(R) 98 system (copyright 1998, Gaussian, Inc.),
 the Gaussian(R) 94 system (copyright 1995, Gaussian, Inc.),
 the Gaussian 92(TM) system (copyright 1992, Gaussian, Inc.),
 the Gaussian 90(TM) system (copyright 1990, Gaussian, Inc.),
 the Gaussian 88(TM) system (copyright 1988, Gaussian, Inc.),
 the Gaussian 86(TM) system (copyright 1986, Carnegie Mellon
 University), and the Gaussian 82(TM) system (copyright 1983,
 Carnegie Mellon University). Gaussian is a federally registered
 trademark of Gaussian, Inc.
  
 This software contains proprietary and confidential information,
 including trade secrets, belonging to Gaussian, Inc.
  
 This software is provided under written license and may be
 used, copied, transmitted, or stored only in accord with that
 written license.
  
 The following legend is applicable only to US Government
 contracts under FAR:
  
                    RESTRICTED RIGHTS LEGEND
  
 Use, reproduction and disclosure by the US Government is
 subject to restrictions as set forth in subparagraphs (a)
 and (c) of the Commercial Computer Software - Restricted
 Rights clause in FAR 52.227-19.
  
 Gaussian, Inc.
 340 Quinnipiac St., Bldg. 40, Wallingford CT 06492
  
  
 ---------------------------------------------------------------
 Warning -- This program may not be used in any manner that
 competes with the business of Gaussian, Inc. or will provide
 assistance to any competitor of Gaussian, Inc.  The licensee
 of this program is prohibited from giving any competitor of
 Gaussian, Inc. access to this program.  By using this program,
 the user acknowledges that Gaussian, Inc. is engaged in the
 business of creating and licensing software in the field of
 computational chemistry and represents and warrants to the
 licensee that it is not a competitor of Gaussian, Inc. and that
 it will not use this program in any manner prohibited above.
 ---------------------------------------------------------------
  

 Cite this work as:
 Gaussian 16, Revision A.03,
 M. J. Frisch, G. W. Trucks, H. B. Schlegel, G. E. Scuseria, 
 M. A. Robb, J. R. Cheeseman, G. Scalmani, V. Barone, 
 G. A. Petersson, H. Nakatsuji, X. Li, M. Caricato, A. V. Marenich, 
 J. Bloino, B. G. Janesko, R. Gomperts, B. Mennucci, H. P. Hratchian, 
 J. V. Ortiz, A. F. Izmaylov, J. L. Sonnenberg, D. Williams-Young, 
 F. Ding, F. Lipparini, F. Egidi, J. Goings, B. Peng, A. Petrone, 
 T. Henderson, D. Ranasinghe, V. G. Zakrzewski, J. Gao, N. Rega, 
 G. Zheng, W. Liang, M. Hada, M. Ehara, K. Toyota, R. Fukuda, 
 J. Hasegawa, M. Ishida, T. Nakajima, Y. Honda, O. Kitao, H. Nakai, 
 T. Vreven, K. Throssell, J. A. Montgomery, Jr., J. E. Peralta, 
 F. Ogliaro, M. J. Bearpark, J. J. Heyd, E. N. Brothers, K. N. Kudin, 
 V. N. Staroverov, T. A. Keith, R. Kobayashi, J. Normand, 
 K. Raghavachari, A. P. Rendell, J. C. Burant, S. S. Iyengar, 
 J. Tomasi, M. Cossi, J. M. Millam, M. Klene, C. Adamo, R. Cammi, 
 J. W. Ochterski, R. L. Martin, K. Morokuma, O. Farkas, 
 J. B. Foresman, and D. J. Fox, Gaussian, Inc., Wallingford CT, 2016.
 
 ******************************************
 Gaussian 16:  EM64L-G16RevA.03 25-Dec-2016
                17-Jan-2018 
 ******************************************
 %nprocshared=32
 Will use up to   32 processors via shared memory.
 %mem=32GB
 %chk=allatoms_t.chk
 ---------------------------------------
 #p wb97xd/cc-pvdz sp scf=(maxcycles=20)
 ---------------------------------------
 1/38=1,172=1/1;
 2/12=2,17=6,18=5,40=1/2;
 3/5=16,11=2,25=1,30=1,74=-58/1,2,3;
 4//1;
 5/5=2,7=20,38=5/2;
 6/7=2,8=2,9=2,10=2,28=1/1;
 99/5=1,9=1/99;
 Leave Link    1 at Wed Jan 17 23:54:27 2018, MaxMem=  4294967296 cpu:               2.7 elap:               0.1
 (Enter /share/apps/g16/l101.exe)
 ------------------
 Base pair stacking
 ------------------
 Symbolic Z-matrix:
 Charge =  0 Multiplicity = 1
 N                     2.52944   9.62181  -6.36977 
 C                     2.07958   10.98177  -6.72494 
 C                     2.63451   7.44208  -6.09584 
 N                     3.81651   7.95525  -5.58176 
 C                     3.7059    9.24791  -5.76737 
 H                     4.45963   9.98208  -5.48129 
 N                     0.92321   5.96321  -6.76465 
 C                     0.26169   7.0434   -7.19261 
 H                    -0.71189   6.84583  -7.63913 
 N                     0.62055   8.32499  -7.15199 
 C                     1.83116   8.45733  -6.58513 
 C                     2.13868   6.12966  -6.19897 
 N                     2.80057   5.0526   -5.77116 
 H                     3.70324   5.12872  -5.34618 
 H                     2.41693   4.1334   -5.86082 
 H                     2.72941   11.39293  -7.36435 
 H                     1.17739   10.93415  -7.15261 
 H                     2.02604   11.54361  -5.89943 
 N                    -0.03721   6.8915   -3.39988 
 C                    -0.55037   5.61872  -3.46882 
 C                    -0.79679   8.13292  -3.6501 
 N                    -3.22766   3.48205  -4.04201 
 H                    -3.39933   2.49728  -4.03857 
 H                    -4.00066   4.07659  -4.26494 
 N                    -1.82448   5.29097  -3.77427 
 C                    -2.01565   3.98373  -3.76046 
 N                    -1.03542   3.06597  -3.47 
 H                    -1.27212   2.08579  -3.48316 
 C                     0.2823    3.38056  -3.15294 
 O                     1.0893    2.47566  -2.90673 
 C                     0.50294   4.78131  -3.16376 
 N                     1.65422   5.51362  -2.90844 
 C                     1.28681   6.75711  -3.05995 
 H                     1.94401   7.61839  -2.93522 
 H                    -0.38371   8.63057  -4.41201 
 H                    -1.74211   7.90267  -3.87734 
 H                    -0.78197   8.70552  -2.83113 
 H                    -2.92545  -2.64457  -4.3451 
 H                    -3.10218  -2.67968  -2.59234 
 H                    -3.32052  -1.16508  -3.46966 
 H                     1.6451   -3.33795  -3.01249 
 C                     0.91605  -2.5296   -3.06981 
 O                     2.53556  -0.80763  -2.87202 
 C                     1.3671   -1.17346  -2.99717 
 H                     0.64365   0.74063  -3.03178 
 N                     0.36387  -0.229    -3.07941 
 O                    -1.79556   0.44355  -3.28368 
 C                    -0.98153  -0.46085  -3.21971 
 H                    -0.78408  -3.80105  -3.26671 
 C                    -0.38985  -2.78748  -3.20666 
 C                    -2.76522  -2.09048  -3.43221 
 N                    -1.33793  -1.79361  -3.28234 
 H                    -2.55308  -1.05647  -7.9144 
 H                    -2.82255   0.31703  -7.07596 
 H                    -2.97475  -1.13166  -6.33961 
 H                     3.84597   1.57033  -5.22783 
 H                     3.52868  -0.09775  -5.39188 
 N                     3.192     0.8434   -5.43766 
 C                     1.92694   1.11586  -5.76412 
 C                    -0.30308   0.56882  -6.3882 
 N                    -0.72743   1.84219  -6.44177 
 H                     0.00402   3.73531  -6.15598 
 C                     0.26336   2.67766  -6.13646 
 N                     1.53107   2.40673  -5.80922 
 H                    -0.49388  -2.6521   -6.5918 
 C                    -0.1723   -1.61902  -6.45665 
 N                     1.03914  -1.25435  -6.11443 
 C                     0.96991   0.13047  -6.06747 
 C                    -2.46046  -0.61313  -7.02285 
 N                    -1.0363   -0.56682  -6.63863 
 
 ITRead=  0  0  0  0  0  0  0  0  0  0  0  0  0  0  0  0  0  0  0  0
 ITRead=  0  0  0  0  0  0  0  0  0  0  0  0  0  0  0  0  0  0  0  0
 ITRead=  0  0  0  0  0  0  0  0  0  0  0  0  0  0  0  0  0  0  0  0
 ITRead=  0  0  0  0  0  0  0  0  0  0
 MicOpt= -1 -1 -1 -1 -1 -1 -1 -1 -1 -1 -1 -1 -1 -1 -1 -1 -1 -1 -1 -1
 MicOpt= -1 -1 -1 -1 -1 -1 -1 -1 -1 -1 -1 -1 -1 -1 -1 -1 -1 -1 -1 -1
 MicOpt= -1 -1 -1 -1 -1 -1 -1 -1 -1 -1 -1 -1 -1 -1 -1 -1 -1 -1 -1 -1
 MicOpt= -1 -1 -1 -1 -1 -1 -1 -1 -1 -1
 NAtoms=     70 NQM=       70 NQMF=       0 NMMI=      0 NMMIF=      0
                NMic=       0 NMicF=      0.
                    Isotopes and Nuclear Properties:
 (Nuclear quadrupole moments (NQMom) in fm**2, nuclear magnetic moments (NMagM)
  in nuclear magnetons)

  Atom         1           2           3           4           5           6           7           8           9          10
 IAtWgt=          14          12          12          14          12           1          14          12           1          14
 AtmWgt=  14.0030740  12.0000000  12.0000000  14.0030740  12.0000000   1.0078250  14.0030740  12.0000000   1.0078250  14.0030740
 NucSpn=           2           0           0           2           0           1           2           0           1           2
 AtZEff=  -0.0000000  -0.0000000  -0.0000000  -0.0000000  -0.0000000  -0.0000000  -0.0000000  -0.0000000  -0.0000000  -0.0000000
 NQMom=    2.0440000   0.0000000   0.0000000   2.0440000   0.0000000   0.0000000   2.0440000   0.0000000   0.0000000   2.0440000
 NMagM=    0.4037610   0.0000000   0.0000000   0.4037610   0.0000000   2.7928460   0.4037610   0.0000000   2.7928460   0.4037610
 AtZNuc=   7.0000000   6.0000000   6.0000000   7.0000000   6.0000000   1.0000000   7.0000000   6.0000000   1.0000000   7.0000000

  Atom        11          12          13          14          15          16          17          18          19          20
 IAtWgt=          12          12          14           1           1           1           1           1          14          12
 AtmWgt=  12.0000000  12.0000000  14.0030740   1.0078250   1.0078250   1.0078250   1.0078250   1.0078250  14.0030740  12.0000000
 NucSpn=           0           0           2           1           1           1           1           1           2           0
 AtZEff=  -0.0000000  -0.0000000  -0.0000000  -0.0000000  -0.0000000  -0.0000000  -0.0000000  -0.0000000  -0.0000000  -0.0000000
 NQMom=    0.0000000   0.0000000   2.0440000   0.0000000   0.0000000   0.0000000   0.0000000   0.0000000   2.0440000   0.0000000
 NMagM=    0.0000000   0.0000000   0.4037610   2.7928460   2.7928460   2.7928460   2.7928460   2.7928460   0.4037610   0.0000000
 AtZNuc=   6.0000000   6.0000000   7.0000000   1.0000000   1.0000000   1.0000000   1.0000000   1.0000000   7.0000000   6.0000000

  Atom        21          22          23          24          25          26          27          28          29          30
 IAtWgt=          12          14           1           1          14          12          14           1          12          16
 AtmWgt=  12.0000000  14.0030740   1.0078250   1.0078250  14.0030740  12.0000000  14.0030740   1.0078250  12.0000000  15.9949146
 NucSpn=           0           2           1           1           2           0           2           1           0           0
 AtZEff=  -0.0000000  -0.0000000  -0.0000000  -0.0000000  -0.0000000  -0.0000000  -0.0000000  -0.0000000  -0.0000000  -0.0000000
 NQMom=    0.0000000   2.0440000   0.0000000   0.0000000   2.0440000   0.0000000   2.0440000   0.0000000   0.0000000   0.0000000
 NMagM=    0.0000000   0.4037610   2.7928460   2.7928460   0.4037610   0.0000000   0.4037610   2.7928460   0.0000000   0.0000000
 AtZNuc=   6.0000000   7.0000000   1.0000000   1.0000000   7.0000000   6.0000000   7.0000000   1.0000000   6.0000000   8.0000000

  Atom        31          32          33          34          35          36          37          38          39          40
 IAtWgt=          12          14          12           1           1           1           1           1           1           1
 AtmWgt=  12.0000000  14.0030740  12.0000000   1.0078250   1.0078250   1.0078250   1.0078250   1.0078250   1.0078250   1.0078250
 NucSpn=           0           2           0           1           1           1           1           1           1           1
 AtZEff=  -0.0000000  -0.0000000  -0.0000000  -0.0000000  -0.0000000  -0.0000000  -0.0000000  -0.0000000  -0.0000000  -0.0000000
 NQMom=    0.0000000   2.0440000   0.0000000   0.0000000   0.0000000   0.0000000   0.0000000   0.0000000   0.0000000   0.0000000
 NMagM=    0.0000000   0.4037610   0.0000000   2.7928460   2.7928460   2.7928460   2.7928460   2.7928460   2.7928460   2.7928460
 AtZNuc=   6.0000000   7.0000000   6.0000000   1.0000000   1.0000000   1.0000000   1.0000000   1.0000000   1.0000000   1.0000000

  Atom        41          42          43          44          45          46          47          48          49          50
 IAtWgt=           1          12          16          12           1          14          16          12           1          12
 AtmWgt=   1.0078250  12.0000000  15.9949146  12.0000000   1.0078250  14.0030740  15.9949146  12.0000000   1.0078250  12.0000000
 NucSpn=           1           0           0           0           1           2           0           0           1           0
 AtZEff=  -0.0000000  -0.0000000  -0.0000000  -0.0000000  -0.0000000  -0.0000000  -0.0000000  -0.0000000  -0.0000000  -0.0000000
 NQMom=    0.0000000   0.0000000   0.0000000   0.0000000   0.0000000   2.0440000   0.0000000   0.0000000   0.0000000   0.0000000
 NMagM=    2.7928460   0.0000000   0.0000000   0.0000000   2.7928460   0.4037610   0.0000000   0.0000000   2.7928460   0.0000000
 AtZNuc=   1.0000000   6.0000000   8.0000000   6.0000000   1.0000000   7.0000000   8.0000000   6.0000000   1.0000000   6.0000000

  Atom        51          52          53          54          55          56          57          58          59          60
 IAtWgt=          12          14           1           1           1           1           1          14          12          12
 AtmWgt=  12.0000000  14.0030740   1.0078250   1.0078250   1.0078250   1.0078250   1.0078250  14.0030740  12.0000000  12.0000000
 NucSpn=           0           2           1           1           1           1           1           2           0           0
 AtZEff=  -0.0000000  -0.0000000  -0.0000000  -0.0000000  -0.0000000  -0.0000000  -0.0000000  -0.0000000  -0.0000000  -0.0000000
 NQMom=    0.0000000   2.0440000   0.0000000   0.0000000   0.0000000   0.0000000   0.0000000   2.0440000   0.0000000   0.0000000
 NMagM=    0.0000000   0.4037610   2.7928460   2.7928460   2.7928460   2.7928460   2.7928460   0.4037610   0.0000000   0.0000000
 AtZNuc=   6.0000000   7.0000000   1.0000000   1.0000000   1.0000000   1.0000000   1.0000000   7.0000000   6.0000000   6.0000000

  Atom        61          62          63          64          65          66          67          68          69          70
 IAtWgt=          14           1          12          14           1          12          14          12          12          14
 AtmWgt=  14.0030740   1.0078250  12.0000000  14.0030740   1.0078250  12.0000000  14.0030740  12.0000000  12.0000000  14.0030740
 NucSpn=           2           1           0           2           1           0           2           0           0           2
 AtZEff=  -0.0000000  -0.0000000  -0.0000000  -0.0000000  -0.0000000  -0.0000000  -0.0000000  -0.0000000  -0.0000000  -0.0000000
 NQMom=    2.0440000   0.0000000   0.0000000   2.0440000   0.0000000   0.0000000   2.0440000   0.0000000   0.0000000   2.0440000
 NMagM=    0.4037610   2.7928460   0.0000000   0.4037610   2.7928460   0.0000000   0.4037610   0.0000000   0.0000000   0.4037610
 AtZNuc=   7.0000000   1.0000000   6.0000000   7.0000000   1.0000000   6.0000000   7.0000000   6.0000000   6.0000000   7.0000000
 Leave Link  101 at Wed Jan 17 23:54:27 2018, MaxMem=  4294967296 cpu:               6.4 elap:               0.2
 (Enter /share/apps/g16/l202.exe)
 Stoichiometry    C23H27N17O3
 Framework group  C1[X(C23H27N17O3)]
 Deg. of freedom   204
 Full point group                 C1      NOp   1
 Largest Abelian subgroup         C1      NOp   1
 Largest concise Abelian subgroup C1      NOp   1
                         Standard orientation:                         
 ---------------------------------------------------------------------
 Center     Atomic      Atomic             Coordinates (Angstroms)
 Number     Number       Type             X           Y           Z
 ---------------------------------------------------------------------
      1          7           0       -6.846108   -0.833107    0.310143
      2          6           0       -8.110820   -0.233719    0.778383
      3          6           0       -4.725088   -1.370792    0.087730
      4          7           0       -5.408503   -2.072933   -0.894455
      5          6           0       -6.658979   -1.720897   -0.721147
      6          1           0       -7.493741   -2.081723   -1.322755
      7          7           0       -3.014146   -0.511401    1.465060
      8          6           0       -3.972282    0.173592    2.097776
      9          1           0       -3.630077    0.800004    2.920441
     10          7           0       -5.283513    0.200858    1.867925
     11          6           0       -5.597919   -0.602263    0.838087
     12          6           0       -3.362737   -1.310579    0.433137
     13          7           0       -2.407728   -1.995161   -0.199701
     14          1           0       -2.620044   -2.598812   -0.968948
     15          1           0       -1.448009   -1.928010    0.073389
     16          1           0       -8.736742   -0.957501    1.069138
     17          1           0       -7.926518    0.375690    1.548947
     18          1           0       -8.529799    0.288365    0.035496
     19          7           0       -3.244170    1.922377   -1.205074
     20          6           0       -1.911703    2.021676   -0.884567
     21          6           0       -4.312580    2.806142   -0.696985
     22          7           0        0.658371    3.601468    0.836120
     23          1           0        1.647967    3.502913    0.937317
     24          1           0        0.221781    4.343181    1.345978
     25          7           0       -1.359032    2.935936   -0.058274
     26          6           0       -0.052124    2.776534    0.052155
     27          7           0        0.660904    1.797356   -0.596153
     28          1           0        1.657967    1.750490   -0.452553
     29          6           0        0.113034    0.846056   -1.450990
     30          8           0        0.845338    0.004719   -1.986337
     31          6           0       -1.290259    1.004567   -1.579604
     32          7           0       -2.213993    0.281264   -2.321535
     33          6           0       -3.356379    0.860330   -2.068849
     34          1           0       -4.314925    0.551928   -2.487597
     35          1           0       -4.987203    2.263372   -0.197903
     36          1           0       -3.915102    3.487519   -0.083781
     37          1           0       -4.757737    3.268218   -1.463225
     38          1           0        6.472430    1.652786    1.179669
     39          1           0        6.783411    2.503850   -0.331494
     40          1           0        5.247757    2.729127    0.506593
     41          1           0        6.328514   -2.007913   -1.938844
     42          6           0        5.698254   -1.183802   -1.604415
     43          8           0        3.708249   -2.089866   -2.524221
     44          6           0        4.299253   -1.205749   -1.904670
     45          1           0        2.602211   -0.095693   -1.628728
     46          7           0        3.593770   -0.115839   -1.436026
     47          8           0        3.386275    1.872592   -0.358863
     48          6           0        4.091761    0.951942   -0.732187
     49          1           0        7.270529   -0.091685   -0.665784
     50          6           0        6.213269   -0.156007   -0.919579
     51          6           0        6.026277    2.020014    0.267447
     52          7           0        5.448915    0.900627   -0.481802
     53          1           0        4.370699    0.295143    4.202938
     54          1           0        3.216070    1.219142    3.513621
     55          1           0        4.749538    1.279874    2.957864
     56          1           0        0.804018   -3.583440   -1.022094
     57          1           0        2.462923   -3.795360   -0.685644
     58          7           0        1.620434   -3.277855   -0.531978
     59          6           0        1.588196   -2.227067    0.290210
     60          6           0        2.517621   -0.656061    1.816588
     61          7           0        1.372088    0.020066    2.003726
     62          1           0       -0.577940   -0.025983    1.374543
     63          6           0        0.390412   -0.515709    1.281129
     64          7           0        0.420700   -1.568124    0.457064
     65          1           0        5.644352   -1.390788    2.185252
     66          6           0        4.594280   -1.356055    1.893573
     67          7           0        4.024581   -2.191010    1.059319
     68          6           0        2.707678   -1.758396    1.001566
     69          6           0        4.043401    0.685036    3.342211
     70          7           0        3.740773   -0.401237    2.390145
 ---------------------------------------------------------------------
 Rotational constants (GHZ):           0.1795718           0.0487875           0.0467462
 Leave Link  202 at Wed Jan 17 23:54:27 2018, MaxMem=  4294967296 cpu:               0.3 elap:               0.0
 (Enter /share/apps/g16/l301.exe)
 Standard basis: CC-pVDZ (5D, 7F)
 Ernie: Thresh=  0.10000D-02 Tol=  0.10000D-05 Strict=F.
 Ernie:  86 primitive shells out of 1081 were deleted.
 There are   780 symmetry adapted cartesian basis functions of A   symmetry.
 There are   737 symmetry adapted basis functions of A   symmetry.
   737 basis functions,  1608 primitive gaussians,   780 cartesian basis functions
   154 alpha electrons      154 beta electrons
       nuclear repulsion energy      5515.7625666911 Hartrees.
 IExCor= 4639 DFT=T Ex+Corr=wB97XD ExCW=0 ScaHFX=  1.000000
 ScaDFX=  1.000000  1.000000  1.000000  1.000000 ScalE2=  1.000000  1.000000
 IRadAn=      5 IRanWt=     -1 IRanGd=            0 ICorTp=0 IEmpDi=121
 HFx  wShort=  0.000000 wLong=  0.200000 cFull=  0.222036 cShort=  0.000000 cLong=  0.777964
 DFx  wShort=  0.000000 wLong=  0.200000 cFull=  0.000000 cShort=  0.000000 cLong=  1.000000
 NAtoms=   70 NActive=   70 NUniq=   70 SFac= 1.00D+00 NAtFMM=   60 NAOKFM=T Big=T
 Integral buffers will be    131072 words long.
 Raffenetti 2 integral format.
 Two-electron integral symmetry is turned on.
 R6Disp:  Grimme-D2 Dispersion energy=       -0.0737448114 Hartrees.
 Nuclear repulsion after empirical dispersion term =     5515.6888218797 Hartrees.
 Leave Link  301 at Wed Jan 17 23:54:27 2018, MaxMem=  4294967296 cpu:               2.2 elap:               0.1
 (Enter /share/apps/g16/l302.exe)
 NPDir=0 NMtPBC=     1 NCelOv=     1 NCel=       1 NClECP=     1 NCelD=      1
         NCelK=      1 NCelE2=     1 NClLst=     1 CellRange=     0.0.
 One-electron integrals computed using PRISM.
 One-electron integral symmetry used in STVInt
 NBasis=   737 RedAO= T EigKep=  6.96D-04  NBF=   737
 NBsUse=   737 1.00D-06 EigRej= -1.00D+00 NBFU=   737
 Precomputing XC quadrature grid using
 IXCGrd= 4 IRadAn=           5 IRanWt=          -1 IRanGd=           0 AccXCQ= 0.00D+00.
 Generated NRdTot=       0 NPtTot=           0 NUsed=           0 NTot=          32
 NSgBfM=   754   754   754   754   754 MxSgAt=    70 MxSgA2=    70.
 Leave Link  302 at Wed Jan 17 23:54:32 2018, MaxMem=  4294967296 cpu:             136.9 elap:               4.3
 (Enter /share/apps/g16/l303.exe)
 DipDrv:  MaxL=1.
 Leave Link  303 at Wed Jan 17 23:54:32 2018, MaxMem=  4294967296 cpu:              12.5 elap:               0.4
 (Enter /share/apps/g16/l401.exe)
 ExpMin= 1.22D-01 ExpMax= 1.17D+04 ExpMxC= 4.01D+02 IAcc=3 IRadAn=         5 AccDes= 0.00D+00
 Harris functional with IExCor= 4639 and IRadAn=       5 diagonalized for initial guess.
 HarFok:  IExCor= 4639 AccDes= 0.00D+00 IRadAn=         5 IDoV= 1 UseB2=F ITyADJ=14
 ICtDFT=  3500011 ScaDFX=  1.000000  1.000000  1.000000  1.000000
 FoFCou: FMM=F IPFlag=           0 FMFlag=      100000 FMFlg1=        2001
         NFxFlg=           0 DoJE=T BraDBF=F KetDBF=T FulRan=T
         wScrn=  0.000000 ICntrl=       500 IOpCl=  0 I1Cent=   200000004 NGrid=           0
         NMat0=    1 NMatS0=      1 NMatT0=    0 NMatD0=    1 NMtDS0=    0 NMtDT0=    0
 Petite list used in FoFCou.
 Harris En= -1963.88946929562    
 JPrj=0 DoOrth=F DoCkMO=F.
 Leave Link  401 at Wed Jan 17 23:54:45 2018, MaxMem=  4294967296 cpu:             404.9 elap:              12.7
 (Enter /share/apps/g16/l502.exe)
 Integral symmetry usage will be decided dynamically.
 Closed shell SCF:
 Using DIIS extrapolation, IDIIS=  1040.
 NGot=  4294967296 LenX=  4293717438 LenY=  4293108258
 Requested convergence on RMS density matrix=1.00D-08 within  20 cycles.
 Requested convergence on MAX density matrix=1.00D-06.
 Requested convergence on             energy=1.00D-06.
 No special actions if energy rises.
 Fock matrices will be formed incrementally for  20 cycles.
 Integral accuracy reduced to 1.0D-05 until final iterations.

 Cycle   1  Pass 0  IDiag  1:
 FoFJK:  IHMeth= 1 ICntrl=       0 DoSepK=T KAlg= 0 I1Cent=           0 FoldK=F
 IRaf=         1 NMat=       1 IRICut=       1 DoRegI=T DoRafI=F ISym2E= 0 IDoP0=0 IntGTp=1.
 FoFCou: FMM=T IPFlag=           0 FMFlag=      100000 FMFlg1=        2001
         NFxFlg=           0 DoJE=T BraDBF=F KetDBF=F FulRan=T
         wScrn=  0.000000 ICntrl=       500 IOpCl=  0 I1Cent=           0 NGrid=           0
         NMat0=    1 NMatS0=      1 NMatT0=    0 NMatD0=    1 NMtDS0=    0 NMtDT0=    0
 Symmetry not used in FoFCou.
 FMM levels:  10  Number of levels for PrismC:   9
 E= -2048.31447332772    
 DIIS: error= 2.00D-02 at cycle   1 NSaved=   1.
 NSaved= 1 IEnMin= 1 EnMin= -2048.31447332772     IErMin= 1 ErrMin= 2.00D-02
 ErrMax= 2.00D-02  0.00D+00 EMaxC= 1.00D-01 BMatC= 8.39D-01 BMatP= 8.39D-01
 IDIUse=3 WtCom= 8.00D-01 WtEn= 2.00D-01
 Coeff-Com:  0.100D+01
 Coeff-En:   0.100D+01
 Coeff:      0.100D+01
 Gap=     0.250 Goal=   None    Shift=    0.000
 GapD=    0.250 DampG=1.000 DampE=0.500 DampFc=0.5000 IDamp=-1.
 Damping current iteration by 5.00D-01
 RMSDP=1.61D-03 MaxDP=1.22D-01              OVMax= 2.14D-01

 Cycle   2  Pass 0  IDiag  1:
 RMSU=  8.03D-04    CP:  9.97D-01
 E= -2048.51129123090     Delta-E=       -0.196817903174 Rises=F Damp=T
 DIIS: error= 1.02D-02 at cycle   2 NSaved=   2.
 NSaved= 2 IEnMin= 2 EnMin= -2048.51129123090     IErMin= 2 ErrMin= 1.02D-02
 ErrMax= 1.02D-02  0.00D+00 EMaxC= 1.00D-01 BMatC= 1.47D-01 BMatP= 8.39D-01
 IDIUse=3 WtCom= 8.98D-01 WtEn= 1.02D-01
 Coeff-Com: -0.179D+00 0.118D+01
 Coeff-En:   0.000D+00 0.100D+01
 Coeff:     -0.161D+00 0.116D+01
 Gap=     0.369 Goal=   None    Shift=    0.000
 RMSDP=6.01D-04 MaxDP=3.41D-02 DE=-1.97D-01 OVMax= 1.67D-01

 Cycle   3  Pass 0  IDiag  1:
 RMSU=  5.95D-04    CP:  9.94D-01  1.09D+00
 E= -2048.69013296528     Delta-E=       -0.178841734381 Rises=F Damp=F
 DIIS: error= 7.71D-03 at cycle   3 NSaved=   3.
 NSaved= 3 IEnMin= 3 EnMin= -2048.69013296528     IErMin= 3 ErrMin= 7.71D-03
 ErrMax= 7.71D-03  0.00D+00 EMaxC= 1.00D-01 BMatC= 7.04D-02 BMatP= 1.47D-01
 IDIUse=3 WtCom= 9.23D-01 WtEn= 7.71D-02
 Coeff-Com: -0.233D+00 0.559D+00 0.674D+00
 Coeff-En:   0.000D+00 0.000D+00 0.100D+01
 Coeff:     -0.215D+00 0.516D+00 0.699D+00
 Gap=     0.278 Goal=   None    Shift=    0.000
 RMSDP=3.85D-04 MaxDP=2.99D-02 DE=-1.79D-01 OVMax= 7.53D-02

 Cycle   4  Pass 0  IDiag  1:
 RMSU=  2.12D-04    CP:  9.94D-01  1.40D+00  6.51D-01
 E= -2048.74388199803     Delta-E=       -0.053749032754 Rises=F Damp=F
 DIIS: error= 2.96D-03 at cycle   4 NSaved=   4.
 NSaved= 4 IEnMin= 4 EnMin= -2048.74388199803     IErMin= 4 ErrMin= 2.96D-03
 ErrMax= 2.96D-03  0.00D+00 EMaxC= 1.00D-01 BMatC= 1.02D-02 BMatP= 7.04D-02
 IDIUse=3 WtCom= 9.70D-01 WtEn= 2.96D-02
 Coeff-Com: -0.962D-01 0.186D+00 0.376D+00 0.533D+00
 Coeff-En:   0.000D+00 0.000D+00 0.736D-01 0.926D+00
 Coeff:     -0.933D-01 0.181D+00 0.367D+00 0.545D+00
 Gap=     0.284 Goal=   None    Shift=    0.000
 RMSDP=1.34D-04 MaxDP=1.13D-02 DE=-5.37D-02 OVMax= 1.72D-02

 Cycle   5  Pass 0  IDiag  1:
 RMSU=  6.14D-05    CP:  9.94D-01  1.36D+00  7.93D-01  6.20D-01
 E= -2048.75245385335     Delta-E=       -0.008571855315 Rises=F Damp=F
 DIIS: error= 5.30D-04 at cycle   5 NSaved=   5.
 NSaved= 5 IEnMin= 5 EnMin= -2048.75245385335     IErMin= 5 ErrMin= 5.30D-04
 ErrMax= 5.30D-04  0.00D+00 EMaxC= 1.00D-01 BMatC= 3.02D-04 BMatP= 1.02D-02
 IDIUse=3 WtCom= 9.95D-01 WtEn= 5.30D-03
 Coeff-Com: -0.242D-01 0.412D-01 0.118D+00 0.236D+00 0.629D+00
 Coeff-En:   0.000D+00 0.000D+00 0.000D+00 0.000D+00 0.100D+01
 Coeff:     -0.241D-01 0.409D-01 0.118D+00 0.235D+00 0.631D+00
 Gap=     0.284 Goal=   None    Shift=    0.000
 RMSDP=2.70D-05 MaxDP=1.90D-03 DE=-8.57D-03 OVMax= 3.66D-03

 Failed to achieve initial convergence to 1.0D-08 in  6 cycles.
 Switch to full accuracy anyway.
 Cycle   6  Pass 1  IDiag  1:
 E= -2048.75269231900     Delta-E=       -0.000238465653 Rises=F Damp=F
 DIIS: error= 2.55D-04 at cycle   1 NSaved=   1.
 NSaved= 1 IEnMin= 1 EnMin= -2048.75269231900     IErMin= 1 ErrMin= 2.55D-04
 ErrMax= 2.55D-04  0.00D+00 EMaxC= 1.00D-01 BMatC= 7.49D-05 BMatP= 7.49D-05
 IDIUse=3 WtCom= 9.97D-01 WtEn= 2.55D-03
 Coeff-Com:  0.100D+01
 Coeff-En:   0.100D+01
 Coeff:      0.100D+01
 Gap=     0.284 Goal=   None    Shift=    0.000
 RMSDP=2.70D-05 MaxDP=1.90D-03 DE=-2.38D-04 OVMax= 2.35D-03

 Cycle   7  Pass 1  IDiag  1:
 RMSU=  1.10D-04    CP:  1.00D+00
 E= -2048.75274607631     Delta-E=       -0.000053757309 Rises=F Damp=F
 DIIS: error= 2.33D-04 at cycle   2 NSaved=   2.
 NSaved= 2 IEnMin= 2 EnMin= -2048.75274607631     IErMin= 2 ErrMin= 2.33D-04
 ErrMax= 2.33D-04  0.00D+00 EMaxC= 1.00D-01 BMatC= 4.61D-05 BMatP= 7.49D-05
 IDIUse=3 WtCom= 9.98D-01 WtEn= 2.33D-03
 Coeff-Com:  0.419D+00 0.581D+00
 Coeff-En:   0.000D+00 0.100D+01
 Coeff:      0.418D+00 0.582D+00
 Gap=     0.284 Goal=   None    Shift=    0.000
 RMSDP=1.17D-05 MaxDP=1.16D-03 DE=-5.38D-05 OVMax= 1.48D-03

 Cycle   8  Pass 1  IDiag  1:
 RMSU=  1.14D-05    CP:  1.00D+00  1.02D+00
 E= -2048.75277968295     Delta-E=       -0.000033606644 Rises=F Damp=F
 DIIS: error= 1.07D-04 at cycle   3 NSaved=   3.
 NSaved= 3 IEnMin= 3 EnMin= -2048.75277968295     IErMin= 3 ErrMin= 1.07D-04
 ErrMax= 1.07D-04  0.00D+00 EMaxC= 1.00D-01 BMatC= 9.99D-06 BMatP= 4.61D-05
 IDIUse=3 WtCom= 9.99D-01 WtEn= 1.07D-03
 Coeff-Com: -0.188D-01 0.303D+00 0.715D+00
 Coeff-En:   0.000D+00 0.118D+00 0.882D+00
 Coeff:     -0.188D-01 0.303D+00 0.716D+00
 Gap=     0.284 Goal=   None    Shift=    0.000
 RMSDP=5.73D-06 MaxDP=4.51D-04 DE=-3.36D-05 OVMax= 5.92D-04

 Cycle   9  Pass 1  IDiag  1:
 RMSU=  3.90D-06    CP:  1.00D+00  1.05D+00  7.69D-01
 E= -2048.75278903233     Delta-E=       -0.000009349374 Rises=F Damp=F
 DIIS: error= 3.44D-05 at cycle   4 NSaved=   4.
 NSaved= 4 IEnMin= 4 EnMin= -2048.75278903233     IErMin= 4 ErrMin= 3.44D-05
 ErrMax= 3.44D-05  0.00D+00 EMaxC= 1.00D-01 BMatC= 5.19D-07 BMatP= 9.99D-06
 IDIUse=1 WtCom= 1.00D+00 WtEn= 0.00D+00
 Coeff-Com: -0.321D-01 0.820D-01 0.264D+00 0.686D+00
 Coeff:     -0.321D-01 0.820D-01 0.264D+00 0.686D+00
 Gap=     0.284 Goal=   None    Shift=    0.000
 RMSDP=1.47D-06 MaxDP=1.16D-04 DE=-9.35D-06 OVMax= 5.18D-04

 Cycle  10  Pass 1  IDiag  1:
 RMSU=  1.31D-06    CP:  1.00D+00  1.06D+00  8.03D-01  1.11D+00
 E= -2048.75278990433     Delta-E=       -0.000000872008 Rises=F Damp=F
 DIIS: error= 1.52D-05 at cycle   5 NSaved=   5.
 NSaved= 5 IEnMin= 5 EnMin= -2048.75278990433     IErMin= 5 ErrMin= 1.52D-05
 ErrMax= 1.52D-05  0.00D+00 EMaxC= 1.00D-01 BMatC= 1.27D-07 BMatP= 5.19D-07
 IDIUse=1 WtCom= 1.00D+00 WtEn= 0.00D+00
 Coeff-Com: -0.400D-02-0.518D-01-0.117D+00 0.212D+00 0.960D+00
 Coeff:     -0.400D-02-0.518D-01-0.117D+00 0.212D+00 0.960D+00
 Gap=     0.284 Goal=   None    Shift=    0.000
 RMSDP=1.21D-06 MaxDP=6.54D-05 DE=-8.72D-07 OVMax= 2.61D-04

 Cycle  11  Pass 1  IDiag  1:
 RMSU=  4.98D-07    CP:  1.00D+00  1.06D+00  8.11D-01  1.38D+00  1.16D+00
 E= -2048.75279016890     Delta-E=       -0.000000264568 Rises=F Damp=F
 DIIS: error= 7.91D-06 at cycle   6 NSaved=   6.
 NSaved= 6 IEnMin= 6 EnMin= -2048.75279016890     IErMin= 6 ErrMin= 7.91D-06
 ErrMax= 7.91D-06  0.00D+00 EMaxC= 1.00D-01 BMatC= 3.06D-08 BMatP= 1.27D-07
 IDIUse=1 WtCom= 1.00D+00 WtEn= 0.00D+00
 Coeff-Com:  0.472D-02-0.433D-01-0.116D+00-0.230D-02 0.518D+00 0.639D+00
 Coeff:      0.472D-02-0.433D-01-0.116D+00-0.230D-02 0.518D+00 0.639D+00
 Gap=     0.284 Goal=   None    Shift=    0.000
 RMSDP=3.85D-07 MaxDP=2.98D-05 DE=-2.65D-07 OVMax= 1.34D-04

 Cycle  12  Pass 1  IDiag  1:
 RMSU=  1.89D-07    CP:  1.00D+00  1.06D+00  8.12D-01  1.46D+00  1.30D+00
                    CP:  9.34D-01
 E= -2048.75279021375     Delta-E=       -0.000000044849 Rises=F Damp=F
 DIIS: error= 1.47D-06 at cycle   7 NSaved=   7.
 NSaved= 7 IEnMin= 7 EnMin= -2048.75279021375     IErMin= 7 ErrMin= 1.47D-06
 ErrMax= 1.47D-06  0.00D+00 EMaxC= 1.00D-01 BMatC= 8.63D-10 BMatP= 3.06D-08
 IDIUse=1 WtCom= 1.00D+00 WtEn= 0.00D+00
 Coeff-Com:  0.125D-02-0.801D-02-0.233D-01-0.851D-02 0.690D-01 0.151D+00
 Coeff-Com:  0.819D+00
 Coeff:      0.125D-02-0.801D-02-0.233D-01-0.851D-02 0.690D-01 0.151D+00
 Coeff:      0.819D+00
 Gap=     0.284 Goal=   None    Shift=    0.000
 RMSDP=8.50D-08 MaxDP=4.06D-06 DE=-4.48D-08 OVMax= 2.35D-05

 Cycle  13  Pass 1  IDiag  1:
 RMSU=  5.19D-08    CP:  1.00D+00  1.06D+00  8.11D-01  1.47D+00  1.31D+00
                    CP:  1.02D+00  1.13D+00
 E= -2048.75279021577     Delta-E=       -0.000000002018 Rises=F Damp=F
 DIIS: error= 5.17D-07 at cycle   8 NSaved=   8.
 NSaved= 8 IEnMin= 8 EnMin= -2048.75279021577     IErMin= 8 ErrMin= 5.17D-07
 ErrMax= 5.17D-07  0.00D+00 EMaxC= 1.00D-01 BMatC= 3.32D-10 BMatP= 8.63D-10
 IDIUse=1 WtCom= 1.00D+00 WtEn= 0.00D+00
 Coeff-Com: -0.712D-03 0.832D-02 0.211D-01-0.155D-02-0.111D+00-0.102D+00
 Coeff-Com:  0.402D+00 0.784D+00
 Coeff:     -0.712D-03 0.832D-02 0.211D-01-0.155D-02-0.111D+00-0.102D+00
 Coeff:      0.402D+00 0.784D+00
 Gap=     0.284 Goal=   None    Shift=    0.000
 RMSDP=4.85D-08 MaxDP=2.37D-06 DE=-2.02D-09 OVMax= 1.20D-05

 Cycle  14  Pass 1  IDiag  1:
 RMSU=  2.74D-08    CP:  1.00D+00  1.06D+00  8.11D-01  1.47D+00  1.32D+00
                    CP:  1.06D+00  1.28D+00  1.07D+00
 E= -2048.75279021608     Delta-E=       -0.000000000313 Rises=F Damp=F
 DIIS: error= 1.60D-07 at cycle   9 NSaved=   9.
 NSaved= 9 IEnMin= 9 EnMin= -2048.75279021608     IErMin= 9 ErrMin= 1.60D-07
 ErrMax= 1.60D-07  0.00D+00 EMaxC= 1.00D-01 BMatC= 2.66D-11 BMatP= 3.32D-10
 IDIUse=1 WtCom= 1.00D+00 WtEn= 0.00D+00
 Coeff-Com: -0.410D-03 0.414D-02 0.108D-01 0.325D-03-0.505D-01-0.562D-01
 Coeff-Com:  0.773D-01 0.291D+00 0.723D+00
 Coeff:     -0.410D-03 0.414D-02 0.108D-01 0.325D-03-0.505D-01-0.562D-01
 Coeff:      0.773D-01 0.291D+00 0.723D+00
 Gap=     0.284 Goal=   None    Shift=    0.000
 RMSDP=1.31D-08 MaxDP=6.77D-07 DE=-3.13D-10 OVMax= 3.34D-06

 Cycle  15  Pass 1  IDiag  1:
 RMSU=  9.00D-09    CP:  1.00D+00  1.06D+00  8.11D-01  1.47D+00  1.32D+00
                    CP:  1.07D+00  1.31D+00  1.20D+00  1.12D+00
 E= -2048.75279021605     Delta-E=        0.000000000035 Rises=F Damp=F
 DIIS: error= 6.75D-08 at cycle  10 NSaved=  10.
 NSaved=10 IEnMin= 9 EnMin= -2048.75279021608     IErMin=10 ErrMin= 6.75D-08
 ErrMax= 6.75D-08  0.00D+00 EMaxC= 1.00D-01 BMatC= 4.28D-12 BMatP= 2.66D-11
 IDIUse=1 WtCom= 1.00D+00 WtEn= 0.00D+00
 Coeff-Com:  0.149D-04-0.384D-03-0.874D-03 0.150D-03 0.647D-02 0.276D-02
 Coeff-Com: -0.504D-01-0.694D-01 0.241D+00 0.871D+00
 Coeff:      0.149D-04-0.384D-03-0.874D-03 0.150D-03 0.647D-02 0.276D-02
 Coeff:     -0.504D-01-0.694D-01 0.241D+00 0.871D+00
 Gap=     0.284 Goal=   None    Shift=    0.000
 RMSDP=6.28D-09 MaxDP=3.13D-07 DE= 3.46D-11 OVMax= 1.39D-06

 SCF Done:  E(RwB97XD) =  -2048.75279022     A.U. after   15 cycles
            NFock= 15  Conv=0.63D-08     -V/T= 2.0054
 KE= 2.037720036122D+03 PE=-1.581238696969D+04 EE= 6.210225321470D+03
 Leave Link  502 at Thu Jan 18 00:06:24 2018, MaxMem=  4294967296 cpu:           21499.8 elap:             699.0
 (Enter /share/apps/g16/l601.exe)
 Copying SCF densities to generalized density rwf, IOpCl= 0 IROHF=0.

 **********************************************************************

            Population analysis using the SCF density.

 **********************************************************************

 Orbital symmetries:
       Occupied  (A) (A) (A) (A) (A) (A) (A) (A) (A) (A) (A) (A)
                 (A) (A) (A) (A) (A) (A) (A) (A) (A) (A) (A) (A)
                 (A) (A) (A) (A) (A) (A) (A) (A) (A) (A) (A) (A)
                 (A) (A) (A) (A) (A) (A) (A) (A) (A) (A) (A) (A)
                 (A) (A) (A) (A) (A) (A) (A) (A) (A) (A) (A) (A)
                 (A) (A) (A) (A) (A) (A) (A) (A) (A) (A) (A) (A)
                 (A) (A) (A) (A) (A) (A) (A) (A) (A) (A) (A) (A)
                 (A) (A) (A) (A) (A) (A) (A) (A) (A) (A) (A) (A)
                 (A) (A) (A) (A) (A) (A) (A) (A) (A) (A) (A) (A)
                 (A) (A) (A) (A) (A) (A) (A) (A) (A) (A) (A) (A)
                 (A) (A) (A) (A) (A) (A) (A) (A) (A) (A) (A) (A)
                 (A) (A) (A) (A) (A) (A) (A) (A) (A) (A) (A) (A)
                 (A) (A) (A) (A) (A) (A) (A) (A) (A) (A)
       Virtual   (A) (A) (A) (A) (A) (A) (A) (A) (A) (A) (A) (A)
                 (A) (A) (A) (A) (A) (A) (A) (A) (A) (A) (A) (A)
                 (A) (A) (A) (A) (A) (A) (A) (A) (A) (A) (A) (A)
                 (A) (A) (A) (A) (A) (A) (A) (A) (A) (A) (A) (A)
                 (A) (A) (A) (A) (A) (A) (A) (A) (A) (A) (A) (A)
                 (A) (A) (A) (A) (A) (A) (A) (A) (A) (A) (A) (A)
                 (A) (A) (A) (A) (A) (A) (A) (A) (A) (A) (A) (A)
                 (A) (A) (A) (A) (A) (A) (A) (A) (A) (A) (A) (A)
                 (A) (A) (A) (A) (A) (A) (A) (A) (A) (A) (A) (A)
                 (A) (A) (A) (A) (A) (A) (A) (A) (A) (A) (A) (A)
                 (A) (A) (A) (A) (A) (A) (A) (A) (A) (A) (A) (A)
                 (A) (A) (A) (A) (A) (A) (A) (A) (A) (A) (A) (A)
                 (A) (A) (A) (A) (A) (A) (A) (A) (A) (A) (A) (A)
                 (A) (A) (A) (A) (A) (A) (A) (A) (A) (A) (A) (A)
                 (A) (A) (A) (A) (A) (A) (A) (A) (A) (A) (A) (A)
                 (A) (A) (A) (A) (A) (A) (A) (A) (A) (A) (A) (A)
                 (A) (A) (A) (A) (A) (A) (A) (A) (A) (A) (A) (A)
                 (A) (A) (A) (A) (A) (A) (A) (A) (A) (A) (A) (A)
                 (A) (A) (A) (A) (A) (A) (A) (A) (A) (A) (A) (A)
                 (A) (A) (A) (A) (A) (A) (A) (A) (A) (A) (A) (A)
                 (A) (A) (A) (A) (A) (A) (A) (A) (A) (A) (A) (A)
                 (A) (A) (A) (A) (A) (A) (A) (A) (A) (A) (A) (A)
                 (A) (A) (A) (A) (A) (A) (A) (A) (A) (A) (A) (A)
                 (A) (A) (A) (A) (A) (A) (A) (A) (A) (A) (A) (A)
                 (A) (A) (A) (A) (A) (A) (A) (A) (A) (A) (A) (A)
                 (A) (A) (A) (A) (A) (A) (A) (A) (A) (A) (A) (A)
                 (A) (A) (A) (A) (A) (A) (A) (A) (A) (A) (A) (A)
                 (A) (A) (A) (A) (A) (A) (A) (A) (A) (A) (A) (A)
                 (A) (A) (A) (A) (A) (A) (A) (A) (A) (A) (A) (A)
                 (A) (A) (A) (A) (A) (A) (A) (A) (A) (A) (A) (A)
                 (A) (A) (A) (A) (A) (A) (A) (A) (A) (A) (A) (A)
                 (A) (A) (A) (A) (A) (A) (A) (A) (A) (A) (A) (A)
                 (A) (A) (A) (A) (A) (A) (A) (A) (A) (A) (A) (A)
                 (A) (A) (A) (A) (A) (A) (A) (A) (A) (A) (A) (A)
                 (A) (A) (A) (A) (A) (A) (A) (A) (A) (A) (A) (A)
                 (A) (A) (A) (A) (A) (A) (A) (A) (A) (A) (A) (A)
                 (A) (A) (A) (A) (A) (A) (A) (A) (A) (A) (A) (A)
                 (A) (A) (A) (A) (A) (A) (A) (A) (A) (A) (A) (A)
                 (A) (A) (A) (A) (A) (A) (A) (A) (A) (A) (A) (A)
                 (A) (A) (A) (A) (A) (A) (A) (A) (A) (A) (A) (A)
                 (A) (A) (A) (A) (A) (A) (A) (A) (A) (A) (A) (A)
                 (A) (A) (A) (A) (A) (A) (A) (A) (A) (A) (A) (A)
                 (A) (A) (A) (A) (A) (A) (A) (A) (A) (A) (A) (A)
                 (A) (A) (A) (A) (A) (A) (A) (A) (A) (A) (A) (A)
                 (A) (A) (A) (A) (A) (A) (A) (A) (A) (A) (A) (A)
                 (A) (A) (A) (A) (A) (A) (A) (A) (A) (A) (A) (A)
                 (A) (A) (A) (A) (A) (A) (A) (A) (A) (A) (A) (A)
                 (A) (A) (A) (A) (A) (A) (A) (A) (A) (A) (A) (A)
                 (A) (A) (A) (A) (A) (A) (A)
 The electronic state is 1-A.
 Alpha  occ. eigenvalues --  -19.25989 -19.22055 -19.20659 -14.52547 -14.51128
 Alpha  occ. eigenvalues --  -14.49888 -14.48550 -14.47831 -14.46883 -14.46639
 Alpha  occ. eigenvalues --  -14.45745 -14.43918 -14.42765 -14.42631 -14.42576
 Alpha  occ. eigenvalues --  -14.42466 -14.41982 -14.41901 -14.41019 -14.40751
 Alpha  occ. eigenvalues --  -10.45570 -10.41180 -10.40099 -10.38244 -10.37942
 Alpha  occ. eigenvalues --  -10.37511 -10.36599 -10.36267 -10.35894 -10.35580
 Alpha  occ. eigenvalues --  -10.35209 -10.34448 -10.34293 -10.34244 -10.33961
 Alpha  occ. eigenvalues --  -10.33155 -10.33140 -10.31919 -10.30921 -10.30903
 Alpha  occ. eigenvalues --  -10.30377 -10.29628 -10.28060  -1.19553  -1.13749
 Alpha  occ. eigenvalues --   -1.13211  -1.13025  -1.12482  -1.10499  -1.09422
 Alpha  occ. eigenvalues --   -1.08564  -1.07331  -1.05898  -1.02846  -1.02539
 Alpha  occ. eigenvalues --   -1.01301  -0.99722  -0.99450  -0.98490  -0.97987
 Alpha  occ. eigenvalues --   -0.96410  -0.94993  -0.93492  -0.90948  -0.86187
 Alpha  occ. eigenvalues --   -0.84981  -0.84691  -0.84023  -0.83927  -0.83310
 Alpha  occ. eigenvalues --   -0.82214  -0.78858  -0.75398  -0.74510  -0.73829
 Alpha  occ. eigenvalues --   -0.73619  -0.73369  -0.73132  -0.72008  -0.68738
 Alpha  occ. eigenvalues --   -0.67323  -0.67220  -0.66566  -0.65039  -0.64444
 Alpha  occ. eigenvalues --   -0.63693  -0.63609  -0.62608  -0.62570  -0.61666
 Alpha  occ. eigenvalues --   -0.61020  -0.60586  -0.59522  -0.58963  -0.58325
 Alpha  occ. eigenvalues --   -0.58116  -0.57976  -0.57545  -0.57252  -0.56391
 Alpha  occ. eigenvalues --   -0.56085  -0.56015  -0.54706  -0.54401  -0.54006
 Alpha  occ. eigenvalues --   -0.53571  -0.53556  -0.52858  -0.52783  -0.52724
 Alpha  occ. eigenvalues --   -0.52201  -0.51984  -0.51688  -0.51355  -0.51066
 Alpha  occ. eigenvalues --   -0.50078  -0.49943  -0.49468  -0.48772  -0.48582
 Alpha  occ. eigenvalues --   -0.48318  -0.48208  -0.47896  -0.47846  -0.47796
 Alpha  occ. eigenvalues --   -0.47394  -0.45882  -0.45156  -0.44000  -0.43008
 Alpha  occ. eigenvalues --   -0.42034  -0.39549  -0.39221  -0.38154  -0.37257
 Alpha  occ. eigenvalues --   -0.37172  -0.36525  -0.35997  -0.35584  -0.34609
 Alpha  occ. eigenvalues --   -0.34476  -0.34295  -0.33250  -0.33013  -0.32713
 Alpha  occ. eigenvalues --   -0.32609  -0.32281  -0.31935  -0.31868  -0.31676
 Alpha  occ. eigenvalues --   -0.31213  -0.28008  -0.26628  -0.25401
 Alpha virt. eigenvalues --    0.03008   0.05701   0.06948   0.08117   0.08940
 Alpha virt. eigenvalues --    0.09172   0.09736   0.10237   0.10793   0.12283
 Alpha virt. eigenvalues --    0.13061   0.13272   0.14472   0.14805   0.15215
 Alpha virt. eigenvalues --    0.15942   0.16469   0.17580   0.17706   0.18500
 Alpha virt. eigenvalues --    0.18860   0.19012   0.19439   0.19812   0.20286
 Alpha virt. eigenvalues --    0.20635   0.21068   0.21397   0.21988   0.22583
 Alpha virt. eigenvalues --    0.22868   0.23033   0.23131   0.23386   0.23548
 Alpha virt. eigenvalues --    0.23782   0.24142   0.24617   0.25085   0.25751
 Alpha virt. eigenvalues --    0.26019   0.26638   0.26829   0.27631   0.28032
 Alpha virt. eigenvalues --    0.28108   0.29135   0.29765   0.29953   0.30741
 Alpha virt. eigenvalues --    0.31398   0.32245   0.32933   0.33228   0.33763
 Alpha virt. eigenvalues --    0.34098   0.35028   0.35130   0.35942   0.36324
 Alpha virt. eigenvalues --    0.36823   0.37566   0.38143   0.38720   0.39607
 Alpha virt. eigenvalues --    0.40195   0.40816   0.41222   0.41424   0.41973
 Alpha virt. eigenvalues --    0.42240   0.42450   0.43101   0.43764   0.44384
 Alpha virt. eigenvalues --    0.45171   0.45580   0.45940   0.46156   0.46630
 Alpha virt. eigenvalues --    0.46734   0.48140   0.48559   0.49392   0.49773
 Alpha virt. eigenvalues --    0.50171   0.50501   0.50685   0.50926   0.51046
 Alpha virt. eigenvalues --    0.51414   0.51733   0.52618   0.53380   0.53590
 Alpha virt. eigenvalues --    0.53986   0.54462   0.54971   0.55047   0.55635
 Alpha virt. eigenvalues --    0.56078   0.56595   0.56821   0.57414   0.57603
 Alpha virt. eigenvalues --    0.57702   0.58375   0.58631   0.59593   0.59922
 Alpha virt. eigenvalues --    0.60375   0.60660   0.60798   0.61199   0.61354
 Alpha virt. eigenvalues --    0.61598   0.62126   0.62395   0.63278   0.63682
 Alpha virt. eigenvalues --    0.64155   0.64290   0.64899   0.65062   0.65482
 Alpha virt. eigenvalues --    0.65843   0.66394   0.66800   0.66936   0.67944
 Alpha virt. eigenvalues --    0.68196   0.68464   0.69124   0.69580   0.70065
 Alpha virt. eigenvalues --    0.70433   0.70493   0.70916   0.71465   0.71757
 Alpha virt. eigenvalues --    0.72376   0.73039   0.73323   0.73724   0.73814
 Alpha virt. eigenvalues --    0.74284   0.74709   0.75383   0.75555   0.75882
 Alpha virt. eigenvalues --    0.76179   0.76529   0.77093   0.77328   0.77377
 Alpha virt. eigenvalues --    0.77745   0.78346   0.78408   0.78985   0.79298
 Alpha virt. eigenvalues --    0.79437   0.80255   0.80390   0.80805   0.81283
 Alpha virt. eigenvalues --    0.81758   0.82180   0.82352   0.82845   0.83297
 Alpha virt. eigenvalues --    0.83489   0.84104   0.84546   0.84769   0.85393
 Alpha virt. eigenvalues --    0.86258   0.86526   0.87174   0.87330   0.87941
 Alpha virt. eigenvalues --    0.87999   0.88495   0.88994   0.89811   0.89943
 Alpha virt. eigenvalues --    0.90233   0.90520   0.91606   0.92015   0.92377
 Alpha virt. eigenvalues --    0.92568   0.93116   0.93257   0.93743   0.94036
 Alpha virt. eigenvalues --    0.94286   0.95362   0.96174   0.96864   0.96988
 Alpha virt. eigenvalues --    0.97336   0.97663   0.97823   0.98891   0.98956
 Alpha virt. eigenvalues --    0.99356   0.99910   1.00347   1.00687   1.01344
 Alpha virt. eigenvalues --    1.01595   1.02098   1.02477   1.03052   1.03704
 Alpha virt. eigenvalues --    1.04005   1.04226   1.04755   1.05165   1.05525
 Alpha virt. eigenvalues --    1.06048   1.06935   1.07675   1.08453   1.08655
 Alpha virt. eigenvalues --    1.09204   1.09830   1.10416   1.11372   1.11751
 Alpha virt. eigenvalues --    1.11837   1.12420   1.12991   1.13418   1.13655
 Alpha virt. eigenvalues --    1.14297   1.14579   1.14926   1.15394   1.15723
 Alpha virt. eigenvalues --    1.16299   1.16755   1.17234   1.17487   1.17638
 Alpha virt. eigenvalues --    1.18402   1.18801   1.19003   1.19693   1.20282
 Alpha virt. eigenvalues --    1.20461   1.21005   1.21262   1.21623   1.22056
 Alpha virt. eigenvalues --    1.22150   1.22301   1.22884   1.23313   1.23564
 Alpha virt. eigenvalues --    1.23888   1.24133   1.24791   1.25350   1.25695
 Alpha virt. eigenvalues --    1.26227   1.26683   1.27072   1.27674   1.28935
 Alpha virt. eigenvalues --    1.29542   1.30453   1.30745   1.31339   1.32087
 Alpha virt. eigenvalues --    1.32466   1.32843   1.33379   1.33925   1.34530
 Alpha virt. eigenvalues --    1.35438   1.35822   1.36192   1.36934   1.37370
 Alpha virt. eigenvalues --    1.38017   1.38149   1.39277   1.40118   1.40747
 Alpha virt. eigenvalues --    1.41902   1.42359   1.42650   1.44210   1.44472
 Alpha virt. eigenvalues --    1.44699   1.45240   1.46422   1.47390   1.47888
 Alpha virt. eigenvalues --    1.48742   1.48990   1.49823   1.50071   1.51510
 Alpha virt. eigenvalues --    1.52431   1.52917   1.53358   1.53939   1.54853
 Alpha virt. eigenvalues --    1.55163   1.55245   1.56477   1.57026   1.58162
 Alpha virt. eigenvalues --    1.58835   1.59828   1.60193   1.60749   1.61158
 Alpha virt. eigenvalues --    1.61269   1.62311   1.62796   1.63320   1.64116
 Alpha virt. eigenvalues --    1.64869   1.65258   1.65774   1.66809   1.66874
 Alpha virt. eigenvalues --    1.67336   1.67808   1.68588   1.69034   1.69450
 Alpha virt. eigenvalues --    1.69964   1.70411   1.70785   1.71129   1.71644
 Alpha virt. eigenvalues --    1.71682   1.72285   1.72803   1.73157   1.73864
 Alpha virt. eigenvalues --    1.73985   1.74481   1.74974   1.75477   1.75636
 Alpha virt. eigenvalues --    1.75732   1.75790   1.76868   1.77504   1.77583
 Alpha virt. eigenvalues --    1.77771   1.78188   1.78501   1.79044   1.79192
 Alpha virt. eigenvalues --    1.79278   1.79667   1.79849   1.80245   1.80587
 Alpha virt. eigenvalues --    1.80985   1.81355   1.81609   1.82587   1.82919
 Alpha virt. eigenvalues --    1.83174   1.83522   1.83718   1.84203   1.84904
 Alpha virt. eigenvalues --    1.85326   1.86131   1.86502   1.86939   1.87240
 Alpha virt. eigenvalues --    1.87486   1.88717   1.88753   1.89374   1.89912
 Alpha virt. eigenvalues --    1.90569   1.90977   1.91356   1.91686   1.91894
 Alpha virt. eigenvalues --    1.92611   1.93137   1.93245   1.93793   1.94184
 Alpha virt. eigenvalues --    1.95540   1.95579   1.96573   1.97003   1.97787
 Alpha virt. eigenvalues --    1.98032   1.99001   2.00189   2.00498   2.01242
 Alpha virt. eigenvalues --    2.01648   2.02371   2.02976   2.03282   2.03812
 Alpha virt. eigenvalues --    2.04988   2.06186   2.06501   2.06770   2.07026
 Alpha virt. eigenvalues --    2.08060   2.09010   2.09261   2.09631   2.10792
 Alpha virt. eigenvalues --    2.10881   2.11126   2.12768   2.12906   2.13071
 Alpha virt. eigenvalues --    2.13366   2.14953   2.15645   2.17260   2.17828
 Alpha virt. eigenvalues --    2.19818   2.20121   2.20786   2.20984   2.21535
 Alpha virt. eigenvalues --    2.21920   2.22418   2.22569   2.23392   2.23975
 Alpha virt. eigenvalues --    2.24188   2.24891   2.26246   2.26690   2.27297
 Alpha virt. eigenvalues --    2.27533   2.28018   2.28682   2.29256   2.29489
 Alpha virt. eigenvalues --    2.29811   2.30463   2.31408   2.32118   2.32936
 Alpha virt. eigenvalues --    2.33165   2.33612   2.33784   2.34093   2.34852
 Alpha virt. eigenvalues --    2.35054   2.35547   2.36287   2.37335   2.37406
 Alpha virt. eigenvalues --    2.37769   2.39546   2.40116   2.40809   2.41005
 Alpha virt. eigenvalues --    2.41916   2.42571   2.43028   2.43711   2.44325
 Alpha virt. eigenvalues --    2.44714   2.45608   2.46576   2.46706   2.47175
 Alpha virt. eigenvalues --    2.47434   2.48720   2.49168   2.49732   2.51868
 Alpha virt. eigenvalues --    2.52652   2.54254   2.55054   2.55422   2.55970
 Alpha virt. eigenvalues --    2.57263   2.57752   2.57923   2.58173   2.59972
 Alpha virt. eigenvalues --    2.60596   2.60675   2.62049   2.62610   2.63640
 Alpha virt. eigenvalues --    2.64358   2.65317   2.65604   2.65992   2.66916
 Alpha virt. eigenvalues --    2.67727   2.67872   2.68243   2.68958   2.69341
 Alpha virt. eigenvalues --    2.69771   2.70976   2.71648   2.72185   2.72658
 Alpha virt. eigenvalues --    2.74102   2.74405   2.74874   2.75119   2.76070
 Alpha virt. eigenvalues --    2.77835   2.78926   2.78989   2.79194   2.79890
 Alpha virt. eigenvalues --    2.80257   2.80965   2.81332   2.81482   2.81930
 Alpha virt. eigenvalues --    2.82337   2.82622   2.83104   2.83572   2.84685
 Alpha virt. eigenvalues --    2.85472   2.85818   2.86506   2.86990   2.87171
 Alpha virt. eigenvalues --    2.88012   2.88331   2.89377   2.92035   2.92510
 Alpha virt. eigenvalues --    2.94138   2.96776   2.97117   2.98079   2.99119
 Alpha virt. eigenvalues --    3.00017   3.01019   3.01408   3.05143   3.06298
 Alpha virt. eigenvalues --    3.06435   3.09869   3.10835   3.14162   3.14485
 Alpha virt. eigenvalues --    3.15493   3.15662   3.15934   3.17679   3.19952
 Alpha virt. eigenvalues --    3.22890   3.23050   3.23924   3.24188   3.27024
 Alpha virt. eigenvalues --    3.46085   3.46848   3.47838   3.50129   3.51053
 Alpha virt. eigenvalues --    3.52777   3.54732   3.56317   3.58120   3.60021
 Alpha virt. eigenvalues --    3.62782   3.71089   3.74604
          Condensed to atoms (all electrons):
 Mulliken charges:
               1
     1  N   -0.310328
     2  C    0.180189
     3  C    0.033193
     4  N   -0.253129
     5  C    0.127780
     6  H    0.029386
     7  N   -0.278933
     8  C    0.131460
     9  H    0.017931
    10  N   -0.290945
    11  C    0.235948
    12  C    0.092491
    13  N   -0.034024
    14  H    0.108658
    15  H    0.089587
    16  H    0.028899
    17  H    0.036184
    18  H    0.024878
    19  N   -0.302667
    20  C    0.255094
    21  C    0.184308
    22  N   -0.119341
    23  H    0.113342
    24  H    0.117881
    25  N   -0.305460
    26  C    0.239485
    27  N   -0.132288
    28  H    0.118231
    29  C    0.165810
    30  O   -0.325816
    31  C   -0.006690
    32  N   -0.228852
    33  C    0.121873
    34  H    0.027496
    35  H    0.024690
    36  H    0.028223
    37  H    0.021216
    38  H    0.052947
    39  H    0.065172
    40  H    0.076337
    41  H    0.028370
    42  C   -0.071270
    43  O   -0.273565
    44  C    0.180170
    45  H    0.134430
    46  N   -0.126932
    47  O   -0.349028
    48  C    0.342676
    49  H    0.042343
    50  C    0.152950
    51  C    0.036791
    52  N   -0.285457
    53  H    0.031915
    54  H    0.038983
    55  H    0.007308
    56  H    0.116924
    57  H    0.120510
    58  N   -0.045061
    59  C    0.123411
    60  C    0.231323
    61  N   -0.276704
    62  H    0.032742
    63  C    0.159981
    64  N   -0.305607
    65  H    0.023820
    66  C    0.118545
    67  N   -0.246717
    68  C    0.012795
    69  C    0.185184
    70  N   -0.301047
 Sum of Mulliken charges =  -0.00000
 Mulliken charges with hydrogens summed into heavy atoms:
               1
     1  N   -0.310328
     2  C    0.270150
     3  C    0.033193
     4  N   -0.253129
     5  C    0.157166
     7  N   -0.278933
     8  C    0.149391
    10  N   -0.290945
    11  C    0.235948
    12  C    0.092491
    13  N    0.164222
    19  N   -0.302667
    20  C    0.255094
    21  C    0.258437
    22  N    0.111882
    25  N   -0.305460
    26  C    0.239485
    27  N   -0.014057
    29  C    0.165810
    30  O   -0.325816
    31  C   -0.006690
    32  N   -0.228852
    33  C    0.149369
    42  C   -0.042900
    43  O   -0.273565
    44  C    0.180170
    46  N    0.007498
    47  O   -0.349028
    48  C    0.342676
    50  C    0.195293
    51  C    0.231247
    52  N   -0.285457
    58  N    0.192373
    59  C    0.123411
    60  C    0.231323
    61  N   -0.276704
    63  C    0.192723
    64  N   -0.305607
    66  C    0.142365
    67  N   -0.246717
    68  C    0.012795
    69  C    0.263391
    70  N   -0.301047
 Electronic spatial extent (au):  <R**2>=          23463.7772
 Charge=             -0.0000 electrons
 Dipole moment (field-independent basis, Debye):
    X=              4.5376    Y=              5.2189    Z=              4.8345  Tot=              8.4379
 Quadrupole moment (field-independent basis, Debye-Ang):
   XX=           -141.0307   YY=           -226.8810   ZZ=           -255.2231
   XY=             11.0835   XZ=             23.7177   YZ=              4.1462
 Traceless Quadrupole moment (field-independent basis, Debye-Ang):
   XX=             66.6809   YY=            -19.1694   ZZ=            -47.5115
   XY=             11.0835   XZ=             23.7177   YZ=              4.1462
 Octapole moment (field-independent basis, Debye-Ang**2):
  XXX=            -33.5563  YYY=             35.8530  ZZZ=             67.5310  XYY=             16.7009
  XXY=            106.8146  XXZ=             26.8270  XZZ=             50.3739  YZZ=             38.4781
  YYZ=              8.6309  XYZ=             21.0782
 Hexadecapole moment (field-independent basis, Debye-Ang**3):
 XXXX=         -16551.8439 YYYY=          -3866.4720 ZZZZ=          -3218.6705 XXXY=            431.5598
 XXXZ=            423.3270 YYYX=             22.8063 YYYZ=            235.9537 ZZZX=            250.3161
 ZZZY=             16.5282 XXYY=          -4548.4835 XXZZ=          -4365.0812 YYZZ=          -1228.2937
 XXYZ=            -33.6937 YYXZ=             45.6286 ZZXY=             71.4454
 N-N= 5.515688821880D+03 E-N=-1.581238695983D+04  KE= 2.037720036122D+03
 No NMR shielding tensors so no spin-rotation constants.
 Leave Link  601 at Thu Jan 18 00:06:26 2018, MaxMem=  4294967296 cpu:              49.7 elap:               1.7
 (Enter /share/apps/g16/l9999.exe)
 1\1\GINC-COMPUTE-0-3\SP\RwB97XD\CC-pVDZ\C23H27N17O3\SATYA\18-Jan-2018\
 0\\#p wb97xd/cc-pvdz sp scf=(maxcycles=20)\\Base pair stacking\\0,1\N,
 0,2.52944,9.62181,-6.36977\C,0,2.07958,10.98177,-6.72494\C,0,2.63451,7
 .44208,-6.09584\N,0,3.81651,7.95525,-5.58176\C,0,3.7059,9.24791,-5.767
 37\H,0,4.45963,9.98208,-5.48129\N,0,0.92321,5.96321,-6.76465\C,0,0.261
 69,7.0434,-7.19261\H,0,-0.71189,6.84583,-7.63913\N,0,0.62055,8.32499,-
 7.15199\C,0,1.83116,8.45733,-6.58513\C,0,2.13868,6.12966,-6.19897\N,0,
 2.80057,5.0526,-5.77116\H,0,3.70324,5.12872,-5.34618\H,0,2.41693,4.133
 4,-5.86082\H,0,2.72941,11.39293,-7.36435\H,0,1.17739,10.93415,-7.15261
 \H,0,2.02604,11.54361,-5.89943\N,0,-0.03721,6.8915,-3.39988\C,0,-0.550
 37,5.61872,-3.46882\C,0,-0.79679,8.13292,-3.6501\N,0,-3.22766,3.48205,
 -4.04201\H,0,-3.39933,2.49728,-4.03857\H,0,-4.00066,4.07659,-4.26494\N
 ,0,-1.82448,5.29097,-3.77427\C,0,-2.01565,3.98373,-3.76046\N,0,-1.0354
 2,3.06597,-3.47\H,0,-1.27212,2.08579,-3.48316\C,0,0.2823,3.38056,-3.15
 294\O,0,1.0893,2.47566,-2.90673\C,0,0.50294,4.78131,-3.16376\N,0,1.654
 22,5.51362,-2.90844\C,0,1.28681,6.75711,-3.05995\H,0,1.94401,7.61839,-
 2.93522\H,0,-0.38371,8.63057,-4.41201\H,0,-1.74211,7.90267,-3.87734\H,
 0,-0.78197,8.70552,-2.83113\H,0,-2.92545,-2.64457,-4.3451\H,0,-3.10218
 ,-2.67968,-2.59234\H,0,-3.32052,-1.16508,-3.46966\H,0,1.6451,-3.33795,
 -3.01249\C,0,0.91605,-2.5296,-3.06981\O,0,2.53556,-0.80763,-2.87202\C,
 0,1.3671,-1.17346,-2.99717\H,0,0.64365,0.74063,-3.03178\N,0,0.36387,-0
 .229,-3.07941\O,0,-1.79556,0.44355,-3.28368\C,0,-0.98153,-0.46085,-3.2
 1971\H,0,-0.78408,-3.80105,-3.26671\C,0,-0.38985,-2.78748,-3.20666\C,0
 ,-2.76522,-2.09048,-3.43221\N,0,-1.33793,-1.79361,-3.28234\H,0,-2.5530
 8,-1.05647,-7.9144\H,0,-2.82255,0.31703,-7.07596\H,0,-2.97475,-1.13166
 ,-6.33961\H,0,3.84597,1.57033,-5.22783\H,0,3.52868,-0.09775,-5.39188\N
 ,0,3.192,0.8434,-5.43766\C,0,1.92694,1.11586,-5.76412\C,0,-0.30308,0.5
 6882,-6.3882\N,0,-0.72743,1.84219,-6.44177\H,0,0.00402,3.73531,-6.1559
 8\C,0,0.26336,2.67766,-6.13646\N,0,1.53107,2.40673,-5.80922\H,0,-0.493
 88,-2.6521,-6.5918\C,0,-0.1723,-1.61902,-6.45665\N,0,1.03914,-1.25435,
 -6.11443\C,0,0.96991,0.13047,-6.06747\C,0,-2.46046,-0.61313,-7.02285\N
 ,0,-1.0363,-0.56682,-6.63863\\Version=EM64L-G16RevA.03\State=1-A\HF=-2
 048.7527902\RMSD=6.284e-09\Dipole=-2.9995031,-1.2633453,-0.6538814\Qua
 drupole=-6.2964038,42.3310411,-36.0346373,26.7849558,-7.2817841,2.6780
 196\PG=C01 [X(C23H27N17O3)]\\@


 I SUPPOSE A BABY LLAMA HAS A MMAMA AND A PPOPA.
     -- RICHARD AMOUR
 Job cpu time:       0 days  6 hours  8 minutes 37.9 seconds.
 Elapsed time:       0 days  0 hours 11 minutes 58.8 seconds.
 File lengths (MBytes):  RWF=    298 Int=      0 D2E=      0 Chk=     33 Scr=      1
 Normal termination of Gaussian 16 at Thu Jan 18 00:06:26 2018.
