 Entering Gaussian System, Link 0=g16
 Input=str10.-20.1.5.com
 Output=str10.-20.1.5.log
 Initial command:
 /share/apps/g16/l1.exe "/state/partition1/scr/Gau-29186.inp" -scrdir="/state/partition1/scr/"
 Entering Link 1 = /share/apps/g16/l1.exe PID=     29187.
  
 Copyright (c) 1988,1990,1992,1993,1995,1998,2003,2009,2016,
            Gaussian, Inc.  All Rights Reserved.
  
 This is part of the Gaussian(R) 16 program.  It is based on
 the Gaussian(R) 09 system (copyright 2009, Gaussian, Inc.),
 the Gaussian(R) 03 system (copyright 2003, Gaussian, Inc.),
 the Gaussian(R) 98 system (copyright 1998, Gaussian, Inc.),
 the Gaussian(R) 94 system (copyright 1995, Gaussian, Inc.),
 the Gaussian 92(TM) system (copyright 1992, Gaussian, Inc.),
 the Gaussian 90(TM) system (copyright 1990, Gaussian, Inc.),
 the Gaussian 88(TM) system (copyright 1988, Gaussian, Inc.),
 the Gaussian 86(TM) system (copyright 1986, Carnegie Mellon
 University), and the Gaussian 82(TM) system (copyright 1983,
 Carnegie Mellon University). Gaussian is a federally registered
 trademark of Gaussian, Inc.
  
 This software contains proprietary and confidential information,
 including trade secrets, belonging to Gaussian, Inc.
  
 This software is provided under written license and may be
 used, copied, transmitted, or stored only in accord with that
 written license.
  
 The following legend is applicable only to US Government
 contracts under FAR:
  
                    RESTRICTED RIGHTS LEGEND
  
 Use, reproduction and disclosure by the US Government is
 subject to restrictions as set forth in subparagraphs (a)
 and (c) of the Commercial Computer Software - Restricted
 Rights clause in FAR 52.227-19.
  
 Gaussian, Inc.
 340 Quinnipiac St., Bldg. 40, Wallingford CT 06492
  
  
 ---------------------------------------------------------------
 Warning -- This program may not be used in any manner that
 competes with the business of Gaussian, Inc. or will provide
 assistance to any competitor of Gaussian, Inc.  The licensee
 of this program is prohibited from giving any competitor of
 Gaussian, Inc. access to this program.  By using this program,
 the user acknowledges that Gaussian, Inc. is engaged in the
 business of creating and licensing software in the field of
 computational chemistry and represents and warrants to the
 licensee that it is not a competitor of Gaussian, Inc. and that
 it will not use this program in any manner prohibited above.
 ---------------------------------------------------------------
  

 Cite this work as:
 Gaussian 16, Revision A.03,
 M. J. Frisch, G. W. Trucks, H. B. Schlegel, G. E. Scuseria, 
 M. A. Robb, J. R. Cheeseman, G. Scalmani, V. Barone, 
 G. A. Petersson, H. Nakatsuji, X. Li, M. Caricato, A. V. Marenich, 
 J. Bloino, B. G. Janesko, R. Gomperts, B. Mennucci, H. P. Hratchian, 
 J. V. Ortiz, A. F. Izmaylov, J. L. Sonnenberg, D. Williams-Young, 
 F. Ding, F. Lipparini, F. Egidi, J. Goings, B. Peng, A. Petrone, 
 T. Henderson, D. Ranasinghe, V. G. Zakrzewski, J. Gao, N. Rega, 
 G. Zheng, W. Liang, M. Hada, M. Ehara, K. Toyota, R. Fukuda, 
 J. Hasegawa, M. Ishida, T. Nakajima, Y. Honda, O. Kitao, H. Nakai, 
 T. Vreven, K. Throssell, J. A. Montgomery, Jr., J. E. Peralta, 
 F. Ogliaro, M. J. Bearpark, J. J. Heyd, E. N. Brothers, K. N. Kudin, 
 V. N. Staroverov, T. A. Keith, R. Kobayashi, J. Normand, 
 K. Raghavachari, A. P. Rendell, J. C. Burant, S. S. Iyengar, 
 J. Tomasi, M. Cossi, J. M. Millam, M. Klene, C. Adamo, R. Cammi, 
 J. W. Ochterski, R. L. Martin, K. Morokuma, O. Farkas, 
 J. B. Foresman, and D. J. Fox, Gaussian, Inc., Wallingford CT, 2016.
 
 ******************************************
 Gaussian 16:  EM64L-G16RevA.03 25-Dec-2016
                18-Jan-2018 
 ******************************************
 %nprocshared=32
 Will use up to   32 processors via shared memory.
 %mem=32GB
 %chk=allatoms_t.chk
 ---------------------------------------
 #p wb97xd/cc-pvdz sp scf=(maxcycles=20)
 ---------------------------------------
 1/38=1,172=1/1;
 2/12=2,17=6,18=5,40=1/2;
 3/5=16,11=2,25=1,30=1,74=-58/1,2,3;
 4//1;
 5/5=2,7=20,38=5/2;
 6/7=2,8=2,9=2,10=2,28=1/1;
 99/5=1,9=1/99;
 Leave Link    1 at Thu Jan 18 08:03:01 2018, MaxMem=  4294967296 cpu:               2.7 elap:               0.1
 (Enter /share/apps/g16/l101.exe)
 ------------------
 Base pair stacking
 ------------------
 Symbolic Z-matrix:
 Charge =  0 Multiplicity = 1
 N                    -1.85768   3.10394  -5.64572 
 C                    -2.26181   4.46525  -5.24383 
 C                    -1.78211   0.92261  -5.91668 
 N                    -0.67901   1.43503  -6.584 
 C                    -0.76869   2.72869  -6.39405 
 H                    -0.06115   3.46264  -6.78088 
 N                    -3.38664  -0.55567  -5.02051 
 C                    -3.9902    0.52589  -4.51699 
 H                    -4.89652   0.3291   -3.94592 
 N                    -3.64391   1.80802  -4.61252 
 C                    -2.51807   1.93931  -5.3334 
 C                    -2.25594  -0.39024  -5.74109 
 N                    -1.65202  -1.46866  -6.24454 
 H                    -0.81278  -1.39333  -6.78419 
 H                    -2.01765  -2.38813  -6.09953 
 H                    -2.42372   5.02082  -6.05949 
 H                    -3.10031   4.41845  -4.70175 
 H                    -1.53619   4.8828   -4.69689 
 N                    -1.16125   3.43756  -2.86843 
 C                    -1.65866   2.16435  -2.72849 
 C                    -1.92751   4.68171  -2.65483 
 N                    -4.297     0.0303   -1.98907 
 H                    -4.45804  -0.95521  -1.94342 
 H                    -5.07039   0.6269   -1.77308 
 N                    -2.92084   1.83859  -2.37519 
 C                    -3.09816   0.5303   -2.32477 
 N                    -2.11586  -0.39025  -2.599 
 H                    -2.34153  -1.37105  -2.53527 
 C                    -0.81024  -0.07774  -2.96446 
 O                    -0.00011  -0.9851   -3.19053 
 C                    -0.60456   1.32411  -3.02287 
 N                     0.53176   2.05509  -3.34121 
 C                     0.15495   3.30059  -3.23656 
 H                     0.79936   4.16159  -3.41738 
 H                    -1.94001   5.21653  -3.499 
 H                    -2.86411   4.45295  -2.39267 
 H                    -1.50032   5.2175   -1.92734 
 H                    -4.27035  -6.07373  -2.66638 
 H                    -3.5546   -6.18826  -1.06038 
 H                    -4.15835  -4.63832  -1.64735 
 H                     0.34896  -6.78283  -3.80907 
 C                    -0.30113  -5.97959  -3.46206 
 O                     1.22691  -4.25303  -4.01994 
 C                     0.14536  -4.62385  -3.56437 
 H                    -0.47319  -2.71696  -3.15271 
 N                    -0.75321  -3.68609  -3.09702 
 O                    -2.71983  -3.02535  -2.17343 
 C                    -1.99401  -3.92404  -2.561 
 H                    -1.89244  -7.25688  -2.84395 
 C                    -1.50629  -6.24333  -2.94376 
 C                    -3.67059  -5.55924  -1.93041 
 N                    -2.35305  -5.25599  -2.49597 
 H                    -6.85851  -7.54457  -3.68494 
 H                    -6.15612  -6.34641  -2.82868 
 H                    -5.75255  -7.90118  -2.53903 
 H                    -0.98297  -4.90412  -7.36891 
 H                    -1.44954  -6.54391  -7.42817 
 N                    -1.57307  -5.63558  -7.02703 
 C                    -2.48453  -5.4108   -6.0784 
 C                    -4.23201  -6.01808  -4.582 
 N                    -4.37577  -4.78811  -4.0615 
 H                    -3.56775  -2.91496  -4.25903 
 C                    -3.51818  -3.93961  -4.62496 
 N                    -2.60453  -4.16281  -5.57522 
 H                    -4.81652  -9.17056  -4.9972 
 C                    -4.43375  -8.15092  -5.04968 
 N                    -3.4752   -7.75509  -5.85104 
 C                    -3.33734  -6.40464  -5.56468 
 C                    -6.01203  -7.24317  -3.24604 
 N                    -4.93756  -7.15137  -4.25356 
 
 ITRead=  0  0  0  0  0  0  0  0  0  0  0  0  0  0  0  0  0  0  0  0
 ITRead=  0  0  0  0  0  0  0  0  0  0  0  0  0  0  0  0  0  0  0  0
 ITRead=  0  0  0  0  0  0  0  0  0  0  0  0  0  0  0  0  0  0  0  0
 ITRead=  0  0  0  0  0  0  0  0  0  0
 MicOpt= -1 -1 -1 -1 -1 -1 -1 -1 -1 -1 -1 -1 -1 -1 -1 -1 -1 -1 -1 -1
 MicOpt= -1 -1 -1 -1 -1 -1 -1 -1 -1 -1 -1 -1 -1 -1 -1 -1 -1 -1 -1 -1
 MicOpt= -1 -1 -1 -1 -1 -1 -1 -1 -1 -1 -1 -1 -1 -1 -1 -1 -1 -1 -1 -1
 MicOpt= -1 -1 -1 -1 -1 -1 -1 -1 -1 -1
 NAtoms=     70 NQM=       70 NQMF=       0 NMMI=      0 NMMIF=      0
                NMic=       0 NMicF=      0.
                    Isotopes and Nuclear Properties:
 (Nuclear quadrupole moments (NQMom) in fm**2, nuclear magnetic moments (NMagM)
  in nuclear magnetons)

  Atom         1           2           3           4           5           6           7           8           9          10
 IAtWgt=          14          12          12          14          12           1          14          12           1          14
 AtmWgt=  14.0030740  12.0000000  12.0000000  14.0030740  12.0000000   1.0078250  14.0030740  12.0000000   1.0078250  14.0030740
 NucSpn=           2           0           0           2           0           1           2           0           1           2
 AtZEff=  -0.0000000  -0.0000000  -0.0000000  -0.0000000  -0.0000000  -0.0000000  -0.0000000  -0.0000000  -0.0000000  -0.0000000
 NQMom=    2.0440000   0.0000000   0.0000000   2.0440000   0.0000000   0.0000000   2.0440000   0.0000000   0.0000000   2.0440000
 NMagM=    0.4037610   0.0000000   0.0000000   0.4037610   0.0000000   2.7928460   0.4037610   0.0000000   2.7928460   0.4037610
 AtZNuc=   7.0000000   6.0000000   6.0000000   7.0000000   6.0000000   1.0000000   7.0000000   6.0000000   1.0000000   7.0000000

  Atom        11          12          13          14          15          16          17          18          19          20
 IAtWgt=          12          12          14           1           1           1           1           1          14          12
 AtmWgt=  12.0000000  12.0000000  14.0030740   1.0078250   1.0078250   1.0078250   1.0078250   1.0078250  14.0030740  12.0000000
 NucSpn=           0           0           2           1           1           1           1           1           2           0
 AtZEff=  -0.0000000  -0.0000000  -0.0000000  -0.0000000  -0.0000000  -0.0000000  -0.0000000  -0.0000000  -0.0000000  -0.0000000
 NQMom=    0.0000000   0.0000000   2.0440000   0.0000000   0.0000000   0.0000000   0.0000000   0.0000000   2.0440000   0.0000000
 NMagM=    0.0000000   0.0000000   0.4037610   2.7928460   2.7928460   2.7928460   2.7928460   2.7928460   0.4037610   0.0000000
 AtZNuc=   6.0000000   6.0000000   7.0000000   1.0000000   1.0000000   1.0000000   1.0000000   1.0000000   7.0000000   6.0000000

  Atom        21          22          23          24          25          26          27          28          29          30
 IAtWgt=          12          14           1           1          14          12          14           1          12          16
 AtmWgt=  12.0000000  14.0030740   1.0078250   1.0078250  14.0030740  12.0000000  14.0030740   1.0078250  12.0000000  15.9949146
 NucSpn=           0           2           1           1           2           0           2           1           0           0
 AtZEff=  -0.0000000  -0.0000000  -0.0000000  -0.0000000  -0.0000000  -0.0000000  -0.0000000  -0.0000000  -0.0000000  -0.0000000
 NQMom=    0.0000000   2.0440000   0.0000000   0.0000000   2.0440000   0.0000000   2.0440000   0.0000000   0.0000000   0.0000000
 NMagM=    0.0000000   0.4037610   2.7928460   2.7928460   0.4037610   0.0000000   0.4037610   2.7928460   0.0000000   0.0000000
 AtZNuc=   6.0000000   7.0000000   1.0000000   1.0000000   7.0000000   6.0000000   7.0000000   1.0000000   6.0000000   8.0000000

  Atom        31          32          33          34          35          36          37          38          39          40
 IAtWgt=          12          14          12           1           1           1           1           1           1           1
 AtmWgt=  12.0000000  14.0030740  12.0000000   1.0078250   1.0078250   1.0078250   1.0078250   1.0078250   1.0078250   1.0078250
 NucSpn=           0           2           0           1           1           1           1           1           1           1
 AtZEff=  -0.0000000  -0.0000000  -0.0000000  -0.0000000  -0.0000000  -0.0000000  -0.0000000  -0.0000000  -0.0000000  -0.0000000
 NQMom=    0.0000000   2.0440000   0.0000000   0.0000000   0.0000000   0.0000000   0.0000000   0.0000000   0.0000000   0.0000000
 NMagM=    0.0000000   0.4037610   0.0000000   2.7928460   2.7928460   2.7928460   2.7928460   2.7928460   2.7928460   2.7928460
 AtZNuc=   6.0000000   7.0000000   6.0000000   1.0000000   1.0000000   1.0000000   1.0000000   1.0000000   1.0000000   1.0000000

  Atom        41          42          43          44          45          46          47          48          49          50
 IAtWgt=           1          12          16          12           1          14          16          12           1          12
 AtmWgt=   1.0078250  12.0000000  15.9949146  12.0000000   1.0078250  14.0030740  15.9949146  12.0000000   1.0078250  12.0000000
 NucSpn=           1           0           0           0           1           2           0           0           1           0
 AtZEff=  -0.0000000  -0.0000000  -0.0000000  -0.0000000  -0.0000000  -0.0000000  -0.0000000  -0.0000000  -0.0000000  -0.0000000
 NQMom=    0.0000000   0.0000000   0.0000000   0.0000000   0.0000000   2.0440000   0.0000000   0.0000000   0.0000000   0.0000000
 NMagM=    2.7928460   0.0000000   0.0000000   0.0000000   2.7928460   0.4037610   0.0000000   0.0000000   2.7928460   0.0000000
 AtZNuc=   1.0000000   6.0000000   8.0000000   6.0000000   1.0000000   7.0000000   8.0000000   6.0000000   1.0000000   6.0000000

  Atom        51          52          53          54          55          56          57          58          59          60
 IAtWgt=          12          14           1           1           1           1           1          14          12          12
 AtmWgt=  12.0000000  14.0030740   1.0078250   1.0078250   1.0078250   1.0078250   1.0078250  14.0030740  12.0000000  12.0000000
 NucSpn=           0           2           1           1           1           1           1           2           0           0
 AtZEff=  -0.0000000  -0.0000000  -0.0000000  -0.0000000  -0.0000000  -0.0000000  -0.0000000  -0.0000000  -0.0000000  -0.0000000
 NQMom=    0.0000000   2.0440000   0.0000000   0.0000000   0.0000000   0.0000000   0.0000000   2.0440000   0.0000000   0.0000000
 NMagM=    0.0000000   0.4037610   2.7928460   2.7928460   2.7928460   2.7928460   2.7928460   0.4037610   0.0000000   0.0000000
 AtZNuc=   6.0000000   7.0000000   1.0000000   1.0000000   1.0000000   1.0000000   1.0000000   7.0000000   6.0000000   6.0000000

  Atom        61          62          63          64          65          66          67          68          69          70
 IAtWgt=          14           1          12          14           1          12          14          12          12          14
 AtmWgt=  14.0030740   1.0078250  12.0000000  14.0030740   1.0078250  12.0000000  14.0030740  12.0000000  12.0000000  14.0030740
 NucSpn=           2           1           0           2           1           0           2           0           0           2
 AtZEff=  -0.0000000  -0.0000000  -0.0000000  -0.0000000  -0.0000000  -0.0000000  -0.0000000  -0.0000000  -0.0000000  -0.0000000
 NQMom=    2.0440000   0.0000000   0.0000000   2.0440000   0.0000000   0.0000000   2.0440000   0.0000000   0.0000000   2.0440000
 NMagM=    0.4037610   2.7928460   0.0000000   0.4037610   2.7928460   0.0000000   0.4037610   0.0000000   0.0000000   0.4037610
 AtZNuc=   7.0000000   1.0000000   6.0000000   7.0000000   1.0000000   6.0000000   7.0000000   6.0000000   6.0000000   7.0000000
 Leave Link  101 at Thu Jan 18 08:03:01 2018, MaxMem=  4294967296 cpu:               5.8 elap:               0.2
 (Enter /share/apps/g16/l202.exe)
 Stoichiometry    C23H27N17O3
 Framework group  C1[X(C23H27N17O3)]
 Deg. of freedom   204
 Full point group                 C1      NOp   1
 Largest Abelian subgroup         C1      NOp   1
 Largest concise Abelian subgroup C1      NOp   1
                         Standard orientation:                         
 ---------------------------------------------------------------------
 Center     Atomic      Atomic             Coordinates (Angstroms)
 Number     Number       Type             X           Y           Z
 ---------------------------------------------------------------------
      1          7           0        4.852937   -0.509464   -1.658385
      2          6           0        6.131187    0.227575   -1.687588
      3          6           0        2.712958   -1.013882   -1.600244
      4          7           0        3.395437   -2.221215   -1.636160
      5          6           0        4.657378   -1.868999   -1.669753
      6          1           0        5.494976   -2.566280   -1.703863
      7          7           0        0.997137    0.602807   -1.527966
      8          6           0        1.967399    1.522519   -1.545561
      9          1           0        1.627882    2.557142   -1.522177
     10          7           0        3.287890    1.356851   -1.587485
     11          6           0        3.597994    0.050105   -1.613430
     12          6           0        1.341703   -0.703192   -1.554941
     13          7           0        0.374596   -1.622740   -1.537452
     14          1           0        0.583522   -2.601116   -1.556169
     15          1           0       -0.591196   -1.365187   -1.505049
     16          1           0        6.631698   -0.003372   -2.522050
     17          1           0        5.950528    1.210511   -1.669656
     18          1           0        6.681170   -0.023118   -0.890916
     19          7           0        5.364579    0.457589    1.008577
     20          6           0        4.027432    0.773971    1.006949
     21          6           0        6.460024    1.377826    0.642717
     22          7           0        1.481895    3.075866    0.474716
     23          1           0        0.484664    3.100877    0.539164
     24          1           0        1.938730    3.915660    0.180160
     25          7           0        3.493928    1.969061    0.673523
     26          6           0        2.176228    1.966478    0.769796
     27          7           0        1.435747    0.877856    1.162373
     28          1           0        0.432254    0.966952    1.207326
     29          6           0        1.963534   -0.361676    1.510034
     30          8           0        1.207002   -1.279497    1.850600
     31          6           0        3.378110   -0.374300    1.411478
     32          7           0        4.289263   -1.391115    1.662042
     33          6           0        5.451711   -0.853017    1.410302
     34          1           0        6.407894   -1.369377    1.501780
     35          1           0        6.965599    1.004573   -0.134385
     36          1           0        6.076904    2.266394    0.393830
     37          1           0        7.078220    1.488541    1.420136
     38          1           0       -4.536944    1.861566    0.607761
     39          1           0       -4.488992    2.119162    2.350172
     40          1           0       -3.081856    2.513339    1.362268
     41          1           0       -4.452661   -2.688379    2.169008
     42          6           0       -3.767963   -1.852244    2.026552
     43          8           0       -1.813630   -3.189045    2.170398
     44          6           0       -2.357646   -2.094834    2.023600
     45          1           0       -0.579625   -1.100574    1.827679
     46          7           0       -1.581310   -0.969100    1.835814
     47          8           0       -1.254283    1.252692    1.498348
     48          6           0       -2.020595    0.318826    1.657496
     49          1           0       -5.289784   -0.369539    1.849227
     50          6           0       -4.226796   -0.606983    1.855082
     51          6           0       -3.909357    1.830647    1.485966
     52          7           0       -3.393031    0.471864    1.672642
     53          1           0       -6.459798    3.261875   -1.451649
     54          1           0       -5.138635    3.303242   -0.495126
     55          1           0       -6.592105    2.914059    0.137359
     56          1           0       -2.915024   -3.250874   -1.741916
     57          1           0       -4.612032   -3.117338   -1.853450
     58          7           0       -3.730633   -2.675081   -1.683803
     59          6           0       -3.647718   -1.375160   -1.393086
     60          6           0       -4.517873    0.802413   -0.989737
     61          7           0       -3.320761    1.369492   -0.766668
     62          1           0       -1.340035    0.845226   -0.716940
     63          6           0       -2.348084    0.467673   -0.882950
     64          7           0       -2.429098   -0.834733   -1.174058
     65          1           0       -7.732397    0.636857   -1.292382
     66          6           0       -6.662958    0.428614   -1.249185
     67          7           0       -6.123483   -0.746852   -1.461138
     68          6           0       -4.763726   -0.523855   -1.299721
     69          6           0       -6.005410    2.836712   -0.668852
     70          7           0       -5.749505    1.412441   -0.958636
 ---------------------------------------------------------------------
 Rotational constants (GHZ):           0.1937533           0.0512053           0.0506521
 Leave Link  202 at Thu Jan 18 08:03:01 2018, MaxMem=  4294967296 cpu:               0.3 elap:               0.0
 (Enter /share/apps/g16/l301.exe)
 Standard basis: CC-pVDZ (5D, 7F)
 Ernie: Thresh=  0.10000D-02 Tol=  0.10000D-05 Strict=F.
 Ernie:  86 primitive shells out of 1081 were deleted.
 There are   780 symmetry adapted cartesian basis functions of A   symmetry.
 There are   737 symmetry adapted basis functions of A   symmetry.
   737 basis functions,  1608 primitive gaussians,   780 cartesian basis functions
   154 alpha electrons      154 beta electrons
       nuclear repulsion energy      5687.7810832997 Hartrees.
 IExCor= 4639 DFT=T Ex+Corr=wB97XD ExCW=0 ScaHFX=  1.000000
 ScaDFX=  1.000000  1.000000  1.000000  1.000000 ScalE2=  1.000000  1.000000
 IRadAn=      5 IRanWt=     -1 IRanGd=            0 ICorTp=0 IEmpDi=121
 HFx  wShort=  0.000000 wLong=  0.200000 cFull=  0.222036 cShort=  0.000000 cLong=  0.777964
 DFx  wShort=  0.000000 wLong=  0.200000 cFull=  0.000000 cShort=  0.000000 cLong=  1.000000
 NAtoms=   70 NActive=   70 NUniq=   70 SFac= 1.00D+00 NAtFMM=   60 NAOKFM=T Big=T
 Integral buffers will be    131072 words long.
 Raffenetti 2 integral format.
 Two-electron integral symmetry is turned on.
 R6Disp:  Grimme-D2 Dispersion energy=       -0.0830418468 Hartrees.
 Nuclear repulsion after empirical dispersion term =     5687.6980414529 Hartrees.
 Leave Link  301 at Thu Jan 18 08:03:01 2018, MaxMem=  4294967296 cpu:               2.3 elap:               0.1
 (Enter /share/apps/g16/l302.exe)
 NPDir=0 NMtPBC=     1 NCelOv=     1 NCel=       1 NClECP=     1 NCelD=      1
         NCelK=      1 NCelE2=     1 NClLst=     1 CellRange=     0.0.
 One-electron integrals computed using PRISM.
 One-electron integral symmetry used in STVInt
 NBasis=   737 RedAO= T EigKep=  5.63D-04  NBF=   737
 NBsUse=   737 1.00D-06 EigRej= -1.00D+00 NBFU=   737
 Precomputing XC quadrature grid using
 IXCGrd= 4 IRadAn=           5 IRanWt=          -1 IRanGd=           0 AccXCQ= 0.00D+00.
 Generated NRdTot=       0 NPtTot=           0 NUsed=           0 NTot=          32
 NSgBfM=   765   763   765   765   765 MxSgAt=    70 MxSgA2=    70.
 Leave Link  302 at Thu Jan 18 08:03:11 2018, MaxMem=  4294967296 cpu:             289.3 elap:               9.4
 (Enter /share/apps/g16/l303.exe)
 DipDrv:  MaxL=1.
 Leave Link  303 at Thu Jan 18 08:03:11 2018, MaxMem=  4294967296 cpu:              12.6 elap:               0.4
 (Enter /share/apps/g16/l401.exe)
 ExpMin= 1.22D-01 ExpMax= 1.17D+04 ExpMxC= 4.01D+02 IAcc=3 IRadAn=         5 AccDes= 0.00D+00
 Harris functional with IExCor= 4639 and IRadAn=       5 diagonalized for initial guess.
 HarFok:  IExCor= 4639 AccDes= 0.00D+00 IRadAn=         5 IDoV= 1 UseB2=F ITyADJ=14
 ICtDFT=  3500011 ScaDFX=  1.000000  1.000000  1.000000  1.000000
 FoFCou: FMM=F IPFlag=           0 FMFlag=      100000 FMFlg1=        2001
         NFxFlg=           0 DoJE=T BraDBF=F KetDBF=T FulRan=T
         wScrn=  0.000000 ICntrl=       500 IOpCl=  0 I1Cent=   200000004 NGrid=           0
         NMat0=    1 NMatS0=      1 NMatT0=    0 NMatD0=    1 NMtDS0=    0 NMtDT0=    0
 Petite list used in FoFCou.
 Harris En= -1963.70217604095    
 JPrj=0 DoOrth=F DoCkMO=F.
 Leave Link  401 at Thu Jan 18 08:03:24 2018, MaxMem=  4294967296 cpu:             417.8 elap:              13.1
 (Enter /share/apps/g16/l502.exe)
 Integral symmetry usage will be decided dynamically.
 Closed shell SCF:
 Using DIIS extrapolation, IDIIS=  1040.
 NGot=  4294967296 LenX=  4293717438 LenY=  4293108258
 Requested convergence on RMS density matrix=1.00D-08 within  20 cycles.
 Requested convergence on MAX density matrix=1.00D-06.
 Requested convergence on             energy=1.00D-06.
 No special actions if energy rises.
 Fock matrices will be formed incrementally for  20 cycles.
 Integral accuracy reduced to 1.0D-05 until final iterations.

 Cycle   1  Pass 0  IDiag  1:
 FoFJK:  IHMeth= 1 ICntrl=       0 DoSepK=T KAlg= 0 I1Cent=           0 FoldK=F
 IRaf=         1 NMat=       1 IRICut=       1 DoRegI=T DoRafI=F ISym2E= 0 IDoP0=0 IntGTp=1.
 FoFCou: FMM=T IPFlag=           0 FMFlag=      100000 FMFlg1=        2001
         NFxFlg=           0 DoJE=T BraDBF=F KetDBF=F FulRan=T
         wScrn=  0.000000 ICntrl=       500 IOpCl=  0 I1Cent=           0 NGrid=           0
         NMat0=    1 NMatS0=      1 NMatT0=    0 NMatD0=    1 NMtDS0=    0 NMtDT0=    0
 Symmetry not used in FoFCou.
 FMM levels:  10  Number of levels for PrismC:   9
 E= -2048.15985077784    
 DIIS: error= 2.27D-02 at cycle   1 NSaved=   1.
 NSaved= 1 IEnMin= 1 EnMin= -2048.15985077784     IErMin= 1 ErrMin= 2.27D-02
 ErrMax= 2.27D-02  0.00D+00 EMaxC= 1.00D-01 BMatC= 8.43D-01 BMatP= 8.43D-01
 IDIUse=3 WtCom= 7.73D-01 WtEn= 2.27D-01
 Coeff-Com:  0.100D+01
 Coeff-En:   0.100D+01
 Coeff:      0.100D+01
 Gap=     0.252 Goal=   None    Shift=    0.000
 GapD=    0.252 DampG=1.000 DampE=0.500 DampFc=0.5000 IDamp=-1.
 Damping current iteration by 5.00D-01
 RMSDP=1.66D-03 MaxDP=1.32D-01              OVMax= 2.12D-01

 Cycle   2  Pass 0  IDiag  1:
 RMSU=  8.32D-04    CP:  9.97D-01
 E= -2048.35881088924     Delta-E=       -0.198960111400 Rises=F Damp=T
 DIIS: error= 1.26D-02 at cycle   2 NSaved=   2.
 NSaved= 2 IEnMin= 2 EnMin= -2048.35881088924     IErMin= 2 ErrMin= 1.26D-02
 ErrMax= 1.26D-02  0.00D+00 EMaxC= 1.00D-01 BMatC= 1.47D-01 BMatP= 8.43D-01
 IDIUse=3 WtCom= 8.74D-01 WtEn= 1.26D-01
 Coeff-Com: -0.176D+00 0.118D+01
 Coeff-En:   0.000D+00 0.100D+01
 Coeff:     -0.154D+00 0.115D+01
 Gap=     0.293 Goal=   None    Shift=    0.000
 RMSDP=6.30D-04 MaxDP=3.56D-02 DE=-1.99D-01 OVMax= 1.49D-01

 Cycle   3  Pass 0  IDiag  1:
 RMSU=  6.22D-04    CP:  9.93D-01  1.11D+00
 E= -2048.54059710103     Delta-E=       -0.181786211793 Rises=F Damp=F
 DIIS: error= 1.04D-02 at cycle   3 NSaved=   3.
 NSaved= 3 IEnMin= 3 EnMin= -2048.54059710103     IErMin= 3 ErrMin= 1.04D-02
 ErrMax= 1.04D-02  0.00D+00 EMaxC= 1.00D-01 BMatC= 7.12D-02 BMatP= 1.47D-01
 IDIUse=3 WtCom= 8.96D-01 WtEn= 1.04D-01
 Coeff-Com: -0.230D+00 0.557D+00 0.673D+00
 Coeff-En:   0.000D+00 0.000D+00 0.100D+01
 Coeff:     -0.206D+00 0.499D+00 0.707D+00
 Gap=     0.269 Goal=   None    Shift=    0.000
 RMSDP=4.19D-04 MaxDP=3.50D-02 DE=-1.82D-01 OVMax= 6.16D-02

 Cycle   4  Pass 0  IDiag  1:
 RMSU=  2.35D-04    CP:  9.94D-01  1.42D+00  6.32D-01
 E= -2048.59173716415     Delta-E=       -0.051140063123 Rises=F Damp=F
 DIIS: error= 3.86D-03 at cycle   4 NSaved=   4.
 NSaved= 4 IEnMin= 4 EnMin= -2048.59173716415     IErMin= 4 ErrMin= 3.86D-03
 ErrMax= 3.86D-03  0.00D+00 EMaxC= 1.00D-01 BMatC= 1.32D-02 BMatP= 7.12D-02
 IDIUse=3 WtCom= 9.61D-01 WtEn= 3.86D-02
 Coeff-Com: -0.937D-01 0.182D+00 0.394D+00 0.518D+00
 Coeff-En:   0.000D+00 0.000D+00 0.131D+00 0.869D+00
 Coeff:     -0.901D-01 0.175D+00 0.384D+00 0.532D+00
 Gap=     0.267 Goal=   None    Shift=    0.000
 RMSDP=1.57D-04 MaxDP=1.16D-02 DE=-5.11D-02 OVMax= 1.78D-02

 Cycle   5  Pass 0  IDiag  1:
 RMSU=  6.77D-05    CP:  9.93D-01  1.38D+00  7.91D-01  5.98D-01
 E= -2048.60285979614     Delta-E=       -0.011122631990 Rises=F Damp=F
 DIIS: error= 4.39D-04 at cycle   5 NSaved=   5.
 NSaved= 5 IEnMin= 5 EnMin= -2048.60285979614     IErMin= 5 ErrMin= 4.39D-04
 ErrMax= 4.39D-04  0.00D+00 EMaxC= 1.00D-01 BMatC= 3.70D-04 BMatP= 1.32D-02
 IDIUse=3 WtCom= 9.96D-01 WtEn= 4.39D-03
 Coeff-Com: -0.251D-01 0.427D-01 0.134D+00 0.242D+00 0.607D+00
 Coeff-En:   0.000D+00 0.000D+00 0.000D+00 0.000D+00 0.100D+01
 Coeff:     -0.250D-01 0.425D-01 0.133D+00 0.241D+00 0.609D+00
 Gap=     0.267 Goal=   None    Shift=    0.000
 RMSDP=3.14D-05 MaxDP=2.20D-03 DE=-1.11D-02 OVMax= 4.97D-03

 Failed to achieve initial convergence to 1.0D-08 in  6 cycles.
 Switch to full accuracy anyway.
 Cycle   6  Pass 1  IDiag  1:
 E= -2048.60309042759     Delta-E=       -0.000230631443 Rises=F Damp=F
 DIIS: error= 3.10D-04 at cycle   1 NSaved=   1.
 NSaved= 1 IEnMin= 1 EnMin= -2048.60309042759     IErMin= 1 ErrMin= 3.10D-04
 ErrMax= 3.10D-04  0.00D+00 EMaxC= 1.00D-01 BMatC= 9.39D-05 BMatP= 9.39D-05
 IDIUse=3 WtCom= 9.97D-01 WtEn= 3.10D-03
 Coeff-Com:  0.100D+01
 Coeff-En:   0.100D+01
 Coeff:      0.100D+01
 Gap=     0.267 Goal=   None    Shift=    0.000
 RMSDP=3.14D-05 MaxDP=2.20D-03 DE=-2.31D-04 OVMax= 2.95D-03

 Cycle   7  Pass 1  IDiag  1:
 RMSU=  1.31D-04    CP:  1.00D+00
 E= -2048.60314527686     Delta-E=       -0.000054849273 Rises=F Damp=F
 DIIS: error= 1.91D-04 at cycle   2 NSaved=   2.
 NSaved= 2 IEnMin= 2 EnMin= -2048.60314527686     IErMin= 2 ErrMin= 1.91D-04
 ErrMax= 1.91D-04  0.00D+00 EMaxC= 1.00D-01 BMatC= 6.73D-05 BMatP= 9.39D-05
 IDIUse=3 WtCom= 9.98D-01 WtEn= 1.91D-03
 Coeff-Com:  0.445D+00 0.555D+00
 Coeff-En:   0.171D+00 0.829D+00
 Coeff:      0.445D+00 0.555D+00
 Gap=     0.267 Goal=   None    Shift=    0.000
 RMSDP=1.51D-05 MaxDP=1.36D-03 DE=-5.48D-05 OVMax= 2.65D-03

 Cycle   8  Pass 1  IDiag  1:
 RMSU=  1.50D-05    CP:  1.00D+00  1.02D+00
 E= -2048.60319730691     Delta-E=       -0.000052030054 Rises=F Damp=F
 DIIS: error= 8.43D-05 at cycle   3 NSaved=   3.
 NSaved= 3 IEnMin= 3 EnMin= -2048.60319730691     IErMin= 3 ErrMin= 8.43D-05
 ErrMax= 8.43D-05  0.00D+00 EMaxC= 1.00D-01 BMatC= 1.29D-05 BMatP= 6.73D-05
 IDIUse=1 WtCom= 1.00D+00 WtEn= 0.00D+00
 Coeff-Com: -0.156D-01 0.291D+00 0.725D+00
 Coeff:     -0.156D-01 0.291D+00 0.725D+00
 Gap=     0.267 Goal=   None    Shift=    0.000
 RMSDP=7.02D-06 MaxDP=4.17D-04 DE=-5.20D-05 OVMax= 9.12D-04

 Cycle   9  Pass 1  IDiag  1:
 RMSU=  4.61D-06    CP:  1.00D+00  1.05D+00  7.68D-01
 E= -2048.60321055442     Delta-E=       -0.000013247505 Rises=F Damp=F
 DIIS: error= 3.60D-05 at cycle   4 NSaved=   4.
 NSaved= 4 IEnMin= 4 EnMin= -2048.60321055442     IErMin= 4 ErrMin= 3.60D-05
 ErrMax= 3.60D-05  0.00D+00 EMaxC= 1.00D-01 BMatC= 8.12D-07 BMatP= 1.29D-05
 IDIUse=1 WtCom= 1.00D+00 WtEn= 0.00D+00
 Coeff-Com: -0.331D-01 0.885D-01 0.298D+00 0.646D+00
 Coeff:     -0.331D-01 0.885D-01 0.298D+00 0.646D+00
 Gap=     0.267 Goal=   None    Shift=    0.000
 RMSDP=1.85D-06 MaxDP=1.15D-04 DE=-1.32D-05 OVMax= 3.60D-04

 Cycle  10  Pass 1  IDiag  1:
 RMSU=  1.64D-06    CP:  1.00D+00  1.05D+00  8.08D-01  1.10D+00
 E= -2048.60321182887     Delta-E=       -0.000001274457 Rises=F Damp=F
 DIIS: error= 1.24D-05 at cycle   5 NSaved=   5.
 NSaved= 5 IEnMin= 5 EnMin= -2048.60321182887     IErMin= 5 ErrMin= 1.24D-05
 ErrMax= 1.24D-05  0.00D+00 EMaxC= 1.00D-01 BMatC= 1.54D-07 BMatP= 8.12D-07
 IDIUse=1 WtCom= 1.00D+00 WtEn= 0.00D+00
 Coeff-Com: -0.524D-02-0.468D-01-0.104D+00 0.186D+00 0.970D+00
 Coeff:     -0.524D-02-0.468D-01-0.104D+00 0.186D+00 0.970D+00
 Gap=     0.267 Goal=   None    Shift=    0.000
 RMSDP=1.50D-06 MaxDP=8.83D-05 DE=-1.27D-06 OVMax= 3.18D-04

 Cycle  11  Pass 1  IDiag  1:
 RMSU=  6.16D-07    CP:  1.00D+00  1.05D+00  8.18D-01  1.38D+00  1.23D+00
 E= -2048.60321222598     Delta-E=       -0.000000397103 Rises=F Damp=F
 DIIS: error= 8.12D-06 at cycle   6 NSaved=   6.
 NSaved= 6 IEnMin= 6 EnMin= -2048.60321222598     IErMin= 6 ErrMin= 8.12D-06
 ErrMax= 8.12D-06  0.00D+00 EMaxC= 1.00D-01 BMatC= 5.08D-08 BMatP= 1.54D-07
 IDIUse=1 WtCom= 1.00D+00 WtEn= 0.00D+00
 Coeff-Com:  0.522D-02-0.463D-01-0.129D+00-0.319D-01 0.553D+00 0.649D+00
 Coeff:      0.522D-02-0.463D-01-0.129D+00-0.319D-01 0.553D+00 0.649D+00
 Gap=     0.267 Goal=   None    Shift=    0.000
 RMSDP=6.02D-07 MaxDP=3.90D-05 DE=-3.97D-07 OVMax= 1.44D-04

 Cycle  12  Pass 1  IDiag  1:
 RMSU=  2.64D-07    CP:  1.00D+00  1.05D+00  8.23D-01  1.48D+00  1.41D+00
                    CP:  9.62D-01
 E= -2048.60321230652     Delta-E=       -0.000000080544 Rises=F Damp=F
 DIIS: error= 1.25D-06 at cycle   7 NSaved=   7.
 NSaved= 7 IEnMin= 7 EnMin= -2048.60321230652     IErMin= 7 ErrMin= 1.25D-06
 ErrMax= 1.25D-06  0.00D+00 EMaxC= 1.00D-01 BMatC= 1.38D-09 BMatP= 5.08D-08
 IDIUse=1 WtCom= 1.00D+00 WtEn= 0.00D+00
 Coeff-Com:  0.135D-02-0.808D-02-0.242D-01-0.164D-01 0.717D-01 0.133D+00
 Coeff-Com:  0.842D+00
 Coeff:      0.135D-02-0.808D-02-0.242D-01-0.164D-01 0.717D-01 0.133D+00
 Coeff:      0.842D+00
 Gap=     0.267 Goal=   None    Shift=    0.000
 RMSDP=1.39D-07 MaxDP=7.07D-06 DE=-8.05D-08 OVMax= 4.24D-05

 Cycle  13  Pass 1  IDiag  1:
 RMSU=  8.22D-08    CP:  1.00D+00  1.05D+00  8.23D-01  1.50D+00  1.43D+00
                    CP:  1.07D+00  1.18D+00
 E= -2048.60321231091     Delta-E=       -0.000000004386 Rises=F Damp=F
 DIIS: error= 7.49D-07 at cycle   8 NSaved=   8.
 NSaved= 8 IEnMin= 8 EnMin= -2048.60321231091     IErMin= 8 ErrMin= 7.49D-07
 ErrMax= 7.49D-07  0.00D+00 EMaxC= 1.00D-01 BMatC= 7.09D-10 BMatP= 1.38D-09
 IDIUse=1 WtCom= 1.00D+00 WtEn= 0.00D+00
 Coeff-Com: -0.102D-02 0.112D-01 0.301D-01 0.282D-02-0.143D+00-0.152D+00
 Coeff-Com:  0.425D+00 0.827D+00
 Coeff:     -0.102D-02 0.112D-01 0.301D-01 0.282D-02-0.143D+00-0.152D+00
 Coeff:      0.425D+00 0.827D+00
 Gap=     0.267 Goal=   None    Shift=    0.000
 RMSDP=9.87D-08 MaxDP=3.89D-06 DE=-4.39D-09 OVMax= 3.13D-05

 Cycle  14  Pass 1  IDiag  1:
 RMSU=  4.81D-08    CP:  1.00D+00  1.05D+00  8.23D-01  1.50D+00  1.45D+00
                    CP:  1.13D+00  1.41D+00  1.17D+00
 E= -2048.60321231252     Delta-E=       -0.000000001616 Rises=F Damp=F
 DIIS: error= 2.37D-07 at cycle   9 NSaved=   9.
 NSaved= 9 IEnMin= 9 EnMin= -2048.60321231252     IErMin= 9 ErrMin= 2.37D-07
 ErrMax= 2.37D-07  0.00D+00 EMaxC= 1.00D-01 BMatC= 7.46D-11 BMatP= 7.09D-10
 IDIUse=1 WtCom= 1.00D+00 WtEn= 0.00D+00
 Coeff-Com: -0.568D-03 0.547D-02 0.149D-01 0.328D-02-0.628D-01-0.758D-01
 Coeff-Com:  0.751D-01 0.324D+00 0.716D+00
 Coeff:     -0.568D-03 0.547D-02 0.149D-01 0.328D-02-0.628D-01-0.758D-01
 Coeff:      0.751D-01 0.324D+00 0.716D+00
 Gap=     0.267 Goal=   None    Shift=    0.000
 RMSDP=2.61D-08 MaxDP=1.12D-06 DE=-1.62D-09 OVMax= 8.32D-06

 Cycle  15  Pass 1  IDiag  1:
 RMSU=  1.48D-08    CP:  1.00D+00  1.05D+00  8.23D-01  1.50D+00  1.46D+00
                    CP:  1.14D+00  1.45D+00  1.36D+00  1.15D+00
 E= -2048.60321231257     Delta-E=       -0.000000000044 Rises=F Damp=F
 DIIS: error= 1.49D-07 at cycle  10 NSaved=  10.
 NSaved=10 IEnMin=10 EnMin= -2048.60321231257     IErMin=10 ErrMin= 1.49D-07
 ErrMax= 1.49D-07  0.00D+00 EMaxC= 1.00D-01 BMatC= 1.50D-11 BMatP= 7.46D-11
 IDIUse=1 WtCom= 1.00D+00 WtEn= 0.00D+00
 Coeff-Com:  0.317D-04-0.642D-03-0.173D-02 0.734D-04 0.104D-01 0.705D-02
 Coeff-Com: -0.790D-01-0.771D-01 0.275D+00 0.866D+00
 Coeff:      0.317D-04-0.642D-03-0.173D-02 0.734D-04 0.104D-01 0.705D-02
 Coeff:     -0.790D-01-0.771D-01 0.275D+00 0.866D+00
 Gap=     0.267 Goal=   None    Shift=    0.000
 RMSDP=1.64D-08 MaxDP=9.08D-07 DE=-4.37D-11 OVMax= 5.62D-06

 Cycle  16  Pass 1  IDiag  1:
 RMSU=  6.47D-09    CP:  1.00D+00  1.05D+00  8.23D-01  1.50D+00  1.46D+00
                    CP:  1.15D+00  1.47D+00  1.45D+00  1.34D+00  1.10D+00
 E= -2048.60321231293     Delta-E=       -0.000000000362 Rises=F Damp=F
 DIIS: error= 3.99D-08 at cycle  11 NSaved=  11.
 NSaved=11 IEnMin=11 EnMin= -2048.60321231293     IErMin=11 ErrMin= 3.99D-08
 ErrMax= 3.99D-08  0.00D+00 EMaxC= 1.00D-01 BMatC= 3.32D-12 BMatP= 1.50D-11
 IDIUse=1 WtCom= 1.00D+00 WtEn= 0.00D+00
 Coeff-Com:  0.957D-04-0.107D-02-0.293D-02-0.459D-03 0.140D-01 0.144D-01
 Coeff-Com: -0.486D-01-0.793D-01 0.198D-01 0.410D+00 0.674D+00
 Coeff:      0.957D-04-0.107D-02-0.293D-02-0.459D-03 0.140D-01 0.144D-01
 Coeff:     -0.486D-01-0.793D-01 0.198D-01 0.410D+00 0.674D+00
 Gap=     0.267 Goal=   None    Shift=    0.000
 RMSDP=4.93D-09 MaxDP=2.46D-07 DE=-3.62D-10 OVMax= 1.44D-06

 SCF Done:  E(RwB97XD) =  -2048.60321231     A.U. after   16 cycles
            NFock= 16  Conv=0.49D-08     -V/T= 2.0049
 KE= 2.038691555488D+03 PE=-1.615602223414D+04 EE= 6.381029424890D+03
 Leave Link  502 at Thu Jan 18 08:17:11 2018, MaxMem=  4294967296 cpu:           25548.7 elap:             826.6
 (Enter /share/apps/g16/l601.exe)
 Copying SCF densities to generalized density rwf, IOpCl= 0 IROHF=0.

 **********************************************************************

            Population analysis using the SCF density.

 **********************************************************************

 Orbital symmetries:
       Occupied  (A) (A) (A) (A) (A) (A) (A) (A) (A) (A) (A) (A)
                 (A) (A) (A) (A) (A) (A) (A) (A) (A) (A) (A) (A)
                 (A) (A) (A) (A) (A) (A) (A) (A) (A) (A) (A) (A)
                 (A) (A) (A) (A) (A) (A) (A) (A) (A) (A) (A) (A)
                 (A) (A) (A) (A) (A) (A) (A) (A) (A) (A) (A) (A)
                 (A) (A) (A) (A) (A) (A) (A) (A) (A) (A) (A) (A)
                 (A) (A) (A) (A) (A) (A) (A) (A) (A) (A) (A) (A)
                 (A) (A) (A) (A) (A) (A) (A) (A) (A) (A) (A) (A)
                 (A) (A) (A) (A) (A) (A) (A) (A) (A) (A) (A) (A)
                 (A) (A) (A) (A) (A) (A) (A) (A) (A) (A) (A) (A)
                 (A) (A) (A) (A) (A) (A) (A) (A) (A) (A) (A) (A)
                 (A) (A) (A) (A) (A) (A) (A) (A) (A) (A) (A) (A)
                 (A) (A) (A) (A) (A) (A) (A) (A) (A) (A)
       Virtual   (A) (A) (A) (A) (A) (A) (A) (A) (A) (A) (A) (A)
                 (A) (A) (A) (A) (A) (A) (A) (A) (A) (A) (A) (A)
                 (A) (A) (A) (A) (A) (A) (A) (A) (A) (A) (A) (A)
                 (A) (A) (A) (A) (A) (A) (A) (A) (A) (A) (A) (A)
                 (A) (A) (A) (A) (A) (A) (A) (A) (A) (A) (A) (A)
                 (A) (A) (A) (A) (A) (A) (A) (A) (A) (A) (A) (A)
                 (A) (A) (A) (A) (A) (A) (A) (A) (A) (A) (A) (A)
                 (A) (A) (A) (A) (A) (A) (A) (A) (A) (A) (A) (A)
                 (A) (A) (A) (A) (A) (A) (A) (A) (A) (A) (A) (A)
                 (A) (A) (A) (A) (A) (A) (A) (A) (A) (A) (A) (A)
                 (A) (A) (A) (A) (A) (A) (A) (A) (A) (A) (A) (A)
                 (A) (A) (A) (A) (A) (A) (A) (A) (A) (A) (A) (A)
                 (A) (A) (A) (A) (A) (A) (A) (A) (A) (A) (A) (A)
                 (A) (A) (A) (A) (A) (A) (A) (A) (A) (A) (A) (A)
                 (A) (A) (A) (A) (A) (A) (A) (A) (A) (A) (A) (A)
                 (A) (A) (A) (A) (A) (A) (A) (A) (A) (A) (A) (A)
                 (A) (A) (A) (A) (A) (A) (A) (A) (A) (A) (A) (A)
                 (A) (A) (A) (A) (A) (A) (A) (A) (A) (A) (A) (A)
                 (A) (A) (A) (A) (A) (A) (A) (A) (A) (A) (A) (A)
                 (A) (A) (A) (A) (A) (A) (A) (A) (A) (A) (A) (A)
                 (A) (A) (A) (A) (A) (A) (A) (A) (A) (A) (A) (A)
                 (A) (A) (A) (A) (A) (A) (A) (A) (A) (A) (A) (A)
                 (A) (A) (A) (A) (A) (A) (A) (A) (A) (A) (A) (A)
                 (A) (A) (A) (A) (A) (A) (A) (A) (A) (A) (A) (A)
                 (A) (A) (A) (A) (A) (A) (A) (A) (A) (A) (A) (A)
                 (A) (A) (A) (A) (A) (A) (A) (A) (A) (A) (A) (A)
                 (A) (A) (A) (A) (A) (A) (A) (A) (A) (A) (A) (A)
                 (A) (A) (A) (A) (A) (A) (A) (A) (A) (A) (A) (A)
                 (A) (A) (A) (A) (A) (A) (A) (A) (A) (A) (A) (A)
                 (A) (A) (A) (A) (A) (A) (A) (A) (A) (A) (A) (A)
                 (A) (A) (A) (A) (A) (A) (A) (A) (A) (A) (A) (A)
                 (A) (A) (A) (A) (A) (A) (A) (A) (A) (A) (A) (A)
                 (A) (A) (A) (A) (A) (A) (A) (A) (A) (A) (A) (A)
                 (A) (A) (A) (A) (A) (A) (A) (A) (A) (A) (A) (A)
                 (A) (A) (A) (A) (A) (A) (A) (A) (A) (A) (A) (A)
                 (A) (A) (A) (A) (A) (A) (A) (A) (A) (A) (A) (A)
                 (A) (A) (A) (A) (A) (A) (A) (A) (A) (A) (A) (A)
                 (A) (A) (A) (A) (A) (A) (A) (A) (A) (A) (A) (A)
                 (A) (A) (A) (A) (A) (A) (A) (A) (A) (A) (A) (A)
                 (A) (A) (A) (A) (A) (A) (A) (A) (A) (A) (A) (A)
                 (A) (A) (A) (A) (A) (A) (A) (A) (A) (A) (A) (A)
                 (A) (A) (A) (A) (A) (A) (A) (A) (A) (A) (A) (A)
                 (A) (A) (A) (A) (A) (A) (A) (A) (A) (A) (A) (A)
                 (A) (A) (A) (A) (A) (A) (A) (A) (A) (A) (A) (A)
                 (A) (A) (A) (A) (A) (A) (A) (A) (A) (A) (A) (A)
                 (A) (A) (A) (A) (A) (A) (A) (A) (A) (A) (A) (A)
                 (A) (A) (A) (A) (A) (A) (A) (A) (A) (A) (A) (A)
                 (A) (A) (A) (A) (A) (A) (A) (A) (A) (A) (A) (A)
                 (A) (A) (A) (A) (A) (A) (A)
 The electronic state is 1-A.
 Alpha  occ. eigenvalues --  -19.25011 -19.21113 -19.20764 -14.53156 -14.51352
 Alpha  occ. eigenvalues --  -14.49308 -14.49205 -14.48431 -14.47013 -14.46719
 Alpha  occ. eigenvalues --  -14.46571 -14.45734 -14.44616 -14.44213 -14.42925
 Alpha  occ. eigenvalues --  -14.41599 -14.41565 -14.41475 -14.41044 -14.40775
 Alpha  occ. eigenvalues --  -10.44601 -10.40854 -10.40306 -10.39227 -10.38329
 Alpha  occ. eigenvalues --  -10.38296 -10.37506 -10.36913 -10.35971 -10.35835
 Alpha  occ. eigenvalues --  -10.34748 -10.34464 -10.34433 -10.33934 -10.33757
 Alpha  occ. eigenvalues --  -10.33049 -10.32966 -10.32876 -10.31495 -10.30822
 Alpha  occ. eigenvalues --  -10.30059 -10.28820 -10.28453  -1.18816  -1.15930
 Alpha  occ. eigenvalues --   -1.13628  -1.12169  -1.11858  -1.10983  -1.09779
 Alpha  occ. eigenvalues --   -1.09028  -1.08421  -1.05584  -1.05342  -1.01684
 Alpha  occ. eigenvalues --   -1.01555  -1.01220  -1.00063  -0.98764  -0.97915
 Alpha  occ. eigenvalues --   -0.97429  -0.96841  -0.93290  -0.90068  -0.88176
 Alpha  occ. eigenvalues --   -0.86700  -0.86374  -0.84118  -0.83767  -0.82604
 Alpha  occ. eigenvalues --   -0.81995  -0.78016  -0.77532  -0.75560  -0.75074
 Alpha  occ. eigenvalues --   -0.74057  -0.73400  -0.72516  -0.71686  -0.70916
 Alpha  occ. eigenvalues --   -0.68033  -0.67471  -0.66946  -0.65726  -0.64999
 Alpha  occ. eigenvalues --   -0.64763  -0.63520  -0.63344  -0.62746  -0.62212
 Alpha  occ. eigenvalues --   -0.62075  -0.61929  -0.61060  -0.60576  -0.60002
 Alpha  occ. eigenvalues --   -0.59098  -0.58931  -0.58553  -0.57830  -0.56646
 Alpha  occ. eigenvalues --   -0.56333  -0.55940  -0.55604  -0.54510  -0.54360
 Alpha  occ. eigenvalues --   -0.53892  -0.53707  -0.53434  -0.52994  -0.52946
 Alpha  occ. eigenvalues --   -0.52402  -0.52009  -0.51534  -0.51019  -0.50549
 Alpha  occ. eigenvalues --   -0.50394  -0.49948  -0.49499  -0.49288  -0.49142
 Alpha  occ. eigenvalues --   -0.48628  -0.48244  -0.47974  -0.47508  -0.47332
 Alpha  occ. eigenvalues --   -0.46971  -0.46428  -0.44269  -0.43690  -0.42710
 Alpha  occ. eigenvalues --   -0.40942  -0.40620  -0.39022  -0.38541  -0.37981
 Alpha  occ. eigenvalues --   -0.37762  -0.37334  -0.36378  -0.35582  -0.34931
 Alpha  occ. eigenvalues --   -0.34794  -0.34667  -0.33987  -0.33480  -0.32950
 Alpha  occ. eigenvalues --   -0.32573  -0.32359  -0.31987  -0.31580  -0.30920
 Alpha  occ. eigenvalues --   -0.29706  -0.29351  -0.27873  -0.23447
 Alpha virt. eigenvalues --    0.03292   0.04078   0.05496   0.06217   0.07279
 Alpha virt. eigenvalues --    0.09376   0.10082   0.10308   0.11743   0.12571
 Alpha virt. eigenvalues --    0.12631   0.13377   0.14066   0.14597   0.15287
 Alpha virt. eigenvalues --    0.16036   0.16259   0.17383   0.17749   0.18009
 Alpha virt. eigenvalues --    0.18684   0.19320   0.19371   0.19710   0.20250
 Alpha virt. eigenvalues --    0.20773   0.20842   0.21312   0.21796   0.21936
 Alpha virt. eigenvalues --    0.22284   0.22877   0.23063   0.23492   0.23796
 Alpha virt. eigenvalues --    0.24432   0.24941   0.25403   0.25445   0.26318
 Alpha virt. eigenvalues --    0.27139   0.27307   0.28548   0.28711   0.29040
 Alpha virt. eigenvalues --    0.29536   0.29682   0.30101   0.31287   0.32066
 Alpha virt. eigenvalues --    0.32113   0.32887   0.33027   0.33482   0.33760
 Alpha virt. eigenvalues --    0.34566   0.35180   0.35546   0.35775   0.36459
 Alpha virt. eigenvalues --    0.37066   0.37350   0.37697   0.38592   0.38829
 Alpha virt. eigenvalues --    0.39322   0.40414   0.40890   0.41490   0.41746
 Alpha virt. eigenvalues --    0.42818   0.43458   0.43697   0.44295   0.44528
 Alpha virt. eigenvalues --    0.45311   0.45601   0.46121   0.46149   0.46955
 Alpha virt. eigenvalues --    0.47694   0.48219   0.48699   0.49526   0.49898
 Alpha virt. eigenvalues --    0.50239   0.50484   0.51095   0.51265   0.51923
 Alpha virt. eigenvalues --    0.52335   0.52407   0.52784   0.53436   0.53779
 Alpha virt. eigenvalues --    0.54651   0.55038   0.55548   0.55695   0.56279
 Alpha virt. eigenvalues --    0.56797   0.56902   0.57372   0.57746   0.58143
 Alpha virt. eigenvalues --    0.58855   0.59101   0.59357   0.59506   0.60550
 Alpha virt. eigenvalues --    0.60625   0.60901   0.61043   0.61304   0.61887
 Alpha virt. eigenvalues --    0.62554   0.63203   0.63320   0.63622   0.64138
 Alpha virt. eigenvalues --    0.65212   0.65392   0.66058   0.66472   0.67032
 Alpha virt. eigenvalues --    0.67701   0.68158   0.68387   0.68918   0.69289
 Alpha virt. eigenvalues --    0.69783   0.70387   0.70474   0.71048   0.71416
 Alpha virt. eigenvalues --    0.71676   0.72133   0.72623   0.72798   0.72995
 Alpha virt. eigenvalues --    0.73608   0.73840   0.74388   0.74613   0.74719
 Alpha virt. eigenvalues --    0.75032   0.75405   0.75827   0.76000   0.76200
 Alpha virt. eigenvalues --    0.76718   0.77435   0.77715   0.78356   0.78601
 Alpha virt. eigenvalues --    0.78768   0.79016   0.79320   0.79498   0.79807
 Alpha virt. eigenvalues --    0.80370   0.80615   0.80859   0.81401   0.81878
 Alpha virt. eigenvalues --    0.82114   0.82771   0.82881   0.83674   0.84181
 Alpha virt. eigenvalues --    0.84233   0.84818   0.84959   0.85718   0.86167
 Alpha virt. eigenvalues --    0.86652   0.87393   0.87627   0.88073   0.88455
 Alpha virt. eigenvalues --    0.89329   0.89420   0.90143   0.90657   0.90890
 Alpha virt. eigenvalues --    0.90969   0.91738   0.92140   0.92550   0.93149
 Alpha virt. eigenvalues --    0.93276   0.93675   0.94171   0.94694   0.95537
 Alpha virt. eigenvalues --    0.95815   0.96303   0.96530   0.97206   0.98138
 Alpha virt. eigenvalues --    0.98289   0.98658   0.99228   0.99482   1.00381
 Alpha virt. eigenvalues --    1.00402   1.01162   1.01678   1.02522   1.03329
 Alpha virt. eigenvalues --    1.03707   1.03983   1.04271   1.04687   1.05724
 Alpha virt. eigenvalues --    1.06034   1.06649   1.06968   1.07470   1.07913
 Alpha virt. eigenvalues --    1.08394   1.09065   1.10130   1.10717   1.10936
 Alpha virt. eigenvalues --    1.11378   1.11815   1.12223   1.13047   1.13834
 Alpha virt. eigenvalues --    1.14095   1.14385   1.15028   1.15145   1.15387
 Alpha virt. eigenvalues --    1.15970   1.16125   1.16691   1.16839   1.16974
 Alpha virt. eigenvalues --    1.17422   1.17768   1.18692   1.19035   1.19208
 Alpha virt. eigenvalues --    1.19552   1.19964   1.20522   1.20917   1.21301
 Alpha virt. eigenvalues --    1.21766   1.22517   1.22794   1.23258   1.23519
 Alpha virt. eigenvalues --    1.24179   1.24547   1.24982   1.25455   1.25570
 Alpha virt. eigenvalues --    1.26656   1.27081   1.27482   1.28506   1.28695
 Alpha virt. eigenvalues --    1.29172   1.29412   1.30067   1.30472   1.31557
 Alpha virt. eigenvalues --    1.31638   1.33066   1.33413   1.34116   1.34443
 Alpha virt. eigenvalues --    1.34587   1.35258   1.36125   1.37081   1.37302
 Alpha virt. eigenvalues --    1.38366   1.38849   1.39488   1.40609   1.40784
 Alpha virt. eigenvalues --    1.41601   1.42051   1.42212   1.44026   1.44386
 Alpha virt. eigenvalues --    1.44451   1.45791   1.47331   1.47508   1.48638
 Alpha virt. eigenvalues --    1.49273   1.50246   1.50830   1.51462   1.52140
 Alpha virt. eigenvalues --    1.52442   1.52539   1.54005   1.54055   1.55010
 Alpha virt. eigenvalues --    1.55188   1.55725   1.56688   1.56863   1.57525
 Alpha virt. eigenvalues --    1.57986   1.59151   1.59698   1.60161   1.60481
 Alpha virt. eigenvalues --    1.61318   1.62290   1.63006   1.63351   1.63628
 Alpha virt. eigenvalues --    1.64646   1.64930   1.66025   1.66988   1.67269
 Alpha virt. eigenvalues --    1.67720   1.68362   1.68793   1.69031   1.69515
 Alpha virt. eigenvalues --    1.69927   1.70577   1.70680   1.71006   1.71719
 Alpha virt. eigenvalues --    1.72099   1.72294   1.72676   1.72900   1.73775
 Alpha virt. eigenvalues --    1.74072   1.74589   1.74888   1.75325   1.75812
 Alpha virt. eigenvalues --    1.75873   1.76271   1.76460   1.76539   1.77389
 Alpha virt. eigenvalues --    1.77491   1.78352   1.79015   1.79596   1.79667
 Alpha virt. eigenvalues --    1.80130   1.80342   1.80476   1.81104   1.81671
 Alpha virt. eigenvalues --    1.81766   1.82417   1.83332   1.83465   1.83715
 Alpha virt. eigenvalues --    1.83980   1.84387   1.85021   1.85663   1.86198
 Alpha virt. eigenvalues --    1.86338   1.86851   1.87326   1.87770   1.87897
 Alpha virt. eigenvalues --    1.88282   1.89084   1.89751   1.89873   1.90383
 Alpha virt. eigenvalues --    1.90943   1.91419   1.91631   1.92212   1.92351
 Alpha virt. eigenvalues --    1.93217   1.93714   1.94279   1.94436   1.95577
 Alpha virt. eigenvalues --    1.95774   1.96725   1.97765   1.97949   1.98465
 Alpha virt. eigenvalues --    1.99361   1.99915   2.00061   2.00473   2.01342
 Alpha virt. eigenvalues --    2.01668   2.02353   2.02799   2.03407   2.04374
 Alpha virt. eigenvalues --    2.04574   2.06052   2.06845   2.07039   2.07379
 Alpha virt. eigenvalues --    2.08379   2.09093   2.09383   2.10408   2.11215
 Alpha virt. eigenvalues --    2.11439   2.11547   2.12486   2.13412   2.13727
 Alpha virt. eigenvalues --    2.15399   2.15928   2.16622   2.17162   2.17325
 Alpha virt. eigenvalues --    2.18749   2.19226   2.20520   2.21251   2.21281
 Alpha virt. eigenvalues --    2.22181   2.22588   2.23340   2.23704   2.23915
 Alpha virt. eigenvalues --    2.24861   2.25273   2.25654   2.26652   2.26796
 Alpha virt. eigenvalues --    2.27518   2.28797   2.29094   2.29443   2.29596
 Alpha virt. eigenvalues --    2.30390   2.31071   2.32068   2.32561   2.33258
 Alpha virt. eigenvalues --    2.33612   2.33822   2.34203   2.34676   2.34956
 Alpha virt. eigenvalues --    2.35523   2.35554   2.36676   2.37439   2.38064
 Alpha virt. eigenvalues --    2.38957   2.39660   2.40547   2.41229   2.41485
 Alpha virt. eigenvalues --    2.42011   2.42306   2.42876   2.43187   2.43832
 Alpha virt. eigenvalues --    2.44088   2.45129   2.45802   2.45853   2.46797
 Alpha virt. eigenvalues --    2.47467   2.48293   2.48626   2.49355   2.50252
 Alpha virt. eigenvalues --    2.50552   2.51846   2.52072   2.53513   2.53912
 Alpha virt. eigenvalues --    2.54838   2.56253   2.56800   2.57763   2.58274
 Alpha virt. eigenvalues --    2.59114   2.59375   2.61451   2.63074   2.63735
 Alpha virt. eigenvalues --    2.64109   2.64290   2.64684   2.65459   2.65514
 Alpha virt. eigenvalues --    2.66747   2.66849   2.67846   2.68598   2.68772
 Alpha virt. eigenvalues --    2.69386   2.70235   2.71040   2.71052   2.72273
 Alpha virt. eigenvalues --    2.72722   2.72954   2.74683   2.75157   2.75418
 Alpha virt. eigenvalues --    2.75941   2.76702   2.77367   2.77646   2.78008
 Alpha virt. eigenvalues --    2.79303   2.80112   2.80324   2.80602   2.81169
 Alpha virt. eigenvalues --    2.82168   2.82409   2.82501   2.83173   2.83972
 Alpha virt. eigenvalues --    2.84326   2.85420   2.86119   2.86899   2.87118
 Alpha virt. eigenvalues --    2.87178   2.87972   2.88419   2.89940   2.91155
 Alpha virt. eigenvalues --    2.92718   2.93006   2.94803   2.95095   2.96556
 Alpha virt. eigenvalues --    2.98473   2.99843   3.00439   3.02001   3.03335
 Alpha virt. eigenvalues --    3.04963   3.06248   3.06788   3.08251   3.10061
 Alpha virt. eigenvalues --    3.11151   3.12988   3.13882   3.14695   3.16965
 Alpha virt. eigenvalues --    3.17540   3.18364   3.18669   3.21683   3.22085
 Alpha virt. eigenvalues --    3.23024   3.24813   3.25429   3.28468   3.35300
 Alpha virt. eigenvalues --    3.44655   3.47424   3.48696   3.50254   3.52348
 Alpha virt. eigenvalues --    3.54093   3.55149   3.57303   3.59660   3.60800
 Alpha virt. eigenvalues --    3.64815   3.72288   3.76492
          Condensed to atoms (all electrons):
 Mulliken charges:
               1
     1  N   -0.293020
     2  C    0.216246
     3  C    0.075898
     4  N   -0.247806
     5  C    0.136463
     6  H    0.024721
     7  N   -0.273092
     8  C    0.134583
     9  H   -0.001191
    10  N   -0.253483
    11  C    0.199832
    12  C    0.054944
    13  N   -0.050011
    14  H    0.110138
    15  H    0.083705
    16  H    0.020916
    17  H    0.023706
    18  H    0.004411
    19  N   -0.297307
    20  C    0.202294
    21  C    0.178518
    22  N   -0.082252
    23  H    0.122468
    24  H    0.123509
    25  N   -0.219844
    26  C    0.097248
    27  N   -0.081733
    28  H    0.119801
    29  C    0.162443
    30  O   -0.317387
    31  C    0.021584
    32  N   -0.208115
    33  C    0.101517
    34  H    0.023034
    35  H    0.004397
    36  H    0.037531
    37  H    0.016652
    38  H    0.001768
    39  H    0.032335
    40  H    0.074529
    41  H    0.023325
    42  C   -0.103297
    43  O   -0.270731
    44  C    0.175121
    45  H    0.128733
    46  N   -0.107373
    47  O   -0.341864
    48  C    0.297173
    49  H    0.044008
    50  C    0.160219
    51  C    0.107255
    52  N   -0.269763
    53  H    0.032803
    54  H    0.049758
    55  H    0.029699
    56  H    0.123660
    57  H    0.121364
    58  N   -0.062700
    59  C    0.120882
    60  C    0.236116
    61  N   -0.300341
    62  H    0.023846
    63  C    0.179020
    64  N   -0.307840
    65  H    0.039979
    66  C    0.134627
    67  N   -0.253066
    68  C    0.038524
    69  C    0.194356
    70  N   -0.323445
 Sum of Mulliken charges =  -0.00000
 Mulliken charges with hydrogens summed into heavy atoms:
               1
     1  N   -0.293020
     2  C    0.265280
     3  C    0.075898
     4  N   -0.247806
     5  C    0.161184
     7  N   -0.273092
     8  C    0.133392
    10  N   -0.253483
    11  C    0.199832
    12  C    0.054944
    13  N    0.143833
    19  N   -0.297307
    20  C    0.202294
    21  C    0.237098
    22  N    0.163725
    25  N   -0.219844
    26  C    0.097248
    27  N    0.038067
    29  C    0.162443
    30  O   -0.317387
    31  C    0.021584
    32  N   -0.208115
    33  C    0.124552
    42  C   -0.079972
    43  O   -0.270731
    44  C    0.175121
    46  N    0.021360
    47  O   -0.341864
    48  C    0.297173
    50  C    0.204228
    51  C    0.215887
    52  N   -0.269763
    58  N    0.182323
    59  C    0.120882
    60  C    0.236116
    61  N   -0.300341
    63  C    0.202866
    64  N   -0.307840
    66  C    0.174606
    67  N   -0.253066
    68  C    0.038524
    69  C    0.306616
    70  N   -0.323445
 Electronic spatial extent (au):  <R**2>=          21992.1030
 Charge=             -0.0000 electrons
 Dipole moment (field-independent basis, Debye):
    X=             -4.9781    Y=              7.7146    Z=             -3.1725  Tot=              9.7140
 Quadrupole moment (field-independent basis, Debye-Ang):
   XX=           -146.3350   YY=           -235.2709   ZZ=           -257.9331
   XY=             -6.7068   XZ=             -7.7354   YZ=             18.3092
 Traceless Quadrupole moment (field-independent basis, Debye-Ang):
   XX=             66.8447   YY=            -22.0912   ZZ=            -44.7534
   XY=             -6.7068   XZ=             -7.7354   YZ=             18.3092
 Octapole moment (field-independent basis, Debye-Ang**2):
  XXX=             74.7354  YYY=             88.8164  ZZZ=              0.1995  XYY=            -92.4486
  XXY=            132.0684  XXZ=            -26.8768  XZZ=            -22.1442  YZZ=             16.1735
  YYZ=            -65.7427  XYZ=              2.6838
 Hexadecapole moment (field-independent basis, Debye-Ang**3):
 XXXX=         -16941.3966 YYYY=          -3306.0088 ZZZZ=          -3435.7170 XXXY=           -820.0315
 XXXZ=           -274.3219 YYYX=             66.9764 YYYZ=            203.5920 ZZZX=            -39.1295
 ZZZY=             68.9955 XXYY=          -3863.7143 XXZZ=          -4201.0451 YYZZ=          -1224.3577
 XXYZ=             12.8114 YYXZ=            125.8311 ZZXY=             13.5499
 N-N= 5.687698041453D+03 E-N=-1.615602224757D+04  KE= 2.038691555488D+03
 No NMR shielding tensors so no spin-rotation constants.
 Leave Link  601 at Thu Jan 18 08:17:13 2018, MaxMem=  4294967296 cpu:              50.8 elap:               1.8
 (Enter /share/apps/g16/l9999.exe)
 1\1\GINC-COMPUTE-0-3\SP\RwB97XD\CC-pVDZ\C23H27N17O3\SATYA\18-Jan-2018\
 0\\#p wb97xd/cc-pvdz sp scf=(maxcycles=20)\\Base pair stacking\\0,1\N,
 0,-1.85768,3.10394,-5.64572\C,0,-2.26181,4.46525,-5.24383\C,0,-1.78211
 ,0.92261,-5.91668\N,0,-0.67901,1.43503,-6.584\C,0,-0.76869,2.72869,-6.
 39405\H,0,-0.06115,3.46264,-6.78088\N,0,-3.38664,-0.55567,-5.02051\C,0
 ,-3.9902,0.52589,-4.51699\H,0,-4.89652,0.3291,-3.94592\N,0,-3.64391,1.
 80802,-4.61252\C,0,-2.51807,1.93931,-5.3334\C,0,-2.25594,-0.39024,-5.7
 4109\N,0,-1.65202,-1.46866,-6.24454\H,0,-0.81278,-1.39333,-6.78419\H,0
 ,-2.01765,-2.38813,-6.09953\H,0,-2.42372,5.02082,-6.05949\H,0,-3.10031
 ,4.41845,-4.70175\H,0,-1.53619,4.8828,-4.69689\N,0,-1.16125,3.43756,-2
 .86843\C,0,-1.65866,2.16435,-2.72849\C,0,-1.92751,4.68171,-2.65483\N,0
 ,-4.297,0.0303,-1.98907\H,0,-4.45804,-0.95521,-1.94342\H,0,-5.07039,0.
 6269,-1.77308\N,0,-2.92084,1.83859,-2.37519\C,0,-3.09816,0.5303,-2.324
 77\N,0,-2.11586,-0.39025,-2.599\H,0,-2.34153,-1.37105,-2.53527\C,0,-0.
 81024,-0.07774,-2.96446\O,0,-0.00011,-0.9851,-3.19053\C,0,-0.60456,1.3
 2411,-3.02287\N,0,0.53176,2.05509,-3.34121\C,0,0.15495,3.30059,-3.2365
 6\H,0,0.79936,4.16159,-3.41738\H,0,-1.94001,5.21653,-3.499\H,0,-2.8641
 1,4.45295,-2.39267\H,0,-1.50032,5.2175,-1.92734\H,0,-4.27035,-6.07373,
 -2.66638\H,0,-3.5546,-6.18826,-1.06038\H,0,-4.15835,-4.63832,-1.64735\
 H,0,0.34896,-6.78283,-3.80907\C,0,-0.30113,-5.97959,-3.46206\O,0,1.226
 91,-4.25303,-4.01994\C,0,0.14536,-4.62385,-3.56437\H,0,-0.47319,-2.716
 96,-3.15271\N,0,-0.75321,-3.68609,-3.09702\O,0,-2.71983,-3.02535,-2.17
 343\C,0,-1.99401,-3.92404,-2.561\H,0,-1.89244,-7.25688,-2.84395\C,0,-1
 .50629,-6.24333,-2.94376\C,0,-3.67059,-5.55924,-1.93041\N,0,-2.35305,-
 5.25599,-2.49597\H,0,-6.85851,-7.54457,-3.68494\H,0,-6.15612,-6.34641,
 -2.82868\H,0,-5.75255,-7.90118,-2.53903\H,0,-0.98297,-4.90412,-7.36891
 \H,0,-1.44954,-6.54391,-7.42817\N,0,-1.57307,-5.63558,-7.02703\C,0,-2.
 48453,-5.4108,-6.0784\C,0,-4.23201,-6.01808,-4.582\N,0,-4.37577,-4.788
 11,-4.0615\H,0,-3.56775,-2.91496,-4.25903\C,0,-3.51818,-3.93961,-4.624
 96\N,0,-2.60453,-4.16281,-5.57522\H,0,-4.81652,-9.17056,-4.9972\C,0,-4
 .43375,-8.15092,-5.04968\N,0,-3.4752,-7.75509,-5.85104\C,0,-3.33734,-6
 .40464,-5.56468\C,0,-6.01203,-7.24317,-3.24604\N,0,-4.93756,-7.15137,-
 4.25356\\Version=EM64L-G16RevA.03\State=1-A\HF=-2048.6032123\RMSD=4.93
 2e-09\Dipole=-3.5232937,-1.3762029,0.5462698\Quadrupole=-30.6856582,46
 .9623016,-16.2766434,15.7130491,-14.1538483,-3.6537697\PG=C01 [X(C23H2
 7N17O3)]\\@


 THE RED LIGHT IS ALWAYS LONGER THAN THE GREEN LIGHT.

                     -- PETER'S THEORY OF RELATIVITY
 Job cpu time:       0 days  7 hours 18 minutes 52.9 seconds.
 Elapsed time:       0 days  0 hours 14 minutes 11.8 seconds.
 File lengths (MBytes):  RWF=    298 Int=      0 D2E=      0 Chk=     33 Scr=      1
 Normal termination of Gaussian 16 at Thu Jan 18 08:17:14 2018.
