 Entering Gaussian System, Link 0=g16
 Input=str10.-5.0.5.com
 Output=str10.-5.0.5.log
 Initial command:
 /share/apps/g16/l1.exe "/state/partition1/scr/Gau-12476.inp" -scrdir="/state/partition1/scr/"
 Entering Link 1 = /share/apps/g16/l1.exe PID=     12477.
  
 Copyright (c) 1988,1990,1992,1993,1995,1998,2003,2009,2016,
            Gaussian, Inc.  All Rights Reserved.
  
 This is part of the Gaussian(R) 16 program.  It is based on
 the Gaussian(R) 09 system (copyright 2009, Gaussian, Inc.),
 the Gaussian(R) 03 system (copyright 2003, Gaussian, Inc.),
 the Gaussian(R) 98 system (copyright 1998, Gaussian, Inc.),
 the Gaussian(R) 94 system (copyright 1995, Gaussian, Inc.),
 the Gaussian 92(TM) system (copyright 1992, Gaussian, Inc.),
 the Gaussian 90(TM) system (copyright 1990, Gaussian, Inc.),
 the Gaussian 88(TM) system (copyright 1988, Gaussian, Inc.),
 the Gaussian 86(TM) system (copyright 1986, Carnegie Mellon
 University), and the Gaussian 82(TM) system (copyright 1983,
 Carnegie Mellon University). Gaussian is a federally registered
 trademark of Gaussian, Inc.
  
 This software contains proprietary and confidential information,
 including trade secrets, belonging to Gaussian, Inc.
  
 This software is provided under written license and may be
 used, copied, transmitted, or stored only in accord with that
 written license.
  
 The following legend is applicable only to US Government
 contracts under FAR:
  
                    RESTRICTED RIGHTS LEGEND
  
 Use, reproduction and disclosure by the US Government is
 subject to restrictions as set forth in subparagraphs (a)
 and (c) of the Commercial Computer Software - Restricted
 Rights clause in FAR 52.227-19.
  
 Gaussian, Inc.
 340 Quinnipiac St., Bldg. 40, Wallingford CT 06492
  
  
 ---------------------------------------------------------------
 Warning -- This program may not be used in any manner that
 competes with the business of Gaussian, Inc. or will provide
 assistance to any competitor of Gaussian, Inc.  The licensee
 of this program is prohibited from giving any competitor of
 Gaussian, Inc. access to this program.  By using this program,
 the user acknowledges that Gaussian, Inc. is engaged in the
 business of creating and licensing software in the field of
 computational chemistry and represents and warrants to the
 licensee that it is not a competitor of Gaussian, Inc. and that
 it will not use this program in any manner prohibited above.
 ---------------------------------------------------------------
  

 Cite this work as:
 Gaussian 16, Revision A.03,
 M. J. Frisch, G. W. Trucks, H. B. Schlegel, G. E. Scuseria, 
 M. A. Robb, J. R. Cheeseman, G. Scalmani, V. Barone, 
 G. A. Petersson, H. Nakatsuji, X. Li, M. Caricato, A. V. Marenich, 
 J. Bloino, B. G. Janesko, R. Gomperts, B. Mennucci, H. P. Hratchian, 
 J. V. Ortiz, A. F. Izmaylov, J. L. Sonnenberg, D. Williams-Young, 
 F. Ding, F. Lipparini, F. Egidi, J. Goings, B. Peng, A. Petrone, 
 T. Henderson, D. Ranasinghe, V. G. Zakrzewski, J. Gao, N. Rega, 
 G. Zheng, W. Liang, M. Hada, M. Ehara, K. Toyota, R. Fukuda, 
 J. Hasegawa, M. Ishida, T. Nakajima, Y. Honda, O. Kitao, H. Nakai, 
 T. Vreven, K. Throssell, J. A. Montgomery, Jr., J. E. Peralta, 
 F. Ogliaro, M. J. Bearpark, J. J. Heyd, E. N. Brothers, K. N. Kudin, 
 V. N. Staroverov, T. A. Keith, R. Kobayashi, J. Normand, 
 K. Raghavachari, A. P. Rendell, J. C. Burant, S. S. Iyengar, 
 J. Tomasi, M. Cossi, J. M. Millam, M. Klene, C. Adamo, R. Cammi, 
 J. W. Ochterski, R. L. Martin, K. Morokuma, O. Farkas, 
 J. B. Foresman, and D. J. Fox, Gaussian, Inc., Wallingford CT, 2016.
 
 ******************************************
 Gaussian 16:  EM64L-G16RevA.03 25-Dec-2016
                18-Jan-2018 
 ******************************************
 %nprocshared=32
 Will use up to   32 processors via shared memory.
 %mem=32GB
 %chk=allatoms_t.chk
 ---------------------------------------
 #p wb97xd/cc-pvdz sp scf=(maxcycles=20)
 ---------------------------------------
 1/38=1,172=1/1;
 2/12=2,17=6,18=5,40=1/2;
 3/5=16,11=2,25=1,30=1,74=-58/1,2,3;
 4//1;
 5/5=2,7=20,38=5/2;
 6/7=2,8=2,9=2,10=2,28=1/1;
 99/5=1,9=1/99;
 Leave Link    1 at Thu Jan 18 10:57:47 2018, MaxMem=  4294967296 cpu:               2.7 elap:               0.1
 (Enter /share/apps/g16/l101.exe)
 ------------------
 Base pair stacking
 ------------------
 Symbolic Z-matrix:
 Charge =  0 Multiplicity = 1
 N                    -0.06139   4.89298  -6.36812 
 C                    -0.60005   6.26664  -6.33794 
 C                     0.12038   2.70112  -6.37205 
 N                     1.41287   3.19788  -6.45819 
 C                     1.25163   4.49852  -6.45237 
 H                     2.06359   5.22417  -6.50798 
 N                    -1.72879   1.24248  -6.24611 
 C                    -2.49325   2.33841  -6.20019 
 H                    -3.5646    2.15543  -6.12962 
 N                    -2.13467   3.62042  -6.22823 
 C                    -0.79907   3.73406  -6.31579 
 C                    -0.38884   1.39033  -6.33408 
 N                     0.37594   0.29754  -6.38003 
 H                     1.37249   0.35961  -6.44528 
 H                    -0.02094  -0.61995  -6.35081 
 H                    -0.33745   6.74757  -7.17456 
 H                    -1.59692   6.2332   -6.27277 
 H                    -0.23209   6.75387  -5.54597 
 N                    -0.70621   4.41216  -3.17746 
 C                    -1.22316   3.13956  -3.14107 
 C                    -1.50137   5.65637  -3.19627 
 N                    -3.96336   1.00748  -3.05593 
 H                    -4.13094   0.02233  -3.03076 
 H                    -4.76615   1.60433  -3.05952 
 N                    -2.53381   2.81456  -3.11658 
 C                    -2.71841   1.50671  -3.08365 
 N                    -1.69883   0.5859   -3.0753 
 H                    -1.9335   -0.39452  -3.04937 
 C                    -0.34307   0.89764  -3.10007 
 O                     0.49776  -0.0099   -3.08971 
 C                    -0.12898   2.29899  -3.13556 
 N                     1.05113   3.02918  -3.16783 
 C                     0.66035   4.27454  -3.19188 
 H                     1.32977   5.13497  -3.22061 
 H                    -1.29641   6.17238  -4.02725 
 H                    -2.47393   5.42817  -3.17839 
 H                    -1.27536   6.21048  -2.39583 
 H                    -3.76486  -5.10975  -3.56457 
 H                    -3.48587  -5.18481  -1.82641 
 H                    -3.91818  -3.65162  -2.5839 
 H                     0.99282  -5.8178   -3.46571 
 C                     0.27556  -5.01078  -3.31573 
 O                     1.89601  -3.28835  -3.50145 
 C                     0.73364  -3.65514  -3.33072 
 H                     0.03048  -1.74315  -3.13529 
 N                    -0.25466  -2.71238  -3.13138 
 O                    -2.39243  -2.04254  -2.75932 
 C                    -1.59159  -2.94545  -2.92685 
 H                    -1.42142  -6.28309  -3.09829 
 C                    -1.02237  -5.26983  -3.11859 
 C                    -3.37425  -4.57579  -2.71112 
 N                    -1.95556  -4.27765  -2.92596 
 H                    -5.46363  -5.73791  -6.15979 
 H                    -5.26141  -4.44887  -5.18022 
 H                    -5.06341  -5.9589   -4.59314 
 H                     1.48341  -3.19102  -6.72315 
 H                     1.09303  -4.8463   -6.85635 
 N                     0.79587  -3.91351  -6.64943 
 C                    -0.46163  -3.64604  -6.29118 
 C                    -2.72269  -4.19357  -5.79164 
 N                    -3.09346  -2.93144  -5.51964 
 H                    -2.27781  -1.05203  -5.46335 
 C                    -2.06328  -2.10055  -5.66548 
 N                    -0.80306  -2.36649  -6.02421 
 H                    -3.05323  -7.38883  -6.15664 
 C                    -2.68596  -6.3634   -6.1061 
 N                    -1.45474  -5.99902  -6.3688 
 C                    -1.46439  -4.62556  -6.17322 
 C                    -4.93829  -5.3707   -5.39222 
 N                    -3.50739  -5.32163  -5.75017 
 
 ITRead=  0  0  0  0  0  0  0  0  0  0  0  0  0  0  0  0  0  0  0  0
 ITRead=  0  0  0  0  0  0  0  0  0  0  0  0  0  0  0  0  0  0  0  0
 ITRead=  0  0  0  0  0  0  0  0  0  0  0  0  0  0  0  0  0  0  0  0
 ITRead=  0  0  0  0  0  0  0  0  0  0
 MicOpt= -1 -1 -1 -1 -1 -1 -1 -1 -1 -1 -1 -1 -1 -1 -1 -1 -1 -1 -1 -1
 MicOpt= -1 -1 -1 -1 -1 -1 -1 -1 -1 -1 -1 -1 -1 -1 -1 -1 -1 -1 -1 -1
 MicOpt= -1 -1 -1 -1 -1 -1 -1 -1 -1 -1 -1 -1 -1 -1 -1 -1 -1 -1 -1 -1
 MicOpt= -1 -1 -1 -1 -1 -1 -1 -1 -1 -1
 NAtoms=     70 NQM=       70 NQMF=       0 NMMI=      0 NMMIF=      0
                NMic=       0 NMicF=      0.
                    Isotopes and Nuclear Properties:
 (Nuclear quadrupole moments (NQMom) in fm**2, nuclear magnetic moments (NMagM)
  in nuclear magnetons)

  Atom         1           2           3           4           5           6           7           8           9          10
 IAtWgt=          14          12          12          14          12           1          14          12           1          14
 AtmWgt=  14.0030740  12.0000000  12.0000000  14.0030740  12.0000000   1.0078250  14.0030740  12.0000000   1.0078250  14.0030740
 NucSpn=           2           0           0           2           0           1           2           0           1           2
 AtZEff=  -0.0000000  -0.0000000  -0.0000000  -0.0000000  -0.0000000  -0.0000000  -0.0000000  -0.0000000  -0.0000000  -0.0000000
 NQMom=    2.0440000   0.0000000   0.0000000   2.0440000   0.0000000   0.0000000   2.0440000   0.0000000   0.0000000   2.0440000
 NMagM=    0.4037610   0.0000000   0.0000000   0.4037610   0.0000000   2.7928460   0.4037610   0.0000000   2.7928460   0.4037610
 AtZNuc=   7.0000000   6.0000000   6.0000000   7.0000000   6.0000000   1.0000000   7.0000000   6.0000000   1.0000000   7.0000000

  Atom        11          12          13          14          15          16          17          18          19          20
 IAtWgt=          12          12          14           1           1           1           1           1          14          12
 AtmWgt=  12.0000000  12.0000000  14.0030740   1.0078250   1.0078250   1.0078250   1.0078250   1.0078250  14.0030740  12.0000000
 NucSpn=           0           0           2           1           1           1           1           1           2           0
 AtZEff=  -0.0000000  -0.0000000  -0.0000000  -0.0000000  -0.0000000  -0.0000000  -0.0000000  -0.0000000  -0.0000000  -0.0000000
 NQMom=    0.0000000   0.0000000   2.0440000   0.0000000   0.0000000   0.0000000   0.0000000   0.0000000   2.0440000   0.0000000
 NMagM=    0.0000000   0.0000000   0.4037610   2.7928460   2.7928460   2.7928460   2.7928460   2.7928460   0.4037610   0.0000000
 AtZNuc=   6.0000000   6.0000000   7.0000000   1.0000000   1.0000000   1.0000000   1.0000000   1.0000000   7.0000000   6.0000000

  Atom        21          22          23          24          25          26          27          28          29          30
 IAtWgt=          12          14           1           1          14          12          14           1          12          16
 AtmWgt=  12.0000000  14.0030740   1.0078250   1.0078250  14.0030740  12.0000000  14.0030740   1.0078250  12.0000000  15.9949146
 NucSpn=           0           2           1           1           2           0           2           1           0           0
 AtZEff=  -0.0000000  -0.0000000  -0.0000000  -0.0000000  -0.0000000  -0.0000000  -0.0000000  -0.0000000  -0.0000000  -0.0000000
 NQMom=    0.0000000   2.0440000   0.0000000   0.0000000   2.0440000   0.0000000   2.0440000   0.0000000   0.0000000   0.0000000
 NMagM=    0.0000000   0.4037610   2.7928460   2.7928460   0.4037610   0.0000000   0.4037610   2.7928460   0.0000000   0.0000000
 AtZNuc=   6.0000000   7.0000000   1.0000000   1.0000000   7.0000000   6.0000000   7.0000000   1.0000000   6.0000000   8.0000000

  Atom        31          32          33          34          35          36          37          38          39          40
 IAtWgt=          12          14          12           1           1           1           1           1           1           1
 AtmWgt=  12.0000000  14.0030740  12.0000000   1.0078250   1.0078250   1.0078250   1.0078250   1.0078250   1.0078250   1.0078250
 NucSpn=           0           2           0           1           1           1           1           1           1           1
 AtZEff=  -0.0000000  -0.0000000  -0.0000000  -0.0000000  -0.0000000  -0.0000000  -0.0000000  -0.0000000  -0.0000000  -0.0000000
 NQMom=    0.0000000   2.0440000   0.0000000   0.0000000   0.0000000   0.0000000   0.0000000   0.0000000   0.0000000   0.0000000
 NMagM=    0.0000000   0.4037610   0.0000000   2.7928460   2.7928460   2.7928460   2.7928460   2.7928460   2.7928460   2.7928460
 AtZNuc=   6.0000000   7.0000000   6.0000000   1.0000000   1.0000000   1.0000000   1.0000000   1.0000000   1.0000000   1.0000000

  Atom        41          42          43          44          45          46          47          48          49          50
 IAtWgt=           1          12          16          12           1          14          16          12           1          12
 AtmWgt=   1.0078250  12.0000000  15.9949146  12.0000000   1.0078250  14.0030740  15.9949146  12.0000000   1.0078250  12.0000000
 NucSpn=           1           0           0           0           1           2           0           0           1           0
 AtZEff=  -0.0000000  -0.0000000  -0.0000000  -0.0000000  -0.0000000  -0.0000000  -0.0000000  -0.0000000  -0.0000000  -0.0000000
 NQMom=    0.0000000   0.0000000   0.0000000   0.0000000   0.0000000   2.0440000   0.0000000   0.0000000   0.0000000   0.0000000
 NMagM=    2.7928460   0.0000000   0.0000000   0.0000000   2.7928460   0.4037610   0.0000000   0.0000000   2.7928460   0.0000000
 AtZNuc=   1.0000000   6.0000000   8.0000000   6.0000000   1.0000000   7.0000000   8.0000000   6.0000000   1.0000000   6.0000000

  Atom        51          52          53          54          55          56          57          58          59          60
 IAtWgt=          12          14           1           1           1           1           1          14          12          12
 AtmWgt=  12.0000000  14.0030740   1.0078250   1.0078250   1.0078250   1.0078250   1.0078250  14.0030740  12.0000000  12.0000000
 NucSpn=           0           2           1           1           1           1           1           2           0           0
 AtZEff=  -0.0000000  -0.0000000  -0.0000000  -0.0000000  -0.0000000  -0.0000000  -0.0000000  -0.0000000  -0.0000000  -0.0000000
 NQMom=    0.0000000   2.0440000   0.0000000   0.0000000   0.0000000   0.0000000   0.0000000   2.0440000   0.0000000   0.0000000
 NMagM=    0.0000000   0.4037610   2.7928460   2.7928460   2.7928460   2.7928460   2.7928460   0.4037610   0.0000000   0.0000000
 AtZNuc=   6.0000000   7.0000000   1.0000000   1.0000000   1.0000000   1.0000000   1.0000000   7.0000000   6.0000000   6.0000000

  Atom        61          62          63          64          65          66          67          68          69          70
 IAtWgt=          14           1          12          14           1          12          14          12          12          14
 AtmWgt=  14.0030740   1.0078250  12.0000000  14.0030740   1.0078250  12.0000000  14.0030740  12.0000000  12.0000000  14.0030740
 NucSpn=           2           1           0           2           1           0           2           0           0           2
 AtZEff=  -0.0000000  -0.0000000  -0.0000000  -0.0000000  -0.0000000  -0.0000000  -0.0000000  -0.0000000  -0.0000000  -0.0000000
 NQMom=    2.0440000   0.0000000   0.0000000   2.0440000   0.0000000   0.0000000   2.0440000   0.0000000   0.0000000   2.0440000
 NMagM=    0.4037610   2.7928460   0.0000000   0.4037610   2.7928460   0.0000000   0.4037610   0.0000000   0.0000000   0.4037610
 AtZNuc=   7.0000000   1.0000000   6.0000000   7.0000000   1.0000000   6.0000000   7.0000000   6.0000000   6.0000000   7.0000000
 Leave Link  101 at Thu Jan 18 10:57:48 2018, MaxMem=  4294967296 cpu:               8.0 elap:               0.3
 (Enter /share/apps/g16/l202.exe)
 Stoichiometry    C23H27N17O3
 Framework group  C1[X(C23H27N17O3)]
 Deg. of freedom   204
 Full point group                 C1      NOp   1
 Largest Abelian subgroup         C1      NOp   1
 Largest concise Abelian subgroup C1      NOp   1
                         Standard orientation:                         
 ---------------------------------------------------------------------
 Center     Atomic      Atomic             Coordinates (Angstroms)
 Number     Number       Type             X           Y           Z
 ---------------------------------------------------------------------
      1          7           0        5.418426   -1.309152   -1.043316
      2          6           0        6.694436   -0.728233   -1.504117
      3          6           0        3.279420   -1.709561   -0.724519
      4          7           0        3.966810   -2.654941    0.022791
      5          6           0        5.227978   -2.375867   -0.199179
      6          1           0        6.068622   -2.920860    0.231215
      7          7           0        1.556656   -0.445452   -1.723036
      8          6           0        2.523832    0.278046   -2.296352
      9          1           0        2.180203    1.088727   -2.937420
     10          7           0        3.845554    0.151069   -2.197133
     11          6           0        4.160785   -0.873102   -1.387127
     12          6           0        1.906365   -1.468960   -0.913592
     13          7           0        0.942342   -2.192334   -0.340374
     14          1           0        1.155090   -2.959201    0.266154
     15          1           0       -0.024876   -1.992497   -0.497571
     16          1           0        7.220106   -1.422604   -1.995752
     17          1           0        6.509940    0.042270   -2.113545
     18          1           0        7.221570   -0.409249   -0.716473
     19          7           0        4.805221    1.240800    0.943897
     20          6           0        3.468767    1.490620    0.745020
     21          6           0        5.915146    1.961385    0.288523
     22          7           0        0.946243    3.299481   -0.812737
     23          1           0       -0.053156    3.320316   -0.814708
     24          1           0        1.414946    3.957726   -1.402437
     25          7           0        2.949189    2.428786   -0.075901
     26          6           0        1.628151    2.428351   -0.053768
     27          7           0        0.871927    1.575243    0.712937
     28          1           0       -0.132943    1.646349    0.666617
     29          6           0        1.385217    0.602214    1.564775
     30          8           0        0.615077   -0.116885    2.213245
     31          6           0        2.803162    0.590596    1.551708
     32          7           0        3.703621   -0.208165    2.243108
     33          6           0        4.875846    0.212552    1.851836
     34          1           0        5.827835   -0.193675    2.195326
     35          1           0        6.466710    1.317284   -0.240357
     36          1           0        5.542415    2.658914   -0.322044
     37          1           0        6.486832    2.398189    0.982209
     38          1           0       -5.063813    2.075363   -0.497502
     39          1           0       -5.117927    3.024914    0.985769
     40          1           0       -3.658160    3.020000   -0.004388
     41          1           0       -5.046104   -1.432357    2.795250
     42          6           0       -4.358688   -0.708693    2.357063
     43          8           0       -2.408982   -1.813272    3.135310
     44          6           0       -2.949320   -0.891008    2.525186
     45          1           0       -1.168156   -0.013926    2.028683
     46          7           0       -2.169312    0.080800    1.931514
     47          8           0       -1.834933    1.978072    0.729132
     48          6           0       -2.604279    1.169811    1.218496
     49          1           0       -5.875444    0.527543    1.510324
     50          6           0       -4.813349    0.343641    1.666795
     51          6           0       -4.487848    2.424520    0.346547
     52          7           0       -3.976080    1.276514    1.100139
     53          1           0       -5.908417    1.508422   -3.494299
     54          1           0       -4.616167    2.171229   -2.750760
     55          1           0       -6.086279    2.236701   -2.044686
     56          1           0       -2.334203   -3.654950    0.459177
     57          1           0       -4.027636   -3.657602    0.253342
     58          7           0       -3.153156   -3.188684    0.124437
     59          6           0       -3.083321   -1.994642   -0.467657
     60          6           0       -3.972484   -0.068567   -1.545315
     61          7           0       -2.784419    0.537618   -1.704902
     62          1           0       -0.804217    0.204032   -1.294833
     63          6           0       -1.805635   -0.215060   -1.206528
     64          7           0       -1.873540   -1.411234   -0.613128
     65          1           0       -7.176108   -0.456051   -1.742334
     66          6           0       -6.107685   -0.567777   -1.555417
     67          7           0       -5.558159   -1.602360   -0.967757
     68          6           0       -4.204519   -1.298661   -0.954922
     69          6           0       -5.475828    1.681199   -2.609425
     70          7           0       -5.206587    0.398415   -1.931202
 ---------------------------------------------------------------------
 Rotational constants (GHZ):           0.1803134           0.0522548           0.0514022
 Leave Link  202 at Thu Jan 18 10:57:48 2018, MaxMem=  4294967296 cpu:               0.4 elap:               0.0
 (Enter /share/apps/g16/l301.exe)
 Standard basis: CC-pVDZ (5D, 7F)
 Ernie: Thresh=  0.10000D-02 Tol=  0.10000D-05 Strict=F.
 Ernie:  86 primitive shells out of 1081 were deleted.
 There are   780 symmetry adapted cartesian basis functions of A   symmetry.
 There are   737 symmetry adapted basis functions of A   symmetry.
   737 basis functions,  1608 primitive gaussians,   780 cartesian basis functions
   154 alpha electrons      154 beta electrons
       nuclear repulsion energy      5632.8880165866 Hartrees.
 IExCor= 4639 DFT=T Ex+Corr=wB97XD ExCW=0 ScaHFX=  1.000000
 ScaDFX=  1.000000  1.000000  1.000000  1.000000 ScalE2=  1.000000  1.000000
 IRadAn=      5 IRanWt=     -1 IRanGd=            0 ICorTp=0 IEmpDi=121
 HFx  wShort=  0.000000 wLong=  0.200000 cFull=  0.222036 cShort=  0.000000 cLong=  0.777964
 DFx  wShort=  0.000000 wLong=  0.200000 cFull=  0.000000 cShort=  0.000000 cLong=  1.000000
 NAtoms=   70 NActive=   70 NUniq=   70 SFac= 1.00D+00 NAtFMM=   60 NAOKFM=T Big=T
 Integral buffers will be    131072 words long.
 Raffenetti 2 integral format.
 Two-electron integral symmetry is turned on.
 R6Disp:  Grimme-D2 Dispersion energy=       -0.0817603670 Hartrees.
 Nuclear repulsion after empirical dispersion term =     5632.8062562196 Hartrees.
 Leave Link  301 at Thu Jan 18 10:57:48 2018, MaxMem=  4294967296 cpu:               3.0 elap:               0.1
 (Enter /share/apps/g16/l302.exe)
 NPDir=0 NMtPBC=     1 NCelOv=     1 NCel=       1 NClECP=     1 NCelD=      1
         NCelK=      1 NCelE2=     1 NClLst=     1 CellRange=     0.0.
 One-electron integrals computed using PRISM.
 One-electron integral symmetry used in STVInt
 NBasis=   737 RedAO= T EigKep=  6.35D-04  NBF=   737
 NBsUse=   737 1.00D-06 EigRej= -1.00D+00 NBFU=   737
 Precomputing XC quadrature grid using
 IXCGrd= 4 IRadAn=           5 IRanWt=          -1 IRanGd=           0 AccXCQ= 0.00D+00.
 Generated NRdTot=       0 NPtTot=           0 NUsed=           0 NTot=          32
 NSgBfM=   771   771   771   771   771 MxSgAt=    70 MxSgA2=    70.
 Leave Link  302 at Thu Jan 18 10:57:52 2018, MaxMem=  4294967296 cpu:             140.2 elap:               4.4
 (Enter /share/apps/g16/l303.exe)
 DipDrv:  MaxL=1.
 Leave Link  303 at Thu Jan 18 10:57:53 2018, MaxMem=  4294967296 cpu:              12.6 elap:               0.4
 (Enter /share/apps/g16/l401.exe)
 ExpMin= 1.22D-01 ExpMax= 1.17D+04 ExpMxC= 4.01D+02 IAcc=3 IRadAn=         5 AccDes= 0.00D+00
 Harris functional with IExCor= 4639 and IRadAn=       5 diagonalized for initial guess.
 HarFok:  IExCor= 4639 AccDes= 0.00D+00 IRadAn=         5 IDoV= 1 UseB2=F ITyADJ=14
 ICtDFT=  3500011 ScaDFX=  1.000000  1.000000  1.000000  1.000000
 FoFCou: FMM=F IPFlag=           0 FMFlag=      100000 FMFlg1=        2001
         NFxFlg=           0 DoJE=T BraDBF=F KetDBF=T FulRan=T
         wScrn=  0.000000 ICntrl=       500 IOpCl=  0 I1Cent=   200000004 NGrid=           0
         NMat0=    1 NMatS0=      1 NMatT0=    0 NMatD0=    1 NMtDS0=    0 NMtDT0=    0
 Petite list used in FoFCou.
 Harris En= -1963.87182714972    
 JPrj=0 DoOrth=F DoCkMO=F.
 Leave Link  401 at Thu Jan 18 10:58:06 2018, MaxMem=  4294967296 cpu:             415.8 elap:              13.1
 (Enter /share/apps/g16/l502.exe)
 Integral symmetry usage will be decided dynamically.
 Closed shell SCF:
 Using DIIS extrapolation, IDIIS=  1040.
 NGot=  4294967296 LenX=  4293717438 LenY=  4293108258
 Requested convergence on RMS density matrix=1.00D-08 within  20 cycles.
 Requested convergence on MAX density matrix=1.00D-06.
 Requested convergence on             energy=1.00D-06.
 No special actions if energy rises.
 Fock matrices will be formed incrementally for  20 cycles.
 Integral accuracy reduced to 1.0D-05 until final iterations.

 Cycle   1  Pass 0  IDiag  1:
 FoFJK:  IHMeth= 1 ICntrl=       0 DoSepK=T KAlg= 0 I1Cent=           0 FoldK=F
 IRaf=         1 NMat=       1 IRICut=       1 DoRegI=T DoRafI=F ISym2E= 0 IDoP0=0 IntGTp=1.
 FoFCou: FMM=T IPFlag=           0 FMFlag=      100000 FMFlg1=        2001
         NFxFlg=           0 DoJE=T BraDBF=F KetDBF=F FulRan=T
         wScrn=  0.000000 ICntrl=       500 IOpCl=  0 I1Cent=           0 NGrid=           0
         NMat0=    1 NMatS0=      1 NMatT0=    0 NMatD0=    1 NMtDS0=    0 NMtDT0=    0
 Symmetry not used in FoFCou.
 FMM levels:  10  Number of levels for PrismC:   9
 E= -2048.30361878712    
 DIIS: error= 1.89D-02 at cycle   1 NSaved=   1.
 NSaved= 1 IEnMin= 1 EnMin= -2048.30361878712     IErMin= 1 ErrMin= 1.89D-02
 ErrMax= 1.89D-02  0.00D+00 EMaxC= 1.00D-01 BMatC= 8.38D-01 BMatP= 8.38D-01
 IDIUse=3 WtCom= 8.11D-01 WtEn= 1.89D-01
 Coeff-Com:  0.100D+01
 Coeff-En:   0.100D+01
 Coeff:      0.100D+01
 Gap=     0.250 Goal=   None    Shift=    0.000
 GapD=    0.250 DampG=1.000 DampE=0.500 DampFc=0.5000 IDamp=-1.
 Damping current iteration by 5.00D-01
 RMSDP=1.63D-03 MaxDP=1.20D-01              OVMax= 1.92D-01

 Cycle   2  Pass 0  IDiag  1:
 RMSU=  8.12D-04    CP:  9.97D-01
 E= -2048.49847059006     Delta-E=       -0.194851802943 Rises=F Damp=T
 DIIS: error= 1.03D-02 at cycle   2 NSaved=   2.
 NSaved= 2 IEnMin= 2 EnMin= -2048.49847059006     IErMin= 2 ErrMin= 1.03D-02
 ErrMax= 1.03D-02  0.00D+00 EMaxC= 1.00D-01 BMatC= 1.47D-01 BMatP= 8.38D-01
 IDIUse=3 WtCom= 8.97D-01 WtEn= 1.03D-01
 Coeff-Com: -0.176D+00 0.118D+01
 Coeff-En:   0.000D+00 0.100D+01
 Coeff:     -0.158D+00 0.116D+01
 Gap=     0.341 Goal=   None    Shift=    0.000
 RMSDP=6.18D-04 MaxDP=3.41D-02 DE=-1.95D-01 OVMax= 1.66D-01

 Cycle   3  Pass 0  IDiag  1:
 RMSU=  6.10D-04    CP:  9.94D-01  1.10D+00
 E= -2048.67437740328     Delta-E=       -0.175906813216 Rises=F Damp=F
 DIIS: error= 6.05D-03 at cycle   3 NSaved=   3.
 NSaved= 3 IEnMin= 3 EnMin= -2048.67437740328     IErMin= 3 ErrMin= 6.05D-03
 ErrMax= 6.05D-03  0.00D+00 EMaxC= 1.00D-01 BMatC= 7.40D-02 BMatP= 1.47D-01
 IDIUse=3 WtCom= 9.39D-01 WtEn= 6.05D-02
 Coeff-Com: -0.235D+00 0.566D+00 0.669D+00
 Coeff-En:   0.000D+00 0.000D+00 0.100D+01
 Coeff:     -0.220D+00 0.532D+00 0.689D+00
 Gap=     0.276 Goal=   None    Shift=    0.000
 RMSDP=3.94D-04 MaxDP=2.87D-02 DE=-1.76D-01 OVMax= 7.69D-02

 Cycle   4  Pass 0  IDiag  1:
 RMSU=  2.17D-04    CP:  9.94D-01  1.41D+00  6.46D-01
 E= -2048.73067830408     Delta-E=       -0.056300900804 Rises=F Damp=F
 DIIS: error= 2.49D-03 at cycle   4 NSaved=   4.
 NSaved= 4 IEnMin= 4 EnMin= -2048.73067830408     IErMin= 4 ErrMin= 2.49D-03
 ErrMax= 2.49D-03  0.00D+00 EMaxC= 1.00D-01 BMatC= 1.00D-02 BMatP= 7.40D-02
 IDIUse=3 WtCom= 9.75D-01 WtEn= 2.49D-02
 Coeff-Com: -0.991D-01 0.192D+00 0.370D+00 0.537D+00
 Coeff-En:   0.000D+00 0.000D+00 0.634D-01 0.937D+00
 Coeff:     -0.967D-01 0.187D+00 0.362D+00 0.547D+00
 Gap=     0.278 Goal=   None    Shift=    0.000
 RMSDP=1.35D-04 MaxDP=1.06D-02 DE=-5.63D-02 OVMax= 1.48D-02

 Cycle   5  Pass 0  IDiag  1:
 RMSU=  6.31D-05    CP:  9.93D-01  1.38D+00  7.83D-01  6.23D-01
 E= -2048.73912640117     Delta-E=       -0.008448097095 Rises=F Damp=F
 DIIS: error= 4.83D-04 at cycle   5 NSaved=   5.
 NSaved= 5 IEnMin= 5 EnMin= -2048.73912640117     IErMin= 5 ErrMin= 4.83D-04
 ErrMax= 4.83D-04  0.00D+00 EMaxC= 1.00D-01 BMatC= 3.02D-04 BMatP= 1.00D-02
 IDIUse=3 WtCom= 9.95D-01 WtEn= 4.83D-03
 Coeff-Com: -0.263D-01 0.454D-01 0.119D+00 0.238D+00 0.625D+00
 Coeff-En:   0.000D+00 0.000D+00 0.000D+00 0.000D+00 0.100D+01
 Coeff:     -0.262D-01 0.451D-01 0.118D+00 0.237D+00 0.626D+00
 Gap=     0.278 Goal=   None    Shift=    0.000
 RMSDP=2.79D-05 MaxDP=1.38D-03 DE=-8.45D-03 OVMax= 3.36D-03

 Failed to achieve initial convergence to 1.0D-08 in  6 cycles.
 Switch to full accuracy anyway.
 Cycle   6  Pass 1  IDiag  1:
 E= -2048.73936051143     Delta-E=       -0.000234110254 Rises=F Damp=F
 DIIS: error= 2.08D-04 at cycle   1 NSaved=   1.
 NSaved= 1 IEnMin= 1 EnMin= -2048.73936051143     IErMin= 1 ErrMin= 2.08D-04
 ErrMax= 2.08D-04  0.00D+00 EMaxC= 1.00D-01 BMatC= 7.80D-05 BMatP= 7.80D-05
 IDIUse=3 WtCom= 9.98D-01 WtEn= 2.08D-03
 Coeff-Com:  0.100D+01
 Coeff-En:   0.100D+01
 Coeff:      0.100D+01
 Gap=     0.278 Goal=   None    Shift=    0.000
 RMSDP=2.79D-05 MaxDP=1.38D-03 DE=-2.34D-04 OVMax= 2.31D-03

 Cycle   7  Pass 1  IDiag  1:
 RMSU=  1.17D-04    CP:  1.00D+00
 E= -2048.73941387638     Delta-E=       -0.000053364955 Rises=F Damp=F
 DIIS: error= 1.92D-04 at cycle   2 NSaved=   2.
 NSaved= 2 IEnMin= 2 EnMin= -2048.73941387638     IErMin= 2 ErrMin= 1.92D-04
 ErrMax= 1.92D-04  0.00D+00 EMaxC= 1.00D-01 BMatC= 4.70D-05 BMatP= 7.80D-05
 IDIUse=3 WtCom= 9.98D-01 WtEn= 1.92D-03
 Coeff-Com:  0.415D+00 0.585D+00
 Coeff-En:   0.351D-01 0.965D+00
 Coeff:      0.415D+00 0.585D+00
 Gap=     0.278 Goal=   None    Shift=    0.000
 RMSDP=1.24D-05 MaxDP=8.08D-04 DE=-5.34D-05 OVMax= 1.79D-03

 Cycle   8  Pass 1  IDiag  1:
 RMSU=  1.21D-05    CP:  1.00D+00  1.02D+00
 E= -2048.73944932038     Delta-E=       -0.000035444001 Rises=F Damp=F
 DIIS: error= 9.18D-05 at cycle   3 NSaved=   3.
 NSaved= 3 IEnMin= 3 EnMin= -2048.73944932038     IErMin= 3 ErrMin= 9.18D-05
 ErrMax= 9.18D-05  0.00D+00 EMaxC= 1.00D-01 BMatC= 1.03D-05 BMatP= 4.70D-05
 IDIUse=1 WtCom= 1.00D+00 WtEn= 0.00D+00
 Coeff-Com: -0.176D-01 0.305D+00 0.712D+00
 Coeff:     -0.176D-01 0.305D+00 0.712D+00
 Gap=     0.278 Goal=   None    Shift=    0.000
 RMSDP=5.94D-06 MaxDP=3.62D-04 DE=-3.54D-05 OVMax= 6.70D-04

 Cycle   9  Pass 1  IDiag  1:
 RMSU=  3.95D-06    CP:  1.00D+00  1.05D+00  7.58D-01
 E= -2048.73945947694     Delta-E=       -0.000010156555 Rises=F Damp=F
 DIIS: error= 2.89D-05 at cycle   4 NSaved=   4.
 NSaved= 4 IEnMin= 4 EnMin= -2048.73945947694     IErMin= 4 ErrMin= 2.89D-05
 ErrMax= 2.89D-05  0.00D+00 EMaxC= 1.00D-01 BMatC= 5.98D-07 BMatP= 1.03D-05
 IDIUse=1 WtCom= 1.00D+00 WtEn= 0.00D+00
 Coeff-Com: -0.312D-01 0.900D-01 0.284D+00 0.657D+00
 Coeff:     -0.312D-01 0.900D-01 0.284D+00 0.657D+00
 Gap=     0.278 Goal=   None    Shift=    0.000
 RMSDP=1.51D-06 MaxDP=8.56D-05 DE=-1.02D-05 OVMax= 3.65D-04

 Cycle  10  Pass 1  IDiag  1:
 RMSU=  1.37D-06    CP:  1.00D+00  1.05D+00  7.97D-01  1.08D+00
 E= -2048.73946039208     Delta-E=       -0.000000915141 Rises=F Damp=F
 DIIS: error= 1.09D-05 at cycle   5 NSaved=   5.
 NSaved= 5 IEnMin= 5 EnMin= -2048.73946039208     IErMin= 5 ErrMin= 1.09D-05
 ErrMax= 1.09D-05  0.00D+00 EMaxC= 1.00D-01 BMatC= 1.29D-07 BMatP= 5.98D-07
 IDIUse=1 WtCom= 1.00D+00 WtEn= 0.00D+00
 Coeff-Com: -0.484D-02-0.482D-01-0.100D+00 0.213D+00 0.940D+00
 Coeff:     -0.484D-02-0.482D-01-0.100D+00 0.213D+00 0.940D+00
 Gap=     0.278 Goal=   None    Shift=    0.000
 RMSDP=1.19D-06 MaxDP=5.51D-05 DE=-9.15D-07 OVMax= 2.07D-04

 Cycle  11  Pass 1  IDiag  1:
 RMSU=  5.03D-07    CP:  1.00D+00  1.05D+00  8.06D-01  1.34D+00  1.17D+00
 E= -2048.73946066299     Delta-E=       -0.000000270913 Rises=F Damp=F
 DIIS: error= 5.62D-06 at cycle   6 NSaved=   6.
 NSaved= 6 IEnMin= 6 EnMin= -2048.73946066299     IErMin= 6 ErrMin= 5.62D-06
 ErrMax= 5.62D-06  0.00D+00 EMaxC= 1.00D-01 BMatC= 3.31D-08 BMatP= 1.29D-07
 IDIUse=1 WtCom= 1.00D+00 WtEn= 0.00D+00
 Coeff-Com:  0.475D-02-0.456D-01-0.118D+00-0.113D-01 0.514D+00 0.657D+00
 Coeff:      0.475D-02-0.456D-01-0.118D+00-0.113D-01 0.514D+00 0.657D+00
 Gap=     0.278 Goal=   None    Shift=    0.000
 RMSDP=4.40D-07 MaxDP=2.65D-05 DE=-2.71D-07 OVMax= 1.04D-04

 Cycle  12  Pass 1  IDiag  1:
 RMSU=  2.03D-07    CP:  1.00D+00  1.05D+00  8.09D-01  1.43D+00  1.31D+00
                    CP:  9.47D-01
 E= -2048.73946071274     Delta-E=       -0.000000049745 Rises=F Damp=F
 DIIS: error= 1.08D-06 at cycle   7 NSaved=   7.
 NSaved= 7 IEnMin= 7 EnMin= -2048.73946071274     IErMin= 7 ErrMin= 1.08D-06
 ErrMax= 1.08D-06  0.00D+00 EMaxC= 1.00D-01 BMatC= 8.27D-10 BMatP= 3.31D-08
 IDIUse=1 WtCom= 1.00D+00 WtEn= 0.00D+00
 Coeff-Com:  0.129D-02-0.900D-02-0.247D-01-0.110D-01 0.765D-01 0.151D+00
 Coeff-Com:  0.816D+00
 Coeff:      0.129D-02-0.900D-02-0.247D-01-0.110D-01 0.765D-01 0.151D+00
 Coeff:      0.816D+00
 Gap=     0.278 Goal=   None    Shift=    0.000
 RMSDP=8.68D-08 MaxDP=4.30D-06 DE=-4.97D-08 OVMax= 1.99D-05

 Cycle  13  Pass 1  IDiag  1:
 RMSU=  5.64D-08    CP:  1.00D+00  1.05D+00  8.09D-01  1.43D+00  1.33D+00
                    CP:  1.03D+00  1.13D+00
 E= -2048.73946071453     Delta-E=       -0.000000001794 Rises=F Damp=F
 DIIS: error= 5.69D-07 at cycle   8 NSaved=   8.
 NSaved= 8 IEnMin= 8 EnMin= -2048.73946071453     IErMin= 8 ErrMin= 5.69D-07
 ErrMax= 5.69D-07  0.00D+00 EMaxC= 1.00D-01 BMatC= 3.72D-10 BMatP= 8.27D-10
 IDIUse=1 WtCom= 1.00D+00 WtEn= 0.00D+00
 Coeff-Com: -0.733D-03 0.880D-02 0.221D-01-0.800D-03-0.109D+00-0.117D+00
 Coeff-Com:  0.407D+00 0.790D+00
 Coeff:     -0.733D-03 0.880D-02 0.221D-01-0.800D-03-0.109D+00-0.117D+00
 Coeff:      0.407D+00 0.790D+00
 Gap=     0.278 Goal=   None    Shift=    0.000
 RMSDP=5.47D-08 MaxDP=3.08D-06 DE=-1.79D-09 OVMax= 9.88D-06

 Cycle  14  Pass 1  IDiag  1:
 RMSU=  3.05D-08    CP:  1.00D+00  1.05D+00  8.09D-01  1.44D+00  1.34D+00
                    CP:  1.07D+00  1.29D+00  1.05D+00
 E= -2048.73946071506     Delta-E=       -0.000000000529 Rises=F Damp=F
 DIIS: error= 1.72D-07 at cycle   9 NSaved=   9.
 NSaved= 9 IEnMin= 9 EnMin= -2048.73946071506     IErMin= 9 ErrMin= 1.72D-07
 ErrMax= 1.72D-07  0.00D+00 EMaxC= 1.00D-01 BMatC= 3.08D-11 BMatP= 3.72D-10
 IDIUse=1 WtCom= 1.00D+00 WtEn= 0.00D+00
 Coeff-Com: -0.427D-03 0.446D-02 0.114D-01 0.981D-03-0.506D-01-0.625D-01
 Coeff-Com:  0.862D-01 0.301D+00 0.710D+00
 Coeff:     -0.427D-03 0.446D-02 0.114D-01 0.981D-03-0.506D-01-0.625D-01
 Coeff:      0.862D-01 0.301D+00 0.710D+00
 Gap=     0.278 Goal=   None    Shift=    0.000
 RMSDP=1.40D-08 MaxDP=6.37D-07 DE=-5.29D-10 OVMax= 2.61D-06

 Cycle  15  Pass 1  IDiag  1:
 RMSU=  9.88D-09    CP:  1.00D+00  1.05D+00  8.09D-01  1.44D+00  1.34D+00
                    CP:  1.08D+00  1.32D+00  1.18D+00  1.10D+00
 E= -2048.73946071536     Delta-E=       -0.000000000300 Rises=F Damp=F
 DIIS: error= 6.64D-08 at cycle  10 NSaved=  10.
 NSaved=10 IEnMin=10 EnMin= -2048.73946071536     IErMin=10 ErrMin= 6.64D-08
 ErrMax= 6.64D-08  0.00D+00 EMaxC= 1.00D-01 BMatC= 5.46D-12 BMatP= 3.08D-11
 IDIUse=1 WtCom= 1.00D+00 WtEn= 0.00D+00
 Coeff-Com:  0.144D-05-0.251D-03-0.561D-03 0.220D-03 0.455D-02 0.149D-02
 Coeff-Com: -0.522D-01-0.662D-01 0.250D+00 0.863D+00
 Coeff:      0.144D-05-0.251D-03-0.561D-03 0.220D-03 0.455D-02 0.149D-02
 Coeff:     -0.522D-01-0.662D-01 0.250D+00 0.863D+00
 Gap=     0.278 Goal=   None    Shift=    0.000
 RMSDP=7.47D-09 MaxDP=3.32D-07 DE=-3.00D-10 OVMax= 1.43D-06

 SCF Done:  E(RwB97XD) =  -2048.73946072     A.U. after   15 cycles
            NFock= 15  Conv=0.75D-08     -V/T= 2.0053
 KE= 2.037867133571D+03 PE=-1.604612585862D+04 EE= 6.326713008112D+03
 Leave Link  502 at Thu Jan 18 11:10:35 2018, MaxMem=  4294967296 cpu:           23193.8 elap:             749.6
 (Enter /share/apps/g16/l601.exe)
 Copying SCF densities to generalized density rwf, IOpCl= 0 IROHF=0.

 **********************************************************************

            Population analysis using the SCF density.

 **********************************************************************

 Orbital symmetries:
       Occupied  (A) (A) (A) (A) (A) (A) (A) (A) (A) (A) (A) (A)
                 (A) (A) (A) (A) (A) (A) (A) (A) (A) (A) (A) (A)
                 (A) (A) (A) (A) (A) (A) (A) (A) (A) (A) (A) (A)
                 (A) (A) (A) (A) (A) (A) (A) (A) (A) (A) (A) (A)
                 (A) (A) (A) (A) (A) (A) (A) (A) (A) (A) (A) (A)
                 (A) (A) (A) (A) (A) (A) (A) (A) (A) (A) (A) (A)
                 (A) (A) (A) (A) (A) (A) (A) (A) (A) (A) (A) (A)
                 (A) (A) (A) (A) (A) (A) (A) (A) (A) (A) (A) (A)
                 (A) (A) (A) (A) (A) (A) (A) (A) (A) (A) (A) (A)
                 (A) (A) (A) (A) (A) (A) (A) (A) (A) (A) (A) (A)
                 (A) (A) (A) (A) (A) (A) (A) (A) (A) (A) (A) (A)
                 (A) (A) (A) (A) (A) (A) (A) (A) (A) (A) (A) (A)
                 (A) (A) (A) (A) (A) (A) (A) (A) (A) (A)
       Virtual   (A) (A) (A) (A) (A) (A) (A) (A) (A) (A) (A) (A)
                 (A) (A) (A) (A) (A) (A) (A) (A) (A) (A) (A) (A)
                 (A) (A) (A) (A) (A) (A) (A) (A) (A) (A) (A) (A)
                 (A) (A) (A) (A) (A) (A) (A) (A) (A) (A) (A) (A)
                 (A) (A) (A) (A) (A) (A) (A) (A) (A) (A) (A) (A)
                 (A) (A) (A) (A) (A) (A) (A) (A) (A) (A) (A) (A)
                 (A) (A) (A) (A) (A) (A) (A) (A) (A) (A) (A) (A)
                 (A) (A) (A) (A) (A) (A) (A) (A) (A) (A) (A) (A)
                 (A) (A) (A) (A) (A) (A) (A) (A) (A) (A) (A) (A)
                 (A) (A) (A) (A) (A) (A) (A) (A) (A) (A) (A) (A)
                 (A) (A) (A) (A) (A) (A) (A) (A) (A) (A) (A) (A)
                 (A) (A) (A) (A) (A) (A) (A) (A) (A) (A) (A) (A)
                 (A) (A) (A) (A) (A) (A) (A) (A) (A) (A) (A) (A)
                 (A) (A) (A) (A) (A) (A) (A) (A) (A) (A) (A) (A)
                 (A) (A) (A) (A) (A) (A) (A) (A) (A) (A) (A) (A)
                 (A) (A) (A) (A) (A) (A) (A) (A) (A) (A) (A) (A)
                 (A) (A) (A) (A) (A) (A) (A) (A) (A) (A) (A) (A)
                 (A) (A) (A) (A) (A) (A) (A) (A) (A) (A) (A) (A)
                 (A) (A) (A) (A) (A) (A) (A) (A) (A) (A) (A) (A)
                 (A) (A) (A) (A) (A) (A) (A) (A) (A) (A) (A) (A)
                 (A) (A) (A) (A) (A) (A) (A) (A) (A) (A) (A) (A)
                 (A) (A) (A) (A) (A) (A) (A) (A) (A) (A) (A) (A)
                 (A) (A) (A) (A) (A) (A) (A) (A) (A) (A) (A) (A)
                 (A) (A) (A) (A) (A) (A) (A) (A) (A) (A) (A) (A)
                 (A) (A) (A) (A) (A) (A) (A) (A) (A) (A) (A) (A)
                 (A) (A) (A) (A) (A) (A) (A) (A) (A) (A) (A) (A)
                 (A) (A) (A) (A) (A) (A) (A) (A) (A) (A) (A) (A)
                 (A) (A) (A) (A) (A) (A) (A) (A) (A) (A) (A) (A)
                 (A) (A) (A) (A) (A) (A) (A) (A) (A) (A) (A) (A)
                 (A) (A) (A) (A) (A) (A) (A) (A) (A) (A) (A) (A)
                 (A) (A) (A) (A) (A) (A) (A) (A) (A) (A) (A) (A)
                 (A) (A) (A) (A) (A) (A) (A) (A) (A) (A) (A) (A)
                 (A) (A) (A) (A) (A) (A) (A) (A) (A) (A) (A) (A)
                 (A) (A) (A) (A) (A) (A) (A) (A) (A) (A) (A) (A)
                 (A) (A) (A) (A) (A) (A) (A) (A) (A) (A) (A) (A)
                 (A) (A) (A) (A) (A) (A) (A) (A) (A) (A) (A) (A)
                 (A) (A) (A) (A) (A) (A) (A) (A) (A) (A) (A) (A)
                 (A) (A) (A) (A) (A) (A) (A) (A) (A) (A) (A) (A)
                 (A) (A) (A) (A) (A) (A) (A) (A) (A) (A) (A) (A)
                 (A) (A) (A) (A) (A) (A) (A) (A) (A) (A) (A) (A)
                 (A) (A) (A) (A) (A) (A) (A) (A) (A) (A) (A) (A)
                 (A) (A) (A) (A) (A) (A) (A) (A) (A) (A) (A) (A)
                 (A) (A) (A) (A) (A) (A) (A) (A) (A) (A) (A) (A)
                 (A) (A) (A) (A) (A) (A) (A) (A) (A) (A) (A) (A)
                 (A) (A) (A) (A) (A) (A) (A) (A) (A) (A) (A) (A)
                 (A) (A) (A) (A) (A) (A) (A) (A) (A) (A) (A) (A)
                 (A) (A) (A) (A) (A) (A) (A) (A) (A) (A) (A) (A)
                 (A) (A) (A) (A) (A) (A) (A) (A) (A) (A) (A) (A)
                 (A) (A) (A) (A) (A) (A) (A)
 The electronic state is 1-A.
 Alpha  occ. eigenvalues --  -19.25193 -19.21514 -19.20505 -14.52518 -14.51912
 Alpha  occ. eigenvalues --  -14.49377 -14.48893 -14.47644 -14.47281 -14.46643
 Alpha  occ. eigenvalues --  -14.46542 -14.45255 -14.44130 -14.44095 -14.42936
 Alpha  occ. eigenvalues --  -14.41791 -14.41775 -14.41425 -14.40958 -14.40957
 Alpha  occ. eigenvalues --  -10.44845 -10.41000 -10.39612 -10.39610 -10.38144
 Alpha  occ. eigenvalues --  -10.37894 -10.37138 -10.37068 -10.36105 -10.35697
 Alpha  occ. eigenvalues --  -10.34625 -10.34502 -10.34338 -10.34307 -10.33931
 Alpha  occ. eigenvalues --  -10.33714 -10.33495 -10.32408 -10.32008 -10.31027
 Alpha  occ. eigenvalues --  -10.30439 -10.29042 -10.28099  -1.18889  -1.15235
 Alpha  occ. eigenvalues --   -1.13110  -1.12526  -1.11924  -1.10608  -1.09050
 Alpha  occ. eigenvalues --   -1.08795  -1.08430  -1.05701  -1.04535  -1.01999
 Alpha  occ. eigenvalues --   -1.01058  -1.00973  -0.99591  -0.98420  -0.97620
 Alpha  occ. eigenvalues --   -0.96650  -0.96596  -0.93362  -0.90448  -0.87644
 Alpha  occ. eigenvalues --   -0.86175  -0.84802  -0.84049  -0.83309  -0.83184
 Alpha  occ. eigenvalues --   -0.82437  -0.78338  -0.76877  -0.74720  -0.74593
 Alpha  occ. eigenvalues --   -0.73575  -0.73459  -0.72846  -0.71660  -0.70260
 Alpha  occ. eigenvalues --   -0.67339  -0.66937  -0.66618  -0.66080  -0.64339
 Alpha  occ. eigenvalues --   -0.64095  -0.63659  -0.63340  -0.62515  -0.62069
 Alpha  occ. eigenvalues --   -0.61674  -0.60994  -0.60376  -0.59446  -0.59077
 Alpha  occ. eigenvalues --   -0.58907  -0.58384  -0.58233  -0.57225  -0.56157
 Alpha  occ. eigenvalues --   -0.55613  -0.55443  -0.55384  -0.54587  -0.54085
 Alpha  occ. eigenvalues --   -0.54015  -0.53685  -0.53443  -0.52884  -0.52820
 Alpha  occ. eigenvalues --   -0.52509  -0.52407  -0.51608  -0.51232  -0.50847
 Alpha  occ. eigenvalues --   -0.50101  -0.49999  -0.49447  -0.49097  -0.48873
 Alpha  occ. eigenvalues --   -0.48694  -0.48351  -0.48188  -0.47793  -0.47504
 Alpha  occ. eigenvalues --   -0.47148  -0.46149  -0.45076  -0.44332  -0.43054
 Alpha  occ. eigenvalues --   -0.41575  -0.40597  -0.38903  -0.37686  -0.37661
 Alpha  occ. eigenvalues --   -0.37379  -0.37081  -0.36800  -0.36018  -0.34750
 Alpha  occ. eigenvalues --   -0.34475  -0.34214  -0.33848  -0.33620  -0.32864
 Alpha  occ. eigenvalues --   -0.32504  -0.32213  -0.31805  -0.31381  -0.31300
 Alpha  occ. eigenvalues --   -0.30919  -0.29622  -0.27053  -0.24689
 Alpha virt. eigenvalues --    0.03108   0.04562   0.06920   0.07155   0.08689
 Alpha virt. eigenvalues --    0.09214   0.09939   0.10454   0.10801   0.12533
 Alpha virt. eigenvalues --    0.12769   0.13728   0.14239   0.14588   0.14943
 Alpha virt. eigenvalues --    0.15227   0.16177   0.17690   0.18074   0.18191
 Alpha virt. eigenvalues --    0.18384   0.19502   0.19559   0.20034   0.20521
 Alpha virt. eigenvalues --    0.20712   0.21101   0.21245   0.21577   0.21922
 Alpha virt. eigenvalues --    0.22359   0.22727   0.22825   0.23520   0.23620
 Alpha virt. eigenvalues --    0.24411   0.24597   0.24800   0.25202   0.25683
 Alpha virt. eigenvalues --    0.27457   0.27659   0.27947   0.28154   0.28575
 Alpha virt. eigenvalues --    0.28599   0.29076   0.29540   0.30253   0.30549
 Alpha virt. eigenvalues --    0.30897   0.31866   0.32349   0.33137   0.33284
 Alpha virt. eigenvalues --    0.34204   0.34642   0.34989   0.35734   0.36529
 Alpha virt. eigenvalues --    0.36641   0.37222   0.37643   0.38051   0.38898
 Alpha virt. eigenvalues --    0.39858   0.40145   0.40516   0.41588   0.42240
 Alpha virt. eigenvalues --    0.42534   0.42962   0.43139   0.44061   0.44274
 Alpha virt. eigenvalues --    0.45177   0.45697   0.46268   0.46814   0.47089
 Alpha virt. eigenvalues --    0.47304   0.47826   0.48379   0.48539   0.49267
 Alpha virt. eigenvalues --    0.50168   0.50441   0.50795   0.50910   0.51727
 Alpha virt. eigenvalues --    0.52173   0.52412   0.52461   0.52780   0.53434
 Alpha virt. eigenvalues --    0.53954   0.54429   0.54671   0.55330   0.55730
 Alpha virt. eigenvalues --    0.55880   0.56693   0.56754   0.57080   0.57489
 Alpha virt. eigenvalues --    0.57920   0.58898   0.59340   0.59483   0.59934
 Alpha virt. eigenvalues --    0.60097   0.61009   0.61346   0.61747   0.61995
 Alpha virt. eigenvalues --    0.62610   0.62781   0.63148   0.63588   0.64117
 Alpha virt. eigenvalues --    0.64728   0.64911   0.65544   0.65789   0.65861
 Alpha virt. eigenvalues --    0.66575   0.66978   0.67378   0.67898   0.68281
 Alpha virt. eigenvalues --    0.68706   0.69614   0.69909   0.70199   0.70552
 Alpha virt. eigenvalues --    0.70927   0.71660   0.71949   0.72311   0.72779
 Alpha virt. eigenvalues --    0.73124   0.73421   0.73756   0.74241   0.74770
 Alpha virt. eigenvalues --    0.74991   0.75106   0.75484   0.75780   0.75989
 Alpha virt. eigenvalues --    0.76497   0.76882   0.77399   0.77984   0.78155
 Alpha virt. eigenvalues --    0.78467   0.79097   0.79219   0.79667   0.79933
 Alpha virt. eigenvalues --    0.79987   0.80598   0.81030   0.81792   0.82141
 Alpha virt. eigenvalues --    0.82467   0.82687   0.83090   0.83397   0.84073
 Alpha virt. eigenvalues --    0.84744   0.85308   0.85420   0.85575   0.86244
 Alpha virt. eigenvalues --    0.86546   0.87012   0.87483   0.87987   0.88532
 Alpha virt. eigenvalues --    0.88810   0.89273   0.89398   0.90071   0.90465
 Alpha virt. eigenvalues --    0.90949   0.91236   0.91503   0.91895   0.93265
 Alpha virt. eigenvalues --    0.93565   0.93986   0.94636   0.94789   0.95536
 Alpha virt. eigenvalues --    0.95628   0.96157   0.96571   0.96772   0.97425
 Alpha virt. eigenvalues --    0.97943   0.98376   0.99129   0.99288   0.99774
 Alpha virt. eigenvalues --    1.00574   1.00829   1.01197   1.01709   1.02426
 Alpha virt. eigenvalues --    1.02526   1.03005   1.03358   1.04015   1.04484
 Alpha virt. eigenvalues --    1.04897   1.05424   1.05509   1.06164   1.06336
 Alpha virt. eigenvalues --    1.07357   1.08039   1.08687   1.09081   1.09600
 Alpha virt. eigenvalues --    1.10245   1.10533   1.11286   1.11724   1.12346
 Alpha virt. eigenvalues --    1.12803   1.13151   1.13548   1.13611   1.14292
 Alpha virt. eigenvalues --    1.14845   1.15144   1.15989   1.16400   1.16584
 Alpha virt. eigenvalues --    1.16792   1.17338   1.17577   1.18333   1.19345
 Alpha virt. eigenvalues --    1.19489   1.19811   1.20407   1.20743   1.20915
 Alpha virt. eigenvalues --    1.21362   1.21460   1.21930   1.22066   1.22572
 Alpha virt. eigenvalues --    1.22984   1.23693   1.24221   1.24527   1.24806
 Alpha virt. eigenvalues --    1.24964   1.25176   1.25730   1.26462   1.27113
 Alpha virt. eigenvalues --    1.27649   1.28413   1.28510   1.29119   1.29517
 Alpha virt. eigenvalues --    1.30021   1.30204   1.31214   1.31758   1.32356
 Alpha virt. eigenvalues --    1.33693   1.33823   1.34213   1.34400   1.34881
 Alpha virt. eigenvalues --    1.35176   1.36343   1.36646   1.37534   1.37999
 Alpha virt. eigenvalues --    1.38455   1.39410   1.39653   1.39771   1.41018
 Alpha virt. eigenvalues --    1.41650   1.42234   1.43397   1.44051   1.45487
 Alpha virt. eigenvalues --    1.45652   1.46188   1.47335   1.48593   1.49356
 Alpha virt. eigenvalues --    1.49553   1.50022   1.50795   1.51835   1.52582
 Alpha virt. eigenvalues --    1.52947   1.53295   1.54336   1.55267   1.56546
 Alpha virt. eigenvalues --    1.56769   1.57459   1.57682   1.58713   1.58787
 Alpha virt. eigenvalues --    1.59791   1.60302   1.61267   1.62297   1.62552
 Alpha virt. eigenvalues --    1.62771   1.63668   1.64448   1.65173   1.65866
 Alpha virt. eigenvalues --    1.65935   1.66612   1.66924   1.67357   1.67925
 Alpha virt. eigenvalues --    1.68304   1.68907   1.69302   1.69929   1.70388
 Alpha virt. eigenvalues --    1.70472   1.70844   1.71219   1.72063   1.72245
 Alpha virt. eigenvalues --    1.72633   1.73295   1.73799   1.74427   1.74620
 Alpha virt. eigenvalues --    1.75133   1.75586   1.76193   1.76454   1.76875
 Alpha virt. eigenvalues --    1.77420   1.77578   1.77686   1.78139   1.78520
 Alpha virt. eigenvalues --    1.79365   1.79524   1.79711   1.80219   1.80405
 Alpha virt. eigenvalues --    1.80458   1.81109   1.81946   1.82025   1.82079
 Alpha virt. eigenvalues --    1.82884   1.83113   1.83923   1.84205   1.84704
 Alpha virt. eigenvalues --    1.85009   1.85667   1.85961   1.86181   1.86817
 Alpha virt. eigenvalues --    1.87310   1.87603   1.88044   1.88321   1.88825
 Alpha virt. eigenvalues --    1.89050   1.89428   1.89597   1.90487   1.90674
 Alpha virt. eigenvalues --    1.91146   1.92322   1.92453   1.93015   1.93407
 Alpha virt. eigenvalues --    1.93510   1.94397   1.94747   1.95699   1.96145
 Alpha virt. eigenvalues --    1.97021   1.98092   1.98755   1.99169   1.99623
 Alpha virt. eigenvalues --    2.00249   2.01190   2.01991   2.02522   2.03380
 Alpha virt. eigenvalues --    2.04114   2.04892   2.05489   2.05619   2.06319
 Alpha virt. eigenvalues --    2.07077   2.07543   2.08026   2.08719   2.09235
 Alpha virt. eigenvalues --    2.09551   2.10222   2.11221   2.11499   2.11977
 Alpha virt. eigenvalues --    2.12591   2.13264   2.14310   2.14958   2.15289
 Alpha virt. eigenvalues --    2.16684   2.16978   2.17019   2.18331   2.19717
 Alpha virt. eigenvalues --    2.20289   2.20881   2.21395   2.21616   2.22446
 Alpha virt. eigenvalues --    2.22651   2.23246   2.24199   2.25451   2.25812
 Alpha virt. eigenvalues --    2.26365   2.26856   2.27034   2.27773   2.28568
 Alpha virt. eigenvalues --    2.28855   2.29194   2.29775   2.29822   2.30181
 Alpha virt. eigenvalues --    2.31140   2.32291   2.32429   2.32634   2.33272
 Alpha virt. eigenvalues --    2.33932   2.34991   2.35388   2.35411   2.36026
 Alpha virt. eigenvalues --    2.36214   2.37138   2.37444   2.38120   2.38586
 Alpha virt. eigenvalues --    2.39577   2.39698   2.40592   2.41215   2.41809
 Alpha virt. eigenvalues --    2.42527   2.43403   2.43950   2.44495   2.44999
 Alpha virt. eigenvalues --    2.45811   2.46303   2.47212   2.47265   2.47887
 Alpha virt. eigenvalues --    2.49389   2.50099   2.50578   2.51696   2.52400
 Alpha virt. eigenvalues --    2.53123   2.54243   2.55952   2.56953   2.57509
 Alpha virt. eigenvalues --    2.58645   2.58881   2.59334   2.61347   2.61554
 Alpha virt. eigenvalues --    2.62197   2.63192   2.63864   2.64497   2.65621
 Alpha virt. eigenvalues --    2.66016   2.66242   2.67058   2.67434   2.67594
 Alpha virt. eigenvalues --    2.68259   2.68827   2.69029   2.70451   2.70558
 Alpha virt. eigenvalues --    2.71049   2.71669   2.72279   2.72685   2.74134
 Alpha virt. eigenvalues --    2.74387   2.75570   2.75975   2.76855   2.77871
 Alpha virt. eigenvalues --    2.78246   2.78495   2.79747   2.79957   2.80417
 Alpha virt. eigenvalues --    2.80846   2.81617   2.81853   2.82387   2.82767
 Alpha virt. eigenvalues --    2.82872   2.83322   2.83548   2.84961   2.85351
 Alpha virt. eigenvalues --    2.86334   2.86904   2.87074   2.87393   2.88004
 Alpha virt. eigenvalues --    2.89119   2.89547   2.90667   2.93531   2.94471
 Alpha virt. eigenvalues --    2.95631   2.97312   2.99162   2.99587   3.00055
 Alpha virt. eigenvalues --    3.01960   3.02421   3.03294   3.05340   3.06269
 Alpha virt. eigenvalues --    3.07949   3.10100   3.10784   3.13113   3.15128
 Alpha virt. eigenvalues --    3.15909   3.16487   3.16988   3.18391   3.21018
 Alpha virt. eigenvalues --    3.21953   3.23664   3.24274   3.24469   3.28283
 Alpha virt. eigenvalues --    3.45182   3.47261   3.48096   3.49400   3.51307
 Alpha virt. eigenvalues --    3.52923   3.55342   3.56631   3.58579   3.60601
 Alpha virt. eigenvalues --    3.64176   3.71359   3.75800
          Condensed to atoms (all electrons):
 Mulliken charges:
               1
     1  N   -0.302824
     2  C    0.184806
     3  C    0.063711
     4  N   -0.239863
     5  C    0.122878
     6  H    0.024796
     7  N   -0.284673
     8  C    0.136134
     9  H    0.007836
    10  N   -0.273175
    11  C    0.220292
    12  C    0.075715
    13  N   -0.042592
    14  H    0.112691
    15  H    0.086304
    16  H    0.026410
    17  H    0.037751
    18  H    0.027483
    19  N   -0.291397
    20  C    0.236935
    21  C    0.200669
    22  N   -0.117922
    23  H    0.118320
    24  H    0.117936
    25  N   -0.290842
    26  C    0.222213
    27  N   -0.128501
    28  H    0.115792
    29  C    0.174094
    30  O   -0.323859
    31  C   -0.003876
    32  N   -0.212995
    33  C    0.115376
    34  H    0.018074
    35  H   -0.027099
    36  H    0.036632
    37  H    0.024916
    38  H    0.013124
    39  H    0.056275
    40  H    0.080465
    41  H    0.023762
    42  C   -0.093589
    43  O   -0.270689
    44  C    0.159941
    45  H    0.129448
    46  N   -0.105963
    47  O   -0.343911
    48  C    0.330539
    49  H    0.042694
    50  C    0.166007
    51  C    0.057122
    52  N   -0.271044
    53  H    0.031748
    54  H    0.041612
    55  H    0.029560
    56  H    0.124197
    57  H    0.118913
    58  N   -0.047840
    59  C    0.089432
    60  C    0.206536
    61  N   -0.261242
    62  H    0.019928
    63  C    0.160057
    64  N   -0.293746
    65  H    0.035897
    66  C    0.121558
    67  N   -0.248820
    68  C    0.048565
    69  C    0.188738
    70  N   -0.307417
 Sum of Mulliken charges =  -0.00000
 Mulliken charges with hydrogens summed into heavy atoms:
               1
     1  N   -0.302824
     2  C    0.276450
     3  C    0.063711
     4  N   -0.239863
     5  C    0.147673
     7  N   -0.284673
     8  C    0.143970
    10  N   -0.273175
    11  C    0.220292
    12  C    0.075715
    13  N    0.156403
    19  N   -0.291397
    20  C    0.236935
    21  C    0.235118
    22  N    0.118334
    25  N   -0.290842
    26  C    0.222213
    27  N   -0.012709
    29  C    0.174094
    30  O   -0.323859
    31  C   -0.003876
    32  N   -0.212995
    33  C    0.133449
    42  C   -0.069827
    43  O   -0.270689
    44  C    0.159941
    46  N    0.023485
    47  O   -0.343911
    48  C    0.330539
    50  C    0.208701
    51  C    0.206986
    52  N   -0.271044
    58  N    0.195270
    59  C    0.089432
    60  C    0.206536
    61  N   -0.261242
    63  C    0.179984
    64  N   -0.293746
    66  C    0.157456
    67  N   -0.248820
    68  C    0.048565
    69  C    0.291659
    70  N   -0.307417
 Electronic spatial extent (au):  <R**2>=          21869.4046
 Charge=             -0.0000 electrons
 Dipole moment (field-independent basis, Debye):
    X=             -4.7082    Y=              5.3819    Z=             -5.6165  Tot=              9.0927
 Quadrupole moment (field-independent basis, Debye-Ang):
   XX=           -146.4664   YY=           -224.0995   ZZ=           -264.0292
   XY=            -11.4737   XZ=              5.0325   YZ=             -1.0868
 Traceless Quadrupole moment (field-independent basis, Debye-Ang):
   XX=             65.0653   YY=            -12.5678   ZZ=            -52.4975
   XY=            -11.4737   XZ=              5.0325   YZ=             -1.0868
 Octapole moment (field-independent basis, Debye-Ang**2):
  XXX=             93.3012  YYY=             15.9548  ZZZ=            -66.7454  XYY=            -48.3287
  XXY=             99.1541  XXZ=            -64.1151  XZZ=            -51.8060  YZZ=             56.6961
  YYZ=            -25.1181  XYZ=             33.2963
 Hexadecapole moment (field-independent basis, Debye-Ang**3):
 XXXX=         -16347.4450 YYYY=          -3491.1117 ZZZZ=          -3710.5424 XXXY=           -712.5824
 XXXZ=            247.9215 YYYX=            139.5231 YYYZ=           -184.1239 ZZZX=            132.5100
 ZZZY=             21.8544 XXYY=          -3978.7535 XXZZ=          -3965.3969 YYZZ=          -1248.5750
 XXYZ=            -87.1060 YYXZ=            -16.9939 ZZXY=           -103.3490
 N-N= 5.632806256220D+03 E-N=-1.604612584385D+04  KE= 2.037867133571D+03
 No NMR shielding tensors so no spin-rotation constants.
 Leave Link  601 at Thu Jan 18 11:10:37 2018, MaxMem=  4294967296 cpu:              49.1 elap:               1.7
 (Enter /share/apps/g16/l9999.exe)
 1\1\GINC-COMPUTE-0-3\SP\RwB97XD\CC-pVDZ\C23H27N17O3\SATYA\18-Jan-2018\
 0\\#p wb97xd/cc-pvdz sp scf=(maxcycles=20)\\Base pair stacking\\0,1\N,
 0,-0.06139,4.89298,-6.36812\C,0,-0.60005,6.26664,-6.33794\C,0,0.12038,
 2.70112,-6.37205\N,0,1.41287,3.19788,-6.45819\C,0,1.25163,4.49852,-6.4
 5237\H,0,2.06359,5.22417,-6.50798\N,0,-1.72879,1.24248,-6.24611\C,0,-2
 .49325,2.33841,-6.20019\H,0,-3.5646,2.15543,-6.12962\N,0,-2.13467,3.62
 042,-6.22823\C,0,-0.79907,3.73406,-6.31579\C,0,-0.38884,1.39033,-6.334
 08\N,0,0.37594,0.29754,-6.38003\H,0,1.37249,0.35961,-6.44528\H,0,-0.02
 094,-0.61995,-6.35081\H,0,-0.33745,6.74757,-7.17456\H,0,-1.59692,6.233
 2,-6.27277\H,0,-0.23209,6.75387,-5.54597\N,0,-0.70621,4.41216,-3.17746
 \C,0,-1.22316,3.13956,-3.14107\C,0,-1.50137,5.65637,-3.19627\N,0,-3.96
 336,1.00748,-3.05593\H,0,-4.13094,0.02233,-3.03076\H,0,-4.76615,1.6043
 3,-3.05952\N,0,-2.53381,2.81456,-3.11658\C,0,-2.71841,1.50671,-3.08365
 \N,0,-1.69883,0.5859,-3.0753\H,0,-1.9335,-0.39452,-3.04937\C,0,-0.3430
 7,0.89764,-3.10007\O,0,0.49776,-0.0099,-3.08971\C,0,-0.12898,2.29899,-
 3.13556\N,0,1.05113,3.02918,-3.16783\C,0,0.66035,4.27454,-3.19188\H,0,
 1.32977,5.13497,-3.22061\H,0,-1.29641,6.17238,-4.02725\H,0,-2.47393,5.
 42817,-3.17839\H,0,-1.27536,6.21048,-2.39583\H,0,-3.76486,-5.10975,-3.
 56457\H,0,-3.48587,-5.18481,-1.82641\H,0,-3.91818,-3.65162,-2.5839\H,0
 ,0.99282,-5.8178,-3.46571\C,0,0.27556,-5.01078,-3.31573\O,0,1.89601,-3
 .28835,-3.50145\C,0,0.73364,-3.65514,-3.33072\H,0,0.03048,-1.74315,-3.
 13529\N,0,-0.25466,-2.71238,-3.13138\O,0,-2.39243,-2.04254,-2.75932\C,
 0,-1.59159,-2.94545,-2.92685\H,0,-1.42142,-6.28309,-3.09829\C,0,-1.022
 37,-5.26983,-3.11859\C,0,-3.37425,-4.57579,-2.71112\N,0,-1.95556,-4.27
 765,-2.92596\H,0,-5.46363,-5.73791,-6.15979\H,0,-5.26141,-4.44887,-5.1
 8022\H,0,-5.06341,-5.9589,-4.59314\H,0,1.48341,-3.19102,-6.72315\H,0,1
 .09303,-4.8463,-6.85635\N,0,0.79587,-3.91351,-6.64943\C,0,-0.46163,-3.
 64604,-6.29118\C,0,-2.72269,-4.19357,-5.79164\N,0,-3.09346,-2.93144,-5
 .51964\H,0,-2.27781,-1.05203,-5.46335\C,0,-2.06328,-2.10055,-5.66548\N
 ,0,-0.80306,-2.36649,-6.02421\H,0,-3.05323,-7.38883,-6.15664\C,0,-2.68
 596,-6.3634,-6.1061\N,0,-1.45474,-5.99902,-6.3688\C,0,-1.46439,-4.6255
 6,-6.17322\C,0,-4.93829,-5.3707,-5.39222\N,0,-3.50739,-5.32163,-5.7501
 7\\Version=EM64L-G16RevA.03\State=1-A\HF=-2048.7394607\RMSD=7.475e-09\
 Dipole=-3.297408,-1.3725646,-0.2012624\Quadrupole=-17.6501717,44.10133
 62,-26.4511645,18.7343533,-15.205821,-1.5999425\PG=C01 [X(C23H27N17O3)
 ]\\@


 TO DRY ONE'S EYES AND LAUGH AT A FALL
 AND BAFFLED, GET UP AND BEGIN AGAIN.
           R. BROWNING
 Job cpu time:       0 days  6 hours 37 minutes  8.2 seconds.
 Elapsed time:       0 days  0 hours 12 minutes 49.9 seconds.
 File lengths (MBytes):  RWF=    298 Int=      0 D2E=      0 Chk=     33 Scr=      1
 Normal termination of Gaussian 16 at Thu Jan 18 11:10:38 2018.
