 Entering Gaussian System, Link 0=g16
 Input=str10.-15.-2.0.com
 Output=str10.-15.-2.0.log
 Initial command:
 /share/apps/g16/l1.exe "/state/partition1/scr/Gau-8183.inp" -scrdir="/state/partition1/scr/"
 Entering Link 1 = /share/apps/g16/l1.exe PID=      8184.
  
 Copyright (c) 1988,1990,1992,1993,1995,1998,2003,2009,2016,
            Gaussian, Inc.  All Rights Reserved.
  
 This is part of the Gaussian(R) 16 program.  It is based on
 the Gaussian(R) 09 system (copyright 2009, Gaussian, Inc.),
 the Gaussian(R) 03 system (copyright 2003, Gaussian, Inc.),
 the Gaussian(R) 98 system (copyright 1998, Gaussian, Inc.),
 the Gaussian(R) 94 system (copyright 1995, Gaussian, Inc.),
 the Gaussian 92(TM) system (copyright 1992, Gaussian, Inc.),
 the Gaussian 90(TM) system (copyright 1990, Gaussian, Inc.),
 the Gaussian 88(TM) system (copyright 1988, Gaussian, Inc.),
 the Gaussian 86(TM) system (copyright 1986, Carnegie Mellon
 University), and the Gaussian 82(TM) system (copyright 1983,
 Carnegie Mellon University). Gaussian is a federally registered
 trademark of Gaussian, Inc.
  
 This software contains proprietary and confidential information,
 including trade secrets, belonging to Gaussian, Inc.
  
 This software is provided under written license and may be
 used, copied, transmitted, or stored only in accord with that
 written license.
  
 The following legend is applicable only to US Government
 contracts under FAR:
  
                    RESTRICTED RIGHTS LEGEND
  
 Use, reproduction and disclosure by the US Government is
 subject to restrictions as set forth in subparagraphs (a)
 and (c) of the Commercial Computer Software - Restricted
 Rights clause in FAR 52.227-19.
  
 Gaussian, Inc.
 340 Quinnipiac St., Bldg. 40, Wallingford CT 06492
  
  
 ---------------------------------------------------------------
 Warning -- This program may not be used in any manner that
 competes with the business of Gaussian, Inc. or will provide
 assistance to any competitor of Gaussian, Inc.  The licensee
 of this program is prohibited from giving any competitor of
 Gaussian, Inc. access to this program.  By using this program,
 the user acknowledges that Gaussian, Inc. is engaged in the
 business of creating and licensing software in the field of
 computational chemistry and represents and warrants to the
 licensee that it is not a competitor of Gaussian, Inc. and that
 it will not use this program in any manner prohibited above.
 ---------------------------------------------------------------
  

 Cite this work as:
 Gaussian 16, Revision A.03,
 M. J. Frisch, G. W. Trucks, H. B. Schlegel, G. E. Scuseria, 
 M. A. Robb, J. R. Cheeseman, G. Scalmani, V. Barone, 
 G. A. Petersson, H. Nakatsuji, X. Li, M. Caricato, A. V. Marenich, 
 J. Bloino, B. G. Janesko, R. Gomperts, B. Mennucci, H. P. Hratchian, 
 J. V. Ortiz, A. F. Izmaylov, J. L. Sonnenberg, D. Williams-Young, 
 F. Ding, F. Lipparini, F. Egidi, J. Goings, B. Peng, A. Petrone, 
 T. Henderson, D. Ranasinghe, V. G. Zakrzewski, J. Gao, N. Rega, 
 G. Zheng, W. Liang, M. Hada, M. Ehara, K. Toyota, R. Fukuda, 
 J. Hasegawa, M. Ishida, T. Nakajima, Y. Honda, O. Kitao, H. Nakai, 
 T. Vreven, K. Throssell, J. A. Montgomery, Jr., J. E. Peralta, 
 F. Ogliaro, M. J. Bearpark, J. J. Heyd, E. N. Brothers, K. N. Kudin, 
 V. N. Staroverov, T. A. Keith, R. Kobayashi, J. Normand, 
 K. Raghavachari, A. P. Rendell, J. C. Burant, S. S. Iyengar, 
 J. Tomasi, M. Cossi, J. M. Millam, M. Klene, C. Adamo, R. Cammi, 
 J. W. Ochterski, R. L. Martin, K. Morokuma, O. Farkas, 
 J. B. Foresman, and D. J. Fox, Gaussian, Inc., Wallingford CT, 2016.
 
 ******************************************
 Gaussian 16:  EM64L-G16RevA.03 25-Dec-2016
                18-Jan-2018 
 ******************************************
 %nprocshared=32
 Will use up to   32 processors via shared memory.
 %mem=32GB
 %chk=allatoms_t.chk
 ---------------------------------------
 #p wb97xd/cc-pvdz sp scf=(maxcycles=20)
 ---------------------------------------
 1/38=1,172=1/1;
 2/12=2,17=6,18=5,40=1/2;
 3/5=16,11=2,25=1,30=1,74=-58/1,2,3;
 4//1;
 5/5=2,7=20,38=5/2;
 6/7=2,8=2,9=2,10=2,28=1/1;
 99/5=1,9=1/99;
 Leave Link    1 at Thu Jan 18 04:03:40 2018, MaxMem=  4294967296 cpu:               2.7 elap:               0.1
 (Enter /share/apps/g16/l101.exe)
 ------------------
 Base pair stacking
 ------------------
 Symbolic Z-matrix:
 Charge =  0 Multiplicity = 1
 N                    -0.25411   9.85653  -6.15539 
 C                    -0.72781   11.22427  -5.86746 
 C                    -0.12194   7.66941  -6.34599 
 N                     1.07543   8.17437  -6.83184 
 C                     0.94788   9.47182  -6.69757 
 H                     1.7067    10.20197  -6.98043 
 N                    -1.84699   6.20022  -5.6913 
 C                    -2.53293   7.2891   -5.32881 
 H                    -3.52177   7.09896  -4.91372 
 N                    -2.18242   8.57157  -5.40175 
 C                    -0.95152   8.69432  -5.92542 
 C                    -0.61153   6.35715  -6.21485 
 N                     0.07474   5.27141  -6.57729 
 H                     0.99281   5.34032  -6.96925 
 H                    -0.30518   4.35262  -6.46946 
 H                    -0.75231   11.75525  -6.71459 
 H                    -1.64572   11.18395  -5.47382 
 H                    -0.10754   11.66429  -5.21812 
 N                    -0.75139   6.885    -3.01288 
 C                    -1.2572    5.61184  -2.90685 
 C                    -1.53498   8.1291   -2.87537 
 N                    -3.94642   3.47781  -2.38166 
 H                    -4.1094    2.49234  -2.34272 
 H                    -4.73639   4.07439  -2.23757 
 N                    -2.54468   5.28607  -2.6612 
 C                    -2.72382   3.97782  -2.61652 
 N                    -1.72024   3.05731  -2.79823 
 H                    -1.94917   2.07654  -2.74688 
 C                    -0.38843   3.36983  -3.05214 
 O                     0.43946   2.46251  -3.20081 
 C                    -0.18046   4.77163  -3.10304 
 N                     0.97802   5.50261  -3.32771 
 C                     0.59183   6.74807  -3.2652 
 H                     1.2482    7.60905  -3.39621 
 H                    -1.47543   8.65773  -3.72143 
 H                    -2.49035   7.90034  -2.69319 
 H                    -1.17283   8.67107  -2.11778 
 H                    -3.85284  -2.63092  -3.0087 
 H                    -3.278    -2.73227  -1.3462 
 H                    -3.83112  -1.18789  -1.99452 
 H                     0.84876  -3.33885  -3.74379 
 C                     0.17005  -2.53443  -3.46008 
 O                     1.73803  -0.80885  -3.89705 
 C                     0.62177  -1.17856  -3.53362 
 H                    -0.03266   0.73001  -3.19099 
 N                    -0.31506  -0.23926  -3.15243 
 O                    -2.3549    0.42415  -2.40668 
 C                    -1.59711  -0.47585  -2.72357 
 H                    -1.4668   -3.81044  -2.9719 
 C                    -1.07492  -2.79686  -3.04561 
 C                    -3.31947  -2.10985  -2.22764 
 N                    -1.95852  -1.80802  -2.67981 
 H                    -5.45692  -0.78414  -4.75886 
 H                    -4.91614   0.44451  -3.83145 
 H                    -4.55901  -1.09738  -3.43256 
 H                     0.9431    1.81307  -7.47176 
 H                     0.50219   0.16756  -7.56122 
 N                     0.3076    1.08537  -7.2134 
 C                    -0.7525    1.32707  -6.43949 
 C                    -2.72478   0.74371  -5.24303 
 N                    -2.96125   1.98614  -4.7904 
 H                    -2.14161   3.86127  -4.90298 
 C                    -2.02526   2.82741  -5.22524 
 N                    -0.96272   2.58727  -6.00043 
 H                    -3.21346  -2.42494  -5.65902 
 C                    -2.83287  -1.40327  -5.67573 
 N                    -1.75464  -1.02005  -6.31468 
 C                    -1.67458   0.33919  -6.0486 
 C                    -4.69861  -0.46198  -4.19213 
 N                    -3.4696   -0.38719  -5.00572 
 
 ITRead=  0  0  0  0  0  0  0  0  0  0  0  0  0  0  0  0  0  0  0  0
 ITRead=  0  0  0  0  0  0  0  0  0  0  0  0  0  0  0  0  0  0  0  0
 ITRead=  0  0  0  0  0  0  0  0  0  0  0  0  0  0  0  0  0  0  0  0
 ITRead=  0  0  0  0  0  0  0  0  0  0
 MicOpt= -1 -1 -1 -1 -1 -1 -1 -1 -1 -1 -1 -1 -1 -1 -1 -1 -1 -1 -1 -1
 MicOpt= -1 -1 -1 -1 -1 -1 -1 -1 -1 -1 -1 -1 -1 -1 -1 -1 -1 -1 -1 -1
 MicOpt= -1 -1 -1 -1 -1 -1 -1 -1 -1 -1 -1 -1 -1 -1 -1 -1 -1 -1 -1 -1
 MicOpt= -1 -1 -1 -1 -1 -1 -1 -1 -1 -1
 NAtoms=     70 NQM=       70 NQMF=       0 NMMI=      0 NMMIF=      0
                NMic=       0 NMicF=      0.
                    Isotopes and Nuclear Properties:
 (Nuclear quadrupole moments (NQMom) in fm**2, nuclear magnetic moments (NMagM)
  in nuclear magnetons)

  Atom         1           2           3           4           5           6           7           8           9          10
 IAtWgt=          14          12          12          14          12           1          14          12           1          14
 AtmWgt=  14.0030740  12.0000000  12.0000000  14.0030740  12.0000000   1.0078250  14.0030740  12.0000000   1.0078250  14.0030740
 NucSpn=           2           0           0           2           0           1           2           0           1           2
 AtZEff=  -0.0000000  -0.0000000  -0.0000000  -0.0000000  -0.0000000  -0.0000000  -0.0000000  -0.0000000  -0.0000000  -0.0000000
 NQMom=    2.0440000   0.0000000   0.0000000   2.0440000   0.0000000   0.0000000   2.0440000   0.0000000   0.0000000   2.0440000
 NMagM=    0.4037610   0.0000000   0.0000000   0.4037610   0.0000000   2.7928460   0.4037610   0.0000000   2.7928460   0.4037610
 AtZNuc=   7.0000000   6.0000000   6.0000000   7.0000000   6.0000000   1.0000000   7.0000000   6.0000000   1.0000000   7.0000000

  Atom        11          12          13          14          15          16          17          18          19          20
 IAtWgt=          12          12          14           1           1           1           1           1          14          12
 AtmWgt=  12.0000000  12.0000000  14.0030740   1.0078250   1.0078250   1.0078250   1.0078250   1.0078250  14.0030740  12.0000000
 NucSpn=           0           0           2           1           1           1           1           1           2           0
 AtZEff=  -0.0000000  -0.0000000  -0.0000000  -0.0000000  -0.0000000  -0.0000000  -0.0000000  -0.0000000  -0.0000000  -0.0000000
 NQMom=    0.0000000   0.0000000   2.0440000   0.0000000   0.0000000   0.0000000   0.0000000   0.0000000   2.0440000   0.0000000
 NMagM=    0.0000000   0.0000000   0.4037610   2.7928460   2.7928460   2.7928460   2.7928460   2.7928460   0.4037610   0.0000000
 AtZNuc=   6.0000000   6.0000000   7.0000000   1.0000000   1.0000000   1.0000000   1.0000000   1.0000000   7.0000000   6.0000000

  Atom        21          22          23          24          25          26          27          28          29          30
 IAtWgt=          12          14           1           1          14          12          14           1          12          16
 AtmWgt=  12.0000000  14.0030740   1.0078250   1.0078250  14.0030740  12.0000000  14.0030740   1.0078250  12.0000000  15.9949146
 NucSpn=           0           2           1           1           2           0           2           1           0           0
 AtZEff=  -0.0000000  -0.0000000  -0.0000000  -0.0000000  -0.0000000  -0.0000000  -0.0000000  -0.0000000  -0.0000000  -0.0000000
 NQMom=    0.0000000   2.0440000   0.0000000   0.0000000   2.0440000   0.0000000   2.0440000   0.0000000   0.0000000   0.0000000
 NMagM=    0.0000000   0.4037610   2.7928460   2.7928460   0.4037610   0.0000000   0.4037610   2.7928460   0.0000000   0.0000000
 AtZNuc=   6.0000000   7.0000000   1.0000000   1.0000000   7.0000000   6.0000000   7.0000000   1.0000000   6.0000000   8.0000000

  Atom        31          32          33          34          35          36          37          38          39          40
 IAtWgt=          12          14          12           1           1           1           1           1           1           1
 AtmWgt=  12.0000000  14.0030740  12.0000000   1.0078250   1.0078250   1.0078250   1.0078250   1.0078250   1.0078250   1.0078250
 NucSpn=           0           2           0           1           1           1           1           1           1           1
 AtZEff=  -0.0000000  -0.0000000  -0.0000000  -0.0000000  -0.0000000  -0.0000000  -0.0000000  -0.0000000  -0.0000000  -0.0000000
 NQMom=    0.0000000   2.0440000   0.0000000   0.0000000   0.0000000   0.0000000   0.0000000   0.0000000   0.0000000   0.0000000
 NMagM=    0.0000000   0.4037610   0.0000000   2.7928460   2.7928460   2.7928460   2.7928460   2.7928460   2.7928460   2.7928460
 AtZNuc=   6.0000000   7.0000000   6.0000000   1.0000000   1.0000000   1.0000000   1.0000000   1.0000000   1.0000000   1.0000000

  Atom        41          42          43          44          45          46          47          48          49          50
 IAtWgt=           1          12          16          12           1          14          16          12           1          12
 AtmWgt=   1.0078250  12.0000000  15.9949146  12.0000000   1.0078250  14.0030740  15.9949146  12.0000000   1.0078250  12.0000000
 NucSpn=           1           0           0           0           1           2           0           0           1           0
 AtZEff=  -0.0000000  -0.0000000  -0.0000000  -0.0000000  -0.0000000  -0.0000000  -0.0000000  -0.0000000  -0.0000000  -0.0000000
 NQMom=    0.0000000   0.0000000   0.0000000   0.0000000   0.0000000   2.0440000   0.0000000   0.0000000   0.0000000   0.0000000
 NMagM=    2.7928460   0.0000000   0.0000000   0.0000000   2.7928460   0.4037610   0.0000000   0.0000000   2.7928460   0.0000000
 AtZNuc=   1.0000000   6.0000000   8.0000000   6.0000000   1.0000000   7.0000000   8.0000000   6.0000000   1.0000000   6.0000000

  Atom        51          52          53          54          55          56          57          58          59          60
 IAtWgt=          12          14           1           1           1           1           1          14          12          12
 AtmWgt=  12.0000000  14.0030740   1.0078250   1.0078250   1.0078250   1.0078250   1.0078250  14.0030740  12.0000000  12.0000000
 NucSpn=           0           2           1           1           1           1           1           2           0           0
 AtZEff=  -0.0000000  -0.0000000  -0.0000000  -0.0000000  -0.0000000  -0.0000000  -0.0000000  -0.0000000  -0.0000000  -0.0000000
 NQMom=    0.0000000   2.0440000   0.0000000   0.0000000   0.0000000   0.0000000   0.0000000   2.0440000   0.0000000   0.0000000
 NMagM=    0.0000000   0.4037610   2.7928460   2.7928460   2.7928460   2.7928460   2.7928460   0.4037610   0.0000000   0.0000000
 AtZNuc=   6.0000000   7.0000000   1.0000000   1.0000000   1.0000000   1.0000000   1.0000000   7.0000000   6.0000000   6.0000000

  Atom        61          62          63          64          65          66          67          68          69          70
 IAtWgt=          14           1          12          14           1          12          14          12          12          14
 AtmWgt=  14.0030740   1.0078250  12.0000000  14.0030740   1.0078250  12.0000000  14.0030740  12.0000000  12.0000000  14.0030740
 NucSpn=           2           1           0           2           1           0           2           0           0           2
 AtZEff=  -0.0000000  -0.0000000  -0.0000000  -0.0000000  -0.0000000  -0.0000000  -0.0000000  -0.0000000  -0.0000000  -0.0000000
 NQMom=    2.0440000   0.0000000   0.0000000   2.0440000   0.0000000   0.0000000   2.0440000   0.0000000   0.0000000   2.0440000
 NMagM=    0.4037610   2.7928460   0.0000000   0.4037610   2.7928460   0.0000000   0.4037610   0.0000000   0.0000000   0.4037610
 AtZNuc=   7.0000000   1.0000000   6.0000000   7.0000000   1.0000000   6.0000000   7.0000000   6.0000000   6.0000000   7.0000000
 Leave Link  101 at Thu Jan 18 04:03:40 2018, MaxMem=  4294967296 cpu:               7.3 elap:               0.3
 (Enter /share/apps/g16/l202.exe)
 Stoichiometry    C23H27N17O3
 Framework group  C1[X(C23H27N17O3)]
 Deg. of freedom   204
 Full point group                 C1      NOp   1
 Largest Abelian subgroup         C1      NOp   1
 Largest concise Abelian subgroup C1      NOp   1
                         Standard orientation:                         
 ---------------------------------------------------------------------
 Center     Atomic      Atomic             Coordinates (Angstroms)
 Number     Number       Type             X           Y           Z
 ---------------------------------------------------------------------
      1          7           0       -6.782428    0.635930   -0.380666
      2          6           0       -8.024310   -0.154035   -0.488797
      3          6           0       -4.680698    1.278696   -0.463561
      4          7           0       -5.393469    2.348648    0.057870
      5          6           0       -6.631158    1.918586    0.086938
      6          1           0       -7.481587    2.500718    0.443070
      7          7           0       -2.932763   -0.089297   -1.261218
      8          6           0       -3.864221   -1.024626   -1.473630
      9          1           0       -3.496145   -1.961310   -1.890044
     10          7           0       -5.175932   -0.976833   -1.249941
     11          6           0       -5.523350    0.215804   -0.738736
     12          6           0       -3.314254    1.099868   -0.746006
     13          7           0       -2.385910    2.034789   -0.533262
     14          1           0       -2.623019    2.929615   -0.153394
     15          1           0       -1.422304    1.872748   -0.746214
     16          1           0       -8.669431    0.317226   -1.090380
     17          1           0       -7.815024   -1.055392   -0.866808
     18          1           0       -8.433548   -0.261290    0.417302
     19          7           0       -3.335272   -1.327387    1.412416
     20          6           0       -2.009007   -1.507435    1.101569
     21          6           0       -4.441006   -2.203328    0.975625
     22          7           0        0.488203   -3.324999   -0.486580
     23          1           0        1.480750   -3.276237   -0.594752
     24          1           0        0.019644   -4.085998   -0.936087
     25          7           0       -1.497225   -2.506774    0.350919
     26          6           0       -0.185120   -2.411406    0.228894
     27          7           0        0.569914   -1.414441    0.797678
     28          1           0        1.567663   -1.420842    0.651356
     29          6           0        0.064550   -0.376149    1.573830
     30          8           0        0.832783    0.473748    2.040981
     31          6           0       -1.343766   -0.465148    1.713863
     32          7           0       -2.234482    0.352785    2.395402
     33          6           0       -3.400722   -0.196282    2.188929
     34          1           0       -4.344412    0.184206    2.581292
     35          1           0       -5.093797   -1.674219    0.434588
     36          1           0       -4.073990   -2.947296    0.418791
     37          1           0       -4.902930   -2.584031    1.775949
     38          1           0        6.377473   -1.654436   -0.980775
     39          1           0        6.656880   -2.394943    0.593455
     40          1           0        5.110856   -2.621766   -0.224917
     41          1           0        6.394956    2.245359    1.836646
     42          6           0        5.729958    1.424331    1.568463
     43          8           0        3.782012    2.482998    2.412181
     44          6           0        4.333923    1.528508    1.865239
     45          1           0        2.591315    0.471914    1.677513
     46          7           0        3.582311    0.435229    1.484372
     47          8           0        3.289114   -1.622119    0.568643
     48          6           0        4.033394   -0.704989    0.867950
     49          1           0        7.252720    0.196316    0.720539
     50          6           0        6.199769    0.324730    0.967829
     51          6           0        5.918930   -1.929034   -0.042486
     52          7           0        5.390815   -0.730492    0.615036
     53          1           0        4.496234   -1.898980   -3.314842
     54          1           0        3.364383   -2.405786   -2.254571
     55          1           0        4.894200   -2.141348   -1.750772
     56          1           0        0.768965    3.920242   -0.611196
     57          1           0        2.423484    3.992475   -1.020413
     58          7           0        1.598444    3.440010   -0.896677
     59          6           0        1.605145    2.121535   -1.103426
     60          6           0        2.594851    0.035738   -1.679316
     61          7           0        1.472024   -0.680809   -1.505415
     62          1           0       -0.483791   -0.394319   -0.963836
     63          6           0        0.468398    0.108437   -1.127628
     64          7           0        0.459679    1.429193   -0.920009
     65          1           0        5.700848    0.593816   -2.381836
     66          6           0        4.649867    0.673184   -2.102414
     67          7           0        4.047973    1.790619   -1.775678
     68          6           0        2.744374    1.400574   -1.505055
     69          6           0        4.173620   -1.830664   -2.370778
     70          7           0        3.830023   -0.428289   -2.065370
 ---------------------------------------------------------------------
 Rotational constants (GHZ):           0.1978224           0.0494536           0.0476330
 Leave Link  202 at Thu Jan 18 04:03:40 2018, MaxMem=  4294967296 cpu:               0.3 elap:               0.0
 (Enter /share/apps/g16/l301.exe)
 Standard basis: CC-pVDZ (5D, 7F)
 Ernie: Thresh=  0.10000D-02 Tol=  0.10000D-05 Strict=F.
 Ernie:  86 primitive shells out of 1081 were deleted.
 There are   780 symmetry adapted cartesian basis functions of A   symmetry.
 There are   737 symmetry adapted basis functions of A   symmetry.
   737 basis functions,  1608 primitive gaussians,   780 cartesian basis functions
   154 alpha electrons      154 beta electrons
       nuclear repulsion energy      5619.2207804887 Hartrees.
 IExCor= 4639 DFT=T Ex+Corr=wB97XD ExCW=0 ScaHFX=  1.000000
 ScaDFX=  1.000000  1.000000  1.000000  1.000000 ScalE2=  1.000000  1.000000
 IRadAn=      5 IRanWt=     -1 IRanGd=            0 ICorTp=0 IEmpDi=121
 HFx  wShort=  0.000000 wLong=  0.200000 cFull=  0.222036 cShort=  0.000000 cLong=  0.777964
 DFx  wShort=  0.000000 wLong=  0.200000 cFull=  0.000000 cShort=  0.000000 cLong=  1.000000
 NAtoms=   70 NActive=   70 NUniq=   70 SFac= 1.00D+00 NAtFMM=   60 NAOKFM=T Big=T
 Integral buffers will be    131072 words long.
 Raffenetti 2 integral format.
 Two-electron integral symmetry is turned on.
 R6Disp:  Grimme-D2 Dispersion energy=       -0.0803955460 Hartrees.
 Nuclear repulsion after empirical dispersion term =     5619.1403849428 Hartrees.
 Leave Link  301 at Thu Jan 18 04:03:40 2018, MaxMem=  4294967296 cpu:               2.1 elap:               0.1
 (Enter /share/apps/g16/l302.exe)
 NPDir=0 NMtPBC=     1 NCelOv=     1 NCel=       1 NClECP=     1 NCelD=      1
         NCelK=      1 NCelE2=     1 NClLst=     1 CellRange=     0.0.
 One-electron integrals computed using PRISM.
 One-electron integral symmetry used in STVInt
 NBasis=   737 RedAO= T EigKep=  6.64D-04  NBF=   737
 NBsUse=   737 1.00D-06 EigRej= -1.00D+00 NBFU=   737
 Precomputing XC quadrature grid using
 IXCGrd= 4 IRadAn=           5 IRanWt=          -1 IRanGd=           0 AccXCQ= 0.00D+00.
 Generated NRdTot=       0 NPtTot=           0 NUsed=           0 NTot=          32
 NSgBfM=   761   759   761   761   761 MxSgAt=    70 MxSgA2=    70.
 Leave Link  302 at Thu Jan 18 04:03:45 2018, MaxMem=  4294967296 cpu:             134.4 elap:               4.2
 (Enter /share/apps/g16/l303.exe)
 DipDrv:  MaxL=1.
 Leave Link  303 at Thu Jan 18 04:03:45 2018, MaxMem=  4294967296 cpu:              12.5 elap:               0.4
 (Enter /share/apps/g16/l401.exe)
 ExpMin= 1.22D-01 ExpMax= 1.17D+04 ExpMxC= 4.01D+02 IAcc=3 IRadAn=         5 AccDes= 0.00D+00
 Harris functional with IExCor= 4639 and IRadAn=       5 diagonalized for initial guess.
 HarFok:  IExCor= 4639 AccDes= 0.00D+00 IRadAn=         5 IDoV= 1 UseB2=F ITyADJ=14
 ICtDFT=  3500011 ScaDFX=  1.000000  1.000000  1.000000  1.000000
 FoFCou: FMM=F IPFlag=           0 FMFlag=      100000 FMFlg1=        2001
         NFxFlg=           0 DoJE=T BraDBF=F KetDBF=T FulRan=T
         wScrn=  0.000000 ICntrl=       500 IOpCl=  0 I1Cent=   200000004 NGrid=           0
         NMat0=    1 NMatS0=      1 NMatT0=    0 NMatD0=    1 NMtDS0=    0 NMtDT0=    0
 Petite list used in FoFCou.
 Harris En= -1963.80923366133    
 JPrj=0 DoOrth=F DoCkMO=F.
 Leave Link  401 at Thu Jan 18 04:03:58 2018, MaxMem=  4294967296 cpu:             414.1 elap:              13.0
 (Enter /share/apps/g16/l502.exe)
 Integral symmetry usage will be decided dynamically.
 Closed shell SCF:
 Using DIIS extrapolation, IDIIS=  1040.
 NGot=  4294967296 LenX=  4293717438 LenY=  4293108258
 Requested convergence on RMS density matrix=1.00D-08 within  20 cycles.
 Requested convergence on MAX density matrix=1.00D-06.
 Requested convergence on             energy=1.00D-06.
 No special actions if energy rises.
 Fock matrices will be formed incrementally for  20 cycles.
 Integral accuracy reduced to 1.0D-05 until final iterations.

 Cycle   1  Pass 0  IDiag  1:
 FoFJK:  IHMeth= 1 ICntrl=       0 DoSepK=T KAlg= 0 I1Cent=           0 FoldK=F
 IRaf=         1 NMat=       1 IRICut=       1 DoRegI=T DoRafI=F ISym2E= 0 IDoP0=0 IntGTp=1.
 FoFCou: FMM=T IPFlag=           0 FMFlag=      100000 FMFlg1=        2001
         NFxFlg=           0 DoJE=T BraDBF=F KetDBF=F FulRan=T
         wScrn=  0.000000 ICntrl=       500 IOpCl=  0 I1Cent=           0 NGrid=           0
         NMat0=    1 NMatS0=      1 NMatT0=    0 NMatD0=    1 NMtDS0=    0 NMtDT0=    0
 Symmetry not used in FoFCou.
 FMM levels:  10  Number of levels for PrismC:   9
 E= -2048.24929237148    
 DIIS: error= 2.27D-02 at cycle   1 NSaved=   1.
 NSaved= 1 IEnMin= 1 EnMin= -2048.24929237148     IErMin= 1 ErrMin= 2.27D-02
 ErrMax= 2.27D-02  0.00D+00 EMaxC= 1.00D-01 BMatC= 8.42D-01 BMatP= 8.42D-01
 IDIUse=3 WtCom= 7.73D-01 WtEn= 2.27D-01
 Coeff-Com:  0.100D+01
 Coeff-En:   0.100D+01
 Coeff:      0.100D+01
 Gap=     0.244 Goal=   None    Shift=    0.000
 GapD=    0.244 DampG=1.000 DampE=0.500 DampFc=0.5000 IDamp=-1.
 Damping current iteration by 5.00D-01
 RMSDP=1.65D-03 MaxDP=1.26D-01              OVMax= 2.22D-01

 Cycle   2  Pass 0  IDiag  1:
 RMSU=  8.24D-04    CP:  9.97D-01
 E= -2048.44797570753     Delta-E=       -0.198683336050 Rises=F Damp=T
 DIIS: error= 1.27D-02 at cycle   2 NSaved=   2.
 NSaved= 2 IEnMin= 2 EnMin= -2048.44797570753     IErMin= 2 ErrMin= 1.27D-02
 ErrMax= 1.27D-02  0.00D+00 EMaxC= 1.00D-01 BMatC= 1.47D-01 BMatP= 8.42D-01
 IDIUse=3 WtCom= 8.73D-01 WtEn= 1.27D-01
 Coeff-Com: -0.177D+00 0.118D+01
 Coeff-En:   0.000D+00 0.100D+01
 Coeff:     -0.155D+00 0.115D+01
 Gap=     0.362 Goal=   None    Shift=    0.000
 RMSDP=6.14D-04 MaxDP=3.49D-02 DE=-1.99D-01 OVMax= 1.67D-01

 Cycle   3  Pass 0  IDiag  1:
 RMSU=  6.06D-04    CP:  9.93D-01  1.11D+00
 E= -2048.63027528904     Delta-E=       -0.182299581502 Rises=F Damp=F
 DIIS: error= 6.67D-03 at cycle   3 NSaved=   3.
 NSaved= 3 IEnMin= 3 EnMin= -2048.63027528904     IErMin= 3 ErrMin= 6.67D-03
 ErrMax= 6.67D-03  0.00D+00 EMaxC= 1.00D-01 BMatC= 6.94D-02 BMatP= 1.47D-01
 IDIUse=3 WtCom= 9.33D-01 WtEn= 6.67D-02
 Coeff-Com: -0.229D+00 0.553D+00 0.676D+00
 Coeff-En:   0.000D+00 0.000D+00 0.100D+01
 Coeff:     -0.214D+00 0.516D+00 0.698D+00
 Gap=     0.272 Goal=   None    Shift=    0.000
 RMSDP=3.84D-04 MaxDP=3.26D-02 DE=-1.82D-01 OVMax= 5.78D-02

 Cycle   4  Pass 0  IDiag  1:
 RMSU=  2.15D-04    CP:  9.93D-01  1.40D+00  6.58D-01
 E= -2048.68316481145     Delta-E=       -0.052889522409 Rises=F Damp=F
 DIIS: error= 2.49D-03 at cycle   4 NSaved=   4.
 NSaved= 4 IEnMin= 4 EnMin= -2048.68316481145     IErMin= 4 ErrMin= 2.49D-03
 ErrMax= 2.49D-03  0.00D+00 EMaxC= 1.00D-01 BMatC= 9.78D-03 BMatP= 6.94D-02
 IDIUse=3 WtCom= 9.75D-01 WtEn= 2.49D-02
 Coeff-Com: -0.952D-01 0.184D+00 0.373D+00 0.538D+00
 Coeff-En:   0.000D+00 0.000D+00 0.659D-01 0.934D+00
 Coeff:     -0.929D-01 0.180D+00 0.365D+00 0.548D+00
 Gap=     0.279 Goal=   None    Shift=    0.000
 RMSDP=1.34D-04 MaxDP=1.26D-02 DE=-5.29D-02 OVMax= 1.62D-02

 Cycle   5  Pass 0  IDiag  1:
 RMSU=  6.33D-05    CP:  9.93D-01  1.38D+00  7.95D-01  6.25D-01
 E= -2048.69134665345     Delta-E=       -0.008181842006 Rises=F Damp=F
 DIIS: error= 4.71D-04 at cycle   5 NSaved=   5.
 NSaved= 5 IEnMin= 5 EnMin= -2048.69134665345     IErMin= 5 ErrMin= 4.71D-04
 ErrMax= 4.71D-04  0.00D+00 EMaxC= 1.00D-01 BMatC= 2.98D-04 BMatP= 9.78D-03
 IDIUse=3 WtCom= 9.95D-01 WtEn= 4.71D-03
 Coeff-Com: -0.244D-01 0.416D-01 0.118D+00 0.237D+00 0.628D+00
 Coeff-En:   0.000D+00 0.000D+00 0.000D+00 0.000D+00 0.100D+01
 Coeff:     -0.243D-01 0.414D-01 0.118D+00 0.236D+00 0.629D+00
 Gap=     0.279 Goal=   None    Shift=    0.000
 RMSDP=2.68D-05 MaxDP=2.16D-03 DE=-8.18D-03 OVMax= 3.68D-03

 Failed to achieve initial convergence to 1.0D-08 in  6 cycles.
 Switch to full accuracy anyway.
 Cycle   6  Pass 1  IDiag  1:
 E= -2048.69173600880     Delta-E=       -0.000389355348 Rises=F Damp=F
 DIIS: error= 1.95D-04 at cycle   1 NSaved=   1.
 NSaved= 1 IEnMin= 1 EnMin= -2048.69173600880     IErMin= 1 ErrMin= 1.95D-04
 ErrMax= 1.95D-04  0.00D+00 EMaxC= 1.00D-01 BMatC= 8.14D-05 BMatP= 8.14D-05
 IDIUse=3 WtCom= 9.98D-01 WtEn= 1.95D-03
 Coeff-Com:  0.100D+01
 Coeff-En:   0.100D+01
 Coeff:      0.100D+01
 Gap=     0.279 Goal=   None    Shift=    0.000
 RMSDP=2.68D-05 MaxDP=2.16D-03 DE=-3.89D-04 OVMax= 2.02D-03

 Cycle   7  Pass 1  IDiag  1:
 RMSU=  1.20D-04    CP:  1.00D+00
 E= -2048.69179369937     Delta-E=       -0.000057690572 Rises=F Damp=F
 DIIS: error= 2.35D-04 at cycle   2 NSaved=   2.
 NSaved= 2 IEnMin= 2 EnMin= -2048.69179369937     IErMin= 1 ErrMin= 1.95D-04
 ErrMax= 2.35D-04  0.00D+00 EMaxC= 1.00D-01 BMatC= 4.69D-05 BMatP= 8.14D-05
 IDIUse=3 WtCom= 9.98D-01 WtEn= 2.35D-03
 Coeff-Com:  0.407D+00 0.593D+00
 Coeff-En:   0.000D+00 0.100D+01
 Coeff:      0.407D+00 0.593D+00
 Gap=     0.279 Goal=   None    Shift=    0.000
 RMSDP=1.20D-05 MaxDP=1.35D-03 DE=-5.77D-05 OVMax= 1.51D-03

 Cycle   8  Pass 1  IDiag  1:
 RMSU=  1.17D-05    CP:  1.00D+00  1.02D+00
 E= -2048.69182699086     Delta-E=       -0.000033291491 Rises=F Damp=F
 DIIS: error= 1.09D-04 at cycle   3 NSaved=   3.
 NSaved= 3 IEnMin= 3 EnMin= -2048.69182699086     IErMin= 3 ErrMin= 1.09D-04
 ErrMax= 1.09D-04  0.00D+00 EMaxC= 1.00D-01 BMatC= 1.13D-05 BMatP= 4.69D-05
 IDIUse=3 WtCom= 9.99D-01 WtEn= 1.09D-03
 Coeff-Com: -0.187D-01 0.316D+00 0.702D+00
 Coeff-En:   0.000D+00 0.140D+00 0.860D+00
 Coeff:     -0.186D-01 0.316D+00 0.703D+00
 Gap=     0.279 Goal=   None    Shift=    0.000
 RMSDP=5.95D-06 MaxDP=5.43D-04 DE=-3.33D-05 OVMax= 5.91D-04

 Cycle   9  Pass 1  IDiag  1:
 RMSU=  3.99D-06    CP:  1.00D+00  1.05D+00  7.54D-01
 E= -2048.69183727017     Delta-E=       -0.000010279304 Rises=F Damp=F
 DIIS: error= 2.50D-05 at cycle   4 NSaved=   4.
 NSaved= 4 IEnMin= 4 EnMin= -2048.69183727017     IErMin= 4 ErrMin= 2.50D-05
 ErrMax= 2.50D-05  0.00D+00 EMaxC= 1.00D-01 BMatC= 5.35D-07 BMatP= 1.13D-05
 IDIUse=1 WtCom= 1.00D+00 WtEn= 0.00D+00
 Coeff-Com: -0.297D-01 0.887D-01 0.261D+00 0.680D+00
 Coeff:     -0.297D-01 0.887D-01 0.261D+00 0.680D+00
 Gap=     0.279 Goal=   None    Shift=    0.000
 RMSDP=1.48D-06 MaxDP=1.30D-04 DE=-1.03D-05 OVMax= 4.16D-04

 Cycle  10  Pass 1  IDiag  1:
 RMSU=  1.34D-06    CP:  1.00D+00  1.05D+00  7.85D-01  1.09D+00
 E= -2048.69183814173     Delta-E=       -0.000000871561 Rises=F Damp=F
 DIIS: error= 9.38D-06 at cycle   5 NSaved=   5.
 NSaved= 5 IEnMin= 5 EnMin= -2048.69183814173     IErMin= 5 ErrMin= 9.38D-06
 ErrMax= 9.38D-06  0.00D+00 EMaxC= 1.00D-01 BMatC= 1.30D-07 BMatP= 5.35D-07
 IDIUse=1 WtCom= 1.00D+00 WtEn= 0.00D+00
 Coeff-Com: -0.349D-02-0.543D-01-0.115D+00 0.213D+00 0.959D+00
 Coeff:     -0.349D-02-0.543D-01-0.115D+00 0.213D+00 0.959D+00
 Gap=     0.279 Goal=   None    Shift=    0.000
 RMSDP=1.24D-06 MaxDP=7.21D-05 DE=-8.72D-07 OVMax= 2.12D-04

 Cycle  11  Pass 1  IDiag  1:
 RMSU=  5.22D-07    CP:  1.00D+00  1.06D+00  7.94D-01  1.37D+00  1.16D+00
 E= -2048.69183841079     Delta-E=       -0.000000269061 Rises=F Damp=F
 DIIS: error= 4.23D-06 at cycle   6 NSaved=   6.
 NSaved= 6 IEnMin= 6 EnMin= -2048.69183841079     IErMin= 6 ErrMin= 4.23D-06
 ErrMax= 4.23D-06  0.00D+00 EMaxC= 1.00D-01 BMatC= 3.15D-08 BMatP= 1.30D-07
 IDIUse=1 WtCom= 1.00D+00 WtEn= 0.00D+00
 Coeff-Com:  0.447D-02-0.461D-01-0.115D+00-0.504D-03 0.518D+00 0.638D+00
 Coeff:      0.447D-02-0.461D-01-0.115D+00-0.504D-03 0.518D+00 0.638D+00
 Gap=     0.279 Goal=   None    Shift=    0.000
 RMSDP=3.93D-07 MaxDP=3.21D-05 DE=-2.69D-07 OVMax= 1.06D-04

 Cycle  12  Pass 1  IDiag  1:
 RMSU=  1.91D-07    CP:  1.00D+00  1.06D+00  7.95D-01  1.44D+00  1.29D+00
                    CP:  9.25D-01
 E= -2048.69183845605     Delta-E=       -0.000000045264 Rises=F Damp=F
 DIIS: error= 9.65D-07 at cycle   7 NSaved=   7.
 NSaved= 7 IEnMin= 7 EnMin= -2048.69183845605     IErMin= 7 ErrMin= 9.65D-07
 ErrMax= 9.65D-07  0.00D+00 EMaxC= 1.00D-01 BMatC= 8.40D-10 BMatP= 3.15D-08
 IDIUse=1 WtCom= 1.00D+00 WtEn= 0.00D+00
 Coeff-Com:  0.114D-02-0.837D-02-0.223D-01-0.754D-02 0.669D-01 0.147D+00
 Coeff-Com:  0.823D+00
 Coeff:      0.114D-02-0.837D-02-0.223D-01-0.754D-02 0.669D-01 0.147D+00
 Coeff:      0.823D+00
 Gap=     0.279 Goal=   None    Shift=    0.000
 RMSDP=8.47D-08 MaxDP=4.43D-06 DE=-4.53D-08 OVMax= 1.87D-05

 Cycle  13  Pass 1  IDiag  1:
 RMSU=  5.14D-08    CP:  1.00D+00  1.05D+00  7.95D-01  1.45D+00  1.31D+00
                    CP:  1.00D+00  1.13D+00
 E= -2048.69183845747     Delta-E=       -0.000000001422 Rises=F Damp=F
 DIIS: error= 6.76D-07 at cycle   8 NSaved=   8.
 NSaved= 8 IEnMin= 8 EnMin= -2048.69183845747     IErMin= 8 ErrMin= 6.76D-07
 ErrMax= 6.76D-07  0.00D+00 EMaxC= 1.00D-01 BMatC= 3.35D-10 BMatP= 8.40D-10
 IDIUse=1 WtCom= 1.00D+00 WtEn= 0.00D+00
 Coeff-Com: -0.667D-03 0.865D-02 0.205D-01-0.167D-02-0.110D+00-0.994D-01
 Coeff-Com:  0.414D+00 0.768D+00
 Coeff:     -0.667D-03 0.865D-02 0.205D-01-0.167D-02-0.110D+00-0.994D-01
 Coeff:      0.414D+00 0.768D+00
 Gap=     0.279 Goal=   None    Shift=    0.000
 RMSDP=4.76D-08 MaxDP=2.66D-06 DE=-1.42D-09 OVMax= 9.15D-06

 Cycle  14  Pass 1  IDiag  1:
 RMSU=  2.77D-08    CP:  1.00D+00  1.05D+00  7.94D-01  1.45D+00  1.32D+00
                    CP:  1.05D+00  1.27D+00  1.06D+00
 E= -2048.69183845809     Delta-E=       -0.000000000620 Rises=F Damp=F
 DIIS: error= 1.37D-07 at cycle   9 NSaved=   9.
 NSaved= 9 IEnMin= 9 EnMin= -2048.69183845809     IErMin= 9 ErrMin= 1.37D-07
 ErrMax= 1.37D-07  0.00D+00 EMaxC= 1.00D-01 BMatC= 2.50D-11 BMatP= 3.35D-10
 IDIUse=1 WtCom= 1.00D+00 WtEn= 0.00D+00
 Coeff-Com: -0.372D-03 0.419D-02 0.101D-01 0.305D-03-0.483D-01-0.532D-01
 Coeff-Com:  0.729D-01 0.273D+00 0.741D+00
 Coeff:     -0.372D-03 0.419D-02 0.101D-01 0.305D-03-0.483D-01-0.532D-01
 Coeff:      0.729D-01 0.273D+00 0.741D+00
 Gap=     0.279 Goal=   None    Shift=    0.000
 RMSDP=1.32D-08 MaxDP=7.03D-07 DE=-6.20D-10 OVMax= 2.75D-06

 Cycle  15  Pass 1  IDiag  1:
 RMSU=  8.80D-09    CP:  1.00D+00  1.05D+00  7.94D-01  1.45D+00  1.32D+00
                    CP:  1.05D+00  1.30D+00  1.19D+00  1.13D+00
 E= -2048.69183845838     Delta-E=       -0.000000000283 Rises=F Damp=F
 DIIS: error= 6.36D-08 at cycle  10 NSaved=  10.
 NSaved=10 IEnMin=10 EnMin= -2048.69183845838     IErMin=10 ErrMin= 6.36D-08
 ErrMax= 6.36D-08  0.00D+00 EMaxC= 1.00D-01 BMatC= 4.11D-12 BMatP= 2.50D-11
 IDIUse=1 WtCom= 1.00D+00 WtEn= 0.00D+00
 Coeff-Com:  0.190D-04-0.454D-03-0.995D-03 0.152D-03 0.698D-02 0.330D-02
 Coeff-Com: -0.542D-01-0.718D-01 0.247D+00 0.870D+00
 Coeff:      0.190D-04-0.454D-03-0.995D-03 0.152D-03 0.698D-02 0.330D-02
 Coeff:     -0.542D-01-0.718D-01 0.247D+00 0.870D+00
 Gap=     0.279 Goal=   None    Shift=    0.000
 RMSDP=6.36D-09 MaxDP=3.72D-07 DE=-2.83D-10 OVMax= 1.19D-06

 SCF Done:  E(RwB97XD) =  -2048.69183846     A.U. after   15 cycles
            NFock= 15  Conv=0.64D-08     -V/T= 2.0052
 KE= 2.038185280021D+03 PE=-1.601902227362D+04 EE= 6.313004770201D+03
 Leave Link  502 at Thu Jan 18 04:16:43 2018, MaxMem=  4294967296 cpu:           23518.0 elap:             764.6
 (Enter /share/apps/g16/l601.exe)
 Copying SCF densities to generalized density rwf, IOpCl= 0 IROHF=0.

 **********************************************************************

            Population analysis using the SCF density.

 **********************************************************************

 Orbital symmetries:
       Occupied  (A) (A) (A) (A) (A) (A) (A) (A) (A) (A) (A) (A)
                 (A) (A) (A) (A) (A) (A) (A) (A) (A) (A) (A) (A)
                 (A) (A) (A) (A) (A) (A) (A) (A) (A) (A) (A) (A)
                 (A) (A) (A) (A) (A) (A) (A) (A) (A) (A) (A) (A)
                 (A) (A) (A) (A) (A) (A) (A) (A) (A) (A) (A) (A)
                 (A) (A) (A) (A) (A) (A) (A) (A) (A) (A) (A) (A)
                 (A) (A) (A) (A) (A) (A) (A) (A) (A) (A) (A) (A)
                 (A) (A) (A) (A) (A) (A) (A) (A) (A) (A) (A) (A)
                 (A) (A) (A) (A) (A) (A) (A) (A) (A) (A) (A) (A)
                 (A) (A) (A) (A) (A) (A) (A) (A) (A) (A) (A) (A)
                 (A) (A) (A) (A) (A) (A) (A) (A) (A) (A) (A) (A)
                 (A) (A) (A) (A) (A) (A) (A) (A) (A) (A) (A) (A)
                 (A) (A) (A) (A) (A) (A) (A) (A) (A) (A)
       Virtual   (A) (A) (A) (A) (A) (A) (A) (A) (A) (A) (A) (A)
                 (A) (A) (A) (A) (A) (A) (A) (A) (A) (A) (A) (A)
                 (A) (A) (A) (A) (A) (A) (A) (A) (A) (A) (A) (A)
                 (A) (A) (A) (A) (A) (A) (A) (A) (A) (A) (A) (A)
                 (A) (A) (A) (A) (A) (A) (A) (A) (A) (A) (A) (A)
                 (A) (A) (A) (A) (A) (A) (A) (A) (A) (A) (A) (A)
                 (A) (A) (A) (A) (A) (A) (A) (A) (A) (A) (A) (A)
                 (A) (A) (A) (A) (A) (A) (A) (A) (A) (A) (A) (A)
                 (A) (A) (A) (A) (A) (A) (A) (A) (A) (A) (A) (A)
                 (A) (A) (A) (A) (A) (A) (A) (A) (A) (A) (A) (A)
                 (A) (A) (A) (A) (A) (A) (A) (A) (A) (A) (A) (A)
                 (A) (A) (A) (A) (A) (A) (A) (A) (A) (A) (A) (A)
                 (A) (A) (A) (A) (A) (A) (A) (A) (A) (A) (A) (A)
                 (A) (A) (A) (A) (A) (A) (A) (A) (A) (A) (A) (A)
                 (A) (A) (A) (A) (A) (A) (A) (A) (A) (A) (A) (A)
                 (A) (A) (A) (A) (A) (A) (A) (A) (A) (A) (A) (A)
                 (A) (A) (A) (A) (A) (A) (A) (A) (A) (A) (A) (A)
                 (A) (A) (A) (A) (A) (A) (A) (A) (A) (A) (A) (A)
                 (A) (A) (A) (A) (A) (A) (A) (A) (A) (A) (A) (A)
                 (A) (A) (A) (A) (A) (A) (A) (A) (A) (A) (A) (A)
                 (A) (A) (A) (A) (A) (A) (A) (A) (A) (A) (A) (A)
                 (A) (A) (A) (A) (A) (A) (A) (A) (A) (A) (A) (A)
                 (A) (A) (A) (A) (A) (A) (A) (A) (A) (A) (A) (A)
                 (A) (A) (A) (A) (A) (A) (A) (A) (A) (A) (A) (A)
                 (A) (A) (A) (A) (A) (A) (A) (A) (A) (A) (A) (A)
                 (A) (A) (A) (A) (A) (A) (A) (A) (A) (A) (A) (A)
                 (A) (A) (A) (A) (A) (A) (A) (A) (A) (A) (A) (A)
                 (A) (A) (A) (A) (A) (A) (A) (A) (A) (A) (A) (A)
                 (A) (A) (A) (A) (A) (A) (A) (A) (A) (A) (A) (A)
                 (A) (A) (A) (A) (A) (A) (A) (A) (A) (A) (A) (A)
                 (A) (A) (A) (A) (A) (A) (A) (A) (A) (A) (A) (A)
                 (A) (A) (A) (A) (A) (A) (A) (A) (A) (A) (A) (A)
                 (A) (A) (A) (A) (A) (A) (A) (A) (A) (A) (A) (A)
                 (A) (A) (A) (A) (A) (A) (A) (A) (A) (A) (A) (A)
                 (A) (A) (A) (A) (A) (A) (A) (A) (A) (A) (A) (A)
                 (A) (A) (A) (A) (A) (A) (A) (A) (A) (A) (A) (A)
                 (A) (A) (A) (A) (A) (A) (A) (A) (A) (A) (A) (A)
                 (A) (A) (A) (A) (A) (A) (A) (A) (A) (A) (A) (A)
                 (A) (A) (A) (A) (A) (A) (A) (A) (A) (A) (A) (A)
                 (A) (A) (A) (A) (A) (A) (A) (A) (A) (A) (A) (A)
                 (A) (A) (A) (A) (A) (A) (A) (A) (A) (A) (A) (A)
                 (A) (A) (A) (A) (A) (A) (A) (A) (A) (A) (A) (A)
                 (A) (A) (A) (A) (A) (A) (A) (A) (A) (A) (A) (A)
                 (A) (A) (A) (A) (A) (A) (A) (A) (A) (A) (A) (A)
                 (A) (A) (A) (A) (A) (A) (A) (A) (A) (A) (A) (A)
                 (A) (A) (A) (A) (A) (A) (A) (A) (A) (A) (A) (A)
                 (A) (A) (A) (A) (A) (A) (A) (A) (A) (A) (A) (A)
                 (A) (A) (A) (A) (A) (A) (A) (A) (A) (A) (A) (A)
                 (A) (A) (A) (A) (A) (A) (A)
 The electronic state is 1-A.
 Alpha  occ. eigenvalues --  -19.26089 -19.22022 -19.20464 -14.52866 -14.51329
 Alpha  occ. eigenvalues --  -14.50405 -14.48000 -14.47953 -14.46822 -14.46149
 Alpha  occ. eigenvalues --  -14.46077 -14.44236 -14.43402 -14.43140 -14.42989
 Alpha  occ. eigenvalues --  -14.42859 -14.42218 -14.41719 -14.41405 -14.40424
 Alpha  occ. eigenvalues --  -10.45736 -10.40664 -10.40109 -10.38673 -10.37897
 Alpha  occ. eigenvalues --  -10.37835 -10.36930 -10.36762 -10.36322 -10.35998
 Alpha  occ. eigenvalues --  -10.35630 -10.34865 -10.34859 -10.34252 -10.33886
 Alpha  occ. eigenvalues --  -10.32892 -10.32740 -10.32341 -10.31297 -10.31178
 Alpha  occ. eigenvalues --  -10.30163 -10.28425 -10.27745  -1.19850  -1.14083
 Alpha  occ. eigenvalues --   -1.13065  -1.13044  -1.12944  -1.10198  -1.09730
 Alpha  occ. eigenvalues --   -1.08287  -1.07995  -1.06488  -1.03628  -1.02722
 Alpha  occ. eigenvalues --   -1.02063  -0.99848  -0.99282  -0.98487  -0.98197
 Alpha  occ. eigenvalues --   -0.95963  -0.95639  -0.94165  -0.91357  -0.86863
 Alpha  occ. eigenvalues --   -0.85644  -0.85512  -0.83999  -0.83806  -0.83504
 Alpha  occ. eigenvalues --   -0.81408  -0.79141  -0.76014  -0.74419  -0.74122
 Alpha  occ. eigenvalues --   -0.73831  -0.73663  -0.73255  -0.72593  -0.69431
 Alpha  occ. eigenvalues --   -0.67784  -0.67052  -0.66718  -0.65870  -0.64950
 Alpha  occ. eigenvalues --   -0.64190  -0.63382  -0.63216  -0.62635  -0.62020
 Alpha  occ. eigenvalues --   -0.61537  -0.61280  -0.59952  -0.59624  -0.58816
 Alpha  occ. eigenvalues --   -0.58550  -0.57886  -0.57865  -0.57181  -0.56811
 Alpha  occ. eigenvalues --   -0.56563  -0.56158  -0.55961  -0.54782  -0.54467
 Alpha  occ. eigenvalues --   -0.54211  -0.53473  -0.53367  -0.53033  -0.52360
 Alpha  occ. eigenvalues --   -0.52211  -0.51723  -0.51592  -0.51146  -0.50900
 Alpha  occ. eigenvalues --   -0.50433  -0.49806  -0.49525  -0.48791  -0.48595
 Alpha  occ. eigenvalues --   -0.48483  -0.48213  -0.48102  -0.47867  -0.47408
 Alpha  occ. eigenvalues --   -0.47155  -0.45913  -0.45446  -0.44289  -0.42985
 Alpha  occ. eigenvalues --   -0.41115  -0.40003  -0.39672  -0.38706  -0.37185
 Alpha  occ. eigenvalues --   -0.36957  -0.36764  -0.36409  -0.35633  -0.35131
 Alpha  occ. eigenvalues --   -0.34832  -0.34050  -0.33519  -0.33323  -0.33147
 Alpha  occ. eigenvalues --   -0.32543  -0.32461  -0.31807  -0.31772  -0.31635
 Alpha  occ. eigenvalues --   -0.31319  -0.28172  -0.26816  -0.25092
 Alpha virt. eigenvalues --    0.02808   0.05105   0.06218   0.08003   0.08463
 Alpha virt. eigenvalues --    0.08862   0.09694   0.10361   0.11217   0.11878
 Alpha virt. eigenvalues --    0.12303   0.13059   0.14605   0.14779   0.14937
 Alpha virt. eigenvalues --    0.15241   0.16194   0.17113   0.18154   0.18323
 Alpha virt. eigenvalues --    0.18380   0.19105   0.19217   0.19586   0.20108
 Alpha virt. eigenvalues --    0.20523   0.21067   0.21560   0.22028   0.22474
 Alpha virt. eigenvalues --    0.22638   0.22911   0.23046   0.23294   0.24323
 Alpha virt. eigenvalues --    0.24800   0.25434   0.25894   0.26307   0.26494
 Alpha virt. eigenvalues --    0.27279   0.27717   0.28304   0.28415   0.28689
 Alpha virt. eigenvalues --    0.29037   0.29059   0.30328   0.30610   0.30722
 Alpha virt. eigenvalues --    0.32175   0.32601   0.32977   0.33354   0.34139
 Alpha virt. eigenvalues --    0.34386   0.35160   0.35862   0.36063   0.36488
 Alpha virt. eigenvalues --    0.37133   0.37834   0.38154   0.39025   0.39413
 Alpha virt. eigenvalues --    0.40293   0.40803   0.41180   0.41607   0.41819
 Alpha virt. eigenvalues --    0.42279   0.42716   0.43385   0.44096   0.44783
 Alpha virt. eigenvalues --    0.45586   0.45955   0.46367   0.46769   0.47591
 Alpha virt. eigenvalues --    0.47857   0.48315   0.48962   0.49549   0.49605
 Alpha virt. eigenvalues --    0.50038   0.50862   0.51185   0.51424   0.51944
 Alpha virt. eigenvalues --    0.52318   0.52355   0.52775   0.53448   0.54290
 Alpha virt. eigenvalues --    0.54361   0.54801   0.55076   0.55406   0.56468
 Alpha virt. eigenvalues --    0.56652   0.56886   0.57231   0.57482   0.57662
 Alpha virt. eigenvalues --    0.58369   0.58787   0.59004   0.60021   0.60185
 Alpha virt. eigenvalues --    0.60645   0.61003   0.61485   0.61835   0.61998
 Alpha virt. eigenvalues --    0.62478   0.63223   0.63377   0.63602   0.63917
 Alpha virt. eigenvalues --    0.64198   0.64413   0.65084   0.65448   0.65656
 Alpha virt. eigenvalues --    0.66143   0.66882   0.67221   0.67717   0.68141
 Alpha virt. eigenvalues --    0.68357   0.69031   0.69202   0.70411   0.70614
 Alpha virt. eigenvalues --    0.70827   0.71373   0.72021   0.72533   0.72858
 Alpha virt. eigenvalues --    0.73180   0.73578   0.73670   0.74472   0.74859
 Alpha virt. eigenvalues --    0.75100   0.75395   0.75620   0.75910   0.76208
 Alpha virt. eigenvalues --    0.76413   0.76438   0.77553   0.77640   0.78041
 Alpha virt. eigenvalues --    0.78209   0.78665   0.79007   0.79121   0.79387
 Alpha virt. eigenvalues --    0.79709   0.80514   0.80812   0.81725   0.81862
 Alpha virt. eigenvalues --    0.82005   0.82148   0.82828   0.82940   0.83160
 Alpha virt. eigenvalues --    0.83593   0.84023   0.84553   0.85105   0.85913
 Alpha virt. eigenvalues --    0.86220   0.86699   0.87345   0.88259   0.88529
 Alpha virt. eigenvalues --    0.88634   0.89032   0.89343   0.89993   0.90598
 Alpha virt. eigenvalues --    0.90790   0.91240   0.91689   0.92044   0.92898
 Alpha virt. eigenvalues --    0.93718   0.94237   0.94586   0.95018   0.95503
 Alpha virt. eigenvalues --    0.96146   0.96490   0.97140   0.97357   0.97993
 Alpha virt. eigenvalues --    0.98320   0.98835   0.98949   0.99698   1.00080
 Alpha virt. eigenvalues --    1.00780   1.01029   1.01503   1.01712   1.02169
 Alpha virt. eigenvalues --    1.02602   1.03568   1.03840   1.04179   1.04494
 Alpha virt. eigenvalues --    1.05179   1.05543   1.06092   1.06870   1.07707
 Alpha virt. eigenvalues --    1.08245   1.08619   1.09081   1.09530   1.10497
 Alpha virt. eigenvalues --    1.10754   1.10946   1.11734   1.12280   1.13034
 Alpha virt. eigenvalues --    1.13209   1.13846   1.14185   1.14678   1.14974
 Alpha virt. eigenvalues --    1.15097   1.15263   1.15964   1.16349   1.17116
 Alpha virt. eigenvalues --    1.17218   1.18421   1.18604   1.19122   1.19281
 Alpha virt. eigenvalues --    1.19861   1.19982   1.20572   1.21065   1.21342
 Alpha virt. eigenvalues --    1.21629   1.22023   1.22688   1.23193   1.23342
 Alpha virt. eigenvalues --    1.23557   1.23881   1.24232   1.24782   1.25114
 Alpha virt. eigenvalues --    1.25354   1.26015   1.26849   1.27384   1.27815
 Alpha virt. eigenvalues --    1.28486   1.29113   1.30016   1.30512   1.30626
 Alpha virt. eigenvalues --    1.31172   1.31693   1.32533   1.33094   1.33297
 Alpha virt. eigenvalues --    1.33816   1.34288   1.34775   1.35627   1.36196
 Alpha virt. eigenvalues --    1.36793   1.36998   1.37837   1.38518   1.39184
 Alpha virt. eigenvalues --    1.39618   1.40264   1.41243   1.41535   1.42062
 Alpha virt. eigenvalues --    1.42157   1.42451   1.43766   1.44621   1.45743
 Alpha virt. eigenvalues --    1.46376   1.47768   1.47965   1.48444   1.49360
 Alpha virt. eigenvalues --    1.49634   1.50211   1.51065   1.51576   1.52717
 Alpha virt. eigenvalues --    1.53159   1.54338   1.54946   1.55873   1.56552
 Alpha virt. eigenvalues --    1.56997   1.58506   1.59289   1.59703   1.60061
 Alpha virt. eigenvalues --    1.60762   1.61153   1.61771   1.62754   1.62913
 Alpha virt. eigenvalues --    1.63472   1.64212   1.64885   1.65103   1.65646
 Alpha virt. eigenvalues --    1.66525   1.66767   1.67480   1.67599   1.68049
 Alpha virt. eigenvalues --    1.68356   1.68756   1.69252   1.69797   1.70692
 Alpha virt. eigenvalues --    1.71132   1.71459   1.71676   1.72052   1.72839
 Alpha virt. eigenvalues --    1.73220   1.73574   1.73970   1.74813   1.75132
 Alpha virt. eigenvalues --    1.75172   1.75648   1.76016   1.76343   1.76713
 Alpha virt. eigenvalues --    1.77171   1.77340   1.77564   1.77876   1.78380
 Alpha virt. eigenvalues --    1.78654   1.79112   1.79444   1.79783   1.80223
 Alpha virt. eigenvalues --    1.80592   1.81097   1.81254   1.81386   1.82367
 Alpha virt. eigenvalues --    1.82581   1.82911   1.83776   1.84459   1.84876
 Alpha virt. eigenvalues --    1.85219   1.85312   1.85515   1.86458   1.86645
 Alpha virt. eigenvalues --    1.87220   1.87936   1.88420   1.88781   1.89629
 Alpha virt. eigenvalues --    1.89738   1.90296   1.90543   1.91053   1.91467
 Alpha virt. eigenvalues --    1.92157   1.92418   1.92710   1.92988   1.93330
 Alpha virt. eigenvalues --    1.93781   1.94236   1.95292   1.95470   1.95879
 Alpha virt. eigenvalues --    1.96745   1.97846   1.98617   1.99394   1.99536
 Alpha virt. eigenvalues --    1.99985   2.00722   2.01698   2.01858   2.03160
 Alpha virt. eigenvalues --    2.03626   2.04006   2.04716   2.05508   2.06552
 Alpha virt. eigenvalues --    2.07335   2.07373   2.08231   2.08662   2.09094
 Alpha virt. eigenvalues --    2.09351   2.09857   2.11687   2.12233   2.12548
 Alpha virt. eigenvalues --    2.12982   2.13669   2.13872   2.14443   2.15227
 Alpha virt. eigenvalues --    2.15507   2.16483   2.17290   2.18298   2.20258
 Alpha virt. eigenvalues --    2.20608   2.20856   2.21625   2.22018   2.22374
 Alpha virt. eigenvalues --    2.22547   2.23400   2.23898   2.24304   2.25227
 Alpha virt. eigenvalues --    2.26448   2.26935   2.27875   2.28170   2.28672
 Alpha virt. eigenvalues --    2.29031   2.29620   2.29838   2.30643   2.31399
 Alpha virt. eigenvalues --    2.31923   2.32265   2.33285   2.33677   2.34293
 Alpha virt. eigenvalues --    2.34333   2.35095   2.35821   2.36593   2.36807
 Alpha virt. eigenvalues --    2.36811   2.37897   2.38796   2.39395   2.39819
 Alpha virt. eigenvalues --    2.40085   2.40838   2.41409   2.41795   2.42271
 Alpha virt. eigenvalues --    2.42709   2.43476   2.44012   2.44715   2.45016
 Alpha virt. eigenvalues --    2.45872   2.46197   2.47170   2.47349   2.48688
 Alpha virt. eigenvalues --    2.49291   2.50447   2.51327   2.51726   2.53114
 Alpha virt. eigenvalues --    2.53650   2.54933   2.55565   2.56025   2.56836
 Alpha virt. eigenvalues --    2.57928   2.58268   2.58699   2.60265   2.60931
 Alpha virt. eigenvalues --    2.61169   2.62387   2.62674   2.63926   2.65146
 Alpha virt. eigenvalues --    2.65382   2.66024   2.66441   2.67689   2.68105
 Alpha virt. eigenvalues --    2.68146   2.68533   2.69057   2.69550   2.70674
 Alpha virt. eigenvalues --    2.71592   2.72544   2.73256   2.74047   2.74349
 Alpha virt. eigenvalues --    2.74773   2.75333   2.75815   2.76107   2.77820
 Alpha virt. eigenvalues --    2.78527   2.79276   2.79719   2.80373   2.81555
 Alpha virt. eigenvalues --    2.81645   2.81847   2.82583   2.82929   2.83143
 Alpha virt. eigenvalues --    2.84197   2.84464   2.85884   2.86247   2.86654
 Alpha virt. eigenvalues --    2.87194   2.87409   2.87797   2.89008   2.89190
 Alpha virt. eigenvalues --    2.91512   2.92013   2.94780   2.95218   2.96776
 Alpha virt. eigenvalues --    2.97075   2.98442   2.98728   2.99800   3.00076
 Alpha virt. eigenvalues --    3.01710   3.03162   3.04892   3.05922   3.07467
 Alpha virt. eigenvalues --    3.08404   3.10564   3.11745   3.14311   3.15239
 Alpha virt. eigenvalues --    3.15521   3.16279   3.16766   3.19096   3.21319
 Alpha virt. eigenvalues --    3.22641   3.23112   3.24041   3.24865   3.28170
 Alpha virt. eigenvalues --    3.45660   3.47385   3.48734   3.50024   3.50586
 Alpha virt. eigenvalues --    3.53145   3.54501   3.56653   3.58671   3.60415
 Alpha virt. eigenvalues --    3.63788   3.71364   3.75017
          Condensed to atoms (all electrons):
 Mulliken charges:
               1
     1  N   -0.312331
     2  C    0.179534
     3  C    0.051371
     4  N   -0.253081
     5  C    0.131588
     6  H    0.031228
     7  N   -0.256847
     8  C    0.109806
     9  H    0.021518
    10  N   -0.293534
    11  C    0.232124
    12  C    0.084538
    13  N   -0.037766
    14  H    0.107417
    15  H    0.088196
    16  H    0.030874
    17  H    0.037113
    18  H    0.027199
    19  N   -0.293115
    20  C    0.236403
    21  C    0.207851
    22  N   -0.093902
    23  H    0.111713
    24  H    0.112500
    25  N   -0.284878
    26  C    0.196557
    27  N   -0.124902
    28  H    0.131716
    29  C    0.140575
    30  O   -0.324719
    31  C    0.017551
    32  N   -0.224970
    33  C    0.114841
    34  H    0.022737
    35  H    0.018382
    36  H    0.020584
    37  H    0.008835
    38  H    0.045633
    39  H    0.061667
    40  H    0.079286
    41  H    0.031781
    42  C   -0.086025
    43  O   -0.263129
    44  C    0.182834
    45  H    0.132373
    46  N   -0.121037
    47  O   -0.342531
    48  C    0.334649
    49  H    0.043902
    50  C    0.155590
    51  C    0.065313
    52  N   -0.282354
    53  H    0.028629
    54  H    0.029537
    55  H   -0.030774
    56  H    0.117471
    57  H    0.121335
    58  N   -0.066525
    59  C    0.136407
    60  C    0.210934
    61  N   -0.291959
    62  H    0.029475
    63  C    0.181706
    64  N   -0.309000
    65  H    0.025836
    66  C    0.114012
    67  N   -0.249169
    68  C    0.029866
    69  C    0.200404
    70  N   -0.288841
 Sum of Mulliken charges =  -0.00000
 Mulliken charges with hydrogens summed into heavy atoms:
               1
     1  N   -0.312331
     2  C    0.274720
     3  C    0.051371
     4  N   -0.253081
     5  C    0.162816
     7  N   -0.256847
     8  C    0.131325
    10  N   -0.293534
    11  C    0.232124
    12  C    0.084538
    13  N    0.157847
    19  N   -0.293115
    20  C    0.236403
    21  C    0.255651
    22  N    0.130311
    25  N   -0.284878
    26  C    0.196557
    27  N    0.006815
    29  C    0.140575
    30  O   -0.324719
    31  C    0.017551
    32  N   -0.224970
    33  C    0.137578
    42  C   -0.054244
    43  O   -0.263129
    44  C    0.182834
    46  N    0.011336
    47  O   -0.342531
    48  C    0.334649
    50  C    0.199492
    51  C    0.251900
    52  N   -0.282354
    58  N    0.172281
    59  C    0.136407
    60  C    0.210934
    61  N   -0.291959
    63  C    0.211181
    64  N   -0.309000
    66  C    0.139848
    67  N   -0.249169
    68  C    0.029866
    69  C    0.227796
    70  N   -0.288841
 Electronic spatial extent (au):  <R**2>=          22887.4380
 Charge=             -0.0000 electrons
 Dipole moment (field-independent basis, Debye):
    X=              4.0006    Y=             -5.3245    Z=             -5.1984  Tot=              8.4485
 Quadrupole moment (field-independent basis, Debye-Ang):
   XX=           -139.6987   YY=           -226.9863   ZZ=           -261.9519
   XY=            -18.7623   XZ=            -17.6645   YZ=             -4.6459
 Traceless Quadrupole moment (field-independent basis, Debye-Ang):
   XX=             69.8470   YY=            -17.4407   ZZ=            -52.4063
   XY=            -18.7623   XZ=            -17.6645   YZ=             -4.6459
 Octapole moment (field-independent basis, Debye-Ang**2):
  XXX=            -49.3535  YYY=             -4.7810  ZZZ=            -37.8886  XYY=             36.6262
  XXY=           -108.7800  XXZ=              3.7573  XZZ=             14.5224  YZZ=            -51.0279
  YYZ=            -49.6667  XYZ=             16.3094
 Hexadecapole moment (field-independent basis, Debye-Ang**3):
 XXXX=         -16384.5579 YYYY=          -3372.2356 ZZZZ=          -3038.1284 XXXY=           -564.0936
 XXXZ=           -269.9300 YYYX=            -43.2962 YYYZ=             34.6681 ZZZX=           -107.7877
 ZZZY=            -11.7946 XXYY=          -4528.0203 XXZZ=          -4375.7644 YYZZ=          -1191.4882
 XXYZ=             32.3878 YYXZ=           -100.1537 ZZXY=           -117.3592
 N-N= 5.619140384943D+03 E-N=-1.601902226495D+04  KE= 2.038185280021D+03
 No NMR shielding tensors so no spin-rotation constants.
 Leave Link  601 at Thu Jan 18 04:16:44 2018, MaxMem=  4294967296 cpu:              45.9 elap:               1.6
 (Enter /share/apps/g16/l9999.exe)
 1\1\GINC-COMPUTE-0-3\SP\RwB97XD\CC-pVDZ\C23H27N17O3\SATYA\18-Jan-2018\
 0\\#p wb97xd/cc-pvdz sp scf=(maxcycles=20)\\Base pair stacking\\0,1\N,
 0,-0.25411,9.85653,-6.15539\C,0,-0.72781,11.22427,-5.86746\C,0,-0.1219
 4,7.66941,-6.34599\N,0,1.07543,8.17437,-6.83184\C,0,0.94788,9.47182,-6
 .69757\H,0,1.7067,10.20197,-6.98043\N,0,-1.84699,6.20022,-5.6913\C,0,-
 2.53293,7.2891,-5.32881\H,0,-3.52177,7.09896,-4.91372\N,0,-2.18242,8.5
 7157,-5.40175\C,0,-0.95152,8.69432,-5.92542\C,0,-0.61153,6.35715,-6.21
 485\N,0,0.07474,5.27141,-6.57729\H,0,0.99281,5.34032,-6.96925\H,0,-0.3
 0518,4.35262,-6.46946\H,0,-0.75231,11.75525,-6.71459\H,0,-1.64572,11.1
 8395,-5.47382\H,0,-0.10754,11.66429,-5.21812\N,0,-0.75139,6.885,-3.012
 88\C,0,-1.2572,5.61184,-2.90685\C,0,-1.53498,8.1291,-2.87537\N,0,-3.94
 642,3.47781,-2.38166\H,0,-4.1094,2.49234,-2.34272\H,0,-4.73639,4.07439
 ,-2.23757\N,0,-2.54468,5.28607,-2.6612\C,0,-2.72382,3.97782,-2.61652\N
 ,0,-1.72024,3.05731,-2.79823\H,0,-1.94917,2.07654,-2.74688\C,0,-0.3884
 3,3.36983,-3.05214\O,0,0.43946,2.46251,-3.20081\C,0,-0.18046,4.77163,-
 3.10304\N,0,0.97802,5.50261,-3.32771\C,0,0.59183,6.74807,-3.2652\H,0,1
 .2482,7.60905,-3.39621\H,0,-1.47543,8.65773,-3.72143\H,0,-2.49035,7.90
 034,-2.69319\H,0,-1.17283,8.67107,-2.11778\H,0,-3.85284,-2.63092,-3.00
 87\H,0,-3.278,-2.73227,-1.3462\H,0,-3.83112,-1.18789,-1.99452\H,0,0.84
 876,-3.33885,-3.74379\C,0,0.17005,-2.53443,-3.46008\O,0,1.73803,-0.808
 85,-3.89705\C,0,0.62177,-1.17856,-3.53362\H,0,-0.03266,0.73001,-3.1909
 9\N,0,-0.31506,-0.23926,-3.15243\O,0,-2.3549,0.42415,-2.40668\C,0,-1.5
 9711,-0.47585,-2.72357\H,0,-1.4668,-3.81044,-2.9719\C,0,-1.07492,-2.79
 686,-3.04561\C,0,-3.31947,-2.10985,-2.22764\N,0,-1.95852,-1.80802,-2.6
 7981\H,0,-5.45692,-0.78414,-4.75886\H,0,-4.91614,0.44451,-3.83145\H,0,
 -4.55901,-1.09738,-3.43256\H,0,0.9431,1.81307,-7.47176\H,0,0.50219,0.1
 6756,-7.56122\N,0,0.3076,1.08537,-7.2134\C,0,-0.7525,1.32707,-6.43949\
 C,0,-2.72478,0.74371,-5.24303\N,0,-2.96125,1.98614,-4.7904\H,0,-2.1416
 1,3.86127,-4.90298\C,0,-2.02526,2.82741,-5.22524\N,0,-0.96272,2.58727,
 -6.00043\H,0,-3.21346,-2.42494,-5.65902\C,0,-2.83287,-1.40327,-5.67573
 \N,0,-1.75464,-1.02005,-6.31468\C,0,-1.67458,0.33919,-6.0486\C,0,-4.69
 861,-0.46198,-4.19213\N,0,-3.4696,-0.38719,-5.00572\\Version=EM64L-G16
 RevA.03\State=1-A\HF=-2048.6918385\RMSD=6.356e-09\Dipole=-3.0950654,-1
 .1839986,0.2589857\Quadrupole=-24.0200114,44.8117857,-20.7917742,26.09
 23277,-17.0385174,-9.5209491\PG=C01 [X(C23H27N17O3)]\\@


 A MAN THINKING OR WORKING IS ALWAYS ALONE, 
 LET HIM BE WHERE HE WILL.

                                    -- THOREAU
 Job cpu time:       0 days  6 hours 42 minutes 19.7 seconds.
 Elapsed time:       0 days  0 hours 13 minutes  4.4 seconds.
 File lengths (MBytes):  RWF=    298 Int=      0 D2E=      0 Chk=     33 Scr=      1
 Normal termination of Gaussian 16 at Thu Jan 18 04:16:45 2018.
