 Entering Gaussian System, Link 0=g16
 Input=str30.-10.-0.5.com
 Output=str30.-10.-0.5.log
 Initial command:
 /share/apps/g16/l1.exe "/state/partition1/scr/Gau-15547.inp" -scrdir="/state/partition1/scr/"
 Entering Link 1 = /share/apps/g16/l1.exe PID=     15548.
  
 Copyright (c) 1988,1990,1992,1993,1995,1998,2003,2009,2016,
            Gaussian, Inc.  All Rights Reserved.
  
 This is part of the Gaussian(R) 16 program.  It is based on
 the Gaussian(R) 09 system (copyright 2009, Gaussian, Inc.),
 the Gaussian(R) 03 system (copyright 2003, Gaussian, Inc.),
 the Gaussian(R) 98 system (copyright 1998, Gaussian, Inc.),
 the Gaussian(R) 94 system (copyright 1995, Gaussian, Inc.),
 the Gaussian 92(TM) system (copyright 1992, Gaussian, Inc.),
 the Gaussian 90(TM) system (copyright 1990, Gaussian, Inc.),
 the Gaussian 88(TM) system (copyright 1988, Gaussian, Inc.),
 the Gaussian 86(TM) system (copyright 1986, Carnegie Mellon
 University), and the Gaussian 82(TM) system (copyright 1983,
 Carnegie Mellon University). Gaussian is a federally registered
 trademark of Gaussian, Inc.
  
 This software contains proprietary and confidential information,
 including trade secrets, belonging to Gaussian, Inc.
  
 This software is provided under written license and may be
 used, copied, transmitted, or stored only in accord with that
 written license.
  
 The following legend is applicable only to US Government
 contracts under FAR:
  
                    RESTRICTED RIGHTS LEGEND
  
 Use, reproduction and disclosure by the US Government is
 subject to restrictions as set forth in subparagraphs (a)
 and (c) of the Commercial Computer Software - Restricted
 Rights clause in FAR 52.227-19.
  
 Gaussian, Inc.
 340 Quinnipiac St., Bldg. 40, Wallingford CT 06492
  
  
 ---------------------------------------------------------------
 Warning -- This program may not be used in any manner that
 competes with the business of Gaussian, Inc. or will provide
 assistance to any competitor of Gaussian, Inc.  The licensee
 of this program is prohibited from giving any competitor of
 Gaussian, Inc. access to this program.  By using this program,
 the user acknowledges that Gaussian, Inc. is engaged in the
 business of creating and licensing software in the field of
 computational chemistry and represents and warrants to the
 licensee that it is not a competitor of Gaussian, Inc. and that
 it will not use this program in any manner prohibited above.
 ---------------------------------------------------------------
  

 Cite this work as:
 Gaussian 16, Revision A.03,
 M. J. Frisch, G. W. Trucks, H. B. Schlegel, G. E. Scuseria, 
 M. A. Robb, J. R. Cheeseman, G. Scalmani, V. Barone, 
 G. A. Petersson, H. Nakatsuji, X. Li, M. Caricato, A. V. Marenich, 
 J. Bloino, B. G. Janesko, R. Gomperts, B. Mennucci, H. P. Hratchian, 
 J. V. Ortiz, A. F. Izmaylov, J. L. Sonnenberg, D. Williams-Young, 
 F. Ding, F. Lipparini, F. Egidi, J. Goings, B. Peng, A. Petrone, 
 T. Henderson, D. Ranasinghe, V. G. Zakrzewski, J. Gao, N. Rega, 
 G. Zheng, W. Liang, M. Hada, M. Ehara, K. Toyota, R. Fukuda, 
 J. Hasegawa, M. Ishida, T. Nakajima, Y. Honda, O. Kitao, H. Nakai, 
 T. Vreven, K. Throssell, J. A. Montgomery, Jr., J. E. Peralta, 
 F. Ogliaro, M. J. Bearpark, J. J. Heyd, E. N. Brothers, K. N. Kudin, 
 V. N. Staroverov, T. A. Keith, R. Kobayashi, J. Normand, 
 K. Raghavachari, A. P. Rendell, J. C. Burant, S. S. Iyengar, 
 J. Tomasi, M. Cossi, J. M. Millam, M. Klene, C. Adamo, R. Cammi, 
 J. W. Ochterski, R. L. Martin, K. Morokuma, O. Farkas, 
 J. B. Foresman, and D. J. Fox, Gaussian, Inc., Wallingford CT, 2016.
 
 ******************************************
 Gaussian 16:  EM64L-G16RevA.03 25-Dec-2016
                21-Jan-2018 
 ******************************************
 %nprocshared=32
 Will use up to   32 processors via shared memory.
 %mem=32GB
 %chk=allatoms_t.chk
 ---------------------------------------
 #p wb97xd/cc-pvdz sp scf=(maxcycles=20)
 ---------------------------------------
 1/38=1,172=1/1;
 2/12=2,17=6,18=5,40=1/2;
 3/5=16,11=2,25=1,30=1,74=-58/1,2,3;
 4//1;
 5/5=2,7=20,38=5/2;
 6/7=2,8=2,9=2,10=2,28=1/1;
 99/5=1,9=1/99;
 Leave Link    1 at Sun Jan 21 05:27:00 2018, MaxMem=  4294967296 cpu:               2.7 elap:               0.1
 (Enter /share/apps/g16/l101.exe)
 ------------------
 Base pair stacking
 ------------------
 Symbolic Z-matrix:
 Charge =  0 Multiplicity = 1
 N                     3.63645   5.16115  -6.95792 
 C                     4.10891   6.55926  -6.96562 
 C                     2.37969   3.36307  -6.80044 
 N                     3.65411   2.91888  -7.12183 
 C                     4.36025   4.01994  -7.20384 
 H                     5.42344   4.05827  -7.4428 
 N                     0.08152   3.42462  -6.2736 
 C                     0.21011   4.75381  -6.20805 
 H                    -0.701     5.29756  -5.96215 
 N                     1.29013   5.50861  -6.39974 
 C                     2.35329   4.7429   -6.69604 
 C                     1.16963   2.68237  -6.57389 
 N                     1.04327   1.3554   -6.6398 
 H                     1.82211   0.76663  -6.85884 
 H                     0.16627   0.90478  -6.47256 
 H                     4.46995   6.78555  -7.8704 
 H                     3.34801   7.17021  -6.74907 
 H                     4.83043   6.67324  -6.28268 
 N                     1.03589   5.27445  -3.24778 
 C                     0.12051   4.25526  -3.14108 
 C                     0.71477   6.71572  -3.22939 
 N                    -3.16548   3.18869  -2.78548 
 H                    -3.65661   2.32015  -2.72483 
 H                    -3.71351   4.02417  -2.7369 
 N                    -1.21534   4.39807  -3.00262 
 C                    -1.83193   3.23209  -2.92567 
 N                    -1.19117   2.01801  -2.97996 
 H                    -1.74343   1.17687  -2.91319 
 C                     0.18234   1.8473   -3.12207 
 O                     0.66045   0.70682  -3.1601 
 C                     0.85824   3.09108  -3.20606 
 N                     2.20958   3.3737   -3.35064 
 C                     2.26696   4.67775  -3.37046 
 H                     3.18498   5.25743  -3.47278 
 H                     1.01286   7.13627  -4.08558 
 H                    -0.27208   6.83387  -3.12724 
 H                     1.18293   7.15345  -2.46256 
 H                    -5.11117  -2.62364  -3.1724 
 H                    -4.72929  -2.80178  -1.46153 
 H                    -4.67426  -1.20794  -2.21518 
 H                    -0.89084  -4.91723  -3.44589 
 C                    -1.2741   -3.9146   -3.25595 
 O                     0.81532  -2.84918  -3.61139 
 C                    -0.38367  -2.79738  -3.33837 
 H                    -0.37262  -0.76163  -3.12887 
 N                    -0.97015  -1.57484  -3.08017 
 O                    -2.71134  -0.21672  -2.55011 
 C                    -2.28405  -1.33792  -2.76223 
 H                    -3.2788   -4.5311   -2.87268 
 C                    -2.56098  -3.71538  -2.94797 
 C                    -4.49135  -2.26151  -2.36571 
 N                    -3.07956  -2.46519  -2.70204 
 H                    -7.15267   0.45864  -5.02791 
 H                    -6.01446   1.28827  -4.20432 
 H                    -6.72511  -0.01508  -3.52584 
 H                    -0.39814  -2.02026  -6.84363 
 H                    -1.76677  -3.03617  -6.77386 
 N                    -1.36254  -2.13642  -6.60576 
 C                    -2.0786   -1.13657  -6.08736 
 C                    -4.04436  -0.12349  -5.20919 
 N                    -3.47519   1.07413  -4.99429 
 H                    -1.65695   1.99193  -5.22287 
 C                    -2.19614   1.05618  -5.3639 
 N                    -1.47713   0.05577  -5.88331 
 H                    -6.38606  -2.35225  -5.24419 
 C                    -5.44919  -1.80228  -5.33772 
 N                    -4.3351   -2.3034   -5.81243 
 C                    -3.43622  -1.24936  -5.73653 
 C                    -6.39304   0.38045  -4.38227 
 N                    -5.34517  -0.48761  -4.95361 
 
 ITRead=  0  0  0  0  0  0  0  0  0  0  0  0  0  0  0  0  0  0  0  0
 ITRead=  0  0  0  0  0  0  0  0  0  0  0  0  0  0  0  0  0  0  0  0
 ITRead=  0  0  0  0  0  0  0  0  0  0  0  0  0  0  0  0  0  0  0  0
 ITRead=  0  0  0  0  0  0  0  0  0  0
 MicOpt= -1 -1 -1 -1 -1 -1 -1 -1 -1 -1 -1 -1 -1 -1 -1 -1 -1 -1 -1 -1
 MicOpt= -1 -1 -1 -1 -1 -1 -1 -1 -1 -1 -1 -1 -1 -1 -1 -1 -1 -1 -1 -1
 MicOpt= -1 -1 -1 -1 -1 -1 -1 -1 -1 -1 -1 -1 -1 -1 -1 -1 -1 -1 -1 -1
 MicOpt= -1 -1 -1 -1 -1 -1 -1 -1 -1 -1
 NAtoms=     70 NQM=       70 NQMF=       0 NMMI=      0 NMMIF=      0
                NMic=       0 NMicF=      0.
                    Isotopes and Nuclear Properties:
 (Nuclear quadrupole moments (NQMom) in fm**2, nuclear magnetic moments (NMagM)
  in nuclear magnetons)

  Atom         1           2           3           4           5           6           7           8           9          10
 IAtWgt=          14          12          12          14          12           1          14          12           1          14
 AtmWgt=  14.0030740  12.0000000  12.0000000  14.0030740  12.0000000   1.0078250  14.0030740  12.0000000   1.0078250  14.0030740
 NucSpn=           2           0           0           2           0           1           2           0           1           2
 AtZEff=  -0.0000000  -0.0000000  -0.0000000  -0.0000000  -0.0000000  -0.0000000  -0.0000000  -0.0000000  -0.0000000  -0.0000000
 NQMom=    2.0440000   0.0000000   0.0000000   2.0440000   0.0000000   0.0000000   2.0440000   0.0000000   0.0000000   2.0440000
 NMagM=    0.4037610   0.0000000   0.0000000   0.4037610   0.0000000   2.7928460   0.4037610   0.0000000   2.7928460   0.4037610
 AtZNuc=   7.0000000   6.0000000   6.0000000   7.0000000   6.0000000   1.0000000   7.0000000   6.0000000   1.0000000   7.0000000

  Atom        11          12          13          14          15          16          17          18          19          20
 IAtWgt=          12          12          14           1           1           1           1           1          14          12
 AtmWgt=  12.0000000  12.0000000  14.0030740   1.0078250   1.0078250   1.0078250   1.0078250   1.0078250  14.0030740  12.0000000
 NucSpn=           0           0           2           1           1           1           1           1           2           0
 AtZEff=  -0.0000000  -0.0000000  -0.0000000  -0.0000000  -0.0000000  -0.0000000  -0.0000000  -0.0000000  -0.0000000  -0.0000000
 NQMom=    0.0000000   0.0000000   2.0440000   0.0000000   0.0000000   0.0000000   0.0000000   0.0000000   2.0440000   0.0000000
 NMagM=    0.0000000   0.0000000   0.4037610   2.7928460   2.7928460   2.7928460   2.7928460   2.7928460   0.4037610   0.0000000
 AtZNuc=   6.0000000   6.0000000   7.0000000   1.0000000   1.0000000   1.0000000   1.0000000   1.0000000   7.0000000   6.0000000

  Atom        21          22          23          24          25          26          27          28          29          30
 IAtWgt=          12          14           1           1          14          12          14           1          12          16
 AtmWgt=  12.0000000  14.0030740   1.0078250   1.0078250  14.0030740  12.0000000  14.0030740   1.0078250  12.0000000  15.9949146
 NucSpn=           0           2           1           1           2           0           2           1           0           0
 AtZEff=  -0.0000000  -0.0000000  -0.0000000  -0.0000000  -0.0000000  -0.0000000  -0.0000000  -0.0000000  -0.0000000  -0.0000000
 NQMom=    0.0000000   2.0440000   0.0000000   0.0000000   2.0440000   0.0000000   2.0440000   0.0000000   0.0000000   0.0000000
 NMagM=    0.0000000   0.4037610   2.7928460   2.7928460   0.4037610   0.0000000   0.4037610   2.7928460   0.0000000   0.0000000
 AtZNuc=   6.0000000   7.0000000   1.0000000   1.0000000   7.0000000   6.0000000   7.0000000   1.0000000   6.0000000   8.0000000

  Atom        31          32          33          34          35          36          37          38          39          40
 IAtWgt=          12          14          12           1           1           1           1           1           1           1
 AtmWgt=  12.0000000  14.0030740  12.0000000   1.0078250   1.0078250   1.0078250   1.0078250   1.0078250   1.0078250   1.0078250
 NucSpn=           0           2           0           1           1           1           1           1           1           1
 AtZEff=  -0.0000000  -0.0000000  -0.0000000  -0.0000000  -0.0000000  -0.0000000  -0.0000000  -0.0000000  -0.0000000  -0.0000000
 NQMom=    0.0000000   2.0440000   0.0000000   0.0000000   0.0000000   0.0000000   0.0000000   0.0000000   0.0000000   0.0000000
 NMagM=    0.0000000   0.4037610   0.0000000   2.7928460   2.7928460   2.7928460   2.7928460   2.7928460   2.7928460   2.7928460
 AtZNuc=   6.0000000   7.0000000   6.0000000   1.0000000   1.0000000   1.0000000   1.0000000   1.0000000   1.0000000   1.0000000

  Atom        41          42          43          44          45          46          47          48          49          50
 IAtWgt=           1          12          16          12           1          14          16          12           1          12
 AtmWgt=   1.0078250  12.0000000  15.9949146  12.0000000   1.0078250  14.0030740  15.9949146  12.0000000   1.0078250  12.0000000
 NucSpn=           1           0           0           0           1           2           0           0           1           0
 AtZEff=  -0.0000000  -0.0000000  -0.0000000  -0.0000000  -0.0000000  -0.0000000  -0.0000000  -0.0000000  -0.0000000  -0.0000000
 NQMom=    0.0000000   0.0000000   0.0000000   0.0000000   0.0000000   2.0440000   0.0000000   0.0000000   0.0000000   0.0000000
 NMagM=    2.7928460   0.0000000   0.0000000   0.0000000   2.7928460   0.4037610   0.0000000   0.0000000   2.7928460   0.0000000
 AtZNuc=   1.0000000   6.0000000   8.0000000   6.0000000   1.0000000   7.0000000   8.0000000   6.0000000   1.0000000   6.0000000

  Atom        51          52          53          54          55          56          57          58          59          60
 IAtWgt=          12          14           1           1           1           1           1          14          12          12
 AtmWgt=  12.0000000  14.0030740   1.0078250   1.0078250   1.0078250   1.0078250   1.0078250  14.0030740  12.0000000  12.0000000
 NucSpn=           0           2           1           1           1           1           1           2           0           0
 AtZEff=  -0.0000000  -0.0000000  -0.0000000  -0.0000000  -0.0000000  -0.0000000  -0.0000000  -0.0000000  -0.0000000  -0.0000000
 NQMom=    0.0000000   2.0440000   0.0000000   0.0000000   0.0000000   0.0000000   0.0000000   2.0440000   0.0000000   0.0000000
 NMagM=    0.0000000   0.4037610   2.7928460   2.7928460   2.7928460   2.7928460   2.7928460   0.4037610   0.0000000   0.0000000
 AtZNuc=   6.0000000   7.0000000   1.0000000   1.0000000   1.0000000   1.0000000   1.0000000   7.0000000   6.0000000   6.0000000

  Atom        61          62          63          64          65          66          67          68          69          70
 IAtWgt=          14           1          12          14           1          12          14          12          12          14
 AtmWgt=  14.0030740   1.0078250  12.0000000  14.0030740   1.0078250  12.0000000  14.0030740  12.0000000  12.0000000  14.0030740
 NucSpn=           2           1           0           2           1           0           2           0           0           2
 AtZEff=  -0.0000000  -0.0000000  -0.0000000  -0.0000000  -0.0000000  -0.0000000  -0.0000000  -0.0000000  -0.0000000  -0.0000000
 NQMom=    2.0440000   0.0000000   0.0000000   2.0440000   0.0000000   0.0000000   2.0440000   0.0000000   0.0000000   2.0440000
 NMagM=    0.4037610   2.7928460   0.0000000   0.4037610   2.7928460   0.0000000   0.4037610   0.0000000   0.0000000   0.4037610
 AtZNuc=   7.0000000   1.0000000   6.0000000   7.0000000   1.0000000   6.0000000   7.0000000   6.0000000   6.0000000   7.0000000
 Leave Link  101 at Sun Jan 21 05:27:01 2018, MaxMem=  4294967296 cpu:               5.7 elap:               0.2
 (Enter /share/apps/g16/l202.exe)
 Stoichiometry    C23H27N17O3
 Framework group  C1[X(C23H27N17O3)]
 Deg. of freedom   204
 Full point group                 C1      NOp   1
 Largest Abelian subgroup         C1      NOp   1
 Largest concise Abelian subgroup C1      NOp   1
                         Standard orientation:                         
 ---------------------------------------------------------------------
 Center     Atomic      Atomic             Coordinates (Angstroms)
 Number     Number       Type             X           Y           Z
 ---------------------------------------------------------------------
      1          7           0        6.070342   -1.333195   -0.844046
      2          6           0        7.417353   -0.730403   -0.857913
      3          6           0        3.894492   -1.631230   -0.963165
      4          7           0        4.439758   -2.869949   -0.658199
      5          6           0        5.728805   -2.640808   -0.598640
      6          1           0        6.483246   -3.396340   -0.377429
      7          7           0        2.369493    0.100048   -1.453048
      8          6           0        3.431087    0.908790   -1.533877
      9          1           0        3.206966    1.948087   -1.770274
     10          7           0        4.721899    0.627777   -1.367304
     11          6           0        4.887296   -0.674136   -1.080805
     12          6           0        2.569120   -1.204260   -1.163181
     13          7           0        1.510678   -2.013137   -1.082072
     14          1           0        1.611451   -2.985792   -0.869925
     15          1           0        0.581402   -1.674654   -1.230505
     16          1           0        7.978022   -1.179896   -1.553464
     17          1           0        7.345084    0.244139   -1.068071
     18          1           0        7.845557   -0.845497    0.038404
     19          7           0        3.826937    1.908513    1.391876
     20          6           0        2.459991    1.877261    1.255732
     21          6           0        4.691213    3.060624    1.065715
     22          7           0       -0.510593    3.441065    0.365843
     23          1           0       -1.484339    3.216283    0.342586
     24          1           0       -0.248985    4.357093    0.060592
     25          7           0        1.682966    2.885683    0.804757
     26          6           0        0.404019    2.554621    0.787260
     27          7           0       -0.079080    1.330205    1.180877
     28          1           0       -1.072797    1.165062    1.133758
     29          6           0        0.702015    0.277918    1.648262
     30          8           0        0.166301   -0.787370    1.978266
     31          6           0        2.078319    0.618611    1.672757
     32          7           0        3.183409   -0.125356    2.062867
     33          6           0        4.195565    0.678467    1.879458
     34          1           0        5.235919    0.423731    2.084476
     35          1           0        5.347576    2.797648    0.359449
     36          1           0        4.126642    3.813767    0.730600
     37          1           0        5.182930    3.353084    1.885161
     38          1           0       -6.024592    0.754480    0.054923
     39          1           0       -6.214114    1.081863    1.775837
     40          1           0       -4.857845    1.780241    0.890317
     41          1           0       -4.971659   -3.564504    1.894554
     42          6           0       -4.504523   -2.588792    1.760379
     43          8           0       -2.304241   -3.383209    2.153823
     44          6           0       -3.084860   -2.467902    1.893730
     45          1           0       -1.597767   -1.065676    1.790746
     46          7           0       -2.596587   -1.190785    1.704547
     47          8           0       -2.797823    1.027203    1.260442
     48          6           0       -3.321084   -0.062949    1.410201
     49          1           0       -6.320717   -1.545512    1.361889
     50          6           0       -5.237979   -1.506894    1.473782
     51          6           0       -5.498734    0.916187    0.984110
     52          7           0       -4.683272   -0.260421    1.297751
     53          1           0       -4.712558    3.327060   -2.906747
     54          1           0       -3.507978    3.466226   -1.815083
     55          1           0       -5.056071    3.348569   -1.311451
     56          1           0       -1.895646   -3.364622   -1.373170
     57          1           0       -3.545070   -3.116917   -1.731123
     58          7           0       -2.644368   -2.723762   -1.543040
     59          6           0       -2.451343   -1.403387   -1.519990
     60          6           0       -3.115616    0.874768   -1.694572
     61          7           0       -1.895156    1.374490   -1.439254
     62          1           0       -0.001671    0.709613   -1.023017
     63          6           0       -1.020765    0.390786   -1.237588
     64          7           0       -1.212132   -0.932259   -1.260240
     65          1           0       -6.276025    0.917132   -2.374406
     66          6           0       -5.247243    0.634469   -2.149352
     67          7           0       -4.820402   -0.599872   -2.040370
     68          6           0       -3.470363   -0.461774   -1.752149
     69          6           0       -4.396459    3.047344   -2.000191
     70          7           0       -4.268561    1.577879   -1.952180
 ---------------------------------------------------------------------
 Rotational constants (GHZ):           0.1594785           0.0542801           0.0509388
 Leave Link  202 at Sun Jan 21 05:27:01 2018, MaxMem=  4294967296 cpu:               0.3 elap:               0.0
 (Enter /share/apps/g16/l301.exe)
 Standard basis: CC-pVDZ (5D, 7F)
 Ernie: Thresh=  0.10000D-02 Tol=  0.10000D-05 Strict=F.
 Ernie:  86 primitive shells out of 1081 were deleted.
 There are   780 symmetry adapted cartesian basis functions of A   symmetry.
 There are   737 symmetry adapted basis functions of A   symmetry.
   737 basis functions,  1608 primitive gaussians,   780 cartesian basis functions
   154 alpha electrons      154 beta electrons
       nuclear repulsion energy      5586.4455256016 Hartrees.
 IExCor= 4639 DFT=T Ex+Corr=wB97XD ExCW=0 ScaHFX=  1.000000
 ScaDFX=  1.000000  1.000000  1.000000  1.000000 ScalE2=  1.000000  1.000000
 IRadAn=      5 IRanWt=     -1 IRanGd=            0 ICorTp=0 IEmpDi=121
 HFx  wShort=  0.000000 wLong=  0.200000 cFull=  0.222036 cShort=  0.000000 cLong=  0.777964
 DFx  wShort=  0.000000 wLong=  0.200000 cFull=  0.000000 cShort=  0.000000 cLong=  1.000000
 NAtoms=   70 NActive=   70 NUniq=   70 SFac= 1.00D+00 NAtFMM=   60 NAOKFM=T Big=T
 Integral buffers will be    131072 words long.
 Raffenetti 2 integral format.
 Two-electron integral symmetry is turned on.
 R6Disp:  Grimme-D2 Dispersion energy=       -0.0772841127 Hartrees.
 Nuclear repulsion after empirical dispersion term =     5586.3682414889 Hartrees.
 Leave Link  301 at Sun Jan 21 05:27:01 2018, MaxMem=  4294967296 cpu:               2.4 elap:               0.1
 (Enter /share/apps/g16/l302.exe)
 NPDir=0 NMtPBC=     1 NCelOv=     1 NCel=       1 NClECP=     1 NCelD=      1
         NCelK=      1 NCelE2=     1 NClLst=     1 CellRange=     0.0.
 One-electron integrals computed using PRISM.
 One-electron integral symmetry used in STVInt
 NBasis=   737 RedAO= T EigKep=  6.86D-04  NBF=   737
 NBsUse=   737 1.00D-06 EigRej= -1.00D+00 NBFU=   737
 Precomputing XC quadrature grid using
 IXCGrd= 4 IRadAn=           5 IRanWt=          -1 IRanGd=           0 AccXCQ= 0.00D+00.
 Generated NRdTot=       0 NPtTot=           0 NUsed=           0 NTot=          32
 NSgBfM=   769   769   769   769   769 MxSgAt=    70 MxSgA2=    70.
 Leave Link  302 at Sun Jan 21 05:27:05 2018, MaxMem=  4294967296 cpu:             136.9 elap:               4.3
 (Enter /share/apps/g16/l303.exe)
 DipDrv:  MaxL=1.
 Leave Link  303 at Sun Jan 21 05:27:06 2018, MaxMem=  4294967296 cpu:              12.4 elap:               0.4
 (Enter /share/apps/g16/l401.exe)
 ExpMin= 1.22D-01 ExpMax= 1.17D+04 ExpMxC= 4.01D+02 IAcc=3 IRadAn=         5 AccDes= 0.00D+00
 Harris functional with IExCor= 4639 and IRadAn=       5 diagonalized for initial guess.
 HarFok:  IExCor= 4639 AccDes= 0.00D+00 IRadAn=         5 IDoV= 1 UseB2=F ITyADJ=14
 ICtDFT=  3500011 ScaDFX=  1.000000  1.000000  1.000000  1.000000
 FoFCou: FMM=F IPFlag=           0 FMFlag=      100000 FMFlg1=        2001
         NFxFlg=           0 DoJE=T BraDBF=F KetDBF=T FulRan=T
         wScrn=  0.000000 ICntrl=       500 IOpCl=  0 I1Cent=   200000004 NGrid=           0
         NMat0=    1 NMatS0=      1 NMatT0=    0 NMatD0=    1 NMtDS0=    0 NMtDT0=    0
 Petite list used in FoFCou.
 Harris En= -1963.87954188217    
 JPrj=0 DoOrth=F DoCkMO=F.
 Leave Link  401 at Sun Jan 21 05:27:19 2018, MaxMem=  4294967296 cpu:             411.1 elap:              12.9
 (Enter /share/apps/g16/l502.exe)
 Integral symmetry usage will be decided dynamically.
 Closed shell SCF:
 Using DIIS extrapolation, IDIIS=  1040.
 NGot=  4294967296 LenX=  4293717438 LenY=  4293108258
 Requested convergence on RMS density matrix=1.00D-08 within  20 cycles.
 Requested convergence on MAX density matrix=1.00D-06.
 Requested convergence on             energy=1.00D-06.
 No special actions if energy rises.
 Fock matrices will be formed incrementally for  20 cycles.
 Integral accuracy reduced to 1.0D-05 until final iterations.

 Cycle   1  Pass 0  IDiag  1:
 FoFJK:  IHMeth= 1 ICntrl=       0 DoSepK=T KAlg= 0 I1Cent=           0 FoldK=F
 IRaf=         1 NMat=       1 IRICut=       1 DoRegI=T DoRafI=F ISym2E= 0 IDoP0=0 IntGTp=1.
 FoFCou: FMM=T IPFlag=           0 FMFlag=      100000 FMFlg1=        2001
         NFxFlg=           0 DoJE=T BraDBF=F KetDBF=F FulRan=T
         wScrn=  0.000000 ICntrl=       500 IOpCl=  0 I1Cent=           0 NGrid=           0
         NMat0=    1 NMatS0=      1 NMatT0=    0 NMatD0=    1 NMtDS0=    0 NMtDT0=    0
 Symmetry not used in FoFCou.
 FMM levels:  10  Number of levels for PrismC:   9
 E= -2048.31539816236    
 DIIS: error= 2.19D-02 at cycle   1 NSaved=   1.
 NSaved= 1 IEnMin= 1 EnMin= -2048.31539816236     IErMin= 1 ErrMin= 2.19D-02
 ErrMax= 2.19D-02  0.00D+00 EMaxC= 1.00D-01 BMatC= 8.31D-01 BMatP= 8.31D-01
 IDIUse=3 WtCom= 7.81D-01 WtEn= 2.19D-01
 Coeff-Com:  0.100D+01
 Coeff-En:   0.100D+01
 Coeff:      0.100D+01
 Gap=     0.252 Goal=   None    Shift=    0.000
 GapD=    0.252 DampG=1.000 DampE=0.500 DampFc=0.5000 IDamp=-1.
 Damping current iteration by 5.00D-01
 RMSDP=1.57D-03 MaxDP=1.31D-01              OVMax= 2.07D-01

 Cycle   2  Pass 0  IDiag  1:
 RMSU=  7.83D-04    CP:  9.98D-01
 E= -2048.51152301867     Delta-E=       -0.196124856318 Rises=F Damp=T
 DIIS: error= 1.04D-02 at cycle   2 NSaved=   2.
 NSaved= 2 IEnMin= 2 EnMin= -2048.51152301867     IErMin= 2 ErrMin= 1.04D-02
 ErrMax= 1.04D-02  0.00D+00 EMaxC= 1.00D-01 BMatC= 1.45D-01 BMatP= 8.31D-01
 IDIUse=3 WtCom= 8.96D-01 WtEn= 1.04D-01
 Coeff-Com: -0.197D+00 0.120D+01
 Coeff-En:   0.000D+00 0.100D+01
 Coeff:     -0.177D+00 0.118D+01
 Gap=     0.349 Goal=   None    Shift=    0.000
 RMSDP=5.88D-04 MaxDP=3.51D-02 DE=-1.96D-01 OVMax= 1.21D-01

 Cycle   3  Pass 0  IDiag  1:
 RMSU=  5.78D-04    CP:  9.94D-01  1.12D+00
 E= -2048.68839050113     Delta-E=       -0.176867482460 Rises=F Damp=F
 DIIS: error= 7.35D-03 at cycle   3 NSaved=   3.
 NSaved= 3 IEnMin= 3 EnMin= -2048.68839050113     IErMin= 3 ErrMin= 7.35D-03
 ErrMax= 7.35D-03  0.00D+00 EMaxC= 1.00D-01 BMatC= 6.51D-02 BMatP= 1.45D-01
 IDIUse=3 WtCom= 9.26D-01 WtEn= 7.35D-02
 Coeff-Com: -0.235D+00 0.556D+00 0.679D+00
 Coeff-En:   0.000D+00 0.000D+00 0.100D+01
 Coeff:     -0.217D+00 0.515D+00 0.702D+00
 Gap=     0.278 Goal=   None    Shift=    0.000
 RMSDP=3.65D-04 MaxDP=3.40D-02 DE=-1.77D-01 OVMax= 7.02D-02

 Cycle   4  Pass 0  IDiag  1:
 RMSU=  2.05D-04    CP:  9.95D-01  1.42D+00  6.62D-01
 E= -2048.73760640680     Delta-E=       -0.049215905667 Rises=F Damp=F
 DIIS: error= 2.73D-03 at cycle   4 NSaved=   4.
 NSaved= 4 IEnMin= 4 EnMin= -2048.73760640680     IErMin= 4 ErrMin= 2.73D-03
 ErrMax= 2.73D-03  0.00D+00 EMaxC= 1.00D-01 BMatC= 9.37D-03 BMatP= 6.51D-02
 IDIUse=3 WtCom= 9.73D-01 WtEn= 2.73D-02
 Coeff-Com: -0.976D-01 0.189D+00 0.378D+00 0.530D+00
 Coeff-En:   0.000D+00 0.000D+00 0.663D-01 0.934D+00
 Coeff:     -0.950D-01 0.184D+00 0.370D+00 0.541D+00
 Gap=     0.282 Goal=   None    Shift=    0.000
 RMSDP=1.29D-04 MaxDP=1.16D-02 DE=-4.92D-02 OVMax= 1.56D-02

 Cycle   5  Pass 0  IDiag  1:
 RMSU=  6.17D-05    CP:  9.94D-01  1.39D+00  7.97D-01  6.15D-01
 E= -2048.74539269715     Delta-E=       -0.007786290346 Rises=F Damp=F
 DIIS: error= 6.15D-04 at cycle   5 NSaved=   5.
 NSaved= 5 IEnMin= 5 EnMin= -2048.74539269715     IErMin= 5 ErrMin= 6.15D-04
 ErrMax= 6.15D-04  0.00D+00 EMaxC= 1.00D-01 BMatC= 2.92D-04 BMatP= 9.37D-03
 IDIUse=3 WtCom= 9.94D-01 WtEn= 6.15D-03
 Coeff-Com: -0.253D-01 0.434D-01 0.121D+00 0.238D+00 0.622D+00
 Coeff-En:   0.000D+00 0.000D+00 0.000D+00 0.000D+00 0.100D+01
 Coeff:     -0.251D-01 0.432D-01 0.121D+00 0.237D+00 0.625D+00
 Gap=     0.282 Goal=   None    Shift=    0.000
 RMSDP=2.65D-05 MaxDP=1.79D-03 DE=-7.79D-03 OVMax= 3.32D-03

 Failed to achieve initial convergence to 1.0D-08 in  6 cycles.
 Switch to full accuracy anyway.
 Cycle   6  Pass 1  IDiag  1:
 E= -2048.74558280273     Delta-E=       -0.000190105588 Rises=F Damp=F
 DIIS: error= 2.49D-04 at cycle   1 NSaved=   1.
 NSaved= 1 IEnMin= 1 EnMin= -2048.74558280273     IErMin= 1 ErrMin= 2.49D-04
 ErrMax= 2.49D-04  0.00D+00 EMaxC= 1.00D-01 BMatC= 7.68D-05 BMatP= 7.68D-05
 IDIUse=3 WtCom= 9.98D-01 WtEn= 2.49D-03
 Coeff-Com:  0.100D+01
 Coeff-En:   0.100D+01
 Coeff:      0.100D+01
 Gap=     0.282 Goal=   None    Shift=    0.000
 RMSDP=2.65D-05 MaxDP=1.79D-03 DE=-1.90D-04 OVMax= 2.55D-03

 Cycle   7  Pass 1  IDiag  1:
 RMSU=  1.13D-04    CP:  1.00D+00
 E= -2048.74563872929     Delta-E=       -0.000055926559 Rises=F Damp=F
 DIIS: error= 2.64D-04 at cycle   2 NSaved=   2.
 NSaved= 2 IEnMin= 2 EnMin= -2048.74563872929     IErMin= 1 ErrMin= 2.49D-04
 ErrMax= 2.64D-04  0.00D+00 EMaxC= 1.00D-01 BMatC= 4.36D-05 BMatP= 7.68D-05
 IDIUse=3 WtCom= 9.97D-01 WtEn= 2.64D-03
 Coeff-Com:  0.405D+00 0.595D+00
 Coeff-En:   0.000D+00 0.100D+01
 Coeff:      0.403D+00 0.597D+00
 Gap=     0.282 Goal=   None    Shift=    0.000
 RMSDP=1.15D-05 MaxDP=1.02D-03 DE=-5.59D-05 OVMax= 1.59D-03

 Cycle   8  Pass 1  IDiag  1:
 RMSU=  1.12D-05    CP:  1.00D+00  1.02D+00
 E= -2048.74567055421     Delta-E=       -0.000031824915 Rises=F Damp=F
 DIIS: error= 1.04D-04 at cycle   3 NSaved=   3.
 NSaved= 3 IEnMin= 3 EnMin= -2048.74567055421     IErMin= 3 ErrMin= 1.04D-04
 ErrMax= 1.04D-04  0.00D+00 EMaxC= 1.00D-01 BMatC= 1.05D-05 BMatP= 4.36D-05
 IDIUse=3 WtCom= 9.99D-01 WtEn= 1.04D-03
 Coeff-Com: -0.197D-01 0.316D+00 0.704D+00
 Coeff-En:   0.000D+00 0.143D+00 0.857D+00
 Coeff:     -0.197D-01 0.316D+00 0.704D+00
 Gap=     0.282 Goal=   None    Shift=    0.000
 RMSDP=5.70D-06 MaxDP=4.48D-04 DE=-3.18D-05 OVMax= 6.14D-04

 Cycle   9  Pass 1  IDiag  1:
 RMSU=  3.91D-06    CP:  1.00D+00  1.05D+00  7.60D-01
 E= -2048.74568057905     Delta-E=       -0.000010024842 Rises=F Damp=F
 DIIS: error= 2.28D-05 at cycle   4 NSaved=   4.
 NSaved= 4 IEnMin= 4 EnMin= -2048.74568057905     IErMin= 4 ErrMin= 2.28D-05
 ErrMax= 2.28D-05  0.00D+00 EMaxC= 1.00D-01 BMatC= 5.22D-07 BMatP= 1.05D-05
 IDIUse=1 WtCom= 1.00D+00 WtEn= 0.00D+00
 Coeff-Com: -0.303D-01 0.879D-01 0.264D+00 0.678D+00
 Coeff:     -0.303D-01 0.879D-01 0.264D+00 0.678D+00
 Gap=     0.282 Goal=   None    Shift=    0.000
 RMSDP=1.46D-06 MaxDP=1.32D-04 DE=-1.00D-05 OVMax= 4.85D-04

 Cycle  10  Pass 1  IDiag  1:
 RMSU=  1.30D-06    CP:  1.00D+00  1.06D+00  7.97D-01  1.10D+00
 E= -2048.74568143903     Delta-E=       -0.000000859985 Rises=F Damp=F
 DIIS: error= 1.43D-05 at cycle   5 NSaved=   5.
 NSaved= 5 IEnMin= 5 EnMin= -2048.74568143903     IErMin= 5 ErrMin= 1.43D-05
 ErrMax= 1.43D-05  0.00D+00 EMaxC= 1.00D-01 BMatC= 1.23D-07 BMatP= 5.22D-07
 IDIUse=1 WtCom= 1.00D+00 WtEn= 0.00D+00
 Coeff-Com: -0.314D-02-0.568D-01-0.118D+00 0.208D+00 0.970D+00
 Coeff:     -0.314D-02-0.568D-01-0.118D+00 0.208D+00 0.970D+00
 Gap=     0.282 Goal=   None    Shift=    0.000
 RMSDP=1.23D-06 MaxDP=7.73D-05 DE=-8.60D-07 OVMax= 2.37D-04

 Cycle  11  Pass 1  IDiag  1:
 RMSU=  4.95D-07    CP:  1.00D+00  1.06D+00  8.10D-01  1.38D+00  1.17D+00
 E= -2048.74568170599     Delta-E=       -0.000000266958 Rises=F Damp=F
 DIIS: error= 5.76D-06 at cycle   6 NSaved=   6.
 NSaved= 6 IEnMin= 6 EnMin= -2048.74568170599     IErMin= 6 ErrMin= 5.76D-06
 ErrMax= 5.76D-06  0.00D+00 EMaxC= 1.00D-01 BMatC= 2.96D-08 BMatP= 1.23D-07
 IDIUse=1 WtCom= 1.00D+00 WtEn= 0.00D+00
 Coeff-Com:  0.464D-02-0.465D-01-0.115D+00-0.125D-02 0.520D+00 0.637D+00
 Coeff:      0.464D-02-0.465D-01-0.115D+00-0.125D-02 0.520D+00 0.637D+00
 Gap=     0.282 Goal=   None    Shift=    0.000
 RMSDP=3.80D-07 MaxDP=3.77D-05 DE=-2.67D-07 OVMax= 1.26D-04

 Cycle  12  Pass 1  IDiag  1:
 RMSU=  1.90D-07    CP:  1.00D+00  1.06D+00  8.12D-01  1.45D+00  1.30D+00
                    CP:  9.34D-01
 E= -2048.74568174889     Delta-E=       -0.000000042895 Rises=F Damp=F
 DIIS: error= 1.53D-06 at cycle   7 NSaved=   7.
 NSaved= 7 IEnMin= 7 EnMin= -2048.74568174889     IErMin= 7 ErrMin= 1.53D-06
 ErrMax= 1.53D-06  0.00D+00 EMaxC= 1.00D-01 BMatC= 8.71D-10 BMatP= 2.96D-08
 IDIUse=1 WtCom= 1.00D+00 WtEn= 0.00D+00
 Coeff-Com:  0.118D-02-0.831D-02-0.219D-01-0.847D-02 0.652D-01 0.148D+00
 Coeff-Com:  0.825D+00
 Coeff:      0.118D-02-0.831D-02-0.219D-01-0.847D-02 0.652D-01 0.148D+00
 Coeff:      0.825D+00
 Gap=     0.282 Goal=   None    Shift=    0.000
 RMSDP=8.52D-08 MaxDP=5.18D-06 DE=-4.29D-08 OVMax= 2.22D-05

 Cycle  13  Pass 1  IDiag  1:
 RMSU=  5.06D-08    CP:  1.00D+00  1.06D+00  8.12D-01  1.46D+00  1.32D+00
                    CP:  1.02D+00  1.14D+00
 E= -2048.74568175086     Delta-E=       -0.000000001975 Rises=F Damp=F
 DIIS: error= 8.51D-07 at cycle   8 NSaved=   8.
 NSaved= 8 IEnMin= 8 EnMin= -2048.74568175086     IErMin= 8 ErrMin= 8.51D-07
 ErrMax= 8.51D-07  0.00D+00 EMaxC= 1.00D-01 BMatC= 3.56D-10 BMatP= 8.71D-10
 IDIUse=1 WtCom= 1.00D+00 WtEn= 0.00D+00
 Coeff-Com: -0.697D-03 0.883D-02 0.209D-01-0.237D-02-0.112D+00-0.989D-01
 Coeff-Com:  0.424D+00 0.761D+00
 Coeff:     -0.697D-03 0.883D-02 0.209D-01-0.237D-02-0.112D+00-0.989D-01
 Coeff:      0.424D+00 0.761D+00
 Gap=     0.282 Goal=   None    Shift=    0.000
 RMSDP=4.91D-08 MaxDP=3.11D-06 DE=-1.97D-09 OVMax= 1.15D-05

 Cycle  14  Pass 1  IDiag  1:
 RMSU=  2.86D-08    CP:  1.00D+00  1.06D+00  8.12D-01  1.46D+00  1.33D+00
                    CP:  1.07D+00  1.29D+00  1.09D+00
 E= -2048.74568175138     Delta-E=       -0.000000000519 Rises=F Damp=F
 DIIS: error= 2.58D-07 at cycle   9 NSaved=   9.
 NSaved= 9 IEnMin= 9 EnMin= -2048.74568175138     IErMin= 9 ErrMin= 2.58D-07
 ErrMax= 2.58D-07  0.00D+00 EMaxC= 1.00D-01 BMatC= 3.74D-11 BMatP= 3.56D-10
 IDIUse=1 WtCom= 1.00D+00 WtEn= 0.00D+00
 Coeff-Com: -0.443D-03 0.490D-02 0.118D-01 0.192D-03-0.564D-01-0.608D-01
 Coeff-Com:  0.901D-01 0.321D+00 0.689D+00
 Coeff:     -0.443D-03 0.490D-02 0.118D-01 0.192D-03-0.564D-01-0.608D-01
 Coeff:      0.901D-01 0.321D+00 0.689D+00
 Gap=     0.282 Goal=   None    Shift=    0.000
 RMSDP=1.43D-08 MaxDP=8.81D-07 DE=-5.19D-10 OVMax= 3.45D-06

 Cycle  15  Pass 1  IDiag  1:
 RMSU=  9.67D-09    CP:  1.00D+00  1.06D+00  8.12D-01  1.46D+00  1.33D+00
                    CP:  1.07D+00  1.32D+00  1.23D+00  1.09D+00
 E= -2048.74568175134     Delta-E=        0.000000000041 Rises=F Damp=F
 DIIS: error= 9.36D-08 at cycle  10 NSaved=  10.
 NSaved=10 IEnMin= 9 EnMin= -2048.74568175138     IErMin=10 ErrMin= 9.36D-08
 ErrMax= 9.36D-08  0.00D+00 EMaxC= 1.00D-01 BMatC= 5.77D-12 BMatP= 3.74D-11
 IDIUse=1 WtCom= 1.00D+00 WtEn= 0.00D+00
 Coeff-Com: -0.565D-05-0.198D-03-0.370D-03 0.221D-03 0.411D-02-0.175D-03
 Coeff-Com: -0.532D-01-0.489D-01 0.260D+00 0.838D+00
 Coeff:     -0.565D-05-0.198D-03-0.370D-03 0.221D-03 0.411D-02-0.175D-03
 Coeff:     -0.532D-01-0.489D-01 0.260D+00 0.838D+00
 Gap=     0.282 Goal=   None    Shift=    0.000
 RMSDP=7.16D-09 MaxDP=4.07D-07 DE= 4.09D-11 OVMax= 1.50D-06

 SCF Done:  E(RwB97XD) =  -2048.74568175     A.U. after   15 cycles
            NFock= 15  Conv=0.72D-08     -V/T= 2.0054
 KE= 2.037805279678D+03 PE=-1.595347234835D+04 EE= 6.280553145427D+03
 Leave Link  502 at Sun Jan 21 05:39:04 2018, MaxMem=  4294967296 cpu:           21872.6 elap:             705.3
 (Enter /share/apps/g16/l601.exe)
 Copying SCF densities to generalized density rwf, IOpCl= 0 IROHF=0.

 **********************************************************************

            Population analysis using the SCF density.

 **********************************************************************

 Orbital symmetries:
       Occupied  (A) (A) (A) (A) (A) (A) (A) (A) (A) (A) (A) (A)
                 (A) (A) (A) (A) (A) (A) (A) (A) (A) (A) (A) (A)
                 (A) (A) (A) (A) (A) (A) (A) (A) (A) (A) (A) (A)
                 (A) (A) (A) (A) (A) (A) (A) (A) (A) (A) (A) (A)
                 (A) (A) (A) (A) (A) (A) (A) (A) (A) (A) (A) (A)
                 (A) (A) (A) (A) (A) (A) (A) (A) (A) (A) (A) (A)
                 (A) (A) (A) (A) (A) (A) (A) (A) (A) (A) (A) (A)
                 (A) (A) (A) (A) (A) (A) (A) (A) (A) (A) (A) (A)
                 (A) (A) (A) (A) (A) (A) (A) (A) (A) (A) (A) (A)
                 (A) (A) (A) (A) (A) (A) (A) (A) (A) (A) (A) (A)
                 (A) (A) (A) (A) (A) (A) (A) (A) (A) (A) (A) (A)
                 (A) (A) (A) (A) (A) (A) (A) (A) (A) (A) (A) (A)
                 (A) (A) (A) (A) (A) (A) (A) (A) (A) (A)
       Virtual   (A) (A) (A) (A) (A) (A) (A) (A) (A) (A) (A) (A)
                 (A) (A) (A) (A) (A) (A) (A) (A) (A) (A) (A) (A)
                 (A) (A) (A) (A) (A) (A) (A) (A) (A) (A) (A) (A)
                 (A) (A) (A) (A) (A) (A) (A) (A) (A) (A) (A) (A)
                 (A) (A) (A) (A) (A) (A) (A) (A) (A) (A) (A) (A)
                 (A) (A) (A) (A) (A) (A) (A) (A) (A) (A) (A) (A)
                 (A) (A) (A) (A) (A) (A) (A) (A) (A) (A) (A) (A)
                 (A) (A) (A) (A) (A) (A) (A) (A) (A) (A) (A) (A)
                 (A) (A) (A) (A) (A) (A) (A) (A) (A) (A) (A) (A)
                 (A) (A) (A) (A) (A) (A) (A) (A) (A) (A) (A) (A)
                 (A) (A) (A) (A) (A) (A) (A) (A) (A) (A) (A) (A)
                 (A) (A) (A) (A) (A) (A) (A) (A) (A) (A) (A) (A)
                 (A) (A) (A) (A) (A) (A) (A) (A) (A) (A) (A) (A)
                 (A) (A) (A) (A) (A) (A) (A) (A) (A) (A) (A) (A)
                 (A) (A) (A) (A) (A) (A) (A) (A) (A) (A) (A) (A)
                 (A) (A) (A) (A) (A) (A) (A) (A) (A) (A) (A) (A)
                 (A) (A) (A) (A) (A) (A) (A) (A) (A) (A) (A) (A)
                 (A) (A) (A) (A) (A) (A) (A) (A) (A) (A) (A) (A)
                 (A) (A) (A) (A) (A) (A) (A) (A) (A) (A) (A) (A)
                 (A) (A) (A) (A) (A) (A) (A) (A) (A) (A) (A) (A)
                 (A) (A) (A) (A) (A) (A) (A) (A) (A) (A) (A) (A)
                 (A) (A) (A) (A) (A) (A) (A) (A) (A) (A) (A) (A)
                 (A) (A) (A) (A) (A) (A) (A) (A) (A) (A) (A) (A)
                 (A) (A) (A) (A) (A) (A) (A) (A) (A) (A) (A) (A)
                 (A) (A) (A) (A) (A) (A) (A) (A) (A) (A) (A) (A)
                 (A) (A) (A) (A) (A) (A) (A) (A) (A) (A) (A) (A)
                 (A) (A) (A) (A) (A) (A) (A) (A) (A) (A) (A) (A)
                 (A) (A) (A) (A) (A) (A) (A) (A) (A) (A) (A) (A)
                 (A) (A) (A) (A) (A) (A) (A) (A) (A) (A) (A) (A)
                 (A) (A) (A) (A) (A) (A) (A) (A) (A) (A) (A) (A)
                 (A) (A) (A) (A) (A) (A) (A) (A) (A) (A) (A) (A)
                 (A) (A) (A) (A) (A) (A) (A) (A) (A) (A) (A) (A)
                 (A) (A) (A) (A) (A) (A) (A) (A) (A) (A) (A) (A)
                 (A) (A) (A) (A) (A) (A) (A) (A) (A) (A) (A) (A)
                 (A) (A) (A) (A) (A) (A) (A) (A) (A) (A) (A) (A)
                 (A) (A) (A) (A) (A) (A) (A) (A) (A) (A) (A) (A)
                 (A) (A) (A) (A) (A) (A) (A) (A) (A) (A) (A) (A)
                 (A) (A) (A) (A) (A) (A) (A) (A) (A) (A) (A) (A)
                 (A) (A) (A) (A) (A) (A) (A) (A) (A) (A) (A) (A)
                 (A) (A) (A) (A) (A) (A) (A) (A) (A) (A) (A) (A)
                 (A) (A) (A) (A) (A) (A) (A) (A) (A) (A) (A) (A)
                 (A) (A) (A) (A) (A) (A) (A) (A) (A) (A) (A) (A)
                 (A) (A) (A) (A) (A) (A) (A) (A) (A) (A) (A) (A)
                 (A) (A) (A) (A) (A) (A) (A) (A) (A) (A) (A) (A)
                 (A) (A) (A) (A) (A) (A) (A) (A) (A) (A) (A) (A)
                 (A) (A) (A) (A) (A) (A) (A) (A) (A) (A) (A) (A)
                 (A) (A) (A) (A) (A) (A) (A) (A) (A) (A) (A) (A)
                 (A) (A) (A) (A) (A) (A) (A) (A) (A) (A) (A) (A)
                 (A) (A) (A) (A) (A) (A) (A)
 The electronic state is 1-A.
 Alpha  occ. eigenvalues --  -19.25622 -19.21766 -19.20423 -14.52368 -14.52211
 Alpha  occ. eigenvalues --  -14.49193 -14.48273 -14.47838 -14.47601 -14.46562
 Alpha  occ. eigenvalues --  -14.46061 -14.45406 -14.44000 -14.43993 -14.42782
 Alpha  occ. eigenvalues --  -14.41739 -14.41721 -14.41498 -14.40663 -14.40584
 Alpha  occ. eigenvalues --  -10.45233 -10.40838 -10.39892 -10.39706 -10.37951
 Alpha  occ. eigenvalues --  -10.37935 -10.37529 -10.37043 -10.35884 -10.35454
 Alpha  occ. eigenvalues --  -10.35125 -10.34405 -10.34202 -10.33903 -10.33760
 Alpha  occ. eigenvalues --  -10.33538 -10.33025 -10.32439 -10.31504 -10.30805
 Alpha  occ. eigenvalues --  -10.30126 -10.28870 -10.27705  -1.19282  -1.15121
 Alpha  occ. eigenvalues --   -1.12951  -1.12794  -1.11738  -1.10246  -1.09150
 Alpha  occ. eigenvalues --   -1.08963  -1.08236  -1.05491  -1.04541  -1.02272
 Alpha  occ. eigenvalues --   -1.00954  -1.00905  -0.99297  -0.98273  -0.97381
 Alpha  occ. eigenvalues --   -0.96557  -0.96181  -0.93175  -0.90801  -0.87590
 Alpha  occ. eigenvalues --   -0.85990  -0.84377  -0.83686  -0.83547  -0.82761
 Alpha  occ. eigenvalues --   -0.81964  -0.78620  -0.76918  -0.74742  -0.74238
 Alpha  occ. eigenvalues --   -0.73356  -0.73303  -0.73120  -0.71514  -0.70299
 Alpha  occ. eigenvalues --   -0.67013  -0.66764  -0.66637  -0.66298  -0.64246
 Alpha  occ. eigenvalues --   -0.64143  -0.63435  -0.63180  -0.62478  -0.61375
 Alpha  occ. eigenvalues --   -0.61058  -0.60758  -0.60460  -0.59448  -0.59253
 Alpha  occ. eigenvalues --   -0.58571  -0.57931  -0.57157  -0.56967  -0.56270
 Alpha  occ. eigenvalues --   -0.55883  -0.55771  -0.55331  -0.54506  -0.54130
 Alpha  occ. eigenvalues --   -0.54069  -0.53406  -0.53277  -0.53051  -0.52564
 Alpha  occ. eigenvalues --   -0.52497  -0.52354  -0.52242  -0.51210  -0.50638
 Alpha  occ. eigenvalues --   -0.49809  -0.49737  -0.49229  -0.49160  -0.48640
 Alpha  occ. eigenvalues --   -0.48470  -0.48399  -0.48033  -0.47382  -0.47176
 Alpha  occ. eigenvalues --   -0.47120  -0.45500  -0.45153  -0.44488  -0.43551
 Alpha  occ. eigenvalues --   -0.41537  -0.40698  -0.39298  -0.37705  -0.37603
 Alpha  occ. eigenvalues --   -0.37517  -0.37023  -0.36979  -0.35909  -0.34481
 Alpha  occ. eigenvalues --   -0.34244  -0.33933  -0.33849  -0.33252  -0.32964
 Alpha  occ. eigenvalues --   -0.32435  -0.32196  -0.31827  -0.31628  -0.31266
 Alpha  occ. eigenvalues --   -0.30914  -0.29561  -0.26071  -0.24934
 Alpha virt. eigenvalues --    0.03256   0.04186   0.07191   0.07354   0.08472
 Alpha virt. eigenvalues --    0.09039   0.10003   0.10709   0.10915   0.11713
 Alpha virt. eigenvalues --    0.13132   0.13854   0.14195   0.14543   0.14916
 Alpha virt. eigenvalues --    0.15276   0.16105   0.17212   0.17926   0.18105
 Alpha virt. eigenvalues --    0.19020   0.19133   0.19456   0.20050   0.20351
 Alpha virt. eigenvalues --    0.20652   0.21096   0.21137   0.21319   0.22008
 Alpha virt. eigenvalues --    0.22586   0.22977   0.23620   0.23984   0.24306
 Alpha virt. eigenvalues --    0.24374   0.24884   0.25161   0.25341   0.25646
 Alpha virt. eigenvalues --    0.25745   0.26908   0.27794   0.28017   0.28400
 Alpha virt. eigenvalues --    0.28776   0.29036   0.29787   0.30322   0.30605
 Alpha virt. eigenvalues --    0.31128   0.31837   0.32741   0.33124   0.33477
 Alpha virt. eigenvalues --    0.33959   0.34251   0.35243   0.36303   0.36688
 Alpha virt. eigenvalues --    0.36715   0.37746   0.38138   0.38902   0.39125
 Alpha virt. eigenvalues --    0.40115   0.40324   0.40972   0.41378   0.41988
 Alpha virt. eigenvalues --    0.42142   0.42530   0.42953   0.43946   0.44372
 Alpha virt. eigenvalues --    0.44575   0.45358   0.45900   0.46365   0.47211
 Alpha virt. eigenvalues --    0.47430   0.48486   0.49152   0.49318   0.49397
 Alpha virt. eigenvalues --    0.49595   0.50184   0.50674   0.51189   0.51567
 Alpha virt. eigenvalues --    0.51770   0.52074   0.52494   0.53327   0.53666
 Alpha virt. eigenvalues --    0.53996   0.54658   0.54761   0.55251   0.55545
 Alpha virt. eigenvalues --    0.55962   0.56134   0.56836   0.57346   0.57563
 Alpha virt. eigenvalues --    0.57708   0.58467   0.58882   0.59265   0.59636
 Alpha virt. eigenvalues --    0.60193   0.60721   0.60876   0.61177   0.61962
 Alpha virt. eigenvalues --    0.62374   0.62567   0.63026   0.63527   0.63758
 Alpha virt. eigenvalues --    0.64327   0.64813   0.65141   0.65384   0.65496
 Alpha virt. eigenvalues --    0.65881   0.66203   0.66564   0.67000   0.67325
 Alpha virt. eigenvalues --    0.68220   0.68688   0.68879   0.69309   0.70108
 Alpha virt. eigenvalues --    0.70199   0.70864   0.71060   0.72028   0.72773
 Alpha virt. eigenvalues --    0.73047   0.73508   0.73711   0.73912   0.74454
 Alpha virt. eigenvalues --    0.74687   0.74930   0.75345   0.75661   0.75737
 Alpha virt. eigenvalues --    0.76027   0.76355   0.76935   0.77359   0.77693
 Alpha virt. eigenvalues --    0.78186   0.78497   0.78704   0.79013   0.79327
 Alpha virt. eigenvalues --    0.79650   0.80197   0.80299   0.80934   0.81334
 Alpha virt. eigenvalues --    0.81671   0.82241   0.82332   0.83098   0.83467
 Alpha virt. eigenvalues --    0.83987   0.84662   0.84947   0.85117   0.85528
 Alpha virt. eigenvalues --    0.86105   0.86483   0.86938   0.87006   0.87951
 Alpha virt. eigenvalues --    0.88393   0.88770   0.89114   0.90189   0.90573
 Alpha virt. eigenvalues --    0.90719   0.90946   0.91671   0.92569   0.92840
 Alpha virt. eigenvalues --    0.92963   0.93516   0.93796   0.94368   0.94551
 Alpha virt. eigenvalues --    0.95161   0.95519   0.95852   0.96372   0.96994
 Alpha virt. eigenvalues --    0.97742   0.98271   0.98610   0.99144   0.99611
 Alpha virt. eigenvalues --    0.99898   1.00542   1.01166   1.01515   1.02010
 Alpha virt. eigenvalues --    1.02151   1.02629   1.02910   1.03467   1.04011
 Alpha virt. eigenvalues --    1.04309   1.04519   1.05271   1.05885   1.06640
 Alpha virt. eigenvalues --    1.06889   1.07130   1.07462   1.07804   1.07996
 Alpha virt. eigenvalues --    1.09359   1.09801   1.10317   1.10690   1.11324
 Alpha virt. eigenvalues --    1.11665   1.12003   1.12614   1.13227   1.13763
 Alpha virt. eigenvalues --    1.14226   1.14735   1.15233   1.15817   1.16466
 Alpha virt. eigenvalues --    1.16947   1.17251   1.17454   1.18088   1.18886
 Alpha virt. eigenvalues --    1.19127   1.19224   1.19625   1.19793   1.20525
 Alpha virt. eigenvalues --    1.20818   1.20952   1.21449   1.21900   1.22320
 Alpha virt. eigenvalues --    1.22406   1.23108   1.23688   1.23859   1.24533
 Alpha virt. eigenvalues --    1.24754   1.25285   1.25839   1.26378   1.26765
 Alpha virt. eigenvalues --    1.27229   1.27711   1.28024   1.28265   1.28615
 Alpha virt. eigenvalues --    1.29151   1.30388   1.30807   1.31550   1.32641
 Alpha virt. eigenvalues --    1.32853   1.33519   1.33926   1.34388   1.35092
 Alpha virt. eigenvalues --    1.35317   1.35751   1.36897   1.37487   1.37699
 Alpha virt. eigenvalues --    1.38516   1.38853   1.39574   1.40515   1.41231
 Alpha virt. eigenvalues --    1.41638   1.42620   1.43393   1.44652   1.45078
 Alpha virt. eigenvalues --    1.45662   1.46772   1.48055   1.49191   1.49663
 Alpha virt. eigenvalues --    1.49721   1.50879   1.51327   1.51409   1.52179
 Alpha virt. eigenvalues --    1.52540   1.53414   1.54094   1.54828   1.55427
 Alpha virt. eigenvalues --    1.55588   1.56636   1.57189   1.57278   1.58156
 Alpha virt. eigenvalues --    1.58215   1.58940   1.60600   1.61282   1.61823
 Alpha virt. eigenvalues --    1.62480   1.63149   1.63398   1.63926   1.64357
 Alpha virt. eigenvalues --    1.65051   1.65912   1.66120   1.66658   1.66917
 Alpha virt. eigenvalues --    1.67607   1.68128   1.68738   1.69438   1.69871
 Alpha virt. eigenvalues --    1.70479   1.71228   1.71337   1.71648   1.72348
 Alpha virt. eigenvalues --    1.72772   1.73067   1.73337   1.73707   1.73859
 Alpha virt. eigenvalues --    1.74554   1.74708   1.75288   1.75633   1.76111
 Alpha virt. eigenvalues --    1.76138   1.76490   1.77117   1.77316   1.77739
 Alpha virt. eigenvalues --    1.78160   1.78699   1.78920   1.79456   1.79626
 Alpha virt. eigenvalues --    1.79991   1.80314   1.80569   1.80693   1.81023
 Alpha virt. eigenvalues --    1.81224   1.82247   1.82519   1.82822   1.83643
 Alpha virt. eigenvalues --    1.84119   1.84203   1.84505   1.85015   1.85396
 Alpha virt. eigenvalues --    1.85699   1.86461   1.87462   1.87891   1.87999
 Alpha virt. eigenvalues --    1.88266   1.89324   1.89368   1.89703   1.90173
 Alpha virt. eigenvalues --    1.91191   1.91564   1.91593   1.92304   1.92487
 Alpha virt. eigenvalues --    1.93059   1.93279   1.93539   1.94065   1.94914
 Alpha virt. eigenvalues --    1.95273   1.96796   1.97692   1.98608   1.98851
 Alpha virt. eigenvalues --    1.99789   2.00155   2.00817   2.01291   2.02056
 Alpha virt. eigenvalues --    2.02371   2.03076   2.03535   2.04002   2.04694
 Alpha virt. eigenvalues --    2.04957   2.06417   2.07213   2.07718   2.08116
 Alpha virt. eigenvalues --    2.08340   2.09431   2.10177   2.10465   2.11040
 Alpha virt. eigenvalues --    2.11934   2.12097   2.12442   2.13797   2.14361
 Alpha virt. eigenvalues --    2.14570   2.15412   2.17186   2.18052   2.18452
 Alpha virt. eigenvalues --    2.18835   2.19311   2.20111   2.20657   2.21281
 Alpha virt. eigenvalues --    2.22305   2.22808   2.23086   2.24138   2.24574
 Alpha virt. eigenvalues --    2.24864   2.25763   2.26500   2.26826   2.27113
 Alpha virt. eigenvalues --    2.28051   2.28498   2.29483   2.29941   2.30161
 Alpha virt. eigenvalues --    2.30751   2.31413   2.31752   2.32166   2.33111
 Alpha virt. eigenvalues --    2.33624   2.34147   2.34322   2.34813   2.35213
 Alpha virt. eigenvalues --    2.35674   2.35872   2.36596   2.37431   2.38425
 Alpha virt. eigenvalues --    2.38616   2.38937   2.39473   2.41036   2.41380
 Alpha virt. eigenvalues --    2.41900   2.42472   2.43212   2.43578   2.43815
 Alpha virt. eigenvalues --    2.44922   2.45305   2.45548   2.46319   2.46881
 Alpha virt. eigenvalues --    2.48060   2.48844   2.49999   2.50719   2.52458
 Alpha virt. eigenvalues --    2.53078   2.54302   2.55759   2.56221   2.56748
 Alpha virt. eigenvalues --    2.57905   2.58407   2.58468   2.60167   2.60425
 Alpha virt. eigenvalues --    2.62266   2.62935   2.63192   2.63373   2.64089
 Alpha virt. eigenvalues --    2.64707   2.65511   2.65642   2.66149   2.66661
 Alpha virt. eigenvalues --    2.67194   2.68421   2.68546   2.69293   2.70564
 Alpha virt. eigenvalues --    2.70979   2.71480   2.72051   2.72269   2.72832
 Alpha virt. eigenvalues --    2.73415   2.74512   2.75581   2.76014   2.77190
 Alpha virt. eigenvalues --    2.77306   2.78910   2.79563   2.79748   2.80283
 Alpha virt. eigenvalues --    2.80541   2.80888   2.81009   2.81567   2.81866
 Alpha virt. eigenvalues --    2.82649   2.82965   2.83522   2.84540   2.85439
 Alpha virt. eigenvalues --    2.85742   2.86152   2.86630   2.87132   2.87345
 Alpha virt. eigenvalues --    2.88644   2.88709   2.90054   2.93463   2.94114
 Alpha virt. eigenvalues --    2.95202   2.97106   2.97790   2.99154   2.99397
 Alpha virt. eigenvalues --    3.00759   3.01871   3.02802   3.05541   3.05970
 Alpha virt. eigenvalues --    3.08371   3.10107   3.10778   3.13580   3.15010
 Alpha virt. eigenvalues --    3.15405   3.16840   3.17000   3.18842   3.22611
 Alpha virt. eigenvalues --    3.22724   3.23477   3.23911   3.24095   3.28012
 Alpha virt. eigenvalues --    3.45160   3.47423   3.48456   3.49553   3.50685
 Alpha virt. eigenvalues --    3.53275   3.54707   3.56510   3.58003   3.60442
 Alpha virt. eigenvalues --    3.63799   3.70870   3.75203
          Condensed to atoms (all electrons):
 Mulliken charges:
               1
     1  N   -0.312234
     2  C    0.178794
     3  C    0.067864
     4  N   -0.257814
     5  C    0.133766
     6  H    0.027428
     7  N   -0.282822
     8  C    0.138820
     9  H    0.013414
    10  N   -0.285733
    11  C    0.230177
    12  C    0.100433
    13  N   -0.050400
    14  H    0.109661
    15  H    0.087152
    16  H    0.027711
    17  H    0.032352
    18  H    0.025427
    19  N   -0.286406
    20  C    0.228788
    21  C    0.180919
    22  N   -0.099150
    23  H    0.113200
    24  H    0.112636
    25  N   -0.298378
    26  C    0.211031
    27  N   -0.144367
    28  H    0.130054
    29  C    0.166150
    30  O   -0.323748
    31  C    0.004610
    32  N   -0.221863
    33  C    0.125327
    34  H    0.017021
    35  H    0.022630
    36  H    0.025752
    37  H    0.020696
    38  H    0.052364
    39  H    0.059922
    40  H    0.070646
    41  H    0.027325
    42  C   -0.114293
    43  O   -0.267663
    44  C    0.172541
    45  H    0.132276
    46  N   -0.123548
    47  O   -0.337404
    48  C    0.338423
    49  H    0.045910
    50  C    0.177516
    51  C    0.041733
    52  N   -0.280332
    53  H    0.035864
    54  H    0.036040
    55  H    0.022532
    56  H    0.124690
    57  H    0.118482
    58  N   -0.060483
    59  C    0.107695
    60  C    0.239379
    61  N   -0.276229
    62  H    0.046210
    63  C    0.147092
    64  N   -0.300816
    65  H    0.038488
    66  C    0.103587
    67  N   -0.251038
    68  C    0.018892
    69  C    0.181458
    70  N   -0.296163
 Sum of Mulliken charges =  -0.00000
 Mulliken charges with hydrogens summed into heavy atoms:
               1
     1  N   -0.312234
     2  C    0.264284
     3  C    0.067864
     4  N   -0.257814
     5  C    0.161194
     7  N   -0.282822
     8  C    0.152234
    10  N   -0.285733
    11  C    0.230177
    12  C    0.100433
    13  N    0.146413
    19  N   -0.286406
    20  C    0.228788
    21  C    0.249997
    22  N    0.126686
    25  N   -0.298378
    26  C    0.211031
    27  N   -0.014313
    29  C    0.166150
    30  O   -0.323748
    31  C    0.004610
    32  N   -0.221863
    33  C    0.142349
    42  C   -0.086968
    43  O   -0.267663
    44  C    0.172541
    46  N    0.008729
    47  O   -0.337404
    48  C    0.338423
    50  C    0.223427
    51  C    0.224666
    52  N   -0.280332
    58  N    0.182690
    59  C    0.107695
    60  C    0.239379
    61  N   -0.276229
    63  C    0.193302
    64  N   -0.300816
    66  C    0.142075
    67  N   -0.251038
    68  C    0.018892
    69  C    0.275894
    70  N   -0.296163
 Electronic spatial extent (au):  <R**2>=          21967.9945
 Charge=             -0.0000 electrons
 Dipole moment (field-independent basis, Debye):
    X=             -6.5066    Y=              6.2648    Z=             -3.6502  Tot=              9.7421
 Quadrupole moment (field-independent basis, Debye-Ang):
   XX=           -146.4932   YY=           -226.1281   ZZ=           -257.9541
   XY=             -9.2318   XZ=              4.6521   YZ=             10.1896
 Traceless Quadrupole moment (field-independent basis, Debye-Ang):
   XX=             63.6986   YY=            -15.9363   ZZ=            -47.7623
   XY=             -9.2318   XZ=              4.6521   YZ=             10.1896
 Octapole moment (field-independent basis, Debye-Ang**2):
  XXX=             65.2888  YYY=             86.5696  ZZZ=            -12.2753  XYY=            -66.3277
  XXY=             48.3660  XXZ=             27.0277  XZZ=            -35.4558  YZZ=             38.1309
  YYZ=            -65.7804  XYZ=             41.5689
 Hexadecapole moment (field-independent basis, Debye-Ang**3):
 XXXX=         -15481.1739 YYYY=          -4577.2538 ZZZZ=          -3496.0983 XXXY=           -568.6060
 XXXZ=            -75.3340 YYYX=            -17.6477 YYYZ=             93.2269 ZZZX=             23.1092
 ZZZY=              9.1771 XXYY=          -3747.9283 XXZZ=          -3932.9406 YYZZ=          -1426.1734
 XXYZ=            -78.0714 YYXZ=            193.0110 ZZXY=            -70.1601
 N-N= 5.586368241489D+03 E-N=-1.595347234648D+04  KE= 2.037805279678D+03
 No NMR shielding tensors so no spin-rotation constants.
 Leave Link  601 at Sun Jan 21 05:39:06 2018, MaxMem=  4294967296 cpu:              45.0 elap:               1.6
 (Enter /share/apps/g16/l9999.exe)
 1\1\GINC-COMPUTE-0-3\SP\RwB97XD\CC-pVDZ\C23H27N17O3\SATYA\21-Jan-2018\
 0\\#p wb97xd/cc-pvdz sp scf=(maxcycles=20)\\Base pair stacking\\0,1\N,
 0,3.63645,5.16115,-6.95792\C,0,4.10891,6.55926,-6.96562\C,0,2.37969,3.
 36307,-6.80044\N,0,3.65411,2.91888,-7.12183\C,0,4.36025,4.01994,-7.203
 84\H,0,5.42344,4.05827,-7.4428\N,0,0.08152,3.42462,-6.2736\C,0,0.21011
 ,4.75381,-6.20805\H,0,-0.701,5.29756,-5.96215\N,0,1.29013,5.50861,-6.3
 9974\C,0,2.35329,4.7429,-6.69604\C,0,1.16963,2.68237,-6.57389\N,0,1.04
 327,1.3554,-6.6398\H,0,1.82211,0.76663,-6.85884\H,0,0.16627,0.90478,-6
 .47256\H,0,4.46995,6.78555,-7.8704\H,0,3.34801,7.17021,-6.74907\H,0,4.
 83043,6.67324,-6.28268\N,0,1.03589,5.27445,-3.24778\C,0,0.12051,4.2552
 6,-3.14108\C,0,0.71477,6.71572,-3.22939\N,0,-3.16548,3.18869,-2.78548\
 H,0,-3.65661,2.32015,-2.72483\H,0,-3.71351,4.02417,-2.7369\N,0,-1.2153
 4,4.39807,-3.00262\C,0,-1.83193,3.23209,-2.92567\N,0,-1.19117,2.01801,
 -2.97996\H,0,-1.74343,1.17687,-2.91319\C,0,0.18234,1.8473,-3.12207\O,0
 ,0.66045,0.70682,-3.1601\C,0,0.85824,3.09108,-3.20606\N,0,2.20958,3.37
 37,-3.35064\C,0,2.26696,4.67775,-3.37046\H,0,3.18498,5.25743,-3.47278\
 H,0,1.01286,7.13627,-4.08558\H,0,-0.27208,6.83387,-3.12724\H,0,1.18293
 ,7.15345,-2.46256\H,0,-5.11117,-2.62364,-3.1724\H,0,-4.72929,-2.80178,
 -1.46153\H,0,-4.67426,-1.20794,-2.21518\H,0,-0.89084,-4.91723,-3.44589
 \C,0,-1.2741,-3.9146,-3.25595\O,0,0.81532,-2.84918,-3.61139\C,0,-0.383
 67,-2.79738,-3.33837\H,0,-0.37262,-0.76163,-3.12887\N,0,-0.97015,-1.57
 484,-3.08017\O,0,-2.71134,-0.21672,-2.55011\C,0,-2.28405,-1.33792,-2.7
 6223\H,0,-3.2788,-4.5311,-2.87268\C,0,-2.56098,-3.71538,-2.94797\C,0,-
 4.49135,-2.26151,-2.36571\N,0,-3.07956,-2.46519,-2.70204\H,0,-7.15267,
 0.45864,-5.02791\H,0,-6.01446,1.28827,-4.20432\H,0,-6.72511,-0.01508,-
 3.52584\H,0,-0.39814,-2.02026,-6.84363\H,0,-1.76677,-3.03617,-6.77386\
 N,0,-1.36254,-2.13642,-6.60576\C,0,-2.0786,-1.13657,-6.08736\C,0,-4.04
 436,-0.12349,-5.20919\N,0,-3.47519,1.07413,-4.99429\H,0,-1.65695,1.991
 93,-5.22287\C,0,-2.19614,1.05618,-5.3639\N,0,-1.47713,0.05577,-5.88331
 \H,0,-6.38606,-2.35225,-5.24419\C,0,-5.44919,-1.80228,-5.33772\N,0,-4.
 3351,-2.3034,-5.81243\C,0,-3.43622,-1.24936,-5.73653\C,0,-6.39304,0.38
 045,-4.38227\N,0,-5.34517,-0.48761,-4.95361\\Version=EM64L-G16RevA.03\
 State=1-A\HF=-2048.7456818\RMSD=7.157e-09\Dipole=-3.8284965,-0.094822,
 0.1553692\Quadrupole=12.0331272,11.6908812,-23.7240084,33.7180947,-19.
 4760557,0.408066\PG=C01 [X(C23H27N17O3)]\\@


 Standing in the middle of the road is very dangerous;
 you get knocked down by the traffic from both sides.
                                -- Margaret Thatcher
 Job cpu time:       0 days  6 hours 14 minutes 51.6 seconds.
 Elapsed time:       0 days  0 hours 12 minutes  5.1 seconds.
 File lengths (MBytes):  RWF=    298 Int=      0 D2E=      0 Chk=     33 Scr=      1
 Normal termination of Gaussian 16 at Sun Jan 21 05:39:06 2018.
