 Entering Gaussian System, Link 0=g16
 Input=str30.5.-0.5.com
 Output=str30.5.-0.5.log
 Initial command:
 /share/apps/g16/l1.exe "/state/partition1/scr/Gau-23545.inp" -scrdir="/state/partition1/scr/"
 Entering Link 1 = /share/apps/g16/l1.exe PID=     23546.
  
 Copyright (c) 1988,1990,1992,1993,1995,1998,2003,2009,2016,
            Gaussian, Inc.  All Rights Reserved.
  
 This is part of the Gaussian(R) 16 program.  It is based on
 the Gaussian(R) 09 system (copyright 2009, Gaussian, Inc.),
 the Gaussian(R) 03 system (copyright 2003, Gaussian, Inc.),
 the Gaussian(R) 98 system (copyright 1998, Gaussian, Inc.),
 the Gaussian(R) 94 system (copyright 1995, Gaussian, Inc.),
 the Gaussian 92(TM) system (copyright 1992, Gaussian, Inc.),
 the Gaussian 90(TM) system (copyright 1990, Gaussian, Inc.),
 the Gaussian 88(TM) system (copyright 1988, Gaussian, Inc.),
 the Gaussian 86(TM) system (copyright 1986, Carnegie Mellon
 University), and the Gaussian 82(TM) system (copyright 1983,
 Carnegie Mellon University). Gaussian is a federally registered
 trademark of Gaussian, Inc.
  
 This software contains proprietary and confidential information,
 including trade secrets, belonging to Gaussian, Inc.
  
 This software is provided under written license and may be
 used, copied, transmitted, or stored only in accord with that
 written license.
  
 The following legend is applicable only to US Government
 contracts under FAR:
  
                    RESTRICTED RIGHTS LEGEND
  
 Use, reproduction and disclosure by the US Government is
 subject to restrictions as set forth in subparagraphs (a)
 and (c) of the Commercial Computer Software - Restricted
 Rights clause in FAR 52.227-19.
  
 Gaussian, Inc.
 340 Quinnipiac St., Bldg. 40, Wallingford CT 06492
  
  
 ---------------------------------------------------------------
 Warning -- This program may not be used in any manner that
 competes with the business of Gaussian, Inc. or will provide
 assistance to any competitor of Gaussian, Inc.  The licensee
 of this program is prohibited from giving any competitor of
 Gaussian, Inc. access to this program.  By using this program,
 the user acknowledges that Gaussian, Inc. is engaged in the
 business of creating and licensing software in the field of
 computational chemistry and represents and warrants to the
 licensee that it is not a competitor of Gaussian, Inc. and that
 it will not use this program in any manner prohibited above.
 ---------------------------------------------------------------
  

 Cite this work as:
 Gaussian 16, Revision A.03,
 M. J. Frisch, G. W. Trucks, H. B. Schlegel, G. E. Scuseria, 
 M. A. Robb, J. R. Cheeseman, G. Scalmani, V. Barone, 
 G. A. Petersson, H. Nakatsuji, X. Li, M. Caricato, A. V. Marenich, 
 J. Bloino, B. G. Janesko, R. Gomperts, B. Mennucci, H. P. Hratchian, 
 J. V. Ortiz, A. F. Izmaylov, J. L. Sonnenberg, D. Williams-Young, 
 F. Ding, F. Lipparini, F. Egidi, J. Goings, B. Peng, A. Petrone, 
 T. Henderson, D. Ranasinghe, V. G. Zakrzewski, J. Gao, N. Rega, 
 G. Zheng, W. Liang, M. Hada, M. Ehara, K. Toyota, R. Fukuda, 
 J. Hasegawa, M. Ishida, T. Nakajima, Y. Honda, O. Kitao, H. Nakai, 
 T. Vreven, K. Throssell, J. A. Montgomery, Jr., J. E. Peralta, 
 F. Ogliaro, M. J. Bearpark, J. J. Heyd, E. N. Brothers, K. N. Kudin, 
 V. N. Staroverov, T. A. Keith, R. Kobayashi, J. Normand, 
 K. Raghavachari, A. P. Rendell, J. C. Burant, S. S. Iyengar, 
 J. Tomasi, M. Cossi, J. M. Millam, M. Klene, C. Adamo, R. Cammi, 
 J. W. Ochterski, R. L. Martin, K. Morokuma, O. Farkas, 
 J. B. Foresman, and D. J. Fox, Gaussian, Inc., Wallingford CT, 2016.
 
 ******************************************
 Gaussian 16:  EM64L-G16RevA.03 25-Dec-2016
                21-Jan-2018 
 ******************************************
 %nprocshared=32
 Will use up to   32 processors via shared memory.
 %mem=32GB
 %chk=allatoms_t.chk
 ---------------------------------------
 #p wb97xd/cc-pvdz sp scf=(maxcycles=20)
 ---------------------------------------
 1/38=1,172=1/1;
 2/12=2,17=6,18=5,40=1/2;
 3/5=16,11=2,25=1,30=1,74=-58/1,2,3;
 4//1;
 5/5=2,7=20,38=5/2;
 6/7=2,8=2,9=2,10=2,28=1/1;
 99/5=1,9=1/99;
 Leave Link    1 at Sun Jan 21 18:55:40 2018, MaxMem=  4294967296 cpu:               2.7 elap:               0.1
 (Enter /share/apps/g16/l101.exe)
 ------------------
 Base pair stacking
 ------------------
 Symbolic Z-matrix:
 Charge =  0 Multiplicity = 1
 N                     5.26219   4.71549  -6.13738 
 C                     5.75646   6.09823  -6.28482 
 C                     3.97409   2.93369  -6.07988 
 N                     5.24885   2.50205  -5.74313 
 C                     5.97387   3.59279  -5.79125 
 H                     7.04301   3.63635  -5.58155 
 N                     1.66504   2.9821   -6.55831 
 C                     1.81273   4.29495  -6.76372 
 H                     0.90451   4.82684  -7.04388 
 N                     2.90872   5.04589  -6.67543 
 C                     3.96669   4.2957   -6.32565 
 C                     2.74841   2.25521  -6.20755 
 N                     2.603     0.94456  -6.00207 
 H                     3.37765   0.36753  -5.74099 
 H                     1.71528   0.49501  -6.10204 
 H                     6.46328   6.12741  -6.99173 
 H                     5.00014   6.69726  -6.54612 
 H                     6.14244   6.41078  -5.41687 
 N                     1.46744   5.27088  -3.26317 
 C                     0.54671   4.25222  -3.31458 
 C                     1.16087   6.70726  -3.41655 
 N                    -2.73485   3.18027  -3.69416 
 H                    -3.23179   2.31293  -3.69754 
 H                    -3.27288   4.012    -3.83371 
 N                    -0.78207   4.39122  -3.51226 
 C                    -1.40665   3.22695  -3.51081 
 N                    -0.77975   2.01793  -3.32979 
 H                    -1.33731   1.17775  -3.34378 
 C                     0.58628   1.85122  -3.12474 
 O                     1.05192   0.71517  -2.97202 
 C                     1.27063   3.09321  -3.12374 
 N                     2.61872   3.37849  -2.9559 
 C                     2.68776   4.679    -3.046 
 H                     3.60711   5.25939  -2.96115 
 H                     1.65966   7.07434  -4.20094 
 H                     0.17936   6.82256  -3.56354 
 H                     1.43287   7.19801  -2.58951 
 H                    -4.5677   -2.66281  -4.16069 
 H                    -4.61145  -2.72638  -2.40038 
 H                    -4.36558  -1.18416  -3.22041 
 H                    -0.4214   -4.92981  -3.25767 
 C                    -0.83258  -3.92062  -3.23144 
 O                     1.28779  -2.86097  -3.14048 
 C                     0.05873  -2.80281  -3.16892 
 H                     0.03224  -0.75776  -3.09572 
 N                    -0.5647   -1.57165  -3.13995 
 O                    -2.37339  -0.1984   -3.1353 
 C                    -1.9149   -1.32694  -3.16467 
 H                    -2.87452  -4.52972  -3.30419 
 C                    -2.15441  -3.71391  -3.25683 
 C                    -4.15865  -2.24351  -3.25353 
 N                    -2.7088   -2.45533  -3.22515 
 H                    -5.57108  -0.02858  -7.67932 
 H                    -4.83125   1.0358   -6.68843 
 H                    -5.81138  -0.11205  -6.06726 
 H                     1.22557  -2.46359  -5.96415 
 H                    -0.09551  -3.51334  -6.21489 
 N                     0.2437   -2.57715  -6.1164 
 C                    -0.57767  -1.52748  -6.18519 
 C                    -2.68528  -0.45398  -6.4446 
 N                    -2.20178   0.79188  -6.30874 
 H                    -0.41001   1.7356   -5.99322 
 C                    -0.88494   0.7629   -6.11382 
 N                    -0.0605   -0.28738  -6.0446 
 H                    -4.90391  -2.76228  -6.89361 
 C                    -3.98723  -2.19556  -6.72789 
 N                    -2.79895  -2.7277   -6.5779 
 C                    -1.96419  -1.63438  -6.39745 
 C                    -5.1434    0.09098  -6.78333 
 N                    -3.99202  -0.82375  -6.65841 
 
 ITRead=  0  0  0  0  0  0  0  0  0  0  0  0  0  0  0  0  0  0  0  0
 ITRead=  0  0  0  0  0  0  0  0  0  0  0  0  0  0  0  0  0  0  0  0
 ITRead=  0  0  0  0  0  0  0  0  0  0  0  0  0  0  0  0  0  0  0  0
 ITRead=  0  0  0  0  0  0  0  0  0  0
 MicOpt= -1 -1 -1 -1 -1 -1 -1 -1 -1 -1 -1 -1 -1 -1 -1 -1 -1 -1 -1 -1
 MicOpt= -1 -1 -1 -1 -1 -1 -1 -1 -1 -1 -1 -1 -1 -1 -1 -1 -1 -1 -1 -1
 MicOpt= -1 -1 -1 -1 -1 -1 -1 -1 -1 -1 -1 -1 -1 -1 -1 -1 -1 -1 -1 -1
 MicOpt= -1 -1 -1 -1 -1 -1 -1 -1 -1 -1
 NAtoms=     70 NQM=       70 NQMF=       0 NMMI=      0 NMMIF=      0
                NMic=       0 NMicF=      0.
                    Isotopes and Nuclear Properties:
 (Nuclear quadrupole moments (NQMom) in fm**2, nuclear magnetic moments (NMagM)
  in nuclear magnetons)

  Atom         1           2           3           4           5           6           7           8           9          10
 IAtWgt=          14          12          12          14          12           1          14          12           1          14
 AtmWgt=  14.0030740  12.0000000  12.0000000  14.0030740  12.0000000   1.0078250  14.0030740  12.0000000   1.0078250  14.0030740
 NucSpn=           2           0           0           2           0           1           2           0           1           2
 AtZEff=  -0.0000000  -0.0000000  -0.0000000  -0.0000000  -0.0000000  -0.0000000  -0.0000000  -0.0000000  -0.0000000  -0.0000000
 NQMom=    2.0440000   0.0000000   0.0000000   2.0440000   0.0000000   0.0000000   2.0440000   0.0000000   0.0000000   2.0440000
 NMagM=    0.4037610   0.0000000   0.0000000   0.4037610   0.0000000   2.7928460   0.4037610   0.0000000   2.7928460   0.4037610
 AtZNuc=   7.0000000   6.0000000   6.0000000   7.0000000   6.0000000   1.0000000   7.0000000   6.0000000   1.0000000   7.0000000

  Atom        11          12          13          14          15          16          17          18          19          20
 IAtWgt=          12          12          14           1           1           1           1           1          14          12
 AtmWgt=  12.0000000  12.0000000  14.0030740   1.0078250   1.0078250   1.0078250   1.0078250   1.0078250  14.0030740  12.0000000
 NucSpn=           0           0           2           1           1           1           1           1           2           0
 AtZEff=  -0.0000000  -0.0000000  -0.0000000  -0.0000000  -0.0000000  -0.0000000  -0.0000000  -0.0000000  -0.0000000  -0.0000000
 NQMom=    0.0000000   0.0000000   2.0440000   0.0000000   0.0000000   0.0000000   0.0000000   0.0000000   2.0440000   0.0000000
 NMagM=    0.0000000   0.0000000   0.4037610   2.7928460   2.7928460   2.7928460   2.7928460   2.7928460   0.4037610   0.0000000
 AtZNuc=   6.0000000   6.0000000   7.0000000   1.0000000   1.0000000   1.0000000   1.0000000   1.0000000   7.0000000   6.0000000

  Atom        21          22          23          24          25          26          27          28          29          30
 IAtWgt=          12          14           1           1          14          12          14           1          12          16
 AtmWgt=  12.0000000  14.0030740   1.0078250   1.0078250  14.0030740  12.0000000  14.0030740   1.0078250  12.0000000  15.9949146
 NucSpn=           0           2           1           1           2           0           2           1           0           0
 AtZEff=  -0.0000000  -0.0000000  -0.0000000  -0.0000000  -0.0000000  -0.0000000  -0.0000000  -0.0000000  -0.0000000  -0.0000000
 NQMom=    0.0000000   2.0440000   0.0000000   0.0000000   2.0440000   0.0000000   2.0440000   0.0000000   0.0000000   0.0000000
 NMagM=    0.0000000   0.4037610   2.7928460   2.7928460   0.4037610   0.0000000   0.4037610   2.7928460   0.0000000   0.0000000
 AtZNuc=   6.0000000   7.0000000   1.0000000   1.0000000   7.0000000   6.0000000   7.0000000   1.0000000   6.0000000   8.0000000

  Atom        31          32          33          34          35          36          37          38          39          40
 IAtWgt=          12          14          12           1           1           1           1           1           1           1
 AtmWgt=  12.0000000  14.0030740  12.0000000   1.0078250   1.0078250   1.0078250   1.0078250   1.0078250   1.0078250   1.0078250
 NucSpn=           0           2           0           1           1           1           1           1           1           1
 AtZEff=  -0.0000000  -0.0000000  -0.0000000  -0.0000000  -0.0000000  -0.0000000  -0.0000000  -0.0000000  -0.0000000  -0.0000000
 NQMom=    0.0000000   2.0440000   0.0000000   0.0000000   0.0000000   0.0000000   0.0000000   0.0000000   0.0000000   0.0000000
 NMagM=    0.0000000   0.4037610   0.0000000   2.7928460   2.7928460   2.7928460   2.7928460   2.7928460   2.7928460   2.7928460
 AtZNuc=   6.0000000   7.0000000   6.0000000   1.0000000   1.0000000   1.0000000   1.0000000   1.0000000   1.0000000   1.0000000

  Atom        41          42          43          44          45          46          47          48          49          50
 IAtWgt=           1          12          16          12           1          14          16          12           1          12
 AtmWgt=   1.0078250  12.0000000  15.9949146  12.0000000   1.0078250  14.0030740  15.9949146  12.0000000   1.0078250  12.0000000
 NucSpn=           1           0           0           0           1           2           0           0           1           0
 AtZEff=  -0.0000000  -0.0000000  -0.0000000  -0.0000000  -0.0000000  -0.0000000  -0.0000000  -0.0000000  -0.0000000  -0.0000000
 NQMom=    0.0000000   0.0000000   0.0000000   0.0000000   0.0000000   2.0440000   0.0000000   0.0000000   0.0000000   0.0000000
 NMagM=    2.7928460   0.0000000   0.0000000   0.0000000   2.7928460   0.4037610   0.0000000   0.0000000   2.7928460   0.0000000
 AtZNuc=   1.0000000   6.0000000   8.0000000   6.0000000   1.0000000   7.0000000   8.0000000   6.0000000   1.0000000   6.0000000

  Atom        51          52          53          54          55          56          57          58          59          60
 IAtWgt=          12          14           1           1           1           1           1          14          12          12
 AtmWgt=  12.0000000  14.0030740   1.0078250   1.0078250   1.0078250   1.0078250   1.0078250  14.0030740  12.0000000  12.0000000
 NucSpn=           0           2           1           1           1           1           1           2           0           0
 AtZEff=  -0.0000000  -0.0000000  -0.0000000  -0.0000000  -0.0000000  -0.0000000  -0.0000000  -0.0000000  -0.0000000  -0.0000000
 NQMom=    0.0000000   2.0440000   0.0000000   0.0000000   0.0000000   0.0000000   0.0000000   2.0440000   0.0000000   0.0000000
 NMagM=    0.0000000   0.4037610   2.7928460   2.7928460   2.7928460   2.7928460   2.7928460   0.4037610   0.0000000   0.0000000
 AtZNuc=   6.0000000   7.0000000   1.0000000   1.0000000   1.0000000   1.0000000   1.0000000   7.0000000   6.0000000   6.0000000

  Atom        61          62          63          64          65          66          67          68          69          70
 IAtWgt=          14           1          12          14           1          12          14          12          12          14
 AtmWgt=  14.0030740   1.0078250  12.0000000  14.0030740   1.0078250  12.0000000  14.0030740  12.0000000  12.0000000  14.0030740
 NucSpn=           2           1           0           2           1           0           2           0           0           2
 AtZEff=  -0.0000000  -0.0000000  -0.0000000  -0.0000000  -0.0000000  -0.0000000  -0.0000000  -0.0000000  -0.0000000  -0.0000000
 NQMom=    2.0440000   0.0000000   0.0000000   2.0440000   0.0000000   0.0000000   2.0440000   0.0000000   0.0000000   2.0440000
 NMagM=    0.4037610   2.7928460   0.0000000   0.4037610   2.7928460   0.0000000   0.4037610   0.0000000   0.0000000   0.4037610
 AtZNuc=   7.0000000   1.0000000   6.0000000   7.0000000   1.0000000   6.0000000   7.0000000   6.0000000   6.0000000   7.0000000
 Leave Link  101 at Sun Jan 21 18:55:40 2018, MaxMem=  4294967296 cpu:               6.5 elap:               0.2
 (Enter /share/apps/g16/l202.exe)
 Stoichiometry    C23H27N17O3
 Framework group  C1[X(C23H27N17O3)]
 Deg. of freedom   204
 Full point group                 C1      NOp   1
 Largest Abelian subgroup         C1      NOp   1
 Largest concise Abelian subgroup C1      NOp   1
                         Standard orientation:                         
 ---------------------------------------------------------------------
 Center     Atomic      Atomic             Coordinates (Angstroms)
 Number     Number       Type             X           Y           Z
 ---------------------------------------------------------------------
      1          7           0       -6.102640   -1.471875    0.759298
      2          6           0       -7.455723   -0.916444    0.955958
      3          6           0       -3.921256   -1.752650    0.752335
      4          7           0       -4.459649   -2.880568    0.150122
      5          6           0       -5.752306   -2.666276    0.178418
      6          1           0       -6.503264   -3.352507   -0.214116
      7          7           0       -2.404581   -0.179320    1.639623
      8          6           0       -3.473057    0.562848    1.948049
      9          1           0       -3.255102    1.510141    2.439364
     10          7           0       -4.764274    0.311725    1.741658
     11          6           0       -4.921754   -0.875404    1.133088
     12          6           0       -2.596339   -1.368493    1.027915
     13          7           0       -1.531019   -2.110775    0.719236
     14          1           0       -1.625850   -2.997761    0.265947
     15          1           0       -0.602320   -1.805739    0.930440
     16          1           0       -7.993931   -1.539355    1.523833
     17          1           0       -7.389457   -0.027612    1.408420
     18          1           0       -7.904496   -0.804603    0.069336
     19          7           0       -3.777684    2.169395   -1.315649
     20          6           0       -2.408954    2.122612   -1.204096
     21          6           0       -4.623778    3.327495   -0.964043
     22          7           0        0.593332    3.647189   -0.353367
     23          1           0        1.564891    3.412036   -0.349396
     24          1           0        0.346891    4.563117   -0.035455
     25          7           0       -1.613422    3.118751   -0.758123
     26          6           0       -0.337948    2.774184   -0.766273
     27          7           0        0.125098    1.548384   -1.179194
     28          1           0        1.117686    1.372438   -1.151196
     29          6           0       -0.675275    0.508579   -1.641887
     30          8           0       -0.156817   -0.559247   -1.990745
     31          6           0       -2.048101    0.863847   -1.638929
     32          7           0       -3.167755    0.135026   -2.015885
     33          6           0       -4.167914    0.947703   -1.807437
     34          1           0       -5.214374    0.705719   -1.996173
     35          1           0       -5.270323    3.065046   -0.248567
     36          1           0       -4.045412    4.071644   -0.632382
     37          1           0       -5.126774    3.632451   -1.772010
     38          1           0        6.083128    0.900387   -0.164171
     39          1           0        6.245670    1.241261   -1.885226
     40          1           0        4.912756    1.945787   -0.969624
     41          1           0        4.952044   -3.390604   -2.022822
     42          6           0        4.497739   -2.411312   -1.871774
     43          8           0        2.282543   -3.179095   -2.233046
     44          6           0        3.077303   -2.274386   -1.978805
     45          1           0        1.607240   -0.857661   -1.837051
     46          7           0        2.606037   -0.993976   -1.769718
     47          8           0        2.838628    1.217697   -1.309716
     48          6           0        3.347557    0.123517   -1.478355
     49          1           0        6.331669   -1.390710   -1.496426
     50          6           0        5.247588   -1.339763   -1.588721
     51          6           0        5.542670    1.075944   -1.082408
     52          7           0        4.709348   -0.089193   -1.391873
     53          1           0        4.673687    2.687980    3.727446
     54          1           0        3.441104    3.082221    2.733752
     55          1           0        4.977580    3.124976    2.184679
     56          1           0        1.896667   -3.432232    0.581544
     57          1           0        3.551456   -3.256261    0.956783
     58          7           0        2.641958   -2.843684    0.895069
     59          6           0        2.433335   -1.565345    1.216805
     60          6           0        3.075575    0.602496    1.958226
     61          7           0        1.843578    1.129763    1.865653
     62          1           0       -0.051841    0.561468    1.331776
     63          6           0        0.975805    0.215952    1.435746
     64          7           0        1.182799   -1.064889    1.112976
     65          1           0        6.251061    0.523556    2.560087
     66          6           0        5.220360    0.290429    2.291306
     67          7           0        4.805121   -0.881614    1.877094
     68          6           0        3.446915   -0.697535    1.662317
     69          6           0        4.338610    2.645349    2.786219
     70          7           0        4.226392    1.235648    2.364126
 ---------------------------------------------------------------------
 Rotational constants (GHZ):           0.1511092           0.0536248           0.0506107
 Leave Link  202 at Sun Jan 21 18:55:40 2018, MaxMem=  4294967296 cpu:               0.3 elap:               0.0
 (Enter /share/apps/g16/l301.exe)
 Standard basis: CC-pVDZ (5D, 7F)
 Ernie: Thresh=  0.10000D-02 Tol=  0.10000D-05 Strict=F.
 Ernie:  86 primitive shells out of 1081 were deleted.
 There are   780 symmetry adapted cartesian basis functions of A   symmetry.
 There are   737 symmetry adapted basis functions of A   symmetry.
   737 basis functions,  1608 primitive gaussians,   780 cartesian basis functions
   154 alpha electrons      154 beta electrons
       nuclear repulsion energy      5529.3515888096 Hartrees.
 IExCor= 4639 DFT=T Ex+Corr=wB97XD ExCW=0 ScaHFX=  1.000000
 ScaDFX=  1.000000  1.000000  1.000000  1.000000 ScalE2=  1.000000  1.000000
 IRadAn=      5 IRanWt=     -1 IRanGd=            0 ICorTp=0 IEmpDi=121
 HFx  wShort=  0.000000 wLong=  0.200000 cFull=  0.222036 cShort=  0.000000 cLong=  0.777964
 DFx  wShort=  0.000000 wLong=  0.200000 cFull=  0.000000 cShort=  0.000000 cLong=  1.000000
 NAtoms=   70 NActive=   70 NUniq=   70 SFac= 1.00D+00 NAtFMM=   60 NAOKFM=T Big=T
 Integral buffers will be    131072 words long.
 Raffenetti 2 integral format.
 Two-electron integral symmetry is turned on.
 R6Disp:  Grimme-D2 Dispersion energy=       -0.0728321296 Hartrees.
 Nuclear repulsion after empirical dispersion term =     5529.2787566800 Hartrees.
 Leave Link  301 at Sun Jan 21 18:55:40 2018, MaxMem=  4294967296 cpu:               2.1 elap:               0.1
 (Enter /share/apps/g16/l302.exe)
 NPDir=0 NMtPBC=     1 NCelOv=     1 NCel=       1 NClECP=     1 NCelD=      1
         NCelK=      1 NCelE2=     1 NClLst=     1 CellRange=     0.0.
 One-electron integrals computed using PRISM.
 One-electron integral symmetry used in STVInt
 NBasis=   737 RedAO= T EigKep=  7.04D-04  NBF=   737
 NBsUse=   737 1.00D-06 EigRej= -1.00D+00 NBFU=   737
 Precomputing XC quadrature grid using
 IXCGrd= 4 IRadAn=           5 IRanWt=          -1 IRanGd=           0 AccXCQ= 0.00D+00.
 Generated NRdTot=       0 NPtTot=           0 NUsed=           0 NTot=          32
 NSgBfM=   769   768   769   769   769 MxSgAt=    70 MxSgA2=    70.
 Leave Link  302 at Sun Jan 21 18:55:44 2018, MaxMem=  4294967296 cpu:             134.9 elap:               4.2
 (Enter /share/apps/g16/l303.exe)
 DipDrv:  MaxL=1.
 Leave Link  303 at Sun Jan 21 18:55:45 2018, MaxMem=  4294967296 cpu:              12.5 elap:               0.4
 (Enter /share/apps/g16/l401.exe)
 ExpMin= 1.22D-01 ExpMax= 1.17D+04 ExpMxC= 4.01D+02 IAcc=3 IRadAn=         5 AccDes= 0.00D+00
 Harris functional with IExCor= 4639 and IRadAn=       5 diagonalized for initial guess.
 HarFok:  IExCor= 4639 AccDes= 0.00D+00 IRadAn=         5 IDoV= 1 UseB2=F ITyADJ=14
 ICtDFT=  3500011 ScaDFX=  1.000000  1.000000  1.000000  1.000000
 FoFCou: FMM=F IPFlag=           0 FMFlag=      100000 FMFlg1=        2001
         NFxFlg=           0 DoJE=T BraDBF=F KetDBF=T FulRan=T
         wScrn=  0.000000 ICntrl=       500 IOpCl=  0 I1Cent=   200000004 NGrid=           0
         NMat0=    1 NMatS0=      1 NMatT0=    0 NMatD0=    1 NMtDS0=    0 NMtDT0=    0
 Petite list used in FoFCou.
 Harris En= -1963.89134271596    
 JPrj=0 DoOrth=F DoCkMO=F.
 Leave Link  401 at Sun Jan 21 18:55:57 2018, MaxMem=  4294967296 cpu:             403.1 elap:              12.6
 (Enter /share/apps/g16/l502.exe)
 Integral symmetry usage will be decided dynamically.
 Closed shell SCF:
 Using DIIS extrapolation, IDIIS=  1040.
 NGot=  4294967296 LenX=  4293717438 LenY=  4293108258
 Requested convergence on RMS density matrix=1.00D-08 within  20 cycles.
 Requested convergence on MAX density matrix=1.00D-06.
 Requested convergence on             energy=1.00D-06.
 No special actions if energy rises.
 Fock matrices will be formed incrementally for  20 cycles.
 Integral accuracy reduced to 1.0D-05 until final iterations.

 Cycle   1  Pass 0  IDiag  1:
 FoFJK:  IHMeth= 1 ICntrl=       0 DoSepK=T KAlg= 0 I1Cent=           0 FoldK=F
 IRaf=         1 NMat=       1 IRICut=       1 DoRegI=T DoRafI=F ISym2E= 0 IDoP0=0 IntGTp=1.
 FoFCou: FMM=T IPFlag=           0 FMFlag=      100000 FMFlg1=        2001
         NFxFlg=           0 DoJE=T BraDBF=F KetDBF=F FulRan=T
         wScrn=  0.000000 ICntrl=       500 IOpCl=  0 I1Cent=           0 NGrid=           0
         NMat0=    1 NMatS0=      1 NMatT0=    0 NMatD0=    1 NMtDS0=    0 NMtDT0=    0
 Symmetry not used in FoFCou.
 FMM levels:  10  Number of levels for PrismC:   9
 E= -2048.32185517400    
 DIIS: error= 2.55D-02 at cycle   1 NSaved=   1.
 NSaved= 1 IEnMin= 1 EnMin= -2048.32185517400     IErMin= 1 ErrMin= 2.55D-02
 ErrMax= 2.55D-02  0.00D+00 EMaxC= 1.00D-01 BMatC= 8.33D-01 BMatP= 8.33D-01
 IDIUse=3 WtCom= 7.45D-01 WtEn= 2.55D-01
 Coeff-Com:  0.100D+01
 Coeff-En:   0.100D+01
 Coeff:      0.100D+01
 Gap=     0.255 Goal=   None    Shift=    0.000
 GapD=    0.255 DampG=1.000 DampE=0.500 DampFc=0.5000 IDamp=-1.
 Damping current iteration by 5.00D-01
 RMSDP=1.57D-03 MaxDP=1.29D-01              OVMax= 1.33D-01

 Cycle   2  Pass 0  IDiag  1:
 RMSU=  7.82D-04    CP:  9.98D-01
 E= -2048.51872812803     Delta-E=       -0.196872954032 Rises=F Damp=T
 DIIS: error= 1.21D-02 at cycle   2 NSaved=   2.
 NSaved= 2 IEnMin= 2 EnMin= -2048.51872812803     IErMin= 2 ErrMin= 1.21D-02
 ErrMax= 1.21D-02  0.00D+00 EMaxC= 1.00D-01 BMatC= 1.45D-01 BMatP= 8.33D-01
 IDIUse=3 WtCom= 8.79D-01 WtEn= 1.21D-01
 Coeff-Com: -0.197D+00 0.120D+01
 Coeff-En:   0.000D+00 0.100D+01
 Coeff:     -0.173D+00 0.117D+01
 Gap=     0.363 Goal=   None    Shift=    0.000
 RMSDP=5.83D-04 MaxDP=3.40D-02 DE=-1.97D-01 OVMax= 1.42D-01

 Cycle   3  Pass 0  IDiag  1:
 RMSU=  5.73D-04    CP:  9.94D-01  1.13D+00
 E= -2048.69753726724     Delta-E=       -0.178809139217 Rises=F Damp=F
 DIIS: error= 9.13D-03 at cycle   3 NSaved=   3.
 NSaved= 3 IEnMin= 3 EnMin= -2048.69753726724     IErMin= 3 ErrMin= 9.13D-03
 ErrMax= 9.13D-03  0.00D+00 EMaxC= 1.00D-01 BMatC= 6.36D-02 BMatP= 1.45D-01
 IDIUse=3 WtCom= 9.09D-01 WtEn= 9.13D-02
 Coeff-Com: -0.232D+00 0.551D+00 0.682D+00
 Coeff-En:   0.000D+00 0.000D+00 0.100D+01
 Coeff:     -0.211D+00 0.500D+00 0.711D+00
 Gap=     0.279 Goal=   None    Shift=    0.000
 RMSDP=3.65D-04 MaxDP=3.35D-02 DE=-1.79D-01 OVMax= 6.23D-02

 Cycle   4  Pass 0  IDiag  1:
 RMSU=  2.05D-04    CP:  9.95D-01  1.42D+00  6.60D-01
 E= -2048.74503293885     Delta-E=       -0.047495671606 Rises=F Damp=F
 DIIS: error= 3.43D-03 at cycle   4 NSaved=   4.
 NSaved= 4 IEnMin= 4 EnMin= -2048.74503293885     IErMin= 4 ErrMin= 3.43D-03
 ErrMax= 3.43D-03  0.00D+00 EMaxC= 1.00D-01 BMatC= 9.99D-03 BMatP= 6.36D-02
 IDIUse=3 WtCom= 9.66D-01 WtEn= 3.43D-02
 Coeff-Com: -0.940D-01 0.182D+00 0.384D+00 0.528D+00
 Coeff-En:   0.000D+00 0.000D+00 0.865D-01 0.914D+00
 Coeff:     -0.908D-01 0.176D+00 0.374D+00 0.541D+00
 Gap=     0.283 Goal=   None    Shift=    0.000
 RMSDP=1.32D-04 MaxDP=1.15D-02 DE=-4.75D-02 OVMax= 1.61D-02

 Cycle   5  Pass 0  IDiag  1:
 RMSU=  6.13D-05    CP:  9.94D-01  1.39D+00  8.01D-01  6.12D-01
 E= -2048.75334196110     Delta-E=       -0.008309022244 Rises=F Damp=F
 DIIS: error= 6.52D-04 at cycle   5 NSaved=   5.
 NSaved= 5 IEnMin= 5 EnMin= -2048.75334196110     IErMin= 5 ErrMin= 6.52D-04
 ErrMax= 6.52D-04  0.00D+00 EMaxC= 1.00D-01 BMatC= 2.98D-04 BMatP= 9.99D-03
 IDIUse=3 WtCom= 9.93D-01 WtEn= 6.52D-03
 Coeff-Com: -0.237D-01 0.403D-01 0.123D+00 0.239D+00 0.622D+00
 Coeff-En:   0.000D+00 0.000D+00 0.000D+00 0.000D+00 0.100D+01
 Coeff:     -0.235D-01 0.400D-01 0.122D+00 0.237D+00 0.624D+00
 Gap=     0.283 Goal=   None    Shift=    0.000
 RMSDP=2.66D-05 MaxDP=1.73D-03 DE=-8.31D-03 OVMax= 3.40D-03

 Failed to achieve initial convergence to 1.0D-08 in  6 cycles.
 Switch to full accuracy anyway.
 Cycle   6  Pass 1  IDiag  1:
 E= -2048.75354124081     Delta-E=       -0.000199279716 Rises=F Damp=F
 DIIS: error= 2.47D-04 at cycle   1 NSaved=   1.
 NSaved= 1 IEnMin= 1 EnMin= -2048.75354124081     IErMin= 1 ErrMin= 2.47D-04
 ErrMax= 2.47D-04  0.00D+00 EMaxC= 1.00D-01 BMatC= 7.31D-05 BMatP= 7.31D-05
 IDIUse=3 WtCom= 9.98D-01 WtEn= 2.47D-03
 Coeff-Com:  0.100D+01
 Coeff-En:   0.100D+01
 Coeff:      0.100D+01
 Gap=     0.283 Goal=   None    Shift=    0.000
 RMSDP=2.66D-05 MaxDP=1.73D-03 DE=-1.99D-04 OVMax= 2.74D-03

 Cycle   7  Pass 1  IDiag  1:
 RMSU=  1.08D-04    CP:  1.00D+00
 E= -2048.75359427701     Delta-E=       -0.000053036199 Rises=F Damp=F
 DIIS: error= 2.46D-04 at cycle   2 NSaved=   2.
 NSaved= 2 IEnMin= 2 EnMin= -2048.75359427701     IErMin= 2 ErrMin= 2.46D-04
 ErrMax= 2.46D-04  0.00D+00 EMaxC= 1.00D-01 BMatC= 4.28D-05 BMatP= 7.31D-05
 IDIUse=3 WtCom= 9.98D-01 WtEn= 2.46D-03
 Coeff-Com:  0.411D+00 0.589D+00
 Coeff-En:   0.000D+00 0.100D+01
 Coeff:      0.410D+00 0.590D+00
 Gap=     0.284 Goal=   None    Shift=    0.000
 RMSDP=1.13D-05 MaxDP=9.67D-04 DE=-5.30D-05 OVMax= 1.58D-03

 Cycle   8  Pass 1  IDiag  1:
 RMSU=  1.10D-05    CP:  1.00D+00  1.02D+00
 E= -2048.75362592914     Delta-E=       -0.000031652129 Rises=F Damp=F
 DIIS: error= 8.91D-05 at cycle   3 NSaved=   3.
 NSaved= 3 IEnMin= 3 EnMin= -2048.75362592914     IErMin= 3 ErrMin= 8.91D-05
 ErrMax= 8.91D-05  0.00D+00 EMaxC= 1.00D-01 BMatC= 9.64D-06 BMatP= 4.28D-05
 IDIUse=1 WtCom= 1.00D+00 WtEn= 0.00D+00
 Coeff-Com: -0.195D-01 0.308D+00 0.712D+00
 Coeff:     -0.195D-01 0.308D+00 0.712D+00
 Gap=     0.284 Goal=   None    Shift=    0.000
 RMSDP=5.51D-06 MaxDP=4.20D-04 DE=-3.17D-05 OVMax= 5.80D-04

 Cycle   9  Pass 1  IDiag  1:
 RMSU=  3.79D-06    CP:  1.00D+00  1.05D+00  7.66D-01
 E= -2048.75363520172     Delta-E=       -0.000009272582 Rises=F Damp=F
 DIIS: error= 3.26D-05 at cycle   4 NSaved=   4.
 NSaved= 4 IEnMin= 4 EnMin= -2048.75363520172     IErMin= 4 ErrMin= 3.26D-05
 ErrMax= 3.26D-05  0.00D+00 EMaxC= 1.00D-01 BMatC= 4.96D-07 BMatP= 9.64D-06
 IDIUse=1 WtCom= 1.00D+00 WtEn= 0.00D+00
 Coeff-Com: -0.309D-01 0.836D-01 0.264D+00 0.683D+00
 Coeff:     -0.309D-01 0.836D-01 0.264D+00 0.683D+00
 Gap=     0.284 Goal=   None    Shift=    0.000
 RMSDP=1.43D-06 MaxDP=1.30D-04 DE=-9.27D-06 OVMax= 5.12D-04

 Cycle  10  Pass 1  IDiag  1:
 RMSU=  1.28D-06    CP:  1.00D+00  1.06D+00  8.02D-01  1.10D+00
 E= -2048.75363603640     Delta-E=       -0.000000834681 Rises=F Damp=F
 DIIS: error= 1.52D-05 at cycle   5 NSaved=   5.
 NSaved= 5 IEnMin= 5 EnMin= -2048.75363603640     IErMin= 5 ErrMin= 1.52D-05
 ErrMax= 1.52D-05  0.00D+00 EMaxC= 1.00D-01 BMatC= 1.21D-07 BMatP= 4.96D-07
 IDIUse=1 WtCom= 1.00D+00 WtEn= 0.00D+00
 Coeff-Com: -0.326D-02-0.559D-01-0.121D+00 0.210D+00 0.970D+00
 Coeff:     -0.326D-02-0.559D-01-0.121D+00 0.210D+00 0.970D+00
 Gap=     0.284 Goal=   None    Shift=    0.000
 RMSDP=1.20D-06 MaxDP=7.66D-05 DE=-8.35D-07 OVMax= 2.53D-04

 Cycle  11  Pass 1  IDiag  1:
 RMSU=  4.89D-07    CP:  1.00D+00  1.06D+00  8.14D-01  1.38D+00  1.17D+00
 E= -2048.75363629768     Delta-E=       -0.000000261277 Rises=F Damp=F
 DIIS: error= 9.67D-06 at cycle   6 NSaved=   6.
 NSaved= 6 IEnMin= 6 EnMin= -2048.75363629768     IErMin= 6 ErrMin= 9.67D-06
 ErrMax= 9.67D-06  0.00D+00 EMaxC= 1.00D-01 BMatC= 2.81D-08 BMatP= 1.21D-07
 IDIUse=1 WtCom= 1.00D+00 WtEn= 0.00D+00
 Coeff-Com:  0.470D-02-0.451D-01-0.116D+00-0.117D-02 0.518D+00 0.640D+00
 Coeff:      0.470D-02-0.451D-01-0.116D+00-0.117D-02 0.518D+00 0.640D+00
 Gap=     0.284 Goal=   None    Shift=    0.000
 RMSDP=3.71D-07 MaxDP=3.70D-05 DE=-2.61D-07 OVMax= 1.34D-04

 Cycle  12  Pass 1  IDiag  1:
 RMSU=  1.83D-07    CP:  1.00D+00  1.06D+00  8.15D-01  1.46D+00  1.30D+00
                    CP:  9.32D-01
 E= -2048.75363633910     Delta-E=       -0.000000041417 Rises=F Damp=F
 DIIS: error= 1.62D-06 at cycle   7 NSaved=   7.
 NSaved= 7 IEnMin= 7 EnMin= -2048.75363633910     IErMin= 7 ErrMin= 1.62D-06
 ErrMax= 1.62D-06  0.00D+00 EMaxC= 1.00D-01 BMatC= 8.21D-10 BMatP= 2.81D-08
 IDIUse=1 WtCom= 1.00D+00 WtEn= 0.00D+00
 Coeff-Com:  0.117D-02-0.774D-02-0.213D-01-0.841D-02 0.616D-01 0.144D+00
 Coeff-Com:  0.831D+00
 Coeff:      0.117D-02-0.774D-02-0.213D-01-0.841D-02 0.616D-01 0.144D+00
 Coeff:      0.831D+00
 Gap=     0.284 Goal=   None    Shift=    0.000
 RMSDP=8.46D-08 MaxDP=5.06D-06 DE=-4.14D-08 OVMax= 2.29D-05

 Cycle  13  Pass 1  IDiag  1:
 RMSU=  5.02D-08    CP:  1.00D+00  1.06D+00  8.15D-01  1.47D+00  1.32D+00
                    CP:  1.02D+00  1.14D+00
 E= -2048.75363634079     Delta-E=       -0.000000001689 Rises=F Damp=F
 DIIS: error= 7.71D-07 at cycle   8 NSaved=   8.
 NSaved= 8 IEnMin= 8 EnMin= -2048.75363634079     IErMin= 8 ErrMin= 7.71D-07
 ErrMax= 7.71D-07  0.00D+00 EMaxC= 1.00D-01 BMatC= 3.37D-10 BMatP= 8.21D-10
 IDIUse=1 WtCom= 1.00D+00 WtEn= 0.00D+00
 Coeff-Com: -0.723D-03 0.875D-02 0.216D-01-0.232D-02-0.113D+00-0.101D+00
 Coeff-Com:  0.425D+00 0.762D+00
 Coeff:     -0.723D-03 0.875D-02 0.216D-01-0.232D-02-0.113D+00-0.101D+00
 Coeff:      0.425D+00 0.762D+00
 Gap=     0.284 Goal=   None    Shift=    0.000
 RMSDP=4.76D-08 MaxDP=2.94D-06 DE=-1.69D-09 OVMax= 1.19D-05

 Cycle  14  Pass 1  IDiag  1:
 RMSU=  2.75D-08    CP:  1.00D+00  1.06D+00  8.15D-01  1.47D+00  1.32D+00
                    CP:  1.06D+00  1.30D+00  1.08D+00
 E= -2048.75363634115     Delta-E=       -0.000000000368 Rises=F Damp=F
 DIIS: error= 2.15D-07 at cycle   9 NSaved=   9.
 NSaved= 9 IEnMin= 9 EnMin= -2048.75363634115     IErMin= 9 ErrMin= 2.15D-07
 ErrMax= 2.15D-07  0.00D+00 EMaxC= 1.00D-01 BMatC= 3.50D-11 BMatP= 3.37D-10
 IDIUse=1 WtCom= 1.00D+00 WtEn= 0.00D+00
 Coeff-Com: -0.452D-03 0.479D-02 0.121D-01 0.136D-03-0.565D-01-0.614D-01
 Coeff-Com:  0.895D-01 0.320D+00 0.692D+00
 Coeff:     -0.452D-03 0.479D-02 0.121D-01 0.136D-03-0.565D-01-0.614D-01
 Coeff:      0.895D-01 0.320D+00 0.692D+00
 Gap=     0.284 Goal=   None    Shift=    0.000
 RMSDP=1.39D-08 MaxDP=8.94D-07 DE=-3.68D-10 OVMax= 3.55D-06

 Cycle  15  Pass 1  IDiag  1:
 RMSU=  9.41D-09    CP:  1.00D+00  1.06D+00  8.15D-01  1.47D+00  1.32D+00
                    CP:  1.07D+00  1.33D+00  1.22D+00  1.10D+00
 E= -2048.75363634139     Delta-E=       -0.000000000236 Rises=F Damp=F
 DIIS: error= 7.72D-08 at cycle  10 NSaved=  10.
 NSaved=10 IEnMin=10 EnMin= -2048.75363634139     IErMin=10 ErrMin= 7.72D-08
 ErrMax= 7.72D-08  0.00D+00 EMaxC= 1.00D-01 BMatC= 5.46D-12 BMatP= 3.50D-11
 IDIUse=1 WtCom= 1.00D+00 WtEn= 0.00D+00
 Coeff-Com: -0.126D-05-0.236D-03-0.479D-03 0.188D-03 0.452D-02 0.452D-03
 Coeff-Com: -0.529D-01-0.508D-01 0.261D+00 0.839D+00
 Coeff:     -0.126D-05-0.236D-03-0.479D-03 0.188D-03 0.452D-02 0.452D-03
 Coeff:     -0.529D-01-0.508D-01 0.261D+00 0.839D+00
 Gap=     0.284 Goal=   None    Shift=    0.000
 RMSDP=6.81D-09 MaxDP=3.97D-07 DE=-2.36D-10 OVMax= 1.46D-06

 SCF Done:  E(RwB97XD) =  -2048.75363634     A.U. after   15 cycles
            NFock= 15  Conv=0.68D-08     -V/T= 2.0054
 KE= 2.037701940956D+03 PE=-1.583936710255D+04 EE= 6.223632768573D+03
 Leave Link  502 at Sun Jan 21 19:07:24 2018, MaxMem=  4294967296 cpu:           21226.6 elap:             686.6
 (Enter /share/apps/g16/l601.exe)
 Copying SCF densities to generalized density rwf, IOpCl= 0 IROHF=0.

 **********************************************************************

            Population analysis using the SCF density.

 **********************************************************************

 Orbital symmetries:
       Occupied  (A) (A) (A) (A) (A) (A) (A) (A) (A) (A) (A) (A)
                 (A) (A) (A) (A) (A) (A) (A) (A) (A) (A) (A) (A)
                 (A) (A) (A) (A) (A) (A) (A) (A) (A) (A) (A) (A)
                 (A) (A) (A) (A) (A) (A) (A) (A) (A) (A) (A) (A)
                 (A) (A) (A) (A) (A) (A) (A) (A) (A) (A) (A) (A)
                 (A) (A) (A) (A) (A) (A) (A) (A) (A) (A) (A) (A)
                 (A) (A) (A) (A) (A) (A) (A) (A) (A) (A) (A) (A)
                 (A) (A) (A) (A) (A) (A) (A) (A) (A) (A) (A) (A)
                 (A) (A) (A) (A) (A) (A) (A) (A) (A) (A) (A) (A)
                 (A) (A) (A) (A) (A) (A) (A) (A) (A) (A) (A) (A)
                 (A) (A) (A) (A) (A) (A) (A) (A) (A) (A) (A) (A)
                 (A) (A) (A) (A) (A) (A) (A) (A) (A) (A) (A) (A)
                 (A) (A) (A) (A) (A) (A) (A) (A) (A) (A)
       Virtual   (A) (A) (A) (A) (A) (A) (A) (A) (A) (A) (A) (A)
                 (A) (A) (A) (A) (A) (A) (A) (A) (A) (A) (A) (A)
                 (A) (A) (A) (A) (A) (A) (A) (A) (A) (A) (A) (A)
                 (A) (A) (A) (A) (A) (A) (A) (A) (A) (A) (A) (A)
                 (A) (A) (A) (A) (A) (A) (A) (A) (A) (A) (A) (A)
                 (A) (A) (A) (A) (A) (A) (A) (A) (A) (A) (A) (A)
                 (A) (A) (A) (A) (A) (A) (A) (A) (A) (A) (A) (A)
                 (A) (A) (A) (A) (A) (A) (A) (A) (A) (A) (A) (A)
                 (A) (A) (A) (A) (A) (A) (A) (A) (A) (A) (A) (A)
                 (A) (A) (A) (A) (A) (A) (A) (A) (A) (A) (A) (A)
                 (A) (A) (A) (A) (A) (A) (A) (A) (A) (A) (A) (A)
                 (A) (A) (A) (A) (A) (A) (A) (A) (A) (A) (A) (A)
                 (A) (A) (A) (A) (A) (A) (A) (A) (A) (A) (A) (A)
                 (A) (A) (A) (A) (A) (A) (A) (A) (A) (A) (A) (A)
                 (A) (A) (A) (A) (A) (A) (A) (A) (A) (A) (A) (A)
                 (A) (A) (A) (A) (A) (A) (A) (A) (A) (A) (A) (A)
                 (A) (A) (A) (A) (A) (A) (A) (A) (A) (A) (A) (A)
                 (A) (A) (A) (A) (A) (A) (A) (A) (A) (A) (A) (A)
                 (A) (A) (A) (A) (A) (A) (A) (A) (A) (A) (A) (A)
                 (A) (A) (A) (A) (A) (A) (A) (A) (A) (A) (A) (A)
                 (A) (A) (A) (A) (A) (A) (A) (A) (A) (A) (A) (A)
                 (A) (A) (A) (A) (A) (A) (A) (A) (A) (A) (A) (A)
                 (A) (A) (A) (A) (A) (A) (A) (A) (A) (A) (A) (A)
                 (A) (A) (A) (A) (A) (A) (A) (A) (A) (A) (A) (A)
                 (A) (A) (A) (A) (A) (A) (A) (A) (A) (A) (A) (A)
                 (A) (A) (A) (A) (A) (A) (A) (A) (A) (A) (A) (A)
                 (A) (A) (A) (A) (A) (A) (A) (A) (A) (A) (A) (A)
                 (A) (A) (A) (A) (A) (A) (A) (A) (A) (A) (A) (A)
                 (A) (A) (A) (A) (A) (A) (A) (A) (A) (A) (A) (A)
                 (A) (A) (A) (A) (A) (A) (A) (A) (A) (A) (A) (A)
                 (A) (A) (A) (A) (A) (A) (A) (A) (A) (A) (A) (A)
                 (A) (A) (A) (A) (A) (A) (A) (A) (A) (A) (A) (A)
                 (A) (A) (A) (A) (A) (A) (A) (A) (A) (A) (A) (A)
                 (A) (A) (A) (A) (A) (A) (A) (A) (A) (A) (A) (A)
                 (A) (A) (A) (A) (A) (A) (A) (A) (A) (A) (A) (A)
                 (A) (A) (A) (A) (A) (A) (A) (A) (A) (A) (A) (A)
                 (A) (A) (A) (A) (A) (A) (A) (A) (A) (A) (A) (A)
                 (A) (A) (A) (A) (A) (A) (A) (A) (A) (A) (A) (A)
                 (A) (A) (A) (A) (A) (A) (A) (A) (A) (A) (A) (A)
                 (A) (A) (A) (A) (A) (A) (A) (A) (A) (A) (A) (A)
                 (A) (A) (A) (A) (A) (A) (A) (A) (A) (A) (A) (A)
                 (A) (A) (A) (A) (A) (A) (A) (A) (A) (A) (A) (A)
                 (A) (A) (A) (A) (A) (A) (A) (A) (A) (A) (A) (A)
                 (A) (A) (A) (A) (A) (A) (A) (A) (A) (A) (A) (A)
                 (A) (A) (A) (A) (A) (A) (A) (A) (A) (A) (A) (A)
                 (A) (A) (A) (A) (A) (A) (A) (A) (A) (A) (A) (A)
                 (A) (A) (A) (A) (A) (A) (A) (A) (A) (A) (A) (A)
                 (A) (A) (A) (A) (A) (A) (A) (A) (A) (A) (A) (A)
                 (A) (A) (A) (A) (A) (A) (A)
 The electronic state is 1-A.
 Alpha  occ. eigenvalues --  -19.25840 -19.21993 -19.20600 -14.52333 -14.52121
 Alpha  occ. eigenvalues --  -14.48934 -14.48612 -14.47759 -14.47303 -14.46863
 Alpha  occ. eigenvalues --  -14.46540 -14.45167 -14.43771 -14.43676 -14.42349
 Alpha  occ. eigenvalues --  -14.41936 -14.41461 -14.41180 -14.40774 -14.40385
 Alpha  occ. eigenvalues --  -10.45440 -10.41134 -10.40162 -10.39339 -10.38178
 Alpha  occ. eigenvalues --  -10.37695 -10.37690 -10.36770 -10.35550 -10.35290
 Alpha  occ. eigenvalues --  -10.35273 -10.34207 -10.34154 -10.33800 -10.33475
 Alpha  occ. eigenvalues --  -10.33277 -10.33239 -10.32180 -10.31278 -10.30938
 Alpha  occ. eigenvalues --  -10.30576 -10.28598 -10.27981  -1.19408  -1.14829
 Alpha  occ. eigenvalues --   -1.13142  -1.13057  -1.11471  -1.10475  -1.09238
 Alpha  occ. eigenvalues --   -1.08666  -1.08486  -1.05168  -1.04195  -1.02457
 Alpha  occ. eigenvalues --   -1.00605  -1.00571  -0.99637  -0.98466  -0.97094
 Alpha  occ. eigenvalues --   -0.96441  -0.96227  -0.92832  -0.90945  -0.87248
 Alpha  occ. eigenvalues --   -0.85628  -0.84109  -0.83955  -0.83641  -0.82494
 Alpha  occ. eigenvalues --   -0.82295  -0.78770  -0.76560  -0.74533  -0.74310
 Alpha  occ. eigenvalues --   -0.73563  -0.73307  -0.73036  -0.71205  -0.69920
 Alpha  occ. eigenvalues --   -0.67284  -0.66486  -0.66442  -0.66245  -0.64391
 Alpha  occ. eigenvalues --   -0.63755  -0.63653  -0.62853  -0.62597  -0.61653
 Alpha  occ. eigenvalues --   -0.60591  -0.60435  -0.60025  -0.59384  -0.59070
 Alpha  occ. eigenvalues --   -0.58752  -0.58258  -0.56803  -0.56704  -0.56304
 Alpha  occ. eigenvalues --   -0.55921  -0.55582  -0.54969  -0.54555  -0.54293
 Alpha  occ. eigenvalues --   -0.53679  -0.53540  -0.53081  -0.53029  -0.52833
 Alpha  occ. eigenvalues --   -0.52466  -0.52370  -0.51968  -0.50971  -0.50393
 Alpha  occ. eigenvalues --   -0.50068  -0.49596  -0.49419  -0.49034  -0.48922
 Alpha  occ. eigenvalues --   -0.48752  -0.48301  -0.48037  -0.47452  -0.47343
 Alpha  occ. eigenvalues --   -0.47108  -0.45595  -0.45050  -0.44210  -0.43801
 Alpha  occ. eigenvalues --   -0.41304  -0.40308  -0.39408  -0.37344  -0.37275
 Alpha  occ. eigenvalues --   -0.37220  -0.37192  -0.37057  -0.36002  -0.34406
 Alpha  occ. eigenvalues --   -0.33996  -0.33891  -0.33535  -0.33487  -0.33210
 Alpha  occ. eigenvalues --   -0.32603  -0.32298  -0.31938  -0.31821  -0.31085
 Alpha  occ. eigenvalues --   -0.30603  -0.29388  -0.25816  -0.25296
 Alpha virt. eigenvalues --    0.03067   0.04524   0.07431   0.07792   0.08482
 Alpha virt. eigenvalues --    0.09086   0.09841   0.10750   0.10973   0.11646
 Alpha virt. eigenvalues --    0.13128   0.14099   0.14465   0.14581   0.15184
 Alpha virt. eigenvalues --    0.15260   0.16263   0.16919   0.17650   0.18556
 Alpha virt. eigenvalues --    0.18717   0.19268   0.19666   0.20157   0.20341
 Alpha virt. eigenvalues --    0.20703   0.20903   0.21037   0.21367   0.22223
 Alpha virt. eigenvalues --    0.22543   0.22909   0.23563   0.23779   0.23844
 Alpha virt. eigenvalues --    0.23932   0.24340   0.24740   0.25132   0.25399
 Alpha virt. eigenvalues --    0.25523   0.26440   0.26873   0.27488   0.28174
 Alpha virt. eigenvalues --    0.28739   0.28929   0.29731   0.30263   0.30728
 Alpha virt. eigenvalues --    0.31178   0.31553   0.32453   0.32837   0.33643
 Alpha virt. eigenvalues --    0.33806   0.33917   0.34952   0.36061   0.36436
 Alpha virt. eigenvalues --    0.36660   0.37498   0.37857   0.39057   0.39193
 Alpha virt. eigenvalues --    0.39989   0.40193   0.41150   0.41300   0.41872
 Alpha virt. eigenvalues --    0.42050   0.42454   0.42933   0.43969   0.44479
 Alpha virt. eigenvalues --    0.44508   0.44927   0.45881   0.46418   0.46902
 Alpha virt. eigenvalues --    0.47656   0.47930   0.48559   0.49000   0.49534
 Alpha virt. eigenvalues --    0.49898   0.49993   0.50406   0.50961   0.51117
 Alpha virt. eigenvalues --    0.51530   0.51881   0.52057   0.53254   0.53784
 Alpha virt. eigenvalues --    0.53927   0.54402   0.54527   0.54872   0.55301
 Alpha virt. eigenvalues --    0.55555   0.55779   0.56203   0.57001   0.57094
 Alpha virt. eigenvalues --    0.57490   0.57674   0.58620   0.58893   0.59752
 Alpha virt. eigenvalues --    0.60001   0.60510   0.60814   0.60989   0.61548
 Alpha virt. eigenvalues --    0.61953   0.62250   0.62450   0.62904   0.63767
 Alpha virt. eigenvalues --    0.64017   0.64644   0.64875   0.65196   0.65615
 Alpha virt. eigenvalues --    0.66066   0.66113   0.66747   0.66879   0.67360
 Alpha virt. eigenvalues --    0.67553   0.68161   0.68330   0.68799   0.69378
 Alpha virt. eigenvalues --    0.70184   0.70487   0.71468   0.71839   0.72188
 Alpha virt. eigenvalues --    0.72457   0.73265   0.73418   0.73667   0.74003
 Alpha virt. eigenvalues --    0.74314   0.74506   0.74905   0.75204   0.75439
 Alpha virt. eigenvalues --    0.76112   0.76315   0.76421   0.76902   0.77136
 Alpha virt. eigenvalues --    0.77465   0.78065   0.78189   0.78896   0.79078
 Alpha virt. eigenvalues --    0.79148   0.79982   0.80323   0.80505   0.80938
 Alpha virt. eigenvalues --    0.81390   0.82098   0.82639   0.82858   0.83370
 Alpha virt. eigenvalues --    0.84068   0.84252   0.84916   0.85211   0.85423
 Alpha virt. eigenvalues --    0.86073   0.86264   0.86780   0.87258   0.87975
 Alpha virt. eigenvalues --    0.88487   0.88598   0.89334   0.90102   0.90339
 Alpha virt. eigenvalues --    0.90631   0.90848   0.91230   0.91869   0.92576
 Alpha virt. eigenvalues --    0.92864   0.93676   0.93743   0.94328   0.94690
 Alpha virt. eigenvalues --    0.95003   0.95162   0.95292   0.95991   0.96290
 Alpha virt. eigenvalues --    0.97124   0.97580   0.98032   0.98181   0.98516
 Alpha virt. eigenvalues --    0.98769   0.99551   0.99925   1.00153   1.00922
 Alpha virt. eigenvalues --    1.01454   1.01706   1.02261   1.02862   1.03084
 Alpha virt. eigenvalues --    1.03547   1.04167   1.04584   1.05114   1.05582
 Alpha virt. eigenvalues --    1.06270   1.06536   1.06846   1.07140   1.07507
 Alpha virt. eigenvalues --    1.08400   1.08600   1.09146   1.10080   1.10336
 Alpha virt. eigenvalues --    1.11994   1.12113   1.12179   1.12940   1.13076
 Alpha virt. eigenvalues --    1.13940   1.14857   1.15189   1.15456   1.15866
 Alpha virt. eigenvalues --    1.16236   1.17213   1.17482   1.17801   1.18061
 Alpha virt. eigenvalues --    1.18452   1.18836   1.19463   1.19554   1.20017
 Alpha virt. eigenvalues --    1.20274   1.20536   1.21204   1.21562   1.22075
 Alpha virt. eigenvalues --    1.22322   1.22674   1.22866   1.23244   1.23687
 Alpha virt. eigenvalues --    1.23794   1.24137   1.24484   1.25278   1.25564
 Alpha virt. eigenvalues --    1.25708   1.26529   1.26981   1.27167   1.27412
 Alpha virt. eigenvalues --    1.27863   1.28544   1.29497   1.30367   1.30671
 Alpha virt. eigenvalues --    1.32187   1.32300   1.33140   1.33651   1.34478
 Alpha virt. eigenvalues --    1.34706   1.35021   1.35922   1.36371   1.36725
 Alpha virt. eigenvalues --    1.37489   1.37846   1.38250   1.39113   1.40160
 Alpha virt. eigenvalues --    1.40510   1.41833   1.42209   1.42739   1.43942
 Alpha virt. eigenvalues --    1.45326   1.45831   1.46294   1.47808   1.48490
 Alpha virt. eigenvalues --    1.49096   1.49598   1.49938   1.50372   1.50976
 Alpha virt. eigenvalues --    1.51169   1.52198   1.53337   1.53584   1.54447
 Alpha virt. eigenvalues --    1.55525   1.55669   1.55775   1.56515   1.57469
 Alpha virt. eigenvalues --    1.57621   1.59054   1.59942   1.60310   1.61224
 Alpha virt. eigenvalues --    1.61940   1.62362   1.62483   1.63123   1.63342
 Alpha virt. eigenvalues --    1.63691   1.64652   1.65399   1.65920   1.66606
 Alpha virt. eigenvalues --    1.66885   1.67521   1.68625   1.68954   1.69402
 Alpha virt. eigenvalues --    1.70237   1.70825   1.71190   1.71725   1.71844
 Alpha virt. eigenvalues --    1.72547   1.72925   1.73577   1.73753   1.73864
 Alpha virt. eigenvalues --    1.74393   1.74839   1.75125   1.75439   1.75622
 Alpha virt. eigenvalues --    1.75948   1.76253   1.76440   1.77222   1.77468
 Alpha virt. eigenvalues --    1.77658   1.78169   1.78431   1.78669   1.79288
 Alpha virt. eigenvalues --    1.79574   1.79985   1.80102   1.80345   1.80403
 Alpha virt. eigenvalues --    1.81179   1.81409   1.81606   1.81985   1.82372
 Alpha virt. eigenvalues --    1.82953   1.83204   1.83843   1.83976   1.85063
 Alpha virt. eigenvalues --    1.85934   1.86196   1.86363   1.86778   1.87349
 Alpha virt. eigenvalues --    1.87648   1.87977   1.88401   1.88682   1.89336
 Alpha virt. eigenvalues --    1.89983   1.90388   1.90615   1.91622   1.91805
 Alpha virt. eigenvalues --    1.92375   1.92494   1.93305   1.93464   1.93794
 Alpha virt. eigenvalues --    1.94890   1.95448   1.96160   1.96721   1.98026
 Alpha virt. eigenvalues --    1.99036   1.99792   2.00148   2.01262   2.01924
 Alpha virt. eigenvalues --    2.02041   2.02331   2.03053   2.03268   2.03776
 Alpha virt. eigenvalues --    2.04547   2.05302   2.06279   2.07339   2.07581
 Alpha virt. eigenvalues --    2.07762   2.08784   2.09295   2.09780   2.10006
 Alpha virt. eigenvalues --    2.10799   2.11443   2.11968   2.12618   2.13292
 Alpha virt. eigenvalues --    2.14414   2.16127   2.17200   2.17521   2.18094
 Alpha virt. eigenvalues --    2.18584   2.19537   2.20091   2.20163   2.21448
 Alpha virt. eigenvalues --    2.21738   2.22306   2.22764   2.23540   2.24110
 Alpha virt. eigenvalues --    2.24609   2.25152   2.25903   2.26643   2.26827
 Alpha virt. eigenvalues --    2.27634   2.27784   2.28961   2.29187   2.29678
 Alpha virt. eigenvalues --    2.30123   2.30792   2.31394   2.31835   2.33028
 Alpha virt. eigenvalues --    2.33140   2.33325   2.34092   2.34212   2.34414
 Alpha virt. eigenvalues --    2.34741   2.35256   2.35910   2.36708   2.37451
 Alpha virt. eigenvalues --    2.38118   2.39153   2.40458   2.40673   2.41614
 Alpha virt. eigenvalues --    2.41865   2.42291   2.43297   2.43506   2.43835
 Alpha virt. eigenvalues --    2.44843   2.45076   2.45659   2.46140   2.46697
 Alpha virt. eigenvalues --    2.47540   2.48802   2.49878   2.50151   2.51772
 Alpha virt. eigenvalues --    2.51908   2.54401   2.54825   2.55661   2.55899
 Alpha virt. eigenvalues --    2.56722   2.57243   2.58574   2.59437   2.60306
 Alpha virt. eigenvalues --    2.60780   2.61695   2.62254   2.62914   2.63391
 Alpha virt. eigenvalues --    2.64371   2.64944   2.65255   2.65731   2.66352
 Alpha virt. eigenvalues --    2.67092   2.67671   2.68645   2.69097   2.69326
 Alpha virt. eigenvalues --    2.70483   2.70968   2.71363   2.71837   2.72343
 Alpha virt. eigenvalues --    2.73372   2.74106   2.75358   2.75554   2.75971
 Alpha virt. eigenvalues --    2.77098   2.77900   2.79027   2.79589   2.79748
 Alpha virt. eigenvalues --    2.79898   2.80102   2.80403   2.80787   2.81563
 Alpha virt. eigenvalues --    2.81904   2.82476   2.82804   2.83894   2.84357
 Alpha virt. eigenvalues --    2.84908   2.85113   2.86395   2.86713   2.86949
 Alpha virt. eigenvalues --    2.87661   2.88179   2.89241   2.92149   2.93744
 Alpha virt. eigenvalues --    2.94018   2.95694   2.97225   2.98448   2.98933
 Alpha virt. eigenvalues --    2.99528   3.00891   3.02306   3.05060   3.05476
 Alpha virt. eigenvalues --    3.06868   3.10067   3.11114   3.13185   3.14759
 Alpha virt. eigenvalues --    3.15212   3.16427   3.16746   3.18378   3.20807
 Alpha virt. eigenvalues --    3.22308   3.22982   3.23670   3.24045   3.26911
 Alpha virt. eigenvalues --    3.45340   3.47386   3.47722   3.49533   3.50424
 Alpha virt. eigenvalues --    3.53337   3.54871   3.56207   3.57687   3.60050
 Alpha virt. eigenvalues --    3.63232   3.70605   3.74971
          Condensed to atoms (all electrons):
 Mulliken charges:
               1
     1  N   -0.311724
     2  C    0.179858
     3  C    0.062096
     4  N   -0.255566
     5  C    0.131961
     6  H    0.026416
     7  N   -0.289387
     8  C    0.134445
     9  H    0.012732
    10  N   -0.290331
    11  C    0.231184
    12  C    0.102836
    13  N   -0.047161
    14  H    0.111412
    15  H    0.089152
    16  H    0.026935
    17  H    0.032513
    18  H    0.023437
    19  N   -0.303740
    20  C    0.253841
    21  C    0.180474
    22  N   -0.114483
    23  H    0.113270
    24  H    0.116222
    25  N   -0.307587
    26  C    0.235247
    27  N   -0.145167
    28  H    0.123480
    29  C    0.176752
    30  O   -0.324258
    31  C   -0.009071
    32  N   -0.223124
    33  C    0.129393
    34  H    0.020430
    35  H    0.029255
    36  H    0.027584
    37  H    0.021878
    38  H    0.053934
    39  H    0.060945
    40  H    0.072077
    41  H    0.025861
    42  C   -0.116782
    43  O   -0.273561
    44  C    0.164210
    45  H    0.134186
    46  N   -0.119841
    47  O   -0.342541
    48  C    0.341540
    49  H    0.046465
    50  C    0.184243
    51  C    0.040441
    52  N   -0.280776
    53  H    0.034072
    54  H    0.039605
    55  H    0.023049
    56  H    0.127038
    57  H    0.116950
    58  N   -0.053433
    59  C    0.100262
    60  C    0.248358
    61  N   -0.273463
    62  H    0.038587
    63  C    0.156157
    64  N   -0.301466
    65  H    0.035734
    66  C    0.116268
    67  N   -0.256026
    68  C    0.011853
    69  C    0.180986
    70  N   -0.306135
 Sum of Mulliken charges =  -0.00000
 Mulliken charges with hydrogens summed into heavy atoms:
               1
     1  N   -0.311724
     2  C    0.262742
     3  C    0.062096
     4  N   -0.255566
     5  C    0.158377
     7  N   -0.289387
     8  C    0.147177
    10  N   -0.290331
    11  C    0.231184
    12  C    0.102836
    13  N    0.153403
    19  N   -0.303740
    20  C    0.253841
    21  C    0.259191
    22  N    0.115009
    25  N   -0.307587
    26  C    0.235247
    27  N   -0.021687
    29  C    0.176752
    30  O   -0.324258
    31  C   -0.009071
    32  N   -0.223124
    33  C    0.149823
    42  C   -0.090921
    43  O   -0.273561
    44  C    0.164210
    46  N    0.014344
    47  O   -0.342541
    48  C    0.341540
    50  C    0.230708
    51  C    0.227397
    52  N   -0.280776
    58  N    0.190555
    59  C    0.100262
    60  C    0.248358
    61  N   -0.273463
    63  C    0.194744
    64  N   -0.301466
    66  C    0.152002
    67  N   -0.256026
    68  C    0.011853
    69  C    0.277712
    70  N   -0.306135
 Electronic spatial extent (au):  <R**2>=          22307.3221
 Charge=              0.0000 electrons
 Dipole moment (field-independent basis, Debye):
    X=              6.7551    Y=              6.3971    Z=              3.0721  Tot=              9.7975
 Quadrupole moment (field-independent basis, Debye-Ang):
   XX=           -146.3250   YY=           -224.0791   ZZ=           -256.5025
   XY=              7.8684   XZ=              6.4537   YZ=             -5.0620
 Traceless Quadrupole moment (field-independent basis, Debye-Ang):
   XX=             62.6438   YY=            -15.1102   ZZ=            -47.5336
   XY=              7.8684   XZ=              6.4537   YZ=             -5.0620
 Octapole moment (field-independent basis, Debye-Ang**2):
  XXX=            -55.9325  YYY=             82.8505  ZZZ=             24.4540  XYY=             47.9881
  XXY=             54.2561  XXZ=            -24.8678  XZZ=             57.6021  YZZ=             51.8488
  YYZ=             46.7065  XYZ=             53.1169
 Hexadecapole moment (field-independent basis, Debye-Ang**3):
 XXXX=         -15472.7795 YYYY=          -4668.7302 ZZZZ=          -3737.8353 XXXY=            546.5716
 XXXZ=             11.5762 YYYX=            -44.4801 YYYZ=            -21.5780 ZZZX=            106.0973
 ZZZY=             37.4287 XXYY=          -3786.2181 XXZZ=          -3896.6628 YYZZ=          -1510.2223
 XXYZ=            110.3839 YYXZ=            146.2267 ZZXY=            126.2254
 N-N= 5.529278756680D+03 E-N=-1.583936710445D+04  KE= 2.037701940956D+03
 No NMR shielding tensors so no spin-rotation constants.
 Leave Link  601 at Sun Jan 21 19:07:26 2018, MaxMem=  4294967296 cpu:              47.8 elap:               1.7
 (Enter /share/apps/g16/l9999.exe)
 1\1\GINC-COMPUTE-0-3\SP\RwB97XD\CC-pVDZ\C23H27N17O3\SATYA\21-Jan-2018\
 0\\#p wb97xd/cc-pvdz sp scf=(maxcycles=20)\\Base pair stacking\\0,1\N,
 0,5.26219,4.71549,-6.13738\C,0,5.75646,6.09823,-6.28482\C,0,3.97409,2.
 93369,-6.07988\N,0,5.24885,2.50205,-5.74313\C,0,5.97387,3.59279,-5.791
 25\H,0,7.04301,3.63635,-5.58155\N,0,1.66504,2.9821,-6.55831\C,0,1.8127
 3,4.29495,-6.76372\H,0,0.90451,4.82684,-7.04388\N,0,2.90872,5.04589,-6
 .67543\C,0,3.96669,4.2957,-6.32565\C,0,2.74841,2.25521,-6.20755\N,0,2.
 603,0.94456,-6.00207\H,0,3.37765,0.36753,-5.74099\H,0,1.71528,0.49501,
 -6.10204\H,0,6.46328,6.12741,-6.99173\H,0,5.00014,6.69726,-6.54612\H,0
 ,6.14244,6.41078,-5.41687\N,0,1.46744,5.27088,-3.26317\C,0,0.54671,4.2
 5222,-3.31458\C,0,1.16087,6.70726,-3.41655\N,0,-2.73485,3.18027,-3.694
 16\H,0,-3.23179,2.31293,-3.69754\H,0,-3.27288,4.012,-3.83371\N,0,-0.78
 207,4.39122,-3.51226\C,0,-1.40665,3.22695,-3.51081\N,0,-0.77975,2.0179
 3,-3.32979\H,0,-1.33731,1.17775,-3.34378\C,0,0.58628,1.85122,-3.12474\
 O,0,1.05192,0.71517,-2.97202\C,0,1.27063,3.09321,-3.12374\N,0,2.61872,
 3.37849,-2.9559\C,0,2.68776,4.679,-3.046\H,0,3.60711,5.25939,-2.96115\
 H,0,1.65966,7.07434,-4.20094\H,0,0.17936,6.82256,-3.56354\H,0,1.43287,
 7.19801,-2.58951\H,0,-4.5677,-2.66281,-4.16069\H,0,-4.61145,-2.72638,-
 2.40038\H,0,-4.36558,-1.18416,-3.22041\H,0,-0.4214,-4.92981,-3.25767\C
 ,0,-0.83258,-3.92062,-3.23144\O,0,1.28779,-2.86097,-3.14048\C,0,0.0587
 3,-2.80281,-3.16892\H,0,0.03224,-0.75776,-3.09572\N,0,-0.5647,-1.57165
 ,-3.13995\O,0,-2.37339,-0.1984,-3.1353\C,0,-1.9149,-1.32694,-3.16467\H
 ,0,-2.87452,-4.52972,-3.30419\C,0,-2.15441,-3.71391,-3.25683\C,0,-4.15
 865,-2.24351,-3.25353\N,0,-2.7088,-2.45533,-3.22515\H,0,-5.57108,-0.02
 858,-7.67932\H,0,-4.83125,1.0358,-6.68843\H,0,-5.81138,-0.11205,-6.067
 26\H,0,1.22557,-2.46359,-5.96415\H,0,-0.09551,-3.51334,-6.21489\N,0,0.
 2437,-2.57715,-6.1164\C,0,-0.57767,-1.52748,-6.18519\C,0,-2.68528,-0.4
 5398,-6.4446\N,0,-2.20178,0.79188,-6.30874\H,0,-0.41001,1.7356,-5.9932
 2\C,0,-0.88494,0.7629,-6.11382\N,0,-0.0605,-0.28738,-6.0446\H,0,-4.903
 91,-2.76228,-6.89361\C,0,-3.98723,-2.19556,-6.72789\N,0,-2.79895,-2.72
 77,-6.5779\C,0,-1.96419,-1.63438,-6.39745\C,0,-5.1434,0.09098,-6.78333
 \N,0,-3.99202,-0.82375,-6.65841\\Version=EM64L-G16RevA.03\State=1-A\HF
 =-2048.7536363\RMSD=6.805e-09\Dipole=-3.8138499,-0.112888,-0.5478225\Q
 uadrupole=20.776437,12.2671097,-33.0435467,30.558639,-6.4823027,5.5395
 953\PG=C01 [X(C23H27N17O3)]\\@


 THE DIFFERENCE BETWEEN A NOOSE AND A HALO IS ONLY 12 INCHES.
 Job cpu time:       0 days  6 hours  3 minutes 58.9 seconds.
 Elapsed time:       0 days  0 hours 11 minutes 46.1 seconds.
 File lengths (MBytes):  RWF=    298 Int=      0 D2E=      0 Chk=     33 Scr=      1
 Normal termination of Gaussian 16 at Sun Jan 21 19:07:26 2018.
