 Entering Gaussian System, Link 0=g16
 Input=str30.15.-2.0.com
 Output=str30.15.-2.0.log
 Initial command:
 /share/apps/g16/l1.exe "/state/partition1/scr/Gau-21713.inp" -scrdir="/state/partition1/scr/"
 Entering Link 1 = /share/apps/g16/l1.exe PID=     21714.
  
 Copyright (c) 1988,1990,1992,1993,1995,1998,2003,2009,2016,
            Gaussian, Inc.  All Rights Reserved.
  
 This is part of the Gaussian(R) 16 program.  It is based on
 the Gaussian(R) 09 system (copyright 2009, Gaussian, Inc.),
 the Gaussian(R) 03 system (copyright 2003, Gaussian, Inc.),
 the Gaussian(R) 98 system (copyright 1998, Gaussian, Inc.),
 the Gaussian(R) 94 system (copyright 1995, Gaussian, Inc.),
 the Gaussian 92(TM) system (copyright 1992, Gaussian, Inc.),
 the Gaussian 90(TM) system (copyright 1990, Gaussian, Inc.),
 the Gaussian 88(TM) system (copyright 1988, Gaussian, Inc.),
 the Gaussian 86(TM) system (copyright 1986, Carnegie Mellon
 University), and the Gaussian 82(TM) system (copyright 1983,
 Carnegie Mellon University). Gaussian is a federally registered
 trademark of Gaussian, Inc.
  
 This software contains proprietary and confidential information,
 including trade secrets, belonging to Gaussian, Inc.
  
 This software is provided under written license and may be
 used, copied, transmitted, or stored only in accord with that
 written license.
  
 The following legend is applicable only to US Government
 contracts under FAR:
  
                    RESTRICTED RIGHTS LEGEND
  
 Use, reproduction and disclosure by the US Government is
 subject to restrictions as set forth in subparagraphs (a)
 and (c) of the Commercial Computer Software - Restricted
 Rights clause in FAR 52.227-19.
  
 Gaussian, Inc.
 340 Quinnipiac St., Bldg. 40, Wallingford CT 06492
  
  
 ---------------------------------------------------------------
 Warning -- This program may not be used in any manner that
 competes with the business of Gaussian, Inc. or will provide
 assistance to any competitor of Gaussian, Inc.  The licensee
 of this program is prohibited from giving any competitor of
 Gaussian, Inc. access to this program.  By using this program,
 the user acknowledges that Gaussian, Inc. is engaged in the
 business of creating and licensing software in the field of
 computational chemistry and represents and warrants to the
 licensee that it is not a competitor of Gaussian, Inc. and that
 it will not use this program in any manner prohibited above.
 ---------------------------------------------------------------
  

 Cite this work as:
 Gaussian 16, Revision A.03,
 M. J. Frisch, G. W. Trucks, H. B. Schlegel, G. E. Scuseria, 
 M. A. Robb, J. R. Cheeseman, G. Scalmani, V. Barone, 
 G. A. Petersson, H. Nakatsuji, X. Li, M. Caricato, A. V. Marenich, 
 J. Bloino, B. G. Janesko, R. Gomperts, B. Mennucci, H. P. Hratchian, 
 J. V. Ortiz, A. F. Izmaylov, J. L. Sonnenberg, D. Williams-Young, 
 F. Ding, F. Lipparini, F. Egidi, J. Goings, B. Peng, A. Petrone, 
 T. Henderson, D. Ranasinghe, V. G. Zakrzewski, J. Gao, N. Rega, 
 G. Zheng, W. Liang, M. Hada, M. Ehara, K. Toyota, R. Fukuda, 
 J. Hasegawa, M. Ishida, T. Nakajima, Y. Honda, O. Kitao, H. Nakai, 
 T. Vreven, K. Throssell, J. A. Montgomery, Jr., J. E. Peralta, 
 F. Ogliaro, M. J. Bearpark, J. J. Heyd, E. N. Brothers, K. N. Kudin, 
 V. N. Staroverov, T. A. Keith, R. Kobayashi, J. Normand, 
 K. Raghavachari, A. P. Rendell, J. C. Burant, S. S. Iyengar, 
 J. Tomasi, M. Cossi, J. M. Millam, M. Klene, C. Adamo, R. Cammi, 
 J. W. Ochterski, R. L. Martin, K. Morokuma, O. Farkas, 
 J. B. Foresman, and D. J. Fox, Gaussian, Inc., Wallingford CT, 2016.
 
 ******************************************
 Gaussian 16:  EM64L-G16RevA.03 25-Dec-2016
                21-Jan-2018 
 ******************************************
 %nprocshared=32
 Will use up to   32 processors via shared memory.
 %mem=32GB
 %chk=allatoms_t.chk
 ---------------------------------------
 #p wb97xd/cc-pvdz sp scf=(maxcycles=20)
 ---------------------------------------
 1/38=1,172=1/1;
 2/12=2,17=6,18=5,40=1/2;
 3/5=16,11=2,25=1,30=1,74=-58/1,2,3;
 4//1;
 5/5=2,7=20,38=5/2;
 6/7=2,8=2,9=2,10=2,28=1/1;
 99/5=1,9=1/99;
 Leave Link    1 at Sun Jan 21 12:35:50 2018, MaxMem=  4294967296 cpu:               2.7 elap:               0.1
 (Enter /share/apps/g16/l101.exe)
 ------------------
 Base pair stacking
 ------------------
 Symbolic Z-matrix:
 Charge =  0 Multiplicity = 1
 N                     7.62206   6.90709  -5.00424 
 C                     8.19798   8.24843  -5.22133 
 C                     6.29125   5.15624  -5.03201 
 N                     7.40332   4.7867   -4.2894 
 C                     8.16057   5.85632  -4.30239 
 H                     9.13113   5.93483  -3.81169 
 N                     4.20841   5.12314  -6.13819 
 C                     4.4645    6.38561  -6.49618 
 H                     3.69314   6.86378  -7.09836 
 N                     5.52539   7.14254  -6.22327 
 C                     6.41173   6.46045  -5.47925 
 C                     5.11989   4.46424  -5.38977 
 N                     4.86606   3.20395  -5.03142 
 H                     5.51246   2.67795  -4.47761 
 H                     4.0216    2.74284  -5.30417 
 H                     9.07304   8.16379  -5.69807 
 H                     7.57021   8.79613  -5.77365 
 H                     8.3427    8.69798  -4.33988 
 N                     2.15921   6.69415  -3.18762 
 C                     1.25169   5.67435  -3.34402 
 C                     1.89201   8.1225   -3.45057 
 N                    -1.93237   4.58727  -4.20528 
 H                    -2.42843   3.72068  -4.25198 
 H                    -2.43457   5.41217  -4.46615 
 N                    -0.02632   5.80475  -3.76083 
 C                    -0.65126   4.64174  -3.81071 
 N                    -0.07083   3.4417   -3.47826 
 H                    -0.62478   2.60179  -3.54644 
 C                     1.24254   3.28393  -3.04694 
 O                     1.66897   2.15559  -2.77174 
 C                     1.92662   4.52469  -2.98829 
 N                     3.2316    4.81685  -2.61605 
 C                     3.32376   6.11217  -2.74971 
 H                     4.22132   6.69559  -2.54168 
 H                     2.51417   8.45487  -4.15856 
 H                     0.94824   8.2314   -3.75995 
 H                     2.02967   8.64889  -2.61226 
 H                    -3.7074   -1.27038  -4.71113 
 H                    -4.03682  -1.25693  -2.98025 
 H                    -3.64992   0.24793  -3.81514 
 H                     0.22077  -3.49629  -3.0494 
 C                    -0.1819   -2.48686  -3.13387 
 O                     1.90318  -1.42454  -2.74529 
 C                     0.6955   -1.36751  -2.97558 
 H                     0.67228   0.6788   -2.99589 
 N                     0.08457  -0.13618  -3.10142 
 O                    -1.6909    1.2362   -3.44998 
 C                    -1.2419    0.1074   -3.35576 
 H                    -2.18929  -3.09829  -3.51117 
 C                    -1.48054  -2.28129  -3.38263 
 C                    -3.44803  -0.81188  -3.76849 
 N                    -2.0236   -1.02245  -3.49575 
 H                    -2.56197   1.96004  -8.75335 
 H                    -2.07845   3.17192  -7.77373 
 H                    -3.24133   2.13836  -7.28023 
 H                     3.38355  -0.15509  -4.84918 
 H                     2.13828  -1.23353  -5.29233 
 N                     2.47786  -0.29325  -5.25015 
 C                     1.75426   0.73021  -5.70852 
 C                    -0.15066   1.74443  -6.71069 
 N                     0.33072   2.99657  -6.64106 
 H                     2.00539   3.98156  -5.98846 
 C                     1.54001   3.00146  -6.08383 
 N                     2.26641   1.97747  -5.6241 
 H                    -2.25819  -0.60937  -7.39634 
 C                    -1.39893  -0.02194  -7.07148 
 N                    -0.32275  -0.52102  -6.5143 
 C                     0.4769    0.58832  -6.28048 
 C                    -2.39341   2.22374  -7.80359 
 N                    -1.36252   1.34301  -7.22084 
 
 ITRead=  0  0  0  0  0  0  0  0  0  0  0  0  0  0  0  0  0  0  0  0
 ITRead=  0  0  0  0  0  0  0  0  0  0  0  0  0  0  0  0  0  0  0  0
 ITRead=  0  0  0  0  0  0  0  0  0  0  0  0  0  0  0  0  0  0  0  0
 ITRead=  0  0  0  0  0  0  0  0  0  0
 MicOpt= -1 -1 -1 -1 -1 -1 -1 -1 -1 -1 -1 -1 -1 -1 -1 -1 -1 -1 -1 -1
 MicOpt= -1 -1 -1 -1 -1 -1 -1 -1 -1 -1 -1 -1 -1 -1 -1 -1 -1 -1 -1 -1
 MicOpt= -1 -1 -1 -1 -1 -1 -1 -1 -1 -1 -1 -1 -1 -1 -1 -1 -1 -1 -1 -1
 MicOpt= -1 -1 -1 -1 -1 -1 -1 -1 -1 -1
 NAtoms=     70 NQM=       70 NQMF=       0 NMMI=      0 NMMIF=      0
                NMic=       0 NMicF=      0.
                    Isotopes and Nuclear Properties:
 (Nuclear quadrupole moments (NQMom) in fm**2, nuclear magnetic moments (NMagM)
  in nuclear magnetons)

  Atom         1           2           3           4           5           6           7           8           9          10
 IAtWgt=          14          12          12          14          12           1          14          12           1          14
 AtmWgt=  14.0030740  12.0000000  12.0000000  14.0030740  12.0000000   1.0078250  14.0030740  12.0000000   1.0078250  14.0030740
 NucSpn=           2           0           0           2           0           1           2           0           1           2
 AtZEff=  -0.0000000  -0.0000000  -0.0000000  -0.0000000  -0.0000000  -0.0000000  -0.0000000  -0.0000000  -0.0000000  -0.0000000
 NQMom=    2.0440000   0.0000000   0.0000000   2.0440000   0.0000000   0.0000000   2.0440000   0.0000000   0.0000000   2.0440000
 NMagM=    0.4037610   0.0000000   0.0000000   0.4037610   0.0000000   2.7928460   0.4037610   0.0000000   2.7928460   0.4037610
 AtZNuc=   7.0000000   6.0000000   6.0000000   7.0000000   6.0000000   1.0000000   7.0000000   6.0000000   1.0000000   7.0000000

  Atom        11          12          13          14          15          16          17          18          19          20
 IAtWgt=          12          12          14           1           1           1           1           1          14          12
 AtmWgt=  12.0000000  12.0000000  14.0030740   1.0078250   1.0078250   1.0078250   1.0078250   1.0078250  14.0030740  12.0000000
 NucSpn=           0           0           2           1           1           1           1           1           2           0
 AtZEff=  -0.0000000  -0.0000000  -0.0000000  -0.0000000  -0.0000000  -0.0000000  -0.0000000  -0.0000000  -0.0000000  -0.0000000
 NQMom=    0.0000000   0.0000000   2.0440000   0.0000000   0.0000000   0.0000000   0.0000000   0.0000000   2.0440000   0.0000000
 NMagM=    0.0000000   0.0000000   0.4037610   2.7928460   2.7928460   2.7928460   2.7928460   2.7928460   0.4037610   0.0000000
 AtZNuc=   6.0000000   6.0000000   7.0000000   1.0000000   1.0000000   1.0000000   1.0000000   1.0000000   7.0000000   6.0000000

  Atom        21          22          23          24          25          26          27          28          29          30
 IAtWgt=          12          14           1           1          14          12          14           1          12          16
 AtmWgt=  12.0000000  14.0030740   1.0078250   1.0078250  14.0030740  12.0000000  14.0030740   1.0078250  12.0000000  15.9949146
 NucSpn=           0           2           1           1           2           0           2           1           0           0
 AtZEff=  -0.0000000  -0.0000000  -0.0000000  -0.0000000  -0.0000000  -0.0000000  -0.0000000  -0.0000000  -0.0000000  -0.0000000
 NQMom=    0.0000000   2.0440000   0.0000000   0.0000000   2.0440000   0.0000000   2.0440000   0.0000000   0.0000000   0.0000000
 NMagM=    0.0000000   0.4037610   2.7928460   2.7928460   0.4037610   0.0000000   0.4037610   2.7928460   0.0000000   0.0000000
 AtZNuc=   6.0000000   7.0000000   1.0000000   1.0000000   7.0000000   6.0000000   7.0000000   1.0000000   6.0000000   8.0000000

  Atom        31          32          33          34          35          36          37          38          39          40
 IAtWgt=          12          14          12           1           1           1           1           1           1           1
 AtmWgt=  12.0000000  14.0030740  12.0000000   1.0078250   1.0078250   1.0078250   1.0078250   1.0078250   1.0078250   1.0078250
 NucSpn=           0           2           0           1           1           1           1           1           1           1
 AtZEff=  -0.0000000  -0.0000000  -0.0000000  -0.0000000  -0.0000000  -0.0000000  -0.0000000  -0.0000000  -0.0000000  -0.0000000
 NQMom=    0.0000000   2.0440000   0.0000000   0.0000000   0.0000000   0.0000000   0.0000000   0.0000000   0.0000000   0.0000000
 NMagM=    0.0000000   0.4037610   0.0000000   2.7928460   2.7928460   2.7928460   2.7928460   2.7928460   2.7928460   2.7928460
 AtZNuc=   6.0000000   7.0000000   6.0000000   1.0000000   1.0000000   1.0000000   1.0000000   1.0000000   1.0000000   1.0000000

  Atom        41          42          43          44          45          46          47          48          49          50
 IAtWgt=           1          12          16          12           1          14          16          12           1          12
 AtmWgt=   1.0078250  12.0000000  15.9949146  12.0000000   1.0078250  14.0030740  15.9949146  12.0000000   1.0078250  12.0000000
 NucSpn=           1           0           0           0           1           2           0           0           1           0
 AtZEff=  -0.0000000  -0.0000000  -0.0000000  -0.0000000  -0.0000000  -0.0000000  -0.0000000  -0.0000000  -0.0000000  -0.0000000
 NQMom=    0.0000000   0.0000000   0.0000000   0.0000000   0.0000000   2.0440000   0.0000000   0.0000000   0.0000000   0.0000000
 NMagM=    2.7928460   0.0000000   0.0000000   0.0000000   2.7928460   0.4037610   0.0000000   0.0000000   2.7928460   0.0000000
 AtZNuc=   1.0000000   6.0000000   8.0000000   6.0000000   1.0000000   7.0000000   8.0000000   6.0000000   1.0000000   6.0000000

  Atom        51          52          53          54          55          56          57          58          59          60
 IAtWgt=          12          14           1           1           1           1           1          14          12          12
 AtmWgt=  12.0000000  14.0030740   1.0078250   1.0078250   1.0078250   1.0078250   1.0078250  14.0030740  12.0000000  12.0000000
 NucSpn=           0           2           1           1           1           1           1           2           0           0
 AtZEff=  -0.0000000  -0.0000000  -0.0000000  -0.0000000  -0.0000000  -0.0000000  -0.0000000  -0.0000000  -0.0000000  -0.0000000
 NQMom=    0.0000000   2.0440000   0.0000000   0.0000000   0.0000000   0.0000000   0.0000000   2.0440000   0.0000000   0.0000000
 NMagM=    0.0000000   0.4037610   2.7928460   2.7928460   2.7928460   2.7928460   2.7928460   0.4037610   0.0000000   0.0000000
 AtZNuc=   6.0000000   7.0000000   1.0000000   1.0000000   1.0000000   1.0000000   1.0000000   7.0000000   6.0000000   6.0000000

  Atom        61          62          63          64          65          66          67          68          69          70
 IAtWgt=          14           1          12          14           1          12          14          12          12          14
 AtmWgt=  14.0030740   1.0078250  12.0000000  14.0030740   1.0078250  12.0000000  14.0030740  12.0000000  12.0000000  14.0030740
 NucSpn=           2           1           0           2           1           0           2           0           0           2
 AtZEff=  -0.0000000  -0.0000000  -0.0000000  -0.0000000  -0.0000000  -0.0000000  -0.0000000  -0.0000000  -0.0000000  -0.0000000
 NQMom=    2.0440000   0.0000000   0.0000000   2.0440000   0.0000000   0.0000000   2.0440000   0.0000000   0.0000000   2.0440000
 NMagM=    0.4037610   2.7928460   0.0000000   0.4037610   2.7928460   0.0000000   0.4037610   0.0000000   0.0000000   0.4037610
 AtZNuc=   7.0000000   1.0000000   6.0000000   7.0000000   1.0000000   6.0000000   7.0000000   6.0000000   6.0000000   7.0000000
 Leave Link  101 at Sun Jan 21 12:35:51 2018, MaxMem=  4294967296 cpu:               7.8 elap:               0.3
 (Enter /share/apps/g16/l202.exe)
 Stoichiometry    C23H27N17O3
 Framework group  C1[X(C23H27N17O3)]
 Deg. of freedom   204
 Full point group                 C1      NOp   1
 Largest Abelian subgroup         C1      NOp   1
 Largest concise Abelian subgroup C1      NOp   1
                         Standard orientation:                         
 ---------------------------------------------------------------------
 Center     Atomic      Atomic             Coordinates (Angstroms)
 Number     Number       Type             X           Y           Z
 ---------------------------------------------------------------------
      1          7           0       -6.943017   -1.217660    0.199834
      2          6           0       -8.290919   -0.645136    0.382536
      3          6           0       -4.773181   -1.566645    0.285403
      4          7           0       -5.302488   -2.598499   -0.476069
      5          6           0       -6.588551   -2.346941   -0.497146
      6          1           0       -7.331453   -2.957879   -1.010750
      7          7           0       -3.273744   -0.157790    1.438560
      8          6           0       -4.339708    0.577782    1.770560
      9          1           0       -4.127988    1.453717    2.382260
     10          7           0       -5.621918    0.394651    1.461835
     11          6           0       -5.772270   -0.707645    0.709007
     12          6           0       -3.458162   -1.260632    0.680398
     13          7           0       -2.395327   -1.996184    0.347952
     14          1           0       -2.484971   -2.820703   -0.211823
     15          1           0       -1.473760   -1.748296    0.646940
     16          1           0       -8.878563   -1.312136    0.840750
     17          1           0       -8.229682    0.182238    0.940057
     18          1           0       -8.681709   -0.416097   -0.508990
     19          7           0       -2.794654    2.405113   -1.489777
     20          6           0       -1.438872    2.292626   -1.296785
     21          6           0       -3.593904    3.622217   -1.243644
     22          7           0        1.590996    3.699527   -0.346902
     23          1           0        2.546417    3.414442   -0.275266
     24          1           0        1.378109    4.642048   -0.087957
     25          7           0       -0.615660    3.267214   -0.853450
     26          6           0        0.637400    2.856512   -0.771018
     27          7           0        1.054444    1.588787   -1.097306
     28          1           0        2.032752    1.362872   -1.003320
     29          6           0        0.224930    0.570048   -1.555506
     30          8           0        0.702356   -0.539747   -1.822242
     31          6           0       -1.124311    0.996248   -1.649273
     32          7           0       -2.259760    0.308702   -2.055387
     33          6           0       -3.223679    1.182068   -1.944465
     34          1           0       -4.269803    0.985802   -2.181898
     35          1           0       -4.292584    3.430614   -0.555213
     36          1           0       -2.994727    4.351034   -0.914877
     37          1           0       -4.033773    3.911567   -2.093110
     38          1           0        6.902316    0.682829    0.291916
     39          1           0        7.178544    0.926822   -1.431107
     40          1           0        5.837728    1.745648   -0.629189
     41          1           0        5.641509   -3.632129   -1.422156
     42          6           0        5.234128   -2.624026   -1.344721
     43          8           0        3.003474   -3.292401   -1.796979
     44          6           0        3.831510   -2.418697   -1.540508
     45          1           0        2.436063   -0.921724   -1.552247
     46          7           0        3.420577   -1.106450   -1.420563
     47          8           0        3.748715    1.110572   -1.054021
     48          6           0        4.205196   -0.015856   -1.140346
     49          1           0        7.097831   -1.682881   -0.912661
     50          6           0        6.024988   -1.580124   -1.070103
     51          6           0        6.424081    0.839477   -0.663499
     52          7           0        5.546326   -0.294748   -0.964838
     53          1           0        3.734895    2.214255    4.255417
     54          1           0        2.575779    2.761643    3.246003
     55          1           0        4.143507    2.818014    2.795306
     56          1           0        0.999422   -3.403587    0.252597
     57          1           0        2.632174   -3.326603    0.740763
     58          7           0        1.738994   -2.880225    0.675994
     59          6           0        1.543905   -1.642012    1.134186
     60          6           0        2.194951    0.402493    2.162702
     61          7           0        0.984795    0.976845    2.062340
     62          1           0       -0.888413    0.536763    1.356628
     63          6           0        0.121794    0.148158    1.478031
     64          7           0        0.315259   -1.092365    1.018425
     65          1           0        5.324700    0.150449    2.932975
     66          6           0        4.306702   -0.016017    2.579555
     67          7           0        3.887668   -1.117605    2.006311
     68          6           0        2.550260   -0.865567    1.736932
     69          6           0        3.456934    2.292607    3.298028
     70          7           0        3.334650    0.946152    2.706317
 ---------------------------------------------------------------------
 Rotational constants (GHZ):           0.1543346           0.0493353           0.0462810
 Leave Link  202 at Sun Jan 21 12:35:51 2018, MaxMem=  4294967296 cpu:               6.7 elap:               0.2
 (Enter /share/apps/g16/l301.exe)
 Standard basis: CC-pVDZ (5D, 7F)
 Ernie: Thresh=  0.10000D-02 Tol=  0.10000D-05 Strict=F.
 Ernie:  86 primitive shells out of 1081 were deleted.
 There are   780 symmetry adapted cartesian basis functions of A   symmetry.
 There are   737 symmetry adapted basis functions of A   symmetry.
   737 basis functions,  1608 primitive gaussians,   780 cartesian basis functions
   154 alpha electrons      154 beta electrons
       nuclear repulsion energy      5448.0561286134 Hartrees.
 IExCor= 4639 DFT=T Ex+Corr=wB97XD ExCW=0 ScaHFX=  1.000000
 ScaDFX=  1.000000  1.000000  1.000000  1.000000 ScalE2=  1.000000  1.000000
 IRadAn=      5 IRanWt=     -1 IRanGd=            0 ICorTp=0 IEmpDi=121
 HFx  wShort=  0.000000 wLong=  0.200000 cFull=  0.222036 cShort=  0.000000 cLong=  0.777964
 DFx  wShort=  0.000000 wLong=  0.200000 cFull=  0.000000 cShort=  0.000000 cLong=  1.000000
 NAtoms=   70 NActive=   70 NUniq=   70 SFac= 1.00D+00 NAtFMM=   60 NAOKFM=T Big=T
 Integral buffers will be    131072 words long.
 Raffenetti 2 integral format.
 Two-electron integral symmetry is turned on.
 R6Disp:  Grimme-D2 Dispersion energy=       -0.0681801933 Hartrees.
 Nuclear repulsion after empirical dispersion term =     5447.9879484202 Hartrees.
 Leave Link  301 at Sun Jan 21 12:35:51 2018, MaxMem=  4294967296 cpu:               3.0 elap:               0.1
 (Enter /share/apps/g16/l302.exe)
 NPDir=0 NMtPBC=     1 NCelOv=     1 NCel=       1 NClECP=     1 NCelD=      1
         NCelK=      1 NCelE2=     1 NClLst=     1 CellRange=     0.0.
 One-electron integrals computed using PRISM.
 One-electron integral symmetry used in STVInt
 NBasis=   737 RedAO= T EigKep=  7.13D-04  NBF=   737
 NBsUse=   737 1.00D-06 EigRej= -1.00D+00 NBFU=   737
 Precomputing XC quadrature grid using
 IXCGrd= 4 IRadAn=           5 IRanWt=          -1 IRanGd=           0 AccXCQ= 0.00D+00.
 Generated NRdTot=       0 NPtTot=           0 NUsed=           0 NTot=          32
 NSgBfM=   763   763   763   763   763 MxSgAt=    70 MxSgA2=    70.
 Leave Link  302 at Sun Jan 21 12:35:56 2018, MaxMem=  4294967296 cpu:             138.7 elap:               4.4
 (Enter /share/apps/g16/l303.exe)
 DipDrv:  MaxL=1.
 Leave Link  303 at Sun Jan 21 12:35:56 2018, MaxMem=  4294967296 cpu:              12.3 elap:               0.4
 (Enter /share/apps/g16/l401.exe)
 ExpMin= 1.22D-01 ExpMax= 1.17D+04 ExpMxC= 4.01D+02 IAcc=3 IRadAn=         5 AccDes= 0.00D+00
 Harris functional with IExCor= 4639 and IRadAn=       5 diagonalized for initial guess.
 HarFok:  IExCor= 4639 AccDes= 0.00D+00 IRadAn=         5 IDoV= 1 UseB2=F ITyADJ=14
 ICtDFT=  3500011 ScaDFX=  1.000000  1.000000  1.000000  1.000000
 FoFCou: FMM=F IPFlag=           0 FMFlag=      100000 FMFlg1=        2001
         NFxFlg=           0 DoJE=T BraDBF=F KetDBF=T FulRan=T
         wScrn=  0.000000 ICntrl=       500 IOpCl=  0 I1Cent=   200000004 NGrid=           0
         NMat0=    1 NMatS0=      1 NMatT0=    0 NMatD0=    1 NMtDS0=    0 NMtDT0=    0
 Petite list used in FoFCou.
 Harris En= -1963.88443732874    
 JPrj=0 DoOrth=F DoCkMO=F.
 Leave Link  401 at Sun Jan 21 12:36:08 2018, MaxMem=  4294967296 cpu:             391.4 elap:              12.3
 (Enter /share/apps/g16/l502.exe)
 Integral symmetry usage will be decided dynamically.
 Closed shell SCF:
 Using DIIS extrapolation, IDIIS=  1040.
 NGot=  4294967296 LenX=  4293717438 LenY=  4293108258
 Requested convergence on RMS density matrix=1.00D-08 within  20 cycles.
 Requested convergence on MAX density matrix=1.00D-06.
 Requested convergence on             energy=1.00D-06.
 No special actions if energy rises.
 Fock matrices will be formed incrementally for  20 cycles.
 Integral accuracy reduced to 1.0D-05 until final iterations.

 Cycle   1  Pass 0  IDiag  1:
 FoFJK:  IHMeth= 1 ICntrl=       0 DoSepK=T KAlg= 0 I1Cent=           0 FoldK=F
 IRaf=         1 NMat=       1 IRICut=       1 DoRegI=T DoRafI=F ISym2E= 0 IDoP0=0 IntGTp=1.
 FoFCou: FMM=T IPFlag=           0 FMFlag=      100000 FMFlg1=        2001
         NFxFlg=           0 DoJE=T BraDBF=F KetDBF=F FulRan=T
         wScrn=  0.000000 ICntrl=       500 IOpCl=  0 I1Cent=           0 NGrid=           0
         NMat0=    1 NMatS0=      1 NMatT0=    0 NMatD0=    1 NMtDS0=    0 NMtDT0=    0
 Symmetry not used in FoFCou.
 FMM levels:  10  Number of levels for PrismC:   9
 E= -2048.31660538687    
 DIIS: error= 2.37D-02 at cycle   1 NSaved=   1.
 NSaved= 1 IEnMin= 1 EnMin= -2048.31660538687     IErMin= 1 ErrMin= 2.37D-02
 ErrMax= 2.37D-02  0.00D+00 EMaxC= 1.00D-01 BMatC= 8.32D-01 BMatP= 8.32D-01
 IDIUse=3 WtCom= 7.63D-01 WtEn= 2.37D-01
 Coeff-Com:  0.100D+01
 Coeff-En:   0.100D+01
 Coeff:      0.100D+01
 Gap=     0.255 Goal=   None    Shift=    0.000
 GapD=    0.255 DampG=1.000 DampE=0.500 DampFc=0.5000 IDamp=-1.
 Damping current iteration by 5.00D-01
 RMSDP=1.56D-03 MaxDP=1.30D-01              OVMax= 1.92D-01

 Cycle   2  Pass 0  IDiag  1:
 RMSU=  7.81D-04    CP:  9.98D-01
 E= -2048.51300415179     Delta-E=       -0.196398764912 Rises=F Damp=T
 DIIS: error= 1.29D-02 at cycle   2 NSaved=   2.
 NSaved= 2 IEnMin= 2 EnMin= -2048.51300415179     IErMin= 2 ErrMin= 1.29D-02
 ErrMax= 1.29D-02  0.00D+00 EMaxC= 1.00D-01 BMatC= 1.45D-01 BMatP= 8.32D-01
 IDIUse=3 WtCom= 8.71D-01 WtEn= 1.29D-01
 Coeff-Com: -0.196D+00 0.120D+01
 Coeff-En:   0.000D+00 0.100D+01
 Coeff:     -0.171D+00 0.117D+01
 Gap=     0.369 Goal=   None    Shift=    0.000
 RMSDP=5.85D-04 MaxDP=3.34D-02 DE=-1.96D-01 OVMax= 1.44D-01

 Cycle   3  Pass 0  IDiag  1:
 RMSU=  5.75D-04    CP:  9.94D-01  1.12D+00
 E= -2048.69193584098     Delta-E=       -0.178931689188 Rises=F Damp=F
 DIIS: error= 6.93D-03 at cycle   3 NSaved=   3.
 NSaved= 3 IEnMin= 3 EnMin= -2048.69193584098     IErMin= 3 ErrMin= 6.93D-03
 ErrMax= 6.93D-03  0.00D+00 EMaxC= 1.00D-01 BMatC= 6.28D-02 BMatP= 1.45D-01
 IDIUse=3 WtCom= 9.31D-01 WtEn= 6.93D-02
 Coeff-Com: -0.231D+00 0.548D+00 0.683D+00
 Coeff-En:   0.000D+00 0.000D+00 0.100D+01
 Coeff:     -0.215D+00 0.510D+00 0.705D+00
 Gap=     0.280 Goal=   None    Shift=    0.000
 RMSDP=3.57D-04 MaxDP=3.23D-02 DE=-1.79D-01 OVMax= 5.35D-02

 Cycle   4  Pass 0  IDiag  1:
 RMSU=  2.03D-04    CP:  9.94D-01  1.41D+00  6.71D-01
 E= -2048.74000883725     Delta-E=       -0.048072996276 Rises=F Damp=F
 DIIS: error= 2.52D-03 at cycle   4 NSaved=   4.
 NSaved= 4 IEnMin= 4 EnMin= -2048.74000883725     IErMin= 4 ErrMin= 2.52D-03
 ErrMax= 2.52D-03  0.00D+00 EMaxC= 1.00D-01 BMatC= 8.87D-03 BMatP= 6.28D-02
 IDIUse=3 WtCom= 9.75D-01 WtEn= 2.52D-02
 Coeff-Com: -0.964D-01 0.187D+00 0.377D+00 0.533D+00
 Coeff-En:   0.000D+00 0.000D+00 0.599D-01 0.940D+00
 Coeff:     -0.939D-01 0.182D+00 0.369D+00 0.543D+00
 Gap=     0.284 Goal=   None    Shift=    0.000
 RMSDP=1.26D-04 MaxDP=1.08D-02 DE=-4.81D-02 OVMax= 1.33D-02

 Cycle   5  Pass 0  IDiag  1:
 RMSU=  6.02D-05    CP:  9.94D-01  1.38D+00  8.03D-01  6.19D-01
 E= -2048.74741280387     Delta-E=       -0.007403966615 Rises=F Damp=F
 DIIS: error= 5.58D-04 at cycle   5 NSaved=   5.
 NSaved= 5 IEnMin= 5 EnMin= -2048.74741280387     IErMin= 5 ErrMin= 5.58D-04
 ErrMax= 5.58D-04  0.00D+00 EMaxC= 1.00D-01 BMatC= 2.86D-04 BMatP= 8.87D-03
 IDIUse=3 WtCom= 9.94D-01 WtEn= 5.58D-03
 Coeff-Com: -0.250D-01 0.428D-01 0.121D+00 0.238D+00 0.623D+00
 Coeff-En:   0.000D+00 0.000D+00 0.000D+00 0.000D+00 0.100D+01
 Coeff:     -0.248D-01 0.426D-01 0.120D+00 0.237D+00 0.625D+00
 Gap=     0.285 Goal=   None    Shift=    0.000
 RMSDP=2.65D-05 MaxDP=1.82D-03 DE=-7.40D-03 OVMax= 3.11D-03

 Failed to achieve initial convergence to 1.0D-08 in  6 cycles.
 Switch to full accuracy anyway.
 Cycle   6  Pass 1  IDiag  1:
 E= -2048.74762955252     Delta-E=       -0.000216748655 Rises=F Damp=F
 DIIS: error= 1.99D-04 at cycle   1 NSaved=   1.
 NSaved= 1 IEnMin= 1 EnMin= -2048.74762955252     IErMin= 1 ErrMin= 1.99D-04
 ErrMax= 1.99D-04  0.00D+00 EMaxC= 1.00D-01 BMatC= 7.24D-05 BMatP= 7.24D-05
 IDIUse=3 WtCom= 9.98D-01 WtEn= 1.99D-03
 Coeff-Com:  0.100D+01
 Coeff-En:   0.100D+01
 Coeff:      0.100D+01
 Gap=     0.285 Goal=   None    Shift=    0.000
 RMSDP=2.65D-05 MaxDP=1.82D-03 DE=-2.17D-04 OVMax= 2.53D-03

 Cycle   7  Pass 1  IDiag  1:
 RMSU=  1.09D-04    CP:  1.00D+00
 E= -2048.74768313837     Delta-E=       -0.000053585851 Rises=F Damp=F
 DIIS: error= 2.24D-04 at cycle   2 NSaved=   2.
 NSaved= 2 IEnMin= 2 EnMin= -2048.74768313837     IErMin= 1 ErrMin= 1.99D-04
 ErrMax= 2.24D-04  0.00D+00 EMaxC= 1.00D-01 BMatC= 4.24D-05 BMatP= 7.24D-05
 IDIUse=3 WtCom= 9.98D-01 WtEn= 2.24D-03
 Coeff-Com:  0.410D+00 0.590D+00
 Coeff-En:   0.000D+00 0.100D+01
 Coeff:      0.409D+00 0.591D+00
 Gap=     0.285 Goal=   None    Shift=    0.000
 RMSDP=1.14D-05 MaxDP=1.03D-03 DE=-5.36D-05 OVMax= 1.49D-03

 Cycle   8  Pass 1  IDiag  1:
 RMSU=  1.11D-05    CP:  1.00D+00  1.02D+00
 E= -2048.74771401296     Delta-E=       -0.000030874589 Rises=F Damp=F
 DIIS: error= 9.41D-05 at cycle   3 NSaved=   3.
 NSaved= 3 IEnMin= 3 EnMin= -2048.74771401296     IErMin= 3 ErrMin= 9.41D-05
 ErrMax= 9.41D-05  0.00D+00 EMaxC= 1.00D-01 BMatC= 9.82D-06 BMatP= 4.24D-05
 IDIUse=1 WtCom= 1.00D+00 WtEn= 0.00D+00
 Coeff-Com: -0.204D-01 0.311D+00 0.709D+00
 Coeff:     -0.204D-01 0.311D+00 0.709D+00
 Gap=     0.285 Goal=   None    Shift=    0.000
 RMSDP=5.59D-06 MaxDP=4.17D-04 DE=-3.09D-05 OVMax= 5.27D-04

 Cycle   9  Pass 1  IDiag  1:
 RMSU=  3.80D-06    CP:  1.00D+00  1.05D+00  7.67D-01
 E= -2048.74772328419     Delta-E=       -0.000009271224 Rises=F Damp=F
 DIIS: error= 2.77D-05 at cycle   4 NSaved=   4.
 NSaved= 4 IEnMin= 4 EnMin= -2048.74772328419     IErMin= 4 ErrMin= 2.77D-05
 ErrMax= 2.77D-05  0.00D+00 EMaxC= 1.00D-01 BMatC= 4.76D-07 BMatP= 9.82D-06
 IDIUse=1 WtCom= 1.00D+00 WtEn= 0.00D+00
 Coeff-Com: -0.312D-01 0.827D-01 0.256D+00 0.693D+00
 Coeff:     -0.312D-01 0.827D-01 0.256D+00 0.693D+00
 Gap=     0.285 Goal=   None    Shift=    0.000
 RMSDP=1.43D-06 MaxDP=1.29D-04 DE=-9.27D-06 OVMax= 4.84D-04

 Cycle  10  Pass 1  IDiag  1:
 RMSU=  1.27D-06    CP:  1.00D+00  1.06D+00  8.01D-01  1.11D+00
 E= -2048.74772410901     Delta-E=       -0.000000824827 Rises=F Damp=F
 DIIS: error= 1.34D-05 at cycle   5 NSaved=   5.
 NSaved= 5 IEnMin= 5 EnMin= -2048.74772410901     IErMin= 5 ErrMin= 1.34D-05
 ErrMax= 1.34D-05  0.00D+00 EMaxC= 1.00D-01 BMatC= 1.19D-07 BMatP= 4.76D-07
 IDIUse=1 WtCom= 1.00D+00 WtEn= 0.00D+00
 Coeff-Com: -0.275D-02-0.579D-01-0.127D+00 0.207D+00 0.981D+00
 Coeff:     -0.275D-02-0.579D-01-0.127D+00 0.207D+00 0.981D+00
 Gap=     0.285 Goal=   None    Shift=    0.000
 RMSDP=1.21D-06 MaxDP=7.85D-05 DE=-8.25D-07 OVMax= 2.43D-04

 Cycle  11  Pass 1  IDiag  1:
 RMSU=  4.82D-07    CP:  1.00D+00  1.06D+00  8.11D-01  1.40D+00  1.17D+00
 E= -2048.74772436715     Delta-E=       -0.000000258135 Rises=F Damp=F
 DIIS: error= 6.70D-06 at cycle   6 NSaved=   6.
 NSaved= 6 IEnMin= 6 EnMin= -2048.74772436715     IErMin= 6 ErrMin= 6.70D-06
 ErrMax= 6.70D-06  0.00D+00 EMaxC= 1.00D-01 BMatC= 2.75D-08 BMatP= 1.19D-07
 IDIUse=1 WtCom= 1.00D+00 WtEn= 0.00D+00
 Coeff-Com:  0.470D-02-0.449D-01-0.115D+00 0.222D-02 0.522D+00 0.631D+00
 Coeff:      0.470D-02-0.449D-01-0.115D+00 0.222D-02 0.522D+00 0.631D+00
 Gap=     0.285 Goal=   None    Shift=    0.000
 RMSDP=3.52D-07 MaxDP=3.62D-05 DE=-2.58D-07 OVMax= 1.20D-04

 Cycle  12  Pass 1  IDiag  1:
 RMSU=  1.78D-07    CP:  1.00D+00  1.06D+00  8.13D-01  1.46D+00  1.30D+00
                    CP:  9.31D-01
 E= -2048.74772440611     Delta-E=       -0.000000038957 Rises=F Damp=F
 DIIS: error= 1.08D-06 at cycle   7 NSaved=   7.
 NSaved= 7 IEnMin= 7 EnMin= -2048.74772440611     IErMin= 7 ErrMin= 1.08D-06
 ErrMax= 1.08D-06  0.00D+00 EMaxC= 1.00D-01 BMatC= 7.53D-10 BMatP= 2.75D-08
 IDIUse=1 WtCom= 1.00D+00 WtEn= 0.00D+00
 Coeff-Com:  0.105D-02-0.662D-02-0.183D-01-0.764D-02 0.487D-01 0.130D+00
 Coeff-Com:  0.853D+00
 Coeff:      0.105D-02-0.662D-02-0.183D-01-0.764D-02 0.487D-01 0.130D+00
 Coeff:      0.853D+00
 Gap=     0.285 Goal=   None    Shift=    0.000
 RMSDP=8.50D-08 MaxDP=5.02D-06 DE=-3.90D-08 OVMax= 2.17D-05

 Cycle  13  Pass 1  IDiag  1:
 RMSU=  4.94D-08    CP:  1.00D+00  1.06D+00  8.13D-01  1.47D+00  1.32D+00
                    CP:  1.02D+00  1.15D+00
 E= -2048.74772440828     Delta-E=       -0.000000002177 Rises=F Damp=F
 DIIS: error= 5.97D-07 at cycle   8 NSaved=   8.
 NSaved= 8 IEnMin= 8 EnMin= -2048.74772440828     IErMin= 8 ErrMin= 5.97D-07
 ErrMax= 5.97D-07  0.00D+00 EMaxC= 1.00D-01 BMatC= 2.95D-10 BMatP= 7.53D-10
 IDIUse=1 WtCom= 1.00D+00 WtEn= 0.00D+00
 Coeff-Com: -0.733D-03 0.876D-02 0.214D-01-0.229D-02-0.114D+00-0.990D-01
 Coeff-Com:  0.418D+00 0.768D+00
 Coeff:     -0.733D-03 0.876D-02 0.214D-01-0.229D-02-0.114D+00-0.990D-01
 Coeff:      0.418D+00 0.768D+00
 Gap=     0.285 Goal=   None    Shift=    0.000
 RMSDP=4.40D-08 MaxDP=2.50D-06 DE=-2.18D-09 OVMax= 1.03D-05

 Cycle  14  Pass 1  IDiag  1:
 RMSU=  2.55D-08    CP:  1.00D+00  1.06D+00  8.12D-01  1.48D+00  1.32D+00
                    CP:  1.06D+00  1.29D+00  1.09D+00
 E= -2048.74772440842     Delta-E=       -0.000000000141 Rises=F Damp=F
 DIIS: error= 1.66D-07 at cycle   9 NSaved=   9.
 NSaved= 9 IEnMin= 9 EnMin= -2048.74772440842     IErMin= 9 ErrMin= 1.66D-07
 ErrMax= 1.66D-07  0.00D+00 EMaxC= 1.00D-01 BMatC= 2.45D-11 BMatP= 2.95D-10
 IDIUse=1 WtCom= 1.00D+00 WtEn= 0.00D+00
 Coeff-Com: -0.400D-03 0.419D-02 0.104D-01-0.311D-04-0.501D-01-0.530D-01
 Coeff-Com:  0.780D-01 0.285D+00 0.726D+00
 Coeff:     -0.400D-03 0.419D-02 0.104D-01-0.311D-04-0.501D-01-0.530D-01
 Coeff:      0.780D-01 0.285D+00 0.726D+00
 Gap=     0.285 Goal=   None    Shift=    0.000
 RMSDP=1.26D-08 MaxDP=8.79D-07 DE=-1.41D-10 OVMax= 3.16D-06

 Cycle  15  Pass 1  IDiag  1:
 RMSU=  8.42D-09    CP:  1.00D+00  1.06D+00  8.12D-01  1.48D+00  1.33D+00
                    CP:  1.07D+00  1.32D+00  1.21D+00  1.13D+00
 E= -2048.74772440842     Delta-E=        0.000000000000 Rises=F Damp=F
 DIIS: error= 8.58D-08 at cycle  10 NSaved=  10.
 NSaved=10 IEnMin= 9 EnMin= -2048.74772440842     IErMin=10 ErrMin= 8.58D-08
 ErrMax= 8.58D-08  0.00D+00 EMaxC= 1.00D-01 BMatC= 4.85D-12 BMatP= 2.45D-11
 IDIUse=1 WtCom= 1.00D+00 WtEn= 0.00D+00
 Coeff-Com:  0.170D-04-0.417D-03-0.927D-03 0.201D-03 0.666D-02 0.270D-02
 Coeff-Com: -0.546D-01-0.672D-01 0.282D+00 0.832D+00
 Coeff:      0.170D-04-0.417D-03-0.927D-03 0.201D-03 0.666D-02 0.270D-02
 Coeff:     -0.546D-01-0.672D-01 0.282D+00 0.832D+00
 Gap=     0.285 Goal=   None    Shift=    0.000
 RMSDP=6.09D-09 MaxDP=3.86D-07 DE= 0.00D+00 OVMax= 1.24D-06

 SCF Done:  E(RwB97XD) =  -2048.74772441     A.U. after   15 cycles
            NFock= 15  Conv=0.61D-08     -V/T= 2.0054
 KE= 2.037704451982D+03 PE=-1.567710563182D+04 EE= 6.142665507013D+03
 Leave Link  502 at Sun Jan 21 12:47:10 2018, MaxMem=  4294967296 cpu:           20448.6 elap:             662.0
 (Enter /share/apps/g16/l601.exe)
 Copying SCF densities to generalized density rwf, IOpCl= 0 IROHF=0.

 **********************************************************************

            Population analysis using the SCF density.

 **********************************************************************

 Orbital symmetries:
       Occupied  (A) (A) (A) (A) (A) (A) (A) (A) (A) (A) (A) (A)
                 (A) (A) (A) (A) (A) (A) (A) (A) (A) (A) (A) (A)
                 (A) (A) (A) (A) (A) (A) (A) (A) (A) (A) (A) (A)
                 (A) (A) (A) (A) (A) (A) (A) (A) (A) (A) (A) (A)
                 (A) (A) (A) (A) (A) (A) (A) (A) (A) (A) (A) (A)
                 (A) (A) (A) (A) (A) (A) (A) (A) (A) (A) (A) (A)
                 (A) (A) (A) (A) (A) (A) (A) (A) (A) (A) (A) (A)
                 (A) (A) (A) (A) (A) (A) (A) (A) (A) (A) (A) (A)
                 (A) (A) (A) (A) (A) (A) (A) (A) (A) (A) (A) (A)
                 (A) (A) (A) (A) (A) (A) (A) (A) (A) (A) (A) (A)
                 (A) (A) (A) (A) (A) (A) (A) (A) (A) (A) (A) (A)
                 (A) (A) (A) (A) (A) (A) (A) (A) (A) (A) (A) (A)
                 (A) (A) (A) (A) (A) (A) (A) (A) (A) (A)
       Virtual   (A) (A) (A) (A) (A) (A) (A) (A) (A) (A) (A) (A)
                 (A) (A) (A) (A) (A) (A) (A) (A) (A) (A) (A) (A)
                 (A) (A) (A) (A) (A) (A) (A) (A) (A) (A) (A) (A)
                 (A) (A) (A) (A) (A) (A) (A) (A) (A) (A) (A) (A)
                 (A) (A) (A) (A) (A) (A) (A) (A) (A) (A) (A) (A)
                 (A) (A) (A) (A) (A) (A) (A) (A) (A) (A) (A) (A)
                 (A) (A) (A) (A) (A) (A) (A) (A) (A) (A) (A) (A)
                 (A) (A) (A) (A) (A) (A) (A) (A) (A) (A) (A) (A)
                 (A) (A) (A) (A) (A) (A) (A) (A) (A) (A) (A) (A)
                 (A) (A) (A) (A) (A) (A) (A) (A) (A) (A) (A) (A)
                 (A) (A) (A) (A) (A) (A) (A) (A) (A) (A) (A) (A)
                 (A) (A) (A) (A) (A) (A) (A) (A) (A) (A) (A) (A)
                 (A) (A) (A) (A) (A) (A) (A) (A) (A) (A) (A) (A)
                 (A) (A) (A) (A) (A) (A) (A) (A) (A) (A) (A) (A)
                 (A) (A) (A) (A) (A) (A) (A) (A) (A) (A) (A) (A)
                 (A) (A) (A) (A) (A) (A) (A) (A) (A) (A) (A) (A)
                 (A) (A) (A) (A) (A) (A) (A) (A) (A) (A) (A) (A)
                 (A) (A) (A) (A) (A) (A) (A) (A) (A) (A) (A) (A)
                 (A) (A) (A) (A) (A) (A) (A) (A) (A) (A) (A) (A)
                 (A) (A) (A) (A) (A) (A) (A) (A) (A) (A) (A) (A)
                 (A) (A) (A) (A) (A) (A) (A) (A) (A) (A) (A) (A)
                 (A) (A) (A) (A) (A) (A) (A) (A) (A) (A) (A) (A)
                 (A) (A) (A) (A) (A) (A) (A) (A) (A) (A) (A) (A)
                 (A) (A) (A) (A) (A) (A) (A) (A) (A) (A) (A) (A)
                 (A) (A) (A) (A) (A) (A) (A) (A) (A) (A) (A) (A)
                 (A) (A) (A) (A) (A) (A) (A) (A) (A) (A) (A) (A)
                 (A) (A) (A) (A) (A) (A) (A) (A) (A) (A) (A) (A)
                 (A) (A) (A) (A) (A) (A) (A) (A) (A) (A) (A) (A)
                 (A) (A) (A) (A) (A) (A) (A) (A) (A) (A) (A) (A)
                 (A) (A) (A) (A) (A) (A) (A) (A) (A) (A) (A) (A)
                 (A) (A) (A) (A) (A) (A) (A) (A) (A) (A) (A) (A)
                 (A) (A) (A) (A) (A) (A) (A) (A) (A) (A) (A) (A)
                 (A) (A) (A) (A) (A) (A) (A) (A) (A) (A) (A) (A)
                 (A) (A) (A) (A) (A) (A) (A) (A) (A) (A) (A) (A)
                 (A) (A) (A) (A) (A) (A) (A) (A) (A) (A) (A) (A)
                 (A) (A) (A) (A) (A) (A) (A) (A) (A) (A) (A) (A)
                 (A) (A) (A) (A) (A) (A) (A) (A) (A) (A) (A) (A)
                 (A) (A) (A) (A) (A) (A) (A) (A) (A) (A) (A) (A)
                 (A) (A) (A) (A) (A) (A) (A) (A) (A) (A) (A) (A)
                 (A) (A) (A) (A) (A) (A) (A) (A) (A) (A) (A) (A)
                 (A) (A) (A) (A) (A) (A) (A) (A) (A) (A) (A) (A)
                 (A) (A) (A) (A) (A) (A) (A) (A) (A) (A) (A) (A)
                 (A) (A) (A) (A) (A) (A) (A) (A) (A) (A) (A) (A)
                 (A) (A) (A) (A) (A) (A) (A) (A) (A) (A) (A) (A)
                 (A) (A) (A) (A) (A) (A) (A) (A) (A) (A) (A) (A)
                 (A) (A) (A) (A) (A) (A) (A) (A) (A) (A) (A) (A)
                 (A) (A) (A) (A) (A) (A) (A) (A) (A) (A) (A) (A)
                 (A) (A) (A) (A) (A) (A) (A) (A) (A) (A) (A) (A)
                 (A) (A) (A) (A) (A) (A) (A)
 The electronic state is 1-A.
 Alpha  occ. eigenvalues --  -19.26104 -19.22356 -19.20782 -14.52573 -14.51176
 Alpha  occ. eigenvalues --  -14.49235 -14.48756 -14.48091 -14.47077 -14.46982
 Alpha  occ. eigenvalues --  -14.45816 -14.44230 -14.42587 -14.42439 -14.42265
 Alpha  occ. eigenvalues --  -14.42184 -14.41878 -14.41315 -14.40863 -14.40480
 Alpha  occ. eigenvalues --  -10.45691 -10.41410 -10.40407 -10.38401 -10.38016
 Alpha  occ. eigenvalues --  -10.37848 -10.36796 -10.35698 -10.35663 -10.35654
 Alpha  occ. eigenvalues --  -10.34527 -10.34460 -10.34151 -10.33813 -10.33460
 Alpha  occ. eigenvalues --  -10.33295 -10.33086 -10.31379 -10.31125 -10.31084
 Alpha  occ. eigenvalues --  -10.30722 -10.28963 -10.28229  -1.19635  -1.13836
 Alpha  occ. eigenvalues --   -1.13420  -1.13368  -1.11815  -1.10654  -1.09479
 Alpha  occ. eigenvalues --   -1.08754  -1.07392  -1.05322  -1.02948  -1.02736
 Alpha  occ. eigenvalues --   -1.00709  -0.99990  -0.99582  -0.98666  -0.97353
 Alpha  occ. eigenvalues --   -0.96596  -0.95014  -0.92942  -0.91131  -0.86241
 Alpha  occ. eigenvalues --   -0.84710  -0.84364  -0.84166  -0.83927  -0.82719
 Alpha  occ. eigenvalues --   -0.82467  -0.79012  -0.75456  -0.74704  -0.73840
 Alpha  occ. eigenvalues --   -0.73564  -0.73252  -0.73181  -0.71427  -0.68809
 Alpha  occ. eigenvalues --   -0.67546  -0.66724  -0.66635  -0.65156  -0.64621
 Alpha  occ. eigenvalues --   -0.63876  -0.63068  -0.62801  -0.62575  -0.61898
 Alpha  occ. eigenvalues --   -0.60479  -0.59963  -0.59659  -0.58998  -0.58640
 Alpha  occ. eigenvalues --   -0.58508  -0.58083  -0.56869  -0.56789  -0.56571
 Alpha  occ. eigenvalues --   -0.56175  -0.55605  -0.54571  -0.54467  -0.54050
 Alpha  occ. eigenvalues --   -0.53766  -0.53561  -0.53028  -0.52739  -0.52548
 Alpha  occ. eigenvalues --   -0.52224  -0.52051  -0.51411  -0.51188  -0.50537
 Alpha  occ. eigenvalues --   -0.50307  -0.49661  -0.49414  -0.49101  -0.48918
 Alpha  occ. eigenvalues --   -0.48427  -0.48342  -0.47786  -0.47721  -0.47472
 Alpha  occ. eigenvalues --   -0.47319  -0.45421  -0.45237  -0.44143  -0.43072
 Alpha  occ. eigenvalues --   -0.41563  -0.39660  -0.39324  -0.37560  -0.37409
 Alpha  occ. eigenvalues --   -0.37318  -0.36672  -0.36089  -0.35650  -0.34561
 Alpha  occ. eigenvalues --   -0.33939  -0.33894  -0.33538  -0.33044  -0.32838
 Alpha  occ. eigenvalues --   -0.32509  -0.32388  -0.32153  -0.31956  -0.31370
 Alpha  occ. eigenvalues --   -0.30686  -0.28083  -0.26146  -0.25551
 Alpha virt. eigenvalues --    0.02936   0.05337   0.07623   0.08266   0.08606
 Alpha virt. eigenvalues --    0.09196   0.09613   0.10579   0.10995   0.12092
 Alpha virt. eigenvalues --    0.12806   0.13664   0.14495   0.14594   0.16081
 Alpha virt. eigenvalues --    0.16121   0.16435   0.16836   0.17043   0.18206
 Alpha virt. eigenvalues --    0.18953   0.19389   0.19804   0.19946   0.20553
 Alpha virt. eigenvalues --    0.20702   0.21102   0.21670   0.22042   0.22353
 Alpha virt. eigenvalues --    0.22679   0.23085   0.23544   0.23557   0.23675
 Alpha virt. eigenvalues --    0.23728   0.23965   0.24062   0.24775   0.25069
 Alpha virt. eigenvalues --    0.26118   0.26458   0.26806   0.27325   0.27841
 Alpha virt. eigenvalues --    0.28728   0.29239   0.29801   0.30723   0.30856
 Alpha virt. eigenvalues --    0.31258   0.31878   0.32905   0.32995   0.33749
 Alpha virt. eigenvalues --    0.33975   0.34774   0.35116   0.36030   0.36486
 Alpha virt. eigenvalues --    0.36529   0.37474   0.38299   0.39091   0.39650
 Alpha virt. eigenvalues --    0.40185   0.40889   0.41407   0.41656   0.41802
 Alpha virt. eigenvalues --    0.42423   0.42555   0.43398   0.43756   0.44433
 Alpha virt. eigenvalues --    0.45229   0.45504   0.45960   0.46183   0.46906
 Alpha virt. eigenvalues --    0.47080   0.48166   0.48731   0.49083   0.49648
 Alpha virt. eigenvalues --    0.49839   0.50311   0.50510   0.50829   0.50946
 Alpha virt. eigenvalues --    0.51433   0.51762   0.52316   0.52623   0.53626
 Alpha virt. eigenvalues --    0.53816   0.54149   0.54394   0.54694   0.55178
 Alpha virt. eigenvalues --    0.55534   0.56202   0.56237   0.56872   0.57477
 Alpha virt. eigenvalues --    0.57662   0.58289   0.58830   0.59038   0.59989
 Alpha virt. eigenvalues --    0.60179   0.60666   0.60778   0.61349   0.61610
 Alpha virt. eigenvalues --    0.61845   0.62230   0.62986   0.63001   0.63639
 Alpha virt. eigenvalues --    0.63901   0.64540   0.64664   0.64962   0.65260
 Alpha virt. eigenvalues --    0.65669   0.65965   0.66500   0.66622   0.66929
 Alpha virt. eigenvalues --    0.67344   0.68135   0.68460   0.68699   0.69234
 Alpha virt. eigenvalues --    0.69488   0.70496   0.70734   0.70852   0.71294
 Alpha virt. eigenvalues --    0.71645   0.72394   0.72738   0.73119   0.73481
 Alpha virt. eigenvalues --    0.73784   0.73936   0.74553   0.74914   0.75194
 Alpha virt. eigenvalues --    0.75528   0.76136   0.76404   0.76519   0.76719
 Alpha virt. eigenvalues --    0.77254   0.77649   0.78236   0.78564   0.78979
 Alpha virt. eigenvalues --    0.79163   0.79433   0.80080   0.80421   0.80602
 Alpha virt. eigenvalues --    0.81201   0.82107   0.82197   0.82443   0.82906
 Alpha virt. eigenvalues --    0.83350   0.83981   0.84219   0.85007   0.85473
 Alpha virt. eigenvalues --    0.85574   0.86070   0.86517   0.86790   0.87157
 Alpha virt. eigenvalues --    0.87860   0.88331   0.88592   0.89400   0.89817
 Alpha virt. eigenvalues --    0.90417   0.90667   0.90954   0.91060   0.92062
 Alpha virt. eigenvalues --    0.92611   0.93259   0.93389   0.94029   0.94475
 Alpha virt. eigenvalues --    0.94860   0.95059   0.95405   0.95812   0.96368
 Alpha virt. eigenvalues --    0.96808   0.97260   0.97608   0.97974   0.98247
 Alpha virt. eigenvalues --    0.98541   0.99266   0.99968   1.00400   1.00838
 Alpha virt. eigenvalues --    1.01755   1.02003   1.02460   1.02906   1.03111
 Alpha virt. eigenvalues --    1.03266   1.03439   1.04207   1.04513   1.04908
 Alpha virt. eigenvalues --    1.05092   1.05638   1.06592   1.07112   1.07372
 Alpha virt. eigenvalues --    1.08578   1.08937   1.09768   1.09914   1.11149
 Alpha virt. eigenvalues --    1.11461   1.11732   1.12321   1.12784   1.13316
 Alpha virt. eigenvalues --    1.13963   1.14108   1.14620   1.14995   1.15020
 Alpha virt. eigenvalues --    1.15575   1.16389   1.16586   1.17624   1.17814
 Alpha virt. eigenvalues --    1.18293   1.18805   1.19223   1.19444   1.19701
 Alpha virt. eigenvalues --    1.19722   1.20056   1.20265   1.21081   1.21504
 Alpha virt. eigenvalues --    1.21859   1.22113   1.22215   1.22770   1.23019
 Alpha virt. eigenvalues --    1.23474   1.23653   1.24107   1.24848   1.25071
 Alpha virt. eigenvalues --    1.25573   1.26172   1.26721   1.27736   1.28487
 Alpha virt. eigenvalues --    1.28710   1.29587   1.29835   1.31100   1.31608
 Alpha virt. eigenvalues --    1.31641   1.32114   1.33097   1.33847   1.34005
 Alpha virt. eigenvalues --    1.34329   1.34945   1.35053   1.35854   1.36959
 Alpha virt. eigenvalues --    1.37497   1.37869   1.38394   1.39230   1.40189
 Alpha virt. eigenvalues --    1.41114   1.41597   1.42954   1.43537   1.44387
 Alpha virt. eigenvalues --    1.44597   1.45309   1.46723   1.47808   1.47887
 Alpha virt. eigenvalues --    1.48625   1.48888   1.49194   1.49867   1.50595
 Alpha virt. eigenvalues --    1.51049   1.52670   1.52708   1.53258   1.54158
 Alpha virt. eigenvalues --    1.54754   1.55432   1.55695   1.56347   1.57482
 Alpha virt. eigenvalues --    1.58056   1.59156   1.59445   1.60132   1.61303
 Alpha virt. eigenvalues --    1.61603   1.62093   1.62542   1.63199   1.63651
 Alpha virt. eigenvalues --    1.63918   1.65099   1.65786   1.66542   1.66981
 Alpha virt. eigenvalues --    1.67491   1.67688   1.68124   1.68511   1.68861
 Alpha virt. eigenvalues --    1.69263   1.69971   1.70373   1.70713   1.71068
 Alpha virt. eigenvalues --    1.71627   1.72230   1.72629   1.73236   1.73366
 Alpha virt. eigenvalues --    1.73741   1.74196   1.74399   1.74669   1.75048
 Alpha virt. eigenvalues --    1.75608   1.75986   1.76205   1.76785   1.77093
 Alpha virt. eigenvalues --    1.77582   1.77620   1.78225   1.78467   1.78921
 Alpha virt. eigenvalues --    1.79499   1.79754   1.79805   1.79884   1.80484
 Alpha virt. eigenvalues --    1.80661   1.80973   1.81192   1.81393   1.81914
 Alpha virt. eigenvalues --    1.82196   1.82580   1.83127   1.83697   1.84791
 Alpha virt. eigenvalues --    1.85013   1.86070   1.86162   1.86717   1.86933
 Alpha virt. eigenvalues --    1.87226   1.87802   1.88395   1.88692   1.88929
 Alpha virt. eigenvalues --    1.89420   1.89501   1.90037   1.90585   1.90924
 Alpha virt. eigenvalues --    1.91604   1.92099   1.92229   1.93093   1.93608
 Alpha virt. eigenvalues --    1.94041   1.94615   1.95729   1.96363   1.97193
 Alpha virt. eigenvalues --    1.97664   1.98296   1.99011   2.00327   2.01235
 Alpha virt. eigenvalues --    2.01779   2.02041   2.02415   2.02903   2.03778
 Alpha virt. eigenvalues --    2.04473   2.05442   2.06187   2.06586   2.07068
 Alpha virt. eigenvalues --    2.07574   2.08351   2.08622   2.08947   2.09945
 Alpha virt. eigenvalues --    2.10447   2.10755   2.11049   2.11534   2.12149
 Alpha virt. eigenvalues --    2.13421   2.14817   2.15315   2.16788   2.17477
 Alpha virt. eigenvalues --    2.18709   2.19375   2.20210   2.21130   2.21459
 Alpha virt. eigenvalues --    2.21631   2.22311   2.22551   2.23261   2.23948
 Alpha virt. eigenvalues --    2.24176   2.24810   2.25157   2.26416   2.26701
 Alpha virt. eigenvalues --    2.26909   2.27785   2.28894   2.29305   2.29394
 Alpha virt. eigenvalues --    2.29868   2.30464   2.30601   2.31915   2.32202
 Alpha virt. eigenvalues --    2.32964   2.33389   2.33791   2.34310   2.34464
 Alpha virt. eigenvalues --    2.35134   2.35866   2.36236   2.37003   2.37337
 Alpha virt. eigenvalues --    2.37899   2.38571   2.40161   2.41122   2.41536
 Alpha virt. eigenvalues --    2.41650   2.42222   2.42866   2.43154   2.43899
 Alpha virt. eigenvalues --    2.45346   2.45507   2.46117   2.46645   2.46833
 Alpha virt. eigenvalues --    2.47331   2.48832   2.49772   2.50347   2.51499
 Alpha virt. eigenvalues --    2.52703   2.54009   2.54390   2.55074   2.55604
 Alpha virt. eigenvalues --    2.56721   2.56976   2.57345   2.57684   2.59836
 Alpha virt. eigenvalues --    2.60531   2.60887   2.61808   2.61999   2.62573
 Alpha virt. eigenvalues --    2.63866   2.64853   2.65121   2.65738   2.66180
 Alpha virt. eigenvalues --    2.66914   2.67625   2.67895   2.68589   2.69108
 Alpha virt. eigenvalues --    2.69741   2.70623   2.70811   2.71559   2.71946
 Alpha virt. eigenvalues --    2.73839   2.74223   2.75156   2.75267   2.75873
 Alpha virt. eigenvalues --    2.77458   2.78108   2.78933   2.79521   2.79653
 Alpha virt. eigenvalues --    2.79901   2.80014   2.80501   2.81613   2.81900
 Alpha virt. eigenvalues --    2.82338   2.82456   2.82851   2.83068   2.83789
 Alpha virt. eigenvalues --    2.84509   2.85411   2.86216   2.86634   2.87125
 Alpha virt. eigenvalues --    2.87253   2.87967   2.88884   2.90837   2.92199
 Alpha virt. eigenvalues --    2.93989   2.96049   2.96812   2.97611   2.99002
 Alpha virt. eigenvalues --    2.99847   3.00664   3.01889   3.04361   3.05711
 Alpha virt. eigenvalues --    3.06747   3.09650   3.10987   3.13960   3.14773
 Alpha virt. eigenvalues --    3.15009   3.15769   3.16033   3.16968   3.19883
 Alpha virt. eigenvalues --    3.22625   3.23140   3.23450   3.23778   3.26221
 Alpha virt. eigenvalues --    3.46237   3.46883   3.47677   3.49969   3.51152
 Alpha virt. eigenvalues --    3.53031   3.54211   3.56077   3.57826   3.59797
 Alpha virt. eigenvalues --    3.62499   3.71030   3.74410
          Condensed to atoms (all electrons):
 Mulliken charges:
               1
     1  N   -0.310687
     2  C    0.180637
     3  C    0.035717
     4  N   -0.255657
     5  C    0.130829
     6  H    0.027467
     7  N   -0.285717
     8  C    0.128927
     9  H    0.014120
    10  N   -0.290224
    11  C    0.231833
    12  C    0.110278
    13  N   -0.042969
    14  H    0.108767
    15  H    0.089285
    16  H    0.027047
    17  H    0.035016
    18  H    0.024769
    19  N   -0.308260
    20  C    0.248907
    21  C    0.180237
    22  N   -0.121954
    23  H    0.112126
    24  H    0.117830
    25  N   -0.306058
    26  C    0.244948
    27  N   -0.132432
    28  H    0.117308
    29  C    0.163308
    30  O   -0.323255
    31  C   -0.002044
    32  N   -0.224964
    33  C    0.128724
    34  H    0.029016
    35  H    0.032992
    36  H    0.027788
    37  H    0.023358
    38  H    0.055527
    39  H    0.062535
    40  H    0.072354
    41  H    0.029619
    42  C   -0.097558
    43  O   -0.282019
    44  C    0.161292
    45  H    0.138634
    46  N   -0.128030
    47  O   -0.351960
    48  C    0.357236
    49  H    0.047507
    50  C    0.182267
    51  C    0.040253
    52  N   -0.289704
    53  H    0.031605
    54  H    0.040678
    55  H    0.019511
    56  H    0.122498
    57  H    0.117401
    58  N   -0.033676
    59  C    0.102322
    60  C    0.242082
    61  N   -0.271064
    62  H    0.039865
    63  C    0.157587
    64  N   -0.301083
    65  H    0.026738
    66  C    0.124061
    67  N   -0.259826
    68  C    0.006910
    69  C    0.179590
    70  N   -0.310167
 Sum of Mulliken charges =  -0.00000
 Mulliken charges with hydrogens summed into heavy atoms:
               1
     1  N   -0.310687
     2  C    0.267469
     3  C    0.035717
     4  N   -0.255657
     5  C    0.158295
     7  N   -0.285717
     8  C    0.143048
    10  N   -0.290224
    11  C    0.231833
    12  C    0.110278
    13  N    0.155084
    19  N   -0.308260
    20  C    0.248907
    21  C    0.264375
    22  N    0.108001
    25  N   -0.306058
    26  C    0.244948
    27  N   -0.015124
    29  C    0.163308
    30  O   -0.323255
    31  C   -0.002044
    32  N   -0.224964
    33  C    0.157740
    42  C   -0.067938
    43  O   -0.282019
    44  C    0.161292
    46  N    0.010604
    47  O   -0.351960
    48  C    0.357236
    50  C    0.229775
    51  C    0.230670
    52  N   -0.289704
    58  N    0.206223
    59  C    0.102322
    60  C    0.242082
    61  N   -0.271064
    63  C    0.197452
    64  N   -0.301083
    66  C    0.150799
    67  N   -0.259826
    68  C    0.006910
    69  C    0.271384
    70  N   -0.310167
 Electronic spatial extent (au):  <R**2>=          23902.5584
 Charge=             -0.0000 electrons
 Dipole moment (field-independent basis, Debye):
    X=              6.8581    Y=              6.1236    Z=              2.5426  Tot=              9.5392
 Quadrupole moment (field-independent basis, Debye-Ang):
   XX=           -140.8564   YY=           -224.8644   ZZ=           -252.3454
   XY=              9.1638   XZ=             16.3424   YZ=             -2.7198
 Traceless Quadrupole moment (field-independent basis, Debye-Ang):
   XX=             65.1657   YY=            -18.8424   ZZ=            -46.3233
   XY=              9.1638   XZ=             16.3424   YZ=             -2.7198
 Octapole moment (field-independent basis, Debye-Ang**2):
  XXX=             24.6205  YYY=             85.4048  ZZZ=             34.4867  XYY=             33.2247
  XXY=             26.0312  XXZ=            -57.0276  XZZ=             50.0559  YZZ=             52.1347
  YYZ=             28.7260  XYZ=             46.1489
 Hexadecapole moment (field-independent basis, Debye-Ang**3):
 XXXX=         -16103.3481 YYYY=          -4710.0239 ZZZZ=          -3439.6067 XXXY=            431.4718
 XXXZ=            255.1228 YYYX=             21.2709 YYYZ=            -18.9609 ZZZX=            173.1872
 ZZZY=             76.3627 XXYY=          -4315.1111 XXZZ=          -4290.5610 YYZZ=          -1466.7012
 XXYZ=             83.5707 YYXZ=            141.4659 ZZXY=            116.3916
 N-N= 5.447987948420D+03 E-N=-1.567710563138D+04  KE= 2.037704451982D+03
 No NMR shielding tensors so no spin-rotation constants.
 Leave Link  601 at Sun Jan 21 12:47:12 2018, MaxMem=  4294967296 cpu:              47.6 elap:               1.7
 (Enter /share/apps/g16/l9999.exe)
 1\1\GINC-COMPUTE-0-3\SP\RwB97XD\CC-pVDZ\C23H27N17O3\SATYA\21-Jan-2018\
 0\\#p wb97xd/cc-pvdz sp scf=(maxcycles=20)\\Base pair stacking\\0,1\N,
 0,7.62206,6.90709,-5.00424\C,0,8.19798,8.24843,-5.22133\C,0,6.29125,5.
 15624,-5.03201\N,0,7.40332,4.7867,-4.2894\C,0,8.16057,5.85632,-4.30239
 \H,0,9.13113,5.93483,-3.81169\N,0,4.20841,5.12314,-6.13819\C,0,4.4645,
 6.38561,-6.49618\H,0,3.69314,6.86378,-7.09836\N,0,5.52539,7.14254,-6.2
 2327\C,0,6.41173,6.46045,-5.47925\C,0,5.11989,4.46424,-5.38977\N,0,4.8
 6606,3.20395,-5.03142\H,0,5.51246,2.67795,-4.47761\H,0,4.0216,2.74284,
 -5.30417\H,0,9.07304,8.16379,-5.69807\H,0,7.57021,8.79613,-5.77365\H,0
 ,8.3427,8.69798,-4.33988\N,0,2.15921,6.69415,-3.18762\C,0,1.25169,5.67
 435,-3.34402\C,0,1.89201,8.1225,-3.45057\N,0,-1.93237,4.58727,-4.20528
 \H,0,-2.42843,3.72068,-4.25198\H,0,-2.43457,5.41217,-4.46615\N,0,-0.02
 632,5.80475,-3.76083\C,0,-0.65126,4.64174,-3.81071\N,0,-0.07083,3.4417
 ,-3.47826\H,0,-0.62478,2.60179,-3.54644\C,0,1.24254,3.28393,-3.04694\O
 ,0,1.66897,2.15559,-2.77174\C,0,1.92662,4.52469,-2.98829\N,0,3.2316,4.
 81685,-2.61605\C,0,3.32376,6.11217,-2.74971\H,0,4.22132,6.69559,-2.541
 68\H,0,2.51417,8.45487,-4.15856\H,0,0.94824,8.2314,-3.75995\H,0,2.0296
 7,8.64889,-2.61226\H,0,-3.7074,-1.27038,-4.71113\H,0,-4.03682,-1.25693
 ,-2.98025\H,0,-3.64992,0.24793,-3.81514\H,0,0.22077,-3.49629,-3.0494\C
 ,0,-0.1819,-2.48686,-3.13387\O,0,1.90318,-1.42454,-2.74529\C,0,0.6955,
 -1.36751,-2.97558\H,0,0.67228,0.6788,-2.99589\N,0,0.08457,-0.13618,-3.
 10142\O,0,-1.6909,1.2362,-3.44998\C,0,-1.2419,0.1074,-3.35576\H,0,-2.1
 8929,-3.09829,-3.51117\C,0,-1.48054,-2.28129,-3.38263\C,0,-3.44803,-0.
 81188,-3.76849\N,0,-2.0236,-1.02245,-3.49575\H,0,-2.56197,1.96004,-8.7
 5335\H,0,-2.07845,3.17192,-7.77373\H,0,-3.24133,2.13836,-7.28023\H,0,3
 .38355,-0.15509,-4.84918\H,0,2.13828,-1.23353,-5.29233\N,0,2.47786,-0.
 29325,-5.25015\C,0,1.75426,0.73021,-5.70852\C,0,-0.15066,1.74443,-6.71
 069\N,0,0.33072,2.99657,-6.64106\H,0,2.00539,3.98156,-5.98846\C,0,1.54
 001,3.00146,-6.08383\N,0,2.26641,1.97747,-5.6241\H,0,-2.25819,-0.60937
 ,-7.39634\C,0,-1.39893,-0.02194,-7.07148\N,0,-0.32275,-0.52102,-6.5143
 \C,0,0.4769,0.58832,-6.28048\C,0,-2.39341,2.22374,-7.80359\N,0,-1.3625
 2,1.34301,-7.22084\\Version=EM64L-G16RevA.03\State=1-A\HF=-2048.747724
 4\RMSD=6.093e-09\Dipole=-3.6368737,-0.1336232,-0.9167068\Quadrupole=25
 .8020263,9.2209351,-35.0229613,31.1786234,5.5445998,8.4523432\PG=C01 [
 X(C23H27N17O3)]\\@


 CHARLIE BROWN -- WHICH DO YOU THINK LASTS LONGER IN LIFE, THE GOOD THINGS 
                  OR THE BAD THINGS?
 LINUS --         GOOD THINGS LAST EIGHT SECONDS ..
                  BAD THINGS LAST THREE WEEKS
 CHARLIE BROWN -- WHAT ABOUT IN BETWEEN?
 SNOOPY --        IN BETWEEN YOU SHOULD TAKE A NAP ...
 Job cpu time:       0 days  5 hours 51 minutes  1.3 seconds.
 Elapsed time:       0 days  0 hours 11 minutes 21.6 seconds.
 File lengths (MBytes):  RWF=    298 Int=      0 D2E=      0 Chk=     33 Scr=      1
 Normal termination of Gaussian 16 at Sun Jan 21 12:47:13 2018.
