 Entering Gaussian System, Link 0=g16
 Input=str30.0.-0.5.com
 Output=str30.0.-0.5.log
 Initial command:
 /share/apps/g16/l1.exe "/state/partition1/scr/Gau-2200.inp" -scrdir="/state/partition1/scr/"
 Entering Link 1 = /share/apps/g16/l1.exe PID=      2201.
  
 Copyright (c) 1988,1990,1992,1993,1995,1998,2003,2009,2016,
            Gaussian, Inc.  All Rights Reserved.
  
 This is part of the Gaussian(R) 16 program.  It is based on
 the Gaussian(R) 09 system (copyright 2009, Gaussian, Inc.),
 the Gaussian(R) 03 system (copyright 2003, Gaussian, Inc.),
 the Gaussian(R) 98 system (copyright 1998, Gaussian, Inc.),
 the Gaussian(R) 94 system (copyright 1995, Gaussian, Inc.),
 the Gaussian 92(TM) system (copyright 1992, Gaussian, Inc.),
 the Gaussian 90(TM) system (copyright 1990, Gaussian, Inc.),
 the Gaussian 88(TM) system (copyright 1988, Gaussian, Inc.),
 the Gaussian 86(TM) system (copyright 1986, Carnegie Mellon
 University), and the Gaussian 82(TM) system (copyright 1983,
 Carnegie Mellon University). Gaussian is a federally registered
 trademark of Gaussian, Inc.
  
 This software contains proprietary and confidential information,
 including trade secrets, belonging to Gaussian, Inc.
  
 This software is provided under written license and may be
 used, copied, transmitted, or stored only in accord with that
 written license.
  
 The following legend is applicable only to US Government
 contracts under FAR:
  
                    RESTRICTED RIGHTS LEGEND
  
 Use, reproduction and disclosure by the US Government is
 subject to restrictions as set forth in subparagraphs (a)
 and (c) of the Commercial Computer Software - Restricted
 Rights clause in FAR 52.227-19.
  
 Gaussian, Inc.
 340 Quinnipiac St., Bldg. 40, Wallingford CT 06492
  
  
 ---------------------------------------------------------------
 Warning -- This program may not be used in any manner that
 competes with the business of Gaussian, Inc. or will provide
 assistance to any competitor of Gaussian, Inc.  The licensee
 of this program is prohibited from giving any competitor of
 Gaussian, Inc. access to this program.  By using this program,
 the user acknowledges that Gaussian, Inc. is engaged in the
 business of creating and licensing software in the field of
 computational chemistry and represents and warrants to the
 licensee that it is not a competitor of Gaussian, Inc. and that
 it will not use this program in any manner prohibited above.
 ---------------------------------------------------------------
  

 Cite this work as:
 Gaussian 16, Revision A.03,
 M. J. Frisch, G. W. Trucks, H. B. Schlegel, G. E. Scuseria, 
 M. A. Robb, J. R. Cheeseman, G. Scalmani, V. Barone, 
 G. A. Petersson, H. Nakatsuji, X. Li, M. Caricato, A. V. Marenich, 
 J. Bloino, B. G. Janesko, R. Gomperts, B. Mennucci, H. P. Hratchian, 
 J. V. Ortiz, A. F. Izmaylov, J. L. Sonnenberg, D. Williams-Young, 
 F. Ding, F. Lipparini, F. Egidi, J. Goings, B. Peng, A. Petrone, 
 T. Henderson, D. Ranasinghe, V. G. Zakrzewski, J. Gao, N. Rega, 
 G. Zheng, W. Liang, M. Hada, M. Ehara, K. Toyota, R. Fukuda, 
 J. Hasegawa, M. Ishida, T. Nakajima, Y. Honda, O. Kitao, H. Nakai, 
 T. Vreven, K. Throssell, J. A. Montgomery, Jr., J. E. Peralta, 
 F. Ogliaro, M. J. Bearpark, J. J. Heyd, E. N. Brothers, K. N. Kudin, 
 V. N. Staroverov, T. A. Keith, R. Kobayashi, J. Normand, 
 K. Raghavachari, A. P. Rendell, J. C. Burant, S. S. Iyengar, 
 J. Tomasi, M. Cossi, J. M. Millam, M. Klene, C. Adamo, R. Cammi, 
 J. W. Ochterski, R. L. Martin, K. Morokuma, O. Farkas, 
 J. B. Foresman, and D. J. Fox, Gaussian, Inc., Wallingford CT, 2016.
 
 ******************************************
 Gaussian 16:  EM64L-G16RevA.03 25-Dec-2016
                21-Jan-2018 
 ******************************************
 %nprocshared=32
 Will use up to   32 processors via shared memory.
 %mem=32GB
 %chk=allatoms_t.chk
 ---------------------------------------
 #p wb97xd/cc-pvdz sp scf=(maxcycles=20)
 ---------------------------------------
 1/38=1,172=1/1;
 2/12=2,17=6,18=5,40=1/2;
 3/5=16,11=2,25=1,30=1,74=-58/1,2,3;
 4//1;
 5/5=2,7=20,38=5/2;
 6/7=2,8=2,9=2,10=2,28=1/1;
 99/5=1,9=1/99;
 Leave Link    1 at Sun Jan 21 03:04:49 2018, MaxMem=  4294967296 cpu:               2.7 elap:               0.1
 (Enter /share/apps/g16/l101.exe)
 ------------------
 Base pair stacking
 ------------------
 Symbolic Z-matrix:
 Charge =  0 Multiplicity = 1
 N                     4.73864   4.86655  -6.47105 
 C                     5.2114    6.26082  -6.57363 
 C                     3.46611   3.07507  -6.37851 
 N                     4.77422   2.6285   -6.25948 
 C                     5.48851   3.72568  -6.32 
 H                     6.57662   3.76124  -6.25909 
 N                     1.11296   3.14232  -6.52372 
 C                     1.23423   4.46867  -6.6407 
 H                     0.29727   5.0137   -6.74702 
 N                     2.33397   5.2193   -6.64603 
 C                     3.42832   4.45235  -6.50964 
 C                     2.23266   2.39873  -6.38803 
 N                     2.11366   1.07459  -6.27112 
 H                     2.91556   0.48497  -6.1686 
 H                     1.21938   0.62705  -6.28203 
 H                     5.81229   6.35291  -7.36775 
 H                     4.42768   6.87254  -6.67715 
 H                     5.71609   6.50562  -5.74576 
 N                     1.31896   5.27432  -3.26456 
 C                     0.39671   4.25574  -3.26328 
 C                     1.00149   6.71326  -3.36129 
 N                    -2.90521   3.1877   -3.39872 
 H                    -3.40111   2.31995  -3.38065 
 H                    -3.45248   4.02151  -3.47605 
 N                    -0.94367   4.39714  -3.34948 
 C                    -1.5665    3.23224  -3.32272 
 N                    -0.92743   2.02045  -3.21948 
 H                    -1.4846    1.18     -3.20649 
 C                     0.45066   1.85123  -3.12957 
 O                     0.92673   0.71279  -3.03986 
 C                     1.1333    3.09386  -3.15705 
 N                     2.49067   3.37731  -3.09292 
 C                     2.55265   4.67956  -3.16 
 H                     3.47608   5.25926  -3.13738 
 H                     1.43516   7.09798  -4.17537 
 H                     0.01134   6.83036  -3.42565 
 H                     1.33986   7.18631  -2.54855 
 H                    -4.77203  -2.64642  -3.84208 
 H                    -4.67288  -2.74827  -2.08582 
 H                    -4.49376  -1.18826  -2.88935 
 H                    -0.56699  -4.92671  -3.32784 
 C                    -0.97432  -3.9189   -3.2464 
 O                     1.14684  -2.85852  -3.30466 
 C                    -0.08046  -2.80148  -3.23206 
 H                    -0.10016  -0.75853  -3.11248 
 N                    -0.69902  -1.57211  -3.12585 
 O                    -2.50087  -0.20181  -2.94466 
 C                    -2.04669  -1.3288   -3.03565 
 H                    -3.01565  -4.52913  -3.16654 
 C                    -2.29377  -3.71354  -3.16 
 C                    -4.2906   -2.24635  -2.96218 
 N                    -2.8433   -2.45672  -3.05609 
 H                    -6.2176    0.17062  -6.86174 
 H                    -5.34313   1.15786  -5.90113 
 H                    -6.2299   -0.04463  -5.24405 
 H                     0.7452   -2.33707  -6.31721 
 H                    -0.60104  -3.37434  -6.46493 
 N                    -0.24865  -2.4463   -6.33931 
 C                    -1.06849  -1.40151  -6.20724 
 C                    -3.18852  -0.3285   -6.08142 
 N                    -2.68712   0.90641  -5.91402 
 H                    -0.86607   1.83677  -5.77681 
 C                    -1.35605   0.87297  -5.90822 
 N                    -0.53311  -0.17245  -6.04035 
 H                    -5.45489  -2.61179  -6.40123 
 C                    -4.52239  -2.05253  -6.32 
 N                    -3.32637  -2.58493  -6.38132 
 C                    -2.47138  -1.50269  -6.23142 
 C                    -5.66825   0.22115  -6.02768 
 N                    -4.5134   -0.69087  -6.1396 
 
 ITRead=  0  0  0  0  0  0  0  0  0  0  0  0  0  0  0  0  0  0  0  0
 ITRead=  0  0  0  0  0  0  0  0  0  0  0  0  0  0  0  0  0  0  0  0
 ITRead=  0  0  0  0  0  0  0  0  0  0  0  0  0  0  0  0  0  0  0  0
 ITRead=  0  0  0  0  0  0  0  0  0  0
 MicOpt= -1 -1 -1 -1 -1 -1 -1 -1 -1 -1 -1 -1 -1 -1 -1 -1 -1 -1 -1 -1
 MicOpt= -1 -1 -1 -1 -1 -1 -1 -1 -1 -1 -1 -1 -1 -1 -1 -1 -1 -1 -1 -1
 MicOpt= -1 -1 -1 -1 -1 -1 -1 -1 -1 -1 -1 -1 -1 -1 -1 -1 -1 -1 -1 -1
 MicOpt= -1 -1 -1 -1 -1 -1 -1 -1 -1 -1
 NAtoms=     70 NQM=       70 NQMF=       0 NMMI=      0 NMMIF=      0
                NMic=       0 NMicF=      0.
                    Isotopes and Nuclear Properties:
 (Nuclear quadrupole moments (NQMom) in fm**2, nuclear magnetic moments (NMagM)
  in nuclear magnetons)

  Atom         1           2           3           4           5           6           7           8           9          10
 IAtWgt=          14          12          12          14          12           1          14          12           1          14
 AtmWgt=  14.0030740  12.0000000  12.0000000  14.0030740  12.0000000   1.0078250  14.0030740  12.0000000   1.0078250  14.0030740
 NucSpn=           2           0           0           2           0           1           2           0           1           2
 AtZEff=  -0.0000000  -0.0000000  -0.0000000  -0.0000000  -0.0000000  -0.0000000  -0.0000000  -0.0000000  -0.0000000  -0.0000000
 NQMom=    2.0440000   0.0000000   0.0000000   2.0440000   0.0000000   0.0000000   2.0440000   0.0000000   0.0000000   2.0440000
 NMagM=    0.4037610   0.0000000   0.0000000   0.4037610   0.0000000   2.7928460   0.4037610   0.0000000   2.7928460   0.4037610
 AtZNuc=   7.0000000   6.0000000   6.0000000   7.0000000   6.0000000   1.0000000   7.0000000   6.0000000   1.0000000   7.0000000

  Atom        11          12          13          14          15          16          17          18          19          20
 IAtWgt=          12          12          14           1           1           1           1           1          14          12
 AtmWgt=  12.0000000  12.0000000  14.0030740   1.0078250   1.0078250   1.0078250   1.0078250   1.0078250  14.0030740  12.0000000
 NucSpn=           0           0           2           1           1           1           1           1           2           0
 AtZEff=  -0.0000000  -0.0000000  -0.0000000  -0.0000000  -0.0000000  -0.0000000  -0.0000000  -0.0000000  -0.0000000  -0.0000000
 NQMom=    0.0000000   0.0000000   2.0440000   0.0000000   0.0000000   0.0000000   0.0000000   0.0000000   2.0440000   0.0000000
 NMagM=    0.0000000   0.0000000   0.4037610   2.7928460   2.7928460   2.7928460   2.7928460   2.7928460   0.4037610   0.0000000
 AtZNuc=   6.0000000   6.0000000   7.0000000   1.0000000   1.0000000   1.0000000   1.0000000   1.0000000   7.0000000   6.0000000

  Atom        21          22          23          24          25          26          27          28          29          30
 IAtWgt=          12          14           1           1          14          12          14           1          12          16
 AtmWgt=  12.0000000  14.0030740   1.0078250   1.0078250  14.0030740  12.0000000  14.0030740   1.0078250  12.0000000  15.9949146
 NucSpn=           0           2           1           1           2           0           2           1           0           0
 AtZEff=  -0.0000000  -0.0000000  -0.0000000  -0.0000000  -0.0000000  -0.0000000  -0.0000000  -0.0000000  -0.0000000  -0.0000000
 NQMom=    0.0000000   2.0440000   0.0000000   0.0000000   2.0440000   0.0000000   2.0440000   0.0000000   0.0000000   0.0000000
 NMagM=    0.0000000   0.4037610   2.7928460   2.7928460   0.4037610   0.0000000   0.4037610   2.7928460   0.0000000   0.0000000
 AtZNuc=   6.0000000   7.0000000   1.0000000   1.0000000   7.0000000   6.0000000   7.0000000   1.0000000   6.0000000   8.0000000

  Atom        31          32          33          34          35          36          37          38          39          40
 IAtWgt=          12          14          12           1           1           1           1           1           1           1
 AtmWgt=  12.0000000  14.0030740  12.0000000   1.0078250   1.0078250   1.0078250   1.0078250   1.0078250   1.0078250   1.0078250
 NucSpn=           0           2           0           1           1           1           1           1           1           1
 AtZEff=  -0.0000000  -0.0000000  -0.0000000  -0.0000000  -0.0000000  -0.0000000  -0.0000000  -0.0000000  -0.0000000  -0.0000000
 NQMom=    0.0000000   2.0440000   0.0000000   0.0000000   0.0000000   0.0000000   0.0000000   0.0000000   0.0000000   0.0000000
 NMagM=    0.0000000   0.4037610   0.0000000   2.7928460   2.7928460   2.7928460   2.7928460   2.7928460   2.7928460   2.7928460
 AtZNuc=   6.0000000   7.0000000   6.0000000   1.0000000   1.0000000   1.0000000   1.0000000   1.0000000   1.0000000   1.0000000

  Atom        41          42          43          44          45          46          47          48          49          50
 IAtWgt=           1          12          16          12           1          14          16          12           1          12
 AtmWgt=   1.0078250  12.0000000  15.9949146  12.0000000   1.0078250  14.0030740  15.9949146  12.0000000   1.0078250  12.0000000
 NucSpn=           1           0           0           0           1           2           0           0           1           0
 AtZEff=  -0.0000000  -0.0000000  -0.0000000  -0.0000000  -0.0000000  -0.0000000  -0.0000000  -0.0000000  -0.0000000  -0.0000000
 NQMom=    0.0000000   0.0000000   0.0000000   0.0000000   0.0000000   2.0440000   0.0000000   0.0000000   0.0000000   0.0000000
 NMagM=    2.7928460   0.0000000   0.0000000   0.0000000   2.7928460   0.4037610   0.0000000   0.0000000   2.7928460   0.0000000
 AtZNuc=   1.0000000   6.0000000   8.0000000   6.0000000   1.0000000   7.0000000   8.0000000   6.0000000   1.0000000   6.0000000

  Atom        51          52          53          54          55          56          57          58          59          60
 IAtWgt=          12          14           1           1           1           1           1          14          12          12
 AtmWgt=  12.0000000  14.0030740   1.0078250   1.0078250   1.0078250   1.0078250   1.0078250  14.0030740  12.0000000  12.0000000
 NucSpn=           0           2           1           1           1           1           1           2           0           0
 AtZEff=  -0.0000000  -0.0000000  -0.0000000  -0.0000000  -0.0000000  -0.0000000  -0.0000000  -0.0000000  -0.0000000  -0.0000000
 NQMom=    0.0000000   2.0440000   0.0000000   0.0000000   0.0000000   0.0000000   0.0000000   2.0440000   0.0000000   0.0000000
 NMagM=    0.0000000   0.4037610   2.7928460   2.7928460   2.7928460   2.7928460   2.7928460   0.4037610   0.0000000   0.0000000
 AtZNuc=   6.0000000   7.0000000   1.0000000   1.0000000   1.0000000   1.0000000   1.0000000   7.0000000   6.0000000   6.0000000

  Atom        61          62          63          64          65          66          67          68          69          70
 IAtWgt=          14           1          12          14           1          12          14          12          12          14
 AtmWgt=  14.0030740   1.0078250  12.0000000  14.0030740   1.0078250  12.0000000  14.0030740  12.0000000  12.0000000  14.0030740
 NucSpn=           2           1           0           2           1           0           2           0           0           2
 AtZEff=  -0.0000000  -0.0000000  -0.0000000  -0.0000000  -0.0000000  -0.0000000  -0.0000000  -0.0000000  -0.0000000  -0.0000000
 NQMom=    2.0440000   0.0000000   0.0000000   2.0440000   0.0000000   0.0000000   2.0440000   0.0000000   0.0000000   2.0440000
 NMagM=    0.4037610   2.7928460   0.0000000   0.4037610   2.7928460   0.0000000   0.4037610   0.0000000   0.0000000   0.4037610
 AtZNuc=   7.0000000   1.0000000   6.0000000   7.0000000   1.0000000   6.0000000   7.0000000   6.0000000   6.0000000   7.0000000
 Leave Link  101 at Sun Jan 21 03:04:50 2018, MaxMem=  4294967296 cpu:               6.5 elap:               0.2
 (Enter /share/apps/g16/l202.exe)
 Stoichiometry    C23H27N17O3
 Framework group  C1[X(C23H27N17O3)]
 Deg. of freedom   204
 Full point group                 C1      NOp   1
 Largest Abelian subgroup         C1      NOp   1
 Largest concise Abelian subgroup C1      NOp   1
                         Standard orientation:                         
 ---------------------------------------------------------------------
 Center     Atomic      Atomic             Coordinates (Angstroms)
 Number     Number       Type             X           Y           Z
 ---------------------------------------------------------------------
      1          7           0       -6.092345   -1.420416    0.800327
      2          6           0       -7.443766   -0.842636    0.933913
      3          6           0       -3.912522   -1.710899    0.836207
      4          7           0       -4.452714   -2.887645    0.338004
      5          6           0       -5.744356   -2.665534    0.336334
      6          1           0       -6.496205   -3.381933    0.003987
      7          7           0       -2.393706   -0.068665    1.583998
      8          6           0       -3.460317    0.704143    1.813569
      9          1           0       -3.240739    1.692197    2.215802
     10          7           0       -4.751371    0.440907    1.621761
     11          6           0       -4.910942   -0.797175    1.125670
     12          6           0       -2.587541   -1.308912    1.084716
     13          7           0       -1.524085   -2.081837    0.854879
     14          1           0       -1.620482   -3.006874    0.485798
     15          1           0       -0.595269   -1.762776    1.043688
     16          1           0       -7.989373   -1.407155    1.553434
     17          1           0       -7.375915    0.084297    1.301781
     18          1           0       -7.885607   -0.812090    0.037335
     19          7           0       -3.794154    2.071224   -1.360421
     20          6           0       -2.425979    2.030691   -1.239979
     21          6           0       -4.646658    3.229623   -1.025697
     22          7           0        0.565352    3.574931   -0.386168
     23          1           0        1.537724    3.343470   -0.373858
     24          1           0        0.313585    4.493077   -0.079011
     25          7           0       -1.636891    3.034217   -0.799162
     26          6           0       -0.360135    2.694349   -0.795989
     27          7           0        0.109963    1.466205   -1.193700
     28          1           0        1.102994    1.294264   -1.157816
     29          6           0       -0.683694    0.418825   -1.650816
     30          8           0       -0.159166   -0.650496   -1.985720
     31          6           0       -2.057812    0.768968   -1.659885
     32          7           0       -3.172425    0.032217   -2.036377
     33          6           0       -4.176827    0.843204   -1.842283
     34          1           0       -5.221215    0.595423   -2.035014
     35          1           0       -5.296656    2.971949   -0.311616
     36          1           0       -4.073104    3.979221   -0.697992
     37          1           0       -5.145758    3.524564   -1.839776
     38          1           0        6.063934    0.850719   -0.135558
     39          1           0        6.235882    1.174894   -1.858927
     40          1           0        4.894737    1.883590   -0.958672
     41          1           0        4.960168   -3.462920   -1.957851
     42          6           0        4.501342   -2.483860   -1.819462
     43          8           0        2.291262   -3.263513   -2.186625
     44          6           0        3.081110   -2.353335   -1.936613
     45          1           0        1.604986   -0.940763   -1.818172
     46          7           0        2.603847   -1.072669   -1.743326
     47          8           0        2.825454    1.144368   -1.304177
     48          6           0        3.339434    0.050467   -1.458672
     49          1           0        6.329146   -1.452699   -1.443132
     50          6           0        5.245480   -1.406737   -1.542604
     51          6           0        5.528537    1.015027   -1.058818
     52          7           0        4.701439   -0.156274   -1.361666
     53          1           0        4.684935    2.947892    3.448289
     54          1           0        3.461601    3.253279    2.412767
     55          1           0        5.002166    3.237222    1.873786
     56          1           0        1.897292   -3.426550    0.867371
     57          1           0        3.550299   -3.224067    1.237077
     58          7           0        2.643510   -2.814778    1.130147
     59          6           0        2.439527   -1.510988    1.329368
     60          6           0        3.088202    0.713636    1.869718
     61          7           0        1.859756    1.235749    1.718903
     62          1           0       -0.034867    0.628968    1.226114
     63          6           0        0.990133    0.289842    1.369740
     64          7           0        1.192489   -1.016540    1.169714
     65          1           0        6.258842    0.676340    2.500414
     66          6           0        5.228836    0.423967    2.246795
     67          7           0        4.810211   -0.779698    1.940826
     68          6           0        3.454589   -0.610106    1.699480
     69          6           0        4.356341    2.818990    2.512658
     70          7           0        4.239497    1.376543    2.223382
 ---------------------------------------------------------------------
 Rotational constants (GHZ):           0.1538748           0.0538510           0.0507108
 Leave Link  202 at Sun Jan 21 03:04:50 2018, MaxMem=  4294967296 cpu:               0.4 elap:               0.0
 (Enter /share/apps/g16/l301.exe)
 Standard basis: CC-pVDZ (5D, 7F)
 Ernie: Thresh=  0.10000D-02 Tol=  0.10000D-05 Strict=F.
 Ernie:  86 primitive shells out of 1081 were deleted.
 There are   780 symmetry adapted cartesian basis functions of A   symmetry.
 There are   737 symmetry adapted basis functions of A   symmetry.
   737 basis functions,  1608 primitive gaussians,   780 cartesian basis functions
   154 alpha electrons      154 beta electrons
       nuclear repulsion energy      5546.8408528774 Hartrees.
 IExCor= 4639 DFT=T Ex+Corr=wB97XD ExCW=0 ScaHFX=  1.000000
 ScaDFX=  1.000000  1.000000  1.000000  1.000000 ScalE2=  1.000000  1.000000
 IRadAn=      5 IRanWt=     -1 IRanGd=            0 ICorTp=0 IEmpDi=121
 HFx  wShort=  0.000000 wLong=  0.200000 cFull=  0.222036 cShort=  0.000000 cLong=  0.777964
 DFx  wShort=  0.000000 wLong=  0.200000 cFull=  0.000000 cShort=  0.000000 cLong=  1.000000
 NAtoms=   70 NActive=   70 NUniq=   70 SFac= 1.00D+00 NAtFMM=   60 NAOKFM=T Big=T
 Integral buffers will be    131072 words long.
 Raffenetti 2 integral format.
 Two-electron integral symmetry is turned on.
 R6Disp:  Grimme-D2 Dispersion energy=       -0.0743595232 Hartrees.
 Nuclear repulsion after empirical dispersion term =     5546.7664933542 Hartrees.
 Leave Link  301 at Sun Jan 21 03:04:50 2018, MaxMem=  4294967296 cpu:               2.5 elap:               0.1
 (Enter /share/apps/g16/l302.exe)
 NPDir=0 NMtPBC=     1 NCelOv=     1 NCel=       1 NClECP=     1 NCelD=      1
         NCelK=      1 NCelE2=     1 NClLst=     1 CellRange=     0.0.
 One-electron integrals computed using PRISM.
 One-electron integral symmetry used in STVInt
 NBasis=   737 RedAO= T EigKep=  7.02D-04  NBF=   737
 NBsUse=   737 1.00D-06 EigRej= -1.00D+00 NBFU=   737
 Precomputing XC quadrature grid using
 IXCGrd= 4 IRadAn=           5 IRanWt=          -1 IRanGd=           0 AccXCQ= 0.00D+00.
 Generated NRdTot=       0 NPtTot=           0 NUsed=           0 NTot=          32
 NSgBfM=   769   768   768   769   769 MxSgAt=    70 MxSgA2=    70.
 Leave Link  302 at Sun Jan 21 03:04:54 2018, MaxMem=  4294967296 cpu:             137.1 elap:               4.3
 (Enter /share/apps/g16/l303.exe)
 DipDrv:  MaxL=1.
 Leave Link  303 at Sun Jan 21 03:04:54 2018, MaxMem=  4294967296 cpu:              12.5 elap:               0.4
 (Enter /share/apps/g16/l401.exe)
 ExpMin= 1.22D-01 ExpMax= 1.17D+04 ExpMxC= 4.01D+02 IAcc=3 IRadAn=         5 AccDes= 0.00D+00
 Harris functional with IExCor= 4639 and IRadAn=       5 diagonalized for initial guess.
 HarFok:  IExCor= 4639 AccDes= 0.00D+00 IRadAn=         5 IDoV= 1 UseB2=F ITyADJ=14
 ICtDFT=  3500011 ScaDFX=  1.000000  1.000000  1.000000  1.000000
 FoFCou: FMM=F IPFlag=           0 FMFlag=      100000 FMFlg1=        2001
         NFxFlg=           0 DoJE=T BraDBF=F KetDBF=T FulRan=T
         wScrn=  0.000000 ICntrl=       500 IOpCl=  0 I1Cent=   200000004 NGrid=           0
         NMat0=    1 NMatS0=      1 NMatT0=    0 NMatD0=    1 NMtDS0=    0 NMtDT0=    0
 Petite list used in FoFCou.
 Harris En= -1963.89157277984    
 JPrj=0 DoOrth=F DoCkMO=F.
 Leave Link  401 at Sun Jan 21 03:05:08 2018, MaxMem=  4294967296 cpu:             428.0 elap:              13.7
 (Enter /share/apps/g16/l502.exe)
 Integral symmetry usage will be decided dynamically.
 Closed shell SCF:
 Using DIIS extrapolation, IDIIS=  1040.
 NGot=  4294967296 LenX=  4293717438 LenY=  4293108258
 Requested convergence on RMS density matrix=1.00D-08 within  20 cycles.
 Requested convergence on MAX density matrix=1.00D-06.
 Requested convergence on             energy=1.00D-06.
 No special actions if energy rises.
 Fock matrices will be formed incrementally for  20 cycles.
 Integral accuracy reduced to 1.0D-05 until final iterations.

 Cycle   1  Pass 0  IDiag  1:
 FoFJK:  IHMeth= 1 ICntrl=       0 DoSepK=T KAlg= 0 I1Cent=           0 FoldK=F
 IRaf=         1 NMat=       1 IRICut=       1 DoRegI=T DoRafI=F ISym2E= 0 IDoP0=0 IntGTp=1.
 FoFCou: FMM=T IPFlag=           0 FMFlag=      100000 FMFlg1=        2001
         NFxFlg=           0 DoJE=T BraDBF=F KetDBF=F FulRan=T
         wScrn=  0.000000 ICntrl=       500 IOpCl=  0 I1Cent=           0 NGrid=           0
         NMat0=    1 NMatS0=      1 NMatT0=    0 NMatD0=    1 NMtDS0=    0 NMtDT0=    0
 Symmetry not used in FoFCou.
 FMM levels:  10  Number of levels for PrismC:   9
 E= -2048.32216472047    
 DIIS: error= 2.48D-02 at cycle   1 NSaved=   1.
 NSaved= 1 IEnMin= 1 EnMin= -2048.32216472047     IErMin= 1 ErrMin= 2.48D-02
 ErrMax= 2.48D-02  0.00D+00 EMaxC= 1.00D-01 BMatC= 8.33D-01 BMatP= 8.33D-01
 IDIUse=3 WtCom= 7.52D-01 WtEn= 2.48D-01
 Coeff-Com:  0.100D+01
 Coeff-En:   0.100D+01
 Coeff:      0.100D+01
 Gap=     0.254 Goal=   None    Shift=    0.000
 GapD=    0.254 DampG=1.000 DampE=0.500 DampFc=0.5000 IDamp=-1.
 Damping current iteration by 5.00D-01
 RMSDP=1.57D-03 MaxDP=1.30D-01              OVMax= 2.04D-01

 Cycle   2  Pass 0  IDiag  1:
 RMSU=  7.82D-04    CP:  9.98D-01
 E= -2048.51900287035     Delta-E=       -0.196838149881 Rises=F Damp=T
 DIIS: error= 1.29D-02 at cycle   2 NSaved=   2.
 NSaved= 2 IEnMin= 2 EnMin= -2048.51900287035     IErMin= 2 ErrMin= 1.29D-02
 ErrMax= 1.29D-02  0.00D+00 EMaxC= 1.00D-01 BMatC= 1.45D-01 BMatP= 8.33D-01
 IDIUse=3 WtCom= 8.71D-01 WtEn= 1.29D-01
 Coeff-Com: -0.197D+00 0.120D+01
 Coeff-En:   0.000D+00 0.100D+01
 Coeff:     -0.171D+00 0.117D+01
 Gap=     0.357 Goal=   None    Shift=    0.000
 RMSDP=5.83D-04 MaxDP=3.41D-02 DE=-1.97D-01 OVMax= 1.36D-01

 Cycle   3  Pass 0  IDiag  1:
 RMSU=  5.73D-04    CP:  9.94D-01  1.13D+00
 E= -2048.69821741470     Delta-E=       -0.179214544346 Rises=F Damp=F
 DIIS: error= 7.23D-03 at cycle   3 NSaved=   3.
 NSaved= 3 IEnMin= 3 EnMin= -2048.69821741470     IErMin= 3 ErrMin= 7.23D-03
 ErrMax= 7.23D-03  0.00D+00 EMaxC= 1.00D-01 BMatC= 6.31D-02 BMatP= 1.45D-01
 IDIUse=3 WtCom= 9.28D-01 WtEn= 7.23D-02
 Coeff-Com: -0.231D+00 0.549D+00 0.682D+00
 Coeff-En:   0.000D+00 0.000D+00 0.100D+01
 Coeff:     -0.215D+00 0.509D+00 0.705D+00
 Gap=     0.279 Goal=   None    Shift=    0.000
 RMSDP=3.59D-04 MaxDP=3.30D-02 DE=-1.79D-01 OVMax= 7.15D-02

 Cycle   4  Pass 0  IDiag  1:
 RMSU=  2.04D-04    CP:  9.95D-01  1.42D+00  6.67D-01
 E= -2048.74598272290     Delta-E=       -0.047765308199 Rises=F Damp=F
 DIIS: error= 2.59D-03 at cycle   4 NSaved=   4.
 NSaved= 4 IEnMin= 4 EnMin= -2048.74598272290     IErMin= 4 ErrMin= 2.59D-03
 ErrMax= 2.59D-03  0.00D+00 EMaxC= 1.00D-01 BMatC= 9.17D-03 BMatP= 6.31D-02
 IDIUse=3 WtCom= 9.74D-01 WtEn= 2.59D-02
 Coeff-Com: -0.959D-01 0.186D+00 0.378D+00 0.532D+00
 Coeff-En:   0.000D+00 0.000D+00 0.670D-01 0.933D+00
 Coeff:     -0.934D-01 0.181D+00 0.370D+00 0.542D+00
 Gap=     0.283 Goal=   None    Shift=    0.000
 RMSDP=1.27D-04 MaxDP=1.13D-02 DE=-4.78D-02 OVMax= 1.54D-02

 Cycle   5  Pass 0  IDiag  1:
 RMSU=  6.11D-05    CP:  9.94D-01  1.39D+00  8.01D-01  6.19D-01
 E= -2048.75361628562     Delta-E=       -0.007633562725 Rises=F Damp=F
 DIIS: error= 5.63D-04 at cycle   5 NSaved=   5.
 NSaved= 5 IEnMin= 5 EnMin= -2048.75361628562     IErMin= 5 ErrMin= 5.63D-04
 ErrMax= 5.63D-04  0.00D+00 EMaxC= 1.00D-01 BMatC= 2.86D-04 BMatP= 9.17D-03
 IDIUse=3 WtCom= 9.94D-01 WtEn= 5.63D-03
 Coeff-Com: -0.247D-01 0.424D-01 0.121D+00 0.238D+00 0.624D+00
 Coeff-En:   0.000D+00 0.000D+00 0.000D+00 0.000D+00 0.100D+01
 Coeff:     -0.246D-01 0.421D-01 0.120D+00 0.236D+00 0.626D+00
 Gap=     0.283 Goal=   None    Shift=    0.000
 RMSDP=2.62D-05 MaxDP=1.71D-03 DE=-7.63D-03 OVMax= 3.30D-03

 Failed to achieve initial convergence to 1.0D-08 in  6 cycles.
 Switch to full accuracy anyway.
 Cycle   6  Pass 1  IDiag  1:
 E= -2048.75377316600     Delta-E=       -0.000156880380 Rises=F Damp=F
 DIIS: error= 2.21D-04 at cycle   1 NSaved=   1.
 NSaved= 1 IEnMin= 1 EnMin= -2048.75377316600     IErMin= 1 ErrMin= 2.21D-04
 ErrMax= 2.21D-04  0.00D+00 EMaxC= 1.00D-01 BMatC= 7.31D-05 BMatP= 7.31D-05
 IDIUse=3 WtCom= 9.98D-01 WtEn= 2.21D-03
 Coeff-Com:  0.100D+01
 Coeff-En:   0.100D+01
 Coeff:      0.100D+01
 Gap=     0.283 Goal=   None    Shift=    0.000
 RMSDP=2.62D-05 MaxDP=1.71D-03 DE=-1.57D-04 OVMax= 2.66D-03

 Cycle   7  Pass 1  IDiag  1:
 RMSU=  1.09D-04    CP:  1.00D+00
 E= -2048.75382708989     Delta-E=       -0.000053923890 Rises=F Damp=F
 DIIS: error= 2.57D-04 at cycle   2 NSaved=   2.
 NSaved= 2 IEnMin= 2 EnMin= -2048.75382708989     IErMin= 1 ErrMin= 2.21D-04
 ErrMax= 2.57D-04  0.00D+00 EMaxC= 1.00D-01 BMatC= 4.24D-05 BMatP= 7.31D-05
 IDIUse=3 WtCom= 9.97D-01 WtEn= 2.57D-03
 Coeff-Com:  0.409D+00 0.591D+00
 Coeff-En:   0.000D+00 0.100D+01
 Coeff:      0.408D+00 0.592D+00
 Gap=     0.283 Goal=   None    Shift=    0.000
 RMSDP=1.12D-05 MaxDP=9.93D-04 DE=-5.39D-05 OVMax= 1.57D-03

 Cycle   8  Pass 1  IDiag  1:
 RMSU=  1.09D-05    CP:  1.00D+00  1.02D+00
 E= -2048.75385834590     Delta-E=       -0.000031256007 Rises=F Damp=F
 DIIS: error= 1.03D-04 at cycle   3 NSaved=   3.
 NSaved= 3 IEnMin= 3 EnMin= -2048.75385834590     IErMin= 3 ErrMin= 1.03D-04
 ErrMax= 1.03D-04  0.00D+00 EMaxC= 1.00D-01 BMatC= 9.74D-06 BMatP= 4.24D-05
 IDIUse=3 WtCom= 9.99D-01 WtEn= 1.03D-03
 Coeff-Com: -0.199D-01 0.310D+00 0.710D+00
 Coeff-En:   0.000D+00 0.131D+00 0.869D+00
 Coeff:     -0.198D-01 0.310D+00 0.710D+00
 Gap=     0.283 Goal=   None    Shift=    0.000
 RMSDP=5.54D-06 MaxDP=4.32D-04 DE=-3.13D-05 OVMax= 5.78D-04

 Cycle   9  Pass 1  IDiag  1:
 RMSU=  3.82D-06    CP:  1.00D+00  1.05D+00  7.66D-01
 E= -2048.75386770681     Delta-E=       -0.000009360914 Rises=F Damp=F
 DIIS: error= 2.49D-05 at cycle   4 NSaved=   4.
 NSaved= 4 IEnMin= 4 EnMin= -2048.75386770681     IErMin= 4 ErrMin= 2.49D-05
 ErrMax= 2.49D-05  0.00D+00 EMaxC= 1.00D-01 BMatC= 5.03D-07 BMatP= 9.74D-06
 IDIUse=1 WtCom= 1.00D+00 WtEn= 0.00D+00
 Coeff-Com: -0.312D-01 0.845D-01 0.265D+00 0.682D+00
 Coeff:     -0.312D-01 0.845D-01 0.265D+00 0.682D+00
 Gap=     0.283 Goal=   None    Shift=    0.000
 RMSDP=1.44D-06 MaxDP=1.32D-04 DE=-9.36D-06 OVMax= 5.04D-04

 Cycle  10  Pass 1  IDiag  1:
 RMSU=  1.28D-06    CP:  1.00D+00  1.06D+00  8.02D-01  1.10D+00
 E= -2048.75386854760     Delta-E=       -0.000000840788 Rises=F Damp=F
 DIIS: error= 1.52D-05 at cycle   5 NSaved=   5.
 NSaved= 5 IEnMin= 5 EnMin= -2048.75386854760     IErMin= 5 ErrMin= 1.52D-05
 ErrMax= 1.52D-05  0.00D+00 EMaxC= 1.00D-01 BMatC= 1.20D-07 BMatP= 5.03D-07
 IDIUse=1 WtCom= 1.00D+00 WtEn= 0.00D+00
 Coeff-Com: -0.321D-02-0.562D-01-0.120D+00 0.208D+00 0.972D+00
 Coeff:     -0.321D-02-0.562D-01-0.120D+00 0.208D+00 0.972D+00
 Gap=     0.283 Goal=   None    Shift=    0.000
 RMSDP=1.21D-06 MaxDP=7.66D-05 DE=-8.41D-07 OVMax= 2.47D-04

 Cycle  11  Pass 1  IDiag  1:
 RMSU=  4.88D-07    CP:  1.00D+00  1.06D+00  8.15D-01  1.38D+00  1.17D+00
 E= -2048.75386880754     Delta-E=       -0.000000259944 Rises=F Damp=F
 DIIS: error= 7.82D-06 at cycle   6 NSaved=   6.
 NSaved= 6 IEnMin= 6 EnMin= -2048.75386880754     IErMin= 6 ErrMin= 7.82D-06
 ErrMax= 7.82D-06  0.00D+00 EMaxC= 1.00D-01 BMatC= 2.86D-08 BMatP= 1.20D-07
 IDIUse=1 WtCom= 1.00D+00 WtEn= 0.00D+00
 Coeff-Com:  0.473D-02-0.453D-01-0.115D+00-0.915D-03 0.520D+00 0.637D+00
 Coeff:      0.473D-02-0.453D-01-0.115D+00-0.915D-03 0.520D+00 0.637D+00
 Gap=     0.283 Goal=   None    Shift=    0.000
 RMSDP=3.70D-07 MaxDP=3.72D-05 DE=-2.60D-07 OVMax= 1.31D-04

 Cycle  12  Pass 1  IDiag  1:
 RMSU=  1.84D-07    CP:  1.00D+00  1.06D+00  8.17D-01  1.45D+00  1.30D+00
                    CP:  9.29D-01
 E= -2048.75386884896     Delta-E=       -0.000000041418 Rises=F Damp=F
 DIIS: error= 1.63D-06 at cycle   7 NSaved=   7.
 NSaved= 7 IEnMin= 7 EnMin= -2048.75386884896     IErMin= 7 ErrMin= 1.63D-06
 ErrMax= 1.63D-06  0.00D+00 EMaxC= 1.00D-01 BMatC= 8.38D-10 BMatP= 2.86D-08
 IDIUse=1 WtCom= 1.00D+00 WtEn= 0.00D+00
 Coeff-Com:  0.120D-02-0.795D-02-0.217D-01-0.832D-02 0.641D-01 0.146D+00
 Coeff-Com:  0.827D+00
 Coeff:      0.120D-02-0.795D-02-0.217D-01-0.832D-02 0.641D-01 0.146D+00
 Coeff:      0.827D+00
 Gap=     0.283 Goal=   None    Shift=    0.000
 RMSDP=8.42D-08 MaxDP=5.04D-06 DE=-4.14D-08 OVMax= 2.25D-05

 Cycle  13  Pass 1  IDiag  1:
 RMSU=  5.01D-08    CP:  1.00D+00  1.06D+00  8.17D-01  1.46D+00  1.32D+00
                    CP:  1.02D+00  1.14D+00
 E= -2048.75386885116     Delta-E=       -0.000000002203 Rises=F Damp=F
 DIIS: error= 7.33D-07 at cycle   8 NSaved=   8.
 NSaved= 8 IEnMin= 8 EnMin= -2048.75386885116     IErMin= 8 ErrMin= 7.33D-07
 ErrMax= 7.33D-07  0.00D+00 EMaxC= 1.00D-01 BMatC= 3.38D-10 BMatP= 8.38D-10
 IDIUse=1 WtCom= 1.00D+00 WtEn= 0.00D+00
 Coeff-Com: -0.727D-03 0.878D-02 0.214D-01-0.231D-02-0.113D+00-0.100D+00
 Coeff-Com:  0.421D+00 0.766D+00
 Coeff:     -0.727D-03 0.878D-02 0.214D-01-0.231D-02-0.113D+00-0.100D+00
 Coeff:      0.421D+00 0.766D+00
 Gap=     0.283 Goal=   None    Shift=    0.000
 RMSDP=4.79D-08 MaxDP=2.89D-06 DE=-2.20D-09 OVMax= 1.18D-05

 Cycle  14  Pass 1  IDiag  1:
 RMSU=  2.78D-08    CP:  1.00D+00  1.06D+00  8.16D-01  1.47D+00  1.32D+00
                    CP:  1.06D+00  1.30D+00  1.09D+00
 E= -2048.75386885159     Delta-E=       -0.000000000424 Rises=F Damp=F
 DIIS: error= 2.06D-07 at cycle   9 NSaved=   9.
 NSaved= 9 IEnMin= 9 EnMin= -2048.75386885159     IErMin= 9 ErrMin= 2.06D-07
 ErrMax= 2.06D-07  0.00D+00 EMaxC= 1.00D-01 BMatC= 3.58D-11 BMatP= 3.38D-10
 IDIUse=1 WtCom= 1.00D+00 WtEn= 0.00D+00
 Coeff-Com: -0.458D-03 0.485D-02 0.121D-01 0.160D-03-0.572D-01-0.614D-01
 Coeff-Com:  0.902D-01 0.324D+00 0.688D+00
 Coeff:     -0.458D-03 0.485D-02 0.121D-01 0.160D-03-0.572D-01-0.614D-01
 Coeff:      0.902D-01 0.324D+00 0.688D+00
 Gap=     0.283 Goal=   None    Shift=    0.000
 RMSDP=1.40D-08 MaxDP=8.84D-07 DE=-4.24D-10 OVMax= 3.49D-06

 Cycle  15  Pass 1  IDiag  1:
 RMSU=  9.41D-09    CP:  1.00D+00  1.06D+00  8.16D-01  1.47D+00  1.32D+00
                    CP:  1.07D+00  1.33D+00  1.23D+00  1.10D+00
 E= -2048.75386885181     Delta-E=       -0.000000000226 Rises=F Damp=F
 DIIS: error= 8.36D-08 at cycle  10 NSaved=  10.
 NSaved=10 IEnMin=10 EnMin= -2048.75386885181     IErMin=10 ErrMin= 8.36D-08
 ErrMax= 8.36D-08  0.00D+00 EMaxC= 1.00D-01 BMatC= 5.48D-12 BMatP= 3.58D-11
 IDIUse=1 WtCom= 1.00D+00 WtEn= 0.00D+00
 Coeff-Com: -0.460D-06-0.245D-03-0.500D-03 0.196D-03 0.463D-02 0.485D-03
 Coeff-Com: -0.530D-01-0.518D-01 0.257D+00 0.843D+00
 Coeff:     -0.460D-06-0.245D-03-0.500D-03 0.196D-03 0.463D-02 0.485D-03
 Coeff:     -0.530D-01-0.518D-01 0.257D+00 0.843D+00
 Gap=     0.283 Goal=   None    Shift=    0.000
 RMSDP=6.92D-09 MaxDP=3.97D-07 DE=-2.26D-10 OVMax= 1.48D-06

 SCF Done:  E(RwB97XD) =  -2048.75386885     A.U. after   15 cycles
            NFock= 15  Conv=0.69D-08     -V/T= 2.0054
 KE= 2.037712439154D+03 PE=-1.587430405979D+04 EE= 6.241071258434D+03
 Leave Link  502 at Sun Jan 21 03:16:45 2018, MaxMem=  4294967296 cpu:           21583.8 elap:             697.3
 (Enter /share/apps/g16/l601.exe)
 Copying SCF densities to generalized density rwf, IOpCl= 0 IROHF=0.

 **********************************************************************

            Population analysis using the SCF density.

 **********************************************************************

 Orbital symmetries:
       Occupied  (A) (A) (A) (A) (A) (A) (A) (A) (A) (A) (A) (A)
                 (A) (A) (A) (A) (A) (A) (A) (A) (A) (A) (A) (A)
                 (A) (A) (A) (A) (A) (A) (A) (A) (A) (A) (A) (A)
                 (A) (A) (A) (A) (A) (A) (A) (A) (A) (A) (A) (A)
                 (A) (A) (A) (A) (A) (A) (A) (A) (A) (A) (A) (A)
                 (A) (A) (A) (A) (A) (A) (A) (A) (A) (A) (A) (A)
                 (A) (A) (A) (A) (A) (A) (A) (A) (A) (A) (A) (A)
                 (A) (A) (A) (A) (A) (A) (A) (A) (A) (A) (A) (A)
                 (A) (A) (A) (A) (A) (A) (A) (A) (A) (A) (A) (A)
                 (A) (A) (A) (A) (A) (A) (A) (A) (A) (A) (A) (A)
                 (A) (A) (A) (A) (A) (A) (A) (A) (A) (A) (A) (A)
                 (A) (A) (A) (A) (A) (A) (A) (A) (A) (A) (A) (A)
                 (A) (A) (A) (A) (A) (A) (A) (A) (A) (A)
       Virtual   (A) (A) (A) (A) (A) (A) (A) (A) (A) (A) (A) (A)
                 (A) (A) (A) (A) (A) (A) (A) (A) (A) (A) (A) (A)
                 (A) (A) (A) (A) (A) (A) (A) (A) (A) (A) (A) (A)
                 (A) (A) (A) (A) (A) (A) (A) (A) (A) (A) (A) (A)
                 (A) (A) (A) (A) (A) (A) (A) (A) (A) (A) (A) (A)
                 (A) (A) (A) (A) (A) (A) (A) (A) (A) (A) (A) (A)
                 (A) (A) (A) (A) (A) (A) (A) (A) (A) (A) (A) (A)
                 (A) (A) (A) (A) (A) (A) (A) (A) (A) (A) (A) (A)
                 (A) (A) (A) (A) (A) (A) (A) (A) (A) (A) (A) (A)
                 (A) (A) (A) (A) (A) (A) (A) (A) (A) (A) (A) (A)
                 (A) (A) (A) (A) (A) (A) (A) (A) (A) (A) (A) (A)
                 (A) (A) (A) (A) (A) (A) (A) (A) (A) (A) (A) (A)
                 (A) (A) (A) (A) (A) (A) (A) (A) (A) (A) (A) (A)
                 (A) (A) (A) (A) (A) (A) (A) (A) (A) (A) (A) (A)
                 (A) (A) (A) (A) (A) (A) (A) (A) (A) (A) (A) (A)
                 (A) (A) (A) (A) (A) (A) (A) (A) (A) (A) (A) (A)
                 (A) (A) (A) (A) (A) (A) (A) (A) (A) (A) (A) (A)
                 (A) (A) (A) (A) (A) (A) (A) (A) (A) (A) (A) (A)
                 (A) (A) (A) (A) (A) (A) (A) (A) (A) (A) (A) (A)
                 (A) (A) (A) (A) (A) (A) (A) (A) (A) (A) (A) (A)
                 (A) (A) (A) (A) (A) (A) (A) (A) (A) (A) (A) (A)
                 (A) (A) (A) (A) (A) (A) (A) (A) (A) (A) (A) (A)
                 (A) (A) (A) (A) (A) (A) (A) (A) (A) (A) (A) (A)
                 (A) (A) (A) (A) (A) (A) (A) (A) (A) (A) (A) (A)
                 (A) (A) (A) (A) (A) (A) (A) (A) (A) (A) (A) (A)
                 (A) (A) (A) (A) (A) (A) (A) (A) (A) (A) (A) (A)
                 (A) (A) (A) (A) (A) (A) (A) (A) (A) (A) (A) (A)
                 (A) (A) (A) (A) (A) (A) (A) (A) (A) (A) (A) (A)
                 (A) (A) (A) (A) (A) (A) (A) (A) (A) (A) (A) (A)
                 (A) (A) (A) (A) (A) (A) (A) (A) (A) (A) (A) (A)
                 (A) (A) (A) (A) (A) (A) (A) (A) (A) (A) (A) (A)
                 (A) (A) (A) (A) (A) (A) (A) (A) (A) (A) (A) (A)
                 (A) (A) (A) (A) (A) (A) (A) (A) (A) (A) (A) (A)
                 (A) (A) (A) (A) (A) (A) (A) (A) (A) (A) (A) (A)
                 (A) (A) (A) (A) (A) (A) (A) (A) (A) (A) (A) (A)
                 (A) (A) (A) (A) (A) (A) (A) (A) (A) (A) (A) (A)
                 (A) (A) (A) (A) (A) (A) (A) (A) (A) (A) (A) (A)
                 (A) (A) (A) (A) (A) (A) (A) (A) (A) (A) (A) (A)
                 (A) (A) (A) (A) (A) (A) (A) (A) (A) (A) (A) (A)
                 (A) (A) (A) (A) (A) (A) (A) (A) (A) (A) (A) (A)
                 (A) (A) (A) (A) (A) (A) (A) (A) (A) (A) (A) (A)
                 (A) (A) (A) (A) (A) (A) (A) (A) (A) (A) (A) (A)
                 (A) (A) (A) (A) (A) (A) (A) (A) (A) (A) (A) (A)
                 (A) (A) (A) (A) (A) (A) (A) (A) (A) (A) (A) (A)
                 (A) (A) (A) (A) (A) (A) (A) (A) (A) (A) (A) (A)
                 (A) (A) (A) (A) (A) (A) (A) (A) (A) (A) (A) (A)
                 (A) (A) (A) (A) (A) (A) (A) (A) (A) (A) (A) (A)
                 (A) (A) (A) (A) (A) (A) (A) (A) (A) (A) (A) (A)
                 (A) (A) (A) (A) (A) (A) (A)
 The electronic state is 1-A.
 Alpha  occ. eigenvalues --  -19.25769 -19.21915 -19.20528 -14.52282 -14.52211
 Alpha  occ. eigenvalues --  -14.49027 -14.48509 -14.47699 -14.47513 -14.46759
 Alpha  occ. eigenvalues --  -14.46402 -14.45246 -14.43863 -14.43792 -14.42501
 Alpha  occ. eigenvalues --  -14.41857 -14.41559 -14.41307 -14.40705 -14.40492
 Alpha  occ. eigenvalues --  -10.45369 -10.41031 -10.40058 -10.39473 -10.38095
 Alpha  occ. eigenvalues --  -10.37773 -10.37628 -10.36865 -10.35671 -10.35369
 Alpha  occ. eigenvalues --  -10.35229 -10.34245 -10.34108 -10.33923 -10.33578
 Alpha  occ. eigenvalues --  -10.33380 -10.33167 -10.32271 -10.31355 -10.30887
 Alpha  occ. eigenvalues --  -10.30441 -10.28699 -10.27887  -1.19352  -1.14925
 Alpha  occ. eigenvalues --   -1.13065  -1.12951  -1.11566  -1.10392  -1.09184
 Alpha  occ. eigenvalues --   -1.08783  -1.08395  -1.05283  -1.04315  -1.02384
 Alpha  occ. eigenvalues --   -1.00722  -1.00688  -0.99523  -0.98389  -0.97195
 Alpha  occ. eigenvalues --   -0.96351  -0.96341  -0.92953  -0.90885  -0.87358
 Alpha  occ. eigenvalues --   -0.85744  -0.84202  -0.83862  -0.83600  -0.82589
 Alpha  occ. eigenvalues --   -0.82187  -0.78707  -0.76680  -0.74518  -0.74357
 Alpha  occ. eigenvalues --   -0.73474  -0.73236  -0.73141  -0.71314  -0.70045
 Alpha  occ. eigenvalues --   -0.67187  -0.66555  -0.66451  -0.66337  -0.64321
 Alpha  occ. eigenvalues --   -0.63882  -0.63578  -0.62969  -0.62535  -0.61557
 Alpha  occ. eigenvalues --   -0.60723  -0.60547  -0.60163  -0.59338  -0.59187
 Alpha  occ. eigenvalues --   -0.58699  -0.58144  -0.56900  -0.56801  -0.56257
 Alpha  occ. eigenvalues --   -0.55851  -0.55701  -0.55089  -0.54516  -0.54221
 Alpha  occ. eigenvalues --   -0.53785  -0.53454  -0.53170  -0.53015  -0.52735
 Alpha  occ. eigenvalues --   -0.52448  -0.52420  -0.52063  -0.51057  -0.50488
 Alpha  occ. eigenvalues --   -0.49975  -0.49665  -0.49345  -0.49022  -0.48856
 Alpha  occ. eigenvalues --   -0.48651  -0.48278  -0.48105  -0.47362  -0.47265
 Alpha  occ. eigenvalues --   -0.47204  -0.45557  -0.45099  -0.44363  -0.43718
 Alpha  occ. eigenvalues --   -0.41407  -0.40427  -0.39352  -0.37468  -0.37392
 Alpha  occ. eigenvalues --   -0.37269  -0.37125  -0.37065  -0.35946  -0.34456
 Alpha  occ. eigenvalues --   -0.34011  -0.33925  -0.33647  -0.33489  -0.33119
 Alpha  occ. eigenvalues --   -0.32543  -0.32238  -0.31878  -0.31752  -0.31175
 Alpha  occ. eigenvalues --   -0.30718  -0.29480  -0.25922  -0.25181
 Alpha virt. eigenvalues --    0.03149   0.04403   0.07373   0.07641   0.08493
 Alpha virt. eigenvalues --    0.09101   0.09914   0.10740   0.10923   0.11577
 Alpha virt. eigenvalues --    0.13127   0.14023   0.14468   0.14509   0.15040
 Alpha virt. eigenvalues --    0.15235   0.16205   0.17009   0.17703   0.18397
 Alpha virt. eigenvalues --    0.18806   0.19205   0.19634   0.20118   0.20340
 Alpha virt. eigenvalues --    0.20698   0.20955   0.21020   0.21334   0.22163
 Alpha virt. eigenvalues --    0.22539   0.22768   0.23745   0.23820   0.23897
 Alpha virt. eigenvalues --    0.24061   0.24574   0.24864   0.25221   0.25407
 Alpha virt. eigenvalues --    0.25483   0.26671   0.27126   0.27547   0.28252
 Alpha virt. eigenvalues --    0.28687   0.28908   0.29742   0.30247   0.30681
 Alpha virt. eigenvalues --    0.31134   0.31587   0.32531   0.32908   0.33618
 Alpha virt. eigenvalues --    0.33807   0.33981   0.35017   0.36129   0.36495
 Alpha virt. eigenvalues --    0.36681   0.37564   0.37897   0.39012   0.39167
 Alpha virt. eigenvalues --    0.40002   0.40220   0.40986   0.41315   0.41904
 Alpha virt. eigenvalues --    0.42033   0.42407   0.42933   0.43936   0.44410
 Alpha virt. eigenvalues --    0.44570   0.44934   0.45814   0.46338   0.47017
 Alpha virt. eigenvalues --    0.47556   0.48116   0.48714   0.49120   0.49474
 Alpha virt. eigenvalues --    0.49802   0.49987   0.50307   0.51068   0.51238
 Alpha virt. eigenvalues --    0.51482   0.51893   0.52110   0.53228   0.53787
 Alpha virt. eigenvalues --    0.54167   0.54265   0.54623   0.55021   0.55374
 Alpha virt. eigenvalues --    0.55704   0.55837   0.56295   0.57003   0.57311
 Alpha virt. eigenvalues --    0.57553   0.57907   0.58671   0.58965   0.59702
 Alpha virt. eigenvalues --    0.59958   0.60595   0.60805   0.61023   0.61456
 Alpha virt. eigenvalues --    0.62141   0.62341   0.62475   0.63019   0.63755
 Alpha virt. eigenvalues --    0.64257   0.64637   0.64981   0.65169   0.65625
 Alpha virt. eigenvalues --    0.65954   0.66033   0.66761   0.66935   0.67368
 Alpha virt. eigenvalues --    0.67742   0.68301   0.68454   0.68911   0.69612
 Alpha virt. eigenvalues --    0.70200   0.70569   0.71301   0.72041   0.72288
 Alpha virt. eigenvalues --    0.72559   0.73404   0.73557   0.73765   0.74071
 Alpha virt. eigenvalues --    0.74562   0.74651   0.74937   0.75405   0.75621
 Alpha virt. eigenvalues --    0.76193   0.76303   0.76589   0.77038   0.77399
 Alpha virt. eigenvalues --    0.77737   0.78187   0.78362   0.78851   0.79096
 Alpha virt. eigenvalues --    0.79188   0.80048   0.80350   0.80680   0.80990
 Alpha virt. eigenvalues --    0.81451   0.82256   0.82414   0.83236   0.83309
 Alpha virt. eigenvalues --    0.84112   0.84501   0.84974   0.85311   0.85605
 Alpha virt. eigenvalues --    0.86305   0.86398   0.86924   0.87326   0.87865
 Alpha virt. eigenvalues --    0.88546   0.88791   0.89461   0.89979   0.90300
 Alpha virt. eigenvalues --    0.90513   0.90999   0.91545   0.91968   0.92631
 Alpha virt. eigenvalues --    0.92979   0.93501   0.94152   0.94307   0.94724
 Alpha virt. eigenvalues --    0.94996   0.95265   0.95492   0.96195   0.96360
 Alpha virt. eigenvalues --    0.97229   0.97978   0.98291   0.98617   0.98899
 Alpha virt. eigenvalues --    0.99093   1.00057   1.00139   1.00449   1.01241
 Alpha virt. eigenvalues --    1.01625   1.02122   1.02461   1.02992   1.03118
 Alpha virt. eigenvalues --    1.03947   1.04570   1.04681   1.05267   1.05855
 Alpha virt. eigenvalues --    1.06509   1.06733   1.06838   1.07219   1.07684
 Alpha virt. eigenvalues --    1.08443   1.08977   1.09329   1.10004   1.10375
 Alpha virt. eigenvalues --    1.11767   1.11901   1.12545   1.12831   1.13189
 Alpha virt. eigenvalues --    1.14012   1.14529   1.15173   1.15578   1.16031
 Alpha virt. eigenvalues --    1.16746   1.17350   1.17579   1.17927   1.18171
 Alpha virt. eigenvalues --    1.18440   1.19021   1.19475   1.19705   1.20292
 Alpha virt. eigenvalues --    1.20545   1.20830   1.21228   1.21478   1.21883
 Alpha virt. eigenvalues --    1.22370   1.22751   1.23032   1.23322   1.23934
 Alpha virt. eigenvalues --    1.24077   1.24443   1.24798   1.25192   1.25771
 Alpha virt. eigenvalues --    1.25990   1.26559   1.27000   1.27606   1.27861
 Alpha virt. eigenvalues --    1.28184   1.28545   1.29827   1.30473   1.30953
 Alpha virt. eigenvalues --    1.31953   1.32482   1.33413   1.33654   1.34372
 Alpha virt. eigenvalues --    1.35070   1.35188   1.36067   1.36584   1.36798
 Alpha virt. eigenvalues --    1.37763   1.38113   1.38606   1.39333   1.40190
 Alpha virt. eigenvalues --    1.40634   1.41962   1.42580   1.43229   1.44326
 Alpha virt. eigenvalues --    1.45389   1.45965   1.46933   1.47982   1.49049
 Alpha virt. eigenvalues --    1.49329   1.49674   1.50451   1.50693   1.51077
 Alpha virt. eigenvalues --    1.51966   1.52267   1.53363   1.53797   1.54987
 Alpha virt. eigenvalues --    1.55657   1.55750   1.56044   1.56687   1.57548
 Alpha virt. eigenvalues --    1.57796   1.59005   1.60255   1.60608   1.61437
 Alpha virt. eigenvalues --    1.62191   1.62539   1.62968   1.63405   1.63651
 Alpha virt. eigenvalues --    1.64469   1.64831   1.65252   1.66197   1.66639
 Alpha virt. eigenvalues --    1.66785   1.67634   1.68917   1.69027   1.69553
 Alpha virt. eigenvalues --    1.70365   1.70972   1.71242   1.71861   1.72017
 Alpha virt. eigenvalues --    1.72796   1.72852   1.73265   1.73671   1.73924
 Alpha virt. eigenvalues --    1.74699   1.74897   1.75065   1.75571   1.75765
 Alpha virt. eigenvalues --    1.75953   1.76321   1.76612   1.77252   1.77509
 Alpha virt. eigenvalues --    1.77766   1.78161   1.78688   1.79079   1.79376
 Alpha virt. eigenvalues --    1.79601   1.79997   1.80190   1.80439   1.80797
 Alpha virt. eigenvalues --    1.81251   1.81858   1.82011   1.82261   1.82462
 Alpha virt. eigenvalues --    1.82811   1.83759   1.84096   1.84331   1.85026
 Alpha virt. eigenvalues --    1.85588   1.86340   1.86697   1.87003   1.87359
 Alpha virt. eigenvalues --    1.87780   1.88216   1.88784   1.89149   1.89544
 Alpha virt. eigenvalues --    1.90061   1.90460   1.90807   1.91605   1.91949
 Alpha virt. eigenvalues --    1.92525   1.92634   1.93268   1.93723   1.94145
 Alpha virt. eigenvalues --    1.95147   1.95396   1.96493   1.96870   1.98453
 Alpha virt. eigenvalues --    1.99218   1.99741   2.00078   2.01175   2.01948
 Alpha virt. eigenvalues --    2.02157   2.02372   2.03163   2.03895   2.03993
 Alpha virt. eigenvalues --    2.04303   2.05765   2.06577   2.07365   2.07675
 Alpha virt. eigenvalues --    2.07862   2.09010   2.09662   2.10199   2.10404
 Alpha virt. eigenvalues --    2.11104   2.11426   2.11995   2.12829   2.13790
 Alpha virt. eigenvalues --    2.14501   2.16367   2.17002   2.17746   2.17790
 Alpha virt. eigenvalues --    2.18859   2.19226   2.19743   2.20085   2.21398
 Alpha virt. eigenvalues --    2.21932   2.22446   2.22776   2.23883   2.24126
 Alpha virt. eigenvalues --    2.24571   2.25355   2.26010   2.26745   2.27050
 Alpha virt. eigenvalues --    2.27539   2.27795   2.29295   2.29507   2.29666
 Alpha virt. eigenvalues --    2.30139   2.30905   2.31591   2.31879   2.32853
 Alpha virt. eigenvalues --    2.33391   2.33709   2.33992   2.34101   2.34696
 Alpha virt. eigenvalues --    2.34980   2.35595   2.36306   2.36883   2.37520
 Alpha virt. eigenvalues --    2.38224   2.39034   2.40040   2.40589   2.41530
 Alpha virt. eigenvalues --    2.41761   2.42539   2.42744   2.43469   2.43686
 Alpha virt. eigenvalues --    2.44771   2.45055   2.45485   2.46143   2.46581
 Alpha virt. eigenvalues --    2.47771   2.48423   2.49906   2.50132   2.52058
 Alpha virt. eigenvalues --    2.52175   2.54368   2.55046   2.55965   2.56180
 Alpha virt. eigenvalues --    2.57087   2.57400   2.58562   2.59646   2.60245
 Alpha virt. eigenvalues --    2.61263   2.61951   2.62451   2.62997   2.63578
 Alpha virt. eigenvalues --    2.64475   2.65172   2.65364   2.65630   2.66405
 Alpha virt. eigenvalues --    2.67224   2.67876   2.68601   2.69186   2.69650
 Alpha virt. eigenvalues --    2.70856   2.70952   2.71533   2.71912   2.72458
 Alpha virt. eigenvalues --    2.73265   2.74229   2.75532   2.75751   2.76019
 Alpha virt. eigenvalues --    2.77108   2.78167   2.79109   2.79746   2.79876
 Alpha virt. eigenvalues --    2.80179   2.80370   2.80478   2.80805   2.81545
 Alpha virt. eigenvalues --    2.82142   2.82554   2.82912   2.84330   2.84476
 Alpha virt. eigenvalues --    2.85115   2.85351   2.86471   2.86830   2.87059
 Alpha virt. eigenvalues --    2.87883   2.88271   2.89457   2.92555   2.94006
 Alpha virt. eigenvalues --    2.94323   2.96005   2.97485   2.98595   2.99381
 Alpha virt. eigenvalues --    2.99519   3.01073   3.02565   3.05194   3.05324
 Alpha virt. eigenvalues --    3.07306   3.10049   3.10946   3.13254   3.14850
 Alpha virt. eigenvalues --    3.15195   3.16599   3.16806   3.18442   3.21304
 Alpha virt. eigenvalues --    3.22434   3.23052   3.23717   3.24035   3.27250
 Alpha virt. eigenvalues --    3.45237   3.47454   3.47806   3.49494   3.50497
 Alpha virt. eigenvalues --    3.53291   3.54795   3.56311   3.57773   3.60178
 Alpha virt. eigenvalues --    3.63468   3.70697   3.75044
          Condensed to atoms (all electrons):
 Mulliken charges:
               1
     1  N   -0.311866
     2  C    0.179555
     3  C    0.063708
     4  N   -0.256310
     5  C    0.132706
     6  H    0.026826
     7  N   -0.287497
     8  C    0.134898
     9  H    0.013306
    10  N   -0.289002
    11  C    0.231059
    12  C    0.102694
    13  N   -0.048196
    14  H    0.110855
    15  H    0.088330
    16  H    0.027185
    17  H    0.032392
    18  H    0.024074
    19  N   -0.299446
    20  C    0.249789
    21  C    0.180683
    22  N   -0.110357
    23  H    0.112820
    24  H    0.115242
    25  N   -0.305518
    26  C    0.228542
    27  N   -0.144292
    28  H    0.125408
    29  C    0.172955
    30  O   -0.324122
    31  C   -0.006106
    32  N   -0.222866
    33  C    0.128026
    34  H    0.019418
    35  H    0.027261
    36  H    0.026965
    37  H    0.021413
    38  H    0.053379
    39  H    0.060844
    40  H    0.071930
    41  H    0.026228
    42  C   -0.115750
    43  O   -0.270808
    44  C    0.167250
    45  H    0.133522
    46  N   -0.121488
    47  O   -0.341167
    48  C    0.340723
    49  H    0.046202
    50  C    0.181406
    51  C    0.040080
    52  N   -0.280576
    53  H    0.034575
    54  H    0.038544
    55  H    0.022793
    56  H    0.126346
    57  H    0.117548
    58  N   -0.055958
    59  C    0.103052
    60  C    0.246577
    61  N   -0.273700
    62  H    0.040374
    63  C    0.152874
    64  N   -0.301127
    65  H    0.036663
    66  C    0.112189
    67  N   -0.254306
    68  C    0.013350
    69  C    0.181155
    70  N   -0.303256
 Sum of Mulliken charges =  -0.00000
 Mulliken charges with hydrogens summed into heavy atoms:
               1
     1  N   -0.311866
     2  C    0.263206
     3  C    0.063708
     4  N   -0.256310
     5  C    0.159532
     7  N   -0.287497
     8  C    0.148204
    10  N   -0.289002
    11  C    0.231059
    12  C    0.102694
    13  N    0.150988
    19  N   -0.299446
    20  C    0.249789
    21  C    0.256322
    22  N    0.117705
    25  N   -0.305518
    26  C    0.228542
    27  N   -0.018884
    29  C    0.172955
    30  O   -0.324122
    31  C   -0.006106
    32  N   -0.222866
    33  C    0.147444
    42  C   -0.089522
    43  O   -0.270808
    44  C    0.167250
    46  N    0.012034
    47  O   -0.341167
    48  C    0.340723
    50  C    0.227608
    51  C    0.226233
    52  N   -0.280576
    58  N    0.187936
    59  C    0.103052
    60  C    0.246577
    61  N   -0.273700
    63  C    0.193248
    64  N   -0.301127
    66  C    0.148852
    67  N   -0.254306
    68  C    0.013350
    69  C    0.277066
    70  N   -0.303256
 Electronic spatial extent (au):  <R**2>=          22192.5963
 Charge=             -0.0000 electrons
 Dipole moment (field-independent basis, Debye):
    X=              6.6611    Y=              6.3468    Z=              3.2212  Tot=              9.7482
 Quadrupole moment (field-independent basis, Debye-Ang):
   XX=           -146.3797   YY=           -224.5808   ZZ=           -257.0679
   XY=              8.4284   XZ=              5.8200   YZ=             -6.9625
 Traceless Quadrupole moment (field-independent basis, Debye-Ang):
   XX=             62.9631   YY=            -15.2380   ZZ=            -47.7251
   XY=              8.4284   XZ=              5.8200   YZ=             -6.9625
 Octapole moment (field-independent basis, Debye-Ang**2):
  XXX=            -59.4520  YYY=             83.6700  ZZZ=             18.3641  XYY=             55.5705
  XXY=             52.0084  XXZ=            -25.9354  XZZ=             48.6598  YZZ=             47.8015
  YYZ=             53.7591  XYZ=             50.2463
 Hexadecapole moment (field-independent basis, Debye-Ang**3):
 XXXX=         -15477.0910 YYYY=          -4636.1139 ZZZZ=          -3654.5980 XXXY=            556.9077
 XXXZ=            -20.9948 YYYX=            -24.1703 YYYZ=            -49.2933 ZZZX=             71.0149
 ZZZY=             23.7521 XXYY=          -3771.7002 XXZZ=          -3909.7952 YYZZ=          -1481.7156
 XXYZ=             99.1208 YYXZ=            167.3085 ZZXY=            109.9579
 N-N= 5.546766493354D+03 E-N=-1.587430406051D+04  KE= 2.037712439154D+03
 No NMR shielding tensors so no spin-rotation constants.
 Leave Link  601 at Sun Jan 21 03:16:47 2018, MaxMem=  4294967296 cpu:              44.7 elap:               1.6
 (Enter /share/apps/g16/l9999.exe)
 1\1\GINC-COMPUTE-0-3\SP\RwB97XD\CC-pVDZ\C23H27N17O3\SATYA\21-Jan-2018\
 0\\#p wb97xd/cc-pvdz sp scf=(maxcycles=20)\\Base pair stacking\\0,1\N,
 0,4.73864,4.86655,-6.47105\C,0,5.2114,6.26082,-6.57363\C,0,3.46611,3.0
 7507,-6.37851\N,0,4.77422,2.6285,-6.25948\C,0,5.48851,3.72568,-6.32\H,
 0,6.57662,3.76124,-6.25909\N,0,1.11296,3.14232,-6.52372\C,0,1.23423,4.
 46867,-6.6407\H,0,0.29727,5.0137,-6.74702\N,0,2.33397,5.2193,-6.64603\
 C,0,3.42832,4.45235,-6.50964\C,0,2.23266,2.39873,-6.38803\N,0,2.11366,
 1.07459,-6.27112\H,0,2.91556,0.48497,-6.1686\H,0,1.21938,0.62705,-6.28
 203\H,0,5.81229,6.35291,-7.36775\H,0,4.42768,6.87254,-6.67715\H,0,5.71
 609,6.50562,-5.74576\N,0,1.31896,5.27432,-3.26456\C,0,0.39671,4.25574,
 -3.26328\C,0,1.00149,6.71326,-3.36129\N,0,-2.90521,3.1877,-3.39872\H,0
 ,-3.40111,2.31995,-3.38065\H,0,-3.45248,4.02151,-3.47605\N,0,-0.94367,
 4.39714,-3.34948\C,0,-1.5665,3.23224,-3.32272\N,0,-0.92743,2.02045,-3.
 21948\H,0,-1.4846,1.18,-3.20649\C,0,0.45066,1.85123,-3.12957\O,0,0.926
 73,0.71279,-3.03986\C,0,1.1333,3.09386,-3.15705\N,0,2.49067,3.37731,-3
 .09292\C,0,2.55265,4.67956,-3.16\H,0,3.47608,5.25926,-3.13738\H,0,1.43
 516,7.09798,-4.17537\H,0,0.01134,6.83036,-3.42565\H,0,1.33986,7.18631,
 -2.54855\H,0,-4.77203,-2.64642,-3.84208\H,0,-4.67288,-2.74827,-2.08582
 \H,0,-4.49376,-1.18826,-2.88935\H,0,-0.56699,-4.92671,-3.32784\C,0,-0.
 97432,-3.9189,-3.2464\O,0,1.14684,-2.85852,-3.30466\C,0,-0.08046,-2.80
 148,-3.23206\H,0,-0.10016,-0.75853,-3.11248\N,0,-0.69902,-1.57211,-3.1
 2585\O,0,-2.50087,-0.20181,-2.94466\C,0,-2.04669,-1.3288,-3.03565\H,0,
 -3.01565,-4.52913,-3.16654\C,0,-2.29377,-3.71354,-3.16\C,0,-4.2906,-2.
 24635,-2.96218\N,0,-2.8433,-2.45672,-3.05609\H,0,-6.2176,0.17062,-6.86
 174\H,0,-5.34313,1.15786,-5.90113\H,0,-6.2299,-0.04463,-5.24405\H,0,0.
 7452,-2.33707,-6.31721\H,0,-0.60104,-3.37434,-6.46493\N,0,-0.24865,-2.
 4463,-6.33931\C,0,-1.06849,-1.40151,-6.20724\C,0,-3.18852,-0.3285,-6.0
 8142\N,0,-2.68712,0.90641,-5.91402\H,0,-0.86607,1.83677,-5.77681\C,0,-
 1.35605,0.87297,-5.90822\N,0,-0.53311,-0.17245,-6.04035\H,0,-5.45489,-
 2.61179,-6.40123\C,0,-4.52239,-2.05253,-6.32\N,0,-3.32637,-2.58493,-6.
 38132\C,0,-2.47138,-1.50269,-6.23142\C,0,-5.66825,0.22115,-6.02768\N,0
 ,-4.5134,-0.69087,-6.1396\\Version=EM64L-G16RevA.03\State=1-A\HF=-2048
 .7538689\RMSD=6.915e-09\Dipole=-3.82048,-0.1118401,-0.3168891\Quadrupo
 le=18.8689217,12.0885558,-30.9574775,31.5459406,-11.4972426,4.0646036\
 PG=C01 [X(C23H27N17O3)]\\@


 THE UNDERLYING PHYSICAL LAWS NECESSARY FOR THE 
 MATHEMATICAL THEORY OF A LARGE PART OF PHYSICS AND THE
 WHOLE OF CHEMISTRY ARE THUS COMPLETELY KNOWN, AND THE
 DIFFICULTY IS ONLY THAT THE EXACT APPLICATION OF THESE
 LAWS LEADS TO EQUATIONS MUCH TOO COMPLICATED 
 TO BE SOLUBLE.

                                        -- P. A. M. DIRAC, 1929
 Job cpu time:       0 days  6 hours 10 minutes 20.6 seconds.
 Elapsed time:       0 days  0 hours 11 minutes 57.8 seconds.
 File lengths (MBytes):  RWF=    298 Int=      0 D2E=      0 Chk=     33 Scr=      1
 Normal termination of Gaussian 16 at Sun Jan 21 03:16:48 2018.
