 Entering Gaussian System, Link 0=g16
 Input=str30.10.-2.5.com
 Output=str30.10.-2.5.log
 Initial command:
 /share/apps/g16/l1.exe "/state/partition1/scr/Gau-2592.inp" -scrdir="/state/partition1/scr/"
 Entering Link 1 = /share/apps/g16/l1.exe PID=      2593.
  
 Copyright (c) 1988,1990,1992,1993,1995,1998,2003,2009,2016,
            Gaussian, Inc.  All Rights Reserved.
  
 This is part of the Gaussian(R) 16 program.  It is based on
 the Gaussian(R) 09 system (copyright 2009, Gaussian, Inc.),
 the Gaussian(R) 03 system (copyright 2003, Gaussian, Inc.),
 the Gaussian(R) 98 system (copyright 1998, Gaussian, Inc.),
 the Gaussian(R) 94 system (copyright 1995, Gaussian, Inc.),
 the Gaussian 92(TM) system (copyright 1992, Gaussian, Inc.),
 the Gaussian 90(TM) system (copyright 1990, Gaussian, Inc.),
 the Gaussian 88(TM) system (copyright 1988, Gaussian, Inc.),
 the Gaussian 86(TM) system (copyright 1986, Carnegie Mellon
 University), and the Gaussian 82(TM) system (copyright 1983,
 Carnegie Mellon University). Gaussian is a federally registered
 trademark of Gaussian, Inc.
  
 This software contains proprietary and confidential information,
 including trade secrets, belonging to Gaussian, Inc.
  
 This software is provided under written license and may be
 used, copied, transmitted, or stored only in accord with that
 written license.
  
 The following legend is applicable only to US Government
 contracts under FAR:
  
                    RESTRICTED RIGHTS LEGEND
  
 Use, reproduction and disclosure by the US Government is
 subject to restrictions as set forth in subparagraphs (a)
 and (c) of the Commercial Computer Software - Restricted
 Rights clause in FAR 52.227-19.
  
 Gaussian, Inc.
 340 Quinnipiac St., Bldg. 40, Wallingford CT 06492
  
  
 ---------------------------------------------------------------
 Warning -- This program may not be used in any manner that
 competes with the business of Gaussian, Inc. or will provide
 assistance to any competitor of Gaussian, Inc.  The licensee
 of this program is prohibited from giving any competitor of
 Gaussian, Inc. access to this program.  By using this program,
 the user acknowledges that Gaussian, Inc. is engaged in the
 business of creating and licensing software in the field of
 computational chemistry and represents and warrants to the
 licensee that it is not a competitor of Gaussian, Inc. and that
 it will not use this program in any manner prohibited above.
 ---------------------------------------------------------------
  

 Cite this work as:
 Gaussian 16, Revision A.03,
 M. J. Frisch, G. W. Trucks, H. B. Schlegel, G. E. Scuseria, 
 M. A. Robb, J. R. Cheeseman, G. Scalmani, V. Barone, 
 G. A. Petersson, H. Nakatsuji, X. Li, M. Caricato, A. V. Marenich, 
 J. Bloino, B. G. Janesko, R. Gomperts, B. Mennucci, H. P. Hratchian, 
 J. V. Ortiz, A. F. Izmaylov, J. L. Sonnenberg, D. Williams-Young, 
 F. Ding, F. Lipparini, F. Egidi, J. Goings, B. Peng, A. Petrone, 
 T. Henderson, D. Ranasinghe, V. G. Zakrzewski, J. Gao, N. Rega, 
 G. Zheng, W. Liang, M. Hada, M. Ehara, K. Toyota, R. Fukuda, 
 J. Hasegawa, M. Ishida, T. Nakajima, Y. Honda, O. Kitao, H. Nakai, 
 T. Vreven, K. Throssell, J. A. Montgomery, Jr., J. E. Peralta, 
 F. Ogliaro, M. J. Bearpark, J. J. Heyd, E. N. Brothers, K. N. Kudin, 
 V. N. Staroverov, T. A. Keith, R. Kobayashi, J. Normand, 
 K. Raghavachari, A. P. Rendell, J. C. Burant, S. S. Iyengar, 
 J. Tomasi, M. Cossi, J. M. Millam, M. Klene, C. Adamo, R. Cammi, 
 J. W. Ochterski, R. L. Martin, K. Morokuma, O. Farkas, 
 J. B. Foresman, and D. J. Fox, Gaussian, Inc., Wallingford CT, 2016.
 
 ******************************************
 Gaussian 16:  EM64L-G16RevA.03 25-Dec-2016
                21-Jan-2018 
 ******************************************
 %nprocshared=32
 Will use up to   32 processors via shared memory.
 %mem=32GB
 %chk=allatoms_t.chk
 ---------------------------------------
 #p wb97xd/cc-pvdz sp scf=(maxcycles=20)
 ---------------------------------------
 1/38=1,172=1/1;
 2/12=2,17=6,18=5,40=1/2;
 3/5=16,11=2,25=1,30=1,74=-58/1,2,3;
 4//1;
 5/5=2,7=20,38=5/2;
 6/7=2,8=2,9=2,10=2,28=1/1;
 99/5=1,9=1/99;
 Leave Link    1 at Sun Jan 21 09:01:22 2018, MaxMem=  4294967296 cpu:               2.7 elap:               0.2
 (Enter /share/apps/g16/l101.exe)
 ------------------
 Base pair stacking
 ------------------
 Symbolic Z-matrix:
 Charge =  0 Multiplicity = 1
 N                     7.66329   7.90086  -5.48568 
 C                     8.1924    9.26585  -5.67237 
 C                     6.35545   6.13266  -5.46778 
 N                     7.56415   5.72691  -4.92084 
 C                     8.3037    6.80843  -4.95352 
 H                     9.33326   6.86643  -4.59914 
 N                     4.13745   6.14733  -6.26979 
 C                     4.33063   7.43875  -6.55701 
 H                     3.47822   7.94817  -7.0044 
 N                     5.41358   8.19183  -6.37542 
 C                     6.40145   7.47015  -5.82067 
 C                     5.15063   5.4489   -5.71235 
 N                     4.95973   4.15967  -5.42492 
 H                     5.68196   3.60401  -5.01159 
 H                     4.08875   3.70553  -5.61282 
 H                     8.9919    9.23574  -6.27243 
 H                     7.48865   9.84338  -6.08508 
 H                     8.45683   9.64714  -4.78654 
 N                     2.13452   7.18998  -3.2096 
 C                     1.21873   6.1709   -3.31377 
 C                     1.84475   8.62281  -3.41871 
 N                    -2.02337   5.09252  -3.93639 
 H                    -2.52035   4.22556  -3.96142 
 H                    -2.54633   5.92126  -4.13744 
 N                    -0.08918   6.30619  -3.62218 
 C                    -0.71444   5.14255  -3.64635 
 N                    -0.10715   3.93746  -3.38852 
 H                    -0.66362   3.09746  -3.42966 
 C                     1.23722   3.7746   -3.06913 
 O                     1.68627   2.64194  -2.85424 
 C                     1.92204   5.01598  -3.03933 
 N                     3.25259   5.30419  -2.76832 
 C                     3.33171   6.60239  -2.88076 
 H                     4.2424    7.18405  -2.73384 
 H                     2.40669   8.9724   -4.16759 
 H                     0.87876   8.73536  -3.64776 
 H                     2.04951   9.1314   -2.58311 
 H                    -3.82537  -0.75846  -4.42361 
 H                    -4.01268  -0.78349  -2.67177 
 H                    -3.69723   0.7403   -3.50239 
 H                     0.22831  -3.00722  -3.13621 
 C                    -0.18135  -1.99749  -3.16558 
 O                     1.92695  -0.93715  -2.92501 
 C                     0.70444  -0.87902  -3.0549 
 H                     0.67673   1.16716  -3.02863 
 N                     0.08353   0.35278  -3.10369 
 O                    -1.71638   1.7267   -3.2765 
 C                    -1.2596    0.59757  -3.24379 
 H                    -2.21193  -2.60703  -3.3914 
 C                    -1.49623  -1.79073  -3.30322 
 C                    -3.49071  -0.31962  -3.49545 
 N                    -2.04849  -0.53149  -3.34427 
 H                    -2.91012   3.07221  -8.15598 
 H                    -2.3023    4.21201  -7.15924 
 H                    -3.37574   3.12082  -6.59257 
 H                     3.54377   0.76914  -5.30839 
 H                     2.25669  -0.29447  -5.65808 
 N                     2.59157   0.64584  -5.58815 
 C                     1.80258   1.68833  -5.85628 
 C                    -0.23265   2.74203  -6.49602 
 N                     0.2441    3.9937   -6.39371 
 H                     1.98658   4.95581  -5.90514 
 C                     1.51995   3.97762  -6.01311 
 N                     2.31191   2.93455  -5.74408 
 H                    -2.39777   0.41001  -7.06704 
 C                    -1.50575   0.98621  -6.81958 
 N                    -0.3578    0.46529  -6.46107 
 C                     0.45831   1.56773  -6.25292 
 C                    -2.611     3.26333  -7.2211 
 N                    -1.50134   2.35913  -6.86183 
 
 ITRead=  0  0  0  0  0  0  0  0  0  0  0  0  0  0  0  0  0  0  0  0
 ITRead=  0  0  0  0  0  0  0  0  0  0  0  0  0  0  0  0  0  0  0  0
 ITRead=  0  0  0  0  0  0  0  0  0  0  0  0  0  0  0  0  0  0  0  0
 ITRead=  0  0  0  0  0  0  0  0  0  0
 MicOpt= -1 -1 -1 -1 -1 -1 -1 -1 -1 -1 -1 -1 -1 -1 -1 -1 -1 -1 -1 -1
 MicOpt= -1 -1 -1 -1 -1 -1 -1 -1 -1 -1 -1 -1 -1 -1 -1 -1 -1 -1 -1 -1
 MicOpt= -1 -1 -1 -1 -1 -1 -1 -1 -1 -1 -1 -1 -1 -1 -1 -1 -1 -1 -1 -1
 MicOpt= -1 -1 -1 -1 -1 -1 -1 -1 -1 -1
 NAtoms=     70 NQM=       70 NQMF=       0 NMMI=      0 NMMIF=      0
                NMic=       0 NMicF=      0.
                    Isotopes and Nuclear Properties:
 (Nuclear quadrupole moments (NQMom) in fm**2, nuclear magnetic moments (NMagM)
  in nuclear magnetons)

  Atom         1           2           3           4           5           6           7           8           9          10
 IAtWgt=          14          12          12          14          12           1          14          12           1          14
 AtmWgt=  14.0030740  12.0000000  12.0000000  14.0030740  12.0000000   1.0078250  14.0030740  12.0000000   1.0078250  14.0030740
 NucSpn=           2           0           0           2           0           1           2           0           1           2
 AtZEff=  -0.0000000  -0.0000000  -0.0000000  -0.0000000  -0.0000000  -0.0000000  -0.0000000  -0.0000000  -0.0000000  -0.0000000
 NQMom=    2.0440000   0.0000000   0.0000000   2.0440000   0.0000000   0.0000000   2.0440000   0.0000000   0.0000000   2.0440000
 NMagM=    0.4037610   0.0000000   0.0000000   0.4037610   0.0000000   2.7928460   0.4037610   0.0000000   2.7928460   0.4037610
 AtZNuc=   7.0000000   6.0000000   6.0000000   7.0000000   6.0000000   1.0000000   7.0000000   6.0000000   1.0000000   7.0000000

  Atom        11          12          13          14          15          16          17          18          19          20
 IAtWgt=          12          12          14           1           1           1           1           1          14          12
 AtmWgt=  12.0000000  12.0000000  14.0030740   1.0078250   1.0078250   1.0078250   1.0078250   1.0078250  14.0030740  12.0000000
 NucSpn=           0           0           2           1           1           1           1           1           2           0
 AtZEff=  -0.0000000  -0.0000000  -0.0000000  -0.0000000  -0.0000000  -0.0000000  -0.0000000  -0.0000000  -0.0000000  -0.0000000
 NQMom=    0.0000000   0.0000000   2.0440000   0.0000000   0.0000000   0.0000000   0.0000000   0.0000000   2.0440000   0.0000000
 NMagM=    0.0000000   0.0000000   0.4037610   2.7928460   2.7928460   2.7928460   2.7928460   2.7928460   0.4037610   0.0000000
 AtZNuc=   6.0000000   6.0000000   7.0000000   1.0000000   1.0000000   1.0000000   1.0000000   1.0000000   7.0000000   6.0000000

  Atom        21          22          23          24          25          26          27          28          29          30
 IAtWgt=          12          14           1           1          14          12          14           1          12          16
 AtmWgt=  12.0000000  14.0030740   1.0078250   1.0078250  14.0030740  12.0000000  14.0030740   1.0078250  12.0000000  15.9949146
 NucSpn=           0           2           1           1           2           0           2           1           0           0
 AtZEff=  -0.0000000  -0.0000000  -0.0000000  -0.0000000  -0.0000000  -0.0000000  -0.0000000  -0.0000000  -0.0000000  -0.0000000
 NQMom=    0.0000000   2.0440000   0.0000000   0.0000000   2.0440000   0.0000000   2.0440000   0.0000000   0.0000000   0.0000000
 NMagM=    0.0000000   0.4037610   2.7928460   2.7928460   0.4037610   0.0000000   0.4037610   2.7928460   0.0000000   0.0000000
 AtZNuc=   6.0000000   7.0000000   1.0000000   1.0000000   7.0000000   6.0000000   7.0000000   1.0000000   6.0000000   8.0000000

  Atom        31          32          33          34          35          36          37          38          39          40
 IAtWgt=          12          14          12           1           1           1           1           1           1           1
 AtmWgt=  12.0000000  14.0030740  12.0000000   1.0078250   1.0078250   1.0078250   1.0078250   1.0078250   1.0078250   1.0078250
 NucSpn=           0           2           0           1           1           1           1           1           1           1
 AtZEff=  -0.0000000  -0.0000000  -0.0000000  -0.0000000  -0.0000000  -0.0000000  -0.0000000  -0.0000000  -0.0000000  -0.0000000
 NQMom=    0.0000000   2.0440000   0.0000000   0.0000000   0.0000000   0.0000000   0.0000000   0.0000000   0.0000000   0.0000000
 NMagM=    0.0000000   0.4037610   0.0000000   2.7928460   2.7928460   2.7928460   2.7928460   2.7928460   2.7928460   2.7928460
 AtZNuc=   6.0000000   7.0000000   6.0000000   1.0000000   1.0000000   1.0000000   1.0000000   1.0000000   1.0000000   1.0000000

  Atom        41          42          43          44          45          46          47          48          49          50
 IAtWgt=           1          12          16          12           1          14          16          12           1          12
 AtmWgt=   1.0078250  12.0000000  15.9949146  12.0000000   1.0078250  14.0030740  15.9949146  12.0000000   1.0078250  12.0000000
 NucSpn=           1           0           0           0           1           2           0           0           1           0
 AtZEff=  -0.0000000  -0.0000000  -0.0000000  -0.0000000  -0.0000000  -0.0000000  -0.0000000  -0.0000000  -0.0000000  -0.0000000
 NQMom=    0.0000000   0.0000000   0.0000000   0.0000000   0.0000000   2.0440000   0.0000000   0.0000000   0.0000000   0.0000000
 NMagM=    2.7928460   0.0000000   0.0000000   0.0000000   2.7928460   0.4037610   0.0000000   0.0000000   2.7928460   0.0000000
 AtZNuc=   1.0000000   6.0000000   8.0000000   6.0000000   1.0000000   7.0000000   8.0000000   6.0000000   1.0000000   6.0000000

  Atom        51          52          53          54          55          56          57          58          59          60
 IAtWgt=          12          14           1           1           1           1           1          14          12          12
 AtmWgt=  12.0000000  14.0030740   1.0078250   1.0078250   1.0078250   1.0078250   1.0078250  14.0030740  12.0000000  12.0000000
 NucSpn=           0           2           1           1           1           1           1           2           0           0
 AtZEff=  -0.0000000  -0.0000000  -0.0000000  -0.0000000  -0.0000000  -0.0000000  -0.0000000  -0.0000000  -0.0000000  -0.0000000
 NQMom=    0.0000000   2.0440000   0.0000000   0.0000000   0.0000000   0.0000000   0.0000000   2.0440000   0.0000000   0.0000000
 NMagM=    0.0000000   0.4037610   2.7928460   2.7928460   2.7928460   2.7928460   2.7928460   0.4037610   0.0000000   0.0000000
 AtZNuc=   6.0000000   7.0000000   1.0000000   1.0000000   1.0000000   1.0000000   1.0000000   7.0000000   6.0000000   6.0000000

  Atom        61          62          63          64          65          66          67          68          69          70
 IAtWgt=          14           1          12          14           1          12          14          12          12          14
 AtmWgt=  14.0030740   1.0078250  12.0000000  14.0030740   1.0078250  12.0000000  14.0030740  12.0000000  12.0000000  14.0030740
 NucSpn=           2           1           0           2           1           0           2           0           0           2
 AtZEff=  -0.0000000  -0.0000000  -0.0000000  -0.0000000  -0.0000000  -0.0000000  -0.0000000  -0.0000000  -0.0000000  -0.0000000
 NQMom=    2.0440000   0.0000000   0.0000000   2.0440000   0.0000000   0.0000000   2.0440000   0.0000000   0.0000000   2.0440000
 NMagM=    0.4037610   2.7928460   0.0000000   0.4037610   2.7928460   0.0000000   0.4037610   0.0000000   0.0000000   0.4037610
 AtZNuc=   7.0000000   1.0000000   6.0000000   7.0000000   1.0000000   6.0000000   7.0000000   6.0000000   6.0000000   7.0000000
 Leave Link  101 at Sun Jan 21 09:01:22 2018, MaxMem=  4294967296 cpu:               7.8 elap:               0.3
 (Enter /share/apps/g16/l202.exe)
 Stoichiometry    C23H27N17O3
 Framework group  C1[X(C23H27N17O3)]
 Deg. of freedom   204
 Full point group                 C1      NOp   1
 Largest Abelian subgroup         C1      NOp   1
 Largest concise Abelian subgroup C1      NOp   1
                         Standard orientation:                         
 ---------------------------------------------------------------------
 Center     Atomic      Atomic             Coordinates (Angstroms)
 Number     Number       Type             X           Y           Z
 ---------------------------------------------------------------------
      1          7           0       -7.189554   -1.119708    0.110169
      2          6           0       -8.529313   -0.506821    0.196323
      3          6           0       -5.028828   -1.492993    0.281098
      4          7           0       -5.563736   -2.598319   -0.364549
      5          6           0       -6.844090   -2.329187   -0.441681
      6          1           0       -7.588995   -2.983737   -0.895139
      7          7           0       -3.524131    0.016382    1.291363
      8          6           0       -4.581674    0.803988    1.512405
      9          1           0       -4.364463    1.742236    2.021109
     10          7           0       -5.861222    0.607537    1.200881
     11          6           0       -6.018843   -0.573166    0.579954
     12          6           0       -3.715705   -1.164896    0.664498
     13          7           0       -2.661291   -1.952487    0.442950
     14          1           0       -2.756429   -2.835633   -0.017720
     15          1           0       -1.740801   -1.686749    0.729720
     16          1           0       -9.138141   -1.105034    0.717523
     17          1           0       -8.462473    0.379386    0.653821
     18          1           0       -8.898994   -0.377943   -0.723854
     19          7           0       -2.520609    2.277001   -1.597608
     20          6           0       -1.169892    2.169077   -1.369651
     21          6           0       -3.322227    3.503377   -1.412936
     22          7           0        1.840927    3.603440   -0.400454
     23          1           0        2.793736    3.319431   -0.296872
     24          1           0        1.624525    4.554868   -0.179835
     25          7           0       -0.354611    3.157288   -0.942094
     26          6           0        0.895180    2.747618   -0.816454
     27          7           0        1.316419    1.468469   -1.088215
     28          1           0        2.291743    1.244351   -0.963857
     29          6           0        0.495073    0.435620   -1.529211
     30          8           0        0.975697   -0.683710   -1.745648
     31          6           0       -0.850589    0.860540   -1.668947
     32          7           0       -1.978147    0.161034   -2.076598
     33          6           0       -2.942164    1.039410   -2.018705
     34          1           0       -3.983061    0.836683   -2.273077
     35          1           0       -4.036998    3.337356   -0.734444
     36          1           0       -2.728923    4.242314   -1.096344
     37          1           0       -3.741781    3.763347   -2.281963
     38          1           0        7.128606    0.602115    0.466181
     39          1           0        7.444883    0.784724   -1.257558
     40          1           0        6.088084    1.633596   -0.516015
     41          1           0        5.896602   -3.768463   -1.123428
     42          6           0        5.490091   -2.757557   -1.090928
     43          8           0        3.268710   -3.437663   -1.570560
     44          6           0        4.092842   -2.556873   -1.326029
     45          1           0        2.701798   -1.058878   -1.422565
     46          7           0        3.682571   -1.240514   -1.261854
     47          8           0        4.007774    0.987491   -0.966164
     48          6           0        4.463290   -0.142047   -1.002248
     49          1           0        7.345750   -1.804936   -0.649529
     50          6           0        6.277056   -1.705961   -0.835124
     51          6           0        6.672800    0.725789   -0.504903
     52          7           0        5.799339   -0.416869   -0.786221
     53          1           0        3.475515    2.584729    3.954229
     54          1           0        2.346129    3.028837    2.863663
     55          1           0        3.922751    3.005010    2.442025
     56          1           0        0.706836   -3.418780    0.584082
     57          1           0        2.331432   -3.312502    1.093513
     58          7           0        1.448398   -2.861766    0.958214
     59          6           0        1.268778   -1.575012    1.263476
     60          6           0        1.939989    0.565185    2.057671
     61          7           0        0.743214    1.144155    1.865421
     62          1           0       -1.124720    0.655792    1.177732
     63          6           0       -0.124637    0.267117    1.364875
     64          7           0        0.053339   -1.022070    1.058454
     65          1           0        5.049443    0.352631    2.916880
     66          6           0        4.035155    0.162946    2.564485
     67          7           0        3.605641   -0.991287    2.116222
     68          6           0        2.278586   -0.750098    1.791428
     69          6           0        3.216932    2.554308    2.988719
     70          7           0        3.079689    1.149731    2.557064
 ---------------------------------------------------------------------
 Rotational constants (GHZ):           0.1606159           0.0476949           0.0444754
 Leave Link  202 at Sun Jan 21 09:01:23 2018, MaxMem=  4294967296 cpu:               0.4 elap:               0.0
 (Enter /share/apps/g16/l301.exe)
 Standard basis: CC-pVDZ (5D, 7F)
 Ernie: Thresh=  0.10000D-02 Tol=  0.10000D-05 Strict=F.
 Ernie:  86 primitive shells out of 1081 were deleted.
 There are   780 symmetry adapted cartesian basis functions of A   symmetry.
 There are   737 symmetry adapted basis functions of A   symmetry.
   737 basis functions,  1608 primitive gaussians,   780 cartesian basis functions
   154 alpha electrons      154 beta electrons
       nuclear repulsion energy      5434.5822431152 Hartrees.
 IExCor= 4639 DFT=T Ex+Corr=wB97XD ExCW=0 ScaHFX=  1.000000
 ScaDFX=  1.000000  1.000000  1.000000  1.000000 ScalE2=  1.000000  1.000000
 IRadAn=      5 IRanWt=     -1 IRanGd=            0 ICorTp=0 IEmpDi=121
 HFx  wShort=  0.000000 wLong=  0.200000 cFull=  0.222036 cShort=  0.000000 cLong=  0.777964
 DFx  wShort=  0.000000 wLong=  0.200000 cFull=  0.000000 cShort=  0.000000 cLong=  1.000000
 NAtoms=   70 NActive=   70 NUniq=   70 SFac= 1.00D+00 NAtFMM=   60 NAOKFM=T Big=T
 Integral buffers will be    131072 words long.
 Raffenetti 2 integral format.
 Two-electron integral symmetry is turned on.
 R6Disp:  Grimme-D2 Dispersion energy=       -0.0686785534 Hartrees.
 Nuclear repulsion after empirical dispersion term =     5434.5135645618 Hartrees.
 Leave Link  301 at Sun Jan 21 09:01:23 2018, MaxMem=  4294967296 cpu:               2.9 elap:               0.1
 (Enter /share/apps/g16/l302.exe)
 NPDir=0 NMtPBC=     1 NCelOv=     1 NCel=       1 NClECP=     1 NCelD=      1
         NCelK=      1 NCelE2=     1 NClLst=     1 CellRange=     0.0.
 One-electron integrals computed using PRISM.
 One-electron integral symmetry used in STVInt
 NBasis=   737 RedAO= T EigKep=  7.11D-04  NBF=   737
 NBsUse=   737 1.00D-06 EigRej= -1.00D+00 NBFU=   737
 Precomputing XC quadrature grid using
 IXCGrd= 4 IRadAn=           5 IRanWt=          -1 IRanGd=           0 AccXCQ= 0.00D+00.
 Generated NRdTot=       0 NPtTot=           0 NUsed=           0 NTot=          32
 NSgBfM=   755   752   754   754   755 MxSgAt=    70 MxSgA2=    70.
 Leave Link  302 at Sun Jan 21 09:01:27 2018, MaxMem=  4294967296 cpu:             137.7 elap:               4.3
 (Enter /share/apps/g16/l303.exe)
 DipDrv:  MaxL=1.
 Leave Link  303 at Sun Jan 21 09:01:28 2018, MaxMem=  4294967296 cpu:              14.9 elap:               0.5
 (Enter /share/apps/g16/l401.exe)
 ExpMin= 1.22D-01 ExpMax= 1.17D+04 ExpMxC= 4.01D+02 IAcc=3 IRadAn=         5 AccDes= 0.00D+00
 Harris functional with IExCor= 4639 and IRadAn=       5 diagonalized for initial guess.
 HarFok:  IExCor= 4639 AccDes= 0.00D+00 IRadAn=         5 IDoV= 1 UseB2=F ITyADJ=14
 ICtDFT=  3500011 ScaDFX=  1.000000  1.000000  1.000000  1.000000
 FoFCou: FMM=F IPFlag=           0 FMFlag=      100000 FMFlg1=        2001
         NFxFlg=           0 DoJE=T BraDBF=F KetDBF=T FulRan=T
         wScrn=  0.000000 ICntrl=       500 IOpCl=  0 I1Cent=   200000004 NGrid=           0
         NMat0=    1 NMatS0=      1 NMatT0=    0 NMatD0=    1 NMtDS0=    0 NMtDT0=    0
 Petite list used in FoFCou.
 Harris En= -1963.88583632792    
 JPrj=0 DoOrth=F DoCkMO=F.
 Leave Link  401 at Sun Jan 21 09:01:40 2018, MaxMem=  4294967296 cpu:             392.8 elap:              12.3
 (Enter /share/apps/g16/l502.exe)
 Integral symmetry usage will be decided dynamically.
 Closed shell SCF:
 Using DIIS extrapolation, IDIIS=  1040.
 NGot=  4294967296 LenX=  4293717438 LenY=  4293108258
 Requested convergence on RMS density matrix=1.00D-08 within  20 cycles.
 Requested convergence on MAX density matrix=1.00D-06.
 Requested convergence on             energy=1.00D-06.
 No special actions if energy rises.
 Fock matrices will be formed incrementally for  20 cycles.
 Integral accuracy reduced to 1.0D-05 until final iterations.

 Cycle   1  Pass 0  IDiag  1:
 FoFJK:  IHMeth= 1 ICntrl=       0 DoSepK=T KAlg= 0 I1Cent=           0 FoldK=F
 IRaf=         1 NMat=       1 IRICut=       1 DoRegI=T DoRafI=F ISym2E= 0 IDoP0=0 IntGTp=1.
 FoFCou: FMM=T IPFlag=           0 FMFlag=      100000 FMFlg1=        2001
         NFxFlg=           0 DoJE=T BraDBF=F KetDBF=F FulRan=T
         wScrn=  0.000000 ICntrl=       500 IOpCl=  0 I1Cent=           0 NGrid=           0
         NMat0=    1 NMatS0=      1 NMatT0=    0 NMatD0=    1 NMtDS0=    0 NMtDT0=    0
 Symmetry not used in FoFCou.
 FMM levels:  10  Number of levels for PrismC:   9
 E= -2048.31681645837    
 DIIS: error= 2.29D-02 at cycle   1 NSaved=   1.
 NSaved= 1 IEnMin= 1 EnMin= -2048.31681645837     IErMin= 1 ErrMin= 2.29D-02
 ErrMax= 2.29D-02  0.00D+00 EMaxC= 1.00D-01 BMatC= 8.32D-01 BMatP= 8.32D-01
 IDIUse=3 WtCom= 7.71D-01 WtEn= 2.29D-01
 Coeff-Com:  0.100D+01
 Coeff-En:   0.100D+01
 Coeff:      0.100D+01
 Gap=     0.255 Goal=   None    Shift=    0.000
 GapD=    0.255 DampG=1.000 DampE=0.500 DampFc=0.5000 IDamp=-1.
 Damping current iteration by 5.00D-01
 RMSDP=1.57D-03 MaxDP=1.30D-01              OVMax= 2.03D-01

 Cycle   2  Pass 0  IDiag  1:
 RMSU=  7.82D-04    CP:  9.98D-01
 E= -2048.51348388309     Delta-E=       -0.196667424721 Rises=F Damp=T
 DIIS: error= 1.29D-02 at cycle   2 NSaved=   2.
 NSaved= 2 IEnMin= 2 EnMin= -2048.51348388309     IErMin= 2 ErrMin= 1.29D-02
 ErrMax= 1.29D-02  0.00D+00 EMaxC= 1.00D-01 BMatC= 1.45D-01 BMatP= 8.32D-01
 IDIUse=3 WtCom= 8.71D-01 WtEn= 1.29D-01
 Coeff-Com: -0.196D+00 0.120D+01
 Coeff-En:   0.000D+00 0.100D+01
 Coeff:     -0.171D+00 0.117D+01
 Gap=     0.367 Goal=   None    Shift=    0.000
 RMSDP=5.87D-04 MaxDP=3.35D-02 DE=-1.97D-01 OVMax= 1.39D-01

 Cycle   3  Pass 0  IDiag  1:
 RMSU=  5.77D-04    CP:  9.94D-01  1.13D+00
 E= -2048.69289392872     Delta-E=       -0.179410045637 Rises=F Damp=F
 DIIS: error= 6.33D-03 at cycle   3 NSaved=   3.
 NSaved= 3 IEnMin= 3 EnMin= -2048.69289392872     IErMin= 3 ErrMin= 6.33D-03
 ErrMax= 6.33D-03  0.00D+00 EMaxC= 1.00D-01 BMatC= 6.26D-02 BMatP= 1.45D-01
 IDIUse=3 WtCom= 9.37D-01 WtEn= 6.33D-02
 Coeff-Com: -0.231D+00 0.548D+00 0.684D+00
 Coeff-En:   0.000D+00 0.000D+00 0.100D+01
 Coeff:     -0.217D+00 0.513D+00 0.704D+00
 Gap=     0.281 Goal=   None    Shift=    0.000
 RMSDP=3.54D-04 MaxDP=3.20D-02 DE=-1.79D-01 OVMax= 5.17D-02

 Cycle   4  Pass 0  IDiag  1:
 RMSU=  2.02D-04    CP:  9.94D-01  1.41D+00  6.73D-01
 E= -2048.74115136645     Delta-E=       -0.048257437723 Rises=F Damp=F
 DIIS: error= 2.36D-03 at cycle   4 NSaved=   4.
 NSaved= 4 IEnMin= 4 EnMin= -2048.74115136645     IErMin= 4 ErrMin= 2.36D-03
 ErrMax= 2.36D-03  0.00D+00 EMaxC= 1.00D-01 BMatC= 8.53D-03 BMatP= 6.26D-02
 IDIUse=3 WtCom= 9.76D-01 WtEn= 2.36D-02
 Coeff-Com: -0.970D-01 0.188D+00 0.374D+00 0.535D+00
 Coeff-En:   0.000D+00 0.000D+00 0.507D-01 0.949D+00
 Coeff:     -0.947D-01 0.184D+00 0.367D+00 0.544D+00
 Gap=     0.286 Goal=   None    Shift=    0.000
 RMSDP=1.25D-04 MaxDP=1.10D-02 DE=-4.83D-02 OVMax= 1.34D-02

 Cycle   5  Pass 0  IDiag  1:
 RMSU=  6.04D-05    CP:  9.94D-01  1.39D+00  8.03D-01  6.20D-01
 E= -2048.74826843761     Delta-E=       -0.007117071168 Rises=F Damp=F
 DIIS: error= 5.80D-04 at cycle   5 NSaved=   5.
 NSaved= 5 IEnMin= 5 EnMin= -2048.74826843761     IErMin= 5 ErrMin= 5.80D-04
 ErrMax= 5.80D-04  0.00D+00 EMaxC= 1.00D-01 BMatC= 2.86D-04 BMatP= 8.53D-03
 IDIUse=3 WtCom= 9.94D-01 WtEn= 5.80D-03
 Coeff-Com: -0.255D-01 0.438D-01 0.120D+00 0.240D+00 0.621D+00
 Coeff-En:   0.000D+00 0.000D+00 0.000D+00 0.000D+00 0.100D+01
 Coeff:     -0.253D-01 0.436D-01 0.120D+00 0.238D+00 0.623D+00
 Gap=     0.286 Goal=   None    Shift=    0.000
 RMSDP=2.66D-05 MaxDP=1.79D-03 DE=-7.12D-03 OVMax= 3.19D-03

 Failed to achieve initial convergence to 1.0D-08 in  6 cycles.
 Switch to full accuracy anyway.
 Cycle   6  Pass 1  IDiag  1:
 E= -2048.74850453280     Delta-E=       -0.000236095183 Rises=F Damp=F
 DIIS: error= 2.26D-04 at cycle   1 NSaved=   1.
 NSaved= 1 IEnMin= 1 EnMin= -2048.74850453280     IErMin= 1 ErrMin= 2.26D-04
 ErrMax= 2.26D-04  0.00D+00 EMaxC= 1.00D-01 BMatC= 7.24D-05 BMatP= 7.24D-05
 IDIUse=3 WtCom= 9.98D-01 WtEn= 2.26D-03
 Coeff-Com:  0.100D+01
 Coeff-En:   0.100D+01
 Coeff:      0.100D+01
 Gap=     0.286 Goal=   None    Shift=    0.000
 RMSDP=2.66D-05 MaxDP=1.79D-03 DE=-2.36D-04 OVMax= 2.64D-03

 Cycle   7  Pass 1  IDiag  1:
 RMSU=  1.08D-04    CP:  1.00D+00
 E= -2048.74855637519     Delta-E=       -0.000051842391 Rises=F Damp=F
 DIIS: error= 2.28D-04 at cycle   2 NSaved=   2.
 NSaved= 2 IEnMin= 2 EnMin= -2048.74855637519     IErMin= 1 ErrMin= 2.26D-04
 ErrMax= 2.28D-04  0.00D+00 EMaxC= 1.00D-01 BMatC= 4.31D-05 BMatP= 7.24D-05
 IDIUse=3 WtCom= 9.98D-01 WtEn= 2.28D-03
 Coeff-Com:  0.413D+00 0.587D+00
 Coeff-En:   0.000D+00 0.100D+01
 Coeff:      0.412D+00 0.588D+00
 Gap=     0.286 Goal=   None    Shift=    0.000
 RMSDP=1.16D-05 MaxDP=1.00D-03 DE=-5.18D-05 OVMax= 1.54D-03

 Cycle   8  Pass 1  IDiag  1:
 RMSU=  1.13D-05    CP:  1.00D+00  1.02D+00
 E= -2048.74858788719     Delta-E=       -0.000031512000 Rises=F Damp=F
 DIIS: error= 1.01D-04 at cycle   3 NSaved=   3.
 NSaved= 3 IEnMin= 3 EnMin= -2048.74858788719     IErMin= 3 ErrMin= 1.01D-04
 ErrMax= 1.01D-04  0.00D+00 EMaxC= 1.00D-01 BMatC= 9.76D-06 BMatP= 4.31D-05
 IDIUse=3 WtCom= 9.99D-01 WtEn= 1.01D-03
 Coeff-Com: -0.198D-01 0.309D+00 0.711D+00
 Coeff-En:   0.000D+00 0.128D+00 0.872D+00
 Coeff:     -0.197D-01 0.308D+00 0.711D+00
 Gap=     0.286 Goal=   None    Shift=    0.000
 RMSDP=5.60D-06 MaxDP=4.00D-04 DE=-3.15D-05 OVMax= 5.78D-04

 Cycle   9  Pass 1  IDiag  1:
 RMSU=  3.79D-06    CP:  1.00D+00  1.05D+00  7.68D-01
 E= -2048.74859715407     Delta-E=       -0.000009266884 Rises=F Damp=F
 DIIS: error= 3.37D-05 at cycle   4 NSaved=   4.
 NSaved= 4 IEnMin= 4 EnMin= -2048.74859715407     IErMin= 4 ErrMin= 3.37D-05
 ErrMax= 3.37D-05  0.00D+00 EMaxC= 1.00D-01 BMatC= 4.81D-07 BMatP= 9.76D-06
 IDIUse=1 WtCom= 1.00D+00 WtEn= 0.00D+00
 Coeff-Com: -0.314D-01 0.816D-01 0.258D+00 0.692D+00
 Coeff:     -0.314D-01 0.816D-01 0.258D+00 0.692D+00
 Gap=     0.286 Goal=   None    Shift=    0.000
 RMSDP=1.43D-06 MaxDP=1.21D-04 DE=-9.27D-06 OVMax= 5.00D-04

 Cycle  10  Pass 1  IDiag  1:
 RMSU=  1.26D-06    CP:  1.00D+00  1.06D+00  8.03D-01  1.11D+00
 E= -2048.74859797905     Delta-E=       -0.000000824981 Rises=F Damp=F
 DIIS: error= 1.57D-05 at cycle   5 NSaved=   5.
 NSaved= 5 IEnMin= 5 EnMin= -2048.74859797905     IErMin= 5 ErrMin= 1.57D-05
 ErrMax= 1.57D-05  0.00D+00 EMaxC= 1.00D-01 BMatC= 1.15D-07 BMatP= 4.81D-07
 IDIUse=1 WtCom= 1.00D+00 WtEn= 0.00D+00
 Coeff-Com: -0.295D-02-0.573D-01-0.125D+00 0.202D+00 0.984D+00
 Coeff:     -0.295D-02-0.573D-01-0.125D+00 0.202D+00 0.984D+00
 Gap=     0.286 Goal=   None    Shift=    0.000
 RMSDP=1.20D-06 MaxDP=7.73D-05 DE=-8.25D-07 OVMax= 2.56D-04

 Cycle  11  Pass 1  IDiag  1:
 RMSU=  4.78D-07    CP:  1.00D+00  1.06D+00  8.13D-01  1.39D+00  1.17D+00
 E= -2048.74859823240     Delta-E=       -0.000000253345 Rises=F Damp=F
 DIIS: error= 8.39D-06 at cycle   6 NSaved=   6.
 NSaved= 6 IEnMin= 6 EnMin= -2048.74859823240     IErMin= 6 ErrMin= 8.39D-06
 ErrMax= 8.39D-06  0.00D+00 EMaxC= 1.00D-01 BMatC= 2.75D-08 BMatP= 1.15D-07
 IDIUse=1 WtCom= 1.00D+00 WtEn= 0.00D+00
 Coeff-Com:  0.455D-02-0.443D-01-0.113D+00 0.703D-03 0.525D+00 0.627D+00
 Coeff:      0.455D-02-0.443D-01-0.113D+00 0.703D-03 0.525D+00 0.627D+00
 Gap=     0.286 Goal=   None    Shift=    0.000
 RMSDP=3.46D-07 MaxDP=3.49D-05 DE=-2.53D-07 OVMax= 1.23D-04

 Cycle  12  Pass 1  IDiag  1:
 RMSU=  1.77D-07    CP:  1.00D+00  1.06D+00  8.15D-01  1.46D+00  1.30D+00
                    CP:  9.31D-01
 E= -2048.74859827096     Delta-E=       -0.000000038564 Rises=F Damp=F
 DIIS: error= 9.22D-07 at cycle   7 NSaved=   7.
 NSaved= 7 IEnMin= 7 EnMin= -2048.74859827096     IErMin= 7 ErrMin= 9.22D-07
 ErrMax= 9.22D-07  0.00D+00 EMaxC= 1.00D-01 BMatC= 6.81D-10 BMatP= 2.75D-08
 IDIUse=1 WtCom= 1.00D+00 WtEn= 0.00D+00
 Coeff-Com:  0.935D-03-0.569D-02-0.160D-01-0.794D-02 0.401D-01 0.116D+00
 Coeff-Com:  0.873D+00
 Coeff:      0.935D-03-0.569D-02-0.160D-01-0.794D-02 0.401D-01 0.116D+00
 Coeff:      0.873D+00
 Gap=     0.286 Goal=   None    Shift=    0.000
 RMSDP=8.38D-08 MaxDP=5.10D-06 DE=-3.86D-08 OVMax= 2.34D-05

 Cycle  13  Pass 1  IDiag  1:
 RMSU=  4.89D-08    CP:  1.00D+00  1.06D+00  8.14D-01  1.47D+00  1.32D+00
                    CP:  1.02D+00  1.15D+00
 E= -2048.74859827266     Delta-E=       -0.000000001698 Rises=F Damp=F
 DIIS: error= 4.74D-07 at cycle   8 NSaved=   8.
 NSaved= 8 IEnMin= 8 EnMin= -2048.74859827266     IErMin= 8 ErrMin= 4.74D-07
 ErrMax= 4.74D-07  0.00D+00 EMaxC= 1.00D-01 BMatC= 2.78D-10 BMatP= 6.81D-10
 IDIUse=1 WtCom= 1.00D+00 WtEn= 0.00D+00
 Coeff-Com: -0.706D-03 0.865D-02 0.212D-01-0.215D-02-0.114D+00-0.101D+00
 Coeff-Com:  0.421D+00 0.766D+00
 Coeff:     -0.706D-03 0.865D-02 0.212D-01-0.215D-02-0.114D+00-0.101D+00
 Coeff:      0.421D+00 0.766D+00
 Gap=     0.286 Goal=   None    Shift=    0.000
 RMSDP=4.30D-08 MaxDP=2.42D-06 DE=-1.70D-09 OVMax= 1.03D-05

 Cycle  14  Pass 1  IDiag  1:
 RMSU=  2.53D-08    CP:  1.00D+00  1.06D+00  8.14D-01  1.47D+00  1.32D+00
                    CP:  1.06D+00  1.29D+00  1.09D+00
 E= -2048.74859827314     Delta-E=       -0.000000000478 Rises=F Damp=F
 DIIS: error= 1.71D-07 at cycle   9 NSaved=   9.
 NSaved= 9 IEnMin= 9 EnMin= -2048.74859827314     IErMin= 9 ErrMin= 1.71D-07
 ErrMax= 1.71D-07  0.00D+00 EMaxC= 1.00D-01 BMatC= 2.03D-11 BMatP= 2.78D-10
 IDIUse=1 WtCom= 1.00D+00 WtEn= 0.00D+00
 Coeff-Com: -0.352D-03 0.374D-02 0.940D-02 0.815D-04-0.452D-01-0.486D-01
 Coeff-Com:  0.706D-01 0.262D+00 0.749D+00
 Coeff:     -0.352D-03 0.374D-02 0.940D-02 0.815D-04-0.452D-01-0.486D-01
 Coeff:      0.706D-01 0.262D+00 0.749D+00
 Gap=     0.286 Goal=   None    Shift=    0.000
 RMSDP=1.21D-08 MaxDP=6.79D-07 DE=-4.78D-10 OVMax= 3.19D-06

 Cycle  15  Pass 1  IDiag  1:
 RMSU=  8.24D-09    CP:  1.00D+00  1.06D+00  8.14D-01  1.47D+00  1.32D+00
                    CP:  1.07D+00  1.31D+00  1.22D+00  1.12D+00
 E= -2048.74859827296     Delta-E=        0.000000000183 Rises=F Damp=F
 DIIS: error= 6.39D-08 at cycle  10 NSaved=  10.
 NSaved=10 IEnMin= 9 EnMin= -2048.74859827314     IErMin=10 ErrMin= 6.39D-08
 ErrMax= 6.39D-08  0.00D+00 EMaxC= 1.00D-01 BMatC= 4.36D-12 BMatP= 2.03D-11
 IDIUse=1 WtCom= 1.00D+00 WtEn= 0.00D+00
 Coeff-Com:  0.314D-04-0.590D-03-0.136D-02 0.195D-03 0.889D-02 0.486D-02
 Coeff-Com: -0.625D-01-0.823D-01 0.280D+00 0.853D+00
 Coeff:      0.314D-04-0.590D-03-0.136D-02 0.195D-03 0.889D-02 0.486D-02
 Coeff:     -0.625D-01-0.823D-01 0.280D+00 0.853D+00
 Gap=     0.286 Goal=   None    Shift=    0.000
 RMSDP=6.13D-09 MaxDP=3.73D-07 DE= 1.83D-10 OVMax= 1.29D-06

 SCF Done:  E(RwB97XD) =  -2048.74859827     A.U. after   15 cycles
            NFock= 15  Conv=0.61D-08     -V/T= 2.0054
 KE= 2.037696136307D+03 PE=-1.565007414455D+04 EE= 6.129115845406D+03
 Leave Link  502 at Sun Jan 21 09:12:50 2018, MaxMem=  4294967296 cpu:           20517.6 elap:             669.9
 (Enter /share/apps/g16/l601.exe)
 Copying SCF densities to generalized density rwf, IOpCl= 0 IROHF=0.

 **********************************************************************

            Population analysis using the SCF density.

 **********************************************************************

 Orbital symmetries:
       Occupied  (A) (A) (A) (A) (A) (A) (A) (A) (A) (A) (A) (A)
                 (A) (A) (A) (A) (A) (A) (A) (A) (A) (A) (A) (A)
                 (A) (A) (A) (A) (A) (A) (A) (A) (A) (A) (A) (A)
                 (A) (A) (A) (A) (A) (A) (A) (A) (A) (A) (A) (A)
                 (A) (A) (A) (A) (A) (A) (A) (A) (A) (A) (A) (A)
                 (A) (A) (A) (A) (A) (A) (A) (A) (A) (A) (A) (A)
                 (A) (A) (A) (A) (A) (A) (A) (A) (A) (A) (A) (A)
                 (A) (A) (A) (A) (A) (A) (A) (A) (A) (A) (A) (A)
                 (A) (A) (A) (A) (A) (A) (A) (A) (A) (A) (A) (A)
                 (A) (A) (A) (A) (A) (A) (A) (A) (A) (A) (A) (A)
                 (A) (A) (A) (A) (A) (A) (A) (A) (A) (A) (A) (A)
                 (A) (A) (A) (A) (A) (A) (A) (A) (A) (A) (A) (A)
                 (A) (A) (A) (A) (A) (A) (A) (A) (A) (A)
       Virtual   (A) (A) (A) (A) (A) (A) (A) (A) (A) (A) (A) (A)
                 (A) (A) (A) (A) (A) (A) (A) (A) (A) (A) (A) (A)
                 (A) (A) (A) (A) (A) (A) (A) (A) (A) (A) (A) (A)
                 (A) (A) (A) (A) (A) (A) (A) (A) (A) (A) (A) (A)
                 (A) (A) (A) (A) (A) (A) (A) (A) (A) (A) (A) (A)
                 (A) (A) (A) (A) (A) (A) (A) (A) (A) (A) (A) (A)
                 (A) (A) (A) (A) (A) (A) (A) (A) (A) (A) (A) (A)
                 (A) (A) (A) (A) (A) (A) (A) (A) (A) (A) (A) (A)
                 (A) (A) (A) (A) (A) (A) (A) (A) (A) (A) (A) (A)
                 (A) (A) (A) (A) (A) (A) (A) (A) (A) (A) (A) (A)
                 (A) (A) (A) (A) (A) (A) (A) (A) (A) (A) (A) (A)
                 (A) (A) (A) (A) (A) (A) (A) (A) (A) (A) (A) (A)
                 (A) (A) (A) (A) (A) (A) (A) (A) (A) (A) (A) (A)
                 (A) (A) (A) (A) (A) (A) (A) (A) (A) (A) (A) (A)
                 (A) (A) (A) (A) (A) (A) (A) (A) (A) (A) (A) (A)
                 (A) (A) (A) (A) (A) (A) (A) (A) (A) (A) (A) (A)
                 (A) (A) (A) (A) (A) (A) (A) (A) (A) (A) (A) (A)
                 (A) (A) (A) (A) (A) (A) (A) (A) (A) (A) (A) (A)
                 (A) (A) (A) (A) (A) (A) (A) (A) (A) (A) (A) (A)
                 (A) (A) (A) (A) (A) (A) (A) (A) (A) (A) (A) (A)
                 (A) (A) (A) (A) (A) (A) (A) (A) (A) (A) (A) (A)
                 (A) (A) (A) (A) (A) (A) (A) (A) (A) (A) (A) (A)
                 (A) (A) (A) (A) (A) (A) (A) (A) (A) (A) (A) (A)
                 (A) (A) (A) (A) (A) (A) (A) (A) (A) (A) (A) (A)
                 (A) (A) (A) (A) (A) (A) (A) (A) (A) (A) (A) (A)
                 (A) (A) (A) (A) (A) (A) (A) (A) (A) (A) (A) (A)
                 (A) (A) (A) (A) (A) (A) (A) (A) (A) (A) (A) (A)
                 (A) (A) (A) (A) (A) (A) (A) (A) (A) (A) (A) (A)
                 (A) (A) (A) (A) (A) (A) (A) (A) (A) (A) (A) (A)
                 (A) (A) (A) (A) (A) (A) (A) (A) (A) (A) (A) (A)
                 (A) (A) (A) (A) (A) (A) (A) (A) (A) (A) (A) (A)
                 (A) (A) (A) (A) (A) (A) (A) (A) (A) (A) (A) (A)
                 (A) (A) (A) (A) (A) (A) (A) (A) (A) (A) (A) (A)
                 (A) (A) (A) (A) (A) (A) (A) (A) (A) (A) (A) (A)
                 (A) (A) (A) (A) (A) (A) (A) (A) (A) (A) (A) (A)
                 (A) (A) (A) (A) (A) (A) (A) (A) (A) (A) (A) (A)
                 (A) (A) (A) (A) (A) (A) (A) (A) (A) (A) (A) (A)
                 (A) (A) (A) (A) (A) (A) (A) (A) (A) (A) (A) (A)
                 (A) (A) (A) (A) (A) (A) (A) (A) (A) (A) (A) (A)
                 (A) (A) (A) (A) (A) (A) (A) (A) (A) (A) (A) (A)
                 (A) (A) (A) (A) (A) (A) (A) (A) (A) (A) (A) (A)
                 (A) (A) (A) (A) (A) (A) (A) (A) (A) (A) (A) (A)
                 (A) (A) (A) (A) (A) (A) (A) (A) (A) (A) (A) (A)
                 (A) (A) (A) (A) (A) (A) (A) (A) (A) (A) (A) (A)
                 (A) (A) (A) (A) (A) (A) (A) (A) (A) (A) (A) (A)
                 (A) (A) (A) (A) (A) (A) (A) (A) (A) (A) (A) (A)
                 (A) (A) (A) (A) (A) (A) (A) (A) (A) (A) (A) (A)
                 (A) (A) (A) (A) (A) (A) (A) (A) (A) (A) (A) (A)
                 (A) (A) (A) (A) (A) (A) (A)
 The electronic state is 1-A.
 Alpha  occ. eigenvalues --  -19.26058 -19.22228 -19.20759 -14.52540 -14.51094
 Alpha  occ. eigenvalues --  -14.49453 -14.48716 -14.47947 -14.47092 -14.46983
 Alpha  occ. eigenvalues --  -14.45887 -14.44103 -14.42541 -14.42475 -14.42390
 Alpha  occ. eigenvalues --  -14.42158 -14.42128 -14.41570 -14.40825 -14.40754
 Alpha  occ. eigenvalues --  -10.45636 -10.41390 -10.40289 -10.38384 -10.38001
 Alpha  occ. eigenvalues --  -10.37792 -10.36692 -10.35976 -10.35679 -10.35580
 Alpha  occ. eigenvalues --  -10.34771 -10.34421 -10.34074 -10.34057 -10.33717
 Alpha  occ. eigenvalues --  -10.33273 -10.33064 -10.31517 -10.31081 -10.31008
 Alpha  occ. eigenvalues --  -10.30663 -10.29245 -10.28214  -1.19580  -1.13759
 Alpha  occ. eigenvalues --   -1.13338  -1.13228  -1.12053  -1.10629  -1.09443
 Alpha  occ. eigenvalues --   -1.08756  -1.07330  -1.05596  -1.02891  -1.02605
 Alpha  occ. eigenvalues --   -1.00979  -1.00035  -0.99498  -0.98624  -0.97587
 Alpha  occ. eigenvalues --   -0.96561  -0.94960  -0.93213  -0.91086  -0.86180
 Alpha  occ. eigenvalues --   -0.84671  -0.84577  -0.84147  -0.83910  -0.82933
 Alpha  occ. eigenvalues --   -0.82432  -0.78952  -0.75392  -0.74682  -0.73841
 Alpha  occ. eigenvalues --   -0.73501  -0.73467  -0.73099  -0.71688  -0.68760
 Alpha  occ. eigenvalues --   -0.67544  -0.66882  -0.66652  -0.65079  -0.64557
 Alpha  occ. eigenvalues --   -0.63837  -0.63302  -0.62789  -0.62550  -0.61916
 Alpha  occ. eigenvalues --   -0.60705  -0.59874  -0.59600  -0.58958  -0.58748
 Alpha  occ. eigenvalues --   -0.58499  -0.58045  -0.57030  -0.56981  -0.56596
 Alpha  occ. eigenvalues --   -0.56131  -0.55845  -0.54515  -0.54494  -0.53995
 Alpha  occ. eigenvalues --   -0.53720  -0.53553  -0.52996  -0.52721  -0.52538
 Alpha  occ. eigenvalues --   -0.52241  -0.52045  -0.51419  -0.51348  -0.50753
 Alpha  occ. eigenvalues --   -0.50243  -0.49624  -0.49578  -0.48956  -0.48703
 Alpha  occ. eigenvalues --   -0.48465  -0.48331  -0.47807  -0.47651  -0.47554
 Alpha  occ. eigenvalues --   -0.47415  -0.45673  -0.45096  -0.44107  -0.43032
 Alpha  occ. eigenvalues --   -0.41819  -0.39620  -0.39227  -0.37812  -0.37397
 Alpha  occ. eigenvalues --   -0.37331  -0.36539  -0.35979  -0.35545  -0.34697
 Alpha  occ. eigenvalues --   -0.34180  -0.34129  -0.33402  -0.32910  -0.32884
 Alpha  occ. eigenvalues --   -0.32535  -0.32188  -0.32062  -0.31941  -0.31611
 Alpha  occ. eigenvalues --   -0.30922  -0.28160  -0.26369  -0.25553
 Alpha virt. eigenvalues --    0.03072   0.05424   0.07334   0.08345   0.08582
 Alpha virt. eigenvalues --    0.09220   0.09645   0.10281   0.11001   0.12175
 Alpha virt. eigenvalues --    0.12700   0.13450   0.14484   0.14592   0.15849
 Alpha virt. eigenvalues --    0.16122   0.16527   0.16768   0.17052   0.18236
 Alpha virt. eigenvalues --    0.18881   0.19301   0.19712   0.19882   0.20565
 Alpha virt. eigenvalues --    0.20703   0.21168   0.21625   0.21848   0.22493
 Alpha virt. eigenvalues --    0.22970   0.23122   0.23446   0.23481   0.23541
 Alpha virt. eigenvalues --    0.23905   0.23930   0.24081   0.25180   0.25304
 Alpha virt. eigenvalues --    0.26354   0.26507   0.26891   0.27290   0.27881
 Alpha virt. eigenvalues --    0.28643   0.29203   0.29658   0.30776   0.30918
 Alpha virt. eigenvalues --    0.31257   0.31818   0.32974   0.33084   0.33651
 Alpha virt. eigenvalues --    0.34018   0.34747   0.35104   0.36070   0.36520
 Alpha virt. eigenvalues --    0.36711   0.37611   0.38304   0.39373   0.39508
 Alpha virt. eigenvalues --    0.40193   0.41021   0.41287   0.41533   0.41644
 Alpha virt. eigenvalues --    0.42336   0.42734   0.43458   0.43707   0.44553
 Alpha virt. eigenvalues --    0.44939   0.45772   0.45945   0.46219   0.46628
 Alpha virt. eigenvalues --    0.47428   0.48062   0.48876   0.49061   0.49603
 Alpha virt. eigenvalues --    0.49657   0.50188   0.50520   0.50752   0.50945
 Alpha virt. eigenvalues --    0.51638   0.51980   0.52656   0.53047   0.53517
 Alpha virt. eigenvalues --    0.53874   0.54261   0.54627   0.54902   0.55291
 Alpha virt. eigenvalues --    0.55504   0.56107   0.56356   0.56733   0.57256
 Alpha virt. eigenvalues --    0.57745   0.58428   0.59065   0.59187   0.59625
 Alpha virt. eigenvalues --    0.59995   0.60504   0.60793   0.61184   0.61724
 Alpha virt. eigenvalues --    0.61826   0.62278   0.62478   0.63275   0.63799
 Alpha virt. eigenvalues --    0.63859   0.64289   0.64747   0.65218   0.65349
 Alpha virt. eigenvalues --    0.65547   0.65673   0.66217   0.66557   0.66941
 Alpha virt. eigenvalues --    0.67129   0.68185   0.68282   0.68659   0.69146
 Alpha virt. eigenvalues --    0.69586   0.70445   0.70606   0.71097   0.71367
 Alpha virt. eigenvalues --    0.71631   0.72980   0.73020   0.73176   0.73632
 Alpha virt. eigenvalues --    0.74014   0.74274   0.74399   0.75056   0.75296
 Alpha virt. eigenvalues --    0.75632   0.76153   0.76315   0.76637   0.76983
 Alpha virt. eigenvalues --    0.77220   0.77415   0.78161   0.78441   0.78902
 Alpha virt. eigenvalues --    0.79237   0.79806   0.80065   0.80522   0.80686
 Alpha virt. eigenvalues --    0.81040   0.81983   0.82379   0.82751   0.83006
 Alpha virt. eigenvalues --    0.83200   0.83764   0.84415   0.84885   0.85000
 Alpha virt. eigenvalues --    0.85570   0.86029   0.86185   0.86788   0.87474
 Alpha virt. eigenvalues --    0.87784   0.88116   0.89024   0.89164   0.90550
 Alpha virt. eigenvalues --    0.90702   0.90961   0.91225   0.91994   0.92410
 Alpha virt. eigenvalues --    0.92811   0.93105   0.93305   0.93784   0.94018
 Alpha virt. eigenvalues --    0.94768   0.95185   0.95266   0.96038   0.96343
 Alpha virt. eigenvalues --    0.96685   0.97194   0.97446   0.97995   0.98411
 Alpha virt. eigenvalues --    0.98844   0.99474   1.00519   1.00849   1.01213
 Alpha virt. eigenvalues --    1.01604   1.01819   1.02264   1.02335   1.02992
 Alpha virt. eigenvalues --    1.03117   1.03666   1.04275   1.04466   1.05040
 Alpha virt. eigenvalues --    1.05456   1.05687   1.06223   1.06450   1.08044
 Alpha virt. eigenvalues --    1.08729   1.08970   1.09743   1.10578   1.10985
 Alpha virt. eigenvalues --    1.11405   1.11969   1.12314   1.12679   1.13806
 Alpha virt. eigenvalues --    1.14051   1.14444   1.14832   1.15012   1.15183
 Alpha virt. eigenvalues --    1.15657   1.16538   1.16965   1.17736   1.18036
 Alpha virt. eigenvalues --    1.18109   1.18772   1.19176   1.19593   1.19959
 Alpha virt. eigenvalues --    1.20307   1.20598   1.20929   1.21195   1.21410
 Alpha virt. eigenvalues --    1.21764   1.21958   1.22261   1.22409   1.22833
 Alpha virt. eigenvalues --    1.23488   1.23906   1.24201   1.24525   1.24961
 Alpha virt. eigenvalues --    1.25570   1.26146   1.26331   1.26686   1.27875
 Alpha virt. eigenvalues --    1.28914   1.29211   1.29448   1.30512   1.30979
 Alpha virt. eigenvalues --    1.31779   1.32479   1.33052   1.33500   1.34263
 Alpha virt. eigenvalues --    1.34316   1.35249   1.35870   1.36197   1.37077
 Alpha virt. eigenvalues --    1.37171   1.37700   1.38522   1.39050   1.39981
 Alpha virt. eigenvalues --    1.40858   1.42092   1.43472   1.43745   1.44366
 Alpha virt. eigenvalues --    1.44993   1.45173   1.47810   1.47837   1.48298
 Alpha virt. eigenvalues --    1.48325   1.48785   1.49314   1.50142   1.50778
 Alpha virt. eigenvalues --    1.51270   1.52111   1.53042   1.53544   1.54535
 Alpha virt. eigenvalues --    1.55347   1.55574   1.56410   1.56779   1.57938
 Alpha virt. eigenvalues --    1.58517   1.59047   1.59409   1.60611   1.61339
 Alpha virt. eigenvalues --    1.61841   1.62274   1.62495   1.62842   1.63831
 Alpha virt. eigenvalues --    1.64603   1.65315   1.66137   1.66807   1.66971
 Alpha virt. eigenvalues --    1.67313   1.67708   1.68020   1.68829   1.69073
 Alpha virt. eigenvalues --    1.69609   1.69896   1.70157   1.70818   1.70981
 Alpha virt. eigenvalues --    1.71667   1.72186   1.72491   1.72897   1.73173
 Alpha virt. eigenvalues --    1.73865   1.74280   1.74443   1.74686   1.74807
 Alpha virt. eigenvalues --    1.75617   1.75942   1.76168   1.76488   1.76888
 Alpha virt. eigenvalues --    1.77154   1.77551   1.78205   1.78581   1.78657
 Alpha virt. eigenvalues --    1.79193   1.79630   1.79841   1.80380   1.80721
 Alpha virt. eigenvalues --    1.80890   1.81120   1.81343   1.81924   1.82286
 Alpha virt. eigenvalues --    1.82584   1.82987   1.83242   1.83402   1.84538
 Alpha virt. eigenvalues --    1.84948   1.85960   1.86271   1.86793   1.87119
 Alpha virt. eigenvalues --    1.87374   1.87718   1.88146   1.88303   1.88538
 Alpha virt. eigenvalues --    1.89038   1.89430   1.89819   1.90397   1.91109
 Alpha virt. eigenvalues --    1.91561   1.91964   1.92298   1.93333   1.93558
 Alpha virt. eigenvalues --    1.93697   1.94450   1.95654   1.96564   1.97652
 Alpha virt. eigenvalues --    1.98469   1.99029   1.99201   2.00415   2.01226
 Alpha virt. eigenvalues --    2.01820   2.02030   2.02471   2.03619   2.04509
 Alpha virt. eigenvalues --    2.04615   2.05368   2.05829   2.06923   2.07421
 Alpha virt. eigenvalues --    2.07594   2.08039   2.08678   2.09156   2.09565
 Alpha virt. eigenvalues --    2.10195   2.10527   2.11048   2.12187   2.12342
 Alpha virt. eigenvalues --    2.12621   2.13872   2.14674   2.16889   2.17342
 Alpha virt. eigenvalues --    2.18857   2.19343   2.20001   2.20768   2.21268
 Alpha virt. eigenvalues --    2.21465   2.22213   2.22655   2.23442   2.23743
 Alpha virt. eigenvalues --    2.24435   2.24973   2.25345   2.26256   2.26901
 Alpha virt. eigenvalues --    2.27228   2.27697   2.28875   2.28989   2.29042
 Alpha virt. eigenvalues --    2.29853   2.30278   2.30611   2.32090   2.32735
 Alpha virt. eigenvalues --    2.33206   2.33510   2.33791   2.34325   2.34768
 Alpha virt. eigenvalues --    2.35272   2.35987   2.36345   2.36692   2.37320
 Alpha virt. eigenvalues --    2.37953   2.39472   2.40161   2.40541   2.41191
 Alpha virt. eigenvalues --    2.41826   2.42419   2.42620   2.42857   2.44136
 Alpha virt. eigenvalues --    2.45303   2.45564   2.46274   2.46318   2.47017
 Alpha virt. eigenvalues --    2.47352   2.48672   2.49014   2.50300   2.51556
 Alpha virt. eigenvalues --    2.52981   2.53412   2.54252   2.54378   2.56341
 Alpha virt. eigenvalues --    2.56424   2.57102   2.57210   2.58329   2.59779
 Alpha virt. eigenvalues --    2.60312   2.60742   2.61487   2.62241   2.62770
 Alpha virt. eigenvalues --    2.64121   2.64483   2.65024   2.65380   2.66401
 Alpha virt. eigenvalues --    2.67117   2.67695   2.67969   2.68376   2.69210
 Alpha virt. eigenvalues --    2.70580   2.70765   2.71059   2.71671   2.72292
 Alpha virt. eigenvalues --    2.73701   2.74085   2.74933   2.75169   2.75631
 Alpha virt. eigenvalues --    2.77576   2.78747   2.78994   2.79432   2.79527
 Alpha virt. eigenvalues --    2.79793   2.80191   2.80642   2.81618   2.82057
 Alpha virt. eigenvalues --    2.82285   2.82371   2.82741   2.83124   2.83609
 Alpha virt. eigenvalues --    2.84776   2.85910   2.86460   2.86827   2.86933
 Alpha virt. eigenvalues --    2.87434   2.87879   2.88830   2.90793   2.91874
 Alpha virt. eigenvalues --    2.93994   2.96508   2.96828   2.97780   2.98804
 Alpha virt. eigenvalues --    2.99632   3.00978   3.01910   3.04282   3.05549
 Alpha virt. eigenvalues --    3.06429   3.09372   3.10866   3.14123   3.14547
 Alpha virt. eigenvalues --    3.15267   3.15449   3.15808   3.17365   3.19956
 Alpha virt. eigenvalues --    3.22318   3.23050   3.23168   3.24017   3.26601
 Alpha virt. eigenvalues --    3.46424   3.46799   3.47656   3.49823   3.51001
 Alpha virt. eigenvalues --    3.52881   3.53999   3.56212   3.57794   3.59872
 Alpha virt. eigenvalues --    3.62710   3.71253   3.74444
          Condensed to atoms (all electrons):
 Mulliken charges:
               1
     1  N   -0.310646
     2  C    0.180692
     3  C    0.031772
     4  N   -0.256633
     5  C    0.132367
     6  H    0.028491
     7  N   -0.283997
     8  C    0.126174
     9  H    0.015625
    10  N   -0.288922
    11  C    0.234467
    12  C    0.107478
    13  N   -0.042180
    14  H    0.107808
    15  H    0.089281
    16  H    0.027347
    17  H    0.035582
    18  H    0.025714
    19  N   -0.305742
    20  C    0.241642
    21  C    0.180509
    22  N   -0.121374
    23  H    0.112525
    24  H    0.117830
    25  N   -0.301042
    26  C    0.239974
    27  N   -0.126171
    28  H    0.118680
    29  C    0.155255
    30  O   -0.323036
    31  C   -0.002974
    32  N   -0.224139
    33  C    0.129921
    34  H    0.029695
    35  H    0.032439
    36  H    0.027513
    37  H    0.023440
    38  H    0.056434
    39  H    0.062672
    40  H    0.071654
    41  H    0.030639
    42  C   -0.102108
    43  O   -0.277789
    44  C    0.174123
    45  H    0.136006
    46  N   -0.131264
    47  O   -0.353981
    48  C    0.361350
    49  H    0.047363
    50  C    0.177543
    51  C    0.039790
    52  N   -0.293493
    53  H    0.031599
    54  H    0.039419
    55  H    0.017758
    56  H    0.119578
    57  H    0.118914
    58  N   -0.043491
    59  C    0.115390
    60  C    0.237239
    61  N   -0.263788
    62  H    0.043493
    63  C    0.149715
    64  N   -0.300860
    65  H    0.025023
    66  C    0.124646
    67  N   -0.260321
    68  C    0.011958
    69  C    0.177210
    70  N   -0.307786
 Sum of Mulliken charges =  -0.00000
 Mulliken charges with hydrogens summed into heavy atoms:
               1
     1  N   -0.310646
     2  C    0.269334
     3  C    0.031772
     4  N   -0.256633
     5  C    0.160858
     7  N   -0.283997
     8  C    0.141799
    10  N   -0.288922
    11  C    0.234467
    12  C    0.107478
    13  N    0.154909
    19  N   -0.305742
    20  C    0.241642
    21  C    0.263901
    22  N    0.108981
    25  N   -0.301042
    26  C    0.239974
    27  N   -0.007490
    29  C    0.155255
    30  O   -0.323036
    31  C   -0.002974
    32  N   -0.224139
    33  C    0.159616
    42  C   -0.071469
    43  O   -0.277789
    44  C    0.174123
    46  N    0.004743
    47  O   -0.353981
    48  C    0.361350
    50  C    0.224906
    51  C    0.230549
    52  N   -0.293493
    58  N    0.195001
    59  C    0.115390
    60  C    0.237239
    61  N   -0.263788
    63  C    0.193208
    64  N   -0.300860
    66  C    0.149669
    67  N   -0.260321
    68  C    0.011958
    69  C    0.265986
    70  N   -0.307786
 Electronic spatial extent (au):  <R**2>=          24527.5855
 Charge=             -0.0000 electrons
 Dipole moment (field-independent basis, Debye):
    X=              6.5613    Y=              6.0509    Z=              2.6371  Tot=              9.3069
 Quadrupole moment (field-independent basis, Debye-Ang):
   XX=           -138.8405   YY=           -225.6171   ZZ=           -252.1364
   XY=             11.8523   XZ=             18.3327   YZ=             -4.7011
 Traceless Quadrupole moment (field-independent basis, Debye-Ang):
   XX=             66.6908   YY=            -20.0858   ZZ=            -46.6050
   XY=             11.8523   XZ=             18.3327   YZ=             -4.7011
 Octapole moment (field-independent basis, Debye-Ang**2):
  XXX=             42.1368  YYY=             84.6412  ZZZ=             22.8849  XYY=             38.3276
  XXY=             12.3671  XXZ=            -60.0209  XZZ=             33.9218  YZZ=             48.8351
  YYZ=             35.9529  XYZ=             40.8692
 Hexadecapole moment (field-independent basis, Debye-Ang**3):
 XXXX=         -16542.2020 YYYY=          -4688.7088 ZZZZ=          -3194.2070 XXXY=            434.8606
 XXXZ=            336.2916 YYYX=             79.0102 YYYZ=            -53.3691 ZZZX=            129.8810
 ZZZY=             68.1584 XXYY=          -4534.5619 XXZZ=          -4479.4062 YYZZ=          -1398.9092
 XXYZ=             67.7562 YYXZ=            166.3388 ZZXY=            102.0080
 N-N= 5.434513564562D+03 E-N=-1.565007413930D+04  KE= 2.037696136307D+03
 No NMR shielding tensors so no spin-rotation constants.
 Leave Link  601 at Sun Jan 21 09:12:52 2018, MaxMem=  4294967296 cpu:              45.4 elap:               1.6
 (Enter /share/apps/g16/l9999.exe)
 1\1\GINC-COMPUTE-0-3\SP\RwB97XD\CC-pVDZ\C23H27N17O3\SATYA\21-Jan-2018\
 0\\#p wb97xd/cc-pvdz sp scf=(maxcycles=20)\\Base pair stacking\\0,1\N,
 0,7.66329,7.90086,-5.48568\C,0,8.1924,9.26585,-5.67237\C,0,6.35545,6.1
 3266,-5.46778\N,0,7.56415,5.72691,-4.92084\C,0,8.3037,6.80843,-4.95352
 \H,0,9.33326,6.86643,-4.59914\N,0,4.13745,6.14733,-6.26979\C,0,4.33063
 ,7.43875,-6.55701\H,0,3.47822,7.94817,-7.0044\N,0,5.41358,8.19183,-6.3
 7542\C,0,6.40145,7.47015,-5.82067\C,0,5.15063,5.4489,-5.71235\N,0,4.95
 973,4.15967,-5.42492\H,0,5.68196,3.60401,-5.01159\H,0,4.08875,3.70553,
 -5.61282\H,0,8.9919,9.23574,-6.27243\H,0,7.48865,9.84338,-6.08508\H,0,
 8.45683,9.64714,-4.78654\N,0,2.13452,7.18998,-3.2096\C,0,1.21873,6.170
 9,-3.31377\C,0,1.84475,8.62281,-3.41871\N,0,-2.02337,5.09252,-3.93639\
 H,0,-2.52035,4.22556,-3.96142\H,0,-2.54633,5.92126,-4.13744\N,0,-0.089
 18,6.30619,-3.62218\C,0,-0.71444,5.14255,-3.64635\N,0,-0.10715,3.93746
 ,-3.38852\H,0,-0.66362,3.09746,-3.42966\C,0,1.23722,3.7746,-3.06913\O,
 0,1.68627,2.64194,-2.85424\C,0,1.92204,5.01598,-3.03933\N,0,3.25259,5.
 30419,-2.76832\C,0,3.33171,6.60239,-2.88076\H,0,4.2424,7.18405,-2.7338
 4\H,0,2.40669,8.9724,-4.16759\H,0,0.87876,8.73536,-3.64776\H,0,2.04951
 ,9.1314,-2.58311\H,0,-3.82537,-0.75846,-4.42361\H,0,-4.01268,-0.78349,
 -2.67177\H,0,-3.69723,0.7403,-3.50239\H,0,0.22831,-3.00722,-3.13621\C,
 0,-0.18135,-1.99749,-3.16558\O,0,1.92695,-0.93715,-2.92501\C,0,0.70444
 ,-0.87902,-3.0549\H,0,0.67673,1.16716,-3.02863\N,0,0.08353,0.35278,-3.
 10369\O,0,-1.71638,1.7267,-3.2765\C,0,-1.2596,0.59757,-3.24379\H,0,-2.
 21193,-2.60703,-3.3914\C,0,-1.49623,-1.79073,-3.30322\C,0,-3.49071,-0.
 31962,-3.49545\N,0,-2.04849,-0.53149,-3.34427\H,0,-2.91012,3.07221,-8.
 15598\H,0,-2.3023,4.21201,-7.15924\H,0,-3.37574,3.12082,-6.59257\H,0,3
 .54377,0.76914,-5.30839\H,0,2.25669,-0.29447,-5.65808\N,0,2.59157,0.64
 584,-5.58815\C,0,1.80258,1.68833,-5.85628\C,0,-0.23265,2.74203,-6.4960
 2\N,0,0.2441,3.9937,-6.39371\H,0,1.98658,4.95581,-5.90514\C,0,1.51995,
 3.97762,-6.01311\N,0,2.31191,2.93455,-5.74408\H,0,-2.39777,0.41001,-7.
 06704\C,0,-1.50575,0.98621,-6.81958\N,0,-0.3578,0.46529,-6.46107\C,0,0
 .45831,1.56773,-6.25292\C,0,-2.611,3.26333,-7.2211\N,0,-1.50134,2.3591
 3,-6.86183\\Version=EM64L-G16RevA.03\State=1-A\HF=-2048.7485983\RMSD=6
 .135e-09\Dipole=-3.5941357,-0.1008292,-0.6924125\Quadrupole=28.1865109
 ,7.8845477,-36.0710585,32.9323696,0.1493998,7.2960377\PG=C01 [X(C23H27
 N17O3)]\\@


 I WISH TO HAVE NO CONNECTION WITH ANY SHIP THAT DOES NOT SAIL FAST,
 FOR I INTEND TO GO IN HARM'S WAY.
     -- JOHN PAUL JONES, USN 1747-1792
 Job cpu time:       0 days  5 hours 52 minutes  4.8 seconds.
 Elapsed time:       0 days  0 hours 11 minutes 29.4 seconds.
 File lengths (MBytes):  RWF=    298 Int=      0 D2E=      0 Chk=     33 Scr=      1
 Normal termination of Gaussian 16 at Sun Jan 21 09:12:52 2018.
