 Entering Gaussian System, Link 0=g16
 Input=str30.-10.0.0.com
 Output=str30.-10.0.0.log
 Initial command:
 /share/apps/g16/l1.exe "/state/partition1/scr/Gau-13397.inp" -scrdir="/state/partition1/scr/"
 Entering Link 1 = /share/apps/g16/l1.exe PID=     13398.
  
 Copyright (c) 1988,1990,1992,1993,1995,1998,2003,2009,2016,
            Gaussian, Inc.  All Rights Reserved.
  
 This is part of the Gaussian(R) 16 program.  It is based on
 the Gaussian(R) 09 system (copyright 2009, Gaussian, Inc.),
 the Gaussian(R) 03 system (copyright 2003, Gaussian, Inc.),
 the Gaussian(R) 98 system (copyright 1998, Gaussian, Inc.),
 the Gaussian(R) 94 system (copyright 1995, Gaussian, Inc.),
 the Gaussian 92(TM) system (copyright 1992, Gaussian, Inc.),
 the Gaussian 90(TM) system (copyright 1990, Gaussian, Inc.),
 the Gaussian 88(TM) system (copyright 1988, Gaussian, Inc.),
 the Gaussian 86(TM) system (copyright 1986, Carnegie Mellon
 University), and the Gaussian 82(TM) system (copyright 1983,
 Carnegie Mellon University). Gaussian is a federally registered
 trademark of Gaussian, Inc.
  
 This software contains proprietary and confidential information,
 including trade secrets, belonging to Gaussian, Inc.
  
 This software is provided under written license and may be
 used, copied, transmitted, or stored only in accord with that
 written license.
  
 The following legend is applicable only to US Government
 contracts under FAR:
  
                    RESTRICTED RIGHTS LEGEND
  
 Use, reproduction and disclosure by the US Government is
 subject to restrictions as set forth in subparagraphs (a)
 and (c) of the Commercial Computer Software - Restricted
 Rights clause in FAR 52.227-19.
  
 Gaussian, Inc.
 340 Quinnipiac St., Bldg. 40, Wallingford CT 06492
  
  
 ---------------------------------------------------------------
 Warning -- This program may not be used in any manner that
 competes with the business of Gaussian, Inc. or will provide
 assistance to any competitor of Gaussian, Inc.  The licensee
 of this program is prohibited from giving any competitor of
 Gaussian, Inc. access to this program.  By using this program,
 the user acknowledges that Gaussian, Inc. is engaged in the
 business of creating and licensing software in the field of
 computational chemistry and represents and warrants to the
 licensee that it is not a competitor of Gaussian, Inc. and that
 it will not use this program in any manner prohibited above.
 ---------------------------------------------------------------
  

 Cite this work as:
 Gaussian 16, Revision A.03,
 M. J. Frisch, G. W. Trucks, H. B. Schlegel, G. E. Scuseria, 
 M. A. Robb, J. R. Cheeseman, G. Scalmani, V. Barone, 
 G. A. Petersson, H. Nakatsuji, X. Li, M. Caricato, A. V. Marenich, 
 J. Bloino, B. G. Janesko, R. Gomperts, B. Mennucci, H. P. Hratchian, 
 J. V. Ortiz, A. F. Izmaylov, J. L. Sonnenberg, D. Williams-Young, 
 F. Ding, F. Lipparini, F. Egidi, J. Goings, B. Peng, A. Petrone, 
 T. Henderson, D. Ranasinghe, V. G. Zakrzewski, J. Gao, N. Rega, 
 G. Zheng, W. Liang, M. Hada, M. Ehara, K. Toyota, R. Fukuda, 
 J. Hasegawa, M. Ishida, T. Nakajima, Y. Honda, O. Kitao, H. Nakai, 
 T. Vreven, K. Throssell, J. A. Montgomery, Jr., J. E. Peralta, 
 F. Ogliaro, M. J. Bearpark, J. J. Heyd, E. N. Brothers, K. N. Kudin, 
 V. N. Staroverov, T. A. Keith, R. Kobayashi, J. Normand, 
 K. Raghavachari, A. P. Rendell, J. C. Burant, S. S. Iyengar, 
 J. Tomasi, M. Cossi, J. M. Millam, M. Klene, C. Adamo, R. Cammi, 
 J. W. Ochterski, R. L. Martin, K. Morokuma, O. Farkas, 
 J. B. Foresman, and D. J. Fox, Gaussian, Inc., Wallingford CT, 2016.
 
 ******************************************
 Gaussian 16:  EM64L-G16RevA.03 25-Dec-2016
                21-Jan-2018 
 ******************************************
 %nprocshared=32
 Will use up to   32 processors via shared memory.
 %mem=32GB
 %chk=allatoms_t.chk
 ---------------------------------------
 #p wb97xd/cc-pvdz sp scf=(maxcycles=20)
 ---------------------------------------
 1/38=1,172=1/1;
 2/12=2,17=6,18=5,40=1/2;
 3/5=16,11=2,25=1,30=1,74=-58/1,2,3;
 4//1;
 5/5=2,7=20,38=5/2;
 6/7=2,8=2,9=2,10=2,28=1/1;
 99/5=1,9=1/99;
 Leave Link    1 at Sun Jan 21 05:03:02 2018, MaxMem=  4294967296 cpu:               2.7 elap:               0.1
 (Enter /share/apps/g16/l101.exe)
 ------------------
 Base pair stacking
 ------------------
 Symbolic Z-matrix:
 Charge =  0 Multiplicity = 1
 N                     3.16069   4.32679  -6.89387 
 C                     3.63316   5.7249   -6.90158 
 C                     1.90394   2.52871  -6.7364 
 N                     3.17836   2.08452  -7.05779 
 C                     3.8845    3.18558  -7.1398 
 H                     4.94769   3.22391  -7.37876 
 N                    -0.39423   2.59026  -6.20956 
 C                    -0.26564   3.91945  -6.14401 
 H                    -1.17675   4.4632   -5.89811 
 N                     0.81438   4.67425  -6.3357 
 C                     1.87754   3.90854  -6.632 
 C                     0.69388   1.84801  -6.50985 
 N                     0.56751   0.52104  -6.57576 
 H                     1.34636  -0.06773  -6.7948 
 H                    -0.30948   0.07043  -6.40852 
 H                     3.99419   5.95119  -7.80636 
 H                     2.87225   6.33585  -6.68503 
 H                     4.35468   5.83888  -6.21863 
 N                     0.90743   4.79328  -3.23657 
 C                    -0.00795   3.77409  -3.12987 
 C                     0.58631   6.23455  -3.21818 
 N                    -3.29394   2.70752  -2.77428 
 H                    -3.78507   1.83898  -2.71363 
 H                    -3.84196   3.543    -2.7257 
 N                    -1.34379   3.9169   -2.99142 
 C                    -1.96038   2.75092  -2.91447 
 N                    -1.31963   1.53684  -2.96876 
 H                    -1.87189   0.6957   -2.90199 
 C                     0.05388   1.36613  -3.11087 
 O                     0.532     0.22565  -3.14889 
 C                     0.72979   2.60991  -3.19485 
 N                     2.08113   2.89253  -3.33944 
 C                     2.1385    4.19658  -3.35925 
 H                     3.05653   4.77626  -3.46158 
 H                     0.88441   6.65511  -4.07438 
 H                    -0.40054   6.35271  -3.11603 
 H                     1.05447   6.67229  -2.45136 
 H                    -5.23963  -3.10481  -3.16119 
 H                    -4.85775  -3.28295  -1.45032 
 H                    -4.80272  -1.68911  -2.20398 
 H                    -1.01929  -5.3984   -3.43469 
 C                    -1.40255  -4.39577  -3.24474 
 O                     0.68687  -3.33035  -3.60019 
 C                    -0.51212  -3.27855  -3.32717 
 H                    -0.50108  -1.24279  -3.11767 
 N                    -1.0986   -2.05601  -3.06897 
 O                    -2.83979  -0.69789  -2.53891 
 C                    -2.4125   -1.81909  -2.75103 
 H                    -3.40726  -5.01227  -2.86147 
 C                    -2.68943  -4.19655  -2.93676 
 C                    -4.6198   -2.74268  -2.35451 
 N                    -3.20801  -2.94636  -2.69084 
 H                    -7.62842  -0.37572  -4.96387 
 H                    -6.49021   0.45391  -4.14028 
 H                    -7.20086  -0.84944  -3.4618 
 H                    -0.87389  -2.85462  -6.77959 
 H                    -2.24253  -3.87053  -6.70982 
 N                    -1.83829  -2.97077  -6.54172 
 C                    -2.55436  -1.97093  -6.02332 
 C                    -4.52011  -0.95785  -5.14515 
 N                    -3.95094   0.23977  -4.93024 
 H                    -2.1327    1.15757  -5.15882 
 C                    -2.67189   0.22182  -5.29986 
 N                    -1.95288  -0.77859  -5.81927 
 H                    -6.86181  -3.18661  -5.18015 
 C                    -5.92494  -2.63664  -5.27368 
 N                    -4.81085  -3.13776  -5.74839 
 C                    -3.91197  -2.08372  -5.67249 
 C                    -6.8688   -0.45391  -4.31823 
 N                    -5.82092  -1.32197  -4.88957 
 
 ITRead=  0  0  0  0  0  0  0  0  0  0  0  0  0  0  0  0  0  0  0  0
 ITRead=  0  0  0  0  0  0  0  0  0  0  0  0  0  0  0  0  0  0  0  0
 ITRead=  0  0  0  0  0  0  0  0  0  0  0  0  0  0  0  0  0  0  0  0
 ITRead=  0  0  0  0  0  0  0  0  0  0
 MicOpt= -1 -1 -1 -1 -1 -1 -1 -1 -1 -1 -1 -1 -1 -1 -1 -1 -1 -1 -1 -1
 MicOpt= -1 -1 -1 -1 -1 -1 -1 -1 -1 -1 -1 -1 -1 -1 -1 -1 -1 -1 -1 -1
 MicOpt= -1 -1 -1 -1 -1 -1 -1 -1 -1 -1 -1 -1 -1 -1 -1 -1 -1 -1 -1 -1
 MicOpt= -1 -1 -1 -1 -1 -1 -1 -1 -1 -1
 NAtoms=     70 NQM=       70 NQMF=       0 NMMI=      0 NMMIF=      0
                NMic=       0 NMicF=      0.
                    Isotopes and Nuclear Properties:
 (Nuclear quadrupole moments (NQMom) in fm**2, nuclear magnetic moments (NMagM)
  in nuclear magnetons)

  Atom         1           2           3           4           5           6           7           8           9          10
 IAtWgt=          14          12          12          14          12           1          14          12           1          14
 AtmWgt=  14.0030740  12.0000000  12.0000000  14.0030740  12.0000000   1.0078250  14.0030740  12.0000000   1.0078250  14.0030740
 NucSpn=           2           0           0           2           0           1           2           0           1           2
 AtZEff=  -0.0000000  -0.0000000  -0.0000000  -0.0000000  -0.0000000  -0.0000000  -0.0000000  -0.0000000  -0.0000000  -0.0000000
 NQMom=    2.0440000   0.0000000   0.0000000   2.0440000   0.0000000   0.0000000   2.0440000   0.0000000   0.0000000   2.0440000
 NMagM=    0.4037610   0.0000000   0.0000000   0.4037610   0.0000000   2.7928460   0.4037610   0.0000000   2.7928460   0.4037610
 AtZNuc=   7.0000000   6.0000000   6.0000000   7.0000000   6.0000000   1.0000000   7.0000000   6.0000000   1.0000000   7.0000000

  Atom        11          12          13          14          15          16          17          18          19          20
 IAtWgt=          12          12          14           1           1           1           1           1          14          12
 AtmWgt=  12.0000000  12.0000000  14.0030740   1.0078250   1.0078250   1.0078250   1.0078250   1.0078250  14.0030740  12.0000000
 NucSpn=           0           0           2           1           1           1           1           1           2           0
 AtZEff=  -0.0000000  -0.0000000  -0.0000000  -0.0000000  -0.0000000  -0.0000000  -0.0000000  -0.0000000  -0.0000000  -0.0000000
 NQMom=    0.0000000   0.0000000   2.0440000   0.0000000   0.0000000   0.0000000   0.0000000   0.0000000   2.0440000   0.0000000
 NMagM=    0.0000000   0.0000000   0.4037610   2.7928460   2.7928460   2.7928460   2.7928460   2.7928460   0.4037610   0.0000000
 AtZNuc=   6.0000000   6.0000000   7.0000000   1.0000000   1.0000000   1.0000000   1.0000000   1.0000000   7.0000000   6.0000000

  Atom        21          22          23          24          25          26          27          28          29          30
 IAtWgt=          12          14           1           1          14          12          14           1          12          16
 AtmWgt=  12.0000000  14.0030740   1.0078250   1.0078250  14.0030740  12.0000000  14.0030740   1.0078250  12.0000000  15.9949146
 NucSpn=           0           2           1           1           2           0           2           1           0           0
 AtZEff=  -0.0000000  -0.0000000  -0.0000000  -0.0000000  -0.0000000  -0.0000000  -0.0000000  -0.0000000  -0.0000000  -0.0000000
 NQMom=    0.0000000   2.0440000   0.0000000   0.0000000   2.0440000   0.0000000   2.0440000   0.0000000   0.0000000   0.0000000
 NMagM=    0.0000000   0.4037610   2.7928460   2.7928460   0.4037610   0.0000000   0.4037610   2.7928460   0.0000000   0.0000000
 AtZNuc=   6.0000000   7.0000000   1.0000000   1.0000000   7.0000000   6.0000000   7.0000000   1.0000000   6.0000000   8.0000000

  Atom        31          32          33          34          35          36          37          38          39          40
 IAtWgt=          12          14          12           1           1           1           1           1           1           1
 AtmWgt=  12.0000000  14.0030740  12.0000000   1.0078250   1.0078250   1.0078250   1.0078250   1.0078250   1.0078250   1.0078250
 NucSpn=           0           2           0           1           1           1           1           1           1           1
 AtZEff=  -0.0000000  -0.0000000  -0.0000000  -0.0000000  -0.0000000  -0.0000000  -0.0000000  -0.0000000  -0.0000000  -0.0000000
 NQMom=    0.0000000   2.0440000   0.0000000   0.0000000   0.0000000   0.0000000   0.0000000   0.0000000   0.0000000   0.0000000
 NMagM=    0.0000000   0.4037610   0.0000000   2.7928460   2.7928460   2.7928460   2.7928460   2.7928460   2.7928460   2.7928460
 AtZNuc=   6.0000000   7.0000000   6.0000000   1.0000000   1.0000000   1.0000000   1.0000000   1.0000000   1.0000000   1.0000000

  Atom        41          42          43          44          45          46          47          48          49          50
 IAtWgt=           1          12          16          12           1          14          16          12           1          12
 AtmWgt=   1.0078250  12.0000000  15.9949146  12.0000000   1.0078250  14.0030740  15.9949146  12.0000000   1.0078250  12.0000000
 NucSpn=           1           0           0           0           1           2           0           0           1           0
 AtZEff=  -0.0000000  -0.0000000  -0.0000000  -0.0000000  -0.0000000  -0.0000000  -0.0000000  -0.0000000  -0.0000000  -0.0000000
 NQMom=    0.0000000   0.0000000   0.0000000   0.0000000   0.0000000   2.0440000   0.0000000   0.0000000   0.0000000   0.0000000
 NMagM=    2.7928460   0.0000000   0.0000000   0.0000000   2.7928460   0.4037610   0.0000000   0.0000000   2.7928460   0.0000000
 AtZNuc=   1.0000000   6.0000000   8.0000000   6.0000000   1.0000000   7.0000000   8.0000000   6.0000000   1.0000000   6.0000000

  Atom        51          52          53          54          55          56          57          58          59          60
 IAtWgt=          12          14           1           1           1           1           1          14          12          12
 AtmWgt=  12.0000000  14.0030740   1.0078250   1.0078250   1.0078250   1.0078250   1.0078250  14.0030740  12.0000000  12.0000000
 NucSpn=           0           2           1           1           1           1           1           2           0           0
 AtZEff=  -0.0000000  -0.0000000  -0.0000000  -0.0000000  -0.0000000  -0.0000000  -0.0000000  -0.0000000  -0.0000000  -0.0000000
 NQMom=    0.0000000   2.0440000   0.0000000   0.0000000   0.0000000   0.0000000   0.0000000   2.0440000   0.0000000   0.0000000
 NMagM=    0.0000000   0.4037610   2.7928460   2.7928460   2.7928460   2.7928460   2.7928460   0.4037610   0.0000000   0.0000000
 AtZNuc=   6.0000000   7.0000000   1.0000000   1.0000000   1.0000000   1.0000000   1.0000000   7.0000000   6.0000000   6.0000000

  Atom        61          62          63          64          65          66          67          68          69          70
 IAtWgt=          14           1          12          14           1          12          14          12          12          14
 AtmWgt=  14.0030740   1.0078250  12.0000000  14.0030740   1.0078250  12.0000000  14.0030740  12.0000000  12.0000000  14.0030740
 NucSpn=           2           1           0           2           1           0           2           0           0           2
 AtZEff=  -0.0000000  -0.0000000  -0.0000000  -0.0000000  -0.0000000  -0.0000000  -0.0000000  -0.0000000  -0.0000000  -0.0000000
 NQMom=    2.0440000   0.0000000   0.0000000   2.0440000   0.0000000   0.0000000   2.0440000   0.0000000   0.0000000   2.0440000
 NMagM=    0.4037610   2.7928460   0.0000000   0.4037610   2.7928460   0.0000000   0.4037610   0.0000000   0.0000000   0.4037610
 AtZNuc=   7.0000000   1.0000000   6.0000000   7.0000000   1.0000000   6.0000000   7.0000000   6.0000000   6.0000000   7.0000000
 Leave Link  101 at Sun Jan 21 05:03:02 2018, MaxMem=  4294967296 cpu:               6.3 elap:               0.2
 (Enter /share/apps/g16/l202.exe)
 Stoichiometry    C23H27N17O3
 Framework group  C1[X(C23H27N17O3)]
 Deg. of freedom   204
 Full point group                 C1      NOp   1
 Largest Abelian subgroup         C1      NOp   1
 Largest concise Abelian subgroup C1      NOp   1
                         Standard orientation:                         
 ---------------------------------------------------------------------
 Center     Atomic      Atomic             Coordinates (Angstroms)
 Number     Number       Type             X           Y           Z
 ---------------------------------------------------------------------
      1          7           0        5.783588   -1.383625   -1.040302
      2          6           0        7.135945   -0.794961   -1.091335
      3          6           0        3.602166   -1.658380   -1.097025
      4          7           0        4.142916   -2.903881   -0.812317
      5          6           0        5.435505   -2.688501   -0.789542
      6          1           0        6.188014   -3.452727   -0.592989
      7          7           0        2.081992    0.090621   -1.536347
      8          6           0        3.149295    0.888477   -1.645288
      9          1           0        2.929418    1.930944   -1.871494
     10          7           0        4.441356    0.593316   -1.517346
     11          6           0        4.601212   -0.711321   -1.240249
     12          6           0        2.276135   -1.216783   -1.256890
     13          7           0        1.211982   -2.014802   -1.147765
     14          1           0        1.308579   -2.989253   -0.941974
     15          1           0        0.282435   -1.666036   -1.267906
     16          1           0        7.671344   -1.247704   -1.804461
     17          1           0        7.067916    0.181071   -1.295961
     18          1           0        7.588794   -0.917884   -0.208260
     19          7           0        4.137418    1.852776    1.302019
     20          6           0        2.766836    1.836376    1.205639
     21          6           0        5.004000    2.996967    0.954775
     22          7           0       -0.211638    3.434568    0.408002
     23          1           0       -1.187975    3.220103    0.412345
     24          1           0        0.050679    4.348928    0.098407
     25          7           0        1.987759    2.854561    0.780939
     26          6           0        0.705408    2.537003    0.799566
     27          7           0        0.221010    1.316268    1.202882
     28          1           0       -0.775351    1.161737    1.184160
     29          6           0        1.004176    0.254106    1.643710
     30          8           0        0.467035   -0.806731    1.985536
     31          6           0        2.384147    0.580244    1.629290
     32          7           0        3.492174   -0.176732    1.984487
     33          6           0        4.507019    0.617118    1.774438
     34          1           0        5.550147    0.350707    1.948189
     35          1           0        5.636734    2.729755    0.228788
     36          1           0        4.437939    3.757244    0.638827
     37          1           0        5.522424    3.281191    1.760538
     38          1           0       -5.760506    0.807165    0.248612
     39          1           0       -5.896411    1.130088    1.975428
     40          1           0       -4.559149    1.817497    1.053173
     41          1           0       -4.700321   -3.529480    2.041976
     42          6           0       -4.226975   -2.558224    1.897607
     43          8           0       -2.024720   -3.377149    2.224065
     44          6           0       -2.802832   -2.452738    1.989958
     45          1           0       -1.304588   -1.065803    1.848507
     46          7           0       -2.306764   -1.180116    1.791013
     47          8           0       -2.497320    1.041505    1.360563
     48          6           0       -3.027525   -0.043649    1.521760
     49          1           0       -6.042842   -1.494459    1.555757
     50          6           0       -4.956953   -1.467627    1.636203
     51          6           0       -5.206151    0.959864    1.162633
     52          7           0       -4.394424   -0.226398    1.448356
     53          1           0       -5.004756    3.397162   -2.772093
     54          1           0       -3.767526    3.519604   -1.715506
     55          1           0       -5.301474    3.416316   -1.167405
     56          1           0       -2.215489   -3.329385   -1.344156
     57          1           0       -3.871917   -3.063048   -1.653071
     58          7           0       -2.961996   -2.680069   -1.489952
     59          6           0       -2.754417   -1.361887   -1.468010
     60          6           0       -3.399304    0.923741   -1.615357
     61          7           0       -2.166710    1.409678   -1.393973
     62          1           0       -0.269069    0.723422   -1.035342
     63          6           0       -1.297293    0.416104   -1.221241
     64          7           0       -1.503246   -0.904766   -1.242844
     65          1           0       -6.577524    1.001799   -2.202705
     66          6           0       -5.545684    0.707519   -2.008680
     67          7           0       -5.128957   -0.531631   -1.916408
     68          6           0       -3.769718   -0.408781   -1.667158
     69          6           0       -4.665410    3.110768   -1.876096
     70          7           0       -4.551741    1.639867   -1.836863
 ---------------------------------------------------------------------
 Rotational constants (GHZ):           0.1581134           0.0548152           0.0516031
 Leave Link  202 at Sun Jan 21 05:03:02 2018, MaxMem=  4294967296 cpu:               0.4 elap:               0.0
 (Enter /share/apps/g16/l301.exe)
 Standard basis: CC-pVDZ (5D, 7F)
 Ernie: Thresh=  0.10000D-02 Tol=  0.10000D-05 Strict=F.
 Ernie:  86 primitive shells out of 1081 were deleted.
 There are   780 symmetry adapted cartesian basis functions of A   symmetry.
 There are   737 symmetry adapted basis functions of A   symmetry.
   737 basis functions,  1608 primitive gaussians,   780 cartesian basis functions
   154 alpha electrons      154 beta electrons
       nuclear repulsion energy      5593.2803014498 Hartrees.
 IExCor= 4639 DFT=T Ex+Corr=wB97XD ExCW=0 ScaHFX=  1.000000
 ScaDFX=  1.000000  1.000000  1.000000  1.000000 ScalE2=  1.000000  1.000000
 IRadAn=      5 IRanWt=     -1 IRanGd=            0 ICorTp=0 IEmpDi=121
 HFx  wShort=  0.000000 wLong=  0.200000 cFull=  0.222036 cShort=  0.000000 cLong=  0.777964
 DFx  wShort=  0.000000 wLong=  0.200000 cFull=  0.000000 cShort=  0.000000 cLong=  1.000000
 NAtoms=   70 NActive=   70 NUniq=   70 SFac= 1.00D+00 NAtFMM=   60 NAOKFM=T Big=T
 Integral buffers will be    131072 words long.
 Raffenetti 2 integral format.
 Two-electron integral symmetry is turned on.
 R6Disp:  Grimme-D2 Dispersion energy=       -0.0776235131 Hartrees.
 Nuclear repulsion after empirical dispersion term =     5593.2026779367 Hartrees.
 Leave Link  301 at Sun Jan 21 05:03:02 2018, MaxMem=  4294967296 cpu:               2.5 elap:               0.1
 (Enter /share/apps/g16/l302.exe)
 NPDir=0 NMtPBC=     1 NCelOv=     1 NCel=       1 NClECP=     1 NCelD=      1
         NCelK=      1 NCelE2=     1 NClLst=     1 CellRange=     0.0.
 One-electron integrals computed using PRISM.
 One-electron integral symmetry used in STVInt
 NBasis=   737 RedAO= T EigKep=  6.76D-04  NBF=   737
 NBsUse=   737 1.00D-06 EigRej= -1.00D+00 NBFU=   737
 Precomputing XC quadrature grid using
 IXCGrd= 4 IRadAn=           5 IRanWt=          -1 IRanGd=           0 AccXCQ= 0.00D+00.
 Generated NRdTot=       0 NPtTot=           0 NUsed=           0 NTot=          32
 NSgBfM=   770   770   770   770   770 MxSgAt=    70 MxSgA2=    70.
 Leave Link  302 at Sun Jan 21 05:03:06 2018, MaxMem=  4294967296 cpu:             138.5 elap:               4.4
 (Enter /share/apps/g16/l303.exe)
 DipDrv:  MaxL=1.
 Leave Link  303 at Sun Jan 21 05:03:07 2018, MaxMem=  4294967296 cpu:              12.7 elap:               0.4
 (Enter /share/apps/g16/l401.exe)
 ExpMin= 1.22D-01 ExpMax= 1.17D+04 ExpMxC= 4.01D+02 IAcc=3 IRadAn=         5 AccDes= 0.00D+00
 Harris functional with IExCor= 4639 and IRadAn=       5 diagonalized for initial guess.
 HarFok:  IExCor= 4639 AccDes= 0.00D+00 IRadAn=         5 IDoV= 1 UseB2=F ITyADJ=14
 ICtDFT=  3500011 ScaDFX=  1.000000  1.000000  1.000000  1.000000
 FoFCou: FMM=F IPFlag=           0 FMFlag=      100000 FMFlg1=        2001
         NFxFlg=           0 DoJE=T BraDBF=F KetDBF=T FulRan=T
         wScrn=  0.000000 ICntrl=       500 IOpCl=  0 I1Cent=   200000004 NGrid=           0
         NMat0=    1 NMatS0=      1 NMatT0=    0 NMatD0=    1 NMtDS0=    0 NMtDT0=    0
 Petite list used in FoFCou.
 Harris En= -1963.88215882964    
 JPrj=0 DoOrth=F DoCkMO=F.
 Leave Link  401 at Sun Jan 21 05:03:20 2018, MaxMem=  4294967296 cpu:             414.4 elap:              13.0
 (Enter /share/apps/g16/l502.exe)
 Integral symmetry usage will be decided dynamically.
 Closed shell SCF:
 Using DIIS extrapolation, IDIIS=  1040.
 NGot=  4294967296 LenX=  4293717438 LenY=  4293108258
 Requested convergence on RMS density matrix=1.00D-08 within  20 cycles.
 Requested convergence on MAX density matrix=1.00D-06.
 Requested convergence on             energy=1.00D-06.
 No special actions if energy rises.
 Fock matrices will be formed incrementally for  20 cycles.
 Integral accuracy reduced to 1.0D-05 until final iterations.

 Cycle   1  Pass 0  IDiag  1:
 FoFJK:  IHMeth= 1 ICntrl=       0 DoSepK=T KAlg= 0 I1Cent=           0 FoldK=F
 IRaf=         1 NMat=       1 IRICut=       1 DoRegI=T DoRafI=F ISym2E= 0 IDoP0=0 IntGTp=1.
 FoFCou: FMM=T IPFlag=           0 FMFlag=      100000 FMFlg1=        2001
         NFxFlg=           0 DoJE=T BraDBF=F KetDBF=F FulRan=T
         wScrn=  0.000000 ICntrl=       500 IOpCl=  0 I1Cent=           0 NGrid=           0
         NMat0=    1 NMatS0=      1 NMatT0=    0 NMatD0=    1 NMtDS0=    0 NMtDT0=    0
 Symmetry not used in FoFCou.
 FMM levels:  10  Number of levels for PrismC:   9
 E= -2048.31703371365    
 DIIS: error= 2.19D-02 at cycle   1 NSaved=   1.
 NSaved= 1 IEnMin= 1 EnMin= -2048.31703371365     IErMin= 1 ErrMin= 2.19D-02
 ErrMax= 2.19D-02  0.00D+00 EMaxC= 1.00D-01 BMatC= 8.31D-01 BMatP= 8.31D-01
 IDIUse=3 WtCom= 7.81D-01 WtEn= 2.19D-01
 Coeff-Com:  0.100D+01
 Coeff-En:   0.100D+01
 Coeff:      0.100D+01
 Gap=     0.255 Goal=   None    Shift=    0.000
 GapD=    0.255 DampG=1.000 DampE=0.500 DampFc=0.5000 IDamp=-1.
 Damping current iteration by 5.00D-01
 RMSDP=1.57D-03 MaxDP=1.31D-01              OVMax= 2.08D-01

 Cycle   2  Pass 0  IDiag  1:
 RMSU=  7.84D-04    CP:  9.98D-01
 E= -2048.51338908108     Delta-E=       -0.196355367423 Rises=F Damp=T
 DIIS: error= 1.21D-02 at cycle   2 NSaved=   2.
 NSaved= 2 IEnMin= 2 EnMin= -2048.51338908108     IErMin= 2 ErrMin= 1.21D-02
 ErrMax= 1.21D-02  0.00D+00 EMaxC= 1.00D-01 BMatC= 1.45D-01 BMatP= 8.31D-01
 IDIUse=3 WtCom= 8.79D-01 WtEn= 1.21D-01
 Coeff-Com: -0.197D+00 0.120D+01
 Coeff-En:   0.000D+00 0.100D+01
 Coeff:     -0.173D+00 0.117D+01
 Gap=     0.318 Goal=   None    Shift=    0.000
 RMSDP=5.89D-04 MaxDP=3.54D-02 DE=-1.96D-01 OVMax= 1.25D-01

 Cycle   3  Pass 0  IDiag  1:
 RMSU=  5.78D-04    CP:  9.94D-01  1.13D+00
 E= -2048.69133508318     Delta-E=       -0.177946002099 Rises=F Damp=F
 DIIS: error= 6.35D-03 at cycle   3 NSaved=   3.
 NSaved= 3 IEnMin= 3 EnMin= -2048.69133508318     IErMin= 3 ErrMin= 6.35D-03
 ErrMax= 6.35D-03  0.00D+00 EMaxC= 1.00D-01 BMatC= 6.42D-02 BMatP= 1.45D-01
 IDIUse=3 WtCom= 9.37D-01 WtEn= 6.35D-02
 Coeff-Com: -0.233D+00 0.553D+00 0.680D+00
 Coeff-En:   0.000D+00 0.000D+00 0.100D+01
 Coeff:     -0.218D+00 0.518D+00 0.700D+00
 Gap=     0.283 Goal=   None    Shift=    0.000
 RMSDP=3.60D-04 MaxDP=3.40D-02 DE=-1.78D-01 OVMax= 6.87D-02

 Cycle   4  Pass 0  IDiag  1:
 RMSU=  2.05D-04    CP:  9.95D-01  1.42D+00  6.68D-01
 E= -2048.73996931923     Delta-E=       -0.048634236056 Rises=F Damp=F
 DIIS: error= 2.59D-03 at cycle   4 NSaved=   4.
 NSaved= 4 IEnMin= 4 EnMin= -2048.73996931923     IErMin= 4 ErrMin= 2.59D-03
 ErrMax= 2.59D-03  0.00D+00 EMaxC= 1.00D-01 BMatC= 9.01D-03 BMatP= 6.42D-02
 IDIUse=3 WtCom= 9.74D-01 WtEn= 2.59D-02
 Coeff-Com: -0.979D-01 0.190D+00 0.375D+00 0.533D+00
 Coeff-En:   0.000D+00 0.000D+00 0.583D-01 0.942D+00
 Coeff:     -0.953D-01 0.185D+00 0.367D+00 0.543D+00
 Gap=     0.285 Goal=   None    Shift=    0.000
 RMSDP=1.27D-04 MaxDP=1.14D-02 DE=-4.86D-02 OVMax= 1.52D-02

 Cycle   5  Pass 0  IDiag  1:
 RMSU=  6.20D-05    CP:  9.94D-01  1.39D+00  7.98D-01  6.20D-01
 E= -2048.74742695242     Delta-E=       -0.007457633184 Rises=F Damp=F
 DIIS: error= 5.05D-04 at cycle   5 NSaved=   5.
 NSaved= 5 IEnMin= 5 EnMin= -2048.74742695242     IErMin= 5 ErrMin= 5.05D-04
 ErrMax= 5.05D-04  0.00D+00 EMaxC= 1.00D-01 BMatC= 2.94D-04 BMatP= 9.01D-03
 IDIUse=3 WtCom= 9.95D-01 WtEn= 5.05D-03
 Coeff-Com: -0.258D-01 0.445D-01 0.121D+00 0.240D+00 0.621D+00
 Coeff-En:   0.000D+00 0.000D+00 0.000D+00 0.000D+00 0.100D+01
 Coeff:     -0.257D-01 0.442D-01 0.121D+00 0.238D+00 0.622D+00
 Gap=     0.285 Goal=   None    Shift=    0.000
 RMSDP=2.66D-05 MaxDP=1.76D-03 DE=-7.46D-03 OVMax= 3.32D-03

 Failed to achieve initial convergence to 1.0D-08 in  6 cycles.
 Switch to full accuracy anyway.
 Cycle   6  Pass 1  IDiag  1:
 E= -2048.74755913009     Delta-E=       -0.000132177673 Rises=F Damp=F
 DIIS: error= 3.01D-04 at cycle   1 NSaved=   1.
 NSaved= 1 IEnMin= 1 EnMin= -2048.74755913009     IErMin= 1 ErrMin= 3.01D-04
 ErrMax= 3.01D-04  0.00D+00 EMaxC= 1.00D-01 BMatC= 7.90D-05 BMatP= 7.90D-05
 IDIUse=3 WtCom= 9.97D-01 WtEn= 3.01D-03
 Coeff-Com:  0.100D+01
 Coeff-En:   0.100D+01
 Coeff:      0.100D+01
 Gap=     0.285 Goal=   None    Shift=    0.000
 RMSDP=2.66D-05 MaxDP=1.76D-03 DE=-1.32D-04 OVMax= 2.19D-03

 Cycle   7  Pass 1  IDiag  1:
 RMSU=  1.18D-04    CP:  1.00D+00
 E= -2048.74761779042     Delta-E=       -0.000058660326 Rises=F Damp=F
 DIIS: error= 2.13D-04 at cycle   2 NSaved=   2.
 NSaved= 2 IEnMin= 2 EnMin= -2048.74761779042     IErMin= 2 ErrMin= 2.13D-04
 ErrMax= 2.13D-04  0.00D+00 EMaxC= 1.00D-01 BMatC= 4.42D-05 BMatP= 7.90D-05
 IDIUse=3 WtCom= 9.98D-01 WtEn= 2.13D-03
 Coeff-Com:  0.402D+00 0.598D+00
 Coeff-En:   0.000D+00 0.100D+01
 Coeff:      0.401D+00 0.599D+00
 Gap=     0.285 Goal=   None    Shift=    0.000
 RMSDP=1.17D-05 MaxDP=1.03D-03 DE=-5.87D-05 OVMax= 1.61D-03

 Cycle   8  Pass 1  IDiag  1:
 RMSU=  1.14D-05    CP:  1.00D+00  1.02D+00
 E= -2048.74764993674     Delta-E=       -0.000032146325 Rises=F Damp=F
 DIIS: error= 1.07D-04 at cycle   3 NSaved=   3.
 NSaved= 3 IEnMin= 3 EnMin= -2048.74764993674     IErMin= 3 ErrMin= 1.07D-04
 ErrMax= 1.07D-04  0.00D+00 EMaxC= 1.00D-01 BMatC= 1.10D-05 BMatP= 4.42D-05
 IDIUse=3 WtCom= 9.99D-01 WtEn= 1.07D-03
 Coeff-Com: -0.199D-01 0.320D+00 0.700D+00
 Coeff-En:   0.000D+00 0.149D+00 0.851D+00
 Coeff:     -0.198D-01 0.320D+00 0.700D+00
 Gap=     0.285 Goal=   None    Shift=    0.000
 RMSDP=5.85D-06 MaxDP=4.55D-04 DE=-3.21D-05 OVMax= 6.15D-04

 Cycle   9  Pass 1  IDiag  1:
 RMSU=  4.00D-06    CP:  1.00D+00  1.05D+00  7.58D-01
 E= -2048.74766042832     Delta-E=       -0.000010491583 Rises=F Damp=F
 DIIS: error= 2.40D-05 at cycle   4 NSaved=   4.
 NSaved= 4 IEnMin= 4 EnMin= -2048.74766042832     IErMin= 4 ErrMin= 2.40D-05
 ErrMax= 2.40D-05  0.00D+00 EMaxC= 1.00D-01 BMatC= 5.41D-07 BMatP= 1.10D-05
 IDIUse=1 WtCom= 1.00D+00 WtEn= 0.00D+00
 Coeff-Com: -0.303D-01 0.898D-01 0.263D+00 0.677D+00
 Coeff:     -0.303D-01 0.898D-01 0.263D+00 0.677D+00
 Gap=     0.285 Goal=   None    Shift=    0.000
 RMSDP=1.49D-06 MaxDP=1.34D-04 DE=-1.05D-05 OVMax= 4.38D-04

 Cycle  10  Pass 1  IDiag  1:
 RMSU=  1.32D-06    CP:  1.00D+00  1.06D+00  7.95D-01  1.10D+00
 E= -2048.74766132098     Delta-E=       -0.000000892656 Rises=F Damp=F
 DIIS: error= 1.09D-05 at cycle   5 NSaved=   5.
 NSaved= 5 IEnMin= 5 EnMin= -2048.74766132098     IErMin= 5 ErrMin= 1.09D-05
 ErrMax= 1.09D-05  0.00D+00 EMaxC= 1.00D-01 BMatC= 1.27D-07 BMatP= 5.41D-07
 IDIUse=1 WtCom= 1.00D+00 WtEn= 0.00D+00
 Coeff-Com: -0.287D-02-0.585D-01-0.120D+00 0.204D+00 0.978D+00
 Coeff:     -0.287D-02-0.585D-01-0.120D+00 0.204D+00 0.978D+00
 Gap=     0.285 Goal=   None    Shift=    0.000
 RMSDP=1.27D-06 MaxDP=8.04D-05 DE=-8.93D-07 OVMax= 2.19D-04

 Cycle  11  Pass 1  IDiag  1:
 RMSU=  5.10D-07    CP:  1.00D+00  1.06D+00  8.10D-01  1.38D+00  1.18D+00
 E= -2048.74766160102     Delta-E=       -0.000000280041 Rises=F Damp=F
 DIIS: error= 5.38D-06 at cycle   6 NSaved=   6.
 NSaved= 6 IEnMin= 6 EnMin= -2048.74766160102     IErMin= 6 ErrMin= 5.38D-06
 ErrMax= 5.38D-06  0.00D+00 EMaxC= 1.00D-01 BMatC= 3.11D-08 BMatP= 1.27D-07
 IDIUse=1 WtCom= 1.00D+00 WtEn= 0.00D+00
 Coeff-Com:  0.468D-02-0.476D-01-0.115D+00-0.166D-02 0.527D+00 0.632D+00
 Coeff:      0.468D-02-0.476D-01-0.115D+00-0.166D-02 0.527D+00 0.632D+00
 Gap=     0.285 Goal=   None    Shift=    0.000
 RMSDP=3.90D-07 MaxDP=3.85D-05 DE=-2.80D-07 OVMax= 1.14D-04

 Cycle  12  Pass 1  IDiag  1:
 RMSU=  1.96D-07    CP:  1.00D+00  1.06D+00  8.12D-01  1.46D+00  1.31D+00
                    CP:  9.34D-01
 E= -2048.74766164585     Delta-E=       -0.000000044833 Rises=F Damp=F
 DIIS: error= 1.20D-06 at cycle   7 NSaved=   7.
 NSaved= 7 IEnMin= 7 EnMin= -2048.74766164585     IErMin= 7 ErrMin= 1.20D-06
 ErrMax= 1.20D-06  0.00D+00 EMaxC= 1.00D-01 BMatC= 9.07D-10 BMatP= 3.11D-08
 IDIUse=1 WtCom= 1.00D+00 WtEn= 0.00D+00
 Coeff-Com:  0.117D-02-0.827D-02-0.214D-01-0.860D-02 0.640D-01 0.144D+00
 Coeff-Com:  0.829D+00
 Coeff:      0.117D-02-0.827D-02-0.214D-01-0.860D-02 0.640D-01 0.144D+00
 Coeff:      0.829D+00
 Gap=     0.285 Goal=   None    Shift=    0.000
 RMSDP=8.83D-08 MaxDP=5.40D-06 DE=-4.48D-08 OVMax= 2.02D-05

 Cycle  13  Pass 1  IDiag  1:
 RMSU=  5.18D-08    CP:  1.00D+00  1.06D+00  8.12D-01  1.46D+00  1.33D+00
                    CP:  1.02D+00  1.14D+00
 E= -2048.74766164785     Delta-E=       -0.000000001997 Rises=F Damp=F
 DIIS: error= 6.65D-07 at cycle   8 NSaved=   8.
 NSaved= 8 IEnMin= 8 EnMin= -2048.74766164785     IErMin= 8 ErrMin= 6.65D-07
 ErrMax= 6.65D-07  0.00D+00 EMaxC= 1.00D-01 BMatC= 3.68D-10 BMatP= 9.07D-10
 IDIUse=1 WtCom= 1.00D+00 WtEn= 0.00D+00
 Coeff-Com: -0.720D-03 0.919D-02 0.213D-01-0.233D-02-0.115D+00-0.998D-01
 Coeff-Com:  0.421D+00 0.766D+00
 Coeff:     -0.720D-03 0.919D-02 0.213D-01-0.233D-02-0.115D+00-0.998D-01
 Coeff:      0.421D+00 0.766D+00
 Gap=     0.285 Goal=   None    Shift=    0.000
 RMSDP=5.11D-08 MaxDP=3.01D-06 DE=-2.00D-09 OVMax= 1.13D-05

 Cycle  14  Pass 1  IDiag  1:
 RMSU=  2.97D-08    CP:  1.00D+00  1.06D+00  8.11D-01  1.47D+00  1.33D+00
                    CP:  1.07D+00  1.30D+00  1.11D+00
 E= -2048.74766164831     Delta-E=       -0.000000000462 Rises=F Damp=F
 DIIS: error= 1.97D-07 at cycle   9 NSaved=   9.
 NSaved= 9 IEnMin= 9 EnMin= -2048.74766164831     IErMin= 9 ErrMin= 1.97D-07
 ErrMax= 1.97D-07  0.00D+00 EMaxC= 1.00D-01 BMatC= 4.03D-11 BMatP= 3.68D-10
 IDIUse=1 WtCom= 1.00D+00 WtEn= 0.00D+00
 Coeff-Com: -0.453D-03 0.509D-02 0.120D-01 0.240D-03-0.578D-01-0.611D-01
 Coeff-Com:  0.903D-01 0.328D+00 0.684D+00
 Coeff:     -0.453D-03 0.509D-02 0.120D-01 0.240D-03-0.578D-01-0.611D-01
 Coeff:      0.903D-01 0.328D+00 0.684D+00
 Gap=     0.285 Goal=   None    Shift=    0.000
 RMSDP=1.47D-08 MaxDP=9.16D-07 DE=-4.62D-10 OVMax= 3.21D-06

 Cycle  15  Pass 1  IDiag  1:
 RMSU=  9.96D-09    CP:  1.00D+00  1.06D+00  8.11D-01  1.47D+00  1.33D+00
                    CP:  1.08D+00  1.32D+00  1.25D+00  1.09D+00
 E= -2048.74766164844     Delta-E=       -0.000000000127 Rises=F Damp=F
 DIIS: error= 6.92D-08 at cycle  10 NSaved=  10.
 NSaved=10 IEnMin=10 EnMin= -2048.74766164844     IErMin=10 ErrMin= 6.92D-08
 ErrMax= 6.92D-08  0.00D+00 EMaxC= 1.00D-01 BMatC= 6.04D-12 BMatP= 4.03D-11
 IDIUse=1 WtCom= 1.00D+00 WtEn= 0.00D+00
 Coeff-Com: -0.286D-05-0.228D-03-0.433D-03 0.226D-03 0.441D-02 0.133D-03
 Coeff-Com: -0.540D-01-0.490D-01 0.257D+00 0.842D+00
 Coeff:     -0.286D-05-0.228D-03-0.433D-03 0.226D-03 0.441D-02 0.133D-03
 Coeff:     -0.540D-01-0.490D-01 0.257D+00 0.842D+00
 Gap=     0.285 Goal=   None    Shift=    0.000
 RMSDP=7.40D-09 MaxDP=4.16D-07 DE=-1.27D-10 OVMax= 1.46D-06

 SCF Done:  E(RwB97XD) =  -2048.74766165     A.U. after   15 cycles
            NFock= 15  Conv=0.74D-08     -V/T= 2.0054
 KE= 2.037797247673D+03 PE=-1.596709350139D+04 EE= 6.287345914131D+03
 Leave Link  502 at Sun Jan 21 05:15:15 2018, MaxMem=  4294967296 cpu:           22149.5 elap:             714.9
 (Enter /share/apps/g16/l601.exe)
 Copying SCF densities to generalized density rwf, IOpCl= 0 IROHF=0.

 **********************************************************************

            Population analysis using the SCF density.

 **********************************************************************

 Orbital symmetries:
       Occupied  (A) (A) (A) (A) (A) (A) (A) (A) (A) (A) (A) (A)
                 (A) (A) (A) (A) (A) (A) (A) (A) (A) (A) (A) (A)
                 (A) (A) (A) (A) (A) (A) (A) (A) (A) (A) (A) (A)
                 (A) (A) (A) (A) (A) (A) (A) (A) (A) (A) (A) (A)
                 (A) (A) (A) (A) (A) (A) (A) (A) (A) (A) (A) (A)
                 (A) (A) (A) (A) (A) (A) (A) (A) (A) (A) (A) (A)
                 (A) (A) (A) (A) (A) (A) (A) (A) (A) (A) (A) (A)
                 (A) (A) (A) (A) (A) (A) (A) (A) (A) (A) (A) (A)
                 (A) (A) (A) (A) (A) (A) (A) (A) (A) (A) (A) (A)
                 (A) (A) (A) (A) (A) (A) (A) (A) (A) (A) (A) (A)
                 (A) (A) (A) (A) (A) (A) (A) (A) (A) (A) (A) (A)
                 (A) (A) (A) (A) (A) (A) (A) (A) (A) (A) (A) (A)
                 (A) (A) (A) (A) (A) (A) (A) (A) (A) (A)
       Virtual   (A) (A) (A) (A) (A) (A) (A) (A) (A) (A) (A) (A)
                 (A) (A) (A) (A) (A) (A) (A) (A) (A) (A) (A) (A)
                 (A) (A) (A) (A) (A) (A) (A) (A) (A) (A) (A) (A)
                 (A) (A) (A) (A) (A) (A) (A) (A) (A) (A) (A) (A)
                 (A) (A) (A) (A) (A) (A) (A) (A) (A) (A) (A) (A)
                 (A) (A) (A) (A) (A) (A) (A) (A) (A) (A) (A) (A)
                 (A) (A) (A) (A) (A) (A) (A) (A) (A) (A) (A) (A)
                 (A) (A) (A) (A) (A) (A) (A) (A) (A) (A) (A) (A)
                 (A) (A) (A) (A) (A) (A) (A) (A) (A) (A) (A) (A)
                 (A) (A) (A) (A) (A) (A) (A) (A) (A) (A) (A) (A)
                 (A) (A) (A) (A) (A) (A) (A) (A) (A) (A) (A) (A)
                 (A) (A) (A) (A) (A) (A) (A) (A) (A) (A) (A) (A)
                 (A) (A) (A) (A) (A) (A) (A) (A) (A) (A) (A) (A)
                 (A) (A) (A) (A) (A) (A) (A) (A) (A) (A) (A) (A)
                 (A) (A) (A) (A) (A) (A) (A) (A) (A) (A) (A) (A)
                 (A) (A) (A) (A) (A) (A) (A) (A) (A) (A) (A) (A)
                 (A) (A) (A) (A) (A) (A) (A) (A) (A) (A) (A) (A)
                 (A) (A) (A) (A) (A) (A) (A) (A) (A) (A) (A) (A)
                 (A) (A) (A) (A) (A) (A) (A) (A) (A) (A) (A) (A)
                 (A) (A) (A) (A) (A) (A) (A) (A) (A) (A) (A) (A)
                 (A) (A) (A) (A) (A) (A) (A) (A) (A) (A) (A) (A)
                 (A) (A) (A) (A) (A) (A) (A) (A) (A) (A) (A) (A)
                 (A) (A) (A) (A) (A) (A) (A) (A) (A) (A) (A) (A)
                 (A) (A) (A) (A) (A) (A) (A) (A) (A) (A) (A) (A)
                 (A) (A) (A) (A) (A) (A) (A) (A) (A) (A) (A) (A)
                 (A) (A) (A) (A) (A) (A) (A) (A) (A) (A) (A) (A)
                 (A) (A) (A) (A) (A) (A) (A) (A) (A) (A) (A) (A)
                 (A) (A) (A) (A) (A) (A) (A) (A) (A) (A) (A) (A)
                 (A) (A) (A) (A) (A) (A) (A) (A) (A) (A) (A) (A)
                 (A) (A) (A) (A) (A) (A) (A) (A) (A) (A) (A) (A)
                 (A) (A) (A) (A) (A) (A) (A) (A) (A) (A) (A) (A)
                 (A) (A) (A) (A) (A) (A) (A) (A) (A) (A) (A) (A)
                 (A) (A) (A) (A) (A) (A) (A) (A) (A) (A) (A) (A)
                 (A) (A) (A) (A) (A) (A) (A) (A) (A) (A) (A) (A)
                 (A) (A) (A) (A) (A) (A) (A) (A) (A) (A) (A) (A)
                 (A) (A) (A) (A) (A) (A) (A) (A) (A) (A) (A) (A)
                 (A) (A) (A) (A) (A) (A) (A) (A) (A) (A) (A) (A)
                 (A) (A) (A) (A) (A) (A) (A) (A) (A) (A) (A) (A)
                 (A) (A) (A) (A) (A) (A) (A) (A) (A) (A) (A) (A)
                 (A) (A) (A) (A) (A) (A) (A) (A) (A) (A) (A) (A)
                 (A) (A) (A) (A) (A) (A) (A) (A) (A) (A) (A) (A)
                 (A) (A) (A) (A) (A) (A) (A) (A) (A) (A) (A) (A)
                 (A) (A) (A) (A) (A) (A) (A) (A) (A) (A) (A) (A)
                 (A) (A) (A) (A) (A) (A) (A) (A) (A) (A) (A) (A)
                 (A) (A) (A) (A) (A) (A) (A) (A) (A) (A) (A) (A)
                 (A) (A) (A) (A) (A) (A) (A) (A) (A) (A) (A) (A)
                 (A) (A) (A) (A) (A) (A) (A) (A) (A) (A) (A) (A)
                 (A) (A) (A) (A) (A) (A) (A) (A) (A) (A) (A) (A)
                 (A) (A) (A) (A) (A) (A) (A)
 The electronic state is 1-A.
 Alpha  occ. eigenvalues --  -19.25483 -19.21655 -19.20460 -14.52561 -14.52042
 Alpha  occ. eigenvalues --  -14.49035 -14.48299 -14.48091 -14.47462 -14.46659
 Alpha  occ. eigenvalues --  -14.46221 -14.45672 -14.44296 -14.44293 -14.42698
 Alpha  occ. eigenvalues --  -14.41766 -14.41571 -14.41360 -14.40662 -14.40522
 Alpha  occ. eigenvalues --  -10.45049 -10.40960 -10.39949 -10.39774 -10.38141
 Alpha  occ. eigenvalues --  -10.38027 -10.37392 -10.37273 -10.35760 -10.35674
 Alpha  occ. eigenvalues --  -10.34837 -10.34264 -10.34253 -10.33968 -10.33628
 Alpha  occ. eigenvalues --  -10.33358 -10.33074 -10.32764 -10.31442 -10.30703
 Alpha  occ. eigenvalues --  -10.30282 -10.28727 -10.27799  -1.19152  -1.15382
 Alpha  occ. eigenvalues --   -1.12978  -1.12685  -1.11578  -1.10273  -1.09289
 Alpha  occ. eigenvalues --   -1.08952  -1.08299  -1.05367  -1.04780  -1.02137
 Alpha  occ. eigenvalues --   -1.01140  -1.00827  -0.99388  -0.98317  -0.97260
 Alpha  occ. eigenvalues --   -0.96797  -0.96241  -0.93054  -0.90676  -0.87797
 Alpha  occ. eigenvalues --   -0.86143  -0.84249  -0.83755  -0.83386  -0.82651
 Alpha  occ. eigenvalues --   -0.82057  -0.78492  -0.77141  -0.74961  -0.74305
 Alpha  occ. eigenvalues --   -0.73371  -0.73198  -0.73016  -0.71369  -0.70506
 Alpha  occ. eigenvalues --   -0.67078  -0.66848  -0.66645  -0.66189  -0.64352
 Alpha  occ. eigenvalues --   -0.64166  -0.63467  -0.63070  -0.62472  -0.61464
 Alpha  occ. eigenvalues --   -0.61264  -0.60737  -0.60574  -0.59603  -0.59167
 Alpha  occ. eigenvalues --   -0.58542  -0.58007  -0.57106  -0.56888  -0.56182
 Alpha  occ. eigenvalues --   -0.55846  -0.55715  -0.55445  -0.54240  -0.54039
 Alpha  occ. eigenvalues --   -0.53977  -0.53656  -0.53292  -0.53280  -0.52772
 Alpha  occ. eigenvalues --   -0.52600  -0.52233  -0.52161  -0.51084  -0.50515
 Alpha  occ. eigenvalues --   -0.49937  -0.49822  -0.49181  -0.49142  -0.48608
 Alpha  occ. eigenvalues --   -0.48484  -0.48393  -0.48081  -0.47265  -0.47147
 Alpha  occ. eigenvalues --   -0.47106  -0.45700  -0.45032  -0.44670  -0.43329
 Alpha  occ. eigenvalues --   -0.41290  -0.40863  -0.39209  -0.37872  -0.37674
 Alpha  occ. eigenvalues --   -0.37590  -0.37085  -0.37005  -0.36039  -0.34692
 Alpha  occ. eigenvalues --   -0.34418  -0.33895  -0.33739  -0.33417  -0.32889
 Alpha  occ. eigenvalues --   -0.32447  -0.32230  -0.31891  -0.31667  -0.31085
 Alpha  occ. eigenvalues --   -0.30811  -0.29516  -0.25928  -0.25089
 Alpha virt. eigenvalues --    0.03433   0.03782   0.07033   0.07353   0.08584
 Alpha virt. eigenvalues --    0.09060   0.09988   0.10460   0.11047   0.12023
 Alpha virt. eigenvalues --    0.13060   0.13986   0.14188   0.14266   0.14884
 Alpha virt. eigenvalues --    0.15196   0.16184   0.17266   0.17910   0.18036
 Alpha virt. eigenvalues --    0.18906   0.19219   0.19447   0.20052   0.20392
 Alpha virt. eigenvalues --    0.20548   0.21139   0.21201   0.21289   0.22039
 Alpha virt. eigenvalues --    0.22432   0.22797   0.23601   0.23927   0.24013
 Alpha virt. eigenvalues --    0.24430   0.24944   0.25144   0.25282   0.25523
 Alpha virt. eigenvalues --    0.25947   0.27256   0.27893   0.28226   0.28506
 Alpha virt. eigenvalues --    0.28892   0.29082   0.29696   0.30342   0.30513
 Alpha virt. eigenvalues --    0.31162   0.31619   0.32768   0.33168   0.33434
 Alpha virt. eigenvalues --    0.33879   0.34273   0.35427   0.36358   0.36444
 Alpha virt. eigenvalues --    0.36894   0.37644   0.38171   0.38922   0.39072
 Alpha virt. eigenvalues --    0.40074   0.40287   0.40727   0.41513   0.41827
 Alpha virt. eigenvalues --    0.42173   0.42723   0.43088   0.43413   0.43942
 Alpha virt. eigenvalues --    0.44735   0.45706   0.45836   0.46509   0.47072
 Alpha virt. eigenvalues --    0.47398   0.48100   0.48901   0.49053   0.49170
 Alpha virt. eigenvalues --    0.49273   0.50180   0.50790   0.51385   0.51639
 Alpha virt. eigenvalues --    0.51874   0.52207   0.52673   0.53352   0.53533
 Alpha virt. eigenvalues --    0.53737   0.54344   0.55078   0.55240   0.55889
 Alpha virt. eigenvalues --    0.56157   0.56270   0.56819   0.57392   0.57699
 Alpha virt. eigenvalues --    0.57951   0.58207   0.58702   0.59191   0.59682
 Alpha virt. eigenvalues --    0.59940   0.60649   0.60853   0.61442   0.61623
 Alpha virt. eigenvalues --    0.62134   0.62535   0.62943   0.63528   0.63975
 Alpha virt. eigenvalues --    0.64344   0.64819   0.65150   0.65210   0.65544
 Alpha virt. eigenvalues --    0.65763   0.66126   0.66757   0.67122   0.67468
 Alpha virt. eigenvalues --    0.68349   0.68595   0.68761   0.69352   0.70181
 Alpha virt. eigenvalues --    0.70493   0.70803   0.71104   0.71940   0.72840
 Alpha virt. eigenvalues --    0.73148   0.73504   0.73649   0.73794   0.74174
 Alpha virt. eigenvalues --    0.74497   0.75144   0.75347   0.75646   0.75910
 Alpha virt. eigenvalues --    0.76176   0.76254   0.76901   0.77120   0.77726
 Alpha virt. eigenvalues --    0.78277   0.78510   0.78948   0.79087   0.79399
 Alpha virt. eigenvalues --    0.79990   0.80172   0.80783   0.81015   0.81040
 Alpha virt. eigenvalues --    0.81728   0.82382   0.82526   0.83283   0.83645
 Alpha virt. eigenvalues --    0.84150   0.84407   0.84832   0.85216   0.85487
 Alpha virt. eigenvalues --    0.85698   0.86258   0.86839   0.87278   0.87525
 Alpha virt. eigenvalues --    0.88321   0.88642   0.89367   0.89461   0.90132
 Alpha virt. eigenvalues --    0.90954   0.91190   0.92044   0.92647   0.92782
 Alpha virt. eigenvalues --    0.92970   0.93376   0.94128   0.94205   0.94711
 Alpha virt. eigenvalues --    0.94982   0.95234   0.96171   0.96969   0.97535
 Alpha virt. eigenvalues --    0.98061   0.98370   0.98900   0.99180   0.99540
 Alpha virt. eigenvalues --    0.99934   1.00503   1.00935   1.01198   1.01855
 Alpha virt. eigenvalues --    1.02254   1.02641   1.03098   1.03832   1.04318
 Alpha virt. eigenvalues --    1.04373   1.04988   1.05440   1.05731   1.06080
 Alpha virt. eigenvalues --    1.06258   1.06682   1.07316   1.07648   1.08001
 Alpha virt. eigenvalues --    1.08412   1.09760   1.10701   1.10899   1.11594
 Alpha virt. eigenvalues --    1.12113   1.12212   1.13535   1.13784   1.14073
 Alpha virt. eigenvalues --    1.14286   1.14657   1.15098   1.16236   1.16436
 Alpha virt. eigenvalues --    1.17045   1.17072   1.17450   1.17895   1.18131
 Alpha virt. eigenvalues --    1.18351   1.19065   1.19382   1.19771   1.20305
 Alpha virt. eigenvalues --    1.20889   1.21157   1.21470   1.21847   1.22078
 Alpha virt. eigenvalues --    1.22319   1.22830   1.23452   1.23762   1.24024
 Alpha virt. eigenvalues --    1.24929   1.25192   1.25596   1.25763   1.25961
 Alpha virt. eigenvalues --    1.26866   1.27407   1.27627   1.28250   1.29338
 Alpha virt. eigenvalues --    1.29918   1.30209   1.30838   1.32278   1.32433
 Alpha virt. eigenvalues --    1.33234   1.33429   1.34177   1.34411   1.34649
 Alpha virt. eigenvalues --    1.35425   1.35676   1.36026   1.36793   1.37330
 Alpha virt. eigenvalues --    1.38824   1.39195   1.39365   1.39827   1.41206
 Alpha virt. eigenvalues --    1.41836   1.42551   1.43487   1.44347   1.45423
 Alpha virt. eigenvalues --    1.46301   1.47298   1.47877   1.48279   1.49372
 Alpha virt. eigenvalues --    1.50213   1.50704   1.51124   1.52074   1.52262
 Alpha virt. eigenvalues --    1.52757   1.52921   1.53688   1.55098   1.55751
 Alpha virt. eigenvalues --    1.56071   1.56821   1.57177   1.57298   1.58120
 Alpha virt. eigenvalues --    1.58689   1.59780   1.61049   1.61364   1.61589
 Alpha virt. eigenvalues --    1.62361   1.63247   1.63512   1.63883   1.64528
 Alpha virt. eigenvalues --    1.65037   1.65411   1.65711   1.66591   1.66828
 Alpha virt. eigenvalues --    1.67088   1.67466   1.68496   1.69333   1.69886
 Alpha virt. eigenvalues --    1.70311   1.71144   1.71464   1.71848   1.72702
 Alpha virt. eigenvalues --    1.72854   1.73113   1.73688   1.73938   1.74224
 Alpha virt. eigenvalues --    1.74437   1.74650   1.75502   1.75758   1.76119
 Alpha virt. eigenvalues --    1.76566   1.76826   1.77224   1.77605   1.77947
 Alpha virt. eigenvalues --    1.78232   1.78452   1.78927   1.79232   1.79621
 Alpha virt. eigenvalues --    1.79919   1.80373   1.80504   1.81070   1.81187
 Alpha virt. eigenvalues --    1.81380   1.82119   1.82477   1.82655   1.83031
 Alpha virt. eigenvalues --    1.83409   1.83944   1.84168   1.84620   1.85011
 Alpha virt. eigenvalues --    1.85846   1.86168   1.87029   1.87501   1.87660
 Alpha virt. eigenvalues --    1.88186   1.88804   1.89594   1.89900   1.90242
 Alpha virt. eigenvalues --    1.90764   1.91216   1.91402   1.92043   1.92402
 Alpha virt. eigenvalues --    1.92989   1.93587   1.93707   1.93971   1.95019
 Alpha virt. eigenvalues --    1.95972   1.97375   1.97708   1.97911   1.99080
 Alpha virt. eigenvalues --    1.99236   2.00272   2.00403   2.01612   2.01801
 Alpha virt. eigenvalues --    2.02468   2.02958   2.03539   2.03946   2.04501
 Alpha virt. eigenvalues --    2.05386   2.06599   2.06835   2.07175   2.08074
 Alpha virt. eigenvalues --    2.08341   2.09208   2.09980   2.10268   2.11054
 Alpha virt. eigenvalues --    2.11896   2.12570   2.13416   2.14179   2.14498
 Alpha virt. eigenvalues --    2.15363   2.15901   2.17140   2.17696   2.18525
 Alpha virt. eigenvalues --    2.18690   2.19632   2.19898   2.20232   2.21786
 Alpha virt. eigenvalues --    2.22738   2.22923   2.23826   2.24255   2.24708
 Alpha virt. eigenvalues --    2.25360   2.26007   2.26554   2.26740   2.27601
 Alpha virt. eigenvalues --    2.28130   2.28479   2.29256   2.29949   2.30780
 Alpha virt. eigenvalues --    2.30840   2.31606   2.31848   2.32387   2.33593
 Alpha virt. eigenvalues --    2.33832   2.34024   2.34261   2.35159   2.35415
 Alpha virt. eigenvalues --    2.35636   2.36105   2.36493   2.36893   2.38095
 Alpha virt. eigenvalues --    2.38613   2.39559   2.40191   2.40904   2.41408
 Alpha virt. eigenvalues --    2.42082   2.43060   2.43256   2.43875   2.44151
 Alpha virt. eigenvalues --    2.44965   2.45383   2.45828   2.46302   2.46605
 Alpha virt. eigenvalues --    2.48627   2.48893   2.49944   2.51369   2.52186
 Alpha virt. eigenvalues --    2.52911   2.54235   2.54897   2.56663   2.57272
 Alpha virt. eigenvalues --    2.57765   2.58637   2.59316   2.59892   2.61149
 Alpha virt. eigenvalues --    2.61629   2.62810   2.63316   2.63623   2.64112
 Alpha virt. eigenvalues --    2.65421   2.65602   2.66206   2.66390   2.67006
 Alpha virt. eigenvalues --    2.68199   2.68593   2.69057   2.70105   2.70621
 Alpha virt. eigenvalues --    2.70940   2.71786   2.71899   2.72119   2.72940
 Alpha virt. eigenvalues --    2.73325   2.74874   2.75777   2.76476   2.77279
 Alpha virt. eigenvalues --    2.77585   2.78643   2.79793   2.79812   2.80122
 Alpha virt. eigenvalues --    2.80583   2.80823   2.81176   2.81972   2.82222
 Alpha virt. eigenvalues --    2.82636   2.82892   2.83495   2.84535   2.85726
 Alpha virt. eigenvalues --    2.85795   2.86438   2.86692   2.87097   2.87364
 Alpha virt. eigenvalues --    2.88530   2.88679   2.90107   2.93616   2.94295
 Alpha virt. eigenvalues --    2.94925   2.97835   2.98773   2.99429   3.00016
 Alpha virt. eigenvalues --    3.01580   3.02553   3.03436   3.05474   3.06982
 Alpha virt. eigenvalues --    3.08653   3.10238   3.10540   3.13281   3.15200
 Alpha virt. eigenvalues --    3.15474   3.16494   3.16927   3.18897   3.22203
 Alpha virt. eigenvalues --    3.22628   3.23090   3.23843   3.24097   3.27890
 Alpha virt. eigenvalues --    3.44796   3.47477   3.48450   3.49535   3.50803
 Alpha virt. eigenvalues --    3.53208   3.54686   3.56423   3.58037   3.60457
 Alpha virt. eigenvalues --    3.63733   3.70979   3.75194
          Condensed to atoms (all electrons):
 Mulliken charges:
               1
     1  N   -0.311248
     2  C    0.177334
     3  C    0.072727
     4  N   -0.257879
     5  C    0.135723
     6  H    0.027015
     7  N   -0.287405
     8  C    0.139663
     9  H    0.012697
    10  N   -0.285390
    11  C    0.232226
    12  C    0.094608
    13  N   -0.051289
    14  H    0.109816
    15  H    0.084864
    16  H    0.027718
    17  H    0.032106
    18  H    0.025172
    19  N   -0.283955
    20  C    0.224735
    21  C    0.182489
    22  N   -0.105949
    23  H    0.113270
    24  H    0.114441
    25  N   -0.298027
    26  C    0.219245
    27  N   -0.142759
    28  H    0.124033
    29  C    0.176650
    30  O   -0.323314
    31  C   -0.003807
    32  N   -0.220588
    33  C    0.122455
    34  H    0.015537
    35  H    0.022546
    36  H    0.026644
    37  H    0.020601
    38  H    0.051366
    39  H    0.059586
    40  H    0.071825
    41  H    0.025743
    42  C   -0.110806
    43  O   -0.268161
    44  C    0.169851
    45  H    0.131246
    46  N   -0.118547
    47  O   -0.334908
    48  C    0.332506
    49  H    0.045985
    50  C    0.172190
    51  C    0.042477
    52  N   -0.278453
    53  H    0.036367
    54  H    0.037419
    55  H    0.023945
    56  H    0.125168
    57  H    0.118257
    58  N   -0.059599
    59  C    0.097521
    60  C    0.219673
    61  N   -0.262889
    62  H    0.046075
    63  C    0.141939
    64  N   -0.297850
    65  H    0.038448
    66  C    0.107270
    67  N   -0.251154
    68  C    0.036414
    69  C    0.182567
    70  N   -0.294176
 Sum of Mulliken charges =  -0.00000
 Mulliken charges with hydrogens summed into heavy atoms:
               1
     1  N   -0.311248
     2  C    0.262331
     3  C    0.072727
     4  N   -0.257879
     5  C    0.162738
     7  N   -0.287405
     8  C    0.152360
    10  N   -0.285390
    11  C    0.232226
    12  C    0.094608
    13  N    0.143391
    19  N   -0.283955
    20  C    0.224735
    21  C    0.252279
    22  N    0.121761
    25  N   -0.298027
    26  C    0.219245
    27  N   -0.018726
    29  C    0.176650
    30  O   -0.323314
    31  C   -0.003807
    32  N   -0.220588
    33  C    0.137991
    42  C   -0.085063
    43  O   -0.268161
    44  C    0.169851
    46  N    0.012699
    47  O   -0.334908
    48  C    0.332506
    50  C    0.218175
    51  C    0.225254
    52  N   -0.278453
    58  N    0.183826
    59  C    0.097521
    60  C    0.219673
    61  N   -0.262889
    63  C    0.188014
    64  N   -0.297850
    66  C    0.145718
    67  N   -0.251154
    68  C    0.036414
    69  C    0.280299
    70  N   -0.294176
 Electronic spatial extent (au):  <R**2>=          21783.3484
 Charge=             -0.0000 electrons
 Dipole moment (field-independent basis, Debye):
    X=             -6.6062    Y=              6.4892    Z=             -3.5114  Tot=              9.9036
 Quadrupole moment (field-independent basis, Debye-Ang):
   XX=           -148.0085   YY=           -225.9402   ZZ=           -258.1778
   XY=             -7.8078   XZ=              1.1630   YZ=             10.7803
 Traceless Quadrupole moment (field-independent basis, Debye-Ang):
   XX=             62.7003   YY=            -15.2314   ZZ=            -47.4689
   XY=             -7.8078   XZ=              1.1630   YZ=             10.7803
 Octapole moment (field-independent basis, Debye-Ang**2):
  XXX=             79.8177  YYY=             92.0762  ZZZ=             -9.6443  XYY=            -72.8154
  XXY=             61.0060  XXZ=             12.2740  XZZ=            -39.5821  YZZ=             36.5748
  YYZ=            -65.4247  XYZ=             43.3468
 Hexadecapole moment (field-independent basis, Debye-Ang**3):
 XXXX=         -15521.5319 YYYY=          -4566.1873 ZZZZ=          -3579.2376 XXXY=           -586.3737
 XXXZ=           -129.8286 YYYX=             -3.6489 YYYZ=             93.2122 ZZZX=              5.3986
 ZZZY=             16.3751 XXYY=          -3623.2042 XXZZ=          -3880.0780 YYZZ=          -1446.6425
 XXYZ=            -68.4418 YYXZ=            182.3202 ZZXY=            -63.5684
 N-N= 5.593202677937D+03 E-N=-1.596709350136D+04  KE= 2.037797247673D+03
 No NMR shielding tensors so no spin-rotation constants.
 Leave Link  601 at Sun Jan 21 05:15:17 2018, MaxMem=  4294967296 cpu:              47.1 elap:               1.7
 (Enter /share/apps/g16/l9999.exe)
 1\1\GINC-COMPUTE-0-3\SP\RwB97XD\CC-pVDZ\C23H27N17O3\SATYA\21-Jan-2018\
 0\\#p wb97xd/cc-pvdz sp scf=(maxcycles=20)\\Base pair stacking\\0,1\N,
 0,3.16069,4.32679,-6.89387\C,0,3.63316,5.7249,-6.90158\C,0,1.90394,2.5
 2871,-6.7364\N,0,3.17836,2.08452,-7.05779\C,0,3.8845,3.18558,-7.1398\H
 ,0,4.94769,3.22391,-7.37876\N,0,-0.39423,2.59026,-6.20956\C,0,-0.26564
 ,3.91945,-6.14401\H,0,-1.17675,4.4632,-5.89811\N,0,0.81438,4.67425,-6.
 3357\C,0,1.87754,3.90854,-6.632\C,0,0.69388,1.84801,-6.50985\N,0,0.567
 51,0.52104,-6.57576\H,0,1.34636,-0.06773,-6.7948\H,0,-0.30948,0.07043,
 -6.40852\H,0,3.99419,5.95119,-7.80636\H,0,2.87225,6.33585,-6.68503\H,0
 ,4.35468,5.83888,-6.21863\N,0,0.90743,4.79328,-3.23657\C,0,-0.00795,3.
 77409,-3.12987\C,0,0.58631,6.23455,-3.21818\N,0,-3.29394,2.70752,-2.77
 428\H,0,-3.78507,1.83898,-2.71363\H,0,-3.84196,3.543,-2.7257\N,0,-1.34
 379,3.9169,-2.99142\C,0,-1.96038,2.75092,-2.91447\N,0,-1.31963,1.53684
 ,-2.96876\H,0,-1.87189,0.6957,-2.90199\C,0,0.05388,1.36613,-3.11087\O,
 0,0.532,0.22565,-3.14889\C,0,0.72979,2.60991,-3.19485\N,0,2.08113,2.89
 253,-3.33944\C,0,2.1385,4.19658,-3.35925\H,0,3.05653,4.77626,-3.46158\
 H,0,0.88441,6.65511,-4.07438\H,0,-0.40054,6.35271,-3.11603\H,0,1.05447
 ,6.67229,-2.45136\H,0,-5.23963,-3.10481,-3.16119\H,0,-4.85775,-3.28295
 ,-1.45032\H,0,-4.80272,-1.68911,-2.20398\H,0,-1.01929,-5.3984,-3.43469
 \C,0,-1.40255,-4.39577,-3.24474\O,0,0.68687,-3.33035,-3.60019\C,0,-0.5
 1212,-3.27855,-3.32717\H,0,-0.50108,-1.24279,-3.11767\N,0,-1.0986,-2.0
 5601,-3.06897\O,0,-2.83979,-0.69789,-2.53891\C,0,-2.4125,-1.81909,-2.7
 5103\H,0,-3.40726,-5.01227,-2.86147\C,0,-2.68943,-4.19655,-2.93676\C,0
 ,-4.6198,-2.74268,-2.35451\N,0,-3.20801,-2.94636,-2.69084\H,0,-7.62842
 ,-0.37572,-4.96387\H,0,-6.49021,0.45391,-4.14028\H,0,-7.20086,-0.84944
 ,-3.4618\H,0,-0.87389,-2.85462,-6.77959\H,0,-2.24253,-3.87053,-6.70982
 \N,0,-1.83829,-2.97077,-6.54172\C,0,-2.55436,-1.97093,-6.02332\C,0,-4.
 52011,-0.95785,-5.14515\N,0,-3.95094,0.23977,-4.93024\H,0,-2.1327,1.15
 757,-5.15882\C,0,-2.67189,0.22182,-5.29986\N,0,-1.95288,-0.77859,-5.81
 927\H,0,-6.86181,-3.18661,-5.18015\C,0,-5.92494,-2.63664,-5.27368\N,0,
 -4.81085,-3.13776,-5.74839\C,0,-3.91197,-2.08372,-5.67249\C,0,-6.8688,
 -0.45391,-4.31823\N,0,-5.82092,-1.32197,-4.88957\\Version=EM64L-G16Rev
 A.03\State=1-A\HF=-2048.7476616\RMSD=7.399e-09\Dipole=-3.8925911,-0.07
 23518,0.1553119\Quadrupole=10.50926,12.9039051,-23.4131651,33.0817455,
 -19.092412,0.779966\PG=C01 [X(C23H27N17O3)]\\@


 We're simply so accustomed to the marvels of everyday thought
 that we never wonder about it.
 -- Marvin Minsky in "Why people think computers are smart"
 Job cpu time:       0 days  6 hours 19 minutes 36.5 seconds.
 Elapsed time:       0 days  0 hours 12 minutes 14.9 seconds.
 File lengths (MBytes):  RWF=    298 Int=      0 D2E=      0 Chk=     33 Scr=      1
 Normal termination of Gaussian 16 at Sun Jan 21 05:15:17 2018.
