 Entering Gaussian System, Link 0=g16
 Input=str30.5.2.5.com
 Output=str30.5.2.5.log
 Initial command:
 /share/apps/g16/l1.exe "/state/partition1/scr/Gau-9416.inp" -scrdir="/state/partition1/scr/"
 Entering Link 1 = /share/apps/g16/l1.exe PID=      9417.
  
 Copyright (c) 1988,1990,1992,1993,1995,1998,2003,2009,2016,
            Gaussian, Inc.  All Rights Reserved.
  
 This is part of the Gaussian(R) 16 program.  It is based on
 the Gaussian(R) 09 system (copyright 2009, Gaussian, Inc.),
 the Gaussian(R) 03 system (copyright 2003, Gaussian, Inc.),
 the Gaussian(R) 98 system (copyright 1998, Gaussian, Inc.),
 the Gaussian(R) 94 system (copyright 1995, Gaussian, Inc.),
 the Gaussian 92(TM) system (copyright 1992, Gaussian, Inc.),
 the Gaussian 90(TM) system (copyright 1990, Gaussian, Inc.),
 the Gaussian 88(TM) system (copyright 1988, Gaussian, Inc.),
 the Gaussian 86(TM) system (copyright 1986, Carnegie Mellon
 University), and the Gaussian 82(TM) system (copyright 1983,
 Carnegie Mellon University). Gaussian is a federally registered
 trademark of Gaussian, Inc.
  
 This software contains proprietary and confidential information,
 including trade secrets, belonging to Gaussian, Inc.
  
 This software is provided under written license and may be
 used, copied, transmitted, or stored only in accord with that
 written license.
  
 The following legend is applicable only to US Government
 contracts under FAR:
  
                    RESTRICTED RIGHTS LEGEND
  
 Use, reproduction and disclosure by the US Government is
 subject to restrictions as set forth in subparagraphs (a)
 and (c) of the Commercial Computer Software - Restricted
 Rights clause in FAR 52.227-19.
  
 Gaussian, Inc.
 340 Quinnipiac St., Bldg. 40, Wallingford CT 06492
  
  
 ---------------------------------------------------------------
 Warning -- This program may not be used in any manner that
 competes with the business of Gaussian, Inc. or will provide
 assistance to any competitor of Gaussian, Inc.  The licensee
 of this program is prohibited from giving any competitor of
 Gaussian, Inc. access to this program.  By using this program,
 the user acknowledges that Gaussian, Inc. is engaged in the
 business of creating and licensing software in the field of
 computational chemistry and represents and warrants to the
 licensee that it is not a competitor of Gaussian, Inc. and that
 it will not use this program in any manner prohibited above.
 ---------------------------------------------------------------
  

 Cite this work as:
 Gaussian 16, Revision A.03,
 M. J. Frisch, G. W. Trucks, H. B. Schlegel, G. E. Scuseria, 
 M. A. Robb, J. R. Cheeseman, G. Scalmani, V. Barone, 
 G. A. Petersson, H. Nakatsuji, X. Li, M. Caricato, A. V. Marenich, 
 J. Bloino, B. G. Janesko, R. Gomperts, B. Mennucci, H. P. Hratchian, 
 J. V. Ortiz, A. F. Izmaylov, J. L. Sonnenberg, D. Williams-Young, 
 F. Ding, F. Lipparini, F. Egidi, J. Goings, B. Peng, A. Petrone, 
 T. Henderson, D. Ranasinghe, V. G. Zakrzewski, J. Gao, N. Rega, 
 G. Zheng, W. Liang, M. Hada, M. Ehara, K. Toyota, R. Fukuda, 
 J. Hasegawa, M. Ishida, T. Nakajima, Y. Honda, O. Kitao, H. Nakai, 
 T. Vreven, K. Throssell, J. A. Montgomery, Jr., J. E. Peralta, 
 F. Ogliaro, M. J. Bearpark, J. J. Heyd, E. N. Brothers, K. N. Kudin, 
 V. N. Staroverov, T. A. Keith, R. Kobayashi, J. Normand, 
 K. Raghavachari, A. P. Rendell, J. C. Burant, S. S. Iyengar, 
 J. Tomasi, M. Cossi, J. M. Millam, M. Klene, C. Adamo, R. Cammi, 
 J. W. Ochterski, R. L. Martin, K. Morokuma, O. Farkas, 
 J. B. Foresman, and D. J. Fox, Gaussian, Inc., Wallingford CT, 2016.
 
 ******************************************
 Gaussian 16:  EM64L-G16RevA.03 25-Dec-2016
                21-Jan-2018 
 ******************************************
 %nprocshared=32
 Will use up to   32 processors via shared memory.
 %mem=32GB
 %chk=allatoms_t.chk
 ---------------------------------------
 #p wb97xd/cc-pvdz sp scf=(maxcycles=20)
 ---------------------------------------
 1/38=1,172=1/1;
 2/12=2,17=6,18=5,40=1/2;
 3/5=16,11=2,25=1,30=1,74=-58/1,2,3;
 4//1;
 5/5=2,7=20,38=5/2;
 6/7=2,8=2,9=2,10=2,28=1/1;
 99/5=1,9=1/99;
 Leave Link    1 at Sun Jan 21 22:16:12 2018, MaxMem=  4294967296 cpu:               2.7 elap:               0.1
 (Enter /share/apps/g16/l101.exe)
 ------------------
 Base pair stacking
 ------------------
 Symbolic Z-matrix:
 Charge =  0 Multiplicity = 1
 N                     2.37459  -0.30051  -6.33039 
 C                     2.86885   1.08223  -6.47783 
 C                     1.08649  -2.08231  -6.27289 
 N                     2.36125  -2.51395  -5.93614 
 C                     3.08626  -1.42321  -5.98426 
 H                     4.15541  -1.37965  -5.77456 
 N                    -1.22256  -2.0339   -6.75132 
 C                    -1.07488  -0.72105  -6.95673 
 H                    -1.9831   -0.18916  -7.23689 
 N                     0.02111   0.02988  -6.86844 
 C                     1.07909  -0.7203   -6.51866 
 C                    -0.1392   -2.76079  -6.40056 
 N                    -0.28461  -4.07144  -6.19508 
 H                     0.49005  -4.64847  -5.934 
 H                    -1.17233  -4.52099  -6.29505 
 H                     3.57568   1.11141  -7.18474 
 H                     2.11254   1.68125  -6.73913 
 H                     3.25483   1.39477  -5.60988 
 N                     0.69222   2.37557  -3.29681 
 C                    -0.22851   1.35691  -3.34822 
 C                     0.38565   3.81195  -3.45019 
 N                    -3.51006   0.28496  -3.7278 
 H                    -4.00701  -0.58238  -3.73118 
 H                    -4.04809   1.11669  -3.86735 
 N                    -1.55729   1.49591  -3.5459 
 C                    -2.18187   0.33164  -3.54445 
 N                    -1.55497  -0.87738  -3.36343 
 H                    -2.11252  -1.71756  -3.37742 
 C                    -0.18894  -1.04409  -3.15838 
 O                     0.2767   -2.18014  -3.00566 
 C                     0.49541   0.1979   -3.15738 
 N                     1.8435    0.48318  -2.98954 
 C                     1.91254   1.78369  -3.07963 
 H                     2.83189   2.36408  -2.99479 
 H                     0.88444   4.17903  -4.23458 
 H                    -0.59586   3.92725  -3.59718 
 H                     0.65765   4.3027   -2.62315 
 H                    -5.34292  -5.55812  -4.19432 
 H                    -5.38667  -5.62169  -2.43401 
 H                    -5.14079  -4.07947  -3.25405 
 H                    -1.19662  -7.82512  -3.29131 
 C                    -1.6078   -6.81593  -3.26508 
 O                     0.51257  -5.75628  -3.17411 
 C                    -0.71649  -5.69812  -3.20256 
 H                    -0.74298  -3.65307  -3.12936 
 N                    -1.33992  -4.46696  -3.17359 
 O                    -3.1486   -3.09371  -3.16894 
 C                    -2.69012  -4.22225  -3.1983 
 H                    -3.64974  -7.42503  -3.33783 
 C                    -2.92963  -6.60922  -3.29047 
 C                    -4.93387  -5.13882  -3.28717 
 N                    -3.48402  -5.35064  -3.25879 
 H                    -8.45868  -5.04458  -7.87233 
 H                    -7.71886  -3.9802   -6.88144 
 H                    -8.69899  -5.12806  -6.26028 
 H                    -1.66204  -7.47959  -6.15716 
 H                    -2.98312  -8.52934  -6.4079 
 N                    -2.64391  -7.59315  -6.30941 
 C                    -3.46527  -6.54348  -6.3782 
 C                    -5.57289  -5.46999  -6.63761 
 N                    -5.08938  -4.22412  -6.50175 
 H                    -3.29761  -3.2804   -6.18623 
 C                    -3.77254  -4.2531   -6.30683 
 N                    -2.9481   -5.30338  -6.23761 
 H                    -7.79152  -7.77828  -7.08662 
 C                    -6.87484  -7.21156  -6.9209 
 N                    -5.68655  -7.7437   -6.77091 
 C                    -4.8518   -6.65038  -6.59046 
 C                    -8.031    -4.92502  -6.97634 
 N                    -6.87962  -5.83975  -6.85143 
 
 ITRead=  0  0  0  0  0  0  0  0  0  0  0  0  0  0  0  0  0  0  0  0
 ITRead=  0  0  0  0  0  0  0  0  0  0  0  0  0  0  0  0  0  0  0  0
 ITRead=  0  0  0  0  0  0  0  0  0  0  0  0  0  0  0  0  0  0  0  0
 ITRead=  0  0  0  0  0  0  0  0  0  0
 MicOpt= -1 -1 -1 -1 -1 -1 -1 -1 -1 -1 -1 -1 -1 -1 -1 -1 -1 -1 -1 -1
 MicOpt= -1 -1 -1 -1 -1 -1 -1 -1 -1 -1 -1 -1 -1 -1 -1 -1 -1 -1 -1 -1
 MicOpt= -1 -1 -1 -1 -1 -1 -1 -1 -1 -1 -1 -1 -1 -1 -1 -1 -1 -1 -1 -1
 MicOpt= -1 -1 -1 -1 -1 -1 -1 -1 -1 -1
 NAtoms=     70 NQM=       70 NQMF=       0 NMMI=      0 NMMIF=      0
                NMic=       0 NMicF=      0.
                    Isotopes and Nuclear Properties:
 (Nuclear quadrupole moments (NQMom) in fm**2, nuclear magnetic moments (NMagM)
  in nuclear magnetons)

  Atom         1           2           3           4           5           6           7           8           9          10
 IAtWgt=          14          12          12          14          12           1          14          12           1          14
 AtmWgt=  14.0030740  12.0000000  12.0000000  14.0030740  12.0000000   1.0078250  14.0030740  12.0000000   1.0078250  14.0030740
 NucSpn=           2           0           0           2           0           1           2           0           1           2
 AtZEff=  -0.0000000  -0.0000000  -0.0000000  -0.0000000  -0.0000000  -0.0000000  -0.0000000  -0.0000000  -0.0000000  -0.0000000
 NQMom=    2.0440000   0.0000000   0.0000000   2.0440000   0.0000000   0.0000000   2.0440000   0.0000000   0.0000000   2.0440000
 NMagM=    0.4037610   0.0000000   0.0000000   0.4037610   0.0000000   2.7928460   0.4037610   0.0000000   2.7928460   0.4037610
 AtZNuc=   7.0000000   6.0000000   6.0000000   7.0000000   6.0000000   1.0000000   7.0000000   6.0000000   1.0000000   7.0000000

  Atom        11          12          13          14          15          16          17          18          19          20
 IAtWgt=          12          12          14           1           1           1           1           1          14          12
 AtmWgt=  12.0000000  12.0000000  14.0030740   1.0078250   1.0078250   1.0078250   1.0078250   1.0078250  14.0030740  12.0000000
 NucSpn=           0           0           2           1           1           1           1           1           2           0
 AtZEff=  -0.0000000  -0.0000000  -0.0000000  -0.0000000  -0.0000000  -0.0000000  -0.0000000  -0.0000000  -0.0000000  -0.0000000
 NQMom=    0.0000000   0.0000000   2.0440000   0.0000000   0.0000000   0.0000000   0.0000000   0.0000000   2.0440000   0.0000000
 NMagM=    0.0000000   0.0000000   0.4037610   2.7928460   2.7928460   2.7928460   2.7928460   2.7928460   0.4037610   0.0000000
 AtZNuc=   6.0000000   6.0000000   7.0000000   1.0000000   1.0000000   1.0000000   1.0000000   1.0000000   7.0000000   6.0000000

  Atom        21          22          23          24          25          26          27          28          29          30
 IAtWgt=          12          14           1           1          14          12          14           1          12          16
 AtmWgt=  12.0000000  14.0030740   1.0078250   1.0078250  14.0030740  12.0000000  14.0030740   1.0078250  12.0000000  15.9949146
 NucSpn=           0           2           1           1           2           0           2           1           0           0
 AtZEff=  -0.0000000  -0.0000000  -0.0000000  -0.0000000  -0.0000000  -0.0000000  -0.0000000  -0.0000000  -0.0000000  -0.0000000
 NQMom=    0.0000000   2.0440000   0.0000000   0.0000000   2.0440000   0.0000000   2.0440000   0.0000000   0.0000000   0.0000000
 NMagM=    0.0000000   0.4037610   2.7928460   2.7928460   0.4037610   0.0000000   0.4037610   2.7928460   0.0000000   0.0000000
 AtZNuc=   6.0000000   7.0000000   1.0000000   1.0000000   7.0000000   6.0000000   7.0000000   1.0000000   6.0000000   8.0000000

  Atom        31          32          33          34          35          36          37          38          39          40
 IAtWgt=          12          14          12           1           1           1           1           1           1           1
 AtmWgt=  12.0000000  14.0030740  12.0000000   1.0078250   1.0078250   1.0078250   1.0078250   1.0078250   1.0078250   1.0078250
 NucSpn=           0           2           0           1           1           1           1           1           1           1
 AtZEff=  -0.0000000  -0.0000000  -0.0000000  -0.0000000  -0.0000000  -0.0000000  -0.0000000  -0.0000000  -0.0000000  -0.0000000
 NQMom=    0.0000000   2.0440000   0.0000000   0.0000000   0.0000000   0.0000000   0.0000000   0.0000000   0.0000000   0.0000000
 NMagM=    0.0000000   0.4037610   0.0000000   2.7928460   2.7928460   2.7928460   2.7928460   2.7928460   2.7928460   2.7928460
 AtZNuc=   6.0000000   7.0000000   6.0000000   1.0000000   1.0000000   1.0000000   1.0000000   1.0000000   1.0000000   1.0000000

  Atom        41          42          43          44          45          46          47          48          49          50
 IAtWgt=           1          12          16          12           1          14          16          12           1          12
 AtmWgt=   1.0078250  12.0000000  15.9949146  12.0000000   1.0078250  14.0030740  15.9949146  12.0000000   1.0078250  12.0000000
 NucSpn=           1           0           0           0           1           2           0           0           1           0
 AtZEff=  -0.0000000  -0.0000000  -0.0000000  -0.0000000  -0.0000000  -0.0000000  -0.0000000  -0.0000000  -0.0000000  -0.0000000
 NQMom=    0.0000000   0.0000000   0.0000000   0.0000000   0.0000000   2.0440000   0.0000000   0.0000000   0.0000000   0.0000000
 NMagM=    2.7928460   0.0000000   0.0000000   0.0000000   2.7928460   0.4037610   0.0000000   0.0000000   2.7928460   0.0000000
 AtZNuc=   1.0000000   6.0000000   8.0000000   6.0000000   1.0000000   7.0000000   8.0000000   6.0000000   1.0000000   6.0000000

  Atom        51          52          53          54          55          56          57          58          59          60
 IAtWgt=          12          14           1           1           1           1           1          14          12          12
 AtmWgt=  12.0000000  14.0030740   1.0078250   1.0078250   1.0078250   1.0078250   1.0078250  14.0030740  12.0000000  12.0000000
 NucSpn=           0           2           1           1           1           1           1           2           0           0
 AtZEff=  -0.0000000  -0.0000000  -0.0000000  -0.0000000  -0.0000000  -0.0000000  -0.0000000  -0.0000000  -0.0000000  -0.0000000
 NQMom=    0.0000000   2.0440000   0.0000000   0.0000000   0.0000000   0.0000000   0.0000000   2.0440000   0.0000000   0.0000000
 NMagM=    0.0000000   0.4037610   2.7928460   2.7928460   2.7928460   2.7928460   2.7928460   0.4037610   0.0000000   0.0000000
 AtZNuc=   6.0000000   7.0000000   1.0000000   1.0000000   1.0000000   1.0000000   1.0000000   7.0000000   6.0000000   6.0000000

  Atom        61          62          63          64          65          66          67          68          69          70
 IAtWgt=          14           1          12          14           1          12          14          12          12          14
 AtmWgt=  14.0030740   1.0078250  12.0000000  14.0030740   1.0078250  12.0000000  14.0030740  12.0000000  12.0000000  14.0030740
 NucSpn=           2           1           0           2           1           0           2           0           0           2
 AtZEff=  -0.0000000  -0.0000000  -0.0000000  -0.0000000  -0.0000000  -0.0000000  -0.0000000  -0.0000000  -0.0000000  -0.0000000
 NQMom=    2.0440000   0.0000000   0.0000000   2.0440000   0.0000000   0.0000000   2.0440000   0.0000000   0.0000000   2.0440000
 NMagM=    0.4037610   2.7928460   0.0000000   0.4037610   2.7928460   0.0000000   0.4037610   0.0000000   0.0000000   0.4037610
 AtZNuc=   7.0000000   1.0000000   6.0000000   7.0000000   1.0000000   6.0000000   7.0000000   6.0000000   6.0000000   7.0000000
 Leave Link  101 at Sun Jan 21 22:16:13 2018, MaxMem=  4294967296 cpu:               7.7 elap:               0.3
 (Enter /share/apps/g16/l202.exe)
 Stoichiometry    C23H27N17O3
 Framework group  C1[X(C23H27N17O3)]
 Deg. of freedom   204
 Full point group                 C1      NOp   1
 Largest Abelian subgroup         C1      NOp   1
 Largest concise Abelian subgroup C1      NOp   1
                         Standard orientation:                         
 ---------------------------------------------------------------------
 Center     Atomic      Atomic             Coordinates (Angstroms)
 Number     Number       Type             X           Y           Z
 ---------------------------------------------------------------------
      1          7           0        4.251520   -1.624625   -1.923779
      2          6           0        5.587538   -1.135097   -2.315468
      3          6           0        2.092110   -1.768400   -1.531863
      4          7           0        2.635839   -2.990006   -1.162044
      5          6           0        3.915037   -2.854495   -1.412959
      6          1           0        4.665472   -3.627050   -1.242786
      7          7           0        0.574822   -0.011371   -1.948558
      8          6           0        1.627094    0.693939   -2.376156
      9          1           0        1.402569    1.703700   -2.717085
     10          7           0        2.909046    0.340846   -2.445515
     11          6           0        3.075804   -0.916558   -2.003289
     12          6           0        0.775549   -1.273286   -1.509981
     13          7           0       -0.273599   -1.978926   -1.082747
     14          1           0       -0.171637   -2.916845   -0.749376
     15          1           0       -1.196757   -1.594331   -1.081342
     16          1           0        5.960196   -1.719816   -3.036170
     17          1           0        5.513874   -0.197239   -2.653260
     18          1           0        6.197653   -1.155362   -1.523415
     19          7           0        5.627283    1.634884    0.660260
     20          6           0        4.261973    1.686434    0.806292
     21          6           0        6.488204    2.771309    0.275487
     22          7           0        1.291609    3.483053    0.702227
     23          1           0        0.319441    3.310712    0.858552
     24          1           0        1.551050    4.412708    0.439250
     25          7           0        3.483782    2.775169    0.624275
     26          6           0        2.206980    2.511810    0.838858
     27          7           0        1.726939    1.277367    1.203840
     28          1           0        0.734707    1.167804    1.346785
     29          6           0        2.509301    0.143100    1.396773
     30          8           0        1.976384   -0.923850    1.725968
     31          6           0        3.883323    0.410421    1.169883
     32          7           0        4.988671   -0.425408    1.250492
     33          6           0        5.998009    0.342381    0.940743
     34          1           0        7.037686    0.015597    0.901525
     35          1           0        6.969994    2.554377   -0.572821
     36          1           0        5.922744    3.583468    0.137953
     37          1           0        7.153132    2.948274    1.000310
     38          1           0       -4.349170    1.122967    1.276859
     39          1           0       -4.167460    1.270474    3.023247
     40          1           0       -2.969528    1.992772    1.948719
     41          1           0       -3.257904   -3.417172    2.435652
     42          6           0       -2.759218   -2.457041    2.302672
     43          8           0       -0.586461   -3.397642    2.156050
     44          6           0       -1.336611   -2.421919    2.151685
     45          1           0        0.195240   -1.092292    1.879996
     46          7           0       -0.806954   -1.157596    1.989787
     47          8           0       -0.935566    1.102737    1.812262
     48          6           0       -1.494084    0.030072    1.960977
     49          1           0       -4.540038   -1.287851    2.389205
     50          6           0       -3.456800   -1.315367    2.278821
     51          6           0       -3.638196    1.156494    2.088923
     52          7           0       -2.861761   -0.086206    2.113095
     53          1           0       -6.503250    3.513246   -2.348874
     54          1           0       -5.082295    3.711819   -1.571984
     55          1           0       -6.484514    3.785574   -0.739865
     56          1           0       -3.716512   -3.092174   -0.433696
     57          1           0       -5.391624   -2.771354   -0.467932
     58          7           0       -4.455107   -2.426010   -0.537846
     59          6           0       -4.203443   -1.134329   -0.760103
     60          6           0       -4.788246    1.140763   -1.139174
     61          7           0       -3.520617    1.576188   -1.228368
     62          1           0       -1.613332    0.833066   -1.125255
     63          6           0       -2.667752    0.566449   -1.067281
     64          7           0       -2.917834   -0.727941   -0.844581
     65          1           0       -8.015691    1.329664   -1.132302
     66          6           0       -6.976173    1.003313   -1.089450
     67          7           0       -6.590929   -0.232498   -0.884365
     68          6           0       -5.205825   -0.159316   -0.913486
     69          6           0       -6.007384    3.340561   -1.497816
     70          7           0       -5.937288    1.887062   -1.251982
 ---------------------------------------------------------------------
 Rotational constants (GHZ):           0.1525361           0.0505177           0.0481969
 Leave Link  202 at Sun Jan 21 22:16:13 2018, MaxMem=  4294967296 cpu:               0.4 elap:               0.0
 (Enter /share/apps/g16/l301.exe)
 Standard basis: CC-pVDZ (5D, 7F)
 Ernie: Thresh=  0.10000D-02 Tol=  0.10000D-05 Strict=F.
 Ernie:  86 primitive shells out of 1081 were deleted.
 There are   780 symmetry adapted cartesian basis functions of A   symmetry.
 There are   737 symmetry adapted basis functions of A   symmetry.
   737 basis functions,  1608 primitive gaussians,   780 cartesian basis functions
   154 alpha electrons      154 beta electrons
       nuclear repulsion energy      5469.5687594568 Hartrees.
 IExCor= 4639 DFT=T Ex+Corr=wB97XD ExCW=0 ScaHFX=  1.000000
 ScaDFX=  1.000000  1.000000  1.000000  1.000000 ScalE2=  1.000000  1.000000
 IRadAn=      5 IRanWt=     -1 IRanGd=            0 ICorTp=0 IEmpDi=121
 HFx  wShort=  0.000000 wLong=  0.200000 cFull=  0.222036 cShort=  0.000000 cLong=  0.777964
 DFx  wShort=  0.000000 wLong=  0.200000 cFull=  0.000000 cShort=  0.000000 cLong=  1.000000
 NAtoms=   70 NActive=   70 NUniq=   70 SFac= 1.00D+00 NAtFMM=   60 NAOKFM=T Big=T
 Integral buffers will be    131072 words long.
 Raffenetti 2 integral format.
 Two-electron integral symmetry is turned on.
 R6Disp:  Grimme-D2 Dispersion energy=       -0.0707526589 Hartrees.
 Nuclear repulsion after empirical dispersion term =     5469.4980067979 Hartrees.
 Leave Link  301 at Sun Jan 21 22:16:13 2018, MaxMem=  4294967296 cpu:               3.0 elap:               0.1
 (Enter /share/apps/g16/l302.exe)
 NPDir=0 NMtPBC=     1 NCelOv=     1 NCel=       1 NClECP=     1 NCelD=      1
         NCelK=      1 NCelE2=     1 NClLst=     1 CellRange=     0.0.
 One-electron integrals computed using PRISM.
 One-electron integral symmetry used in STVInt
 NBasis=   737 RedAO= T EigKep=  7.08D-04  NBF=   737
 NBsUse=   737 1.00D-06 EigRej= -1.00D+00 NBFU=   737
 Precomputing XC quadrature grid using
 IXCGrd= 4 IRadAn=           5 IRanWt=          -1 IRanGd=           0 AccXCQ= 0.00D+00.
 Generated NRdTot=       0 NPtTot=           0 NUsed=           0 NTot=          32
 NSgBfM=   764   762   764   764   764 MxSgAt=    70 MxSgA2=    70.
 Leave Link  302 at Sun Jan 21 22:16:18 2018, MaxMem=  4294967296 cpu:             139.6 elap:               4.4
 (Enter /share/apps/g16/l303.exe)
 DipDrv:  MaxL=1.
 Leave Link  303 at Sun Jan 21 22:16:18 2018, MaxMem=  4294967296 cpu:              12.4 elap:               0.4
 (Enter /share/apps/g16/l401.exe)
 ExpMin= 1.22D-01 ExpMax= 1.17D+04 ExpMxC= 4.01D+02 IAcc=3 IRadAn=         5 AccDes= 0.00D+00
 Harris functional with IExCor= 4639 and IRadAn=       5 diagonalized for initial guess.
 HarFok:  IExCor= 4639 AccDes= 0.00D+00 IRadAn=         5 IDoV= 1 UseB2=F ITyADJ=14
 ICtDFT=  3500011 ScaDFX=  1.000000  1.000000  1.000000  1.000000
 FoFCou: FMM=F IPFlag=           0 FMFlag=      100000 FMFlg1=        2001
         NFxFlg=           0 DoJE=T BraDBF=F KetDBF=T FulRan=T
         wScrn=  0.000000 ICntrl=       500 IOpCl=  0 I1Cent=   200000004 NGrid=           0
         NMat0=    1 NMatS0=      1 NMatT0=    0 NMatD0=    1 NMtDS0=    0 NMtDT0=    0
 Petite list used in FoFCou.
 Harris En= -1963.88794136156    
 JPrj=0 DoOrth=F DoCkMO=F.
 Leave Link  401 at Sun Jan 21 22:16:31 2018, MaxMem=  4294967296 cpu:             395.4 elap:              12.4
 (Enter /share/apps/g16/l502.exe)
 Integral symmetry usage will be decided dynamically.
 Closed shell SCF:
 Using DIIS extrapolation, IDIIS=  1040.
 NGot=  4294967296 LenX=  4293717438 LenY=  4293108258
 Requested convergence on RMS density matrix=1.00D-08 within  20 cycles.
 Requested convergence on MAX density matrix=1.00D-06.
 Requested convergence on             energy=1.00D-06.
 No special actions if energy rises.
 Fock matrices will be formed incrementally for  20 cycles.
 Integral accuracy reduced to 1.0D-05 until final iterations.

 Cycle   1  Pass 0  IDiag  1:
 FoFJK:  IHMeth= 1 ICntrl=       0 DoSepK=T KAlg= 0 I1Cent=           0 FoldK=F
 IRaf=         1 NMat=       1 IRICut=       1 DoRegI=T DoRafI=F ISym2E= 0 IDoP0=0 IntGTp=1.
 FoFCou: FMM=T IPFlag=           0 FMFlag=      100000 FMFlg1=        2001
         NFxFlg=           0 DoJE=T BraDBF=F KetDBF=F FulRan=T
         wScrn=  0.000000 ICntrl=       500 IOpCl=  0 I1Cent=           0 NGrid=           0
         NMat0=    1 NMatS0=      1 NMatT0=    0 NMatD0=    1 NMtDS0=    0 NMtDT0=    0
 Symmetry not used in FoFCou.
 FMM levels:  10  Number of levels for PrismC:   9
 E= -2048.32210938952    
 DIIS: error= 2.68D-02 at cycle   1 NSaved=   1.
 NSaved= 1 IEnMin= 1 EnMin= -2048.32210938952     IErMin= 1 ErrMin= 2.68D-02
 ErrMax= 2.68D-02  0.00D+00 EMaxC= 1.00D-01 BMatC= 8.28D-01 BMatP= 8.28D-01
 IDIUse=3 WtCom= 7.32D-01 WtEn= 2.68D-01
 Coeff-Com:  0.100D+01
 Coeff-En:   0.100D+01
 Coeff:      0.100D+01
 Gap=     0.268 Goal=   None    Shift=    0.000
 GapD=    0.268 DampG=1.000 DampE=0.500 DampFc=0.5000 IDamp=-1.
 Damping current iteration by 5.00D-01
 RMSDP=1.55D-03 MaxDP=1.30D-01              OVMax= 2.06D-01

 Cycle   2  Pass 0  IDiag  1:
 RMSU=  7.72D-04    CP:  9.98D-01
 E= -2048.51871220124     Delta-E=       -0.196602811722 Rises=F Damp=T
 DIIS: error= 1.49D-02 at cycle   2 NSaved=   2.
 NSaved= 2 IEnMin= 2 EnMin= -2048.51871220124     IErMin= 2 ErrMin= 1.49D-02
 ErrMax= 1.49D-02  0.00D+00 EMaxC= 1.00D-01 BMatC= 1.44D-01 BMatP= 8.28D-01
 IDIUse=3 WtCom= 8.51D-01 WtEn= 1.49D-01
 Coeff-Com: -0.208D+00 0.121D+01
 Coeff-En:   0.000D+00 0.100D+01
 Coeff:     -0.177D+00 0.118D+01
 Gap=     0.296 Goal=   None    Shift=    0.000
 RMSDP=5.78D-04 MaxDP=3.50D-02 DE=-1.97D-01 OVMax= 1.19D-01

 Cycle   3  Pass 0  IDiag  1:
 RMSU=  5.62D-04    CP:  9.94D-01  1.17D+00
 E= -2048.69807099068     Delta-E=       -0.179358789441 Rises=F Damp=F
 DIIS: error= 6.28D-03 at cycle   3 NSaved=   3.
 NSaved= 3 IEnMin= 3 EnMin= -2048.69807099068     IErMin= 3 ErrMin= 6.28D-03
 ErrMax= 6.28D-03  0.00D+00 EMaxC= 1.00D-01 BMatC= 5.92D-02 BMatP= 1.44D-01
 IDIUse=3 WtCom= 9.37D-01 WtEn= 6.28D-02
 Coeff-Com: -0.230D+00 0.544D+00 0.686D+00
 Coeff-En:   0.000D+00 0.000D+00 0.100D+01
 Coeff:     -0.216D+00 0.510D+00 0.706D+00
 Gap=     0.282 Goal=   None    Shift=    0.000
 RMSDP=3.39D-04 MaxDP=3.40D-02 DE=-1.79D-01 OVMax= 6.23D-02

 Cycle   4  Pass 0  IDiag  1:
 RMSU=  1.96D-04    CP:  9.95D-01  1.44D+00  6.80D-01
 E= -2048.74266219509     Delta-E=       -0.044591204403 Rises=F Damp=F
 DIIS: error= 2.88D-03 at cycle   4 NSaved=   4.
 NSaved= 4 IEnMin= 4 EnMin= -2048.74266219509     IErMin= 4 ErrMin= 2.88D-03
 ErrMax= 2.88D-03  0.00D+00 EMaxC= 1.00D-01 BMatC= 8.25D-03 BMatP= 5.92D-02
 IDIUse=3 WtCom= 9.71D-01 WtEn= 2.88D-02
 Coeff-Com: -0.958D-01 0.185D+00 0.375D+00 0.536D+00
 Coeff-En:   0.000D+00 0.000D+00 0.480D-01 0.952D+00
 Coeff:     -0.931D-01 0.180D+00 0.365D+00 0.548D+00
 Gap=     0.286 Goal=   None    Shift=    0.000
 RMSDP=1.20D-04 MaxDP=1.21D-02 DE=-4.46D-02 OVMax= 1.28D-02

 Cycle   5  Pass 0  IDiag  1:
 RMSU=  6.14D-05    CP:  9.94D-01  1.42D+00  8.07D-01  6.32D-01
 E= -2048.74928255434     Delta-E=       -0.006620359251 Rises=F Damp=F
 DIIS: error= 5.13D-04 at cycle   5 NSaved=   5.
 NSaved= 5 IEnMin= 5 EnMin= -2048.74928255434     IErMin= 5 ErrMin= 5.13D-04
 ErrMax= 5.13D-04  0.00D+00 EMaxC= 1.00D-01 BMatC= 2.92D-04 BMatP= 8.25D-03
 IDIUse=3 WtCom= 9.95D-01 WtEn= 5.13D-03
 Coeff-Com: -0.252D-01 0.434D-01 0.121D+00 0.244D+00 0.616D+00
 Coeff-En:   0.000D+00 0.000D+00 0.000D+00 0.000D+00 0.100D+01
 Coeff:     -0.251D-01 0.432D-01 0.121D+00 0.243D+00 0.618D+00
 Gap=     0.285 Goal=   None    Shift=    0.000
 RMSDP=2.50D-05 MaxDP=2.26D-03 DE=-6.62D-03 OVMax= 3.28D-03

 Failed to achieve initial convergence to 1.0D-08 in  6 cycles.
 Switch to full accuracy anyway.
 Cycle   6  Pass 1  IDiag  1:
 E= -2048.74956975567     Delta-E=       -0.000287201331 Rises=F Damp=F
 DIIS: error= 2.07D-04 at cycle   1 NSaved=   1.
 NSaved= 1 IEnMin= 1 EnMin= -2048.74956975567     IErMin= 1 ErrMin= 2.07D-04
 ErrMax= 2.07D-04  0.00D+00 EMaxC= 1.00D-01 BMatC= 7.45D-05 BMatP= 7.45D-05
 IDIUse=3 WtCom= 9.98D-01 WtEn= 2.07D-03
 Coeff-Com:  0.100D+01
 Coeff-En:   0.100D+01
 Coeff:      0.100D+01
 Gap=     0.286 Goal=   None    Shift=    0.000
 RMSDP=2.50D-05 MaxDP=2.26D-03 DE=-2.87D-04 OVMax= 2.22D-03

 Cycle   7  Pass 1  IDiag  1:
 RMSU=  1.10D-04    CP:  1.00D+00
 E= -2048.74962337506     Delta-E=       -0.000053619394 Rises=F Damp=F
 DIIS: error= 2.24D-04 at cycle   2 NSaved=   2.
 NSaved= 2 IEnMin= 2 EnMin= -2048.74962337506     IErMin= 1 ErrMin= 2.07D-04
 ErrMax= 2.24D-04  0.00D+00 EMaxC= 1.00D-01 BMatC= 4.62D-05 BMatP= 7.45D-05
 IDIUse=3 WtCom= 9.98D-01 WtEn= 2.24D-03
 Coeff-Com:  0.420D+00 0.580D+00
 Coeff-En:   0.000D+00 0.100D+01
 Coeff:      0.419D+00 0.581D+00
 Gap=     0.286 Goal=   None    Shift=    0.000
 RMSDP=1.10D-05 MaxDP=1.34D-03 DE=-5.36D-05 OVMax= 1.42D-03

 Cycle   8  Pass 1  IDiag  1:
 RMSU=  1.07D-05    CP:  1.00D+00  1.02D+00
 E= -2048.74965559028     Delta-E=       -0.000032215220 Rises=F Damp=F
 DIIS: error= 1.30D-04 at cycle   3 NSaved=   3.
 NSaved= 3 IEnMin= 3 EnMin= -2048.74965559028     IErMin= 3 ErrMin= 1.30D-04
 ErrMax= 1.30D-04  0.00D+00 EMaxC= 1.00D-01 BMatC= 1.03D-05 BMatP= 4.62D-05
 IDIUse=3 WtCom= 9.99D-01 WtEn= 1.30D-03
 Coeff-Com: -0.197D-01 0.308D+00 0.712D+00
 Coeff-En:   0.000D+00 0.125D+00 0.875D+00
 Coeff:     -0.197D-01 0.308D+00 0.712D+00
 Gap=     0.286 Goal=   None    Shift=    0.000
 RMSDP=5.58D-06 MaxDP=5.38D-04 DE=-3.22D-05 OVMax= 5.15D-04

 Cycle   9  Pass 1  IDiag  1:
 RMSU=  3.80D-06    CP:  1.00D+00  1.05D+00  7.67D-01
 E= -2048.74966481403     Delta-E=       -0.000009223752 Rises=F Damp=F
 DIIS: error= 2.66D-05 at cycle   4 NSaved=   4.
 NSaved= 4 IEnMin= 4 EnMin= -2048.74966481403     IErMin= 4 ErrMin= 2.66D-05
 ErrMax= 2.66D-05  0.00D+00 EMaxC= 1.00D-01 BMatC= 4.62D-07 BMatP= 1.03D-05
 IDIUse=1 WtCom= 1.00D+00 WtEn= 0.00D+00
 Coeff-Com: -0.310D-01 0.821D-01 0.252D+00 0.697D+00
 Coeff:     -0.310D-01 0.821D-01 0.252D+00 0.697D+00
 Gap=     0.286 Goal=   None    Shift=    0.000
 RMSDP=1.41D-06 MaxDP=1.35D-04 DE=-9.22D-06 OVMax= 4.74D-04

 Cycle  10  Pass 1  IDiag  1:
 RMSU=  1.24D-06    CP:  1.00D+00  1.06D+00  7.99D-01  1.13D+00
 E= -2048.74966561908     Delta-E=       -0.000000805047 Rises=F Damp=F
 DIIS: error= 1.16D-05 at cycle   5 NSaved=   5.
 NSaved= 5 IEnMin= 5 EnMin= -2048.74966561908     IErMin= 5 ErrMin= 1.16D-05
 ErrMax= 1.16D-05  0.00D+00 EMaxC= 1.00D-01 BMatC= 1.09D-07 BMatP= 4.62D-07
 IDIUse=1 WtCom= 1.00D+00 WtEn= 0.00D+00
 Coeff-Com: -0.237D-02-0.554D-01-0.128D+00 0.189D+00 0.997D+00
 Coeff:     -0.237D-02-0.554D-01-0.128D+00 0.189D+00 0.997D+00
 Gap=     0.286 Goal=   None    Shift=    0.000
 RMSDP=1.21D-06 MaxDP=7.98D-05 DE=-8.05D-07 OVMax= 2.46D-04

 Cycle  11  Pass 1  IDiag  1:
 RMSU=  4.92D-07    CP:  1.00D+00  1.06D+00  8.07D-01  1.41D+00  1.18D+00
 E= -2048.74966586655     Delta-E=       -0.000000247466 Rises=F Damp=F
 DIIS: error= 6.48D-06 at cycle   6 NSaved=   6.
 NSaved= 6 IEnMin= 6 EnMin= -2048.74966586655     IErMin= 6 ErrMin= 6.48D-06
 ErrMax= 6.48D-06  0.00D+00 EMaxC= 1.00D-01 BMatC= 2.88D-08 BMatP= 1.09D-07
 IDIUse=1 WtCom= 1.00D+00 WtEn= 0.00D+00
 Coeff-Com:  0.468D-02-0.436D-01-0.115D+00-0.616D-02 0.542D+00 0.618D+00
 Coeff:      0.468D-02-0.436D-01-0.115D+00-0.616D-02 0.542D+00 0.618D+00
 Gap=     0.286 Goal=   None    Shift=    0.000
 RMSDP=3.54D-07 MaxDP=3.69D-05 DE=-2.47D-07 OVMax= 1.20D-04

 Cycle  12  Pass 1  IDiag  1:
 RMSU=  1.84D-07    CP:  1.00D+00  1.06D+00  8.08D-01  1.47D+00  1.31D+00
                    CP:  9.05D-01
 E= -2048.74966590627     Delta-E=       -0.000000039719 Rises=F Damp=F
 DIIS: error= 1.01D-06 at cycle   7 NSaved=   7.
 NSaved= 7 IEnMin= 7 EnMin= -2048.74966590627     IErMin= 7 ErrMin= 1.01D-06
 ErrMax= 1.01D-06  0.00D+00 EMaxC= 1.00D-01 BMatC= 8.41D-10 BMatP= 2.88D-08
 IDIUse=1 WtCom= 1.00D+00 WtEn= 0.00D+00
 Coeff-Com:  0.112D-02-0.705D-02-0.203D-01-0.853D-02 0.612D-01 0.141D+00
 Coeff-Com:  0.832D+00
 Coeff:      0.112D-02-0.705D-02-0.203D-01-0.853D-02 0.612D-01 0.141D+00
 Coeff:      0.832D+00
 Gap=     0.286 Goal=   None    Shift=    0.000
 RMSDP=8.44D-08 MaxDP=5.39D-06 DE=-3.97D-08 OVMax= 2.18D-05

 Cycle  13  Pass 1  IDiag  1:
 RMSU=  5.16D-08    CP:  1.00D+00  1.06D+00  8.08D-01  1.48D+00  1.33D+00
                    CP:  9.95D-01  1.13D+00
 E= -2048.74966590815     Delta-E=       -0.000000001882 Rises=F Damp=F
 DIIS: error= 5.61D-07 at cycle   8 NSaved=   8.
 NSaved= 8 IEnMin= 8 EnMin= -2048.74966590815     IErMin= 8 ErrMin= 5.61D-07
 ErrMax= 5.61D-07  0.00D+00 EMaxC= 1.00D-01 BMatC= 3.34D-10 BMatP= 8.41D-10
 IDIUse=1 WtCom= 1.00D+00 WtEn= 0.00D+00
 Coeff-Com: -0.719D-03 0.852D-02 0.211D-01-0.103D-02-0.119D+00-0.938D-01
 Coeff-Com:  0.423D+00 0.762D+00
 Coeff:     -0.719D-03 0.852D-02 0.211D-01-0.103D-02-0.119D+00-0.938D-01
 Coeff:      0.423D+00 0.762D+00
 Gap=     0.286 Goal=   None    Shift=    0.000
 RMSDP=4.86D-08 MaxDP=2.98D-06 DE=-1.88D-09 OVMax= 1.16D-05

 Cycle  14  Pass 1  IDiag  1:
 RMSU=  2.78D-08    CP:  1.00D+00  1.06D+00  8.07D-01  1.48D+00  1.34D+00
                    CP:  1.04D+00  1.28D+00  1.07D+00
 E= -2048.74966590869     Delta-E=       -0.000000000544 Rises=F Damp=F
 DIIS: error= 1.75D-07 at cycle   9 NSaved=   9.
 NSaved= 9 IEnMin= 9 EnMin= -2048.74966590869     IErMin= 9 ErrMin= 1.75D-07
 ErrMax= 1.75D-07  0.00D+00 EMaxC= 1.00D-01 BMatC= 3.46D-11 BMatP= 3.34D-10
 IDIUse=1 WtCom= 1.00D+00 WtEn= 0.00D+00
 Coeff-Com: -0.443D-03 0.457D-02 0.116D-01 0.892D-03-0.584D-01-0.567D-01
 Coeff-Com:  0.888D-01 0.319D+00 0.691D+00
 Coeff:     -0.443D-03 0.457D-02 0.116D-01 0.892D-03-0.584D-01-0.567D-01
 Coeff:      0.888D-01 0.319D+00 0.691D+00
 Gap=     0.286 Goal=   None    Shift=    0.000
 RMSDP=1.38D-08 MaxDP=8.68D-07 DE=-5.44D-10 OVMax= 3.31D-06

 Cycle  15  Pass 1  IDiag  1:
 RMSU=  9.32D-09    CP:  1.00D+00  1.06D+00  8.07D-01  1.48D+00  1.34D+00
                    CP:  1.05D+00  1.31D+00  1.21D+00  1.10D+00
 E= -2048.74966590859     Delta-E=        0.000000000098 Rises=F Damp=F
 DIIS: error= 6.30D-08 at cycle  10 NSaved=  10.
 NSaved=10 IEnMin= 9 EnMin= -2048.74966590869     IErMin=10 ErrMin= 6.30D-08
 ErrMax= 6.30D-08  0.00D+00 EMaxC= 1.00D-01 BMatC= 5.50D-12 BMatP= 3.46D-11
 IDIUse=1 WtCom= 1.00D+00 WtEn= 0.00D+00
 Coeff-Com:  0.357D-06-0.264D-03-0.508D-03 0.188D-03 0.498D-02 0.395D-03
 Coeff-Com: -0.557D-01-0.529D-01 0.259D+00 0.845D+00
 Coeff:      0.357D-06-0.264D-03-0.508D-03 0.188D-03 0.498D-02 0.395D-03
 Coeff:     -0.557D-01-0.529D-01 0.259D+00 0.845D+00
 Gap=     0.286 Goal=   None    Shift=    0.000
 RMSDP=6.97D-09 MaxDP=4.04D-07 DE= 9.82D-11 OVMax= 1.52D-06

 SCF Done:  E(RwB97XD) =  -2048.74966591     A.U. after   15 cycles
            NFock= 15  Conv=0.70D-08     -V/T= 2.0054
 KE= 2.037709116044D+03 PE=-1.571935840820D+04 EE= 6.163401619452D+03
 Leave Link  502 at Sun Jan 21 22:27:43 2018, MaxMem=  4294967296 cpu:           20726.2 elap:             672.6
 (Enter /share/apps/g16/l601.exe)
 Copying SCF densities to generalized density rwf, IOpCl= 0 IROHF=0.

 **********************************************************************

            Population analysis using the SCF density.

 **********************************************************************

 Orbital symmetries:
       Occupied  (A) (A) (A) (A) (A) (A) (A) (A) (A) (A) (A) (A)
                 (A) (A) (A) (A) (A) (A) (A) (A) (A) (A) (A) (A)
                 (A) (A) (A) (A) (A) (A) (A) (A) (A) (A) (A) (A)
                 (A) (A) (A) (A) (A) (A) (A) (A) (A) (A) (A) (A)
                 (A) (A) (A) (A) (A) (A) (A) (A) (A) (A) (A) (A)
                 (A) (A) (A) (A) (A) (A) (A) (A) (A) (A) (A) (A)
                 (A) (A) (A) (A) (A) (A) (A) (A) (A) (A) (A) (A)
                 (A) (A) (A) (A) (A) (A) (A) (A) (A) (A) (A) (A)
                 (A) (A) (A) (A) (A) (A) (A) (A) (A) (A) (A) (A)
                 (A) (A) (A) (A) (A) (A) (A) (A) (A) (A) (A) (A)
                 (A) (A) (A) (A) (A) (A) (A) (A) (A) (A) (A) (A)
                 (A) (A) (A) (A) (A) (A) (A) (A) (A) (A) (A) (A)
                 (A) (A) (A) (A) (A) (A) (A) (A) (A) (A)
       Virtual   (A) (A) (A) (A) (A) (A) (A) (A) (A) (A) (A) (A)
                 (A) (A) (A) (A) (A) (A) (A) (A) (A) (A) (A) (A)
                 (A) (A) (A) (A) (A) (A) (A) (A) (A) (A) (A) (A)
                 (A) (A) (A) (A) (A) (A) (A) (A) (A) (A) (A) (A)
                 (A) (A) (A) (A) (A) (A) (A) (A) (A) (A) (A) (A)
                 (A) (A) (A) (A) (A) (A) (A) (A) (A) (A) (A) (A)
                 (A) (A) (A) (A) (A) (A) (A) (A) (A) (A) (A) (A)
                 (A) (A) (A) (A) (A) (A) (A) (A) (A) (A) (A) (A)
                 (A) (A) (A) (A) (A) (A) (A) (A) (A) (A) (A) (A)
                 (A) (A) (A) (A) (A) (A) (A) (A) (A) (A) (A) (A)
                 (A) (A) (A) (A) (A) (A) (A) (A) (A) (A) (A) (A)
                 (A) (A) (A) (A) (A) (A) (A) (A) (A) (A) (A) (A)
                 (A) (A) (A) (A) (A) (A) (A) (A) (A) (A) (A) (A)
                 (A) (A) (A) (A) (A) (A) (A) (A) (A) (A) (A) (A)
                 (A) (A) (A) (A) (A) (A) (A) (A) (A) (A) (A) (A)
                 (A) (A) (A) (A) (A) (A) (A) (A) (A) (A) (A) (A)
                 (A) (A) (A) (A) (A) (A) (A) (A) (A) (A) (A) (A)
                 (A) (A) (A) (A) (A) (A) (A) (A) (A) (A) (A) (A)
                 (A) (A) (A) (A) (A) (A) (A) (A) (A) (A) (A) (A)
                 (A) (A) (A) (A) (A) (A) (A) (A) (A) (A) (A) (A)
                 (A) (A) (A) (A) (A) (A) (A) (A) (A) (A) (A) (A)
                 (A) (A) (A) (A) (A) (A) (A) (A) (A) (A) (A) (A)
                 (A) (A) (A) (A) (A) (A) (A) (A) (A) (A) (A) (A)
                 (A) (A) (A) (A) (A) (A) (A) (A) (A) (A) (A) (A)
                 (A) (A) (A) (A) (A) (A) (A) (A) (A) (A) (A) (A)
                 (A) (A) (A) (A) (A) (A) (A) (A) (A) (A) (A) (A)
                 (A) (A) (A) (A) (A) (A) (A) (A) (A) (A) (A) (A)
                 (A) (A) (A) (A) (A) (A) (A) (A) (A) (A) (A) (A)
                 (A) (A) (A) (A) (A) (A) (A) (A) (A) (A) (A) (A)
                 (A) (A) (A) (A) (A) (A) (A) (A) (A) (A) (A) (A)
                 (A) (A) (A) (A) (A) (A) (A) (A) (A) (A) (A) (A)
                 (A) (A) (A) (A) (A) (A) (A) (A) (A) (A) (A) (A)
                 (A) (A) (A) (A) (A) (A) (A) (A) (A) (A) (A) (A)
                 (A) (A) (A) (A) (A) (A) (A) (A) (A) (A) (A) (A)
                 (A) (A) (A) (A) (A) (A) (A) (A) (A) (A) (A) (A)
                 (A) (A) (A) (A) (A) (A) (A) (A) (A) (A) (A) (A)
                 (A) (A) (A) (A) (A) (A) (A) (A) (A) (A) (A) (A)
                 (A) (A) (A) (A) (A) (A) (A) (A) (A) (A) (A) (A)
                 (A) (A) (A) (A) (A) (A) (A) (A) (A) (A) (A) (A)
                 (A) (A) (A) (A) (A) (A) (A) (A) (A) (A) (A) (A)
                 (A) (A) (A) (A) (A) (A) (A) (A) (A) (A) (A) (A)
                 (A) (A) (A) (A) (A) (A) (A) (A) (A) (A) (A) (A)
                 (A) (A) (A) (A) (A) (A) (A) (A) (A) (A) (A) (A)
                 (A) (A) (A) (A) (A) (A) (A) (A) (A) (A) (A) (A)
                 (A) (A) (A) (A) (A) (A) (A) (A) (A) (A) (A) (A)
                 (A) (A) (A) (A) (A) (A) (A) (A) (A) (A) (A) (A)
                 (A) (A) (A) (A) (A) (A) (A) (A) (A) (A) (A) (A)
                 (A) (A) (A) (A) (A) (A) (A) (A) (A) (A) (A) (A)
                 (A) (A) (A) (A) (A) (A) (A)
 The electronic state is 1-A.
 Alpha  occ. eigenvalues --  -19.25313 -19.21499 -19.20726 -14.52691 -14.51753
 Alpha  occ. eigenvalues --  -14.49371 -14.48610 -14.48180 -14.47246 -14.46968
 Alpha  occ. eigenvalues --  -14.46802 -14.45579 -14.44895 -14.44799 -14.42732
 Alpha  occ. eigenvalues --  -14.42189 -14.41668 -14.41041 -14.40712 -14.40590
 Alpha  occ. eigenvalues --  -10.44866 -10.41416 -10.40433 -10.39608 -10.38425
 Alpha  occ. eigenvalues --  -10.38171 -10.37574 -10.37284 -10.36274 -10.35640
 Alpha  occ. eigenvalues --  -10.34782 -10.34316 -10.34032 -10.33992 -10.33512
 Alpha  occ. eigenvalues --  -10.33189 -10.33142 -10.33135 -10.31439 -10.30542
 Alpha  occ. eigenvalues --  -10.30374 -10.28545 -10.28371  -1.18840  -1.15480
 Alpha  occ. eigenvalues --   -1.13423  -1.12518  -1.11044  -1.10852  -1.09835
 Alpha  occ. eigenvalues --   -1.08768  -1.08610  -1.05295  -1.05184  -1.01879
 Alpha  occ. eigenvalues --   -1.01193  -1.00617  -0.99898  -0.98834  -0.97372
 Alpha  occ. eigenvalues --   -0.97085  -0.96494  -0.92898  -0.90490  -0.87982
 Alpha  occ. eigenvalues --   -0.86101  -0.84589  -0.83610  -0.83049  -0.82855
 Alpha  occ. eigenvalues --   -0.81949  -0.78332  -0.77378  -0.75236  -0.74991
 Alpha  occ. eigenvalues --   -0.73836  -0.72835  -0.72756  -0.71017  -0.70746
 Alpha  occ. eigenvalues --   -0.67644  -0.67167  -0.66213  -0.66018  -0.64612
 Alpha  occ. eigenvalues --   -0.64540  -0.63536  -0.62812  -0.62679  -0.62041
 Alpha  occ. eigenvalues --   -0.60863  -0.60632  -0.60355  -0.59686  -0.59082
 Alpha  occ. eigenvalues --   -0.58949  -0.58529  -0.57282  -0.56480  -0.55786
 Alpha  occ. eigenvalues --   -0.55731  -0.55668  -0.55417  -0.54737  -0.54274
 Alpha  occ. eigenvalues --   -0.53888  -0.53769  -0.53446  -0.53201  -0.53085
 Alpha  occ. eigenvalues --   -0.52403  -0.51770  -0.51429  -0.50564  -0.50404
 Alpha  occ. eigenvalues --   -0.50301  -0.49965  -0.49638  -0.49296  -0.48949
 Alpha  occ. eigenvalues --   -0.48784  -0.48273  -0.48206  -0.47743  -0.47230
 Alpha  occ. eigenvalues --   -0.46787  -0.45850  -0.45599  -0.44973  -0.42859
 Alpha  occ. eigenvalues --   -0.41265  -0.40989  -0.39062  -0.38203  -0.37918
 Alpha  occ. eigenvalues --   -0.37665  -0.37484  -0.36936  -0.35464  -0.35149
 Alpha  occ. eigenvalues --   -0.34784  -0.34187  -0.33473  -0.33351  -0.33172
 Alpha  occ. eigenvalues --   -0.32785  -0.32594  -0.32076  -0.31357  -0.30677
 Alpha  occ. eigenvalues --   -0.30504  -0.30394  -0.25931  -0.25764
 Alpha virt. eigenvalues --    0.02818   0.04327   0.06403   0.07977   0.08653
 Alpha virt. eigenvalues --    0.08996   0.09576   0.10270   0.10973   0.12000
 Alpha virt. eigenvalues --    0.13395   0.13777   0.14132   0.14719   0.14893
 Alpha virt. eigenvalues --    0.15292   0.16270   0.17144   0.17412   0.18196
 Alpha virt. eigenvalues --    0.18468   0.19262   0.19388   0.20445   0.20587
 Alpha virt. eigenvalues --    0.20863   0.21131   0.21295   0.21455   0.21829
 Alpha virt. eigenvalues --    0.22021   0.22705   0.22982   0.23176   0.23614
 Alpha virt. eigenvalues --    0.23791   0.24318   0.24505   0.24840   0.25715
 Alpha virt. eigenvalues --    0.25968   0.26441   0.27067   0.27560   0.27915
 Alpha virt. eigenvalues --    0.28645   0.28928   0.29711   0.30660   0.30909
 Alpha virt. eigenvalues --    0.31819   0.31930   0.32336   0.33197   0.33394
 Alpha virt. eigenvalues --    0.33698   0.34608   0.34709   0.35971   0.36240
 Alpha virt. eigenvalues --    0.36740   0.37232   0.37825   0.38148   0.39081
 Alpha virt. eigenvalues --    0.39281   0.39793   0.40402   0.40769   0.41572
 Alpha virt. eigenvalues --    0.42163   0.42382   0.42561   0.43773   0.44243
 Alpha virt. eigenvalues --    0.45638   0.45829   0.46255   0.46466   0.46624
 Alpha virt. eigenvalues --    0.46722   0.47488   0.47678   0.48214   0.49013
 Alpha virt. eigenvalues --    0.49759   0.49829   0.50302   0.50737   0.51141
 Alpha virt. eigenvalues --    0.51371   0.51723   0.52133   0.52823   0.53116
 Alpha virt. eigenvalues --    0.53489   0.54161   0.54294   0.54638   0.54885
 Alpha virt. eigenvalues --    0.55586   0.55953   0.56410   0.56590   0.56762
 Alpha virt. eigenvalues --    0.57576   0.57957   0.58371   0.58945   0.59347
 Alpha virt. eigenvalues --    0.59605   0.60084   0.60289   0.60638   0.60927
 Alpha virt. eigenvalues --    0.61549   0.61639   0.62139   0.62584   0.62926
 Alpha virt. eigenvalues --    0.63806   0.64446   0.64658   0.65193   0.65535
 Alpha virt. eigenvalues --    0.65807   0.66457   0.66608   0.67159   0.67785
 Alpha virt. eigenvalues --    0.68021   0.68700   0.68885   0.69471   0.69747
 Alpha virt. eigenvalues --    0.70586   0.71165   0.71497   0.71566   0.71963
 Alpha virt. eigenvalues --    0.72472   0.72569   0.73091   0.73508   0.73915
 Alpha virt. eigenvalues --    0.74228   0.74579   0.75103   0.75269   0.75840
 Alpha virt. eigenvalues --    0.76003   0.76341   0.76694   0.76897   0.77607
 Alpha virt. eigenvalues --    0.77719   0.78054   0.78297   0.78665   0.78968
 Alpha virt. eigenvalues --    0.79211   0.79740   0.80135   0.80637   0.80798
 Alpha virt. eigenvalues --    0.81288   0.81542   0.81682   0.82514   0.83409
 Alpha virt. eigenvalues --    0.83830   0.84233   0.84333   0.84663   0.85349
 Alpha virt. eigenvalues --    0.85857   0.86269   0.86544   0.86743   0.87254
 Alpha virt. eigenvalues --    0.88275   0.88505   0.89009   0.89592   0.90002
 Alpha virt. eigenvalues --    0.90182   0.90786   0.91781   0.92000   0.92176
 Alpha virt. eigenvalues --    0.92369   0.93440   0.93653   0.93819   0.94141
 Alpha virt. eigenvalues --    0.94773   0.95052   0.95352   0.95867   0.96498
 Alpha virt. eigenvalues --    0.96868   0.97476   0.97645   0.98342   0.98542
 Alpha virt. eigenvalues --    0.99150   0.99243   0.99488   0.99929   1.00487
 Alpha virt. eigenvalues --    1.00704   1.01329   1.01591   1.02642   1.03606
 Alpha virt. eigenvalues --    1.03893   1.04120   1.04192   1.04512   1.04811
 Alpha virt. eigenvalues --    1.05265   1.05683   1.06290   1.06727   1.07294
 Alpha virt. eigenvalues --    1.07683   1.08676   1.09063   1.09975   1.10336
 Alpha virt. eigenvalues --    1.11000   1.11504   1.12210   1.12784   1.13036
 Alpha virt. eigenvalues --    1.13815   1.14164   1.14370   1.14741   1.15433
 Alpha virt. eigenvalues --    1.15701   1.16087   1.16619   1.17055   1.17585
 Alpha virt. eigenvalues --    1.18458   1.18598   1.18749   1.19119   1.19429
 Alpha virt. eigenvalues --    1.19679   1.20072   1.20251   1.20630   1.20974
 Alpha virt. eigenvalues --    1.21543   1.22102   1.22243   1.22871   1.22958
 Alpha virt. eigenvalues --    1.23226   1.23672   1.24270   1.24300   1.24692
 Alpha virt. eigenvalues --    1.25232   1.25502   1.26138   1.26494   1.27481
 Alpha virt. eigenvalues --    1.27748   1.28190   1.28660   1.29158   1.29873
 Alpha virt. eigenvalues --    1.30371   1.30547   1.31898   1.32447   1.33714
 Alpha virt. eigenvalues --    1.34172   1.34266   1.35040   1.35503   1.35742
 Alpha virt. eigenvalues --    1.36581   1.37529   1.37756   1.38108   1.39653
 Alpha virt. eigenvalues --    1.40400   1.41217   1.41741   1.42108   1.44055
 Alpha virt. eigenvalues --    1.44651   1.45604   1.46542   1.47438   1.48300
 Alpha virt. eigenvalues --    1.48954   1.49528   1.49841   1.50240   1.50777
 Alpha virt. eigenvalues --    1.51544   1.52670   1.53224   1.53584   1.54036
 Alpha virt. eigenvalues --    1.54720   1.55617   1.55844   1.56818   1.57045
 Alpha virt. eigenvalues --    1.57946   1.59047   1.59160   1.60533   1.61523
 Alpha virt. eigenvalues --    1.61820   1.61964   1.62230   1.62788   1.63801
 Alpha virt. eigenvalues --    1.64252   1.64919   1.65042   1.65868   1.66157
 Alpha virt. eigenvalues --    1.66680   1.66870   1.68024   1.68301   1.68974
 Alpha virt. eigenvalues --    1.69176   1.70086   1.70395   1.71081   1.71487
 Alpha virt. eigenvalues --    1.71558   1.72183   1.73127   1.73360   1.73648
 Alpha virt. eigenvalues --    1.74292   1.74357   1.75083   1.75198   1.75363
 Alpha virt. eigenvalues --    1.75860   1.76205   1.76550   1.76950   1.77265
 Alpha virt. eigenvalues --    1.77486   1.77777   1.78014   1.78719   1.78845
 Alpha virt. eigenvalues --    1.79062   1.79312   1.80085   1.80450   1.80633
 Alpha virt. eigenvalues --    1.80846   1.81109   1.81597   1.81646   1.81915
 Alpha virt. eigenvalues --    1.82775   1.83211   1.83750   1.83945   1.84425
 Alpha virt. eigenvalues --    1.84540   1.85176   1.85548   1.86093   1.86453
 Alpha virt. eigenvalues --    1.87364   1.87894   1.88140   1.88807   1.89497
 Alpha virt. eigenvalues --    1.90019   1.90239   1.90728   1.91027   1.91451
 Alpha virt. eigenvalues --    1.91816   1.92419   1.92873   1.93226   1.93490
 Alpha virt. eigenvalues --    1.94545   1.95061   1.95871   1.97007   1.97611
 Alpha virt. eigenvalues --    1.98385   1.99129   1.99219   1.99722   2.00619
 Alpha virt. eigenvalues --    2.01720   2.02059   2.02239   2.02781   2.03510
 Alpha virt. eigenvalues --    2.04073   2.04841   2.05705   2.06365   2.07229
 Alpha virt. eigenvalues --    2.07540   2.08112   2.08335   2.09333   2.09915
 Alpha virt. eigenvalues --    2.10335   2.11231   2.11520   2.11650   2.13271
 Alpha virt. eigenvalues --    2.14454   2.14535   2.15191   2.16309   2.17084
 Alpha virt. eigenvalues --    2.18351   2.19654   2.20307   2.20428   2.20993
 Alpha virt. eigenvalues --    2.21676   2.22226   2.22630   2.23601   2.23821
 Alpha virt. eigenvalues --    2.24489   2.24669   2.25778   2.26071   2.26734
 Alpha virt. eigenvalues --    2.27342   2.27935   2.28661   2.29224   2.29783
 Alpha virt. eigenvalues --    2.30232   2.30388   2.30689   2.31636   2.31758
 Alpha virt. eigenvalues --    2.32031   2.33093   2.33497   2.33934   2.34591
 Alpha virt. eigenvalues --    2.34826   2.35675   2.36142   2.36357   2.37186
 Alpha virt. eigenvalues --    2.37315   2.38456   2.39052   2.39617   2.41267
 Alpha virt. eigenvalues --    2.41913   2.42895   2.43222   2.43454   2.43851
 Alpha virt. eigenvalues --    2.44579   2.45010   2.45514   2.46208   2.46576
 Alpha virt. eigenvalues --    2.46810   2.48412   2.50228   2.50661   2.51014
 Alpha virt. eigenvalues --    2.51763   2.53141   2.54458   2.55234   2.55760
 Alpha virt. eigenvalues --    2.56449   2.57810   2.58140   2.58856   2.59891
 Alpha virt. eigenvalues --    2.61134   2.61889   2.63060   2.63541   2.63928
 Alpha virt. eigenvalues --    2.64777   2.64996   2.65087   2.65503   2.65928
 Alpha virt. eigenvalues --    2.67038   2.67581   2.68082   2.68956   2.69500
 Alpha virt. eigenvalues --    2.70363   2.70610   2.70774   2.71757   2.72001
 Alpha virt. eigenvalues --    2.73085   2.74318   2.75177   2.76216   2.76696
 Alpha virt. eigenvalues --    2.76896   2.77349   2.77545   2.78882   2.79075
 Alpha virt. eigenvalues --    2.79622   2.80076   2.80230   2.80484   2.81200
 Alpha virt. eigenvalues --    2.82111   2.82651   2.83343   2.83579   2.84383
 Alpha virt. eigenvalues --    2.84922   2.85592   2.86356   2.86567   2.86900
 Alpha virt. eigenvalues --    2.87061   2.88321   2.88711   2.92262   2.93344
 Alpha virt. eigenvalues --    2.94281   2.95095   2.95918   2.97231   2.98666
 Alpha virt. eigenvalues --    2.99775   3.01312   3.02491   3.02806   3.05505
 Alpha virt. eigenvalues --    3.05601   3.09043   3.10279   3.12235   3.14379
 Alpha virt. eigenvalues --    3.15444   3.15837   3.16470   3.18743   3.19650
 Alpha virt. eigenvalues --    3.20791   3.22609   3.23580   3.25335   3.25577
 Alpha virt. eigenvalues --    3.44089   3.46922   3.47359   3.48855   3.50594
 Alpha virt. eigenvalues --    3.52917   3.54772   3.56162   3.57666   3.60142
 Alpha virt. eigenvalues --    3.63266   3.70936   3.75348
          Condensed to atoms (all electrons):
 Mulliken charges:
               1
     1  N   -0.303671
     2  C    0.183968
     3  C    0.056412
     4  N   -0.253269
     5  C    0.153478
     6  H    0.028455
     7  N   -0.294976
     8  C    0.125923
     9  H    0.009265
    10  N   -0.279594
    11  C    0.238689
    12  C    0.081092
    13  N   -0.065465
    14  H    0.117511
    15  H    0.084813
    16  H    0.023007
    17  H    0.028516
    18  H    0.021707
    19  N   -0.309553
    20  C    0.263434
    21  C    0.182650
    22  N   -0.122421
    23  H    0.120224
    24  H    0.118927
    25  N   -0.310201
    26  C    0.245267
    27  N   -0.140679
    28  H    0.120146
    29  C    0.191601
    30  O   -0.318310
    31  C   -0.019279
    32  N   -0.226657
    33  C    0.110107
    34  H    0.025914
    35  H    0.024289
    36  H    0.032247
    37  H    0.025858
    38  H    0.061938
    39  H    0.056070
    40  H    0.075770
    41  H    0.020140
    42  C   -0.117529
    43  O   -0.268575
    44  C    0.168786
    45  H    0.133223
    46  N   -0.123596
    47  O   -0.351313
    48  C    0.346806
    49  H    0.043874
    50  C    0.174407
    51  C    0.043770
    52  N   -0.276772
    53  H    0.034691
    54  H    0.041858
    55  H    0.029941
    56  H    0.122767
    57  H    0.118193
    58  N   -0.055685
    59  C    0.081175
    60  C    0.214668
    61  N   -0.257387
    62  H    0.032680
    63  C    0.164170
    64  N   -0.306758
    65  H    0.040192
    66  C    0.140132
    67  N   -0.257670
    68  C    0.028165
    69  C    0.179772
    70  N   -0.307330
 Sum of Mulliken charges =  -0.00000
 Mulliken charges with hydrogens summed into heavy atoms:
               1
     1  N   -0.303671
     2  C    0.257198
     3  C    0.056412
     4  N   -0.253269
     5  C    0.181934
     7  N   -0.294976
     8  C    0.135189
    10  N   -0.279594
    11  C    0.238689
    12  C    0.081092
    13  N    0.136859
    19  N   -0.309553
    20  C    0.263434
    21  C    0.265045
    22  N    0.116730
    25  N   -0.310201
    26  C    0.245267
    27  N   -0.020533
    29  C    0.191601
    30  O   -0.318310
    31  C   -0.019279
    32  N   -0.226657
    33  C    0.136021
    42  C   -0.097389
    43  O   -0.268575
    44  C    0.168786
    46  N    0.009626
    47  O   -0.351313
    48  C    0.346806
    50  C    0.218281
    51  C    0.237548
    52  N   -0.276772
    58  N    0.185274
    59  C    0.081175
    60  C    0.214668
    61  N   -0.257387
    63  C    0.196850
    64  N   -0.306758
    66  C    0.180325
    67  N   -0.257670
    68  C    0.028165
    69  C    0.286262
    70  N   -0.307330
 Electronic spatial extent (au):  <R**2>=          23246.1908
 Charge=             -0.0000 electrons
 Dipole moment (field-independent basis, Debye):
    X=             -6.8233    Y=              7.6755    Z=             -1.1329  Tot=             10.3322
 Quadrupole moment (field-independent basis, Debye-Ang):
   XX=           -154.5540   YY=           -225.5216   ZZ=           -252.8113
   XY=              0.7950   XZ=            -15.7271   YZ=              9.8382
 Traceless Quadrupole moment (field-independent basis, Debye-Ang):
   XX=             56.4083   YY=            -14.5593   ZZ=            -41.8490
   XY=              0.7950   XZ=            -15.7271   YZ=              9.8382
 Octapole moment (field-independent basis, Debye-Ang**2):
  XXX=             76.7935  YYY=            122.7494  ZZZ=             17.8068  XYY=            -98.0721
  XXY=            148.4197  XXZ=            -65.1832  XZZ=            -39.3954  YZZ=             25.0787
  YYZ=            -42.5149  XYZ=             64.4686
 Hexadecapole moment (field-independent basis, Debye-Ang**3):
 XXXX=         -17431.4895 YYYY=          -4596.0263 ZZZZ=          -3821.6964 XXXY=           -574.6124
 XXXZ=           -167.9319 YYYX=             55.8684 YYYZ=             64.2128 ZZZX=            -76.8268
 ZZZY=             20.6659 XXYY=          -3527.2475 XXZZ=          -4132.5973 YYZZ=          -1511.7914
 XXYZ=            -73.0203 YYXZ=             44.8424 ZZXY=            -79.8913
 N-N= 5.469498006798D+03 E-N=-1.571935840769D+04  KE= 2.037709116044D+03
 No NMR shielding tensors so no spin-rotation constants.
 Leave Link  601 at Sun Jan 21 22:27:45 2018, MaxMem=  4294967296 cpu:              49.2 elap:               1.7
 (Enter /share/apps/g16/l9999.exe)
 1\1\GINC-COMPUTE-0-3\SP\RwB97XD\CC-pVDZ\C23H27N17O3\SATYA\21-Jan-2018\
 0\\#p wb97xd/cc-pvdz sp scf=(maxcycles=20)\\Base pair stacking\\0,1\N,
 0,2.37459,-0.30051,-6.33039\C,0,2.86885,1.08223,-6.47783\C,0,1.08649,-
 2.08231,-6.27289\N,0,2.36125,-2.51395,-5.93614\C,0,3.08626,-1.42321,-5
 .98426\H,0,4.15541,-1.37965,-5.77456\N,0,-1.22256,-2.0339,-6.75132\C,0
 ,-1.07488,-0.72105,-6.95673\H,0,-1.9831,-0.18916,-7.23689\N,0,0.02111,
 0.02988,-6.86844\C,0,1.07909,-0.7203,-6.51866\C,0,-0.1392,-2.76079,-6.
 40056\N,0,-0.28461,-4.07144,-6.19508\H,0,0.49005,-4.64847,-5.934\H,0,-
 1.17233,-4.52099,-6.29505\H,0,3.57568,1.11141,-7.18474\H,0,2.11254,1.6
 8125,-6.73913\H,0,3.25483,1.39477,-5.60988\N,0,0.69222,2.37557,-3.2968
 1\C,0,-0.22851,1.35691,-3.34822\C,0,0.38565,3.81195,-3.45019\N,0,-3.51
 006,0.28496,-3.7278\H,0,-4.00701,-0.58238,-3.73118\H,0,-4.04809,1.1166
 9,-3.86735\N,0,-1.55729,1.49591,-3.5459\C,0,-2.18187,0.33164,-3.54445\
 N,0,-1.55497,-0.87738,-3.36343\H,0,-2.11252,-1.71756,-3.37742\C,0,-0.1
 8894,-1.04409,-3.15838\O,0,0.2767,-2.18014,-3.00566\C,0,0.49541,0.1979
 ,-3.15738\N,0,1.8435,0.48318,-2.98954\C,0,1.91254,1.78369,-3.07963\H,0
 ,2.83189,2.36408,-2.99479\H,0,0.88444,4.17903,-4.23458\H,0,-0.59586,3.
 92725,-3.59718\H,0,0.65765,4.3027,-2.62315\H,0,-5.34292,-5.55812,-4.19
 432\H,0,-5.38667,-5.62169,-2.43401\H,0,-5.14079,-4.07947,-3.25405\H,0,
 -1.19662,-7.82512,-3.29131\C,0,-1.6078,-6.81593,-3.26508\O,0,0.51257,-
 5.75628,-3.17411\C,0,-0.71649,-5.69812,-3.20256\H,0,-0.74298,-3.65307,
 -3.12936\N,0,-1.33992,-4.46696,-3.17359\O,0,-3.1486,-3.09371,-3.16894\
 C,0,-2.69012,-4.22225,-3.1983\H,0,-3.64974,-7.42503,-3.33783\C,0,-2.92
 963,-6.60922,-3.29047\C,0,-4.93387,-5.13882,-3.28717\N,0,-3.48402,-5.3
 5064,-3.25879\H,0,-8.45868,-5.04458,-7.87233\H,0,-7.71886,-3.9802,-6.8
 8144\H,0,-8.69899,-5.12806,-6.26028\H,0,-1.66204,-7.47959,-6.15716\H,0
 ,-2.98312,-8.52934,-6.4079\N,0,-2.64391,-7.59315,-6.30941\C,0,-3.46527
 ,-6.54348,-6.3782\C,0,-5.57289,-5.46999,-6.63761\N,0,-5.08938,-4.22412
 ,-6.50175\H,0,-3.29761,-3.2804,-6.18623\C,0,-3.77254,-4.2531,-6.30683\
 N,0,-2.9481,-5.30338,-6.23761\H,0,-7.79152,-7.77828,-7.08662\C,0,-6.87
 484,-7.21156,-6.9209\N,0,-5.68655,-7.7437,-6.77091\C,0,-4.8518,-6.6503
 8,-6.59046\C,0,-8.031,-4.92502,-6.97634\N,0,-6.87962,-5.83975,-6.85143
 \\Version=EM64L-G16RevA.03\State=1-A\HF=-2048.7496659\RMSD=6.967e-09\D
 ipole=-4.0252078,-0.0200715,-0.5670003\Quadrupole=11.0770343,20.407617
 1,-31.4846514,27.6298225,-7.4194306,5.3767629\PG=C01 [X(C23H27N17O3)]\
 \@


 LORD, MAN... WERE YE BUT WHYLES WHERE I AM, 
 THE GENTILES YE WAD NE'ER ENVY 'EM.        
 IT'S TRUE, THEY NEEDNA STARVE OR SWEAT,     
 THRO' WINTER'S CAULD OR SIMMER'S HEAT...  
 THEY'VE NAE SAIR WARK TO CRAZE THEIR BANES, 
 AND FILL AULD AGE WITH GRIPS AN' GRANES...  
                                             
 BUT HUMAN BODIES ARE SIC FOOLS              
 FOR A' THEIR COLLEGES AND SCHOOLS,           
 THAT WHEN NAE REAL ILLS PERPLEX THEM,       
 THEY MAK ENOW THEMSELVES TO VEX THEM,       
 AN' AYE THE LESS THEY HAE TO STURT THEM,    
 IN LIKE PROPORTION LESS WILL HURT THEM....  
                                             
                (ROBERT BURNS 'THE TWA DOGS')
 Job cpu time:       0 days  5 hours 55 minutes 39.1 seconds.
 Elapsed time:       0 days  0 hours 11 minutes 32.3 seconds.
 File lengths (MBytes):  RWF=    298 Int=      0 D2E=      0 Chk=     33 Scr=      1
 Normal termination of Gaussian 16 at Sun Jan 21 22:27:46 2018.
