 Entering Gaussian System, Link 0=g16
 Input=str30.10.-1.0.com
 Output=str30.10.-1.0.log
 Initial command:
 /share/apps/g16/l1.exe "/state/partition1/scr/Gau-21939.inp" -scrdir="/state/partition1/scr/"
 Entering Link 1 = /share/apps/g16/l1.exe PID=     21940.
  
 Copyright (c) 1988,1990,1992,1993,1995,1998,2003,2009,2016,
            Gaussian, Inc.  All Rights Reserved.
  
 This is part of the Gaussian(R) 16 program.  It is based on
 the Gaussian(R) 09 system (copyright 2009, Gaussian, Inc.),
 the Gaussian(R) 03 system (copyright 2003, Gaussian, Inc.),
 the Gaussian(R) 98 system (copyright 1998, Gaussian, Inc.),
 the Gaussian(R) 94 system (copyright 1995, Gaussian, Inc.),
 the Gaussian 92(TM) system (copyright 1992, Gaussian, Inc.),
 the Gaussian 90(TM) system (copyright 1990, Gaussian, Inc.),
 the Gaussian 88(TM) system (copyright 1988, Gaussian, Inc.),
 the Gaussian 86(TM) system (copyright 1986, Carnegie Mellon
 University), and the Gaussian 82(TM) system (copyright 1983,
 Carnegie Mellon University). Gaussian is a federally registered
 trademark of Gaussian, Inc.
  
 This software contains proprietary and confidential information,
 including trade secrets, belonging to Gaussian, Inc.
  
 This software is provided under written license and may be
 used, copied, transmitted, or stored only in accord with that
 written license.
  
 The following legend is applicable only to US Government
 contracts under FAR:
  
                    RESTRICTED RIGHTS LEGEND
  
 Use, reproduction and disclosure by the US Government is
 subject to restrictions as set forth in subparagraphs (a)
 and (c) of the Commercial Computer Software - Restricted
 Rights clause in FAR 52.227-19.
  
 Gaussian, Inc.
 340 Quinnipiac St., Bldg. 40, Wallingford CT 06492
  
  
 ---------------------------------------------------------------
 Warning -- This program may not be used in any manner that
 competes with the business of Gaussian, Inc. or will provide
 assistance to any competitor of Gaussian, Inc.  The licensee
 of this program is prohibited from giving any competitor of
 Gaussian, Inc. access to this program.  By using this program,
 the user acknowledges that Gaussian, Inc. is engaged in the
 business of creating and licensing software in the field of
 computational chemistry and represents and warrants to the
 licensee that it is not a competitor of Gaussian, Inc. and that
 it will not use this program in any manner prohibited above.
 ---------------------------------------------------------------
  

 Cite this work as:
 Gaussian 16, Revision A.03,
 M. J. Frisch, G. W. Trucks, H. B. Schlegel, G. E. Scuseria, 
 M. A. Robb, J. R. Cheeseman, G. Scalmani, V. Barone, 
 G. A. Petersson, H. Nakatsuji, X. Li, M. Caricato, A. V. Marenich, 
 J. Bloino, B. G. Janesko, R. Gomperts, B. Mennucci, H. P. Hratchian, 
 J. V. Ortiz, A. F. Izmaylov, J. L. Sonnenberg, D. Williams-Young, 
 F. Ding, F. Lipparini, F. Egidi, J. Goings, B. Peng, A. Petrone, 
 T. Henderson, D. Ranasinghe, V. G. Zakrzewski, J. Gao, N. Rega, 
 G. Zheng, W. Liang, M. Hada, M. Ehara, K. Toyota, R. Fukuda, 
 J. Hasegawa, M. Ishida, T. Nakajima, Y. Honda, O. Kitao, H. Nakai, 
 T. Vreven, K. Throssell, J. A. Montgomery, Jr., J. E. Peralta, 
 F. Ogliaro, M. J. Bearpark, J. J. Heyd, E. N. Brothers, K. N. Kudin, 
 V. N. Staroverov, T. A. Keith, R. Kobayashi, J. Normand, 
 K. Raghavachari, A. P. Rendell, J. C. Burant, S. S. Iyengar, 
 J. Tomasi, M. Cossi, J. M. Millam, M. Klene, C. Adamo, R. Cammi, 
 J. W. Ochterski, R. L. Martin, K. Morokuma, O. Farkas, 
 J. B. Foresman, and D. J. Fox, Gaussian, Inc., Wallingford CT, 2016.
 
 ******************************************
 Gaussian 16:  EM64L-G16RevA.03 25-Dec-2016
                21-Jan-2018 
 ******************************************
 %nprocshared=32
 Will use up to   32 processors via shared memory.
 %mem=32GB
 %chk=allatoms_t.chk
 ---------------------------------------
 #p wb97xd/cc-pvdz sp scf=(maxcycles=20)
 ---------------------------------------
 1/38=1,172=1/1;
 2/12=2,17=6,18=5,40=1/2;
 3/5=16,11=2,25=1,30=1,74=-58/1,2,3;
 4//1;
 5/5=2,7=20,38=5/2;
 6/7=2,8=2,9=2,10=2,28=1/1;
 99/5=1,9=1/99;
 Leave Link    1 at Sun Jan 21 06:39:09 2018, MaxMem=  4294967296 cpu:               2.7 elap:               0.1
 (Enter /share/apps/g16/l101.exe)
 ------------------
 Base pair stacking
 ------------------
 Symbolic Z-matrix:
 Charge =  0 Multiplicity = 1
 N                     6.23604   5.39778  -5.67779 
 C                     6.76514   6.76277  -5.86448 
 C                     4.92819   3.62958  -5.65989 
 N                     6.13689   3.22383  -5.11296 
 C                     6.87645   4.30535  -5.14563 
 H                     7.906     4.36335  -4.79125 
 N                     2.71019   3.64424  -6.4619 
 C                     2.90337   4.93566  -6.74912 
 H                     2.05097   5.44509  -7.19651 
 N                     3.98633   5.68874  -6.56753 
 C                     4.97419   4.96707  -6.01279 
 C                     3.72338   2.94581  -5.90447 
 N                     3.53247   1.65659  -5.61703 
 H                     4.25471   1.10093  -5.20371 
 H                     2.6615    1.20245  -5.80493 
 H                     7.56464   6.73265  -6.46454 
 H                     6.06139   7.34029  -6.27719 
 H                     7.02957   7.14405  -4.97865 
 N                     1.74916   5.74647  -3.24321 
 C                     0.83336   4.72739  -3.34738 
 C                     1.45939   7.1793   -3.45232 
 N                    -2.40873   3.64901  -3.97 
 H                    -2.90571   2.78205  -3.99503 
 H                    -2.93169   4.47775  -4.17105 
 N                    -0.47455   4.86268  -3.65579 
 C                    -1.09981   3.69904  -3.67996 
 N                    -0.49251   2.49395  -3.42213 
 H                    -1.04898   1.65395  -3.46327 
 C                     0.85186   2.33109  -3.10274 
 O                     1.3009    1.19843  -2.88785 
 C                     1.53667   3.57247  -3.07294 
 N                     2.86723   3.86069  -2.80193 
 C                     2.94634   5.15888  -2.91437 
 H                     3.85704   5.74054  -2.76745 
 H                     2.02132   7.52889  -4.2012 
 H                     0.4934    7.29185  -3.68137 
 H                     1.66415   7.68789  -2.61672 
 H                    -4.21073  -2.20197  -4.45722 
 H                    -4.39804  -2.227    -2.70538 
 H                    -4.0826   -0.70321  -3.536 
 H                    -0.15706  -4.45073  -3.16982 
 C                    -0.56671  -3.441    -3.19919 
 O                     1.54159  -2.38066  -2.95863 
 C                     0.31907  -2.32253  -3.08851 
 H                     0.29136  -0.27635  -3.06224 
 N                    -0.30183  -1.09073  -3.1373 
 O                    -2.10175   0.28319  -3.31011 
 C                    -1.64496  -0.84594  -3.27741 
 H                    -2.5973   -4.05054  -3.42501 
 C                    -1.8816   -3.23424  -3.33683 
 C                    -3.87608  -1.76313  -3.52906 
 N                    -2.43385  -1.975    -3.37788 
 H                    -4.33738   0.56912  -8.34809 
 H                    -3.72955   1.70893  -7.35135 
 H                    -4.80299   0.61774  -6.78468 
 H                     2.11651  -1.73395  -5.5005 
 H                     0.82943  -2.79755  -5.85019 
 N                     1.16431  -1.85724  -5.78026 
 C                     0.37532  -0.81476  -6.04839 
 C                    -1.6599    0.23895  -6.68814 
 N                    -1.18316   1.49062  -6.58582 
 H                     0.55933   2.45273  -6.09725 
 C                     0.09269   1.47454  -6.20523 
 N                     0.88465   0.43147  -5.9362 
 H                    -3.82503  -2.09308  -7.25915 
 C                    -2.93301  -1.51688  -7.01169 
 N                    -1.78506  -2.03779  -6.65318 
 C                    -0.96894  -0.93536  -6.44503 
 C                    -4.03826   0.76024  -7.41321 
 N                    -2.92859  -0.14395  -7.05394 
 
 ITRead=  0  0  0  0  0  0  0  0  0  0  0  0  0  0  0  0  0  0  0  0
 ITRead=  0  0  0  0  0  0  0  0  0  0  0  0  0  0  0  0  0  0  0  0
 ITRead=  0  0  0  0  0  0  0  0  0  0  0  0  0  0  0  0  0  0  0  0
 ITRead=  0  0  0  0  0  0  0  0  0  0
 MicOpt= -1 -1 -1 -1 -1 -1 -1 -1 -1 -1 -1 -1 -1 -1 -1 -1 -1 -1 -1 -1
 MicOpt= -1 -1 -1 -1 -1 -1 -1 -1 -1 -1 -1 -1 -1 -1 -1 -1 -1 -1 -1 -1
 MicOpt= -1 -1 -1 -1 -1 -1 -1 -1 -1 -1 -1 -1 -1 -1 -1 -1 -1 -1 -1 -1
 MicOpt= -1 -1 -1 -1 -1 -1 -1 -1 -1 -1
 NAtoms=     70 NQM=       70 NQMF=       0 NMMI=      0 NMMIF=      0
                NMic=       0 NMicF=      0.
                    Isotopes and Nuclear Properties:
 (Nuclear quadrupole moments (NQMom) in fm**2, nuclear magnetic moments (NMagM)
  in nuclear magnetons)

  Atom         1           2           3           4           5           6           7           8           9          10
 IAtWgt=          14          12          12          14          12           1          14          12           1          14
 AtmWgt=  14.0030740  12.0000000  12.0000000  14.0030740  12.0000000   1.0078250  14.0030740  12.0000000   1.0078250  14.0030740
 NucSpn=           2           0           0           2           0           1           2           0           1           2
 AtZEff=  -0.0000000  -0.0000000  -0.0000000  -0.0000000  -0.0000000  -0.0000000  -0.0000000  -0.0000000  -0.0000000  -0.0000000
 NQMom=    2.0440000   0.0000000   0.0000000   2.0440000   0.0000000   0.0000000   2.0440000   0.0000000   0.0000000   2.0440000
 NMagM=    0.4037610   0.0000000   0.0000000   0.4037610   0.0000000   2.7928460   0.4037610   0.0000000   2.7928460   0.4037610
 AtZNuc=   7.0000000   6.0000000   6.0000000   7.0000000   6.0000000   1.0000000   7.0000000   6.0000000   1.0000000   7.0000000

  Atom        11          12          13          14          15          16          17          18          19          20
 IAtWgt=          12          12          14           1           1           1           1           1          14          12
 AtmWgt=  12.0000000  12.0000000  14.0030740   1.0078250   1.0078250   1.0078250   1.0078250   1.0078250  14.0030740  12.0000000
 NucSpn=           0           0           2           1           1           1           1           1           2           0
 AtZEff=  -0.0000000  -0.0000000  -0.0000000  -0.0000000  -0.0000000  -0.0000000  -0.0000000  -0.0000000  -0.0000000  -0.0000000
 NQMom=    0.0000000   0.0000000   2.0440000   0.0000000   0.0000000   0.0000000   0.0000000   0.0000000   2.0440000   0.0000000
 NMagM=    0.0000000   0.0000000   0.4037610   2.7928460   2.7928460   2.7928460   2.7928460   2.7928460   0.4037610   0.0000000
 AtZNuc=   6.0000000   6.0000000   7.0000000   1.0000000   1.0000000   1.0000000   1.0000000   1.0000000   7.0000000   6.0000000

  Atom        21          22          23          24          25          26          27          28          29          30
 IAtWgt=          12          14           1           1          14          12          14           1          12          16
 AtmWgt=  12.0000000  14.0030740   1.0078250   1.0078250  14.0030740  12.0000000  14.0030740   1.0078250  12.0000000  15.9949146
 NucSpn=           0           2           1           1           2           0           2           1           0           0
 AtZEff=  -0.0000000  -0.0000000  -0.0000000  -0.0000000  -0.0000000  -0.0000000  -0.0000000  -0.0000000  -0.0000000  -0.0000000
 NQMom=    0.0000000   2.0440000   0.0000000   0.0000000   2.0440000   0.0000000   2.0440000   0.0000000   0.0000000   0.0000000
 NMagM=    0.0000000   0.4037610   2.7928460   2.7928460   0.4037610   0.0000000   0.4037610   2.7928460   0.0000000   0.0000000
 AtZNuc=   6.0000000   7.0000000   1.0000000   1.0000000   7.0000000   6.0000000   7.0000000   1.0000000   6.0000000   8.0000000

  Atom        31          32          33          34          35          36          37          38          39          40
 IAtWgt=          12          14          12           1           1           1           1           1           1           1
 AtmWgt=  12.0000000  14.0030740  12.0000000   1.0078250   1.0078250   1.0078250   1.0078250   1.0078250   1.0078250   1.0078250
 NucSpn=           0           2           0           1           1           1           1           1           1           1
 AtZEff=  -0.0000000  -0.0000000  -0.0000000  -0.0000000  -0.0000000  -0.0000000  -0.0000000  -0.0000000  -0.0000000  -0.0000000
 NQMom=    0.0000000   2.0440000   0.0000000   0.0000000   0.0000000   0.0000000   0.0000000   0.0000000   0.0000000   0.0000000
 NMagM=    0.0000000   0.4037610   0.0000000   2.7928460   2.7928460   2.7928460   2.7928460   2.7928460   2.7928460   2.7928460
 AtZNuc=   6.0000000   7.0000000   6.0000000   1.0000000   1.0000000   1.0000000   1.0000000   1.0000000   1.0000000   1.0000000

  Atom        41          42          43          44          45          46          47          48          49          50
 IAtWgt=           1          12          16          12           1          14          16          12           1          12
 AtmWgt=   1.0078250  12.0000000  15.9949146  12.0000000   1.0078250  14.0030740  15.9949146  12.0000000   1.0078250  12.0000000
 NucSpn=           1           0           0           0           1           2           0           0           1           0
 AtZEff=  -0.0000000  -0.0000000  -0.0000000  -0.0000000  -0.0000000  -0.0000000  -0.0000000  -0.0000000  -0.0000000  -0.0000000
 NQMom=    0.0000000   0.0000000   0.0000000   0.0000000   0.0000000   2.0440000   0.0000000   0.0000000   0.0000000   0.0000000
 NMagM=    2.7928460   0.0000000   0.0000000   0.0000000   2.7928460   0.4037610   0.0000000   0.0000000   2.7928460   0.0000000
 AtZNuc=   1.0000000   6.0000000   8.0000000   6.0000000   1.0000000   7.0000000   8.0000000   6.0000000   1.0000000   6.0000000

  Atom        51          52          53          54          55          56          57          58          59          60
 IAtWgt=          12          14           1           1           1           1           1          14          12          12
 AtmWgt=  12.0000000  14.0030740   1.0078250   1.0078250   1.0078250   1.0078250   1.0078250  14.0030740  12.0000000  12.0000000
 NucSpn=           0           2           1           1           1           1           1           2           0           0
 AtZEff=  -0.0000000  -0.0000000  -0.0000000  -0.0000000  -0.0000000  -0.0000000  -0.0000000  -0.0000000  -0.0000000  -0.0000000
 NQMom=    0.0000000   2.0440000   0.0000000   0.0000000   0.0000000   0.0000000   0.0000000   2.0440000   0.0000000   0.0000000
 NMagM=    0.0000000   0.4037610   2.7928460   2.7928460   2.7928460   2.7928460   2.7928460   0.4037610   0.0000000   0.0000000
 AtZNuc=   6.0000000   7.0000000   1.0000000   1.0000000   1.0000000   1.0000000   1.0000000   7.0000000   6.0000000   6.0000000

  Atom        61          62          63          64          65          66          67          68          69          70
 IAtWgt=          14           1          12          14           1          12          14          12          12          14
 AtmWgt=  14.0030740   1.0078250  12.0000000  14.0030740   1.0078250  12.0000000  14.0030740  12.0000000  12.0000000  14.0030740
 NucSpn=           2           1           0           2           1           0           2           0           0           2
 AtZEff=  -0.0000000  -0.0000000  -0.0000000  -0.0000000  -0.0000000  -0.0000000  -0.0000000  -0.0000000  -0.0000000  -0.0000000
 NQMom=    2.0440000   0.0000000   0.0000000   2.0440000   0.0000000   0.0000000   2.0440000   0.0000000   0.0000000   2.0440000
 NMagM=    0.4037610   2.7928460   0.0000000   0.4037610   2.7928460   0.0000000   0.4037610   0.0000000   0.0000000   0.4037610
 AtZNuc=   7.0000000   1.0000000   6.0000000   7.0000000   1.0000000   6.0000000   7.0000000   6.0000000   6.0000000   7.0000000
 Leave Link  101 at Sun Jan 21 06:39:09 2018, MaxMem=  4294967296 cpu:               7.6 elap:               0.3
 (Enter /share/apps/g16/l202.exe)
 Stoichiometry    C23H27N17O3
 Framework group  C1[X(C23H27N17O3)]
 Deg. of freedom   204
 Full point group                 C1      NOp   1
 Largest Abelian subgroup         C1      NOp   1
 Largest concise Abelian subgroup C1      NOp   1
                         Standard orientation:                         
 ---------------------------------------------------------------------
 Center     Atomic      Atomic             Coordinates (Angstroms)
 Number     Number       Type             X           Y           Z
 ---------------------------------------------------------------------
      1          7           0       -6.397336   -1.410101    0.535274
      2          6           0       -7.749176   -0.858052    0.749209
      3          6           0       -4.218887   -1.712574    0.549266
      4          7           0       -4.754715   -2.782226   -0.153198
      5          6           0       -6.045712   -2.557185   -0.133517
      6          1           0       -6.794450   -3.201347   -0.595435
      7          7           0       -2.706969   -0.232491    1.591578
      8          6           0       -3.774933    0.493591    1.937754
      9          1           0       -3.558779    1.395613    2.508628
     10          7           0       -5.063770    0.273749    1.685814
     11          6           0       -5.219188   -0.858451    0.979854
     12          6           0       -2.896607   -1.366113    0.881630
     13          7           0       -1.831794   -2.092244    0.535126
     14          1           0       -1.925117   -2.938556    0.009513
     15          1           0       -0.904994   -1.815217    0.788968
     16          1           0       -8.304678   -1.519150    1.253736
     17          1           0       -7.684379   -0.009539    1.273567
     18          1           0       -8.178344   -0.670011   -0.134221
     19          7           0       -3.438022    2.309277   -1.359335
     20          6           0       -2.073059    2.235399   -1.219758
     21          6           0       -4.267633    3.485145   -1.028008
     22          7           0        0.941336    3.701954   -0.311823
     23          1           0        1.907686    3.447377   -0.287434
     24          1           0        0.706948    4.623571   -0.001335
     25          7           0       -1.266892    3.216689   -0.760177
     26          6           0        0.001284    2.846593   -0.741424
     27          7           0        0.447896    1.610528   -1.141690
     28          1           0        1.435961    1.414801   -1.092999
     29          6           0       -0.363640    0.585624   -1.617971
     30          8           0        0.140231   -0.493401   -1.953460
     31          6           0       -1.728819    0.968364   -1.643931
     32          7           0       -2.855003    0.261032   -2.041796
     33          6           0       -3.842642    1.094220   -1.855878
     34          1           0       -4.889714    0.872710   -2.065313
     35          1           0       -4.933753    3.237834   -0.325213
     36          1           0       -3.681294    4.218529   -0.686508
     37          1           0       -4.747846    3.797740   -1.846847
     38          1           0        6.369798    0.846188   -0.003664
     39          1           0        6.574159    1.178646   -1.721909
     40          1           0        5.237324    1.912459   -0.835478
     41          1           0        5.190718   -3.426734   -1.874083
     42          6           0        4.753215   -2.438084   -1.734830
     43          8           0        2.530834   -3.162355   -2.139274
     44          6           0        3.338296   -2.273014   -1.871166
     45          1           0        1.894433   -0.826681   -1.763044
     46          7           0        2.888714   -0.982811   -1.674998
     47          8           0        3.156327    1.225109   -1.215977
     48          6           0        3.646468    0.120454   -1.371409
     49          1           0        6.599285   -1.453360   -1.324739
     50          6           0        5.518549   -1.380950   -1.439260
     51          6           0        5.851787    1.029838   -0.933175
     52          7           0        5.001670   -0.119272   -1.256623
     53          1           0        4.351700    2.380861    4.046757
     54          1           0        3.143678    2.867370    3.063849
     55          1           0        4.691593    2.938093    2.550972
     56          1           0        1.586021   -3.434600    0.359342
     57          1           0        3.234141   -3.307204    0.780737
     58          7           0        2.329866   -2.881332    0.734494
     59          6           0        2.126073   -1.631110    1.154706
     60          6           0        2.772155    0.462611    2.082399
     61          7           0        1.547131    1.008730    2.008250
     62          1           0       -0.341781    0.505726    1.392112
     63          6           0        0.680340    0.142011    1.488277
     64          7           0        0.882511   -1.110611    1.066805
     65          1           0        5.933575    0.301419    2.739394
     66          6           0        4.906646    0.101801    2.431969
     67          7           0        4.489617   -1.028355    1.915732
     68          6           0        3.137890   -0.813062    1.689426
     69          6           0        4.035942    2.418152    3.098650
     70          7           0        3.919889    1.048540    2.561347
 ---------------------------------------------------------------------
 Rotational constants (GHZ):           0.1506552           0.0524527           0.0494278
 Leave Link  202 at Sun Jan 21 06:39:09 2018, MaxMem=  4294967296 cpu:               0.4 elap:               0.0
 (Enter /share/apps/g16/l301.exe)
 Standard basis: CC-pVDZ (5D, 7F)
 Ernie: Thresh=  0.10000D-02 Tol=  0.10000D-05 Strict=F.
 Ernie:  86 primitive shells out of 1081 were deleted.
 There are   780 symmetry adapted cartesian basis functions of A   symmetry.
 There are   737 symmetry adapted basis functions of A   symmetry.
   737 basis functions,  1608 primitive gaussians,   780 cartesian basis functions
   154 alpha electrons      154 beta electrons
       nuclear repulsion energy      5501.7491210585 Hartrees.
 IExCor= 4639 DFT=T Ex+Corr=wB97XD ExCW=0 ScaHFX=  1.000000
 ScaDFX=  1.000000  1.000000  1.000000  1.000000 ScalE2=  1.000000  1.000000
 IRadAn=      5 IRanWt=     -1 IRanGd=            0 ICorTp=0 IEmpDi=121
 HFx  wShort=  0.000000 wLong=  0.200000 cFull=  0.222036 cShort=  0.000000 cLong=  0.777964
 DFx  wShort=  0.000000 wLong=  0.200000 cFull=  0.000000 cShort=  0.000000 cLong=  1.000000
 NAtoms=   70 NActive=   70 NUniq=   70 SFac= 1.00D+00 NAtFMM=   60 NAOKFM=T Big=T
 Integral buffers will be    131072 words long.
 Raffenetti 2 integral format.
 Two-electron integral symmetry is turned on.
 R6Disp:  Grimme-D2 Dispersion energy=       -0.0708519598 Hartrees.
 Nuclear repulsion after empirical dispersion term =     5501.6782690987 Hartrees.
 Leave Link  301 at Sun Jan 21 06:39:09 2018, MaxMem=  4294967296 cpu:               2.9 elap:               0.1
 (Enter /share/apps/g16/l302.exe)
 NPDir=0 NMtPBC=     1 NCelOv=     1 NCel=       1 NClECP=     1 NCelD=      1
         NCelK=      1 NCelE2=     1 NClLst=     1 CellRange=     0.0.
 One-electron integrals computed using PRISM.
 One-electron integral symmetry used in STVInt
 NBasis=   737 RedAO= T EigKep=  7.11D-04  NBF=   737
 NBsUse=   737 1.00D-06 EigRej= -1.00D+00 NBFU=   737
 Precomputing XC quadrature grid using
 IXCGrd= 4 IRadAn=           5 IRanWt=          -1 IRanGd=           0 AccXCQ= 0.00D+00.
 Generated NRdTot=       0 NPtTot=           0 NUsed=           0 NTot=          32
 NSgBfM=   769   769   769   769   769 MxSgAt=    70 MxSgA2=    70.
 Leave Link  302 at Sun Jan 21 06:39:14 2018, MaxMem=  4294967296 cpu:             138.0 elap:               4.4
 (Enter /share/apps/g16/l303.exe)
 DipDrv:  MaxL=1.
 Leave Link  303 at Sun Jan 21 06:39:14 2018, MaxMem=  4294967296 cpu:              12.5 elap:               0.5
 (Enter /share/apps/g16/l401.exe)
 ExpMin= 1.22D-01 ExpMax= 1.17D+04 ExpMxC= 4.01D+02 IAcc=3 IRadAn=         5 AccDes= 0.00D+00
 Harris functional with IExCor= 4639 and IRadAn=       5 diagonalized for initial guess.
 HarFok:  IExCor= 4639 AccDes= 0.00D+00 IRadAn=         5 IDoV= 1 UseB2=F ITyADJ=14
 ICtDFT=  3500011 ScaDFX=  1.000000  1.000000  1.000000  1.000000
 FoFCou: FMM=F IPFlag=           0 FMFlag=      100000 FMFlg1=        2001
         NFxFlg=           0 DoJE=T BraDBF=F KetDBF=T FulRan=T
         wScrn=  0.000000 ICntrl=       500 IOpCl=  0 I1Cent=   200000004 NGrid=           0
         NMat0=    1 NMatS0=      1 NMatT0=    0 NMatD0=    1 NMtDS0=    0 NMtDT0=    0
 Petite list used in FoFCou.
 Harris En= -1963.88792942757    
 JPrj=0 DoOrth=F DoCkMO=F.
 Leave Link  401 at Sun Jan 21 06:39:27 2018, MaxMem=  4294967296 cpu:             398.6 elap:              12.5
 (Enter /share/apps/g16/l502.exe)
 Integral symmetry usage will be decided dynamically.
 Closed shell SCF:
 Using DIIS extrapolation, IDIIS=  1040.
 NGot=  4294967296 LenX=  4293717438 LenY=  4293108258
 Requested convergence on RMS density matrix=1.00D-08 within  20 cycles.
 Requested convergence on MAX density matrix=1.00D-06.
 Requested convergence on             energy=1.00D-06.
 No special actions if energy rises.
 Fock matrices will be formed incrementally for  20 cycles.
 Integral accuracy reduced to 1.0D-05 until final iterations.

 Cycle   1  Pass 0  IDiag  1:
 FoFJK:  IHMeth= 1 ICntrl=       0 DoSepK=T KAlg= 0 I1Cent=           0 FoldK=F
 IRaf=         1 NMat=       1 IRICut=       1 DoRegI=T DoRafI=F ISym2E= 0 IDoP0=0 IntGTp=1.
 FoFCou: FMM=T IPFlag=           0 FMFlag=      100000 FMFlg1=        2001
         NFxFlg=           0 DoJE=T BraDBF=F KetDBF=F FulRan=T
         wScrn=  0.000000 ICntrl=       500 IOpCl=  0 I1Cent=           0 NGrid=           0
         NMat0=    1 NMatS0=      1 NMatT0=    0 NMatD0=    1 NMtDS0=    0 NMtDT0=    0
 Symmetry not used in FoFCou.
 FMM levels:  10  Number of levels for PrismC:   9
 E= -2048.31907092951    
 DIIS: error= 2.49D-02 at cycle   1 NSaved=   1.
 NSaved= 1 IEnMin= 1 EnMin= -2048.31907092951     IErMin= 1 ErrMin= 2.49D-02
 ErrMax= 2.49D-02  0.00D+00 EMaxC= 1.00D-01 BMatC= 8.32D-01 BMatP= 8.32D-01
 IDIUse=3 WtCom= 7.51D-01 WtEn= 2.49D-01
 Coeff-Com:  0.100D+01
 Coeff-En:   0.100D+01
 Coeff:      0.100D+01
 Gap=     0.254 Goal=   None    Shift=    0.000
 GapD=    0.254 DampG=1.000 DampE=0.500 DampFc=0.5000 IDamp=-1.
 Damping current iteration by 5.00D-01
 RMSDP=1.57D-03 MaxDP=1.29D-01              OVMax= 1.85D-01

 Cycle   2  Pass 0  IDiag  1:
 RMSU=  7.84D-04    CP:  9.98D-01
 E= -2048.51572438005     Delta-E=       -0.196653450538 Rises=F Damp=T
 DIIS: error= 1.39D-02 at cycle   2 NSaved=   2.
 NSaved= 2 IEnMin= 2 EnMin= -2048.51572438005     IErMin= 2 ErrMin= 1.39D-02
 ErrMax= 1.39D-02  0.00D+00 EMaxC= 1.00D-01 BMatC= 1.45D-01 BMatP= 8.32D-01
 IDIUse=3 WtCom= 8.61D-01 WtEn= 1.39D-01
 Coeff-Com: -0.196D+00 0.120D+01
 Coeff-En:   0.000D+00 0.100D+01
 Coeff:     -0.169D+00 0.117D+01
 Gap=     0.366 Goal=   None    Shift=    0.000
 RMSDP=5.85D-04 MaxDP=3.33D-02 DE=-1.97D-01 OVMax= 1.52D-01

 Cycle   3  Pass 0  IDiag  1:
 RMSU=  5.74D-04    CP:  9.94D-01  1.13D+00
 E= -2048.69550135811     Delta-E=       -0.179776978067 Rises=F Damp=F
 DIIS: error= 8.02D-03 at cycle   3 NSaved=   3.
 NSaved= 3 IEnMin= 3 EnMin= -2048.69550135811     IErMin= 3 ErrMin= 8.02D-03
 ErrMax= 8.02D-03  0.00D+00 EMaxC= 1.00D-01 BMatC= 6.23D-02 BMatP= 1.45D-01
 IDIUse=3 WtCom= 9.20D-01 WtEn= 8.02D-02
 Coeff-Com: -0.230D+00 0.546D+00 0.684D+00
 Coeff-En:   0.000D+00 0.000D+00 0.100D+01
 Coeff:     -0.212D+00 0.502D+00 0.709D+00
 Gap=     0.278 Goal=   None    Shift=    0.000
 RMSDP=3.59D-04 MaxDP=3.25D-02 DE=-1.80D-01 OVMax= 7.26D-02

 Cycle   4  Pass 0  IDiag  1:
 RMSU=  2.04D-04    CP:  9.94D-01  1.42D+00  6.66D-01
 E= -2048.74250441739     Delta-E=       -0.047003059279 Rises=F Damp=F
 DIIS: error= 2.80D-03 at cycle   4 NSaved=   4.
 NSaved= 4 IEnMin= 4 EnMin= -2048.74250441739     IErMin= 4 ErrMin= 2.80D-03
 ErrMax= 2.80D-03  0.00D+00 EMaxC= 1.00D-01 BMatC= 9.40D-03 BMatP= 6.23D-02
 IDIUse=3 WtCom= 9.72D-01 WtEn= 2.80D-02
 Coeff-Com: -0.943D-01 0.183D+00 0.381D+00 0.531D+00
 Coeff-En:   0.000D+00 0.000D+00 0.757D-01 0.924D+00
 Coeff:     -0.917D-01 0.177D+00 0.372D+00 0.542D+00
 Gap=     0.282 Goal=   None    Shift=    0.000
 RMSDP=1.29D-04 MaxDP=1.13D-02 DE=-4.70D-02 OVMax= 1.51D-02

 Cycle   5  Pass 0  IDiag  1:
 RMSU=  6.07D-05    CP:  9.94D-01  1.39D+00  8.04D-01  6.17D-01
 E= -2048.75034138112     Delta-E=       -0.007836963722 Rises=F Damp=F
 DIIS: error= 5.92D-04 at cycle   5 NSaved=   5.
 NSaved= 5 IEnMin= 5 EnMin= -2048.75034138112     IErMin= 5 ErrMin= 5.92D-04
 ErrMax= 5.92D-04  0.00D+00 EMaxC= 1.00D-01 BMatC= 2.87D-04 BMatP= 9.40D-03
 IDIUse=3 WtCom= 9.94D-01 WtEn= 5.92D-03
 Coeff-Com: -0.240D-01 0.409D-01 0.122D+00 0.237D+00 0.624D+00
 Coeff-En:   0.000D+00 0.000D+00 0.000D+00 0.000D+00 0.100D+01
 Coeff:     -0.239D-01 0.407D-01 0.121D+00 0.236D+00 0.626D+00
 Gap=     0.283 Goal=   None    Shift=    0.000
 RMSDP=2.63D-05 MaxDP=1.73D-03 DE=-7.84D-03 OVMax= 3.20D-03

 Failed to achieve initial convergence to 1.0D-08 in  6 cycles.
 Switch to full accuracy anyway.
 Cycle   6  Pass 1  IDiag  1:
 E= -2048.75055515162     Delta-E=       -0.000213770501 Rises=F Damp=F
 DIIS: error= 2.11D-04 at cycle   1 NSaved=   1.
 NSaved= 1 IEnMin= 1 EnMin= -2048.75055515162     IErMin= 1 ErrMin= 2.11D-04
 ErrMax= 2.11D-04  0.00D+00 EMaxC= 1.00D-01 BMatC= 7.14D-05 BMatP= 7.14D-05
 IDIUse=3 WtCom= 9.98D-01 WtEn= 2.11D-03
 Coeff-Com:  0.100D+01
 Coeff-En:   0.100D+01
 Coeff:      0.100D+01
 Gap=     0.283 Goal=   None    Shift=    0.000
 RMSDP=2.63D-05 MaxDP=1.73D-03 DE=-2.14D-04 OVMax= 2.81D-03

 Cycle   7  Pass 1  IDiag  1:
 RMSU=  1.06D-04    CP:  1.00D+00
 E= -2048.75060685164     Delta-E=       -0.000051700022 Rises=F Damp=F
 DIIS: error= 2.23D-04 at cycle   2 NSaved=   2.
 NSaved= 2 IEnMin= 2 EnMin= -2048.75060685164     IErMin= 1 ErrMin= 2.11D-04
 ErrMax= 2.23D-04  0.00D+00 EMaxC= 1.00D-01 BMatC= 4.17D-05 BMatP= 7.14D-05
 IDIUse=3 WtCom= 9.98D-01 WtEn= 2.23D-03
 Coeff-Com:  0.410D+00 0.590D+00
 Coeff-En:   0.000D+00 0.100D+01
 Coeff:      0.409D+00 0.591D+00
 Gap=     0.283 Goal=   None    Shift=    0.000
 RMSDP=1.11D-05 MaxDP=9.91D-04 DE=-5.17D-05 OVMax= 1.51D-03

 Cycle   8  Pass 1  IDiag  1:
 RMSU=  1.08D-05    CP:  1.00D+00  1.02D+00
 E= -2048.75063750999     Delta-E=       -0.000030658349 Rises=F Damp=F
 DIIS: error= 9.76D-05 at cycle   3 NSaved=   3.
 NSaved= 3 IEnMin= 3 EnMin= -2048.75063750999     IErMin= 3 ErrMin= 9.76D-05
 ErrMax= 9.76D-05  0.00D+00 EMaxC= 1.00D-01 BMatC= 9.46D-06 BMatP= 4.17D-05
 IDIUse=1 WtCom= 1.00D+00 WtEn= 0.00D+00
 Coeff-Com: -0.195D-01 0.308D+00 0.711D+00
 Coeff:     -0.195D-01 0.308D+00 0.711D+00
 Gap=     0.283 Goal=   None    Shift=    0.000
 RMSDP=5.46D-06 MaxDP=4.19D-04 DE=-3.07D-05 OVMax= 5.85D-04

 Cycle   9  Pass 1  IDiag  1:
 RMSU=  3.74D-06    CP:  1.00D+00  1.05D+00  7.67D-01
 E= -2048.75064652905     Delta-E=       -0.000009019063 Rises=F Damp=F
 DIIS: error= 3.45D-05 at cycle   4 NSaved=   4.
 NSaved= 4 IEnMin= 4 EnMin= -2048.75064652905     IErMin= 4 ErrMin= 3.45D-05
 ErrMax= 3.45D-05  0.00D+00 EMaxC= 1.00D-01 BMatC= 4.81D-07 BMatP= 9.46D-06
 IDIUse=1 WtCom= 1.00D+00 WtEn= 0.00D+00
 Coeff-Com: -0.311D-01 0.829D-01 0.261D+00 0.687D+00
 Coeff:     -0.311D-01 0.829D-01 0.261D+00 0.687D+00
 Gap=     0.283 Goal=   None    Shift=    0.000
 RMSDP=1.42D-06 MaxDP=1.32D-04 DE=-9.02D-06 OVMax= 5.24D-04

 Cycle  10  Pass 1  IDiag  1:
 RMSU=  1.27D-06    CP:  1.00D+00  1.06D+00  8.02D-01  1.10D+00
 E= -2048.75064734636     Delta-E=       -0.000000817311 Rises=F Damp=F
 DIIS: error= 1.43D-05 at cycle   5 NSaved=   5.
 NSaved= 5 IEnMin= 5 EnMin= -2048.75064734636     IErMin= 5 ErrMin= 1.43D-05
 ErrMax= 1.43D-05  0.00D+00 EMaxC= 1.00D-01 BMatC= 1.19D-07 BMatP= 4.81D-07
 IDIUse=1 WtCom= 1.00D+00 WtEn= 0.00D+00
 Coeff-Com: -0.327D-02-0.562D-01-0.122D+00 0.212D+00 0.970D+00
 Coeff:     -0.327D-02-0.562D-01-0.122D+00 0.212D+00 0.970D+00
 Gap=     0.283 Goal=   None    Shift=    0.000
 RMSDP=1.19D-06 MaxDP=7.60D-05 DE=-8.17D-07 OVMax= 2.57D-04

 Cycle  11  Pass 1  IDiag  1:
 RMSU=  4.93D-07    CP:  1.00D+00  1.06D+00  8.13D-01  1.39D+00  1.17D+00
 E= -2048.75064760171     Delta-E=       -0.000000255352 Rises=F Damp=F
 DIIS: error= 9.97D-06 at cycle   6 NSaved=   6.
 NSaved= 6 IEnMin= 6 EnMin= -2048.75064760171     IErMin= 6 ErrMin= 9.97D-06
 ErrMax= 9.97D-06  0.00D+00 EMaxC= 1.00D-01 BMatC= 2.75D-08 BMatP= 1.19D-07
 IDIUse=1 WtCom= 1.00D+00 WtEn= 0.00D+00
 Coeff-Com:  0.464D-02-0.449D-01-0.115D+00 0.119D-02 0.517D+00 0.638D+00
 Coeff:      0.464D-02-0.449D-01-0.115D+00 0.119D-02 0.517D+00 0.638D+00
 Gap=     0.283 Goal=   None    Shift=    0.000
 RMSDP=3.61D-07 MaxDP=3.66D-05 DE=-2.55D-07 OVMax= 1.36D-04

 Cycle  12  Pass 1  IDiag  1:
 RMSU=  1.81D-07    CP:  1.00D+00  1.06D+00  8.15D-01  1.46D+00  1.29D+00
                    CP:  9.39D-01
 E= -2048.75064764207     Delta-E=       -0.000000040358 Rises=F Damp=F
 DIIS: error= 1.58D-06 at cycle   7 NSaved=   7.
 NSaved= 7 IEnMin= 7 EnMin= -2048.75064764207     IErMin= 7 ErrMin= 1.58D-06
 ErrMax= 1.58D-06  0.00D+00 EMaxC= 1.00D-01 BMatC= 8.15D-10 BMatP= 2.75D-08
 IDIUse=1 WtCom= 1.00D+00 WtEn= 0.00D+00
 Coeff-Com:  0.116D-02-0.756D-02-0.209D-01-0.790D-02 0.591D-01 0.143D+00
 Coeff-Com:  0.833D+00
 Coeff:      0.116D-02-0.756D-02-0.209D-01-0.790D-02 0.591D-01 0.143D+00
 Coeff:      0.833D+00
 Gap=     0.283 Goal=   None    Shift=    0.000
 RMSDP=8.56D-08 MaxDP=5.02D-06 DE=-4.04D-08 OVMax= 2.38D-05

 Cycle  13  Pass 1  IDiag  1:
 RMSU=  5.03D-08    CP:  1.00D+00  1.06D+00  8.14D-01  1.47D+00  1.31D+00
                    CP:  1.03D+00  1.14D+00
 E= -2048.75064764383     Delta-E=       -0.000000001754 Rises=F Damp=F
 DIIS: error= 6.45D-07 at cycle   8 NSaved=   8.
 NSaved= 8 IEnMin= 8 EnMin= -2048.75064764383     IErMin= 8 ErrMin= 6.45D-07
 ErrMax= 6.45D-07  0.00D+00 EMaxC= 1.00D-01 BMatC= 3.29D-10 BMatP= 8.15D-10
 IDIUse=1 WtCom= 1.00D+00 WtEn= 0.00D+00
 Coeff-Com: -0.691D-03 0.855D-02 0.210D-01-0.253D-02-0.112D+00-0.976D-01
 Coeff-Com:  0.424D+00 0.759D+00
 Coeff:     -0.691D-03 0.855D-02 0.210D-01-0.253D-02-0.112D+00-0.976D-01
 Coeff:      0.424D+00 0.759D+00
 Gap=     0.283 Goal=   None    Shift=    0.000
 RMSDP=4.63D-08 MaxDP=2.81D-06 DE=-1.75D-09 OVMax= 1.19D-05

 Cycle  14  Pass 1  IDiag  1:
 RMSU=  2.69D-08    CP:  1.00D+00  1.06D+00  8.14D-01  1.47D+00  1.32D+00
                    CP:  1.07D+00  1.29D+00  1.08D+00
 E= -2048.75064764457     Delta-E=       -0.000000000747 Rises=F Damp=F
 DIIS: error= 2.01D-07 at cycle   9 NSaved=   9.
 NSaved= 9 IEnMin= 9 EnMin= -2048.75064764457     IErMin= 9 ErrMin= 2.01D-07
 ErrMax= 2.01D-07  0.00D+00 EMaxC= 1.00D-01 BMatC= 3.27D-11 BMatP= 3.29D-10
 IDIUse=1 WtCom= 1.00D+00 WtEn= 0.00D+00
 Coeff-Com: -0.430D-03 0.461D-02 0.116D-01-0.183D-04-0.548D-01-0.588D-01
 Coeff-Com:  0.883D-01 0.312D+00 0.698D+00
 Coeff:     -0.430D-03 0.461D-02 0.116D-01-0.183D-04-0.548D-01-0.588D-01
 Coeff:      0.883D-01 0.312D+00 0.698D+00
 Gap=     0.283 Goal=   None    Shift=    0.000
 RMSDP=1.36D-08 MaxDP=8.86D-07 DE=-7.47D-10 OVMax= 3.63D-06

 Cycle  15  Pass 1  IDiag  1:
 RMSU=  9.17D-09    CP:  1.00D+00  1.06D+00  8.14D-01  1.47D+00  1.32D+00
                    CP:  1.08D+00  1.32D+00  1.21D+00  1.11D+00
 E= -2048.75064764446     Delta-E=        0.000000000107 Rises=F Damp=F
 DIIS: error= 6.99D-08 at cycle  10 NSaved=  10.
 NSaved=10 IEnMin= 9 EnMin= -2048.75064764457     IErMin=10 ErrMin= 6.99D-08
 ErrMax= 6.99D-08  0.00D+00 EMaxC= 1.00D-01 BMatC= 5.40D-12 BMatP= 3.27D-11
 IDIUse=1 WtCom= 1.00D+00 WtEn= 0.00D+00
 Coeff-Com: -0.417D-07-0.260D-03-0.538D-03 0.200D-03 0.485D-02 0.697D-03
 Coeff-Com: -0.533D-01-0.546D-01 0.267D+00 0.836D+00
 Coeff:     -0.417D-07-0.260D-03-0.538D-03 0.200D-03 0.485D-02 0.697D-03
 Coeff:     -0.533D-01-0.546D-01 0.267D+00 0.836D+00
 Gap=     0.283 Goal=   None    Shift=    0.000
 RMSDP=6.74D-09 MaxDP=4.01D-07 DE= 1.07D-10 OVMax= 1.51D-06

 SCF Done:  E(RwB97XD) =  -2048.75064764     A.U. after   15 cycles
            NFock= 15  Conv=0.67D-08     -V/T= 2.0054
 KE= 2.037706103962D+03 PE=-1.578428849393D+04 EE= 6.196153473222D+03
 Leave Link  502 at Sun Jan 21 06:50:53 2018, MaxMem=  4294967296 cpu:           21123.2 elap:             686.4
 (Enter /share/apps/g16/l601.exe)
 Copying SCF densities to generalized density rwf, IOpCl= 0 IROHF=0.

 **********************************************************************

            Population analysis using the SCF density.

 **********************************************************************

 Orbital symmetries:
       Occupied  (A) (A) (A) (A) (A) (A) (A) (A) (A) (A) (A) (A)
                 (A) (A) (A) (A) (A) (A) (A) (A) (A) (A) (A) (A)
                 (A) (A) (A) (A) (A) (A) (A) (A) (A) (A) (A) (A)
                 (A) (A) (A) (A) (A) (A) (A) (A) (A) (A) (A) (A)
                 (A) (A) (A) (A) (A) (A) (A) (A) (A) (A) (A) (A)
                 (A) (A) (A) (A) (A) (A) (A) (A) (A) (A) (A) (A)
                 (A) (A) (A) (A) (A) (A) (A) (A) (A) (A) (A) (A)
                 (A) (A) (A) (A) (A) (A) (A) (A) (A) (A) (A) (A)
                 (A) (A) (A) (A) (A) (A) (A) (A) (A) (A) (A) (A)
                 (A) (A) (A) (A) (A) (A) (A) (A) (A) (A) (A) (A)
                 (A) (A) (A) (A) (A) (A) (A) (A) (A) (A) (A) (A)
                 (A) (A) (A) (A) (A) (A) (A) (A) (A) (A) (A) (A)
                 (A) (A) (A) (A) (A) (A) (A) (A) (A) (A)
       Virtual   (A) (A) (A) (A) (A) (A) (A) (A) (A) (A) (A) (A)
                 (A) (A) (A) (A) (A) (A) (A) (A) (A) (A) (A) (A)
                 (A) (A) (A) (A) (A) (A) (A) (A) (A) (A) (A) (A)
                 (A) (A) (A) (A) (A) (A) (A) (A) (A) (A) (A) (A)
                 (A) (A) (A) (A) (A) (A) (A) (A) (A) (A) (A) (A)
                 (A) (A) (A) (A) (A) (A) (A) (A) (A) (A) (A) (A)
                 (A) (A) (A) (A) (A) (A) (A) (A) (A) (A) (A) (A)
                 (A) (A) (A) (A) (A) (A) (A) (A) (A) (A) (A) (A)
                 (A) (A) (A) (A) (A) (A) (A) (A) (A) (A) (A) (A)
                 (A) (A) (A) (A) (A) (A) (A) (A) (A) (A) (A) (A)
                 (A) (A) (A) (A) (A) (A) (A) (A) (A) (A) (A) (A)
                 (A) (A) (A) (A) (A) (A) (A) (A) (A) (A) (A) (A)
                 (A) (A) (A) (A) (A) (A) (A) (A) (A) (A) (A) (A)
                 (A) (A) (A) (A) (A) (A) (A) (A) (A) (A) (A) (A)
                 (A) (A) (A) (A) (A) (A) (A) (A) (A) (A) (A) (A)
                 (A) (A) (A) (A) (A) (A) (A) (A) (A) (A) (A) (A)
                 (A) (A) (A) (A) (A) (A) (A) (A) (A) (A) (A) (A)
                 (A) (A) (A) (A) (A) (A) (A) (A) (A) (A) (A) (A)
                 (A) (A) (A) (A) (A) (A) (A) (A) (A) (A) (A) (A)
                 (A) (A) (A) (A) (A) (A) (A) (A) (A) (A) (A) (A)
                 (A) (A) (A) (A) (A) (A) (A) (A) (A) (A) (A) (A)
                 (A) (A) (A) (A) (A) (A) (A) (A) (A) (A) (A) (A)
                 (A) (A) (A) (A) (A) (A) (A) (A) (A) (A) (A) (A)
                 (A) (A) (A) (A) (A) (A) (A) (A) (A) (A) (A) (A)
                 (A) (A) (A) (A) (A) (A) (A) (A) (A) (A) (A) (A)
                 (A) (A) (A) (A) (A) (A) (A) (A) (A) (A) (A) (A)
                 (A) (A) (A) (A) (A) (A) (A) (A) (A) (A) (A) (A)
                 (A) (A) (A) (A) (A) (A) (A) (A) (A) (A) (A) (A)
                 (A) (A) (A) (A) (A) (A) (A) (A) (A) (A) (A) (A)
                 (A) (A) (A) (A) (A) (A) (A) (A) (A) (A) (A) (A)
                 (A) (A) (A) (A) (A) (A) (A) (A) (A) (A) (A) (A)
                 (A) (A) (A) (A) (A) (A) (A) (A) (A) (A) (A) (A)
                 (A) (A) (A) (A) (A) (A) (A) (A) (A) (A) (A) (A)
                 (A) (A) (A) (A) (A) (A) (A) (A) (A) (A) (A) (A)
                 (A) (A) (A) (A) (A) (A) (A) (A) (A) (A) (A) (A)
                 (A) (A) (A) (A) (A) (A) (A) (A) (A) (A) (A) (A)
                 (A) (A) (A) (A) (A) (A) (A) (A) (A) (A) (A) (A)
                 (A) (A) (A) (A) (A) (A) (A) (A) (A) (A) (A) (A)
                 (A) (A) (A) (A) (A) (A) (A) (A) (A) (A) (A) (A)
                 (A) (A) (A) (A) (A) (A) (A) (A) (A) (A) (A) (A)
                 (A) (A) (A) (A) (A) (A) (A) (A) (A) (A) (A) (A)
                 (A) (A) (A) (A) (A) (A) (A) (A) (A) (A) (A) (A)
                 (A) (A) (A) (A) (A) (A) (A) (A) (A) (A) (A) (A)
                 (A) (A) (A) (A) (A) (A) (A) (A) (A) (A) (A) (A)
                 (A) (A) (A) (A) (A) (A) (A) (A) (A) (A) (A) (A)
                 (A) (A) (A) (A) (A) (A) (A) (A) (A) (A) (A) (A)
                 (A) (A) (A) (A) (A) (A) (A) (A) (A) (A) (A) (A)
                 (A) (A) (A) (A) (A) (A) (A) (A) (A) (A) (A) (A)
                 (A) (A) (A) (A) (A) (A) (A)
 The electronic state is 1-A.
 Alpha  occ. eigenvalues --  -19.25999 -19.22114 -19.20698 -14.52498 -14.51759
 Alpha  occ. eigenvalues --  -14.49002 -14.48695 -14.47946 -14.46963 -14.46697
 Alpha  occ. eigenvalues --  -14.46683 -14.44819 -14.43323 -14.43202 -14.42255
 Alpha  occ. eigenvalues --  -14.42040 -14.41563 -14.41174 -14.40811 -14.40358
 Alpha  occ. eigenvalues --  -10.45607 -10.41238 -10.40303 -10.38842 -10.38264
 Alpha  occ. eigenvalues --  -10.37854 -10.37328 -10.36353 -10.35544 -10.35480
 Alpha  occ. eigenvalues --  -10.34916 -10.34315 -10.34239 -10.33538 -10.33527
 Alpha  occ. eigenvalues --  -10.33293 -10.33277 -10.31736 -10.31279 -10.31054
 Alpha  occ. eigenvalues --  -10.30648 -10.28668 -10.28082  -1.19558  -1.14442
 Alpha  occ. eigenvalues --   -1.13245  -1.13228  -1.11550  -1.10557  -1.09385
 Alpha  occ. eigenvalues --   -1.08592  -1.08191  -1.05160  -1.03731  -1.02629
 Alpha  occ. eigenvalues --   -1.00565  -1.00210  -0.99771  -0.98554  -0.97137
 Alpha  occ. eigenvalues --   -0.96514  -0.95779  -0.92809  -0.91084  -0.86858
 Alpha  occ. eigenvalues --   -0.85279  -0.84157  -0.84043  -0.83804  -0.82526
 Alpha  occ. eigenvalues --   -0.82374  -0.78933  -0.76134  -0.74600  -0.73907
 Alpha  occ. eigenvalues --   -0.73677  -0.73461  -0.73057  -0.71228  -0.69496
 Alpha  occ. eigenvalues --   -0.67393  -0.66639  -0.66455  -0.65834  -0.64529
 Alpha  occ. eigenvalues --   -0.63773  -0.63334  -0.62835  -0.62689  -0.61748
 Alpha  occ. eigenvalues --   -0.60386  -0.60322  -0.59630  -0.59541  -0.58726
 Alpha  occ. eigenvalues --   -0.58698  -0.58388  -0.56778  -0.56697  -0.56412
 Alpha  occ. eigenvalues --   -0.56063  -0.55528  -0.54663  -0.54595  -0.54446
 Alpha  occ. eigenvalues --   -0.53664  -0.53576  -0.52931  -0.52855  -0.52728
 Alpha  occ. eigenvalues --   -0.52609  -0.52007  -0.51970  -0.51010  -0.50396
 Alpha  occ. eigenvalues --   -0.50174  -0.49563  -0.49412  -0.49253  -0.48882
 Alpha  occ. eigenvalues --   -0.48772  -0.48338  -0.47860  -0.47549  -0.47447
 Alpha  occ. eigenvalues --   -0.47137  -0.45512  -0.45151  -0.44050  -0.43659
 Alpha  occ. eigenvalues --   -0.41359  -0.39927  -0.39548  -0.37353  -0.37279
 Alpha  occ. eigenvalues --   -0.37250  -0.36861  -0.36692  -0.35978  -0.34182
 Alpha  occ. eigenvalues --   -0.34049  -0.33642  -0.33588  -0.33398  -0.33265
 Alpha  occ. eigenvalues --   -0.32711  -0.32312  -0.32076  -0.31874  -0.31144
 Alpha  occ. eigenvalues --   -0.30576  -0.28907  -0.25909  -0.25396
 Alpha virt. eigenvalues --    0.02891   0.04940   0.07668   0.07886   0.08619
 Alpha virt. eigenvalues --    0.09033   0.09736   0.10781   0.10863   0.11654
 Alpha virt. eigenvalues --    0.13067   0.13945   0.14591   0.14628   0.15489
 Alpha virt. eigenvalues --    0.15527   0.16337   0.16780   0.17432   0.18436
 Alpha virt. eigenvalues --    0.18820   0.19310   0.19853   0.20217   0.20276
 Alpha virt. eigenvalues --    0.20699   0.21088   0.21194   0.21475   0.22244
 Alpha virt. eigenvalues --    0.22877   0.23197   0.23277   0.23727   0.23765
 Alpha virt. eigenvalues --    0.23900   0.24112   0.24443   0.24772   0.25311
 Alpha virt. eigenvalues --    0.25900   0.26183   0.26740   0.27332   0.28076
 Alpha virt. eigenvalues --    0.28746   0.29133   0.29824   0.30257   0.30854
 Alpha virt. eigenvalues --    0.31243   0.31856   0.32512   0.32831   0.33729
 Alpha virt. eigenvalues --    0.33782   0.34213   0.34816   0.35964   0.36350
 Alpha virt. eigenvalues --    0.36666   0.37571   0.37832   0.39115   0.39363
 Alpha virt. eigenvalues --    0.40067   0.40475   0.41236   0.41583   0.41817
 Alpha virt. eigenvalues --    0.42060   0.42584   0.42903   0.44300   0.44467
 Alpha virt. eigenvalues --    0.44727   0.45243   0.45994   0.46560   0.46726
 Alpha virt. eigenvalues --    0.47417   0.47914   0.48546   0.49078   0.49649
 Alpha virt. eigenvalues --    0.50004   0.50222   0.50401   0.50732   0.51097
 Alpha virt. eigenvalues --    0.51636   0.51843   0.52011   0.53253   0.53465
 Alpha virt. eigenvalues --    0.53727   0.54266   0.54501   0.54772   0.55200
 Alpha virt. eigenvalues --    0.55704   0.55818   0.56129   0.56641   0.57056
 Alpha virt. eigenvalues --    0.57620   0.57861   0.58700   0.59092   0.59949
 Alpha virt. eigenvalues --    0.60260   0.60583   0.60828   0.61150   0.61536
 Alpha virt. eigenvalues --    0.61584   0.62140   0.62665   0.63075   0.63816
 Alpha virt. eigenvalues --    0.64160   0.64463   0.64610   0.65176   0.65285
 Alpha virt. eigenvalues --    0.66046   0.66190   0.66469   0.66880   0.67254
 Alpha virt. eigenvalues --    0.67737   0.68205   0.68370   0.68741   0.69457
 Alpha virt. eigenvalues --    0.70038   0.70512   0.71274   0.71865   0.72298
 Alpha virt. eigenvalues --    0.72504   0.72710   0.73288   0.73392   0.73645
 Alpha virt. eigenvalues --    0.73944   0.74431   0.74487   0.75107   0.75303
 Alpha virt. eigenvalues --    0.75898   0.75983   0.76429   0.76737   0.76892
 Alpha virt. eigenvalues --    0.77427   0.77858   0.78300   0.78809   0.78855
 Alpha virt. eigenvalues --    0.79105   0.79503   0.79803   0.80407   0.80883
 Alpha virt. eigenvalues --    0.81025   0.81916   0.82087   0.83042   0.83297
 Alpha virt. eigenvalues --    0.83818   0.84099   0.84374   0.85039   0.85308
 Alpha virt. eigenvalues --    0.85966   0.86298   0.86761   0.87391   0.88111
 Alpha virt. eigenvalues --    0.88195   0.88497   0.88698   0.89684   0.89735
 Alpha virt. eigenvalues --    0.90053   0.90484   0.91038   0.91656   0.92127
 Alpha virt. eigenvalues --    0.93054   0.93220   0.93695   0.94072   0.94702
 Alpha virt. eigenvalues --    0.94867   0.95345   0.95721   0.95897   0.96084
 Alpha virt. eigenvalues --    0.96693   0.97386   0.97457   0.98004   0.98152
 Alpha virt. eigenvalues --    0.98816   0.99625   0.99855   1.00224   1.00697
 Alpha virt. eigenvalues --    1.01186   1.01605   1.02606   1.02661   1.02899
 Alpha virt. eigenvalues --    1.03902   1.04002   1.04521   1.04793   1.05168
 Alpha virt. eigenvalues --    1.05653   1.05947   1.06782   1.07269   1.07654
 Alpha virt. eigenvalues --    1.07857   1.08639   1.09823   1.10256   1.10582
 Alpha virt. eigenvalues --    1.11288   1.12443   1.12815   1.13044   1.13615
 Alpha virt. eigenvalues --    1.14122   1.14193   1.14593   1.15490   1.15599
 Alpha virt. eigenvalues --    1.16251   1.16435   1.16564   1.17846   1.17979
 Alpha virt. eigenvalues --    1.18909   1.19049   1.19491   1.19826   1.20013
 Alpha virt. eigenvalues --    1.20549   1.20818   1.21097   1.21496   1.22170
 Alpha virt. eigenvalues --    1.22307   1.22638   1.22907   1.23194   1.23485
 Alpha virt. eigenvalues --    1.23581   1.24111   1.24233   1.24871   1.25355
 Alpha virt. eigenvalues --    1.25632   1.26476   1.26905   1.27338   1.27540
 Alpha virt. eigenvalues --    1.29096   1.29472   1.29890   1.30264   1.30981
 Alpha virt. eigenvalues --    1.31635   1.32183   1.32602   1.33111   1.33842
 Alpha virt. eigenvalues --    1.34409   1.34531   1.36162   1.36442   1.37400
 Alpha virt. eigenvalues --    1.37637   1.38036   1.39006   1.39437   1.40019
 Alpha virt. eigenvalues --    1.40950   1.41950   1.42148   1.42888   1.43789
 Alpha virt. eigenvalues --    1.44789   1.45124   1.46703   1.47175   1.48106
 Alpha virt. eigenvalues --    1.48673   1.49321   1.49629   1.50038   1.50587
 Alpha virt. eigenvalues --    1.51204   1.52522   1.53061   1.53610   1.53659
 Alpha virt. eigenvalues --    1.54817   1.55493   1.55794   1.56411   1.57586
 Alpha virt. eigenvalues --    1.58386   1.58699   1.59771   1.60152   1.60566
 Alpha virt. eigenvalues --    1.61761   1.62140   1.62339   1.62918   1.63400
 Alpha virt. eigenvalues --    1.63950   1.64137   1.66098   1.66698   1.66897
 Alpha virt. eigenvalues --    1.67165   1.67759   1.68071   1.68709   1.68998
 Alpha virt. eigenvalues --    1.69629   1.70331   1.71049   1.71351   1.71511
 Alpha virt. eigenvalues --    1.72221   1.72390   1.73060   1.73656   1.74231
 Alpha virt. eigenvalues --    1.74445   1.74538   1.74919   1.75123   1.75391
 Alpha virt. eigenvalues --    1.75511   1.75931   1.76570   1.76746   1.77433
 Alpha virt. eigenvalues --    1.77540   1.78196   1.78273   1.78627   1.78983
 Alpha virt. eigenvalues --    1.79720   1.79808   1.79967   1.80084   1.80173
 Alpha virt. eigenvalues --    1.80913   1.81440   1.81490   1.81670   1.82367
 Alpha virt. eigenvalues --    1.82706   1.83282   1.83740   1.84245   1.84576
 Alpha virt. eigenvalues --    1.85645   1.86189   1.86637   1.86836   1.87115
 Alpha virt. eigenvalues --    1.87300   1.87641   1.88255   1.89048   1.89460
 Alpha virt. eigenvalues --    1.89823   1.90334   1.90593   1.91544   1.91995
 Alpha virt. eigenvalues --    1.92267   1.92415   1.93133   1.93449   1.93799
 Alpha virt. eigenvalues --    1.94338   1.95395   1.96263   1.97050   1.97926
 Alpha virt. eigenvalues --    1.98737   1.99532   2.00353   2.00866   2.01448
 Alpha virt. eigenvalues --    2.01922   2.02340   2.02979   2.03582   2.03932
 Alpha virt. eigenvalues --    2.04225   2.05306   2.05641   2.06913   2.07544
 Alpha virt. eigenvalues --    2.07861   2.08371   2.08634   2.08986   2.09456
 Alpha virt. eigenvalues --    2.10156   2.11279   2.11658   2.12178   2.13425
 Alpha virt. eigenvalues --    2.13879   2.14147   2.16351   2.17543   2.18002
 Alpha virt. eigenvalues --    2.18417   2.19695   2.20074   2.20940   2.21491
 Alpha virt. eigenvalues --    2.21980   2.22252   2.22937   2.23308   2.23915
 Alpha virt. eigenvalues --    2.24589   2.25037   2.25466   2.26636   2.26995
 Alpha virt. eigenvalues --    2.27521   2.27854   2.28293   2.29410   2.29519
 Alpha virt. eigenvalues --    2.30351   2.30817   2.31067   2.32013   2.32801
 Alpha virt. eigenvalues --    2.33184   2.33462   2.33621   2.34226   2.34549
 Alpha virt. eigenvalues --    2.34986   2.35421   2.35715   2.36842   2.37810
 Alpha virt. eigenvalues --    2.37833   2.39158   2.40500   2.40735   2.41678
 Alpha virt. eigenvalues --    2.41793   2.42735   2.43224   2.43388   2.43905
 Alpha virt. eigenvalues --    2.45240   2.45734   2.45988   2.46424   2.46782
 Alpha virt. eigenvalues --    2.47575   2.49170   2.50024   2.50219   2.51492
 Alpha virt. eigenvalues --    2.51726   2.54381   2.54538   2.55163   2.55837
 Alpha virt. eigenvalues --    2.56154   2.57457   2.58036   2.59371   2.60002
 Alpha virt. eigenvalues --    2.61323   2.62020   2.62211   2.62378   2.63008
 Alpha virt. eigenvalues --    2.63984   2.65028   2.65300   2.65895   2.66025
 Alpha virt. eigenvalues --    2.66779   2.67809   2.68439   2.68798   2.69063
 Alpha virt. eigenvalues --    2.70095   2.71044   2.71223   2.71979   2.72754
 Alpha virt. eigenvalues --    2.73271   2.74046   2.74983   2.75471   2.76312
 Alpha virt. eigenvalues --    2.77309   2.77681   2.78934   2.79350   2.79682
 Alpha virt. eigenvalues --    2.79861   2.79992   2.80336   2.81362   2.81631
 Alpha virt. eigenvalues --    2.82291   2.82456   2.82583   2.83339   2.84053
 Alpha virt. eigenvalues --    2.84681   2.84858   2.86298   2.86702   2.87031
 Alpha virt. eigenvalues --    2.87572   2.88386   2.88800   2.91716   2.93108
 Alpha virt. eigenvalues --    2.94255   2.95913   2.96709   2.97257   2.99303
 Alpha virt. eigenvalues --    2.99632   3.00487   3.01494   3.04804   3.06108
 Alpha virt. eigenvalues --    3.06606   3.09967   3.11833   3.13239   3.15004
 Alpha virt. eigenvalues --    3.15295   3.15783   3.16467   3.18462   3.19973
 Alpha virt. eigenvalues --    3.22283   3.23250   3.23697   3.23846   3.26570
 Alpha virt. eigenvalues --    3.45668   3.47123   3.47864   3.49769   3.50300
 Alpha virt. eigenvalues --    3.53342   3.54852   3.56204   3.57760   3.59956
 Alpha virt. eigenvalues --    3.62930   3.70497   3.74764
          Condensed to atoms (all electrons):
 Mulliken charges:
               1
     1  N   -0.311461
     2  C    0.180308
     3  C    0.053958
     4  N   -0.255188
     5  C    0.130664
     6  H    0.026533
     7  N   -0.288163
     8  C    0.132499
     9  H    0.012818
    10  N   -0.291533
    11  C    0.229916
    12  C    0.105244
    13  N   -0.045190
    14  H    0.110810
    15  H    0.091251
    16  H    0.026858
    17  H    0.033401
    18  H    0.023699
    19  N   -0.307391
    20  C    0.255622
    21  C    0.179898
    22  N   -0.116373
    23  H    0.112642
    24  H    0.116764
    25  N   -0.308194
    26  C    0.240227
    27  N   -0.141624
    28  H    0.118471
    29  C    0.171814
    30  O   -0.323810
    31  C   -0.003757
    32  N   -0.224320
    33  C    0.129115
    34  H    0.023801
    35  H    0.031356
    36  H    0.027753
    37  H    0.022469
    38  H    0.052984
    39  H    0.062046
    40  H    0.072154
    41  H    0.027632
    42  C   -0.113101
    43  O   -0.278218
    44  C    0.159114
    45  H    0.136516
    46  N   -0.122924
    47  O   -0.346120
    48  C    0.349416
    49  H    0.047079
    50  C    0.189178
    51  C    0.041496
    52  N   -0.283249
    53  H    0.033175
    54  H    0.040196
    55  H    0.021965
    56  H    0.127218
    57  H    0.115583
    58  N   -0.045395
    59  C    0.102095
    60  C    0.248847
    61  N   -0.275212
    62  H    0.036151
    63  C    0.163969
    64  N   -0.302270
    65  H    0.033023
    66  C    0.120348
    67  N   -0.255685
    68  C   -0.000106
    69  C    0.180091
    70  N   -0.308882
 Sum of Mulliken charges =  -0.00000
 Mulliken charges with hydrogens summed into heavy atoms:
               1
     1  N   -0.311461
     2  C    0.264265
     3  C    0.053958
     4  N   -0.255188
     5  C    0.157197
     7  N   -0.288163
     8  C    0.145316
    10  N   -0.291533
    11  C    0.229916
    12  C    0.105244
    13  N    0.156871
    19  N   -0.307391
    20  C    0.255622
    21  C    0.261476
    22  N    0.113034
    25  N   -0.308194
    26  C    0.240227
    27  N   -0.023153
    29  C    0.171814
    30  O   -0.323810
    31  C   -0.003757
    32  N   -0.224320
    33  C    0.152915
    42  C   -0.085469
    43  O   -0.278218
    44  C    0.159114
    46  N    0.013592
    47  O   -0.346120
    48  C    0.349416
    50  C    0.236258
    51  C    0.228680
    52  N   -0.283249
    58  N    0.197407
    59  C    0.102095
    60  C    0.248847
    61  N   -0.275212
    63  C    0.200120
    64  N   -0.302270
    66  C    0.153371
    67  N   -0.255685
    68  C   -0.000106
    69  C    0.275427
    70  N   -0.308882
 Electronic spatial extent (au):  <R**2>=          22745.6211
 Charge=             -0.0000 electrons
 Dipole moment (field-independent basis, Debye):
    X=              6.8283    Y=              6.2916    Z=              2.8950  Tot=              9.7257
 Quadrupole moment (field-independent basis, Debye-Ang):
   XX=           -144.5934   YY=           -224.1569   ZZ=           -255.1216
   XY=              7.9440   XZ=             10.1963   YZ=             -3.3619
 Traceless Quadrupole moment (field-independent basis, Debye-Ang):
   XX=             63.3639   YY=            -16.1996   ZZ=            -47.1643
   XY=              7.9440   XZ=             10.1963   YZ=             -3.3619
 Octapole moment (field-independent basis, Debye-Ang**2):
  XXX=            -29.2317  YYY=             82.2232  ZZZ=             32.4493  XYY=             38.0402
  XXY=             45.5168  XXZ=            -38.7787  XZZ=             59.3190  YZZ=             54.0617
  YYZ=             38.0111  XYZ=             51.6687
 Hexadecapole moment (field-independent basis, Debye-Ang**3):
 XXXX=         -15558.6580 YYYY=          -4702.1206 ZZZZ=          -3683.7162 XXXY=            504.2371
 XXXZ=             87.2633 YYYX=            -37.1209 YYYZ=             -7.0866 ZZZX=            152.0633
 ZZZY=             56.1865 XXYY=          -3946.7029 XXZZ=          -3988.4465 YYZZ=          -1512.3015
 XXYZ=            108.0964 YYXZ=            135.8695 ZZXY=            130.6153
 N-N= 5.501678269099D+03 E-N=-1.578428849597D+04  KE= 2.037706103962D+03
 No NMR shielding tensors so no spin-rotation constants.
 Leave Link  601 at Sun Jan 21 06:50:55 2018, MaxMem=  4294967296 cpu:              45.9 elap:               1.6
 (Enter /share/apps/g16/l9999.exe)
 1\1\GINC-COMPUTE-0-3\SP\RwB97XD\CC-pVDZ\C23H27N17O3\SATYA\21-Jan-2018\
 0\\#p wb97xd/cc-pvdz sp scf=(maxcycles=20)\\Base pair stacking\\0,1\N,
 0,6.23604,5.39778,-5.67779\C,0,6.76514,6.76277,-5.86448\C,0,4.92819,3.
 62958,-5.65989\N,0,6.13689,3.22383,-5.11296\C,0,6.87645,4.30535,-5.145
 63\H,0,7.906,4.36335,-4.79125\N,0,2.71019,3.64424,-6.4619\C,0,2.90337,
 4.93566,-6.74912\H,0,2.05097,5.44509,-7.19651\N,0,3.98633,5.68874,-6.5
 6753\C,0,4.97419,4.96707,-6.01279\C,0,3.72338,2.94581,-5.90447\N,0,3.5
 3247,1.65659,-5.61703\H,0,4.25471,1.10093,-5.20371\H,0,2.6615,1.20245,
 -5.80493\H,0,7.56464,6.73265,-6.46454\H,0,6.06139,7.34029,-6.27719\H,0
 ,7.02957,7.14405,-4.97865\N,0,1.74916,5.74647,-3.24321\C,0,0.83336,4.7
 2739,-3.34738\C,0,1.45939,7.1793,-3.45232\N,0,-2.40873,3.64901,-3.97\H
 ,0,-2.90571,2.78205,-3.99503\H,0,-2.93169,4.47775,-4.17105\N,0,-0.4745
 5,4.86268,-3.65579\C,0,-1.09981,3.69904,-3.67996\N,0,-0.49251,2.49395,
 -3.42213\H,0,-1.04898,1.65395,-3.46327\C,0,0.85186,2.33109,-3.10274\O,
 0,1.3009,1.19843,-2.88785\C,0,1.53667,3.57247,-3.07294\N,0,2.86723,3.8
 6069,-2.80193\C,0,2.94634,5.15888,-2.91437\H,0,3.85704,5.74054,-2.7674
 5\H,0,2.02132,7.52889,-4.2012\H,0,0.4934,7.29185,-3.68137\H,0,1.66415,
 7.68789,-2.61672\H,0,-4.21073,-2.20197,-4.45722\H,0,-4.39804,-2.227,-2
 .70538\H,0,-4.0826,-0.70321,-3.536\H,0,-0.15706,-4.45073,-3.16982\C,0,
 -0.56671,-3.441,-3.19919\O,0,1.54159,-2.38066,-2.95863\C,0,0.31907,-2.
 32253,-3.08851\H,0,0.29136,-0.27635,-3.06224\N,0,-0.30183,-1.09073,-3.
 1373\O,0,-2.10175,0.28319,-3.31011\C,0,-1.64496,-0.84594,-3.27741\H,0,
 -2.5973,-4.05054,-3.42501\C,0,-1.8816,-3.23424,-3.33683\C,0,-3.87608,-
 1.76313,-3.52906\N,0,-2.43385,-1.975,-3.37788\H,0,-4.33738,0.56912,-8.
 34809\H,0,-3.72955,1.70893,-7.35135\H,0,-4.80299,0.61774,-6.78468\H,0,
 2.11651,-1.73395,-5.5005\H,0,0.82943,-2.79755,-5.85019\N,0,1.16431,-1.
 85724,-5.78026\C,0,0.37532,-0.81476,-6.04839\C,0,-1.6599,0.23895,-6.68
 814\N,0,-1.18316,1.49062,-6.58582\H,0,0.55933,2.45273,-6.09725\C,0,0.0
 9269,1.47454,-6.20523\N,0,0.88465,0.43147,-5.9362\H,0,-3.82503,-2.0930
 8,-7.25915\C,0,-2.93301,-1.51688,-7.01169\N,0,-1.78506,-2.03779,-6.653
 18\C,0,-0.96894,-0.93536,-6.44503\C,0,-4.03826,0.76024,-7.41321\N,0,-2
 .92859,-0.14395,-7.05394\\Version=EM64L-G16RevA.03\State=1-A\HF=-2048.
 7506476\RMSD=6.743e-09\Dipole=-3.7525919,-0.1271766,-0.7370511\Quadrup
 ole=23.097791,11.3468379,-34.4446289,30.3925375,-0.9890291,6.8222857\P
 G=C01 [X(C23H27N17O3)]\\@


 ABSOLUTISM, OBSOLETISM -- IF IT WORKS, IT'S OUT OF DATE

                          -- STAFFORD BEER
 Job cpu time:       0 days  6 hours  2 minutes 14.2 seconds.
 Elapsed time:       0 days  0 hours 11 minutes 45.9 seconds.
 File lengths (MBytes):  RWF=    298 Int=      0 D2E=      0 Chk=     33 Scr=      1
 Normal termination of Gaussian 16 at Sun Jan 21 06:50:55 2018.
