 Entering Gaussian System, Link 0=g16
 Input=str30.0.-2.0.com
 Output=str30.0.-2.0.log
 Initial command:
 /share/apps/g16/l1.exe "/state/partition1/scr/Gau-9223.inp" -scrdir="/state/partition1/scr/"
 Entering Link 1 = /share/apps/g16/l1.exe PID=      9224.
  
 Copyright (c) 1988,1990,1992,1993,1995,1998,2003,2009,2016,
            Gaussian, Inc.  All Rights Reserved.
  
 This is part of the Gaussian(R) 16 program.  It is based on
 the Gaussian(R) 09 system (copyright 2009, Gaussian, Inc.),
 the Gaussian(R) 03 system (copyright 2003, Gaussian, Inc.),
 the Gaussian(R) 98 system (copyright 1998, Gaussian, Inc.),
 the Gaussian(R) 94 system (copyright 1995, Gaussian, Inc.),
 the Gaussian 92(TM) system (copyright 1992, Gaussian, Inc.),
 the Gaussian 90(TM) system (copyright 1990, Gaussian, Inc.),
 the Gaussian 88(TM) system (copyright 1988, Gaussian, Inc.),
 the Gaussian 86(TM) system (copyright 1986, Carnegie Mellon
 University), and the Gaussian 82(TM) system (copyright 1983,
 Carnegie Mellon University). Gaussian is a federally registered
 trademark of Gaussian, Inc.
  
 This software contains proprietary and confidential information,
 including trade secrets, belonging to Gaussian, Inc.
  
 This software is provided under written license and may be
 used, copied, transmitted, or stored only in accord with that
 written license.
  
 The following legend is applicable only to US Government
 contracts under FAR:
  
                    RESTRICTED RIGHTS LEGEND
  
 Use, reproduction and disclosure by the US Government is
 subject to restrictions as set forth in subparagraphs (a)
 and (c) of the Commercial Computer Software - Restricted
 Rights clause in FAR 52.227-19.
  
 Gaussian, Inc.
 340 Quinnipiac St., Bldg. 40, Wallingford CT 06492
  
  
 ---------------------------------------------------------------
 Warning -- This program may not be used in any manner that
 competes with the business of Gaussian, Inc. or will provide
 assistance to any competitor of Gaussian, Inc.  The licensee
 of this program is prohibited from giving any competitor of
 Gaussian, Inc. access to this program.  By using this program,
 the user acknowledges that Gaussian, Inc. is engaged in the
 business of creating and licensing software in the field of
 computational chemistry and represents and warrants to the
 licensee that it is not a competitor of Gaussian, Inc. and that
 it will not use this program in any manner prohibited above.
 ---------------------------------------------------------------
  

 Cite this work as:
 Gaussian 16, Revision A.03,
 M. J. Frisch, G. W. Trucks, H. B. Schlegel, G. E. Scuseria, 
 M. A. Robb, J. R. Cheeseman, G. Scalmani, V. Barone, 
 G. A. Petersson, H. Nakatsuji, X. Li, M. Caricato, A. V. Marenich, 
 J. Bloino, B. G. Janesko, R. Gomperts, B. Mennucci, H. P. Hratchian, 
 J. V. Ortiz, A. F. Izmaylov, J. L. Sonnenberg, D. Williams-Young, 
 F. Ding, F. Lipparini, F. Egidi, J. Goings, B. Peng, A. Petrone, 
 T. Henderson, D. Ranasinghe, V. G. Zakrzewski, J. Gao, N. Rega, 
 G. Zheng, W. Liang, M. Hada, M. Ehara, K. Toyota, R. Fukuda, 
 J. Hasegawa, M. Ishida, T. Nakajima, Y. Honda, O. Kitao, H. Nakai, 
 T. Vreven, K. Throssell, J. A. Montgomery, Jr., J. E. Peralta, 
 F. Ogliaro, M. J. Bearpark, J. J. Heyd, E. N. Brothers, K. N. Kudin, 
 V. N. Staroverov, T. A. Keith, R. Kobayashi, J. Normand, 
 K. Raghavachari, A. P. Rendell, J. C. Burant, S. S. Iyengar, 
 J. Tomasi, M. Cossi, J. M. Millam, M. Klene, C. Adamo, R. Cammi, 
 J. W. Ochterski, R. L. Martin, K. Morokuma, O. Farkas, 
 J. B. Foresman, and D. J. Fox, Gaussian, Inc., Wallingford CT, 2016.
 
 ******************************************
 Gaussian 16:  EM64L-G16RevA.03 25-Dec-2016
                21-Jan-2018 
 ******************************************
 %nprocshared=32
 Will use up to   32 processors via shared memory.
 %mem=32GB
 %chk=allatoms_t.chk
 ---------------------------------------
 #p wb97xd/cc-pvdz sp scf=(maxcycles=20)
 ---------------------------------------
 1/38=1,172=1/1;
 2/12=2,17=6,18=5,40=1/2;
 3/5=16,11=2,25=1,30=1,74=-58/1,2,3;
 4//1;
 5/5=2,7=20,38=5/2;
 6/7=2,8=2,9=2,10=2,28=1/1;
 99/5=1,9=1/99;
 Leave Link    1 at Sun Jan 21 04:16:22 2018, MaxMem=  4294967296 cpu:               2.7 elap:               0.1
 (Enter /share/apps/g16/l101.exe)
 ------------------
 Base pair stacking
 ------------------
 Symbolic Z-matrix:
 Charge =  0 Multiplicity = 1
 N                     6.18783   7.37628  -6.47105 
 C                     6.66059   8.77054  -6.57363 
 C                     4.9153    5.58479  -6.37851 
 N                     6.22341   5.13822  -6.25948 
 C                     6.9377    6.2354   -6.32 
 H                     8.0258    6.27096  -6.25909 
 N                     2.56215   5.65205  -6.52372 
 C                     2.68342   6.97839  -6.6407 
 H                     1.74646   7.52342  -6.74702 
 N                     3.78316   7.72902  -6.64603 
 C                     4.87751   6.96207  -6.50964 
 C                     3.68185   4.90845  -6.38803 
 N                     3.56284   3.58431  -6.27112 
 H                     4.36475   2.99469  -6.1686 
 H                     2.66857   3.13677  -6.28203 
 H                     7.26148   8.86263  -7.36775 
 H                     5.87687   9.38226  -6.67715 
 H                     7.16528   9.01534  -5.74576 
 N                     1.70728   6.72335  -3.26456 
 C                     0.78503   5.70477  -3.26328 
 C                     1.38981   8.1623   -3.36129 
 N                    -2.5169    4.63674  -3.39872 
 H                    -3.01279   3.76899  -3.38065 
 H                    -3.06417   5.47055  -3.47605 
 N                    -0.55535   5.84618  -3.34948 
 C                    -1.17818   4.68128  -3.32272 
 N                    -0.53912   3.46949  -3.21948 
 H                    -1.09628   2.62904  -3.20649 
 C                     0.83898   3.30027  -3.12957 
 O                     1.31505   2.16183  -3.03986 
 C                     1.52161   4.5429   -3.15705 
 N                     2.87898   4.82635  -3.09292 
 C                     2.94097   6.1286   -3.16 
 H                     3.86439   6.7083   -3.13738 
 H                     1.82347   8.54702  -4.17537 
 H                     0.39965   8.2794   -3.42565 
 H                     1.72817   8.63535  -2.54855 
 H                    -4.38372  -1.19738  -3.84208 
 H                    -4.28457  -1.29923  -2.08582 
 H                    -4.10545   0.26078  -2.88935 
 H                    -0.17868  -3.47768  -3.32784 
 C                    -0.586    -2.46986  -3.2464 
 O                     1.53516  -1.40949  -3.30466 
 C                     0.30786  -1.35244  -3.23206 
 H                     0.28815   0.69051  -3.11248 
 N                    -0.31071  -0.12307  -3.12585 
 O                    -2.11255   1.24723  -2.94466 
 C                    -1.65838   0.12024  -3.03565 
 H                    -2.62734  -3.08009  -3.16654 
 C                    -1.90546  -2.2645   -3.16 
 C                    -3.90228  -0.79731  -2.96218 
 N                    -2.45498  -1.00768  -3.05609 
 H                    -4.76841   2.68034  -6.86174 
 H                    -3.89395   3.66758  -5.90113 
 H                    -4.78072   2.4651   -5.24405 
 H                     2.19439   0.17265  -6.31721 
 H                     0.84815  -0.86462  -6.46493 
 N                     1.20054   0.06342  -6.33931 
 C                     0.3807    1.10821  -6.20724 
 C                    -1.73933   2.18123  -6.08142 
 N                    -1.23793   3.41613  -5.91402 
 H                     0.58312   4.34649  -5.77681 
 C                     0.09314   3.38269  -5.90822 
 N                     0.91608   2.33728  -6.04035 
 H                    -4.0057   -0.10207  -6.40123 
 C                    -3.0732    0.45719  -6.32 
 N                    -1.87718  -0.07521  -6.38132 
 C                    -1.02219   1.00703  -6.23142 
 C                    -4.21906   2.73088  -6.02768 
 N                    -3.06421   1.81885  -6.1396 
 
 ITRead=  0  0  0  0  0  0  0  0  0  0  0  0  0  0  0  0  0  0  0  0
 ITRead=  0  0  0  0  0  0  0  0  0  0  0  0  0  0  0  0  0  0  0  0
 ITRead=  0  0  0  0  0  0  0  0  0  0  0  0  0  0  0  0  0  0  0  0
 ITRead=  0  0  0  0  0  0  0  0  0  0
 MicOpt= -1 -1 -1 -1 -1 -1 -1 -1 -1 -1 -1 -1 -1 -1 -1 -1 -1 -1 -1 -1
 MicOpt= -1 -1 -1 -1 -1 -1 -1 -1 -1 -1 -1 -1 -1 -1 -1 -1 -1 -1 -1 -1
 MicOpt= -1 -1 -1 -1 -1 -1 -1 -1 -1 -1 -1 -1 -1 -1 -1 -1 -1 -1 -1 -1
 MicOpt= -1 -1 -1 -1 -1 -1 -1 -1 -1 -1
 NAtoms=     70 NQM=       70 NQMF=       0 NMMI=      0 NMMIF=      0
                NMic=       0 NMicF=      0.
                    Isotopes and Nuclear Properties:
 (Nuclear quadrupole moments (NQMom) in fm**2, nuclear magnetic moments (NMagM)
  in nuclear magnetons)

  Atom         1           2           3           4           5           6           7           8           9          10
 IAtWgt=          14          12          12          14          12           1          14          12           1          14
 AtmWgt=  14.0030740  12.0000000  12.0000000  14.0030740  12.0000000   1.0078250  14.0030740  12.0000000   1.0078250  14.0030740
 NucSpn=           2           0           0           2           0           1           2           0           1           2
 AtZEff=  -0.0000000  -0.0000000  -0.0000000  -0.0000000  -0.0000000  -0.0000000  -0.0000000  -0.0000000  -0.0000000  -0.0000000
 NQMom=    2.0440000   0.0000000   0.0000000   2.0440000   0.0000000   0.0000000   2.0440000   0.0000000   0.0000000   2.0440000
 NMagM=    0.4037610   0.0000000   0.0000000   0.4037610   0.0000000   2.7928460   0.4037610   0.0000000   2.7928460   0.4037610
 AtZNuc=   7.0000000   6.0000000   6.0000000   7.0000000   6.0000000   1.0000000   7.0000000   6.0000000   1.0000000   7.0000000

  Atom        11          12          13          14          15          16          17          18          19          20
 IAtWgt=          12          12          14           1           1           1           1           1          14          12
 AtmWgt=  12.0000000  12.0000000  14.0030740   1.0078250   1.0078250   1.0078250   1.0078250   1.0078250  14.0030740  12.0000000
 NucSpn=           0           0           2           1           1           1           1           1           2           0
 AtZEff=  -0.0000000  -0.0000000  -0.0000000  -0.0000000  -0.0000000  -0.0000000  -0.0000000  -0.0000000  -0.0000000  -0.0000000
 NQMom=    0.0000000   0.0000000   2.0440000   0.0000000   0.0000000   0.0000000   0.0000000   0.0000000   2.0440000   0.0000000
 NMagM=    0.0000000   0.0000000   0.4037610   2.7928460   2.7928460   2.7928460   2.7928460   2.7928460   0.4037610   0.0000000
 AtZNuc=   6.0000000   6.0000000   7.0000000   1.0000000   1.0000000   1.0000000   1.0000000   1.0000000   7.0000000   6.0000000

  Atom        21          22          23          24          25          26          27          28          29          30
 IAtWgt=          12          14           1           1          14          12          14           1          12          16
 AtmWgt=  12.0000000  14.0030740   1.0078250   1.0078250  14.0030740  12.0000000  14.0030740   1.0078250  12.0000000  15.9949146
 NucSpn=           0           2           1           1           2           0           2           1           0           0
 AtZEff=  -0.0000000  -0.0000000  -0.0000000  -0.0000000  -0.0000000  -0.0000000  -0.0000000  -0.0000000  -0.0000000  -0.0000000
 NQMom=    0.0000000   2.0440000   0.0000000   0.0000000   2.0440000   0.0000000   2.0440000   0.0000000   0.0000000   0.0000000
 NMagM=    0.0000000   0.4037610   2.7928460   2.7928460   0.4037610   0.0000000   0.4037610   2.7928460   0.0000000   0.0000000
 AtZNuc=   6.0000000   7.0000000   1.0000000   1.0000000   7.0000000   6.0000000   7.0000000   1.0000000   6.0000000   8.0000000

  Atom        31          32          33          34          35          36          37          38          39          40
 IAtWgt=          12          14          12           1           1           1           1           1           1           1
 AtmWgt=  12.0000000  14.0030740  12.0000000   1.0078250   1.0078250   1.0078250   1.0078250   1.0078250   1.0078250   1.0078250
 NucSpn=           0           2           0           1           1           1           1           1           1           1
 AtZEff=  -0.0000000  -0.0000000  -0.0000000  -0.0000000  -0.0000000  -0.0000000  -0.0000000  -0.0000000  -0.0000000  -0.0000000
 NQMom=    0.0000000   2.0440000   0.0000000   0.0000000   0.0000000   0.0000000   0.0000000   0.0000000   0.0000000   0.0000000
 NMagM=    0.0000000   0.4037610   0.0000000   2.7928460   2.7928460   2.7928460   2.7928460   2.7928460   2.7928460   2.7928460
 AtZNuc=   6.0000000   7.0000000   6.0000000   1.0000000   1.0000000   1.0000000   1.0000000   1.0000000   1.0000000   1.0000000

  Atom        41          42          43          44          45          46          47          48          49          50
 IAtWgt=           1          12          16          12           1          14          16          12           1          12
 AtmWgt=   1.0078250  12.0000000  15.9949146  12.0000000   1.0078250  14.0030740  15.9949146  12.0000000   1.0078250  12.0000000
 NucSpn=           1           0           0           0           1           2           0           0           1           0
 AtZEff=  -0.0000000  -0.0000000  -0.0000000  -0.0000000  -0.0000000  -0.0000000  -0.0000000  -0.0000000  -0.0000000  -0.0000000
 NQMom=    0.0000000   0.0000000   0.0000000   0.0000000   0.0000000   2.0440000   0.0000000   0.0000000   0.0000000   0.0000000
 NMagM=    2.7928460   0.0000000   0.0000000   0.0000000   2.7928460   0.4037610   0.0000000   0.0000000   2.7928460   0.0000000
 AtZNuc=   1.0000000   6.0000000   8.0000000   6.0000000   1.0000000   7.0000000   8.0000000   6.0000000   1.0000000   6.0000000

  Atom        51          52          53          54          55          56          57          58          59          60
 IAtWgt=          12          14           1           1           1           1           1          14          12          12
 AtmWgt=  12.0000000  14.0030740   1.0078250   1.0078250   1.0078250   1.0078250   1.0078250  14.0030740  12.0000000  12.0000000
 NucSpn=           0           2           1           1           1           1           1           2           0           0
 AtZEff=  -0.0000000  -0.0000000  -0.0000000  -0.0000000  -0.0000000  -0.0000000  -0.0000000  -0.0000000  -0.0000000  -0.0000000
 NQMom=    0.0000000   2.0440000   0.0000000   0.0000000   0.0000000   0.0000000   0.0000000   2.0440000   0.0000000   0.0000000
 NMagM=    0.0000000   0.4037610   2.7928460   2.7928460   2.7928460   2.7928460   2.7928460   0.4037610   0.0000000   0.0000000
 AtZNuc=   6.0000000   7.0000000   1.0000000   1.0000000   1.0000000   1.0000000   1.0000000   7.0000000   6.0000000   6.0000000

  Atom        61          62          63          64          65          66          67          68          69          70
 IAtWgt=          14           1          12          14           1          12          14          12          12          14
 AtmWgt=  14.0030740   1.0078250  12.0000000  14.0030740   1.0078250  12.0000000  14.0030740  12.0000000  12.0000000  14.0030740
 NucSpn=           2           1           0           2           1           0           2           0           0           2
 AtZEff=  -0.0000000  -0.0000000  -0.0000000  -0.0000000  -0.0000000  -0.0000000  -0.0000000  -0.0000000  -0.0000000  -0.0000000
 NQMom=    2.0440000   0.0000000   0.0000000   2.0440000   0.0000000   0.0000000   2.0440000   0.0000000   0.0000000   2.0440000
 NMagM=    0.4037610   2.7928460   0.0000000   0.4037610   2.7928460   0.0000000   0.4037610   0.0000000   0.0000000   0.4037610
 AtZNuc=   7.0000000   1.0000000   6.0000000   7.0000000   1.0000000   6.0000000   7.0000000   6.0000000   6.0000000   7.0000000
 Leave Link  101 at Sun Jan 21 04:16:23 2018, MaxMem=  4294967296 cpu:               7.3 elap:               0.3
 (Enter /share/apps/g16/l202.exe)
 Stoichiometry    C23H27N17O3
 Framework group  C1[X(C23H27N17O3)]
 Deg. of freedom   204
 Full point group                 C1      NOp   1
 Largest Abelian subgroup         C1      NOp   1
 Largest concise Abelian subgroup C1      NOp   1
                         Standard orientation:                         
 ---------------------------------------------------------------------
 Center     Atomic      Atomic             Coordinates (Angstroms)
 Number     Number       Type             X           Y           Z
 ---------------------------------------------------------------------
      1          7           0       -6.910174   -1.173675    0.292457
      2          6           0       -8.245818   -0.546092    0.305820
      3          6           0       -4.750151   -1.534726    0.495626
      4          7           0       -5.296389   -2.713029    0.007804
      5          6           0       -6.575856   -2.448345   -0.095067
      6          1           0       -7.328031   -3.152852   -0.451213
      7          7           0       -3.228961    0.086481    1.283404
      8          6           0       -4.280340    0.903426    1.404937
      9          1           0       -4.053832    1.899886    1.781791
     10          7           0       -5.563480    0.675343    1.132118
     11          6           0       -5.732650   -0.576778    0.676058
     12          6           0       -3.432134   -1.166805    0.821803
     13          7           0       -2.383872   -1.983774    0.699787
     14          1           0       -2.487628   -2.919999    0.362239
     15          1           0       -1.459618   -1.688032    0.941491
     16          1           0       -8.853533   -1.065208    0.906966
     17          1           0       -8.170373    0.392918    0.640041
     18          1           0       -8.622417   -0.539135   -0.620535
     19          7           0       -2.863616    2.128324   -1.579813
     20          6           0       -1.509595    2.047473   -1.360399
     21          6           0       -3.694970    3.327672   -1.353680
     22          7           0        1.468568    3.526372   -0.357815
     23          1           0        2.428668    3.263421   -0.266775
     24          1           0        1.229322    4.464651   -0.106582
     25          7           0       -0.717497    3.042089   -0.905025
     26          6           0        0.542762    2.660380   -0.796985
     27          7           0        0.994783    1.401438   -1.110406
     28          1           0        1.975983    1.198237   -0.996789
     29          6           0        0.197669    0.362489   -1.580591
     30          8           0        0.705297   -0.737001   -1.833914
     31          6           0       -1.158857    0.757452   -1.701872
     32          7           0       -2.270320    0.042801   -2.127117
     33          6           0       -3.255833    0.894286   -2.038034
     34          1           0       -4.292444    0.673398   -2.294769
     35          1           0       -4.402256    3.122465   -0.678082
     36          1           0       -3.118997    4.071078   -1.016228
     37          1           0       -4.124847    3.604068   -2.212530
     38          1           0        6.833881    0.633917    0.394286
     39          1           0        7.137669    0.878387   -1.324027
     40          1           0        5.763333    1.669061   -0.551104
     41          1           0        5.704955   -3.714424   -1.327351
     42          6           0        5.273299   -2.715631   -1.261562
     43          8           0        3.067577   -3.436288   -1.754049
     44          6           0        3.870411   -2.543047   -1.485032
     45          1           0        2.441732   -1.078378   -1.529223
     46          7           0        3.427471   -1.240127   -1.377965
     47          8           0        3.697904    0.985017   -1.013574
     48          6           0        4.181505   -0.130965   -1.086858
     49          1           0        7.106412   -1.730726   -0.797357
     50          6           0        6.034743   -1.653024   -0.975762
     51          6           0        6.370721    0.776407   -0.570723
     52          7           0        5.524992   -0.378582   -0.884565
     53          1           0        3.806374    2.942650    3.525899
     54          1           0        2.670397    3.244123    2.394191
     55          1           0        4.243311    3.153857    1.967734
     56          1           0        0.977300   -3.439811    1.010718
     57          1           0        2.606616   -3.276846    1.489139
     58          7           0        1.724950   -2.842550    1.301334
     59          6           0        1.554856   -1.525386    1.432907
     60          6           0        2.244218    0.697457    1.928367
     61          7           0        1.049059    1.253232    1.669309
     62          1           0       -0.827142    0.689349    1.067209
     63          6           0        0.172338    0.322747    1.297211
     64          7           0        0.340766   -0.996979    1.164824
     65          1           0        5.359503    0.581633    2.784962
     66          6           0        4.341318    0.353077    2.468753
     67          7           0        3.901838   -0.847951    2.182285
     68          6           0        2.573466   -0.643804    1.838084
     69          6           0        3.539624    2.784966    2.575123
     70          7           0        3.391180    1.336172    2.336449
 ---------------------------------------------------------------------
 Rotational constants (GHZ):           0.1619998           0.0499638           0.0465205
 Leave Link  202 at Sun Jan 21 04:16:23 2018, MaxMem=  4294967296 cpu:               0.3 elap:               0.0
 (Enter /share/apps/g16/l301.exe)
 Standard basis: CC-pVDZ (5D, 7F)
 Ernie: Thresh=  0.10000D-02 Tol=  0.10000D-05 Strict=F.
 Ernie:  86 primitive shells out of 1081 were deleted.
 There are   780 symmetry adapted cartesian basis functions of A   symmetry.
 There are   737 symmetry adapted basis functions of A   symmetry.
   737 basis functions,  1608 primitive gaussians,   780 cartesian basis functions
   154 alpha electrons      154 beta electrons
       nuclear repulsion energy      5494.2984286249 Hartrees.
 IExCor= 4639 DFT=T Ex+Corr=wB97XD ExCW=0 ScaHFX=  1.000000
 ScaDFX=  1.000000  1.000000  1.000000  1.000000 ScalE2=  1.000000  1.000000
 IRadAn=      5 IRanWt=     -1 IRanGd=            0 ICorTp=0 IEmpDi=121
 HFx  wShort=  0.000000 wLong=  0.200000 cFull=  0.222036 cShort=  0.000000 cLong=  0.777964
 DFx  wShort=  0.000000 wLong=  0.200000 cFull=  0.000000 cShort=  0.000000 cLong=  1.000000
 NAtoms=   70 NActive=   70 NUniq=   70 SFac= 1.00D+00 NAtFMM=   60 NAOKFM=T Big=T
 Integral buffers will be    131072 words long.
 Raffenetti 2 integral format.
 Two-electron integral symmetry is turned on.
 R6Disp:  Grimme-D2 Dispersion energy=       -0.0722236555 Hartrees.
 Nuclear repulsion after empirical dispersion term =     5494.2262049695 Hartrees.
 Leave Link  301 at Sun Jan 21 04:16:23 2018, MaxMem=  4294967296 cpu:               2.1 elap:               0.1
 (Enter /share/apps/g16/l302.exe)
 NPDir=0 NMtPBC=     1 NCelOv=     1 NCel=       1 NClECP=     1 NCelD=      1
         NCelK=      1 NCelE2=     1 NClLst=     1 CellRange=     0.0.
 One-electron integrals computed using PRISM.
 One-electron integral symmetry used in STVInt
 NBasis=   737 RedAO= T EigKep=  7.09D-04  NBF=   737
 NBsUse=   737 1.00D-06 EigRej= -1.00D+00 NBFU=   737
 Precomputing XC quadrature grid using
 IXCGrd= 4 IRadAn=           5 IRanWt=          -1 IRanGd=           0 AccXCQ= 0.00D+00.
 Generated NRdTot=       0 NPtTot=           0 NUsed=           0 NTot=          32
 NSgBfM=   761   760   761   761   761 MxSgAt=    70 MxSgA2=    70.
 Leave Link  302 at Sun Jan 21 04:16:27 2018, MaxMem=  4294967296 cpu:             134.4 elap:               4.2
 (Enter /share/apps/g16/l303.exe)
 DipDrv:  MaxL=1.
 Leave Link  303 at Sun Jan 21 04:16:28 2018, MaxMem=  4294967296 cpu:              15.3 elap:               0.5
 (Enter /share/apps/g16/l401.exe)
 ExpMin= 1.22D-01 ExpMax= 1.17D+04 ExpMxC= 4.01D+02 IAcc=3 IRadAn=         5 AccDes= 0.00D+00
 Harris functional with IExCor= 4639 and IRadAn=       5 diagonalized for initial guess.
 HarFok:  IExCor= 4639 AccDes= 0.00D+00 IRadAn=         5 IDoV= 1 UseB2=F ITyADJ=14
 ICtDFT=  3500011 ScaDFX=  1.000000  1.000000  1.000000  1.000000
 FoFCou: FMM=F IPFlag=           0 FMFlag=      100000 FMFlg1=        2001
         NFxFlg=           0 DoJE=T BraDBF=F KetDBF=T FulRan=T
         wScrn=  0.000000 ICntrl=       500 IOpCl=  0 I1Cent=   200000004 NGrid=           0
         NMat0=    1 NMatS0=      1 NMatT0=    0 NMatD0=    1 NMtDS0=    0 NMtDT0=    0
 Petite list used in FoFCou.
 Harris En= -1963.88111373705    
 JPrj=0 DoOrth=F DoCkMO=F.
 Leave Link  401 at Sun Jan 21 04:16:40 2018, MaxMem=  4294967296 cpu:             399.8 elap:              12.5
 (Enter /share/apps/g16/l502.exe)
 Integral symmetry usage will be decided dynamically.
 Closed shell SCF:
 Using DIIS extrapolation, IDIIS=  1040.
 NGot=  4294967296 LenX=  4293717438 LenY=  4293108258
 Requested convergence on RMS density matrix=1.00D-08 within  20 cycles.
 Requested convergence on MAX density matrix=1.00D-06.
 Requested convergence on             energy=1.00D-06.
 No special actions if energy rises.
 Fock matrices will be formed incrementally for  20 cycles.
 Integral accuracy reduced to 1.0D-05 until final iterations.

 Cycle   1  Pass 0  IDiag  1:
 FoFJK:  IHMeth= 1 ICntrl=       0 DoSepK=T KAlg= 0 I1Cent=           0 FoldK=F
 IRaf=         1 NMat=       1 IRICut=       1 DoRegI=T DoRafI=F ISym2E= 0 IDoP0=0 IntGTp=1.
 FoFCou: FMM=T IPFlag=           0 FMFlag=      100000 FMFlg1=        2001
         NFxFlg=           0 DoJE=T BraDBF=F KetDBF=F FulRan=T
         wScrn=  0.000000 ICntrl=       500 IOpCl=  0 I1Cent=           0 NGrid=           0
         NMat0=    1 NMatS0=      1 NMatT0=    0 NMatD0=    1 NMtDS0=    0 NMtDT0=    0
 Symmetry not used in FoFCou.
 FMM levels:  10  Number of levels for PrismC:   9
 E= -2048.31372763439    
 DIIS: error= 2.35D-02 at cycle   1 NSaved=   1.
 NSaved= 1 IEnMin= 1 EnMin= -2048.31372763439     IErMin= 1 ErrMin= 2.35D-02
 ErrMax= 2.35D-02  0.00D+00 EMaxC= 1.00D-01 BMatC= 8.31D-01 BMatP= 8.31D-01
 IDIUse=3 WtCom= 7.65D-01 WtEn= 2.35D-01
 Coeff-Com:  0.100D+01
 Coeff-En:   0.100D+01
 Coeff:      0.100D+01
 Gap=     0.255 Goal=   None    Shift=    0.000
 GapD=    0.255 DampG=1.000 DampE=0.500 DampFc=0.5000 IDamp=-1.
 Damping current iteration by 5.00D-01
 RMSDP=1.57D-03 MaxDP=1.30D-01              OVMax= 1.97D-01

 Cycle   2  Pass 0  IDiag  1:
 RMSU=  7.86D-04    CP:  9.98D-01
 E= -2048.51004436496     Delta-E=       -0.196316730569 Rises=F Damp=T
 DIIS: error= 1.29D-02 at cycle   2 NSaved=   2.
 NSaved= 2 IEnMin= 2 EnMin= -2048.51004436496     IErMin= 2 ErrMin= 1.29D-02
 ErrMax= 1.29D-02  0.00D+00 EMaxC= 1.00D-01 BMatC= 1.45D-01 BMatP= 8.31D-01
 IDIUse=3 WtCom= 8.71D-01 WtEn= 1.29D-01
 Coeff-Com: -0.197D+00 0.120D+01
 Coeff-En:   0.000D+00 0.100D+01
 Coeff:     -0.171D+00 0.117D+01
 Gap=     0.364 Goal=   None    Shift=    0.000
 RMSDP=5.91D-04 MaxDP=3.35D-02 DE=-1.96D-01 OVMax= 1.52D-01

 Cycle   3  Pass 0  IDiag  1:
 RMSU=  5.81D-04    CP:  9.94D-01  1.13D+00
 E= -2048.68906222827     Delta-E=       -0.179017863310 Rises=F Damp=F
 DIIS: error= 6.63D-03 at cycle   3 NSaved=   3.
 NSaved= 3 IEnMin= 3 EnMin= -2048.68906222827     IErMin= 3 ErrMin= 6.63D-03
 ErrMax= 6.63D-03  0.00D+00 EMaxC= 1.00D-01 BMatC= 6.28D-02 BMatP= 1.45D-01
 IDIUse=3 WtCom= 9.34D-01 WtEn= 6.63D-02
 Coeff-Com: -0.232D+00 0.548D+00 0.683D+00
 Coeff-En:   0.000D+00 0.000D+00 0.100D+01
 Coeff:     -0.216D+00 0.512D+00 0.704D+00
 Gap=     0.280 Goal=   None    Shift=    0.000
 RMSDP=3.57D-04 MaxDP=3.25D-02 DE=-1.79D-01 OVMax= 6.76D-02

 Cycle   4  Pass 0  IDiag  1:
 RMSU=  2.03D-04    CP:  9.94D-01  1.41D+00  6.71D-01
 E= -2048.73722734317     Delta-E=       -0.048165114898 Rises=F Damp=F
 DIIS: error= 2.58D-03 at cycle   4 NSaved=   4.
 NSaved= 4 IEnMin= 4 EnMin= -2048.73722734317     IErMin= 4 ErrMin= 2.58D-03
 ErrMax= 2.58D-03  0.00D+00 EMaxC= 1.00D-01 BMatC= 8.68D-03 BMatP= 6.28D-02
 IDIUse=3 WtCom= 9.74D-01 WtEn= 2.58D-02
 Coeff-Com: -0.967D-01 0.187D+00 0.375D+00 0.534D+00
 Coeff-En:   0.000D+00 0.000D+00 0.549D-01 0.945D+00
 Coeff:     -0.942D-01 0.183D+00 0.367D+00 0.544D+00
 Gap=     0.285 Goal=   None    Shift=    0.000
 RMSDP=1.27D-04 MaxDP=1.16D-02 DE=-4.82D-02 OVMax= 1.32D-02

 Cycle   5  Pass 0  IDiag  1:
 RMSU=  6.11D-05    CP:  9.94D-01  1.39D+00  8.03D-01  6.19D-01
 E= -2048.74447229219     Delta-E=       -0.007244949024 Rises=F Damp=F
 DIIS: error= 6.18D-04 at cycle   5 NSaved=   5.
 NSaved= 5 IEnMin= 5 EnMin= -2048.74447229219     IErMin= 5 ErrMin= 6.18D-04
 ErrMax= 6.18D-04  0.00D+00 EMaxC= 1.00D-01 BMatC= 2.84D-04 BMatP= 8.68D-03
 IDIUse=3 WtCom= 9.94D-01 WtEn= 6.18D-03
 Coeff-Com: -0.249D-01 0.427D-01 0.119D+00 0.238D+00 0.625D+00
 Coeff-En:   0.000D+00 0.000D+00 0.000D+00 0.000D+00 0.100D+01
 Coeff:     -0.247D-01 0.425D-01 0.118D+00 0.237D+00 0.627D+00
 Gap=     0.286 Goal=   None    Shift=    0.000
 RMSDP=2.63D-05 MaxDP=1.90D-03 DE=-7.24D-03 OVMax= 3.14D-03

 Failed to achieve initial convergence to 1.0D-08 in  6 cycles.
 Switch to full accuracy anyway.
 Cycle   6  Pass 1  IDiag  1:
 E= -2048.74468360620     Delta-E=       -0.000211314007 Rises=F Damp=F
 DIIS: error= 2.21D-04 at cycle   1 NSaved=   1.
 NSaved= 1 IEnMin= 1 EnMin= -2048.74468360620     IErMin= 1 ErrMin= 2.21D-04
 ErrMax= 2.21D-04  0.00D+00 EMaxC= 1.00D-01 BMatC= 7.04D-05 BMatP= 7.04D-05
 IDIUse=3 WtCom= 9.98D-01 WtEn= 2.21D-03
 Coeff-Com:  0.100D+01
 Coeff-En:   0.100D+01
 Coeff:      0.100D+01
 Gap=     0.285 Goal=   None    Shift=    0.000
 RMSDP=2.63D-05 MaxDP=1.90D-03 DE=-2.11D-04 OVMax= 2.64D-03

 Cycle   7  Pass 1  IDiag  1:
 RMSU=  1.05D-04    CP:  1.00D+00
 E= -2048.74473448150     Delta-E=       -0.000050875296 Rises=F Damp=F
 DIIS: error= 2.58D-04 at cycle   2 NSaved=   2.
 NSaved= 2 IEnMin= 2 EnMin= -2048.74473448150     IErMin= 1 ErrMin= 2.21D-04
 ErrMax= 2.58D-04  0.00D+00 EMaxC= 1.00D-01 BMatC= 4.30D-05 BMatP= 7.04D-05
 IDIUse=3 WtCom= 9.97D-01 WtEn= 2.58D-03
 Coeff-Com:  0.418D+00 0.582D+00
 Coeff-En:   0.000D+00 0.100D+01
 Coeff:      0.417D+00 0.583D+00
 Gap=     0.286 Goal=   None    Shift=    0.000
 RMSDP=1.13D-05 MaxDP=1.06D-03 DE=-5.09D-05 OVMax= 1.48D-03

 Cycle   8  Pass 1  IDiag  1:
 RMSU=  1.10D-05    CP:  1.00D+00  1.02D+00
 E= -2048.74476631923     Delta-E=       -0.000031837731 Rises=F Damp=F
 DIIS: error= 9.48D-05 at cycle   3 NSaved=   3.
 NSaved= 3 IEnMin= 3 EnMin= -2048.74476631923     IErMin= 3 ErrMin= 9.48D-05
 ErrMax= 9.48D-05  0.00D+00 EMaxC= 1.00D-01 BMatC= 9.19D-06 BMatP= 4.30D-05
 IDIUse=1 WtCom= 1.00D+00 WtEn= 0.00D+00
 Coeff-Com: -0.197D-01 0.301D+00 0.718D+00
 Coeff:     -0.197D-01 0.301D+00 0.718D+00
 Gap=     0.286 Goal=   None    Shift=    0.000
 RMSDP=5.56D-06 MaxDP=4.33D-04 DE=-3.18D-05 OVMax= 5.49D-04

 Cycle   9  Pass 1  IDiag  1:
 RMSU=  3.82D-06    CP:  1.00D+00  1.05D+00  7.73D-01
 E= -2048.74477511832     Delta-E=       -0.000008799093 Rises=F Damp=F
 DIIS: error= 3.46D-05 at cycle   4 NSaved=   4.
 NSaved= 4 IEnMin= 4 EnMin= -2048.74477511832     IErMin= 4 ErrMin= 3.46D-05
 ErrMax= 3.46D-05  0.00D+00 EMaxC= 1.00D-01 BMatC= 4.84D-07 BMatP= 9.19D-06
 IDIUse=1 WtCom= 1.00D+00 WtEn= 0.00D+00
 Coeff-Com: -0.325D-01 0.792D-01 0.263D+00 0.691D+00
 Coeff:     -0.325D-01 0.792D-01 0.263D+00 0.691D+00
 Gap=     0.286 Goal=   None    Shift=    0.000
 RMSDP=1.44D-06 MaxDP=1.29D-04 DE=-8.80D-06 OVMax= 5.08D-04

 Cycle  10  Pass 1  IDiag  1:
 RMSU=  1.28D-06    CP:  1.00D+00  1.06D+00  8.07D-01  1.11D+00
 E= -2048.74477594742     Delta-E=       -0.000000829097 Rises=F Damp=F
 DIIS: error= 1.60D-05 at cycle   5 NSaved=   5.
 NSaved= 5 IEnMin= 5 EnMin= -2048.74477594742     IErMin= 5 ErrMin= 1.60D-05
 ErrMax= 1.60D-05  0.00D+00 EMaxC= 1.00D-01 BMatC= 1.17D-07 BMatP= 4.84D-07
 IDIUse=1 WtCom= 1.00D+00 WtEn= 0.00D+00
 Coeff-Com: -0.346D-02-0.546D-01-0.123D+00 0.206D+00 0.975D+00
 Coeff:     -0.346D-02-0.546D-01-0.123D+00 0.206D+00 0.975D+00
 Gap=     0.286 Goal=   None    Shift=    0.000
 RMSDP=1.20D-06 MaxDP=7.54D-05 DE=-8.29D-07 OVMax= 2.45D-04

 Cycle  11  Pass 1  IDiag  1:
 RMSU=  4.88D-07    CP:  1.00D+00  1.06D+00  8.17D-01  1.38D+00  1.17D+00
 E= -2048.74477619906     Delta-E=       -0.000000251642 Rises=F Damp=F
 DIIS: error= 8.09D-06 at cycle   6 NSaved=   6.
 NSaved= 6 IEnMin= 6 EnMin= -2048.74477619906     IErMin= 6 ErrMin= 8.09D-06
 ErrMax= 8.09D-06  0.00D+00 EMaxC= 1.00D-01 BMatC= 2.74D-08 BMatP= 1.17D-07
 IDIUse=1 WtCom= 1.00D+00 WtEn= 0.00D+00
 Coeff-Com:  0.466D-02-0.428D-01-0.114D+00 0.381D-03 0.519D+00 0.633D+00
 Coeff:      0.466D-02-0.428D-01-0.114D+00 0.381D-03 0.519D+00 0.633D+00
 Gap=     0.286 Goal=   None    Shift=    0.000
 RMSDP=3.52D-07 MaxDP=3.58D-05 DE=-2.52D-07 OVMax= 1.26D-04

 Cycle  12  Pass 1  IDiag  1:
 RMSU=  1.78D-07    CP:  1.00D+00  1.06D+00  8.18D-01  1.45D+00  1.29D+00
                    CP:  9.35D-01
 E= -2048.74477623799     Delta-E=       -0.000000038928 Rises=F Damp=F
 DIIS: error= 1.30D-06 at cycle   7 NSaved=   7.
 NSaved= 7 IEnMin= 7 EnMin= -2048.74477623799     IErMin= 7 ErrMin= 1.30D-06
 ErrMax= 1.30D-06  0.00D+00 EMaxC= 1.00D-01 BMatC= 7.17D-10 BMatP= 2.74D-08
 IDIUse=1 WtCom= 1.00D+00 WtEn= 0.00D+00
 Coeff-Com:  0.103D-02-0.600D-02-0.176D-01-0.803D-02 0.452D-01 0.124D+00
 Coeff-Com:  0.861D+00
 Coeff:      0.103D-02-0.600D-02-0.176D-01-0.803D-02 0.452D-01 0.124D+00
 Coeff:      0.861D+00
 Gap=     0.286 Goal=   None    Shift=    0.000
 RMSDP=8.48D-08 MaxDP=5.12D-06 DE=-3.89D-08 OVMax= 2.28D-05

 Cycle  13  Pass 1  IDiag  1:
 RMSU=  4.87D-08    CP:  1.00D+00  1.06D+00  8.18D-01  1.46D+00  1.31D+00
                    CP:  1.03D+00  1.15D+00
 E= -2048.74477623983     Delta-E=       -0.000000001843 Rises=F Damp=F
 DIIS: error= 6.78D-07 at cycle   8 NSaved=   8.
 NSaved= 8 IEnMin= 8 EnMin= -2048.74477623983     IErMin= 8 ErrMin= 6.78D-07
 ErrMax= 6.78D-07  0.00D+00 EMaxC= 1.00D-01 BMatC= 2.85D-10 BMatP= 7.17D-10
 IDIUse=1 WtCom= 1.00D+00 WtEn= 0.00D+00
 Coeff-Com: -0.717D-03 0.835D-02 0.213D-01-0.215D-02-0.113D+00-0.101D+00
 Coeff-Com:  0.421D+00 0.766D+00
 Coeff:     -0.717D-03 0.835D-02 0.213D-01-0.215D-02-0.113D+00-0.101D+00
 Coeff:      0.421D+00 0.766D+00
 Gap=     0.286 Goal=   None    Shift=    0.000
 RMSDP=4.36D-08 MaxDP=2.48D-06 DE=-1.84D-09 OVMax= 1.05D-05

 Cycle  14  Pass 1  IDiag  1:
 RMSU=  2.55D-08    CP:  1.00D+00  1.06D+00  8.17D-01  1.46D+00  1.32D+00
                    CP:  1.07D+00  1.29D+00  1.09D+00
 E= -2048.74477624024     Delta-E=       -0.000000000412 Rises=F Damp=F
 DIIS: error= 1.83D-07 at cycle   9 NSaved=   9.
 NSaved= 9 IEnMin= 9 EnMin= -2048.74477624024     IErMin= 9 ErrMin= 1.83D-07
 ErrMax= 1.83D-07  0.00D+00 EMaxC= 1.00D-01 BMatC= 2.37D-11 BMatP= 2.85D-10
 IDIUse=1 WtCom= 1.00D+00 WtEn= 0.00D+00
 Coeff-Com: -0.386D-03 0.390D-02 0.102D-01 0.699D-04-0.484D-01-0.525D-01
 Coeff-Com:  0.749D-01 0.281D+00 0.731D+00
 Coeff:     -0.386D-03 0.390D-02 0.102D-01 0.699D-04-0.484D-01-0.525D-01
 Coeff:      0.749D-01 0.281D+00 0.731D+00
 Gap=     0.286 Goal=   None    Shift=    0.000
 RMSDP=1.25D-08 MaxDP=8.42D-07 DE=-4.12D-10 OVMax= 3.27D-06

 Cycle  15  Pass 1  IDiag  1:
 RMSU=  8.38D-09    CP:  1.00D+00  1.06D+00  8.17D-01  1.46D+00  1.32D+00
                    CP:  1.07D+00  1.32D+00  1.22D+00  1.12D+00
 E= -2048.74477624029     Delta-E=       -0.000000000045 Rises=F Damp=F
 DIIS: error= 1.04D-07 at cycle  10 NSaved=  10.
 NSaved=10 IEnMin=10 EnMin= -2048.74477624029     IErMin=10 ErrMin= 1.04D-07
 ErrMax= 1.04D-07  0.00D+00 EMaxC= 1.00D-01 BMatC= 4.63D-12 BMatP= 2.37D-11
 IDIUse=1 WtCom= 1.00D+00 WtEn= 0.00D+00
 Coeff-Com:  0.217D-04-0.469D-03-0.110D-02 0.173D-03 0.754D-02 0.360D-02
 Coeff-Com: -0.582D-01-0.704D-01 0.277D+00 0.842D+00
 Coeff:      0.217D-04-0.469D-03-0.110D-02 0.173D-03 0.754D-02 0.360D-02
 Coeff:     -0.582D-01-0.704D-01 0.277D+00 0.842D+00
 Gap=     0.286 Goal=   None    Shift=    0.000
 RMSDP=6.20D-09 MaxDP=3.75D-07 DE=-4.46D-11 OVMax= 1.27D-06

 SCF Done:  E(RwB97XD) =  -2048.74477624     A.U. after   15 cycles
            NFock= 15  Conv=0.62D-08     -V/T= 2.0054
 KE= 2.037740564345D+03 PE=-1.576931826740D+04 EE= 6.188606721847D+03
 Leave Link  502 at Sun Jan 21 04:27:58 2018, MaxMem=  4294967296 cpu:           21004.9 elap:             678.2
 (Enter /share/apps/g16/l601.exe)
 Copying SCF densities to generalized density rwf, IOpCl= 0 IROHF=0.

 **********************************************************************

            Population analysis using the SCF density.

 **********************************************************************

 Orbital symmetries:
       Occupied  (A) (A) (A) (A) (A) (A) (A) (A) (A) (A) (A) (A)
                 (A) (A) (A) (A) (A) (A) (A) (A) (A) (A) (A) (A)
                 (A) (A) (A) (A) (A) (A) (A) (A) (A) (A) (A) (A)
                 (A) (A) (A) (A) (A) (A) (A) (A) (A) (A) (A) (A)
                 (A) (A) (A) (A) (A) (A) (A) (A) (A) (A) (A) (A)
                 (A) (A) (A) (A) (A) (A) (A) (A) (A) (A) (A) (A)
                 (A) (A) (A) (A) (A) (A) (A) (A) (A) (A) (A) (A)
                 (A) (A) (A) (A) (A) (A) (A) (A) (A) (A) (A) (A)
                 (A) (A) (A) (A) (A) (A) (A) (A) (A) (A) (A) (A)
                 (A) (A) (A) (A) (A) (A) (A) (A) (A) (A) (A) (A)
                 (A) (A) (A) (A) (A) (A) (A) (A) (A) (A) (A) (A)
                 (A) (A) (A) (A) (A) (A) (A) (A) (A) (A) (A) (A)
                 (A) (A) (A) (A) (A) (A) (A) (A) (A) (A)
       Virtual   (A) (A) (A) (A) (A) (A) (A) (A) (A) (A) (A) (A)
                 (A) (A) (A) (A) (A) (A) (A) (A) (A) (A) (A) (A)
                 (A) (A) (A) (A) (A) (A) (A) (A) (A) (A) (A) (A)
                 (A) (A) (A) (A) (A) (A) (A) (A) (A) (A) (A) (A)
                 (A) (A) (A) (A) (A) (A) (A) (A) (A) (A) (A) (A)
                 (A) (A) (A) (A) (A) (A) (A) (A) (A) (A) (A) (A)
                 (A) (A) (A) (A) (A) (A) (A) (A) (A) (A) (A) (A)
                 (A) (A) (A) (A) (A) (A) (A) (A) (A) (A) (A) (A)
                 (A) (A) (A) (A) (A) (A) (A) (A) (A) (A) (A) (A)
                 (A) (A) (A) (A) (A) (A) (A) (A) (A) (A) (A) (A)
                 (A) (A) (A) (A) (A) (A) (A) (A) (A) (A) (A) (A)
                 (A) (A) (A) (A) (A) (A) (A) (A) (A) (A) (A) (A)
                 (A) (A) (A) (A) (A) (A) (A) (A) (A) (A) (A) (A)
                 (A) (A) (A) (A) (A) (A) (A) (A) (A) (A) (A) (A)
                 (A) (A) (A) (A) (A) (A) (A) (A) (A) (A) (A) (A)
                 (A) (A) (A) (A) (A) (A) (A) (A) (A) (A) (A) (A)
                 (A) (A) (A) (A) (A) (A) (A) (A) (A) (A) (A) (A)
                 (A) (A) (A) (A) (A) (A) (A) (A) (A) (A) (A) (A)
                 (A) (A) (A) (A) (A) (A) (A) (A) (A) (A) (A) (A)
                 (A) (A) (A) (A) (A) (A) (A) (A) (A) (A) (A) (A)
                 (A) (A) (A) (A) (A) (A) (A) (A) (A) (A) (A) (A)
                 (A) (A) (A) (A) (A) (A) (A) (A) (A) (A) (A) (A)
                 (A) (A) (A) (A) (A) (A) (A) (A) (A) (A) (A) (A)
                 (A) (A) (A) (A) (A) (A) (A) (A) (A) (A) (A) (A)
                 (A) (A) (A) (A) (A) (A) (A) (A) (A) (A) (A) (A)
                 (A) (A) (A) (A) (A) (A) (A) (A) (A) (A) (A) (A)
                 (A) (A) (A) (A) (A) (A) (A) (A) (A) (A) (A) (A)
                 (A) (A) (A) (A) (A) (A) (A) (A) (A) (A) (A) (A)
                 (A) (A) (A) (A) (A) (A) (A) (A) (A) (A) (A) (A)
                 (A) (A) (A) (A) (A) (A) (A) (A) (A) (A) (A) (A)
                 (A) (A) (A) (A) (A) (A) (A) (A) (A) (A) (A) (A)
                 (A) (A) (A) (A) (A) (A) (A) (A) (A) (A) (A) (A)
                 (A) (A) (A) (A) (A) (A) (A) (A) (A) (A) (A) (A)
                 (A) (A) (A) (A) (A) (A) (A) (A) (A) (A) (A) (A)
                 (A) (A) (A) (A) (A) (A) (A) (A) (A) (A) (A) (A)
                 (A) (A) (A) (A) (A) (A) (A) (A) (A) (A) (A) (A)
                 (A) (A) (A) (A) (A) (A) (A) (A) (A) (A) (A) (A)
                 (A) (A) (A) (A) (A) (A) (A) (A) (A) (A) (A) (A)
                 (A) (A) (A) (A) (A) (A) (A) (A) (A) (A) (A) (A)
                 (A) (A) (A) (A) (A) (A) (A) (A) (A) (A) (A) (A)
                 (A) (A) (A) (A) (A) (A) (A) (A) (A) (A) (A) (A)
                 (A) (A) (A) (A) (A) (A) (A) (A) (A) (A) (A) (A)
                 (A) (A) (A) (A) (A) (A) (A) (A) (A) (A) (A) (A)
                 (A) (A) (A) (A) (A) (A) (A) (A) (A) (A) (A) (A)
                 (A) (A) (A) (A) (A) (A) (A) (A) (A) (A) (A) (A)
                 (A) (A) (A) (A) (A) (A) (A) (A) (A) (A) (A) (A)
                 (A) (A) (A) (A) (A) (A) (A) (A) (A) (A) (A) (A)
                 (A) (A) (A) (A) (A) (A) (A) (A) (A) (A) (A) (A)
                 (A) (A) (A) (A) (A) (A) (A)
 The electronic state is 1-A.
 Alpha  occ. eigenvalues --  -19.26016 -19.22036 -19.20594 -14.52459 -14.51480
 Alpha  occ. eigenvalues --  -14.49481 -14.48569 -14.47902 -14.46717 -14.46694
 Alpha  occ. eigenvalues --  -14.46603 -14.44502 -14.42946 -14.42775 -14.42686
 Alpha  occ. eigenvalues --  -14.42122 -14.42041 -14.41704 -14.40801 -14.40704
 Alpha  occ. eigenvalues --  -10.45579 -10.41144 -10.40136 -10.38550 -10.38188
 Alpha  occ. eigenvalues --  -10.37718 -10.37100 -10.36054 -10.36011 -10.35666
 Alpha  occ. eigenvalues --  -10.34771 -10.34515 -10.34286 -10.34106 -10.33803
 Alpha  occ. eigenvalues --  -10.33522 -10.33141 -10.31568 -10.31442 -10.31003
 Alpha  occ. eigenvalues --  -10.30458 -10.29261 -10.28065  -1.19542  -1.14163
 Alpha  occ. eigenvalues --   -1.13192  -1.13060  -1.12073  -1.10472  -1.09357
 Alpha  occ. eigenvalues --   -1.08538  -1.07885  -1.05657  -1.03447  -1.02536
 Alpha  occ. eigenvalues --   -1.01071  -0.99998  -0.99740  -0.98480  -0.97624
 Alpha  occ. eigenvalues --   -0.96411  -0.95494  -0.93293  -0.91018  -0.86639
 Alpha  occ. eigenvalues --   -0.85132  -0.84631  -0.83999  -0.83856  -0.82971
 Alpha  occ. eigenvalues --   -0.82260  -0.78872  -0.75898  -0.74549  -0.73682
 Alpha  occ. eigenvalues --   -0.73590  -0.73529  -0.73393  -0.71752  -0.69290
 Alpha  occ. eigenvalues --   -0.67354  -0.66947  -0.66574  -0.65621  -0.64465
 Alpha  occ. eigenvalues --   -0.63699  -0.63417  -0.63064  -0.62659  -0.61707
 Alpha  occ. eigenvalues --   -0.60799  -0.60133  -0.59538  -0.59442  -0.58838
 Alpha  occ. eigenvalues --   -0.58538  -0.58333  -0.57133  -0.57080  -0.56549
 Alpha  occ. eigenvalues --   -0.56041  -0.55925  -0.54790  -0.54452  -0.54392
 Alpha  occ. eigenvalues --   -0.53599  -0.53569  -0.52879  -0.52794  -0.52677
 Alpha  occ. eigenvalues --   -0.52370  -0.52273  -0.51782  -0.51433  -0.50818
 Alpha  occ. eigenvalues --   -0.50070  -0.49712  -0.49474  -0.48908  -0.48711
 Alpha  occ. eigenvalues --   -0.48650  -0.48202  -0.47836  -0.47650  -0.47601
 Alpha  occ. eigenvalues --   -0.47377  -0.45616  -0.45389  -0.43991  -0.43289
 Alpha  occ. eigenvalues --   -0.41883  -0.39733  -0.39554  -0.37880  -0.37272
 Alpha  occ. eigenvalues --   -0.37203  -0.36755  -0.36324  -0.35692  -0.34425
 Alpha  occ. eigenvalues --   -0.34219  -0.34159  -0.33279  -0.33215  -0.32907
 Alpha  occ. eigenvalues --   -0.32633  -0.32213  -0.31975  -0.31818  -0.31603
 Alpha  occ. eigenvalues --   -0.31023  -0.28485  -0.26477  -0.25406
 Alpha virt. eigenvalues --    0.03157   0.04899   0.07306   0.08127   0.08639
 Alpha virt. eigenvalues --    0.09159   0.09636   0.10210   0.10890   0.11704
 Alpha virt. eigenvalues --    0.12860   0.13500   0.14416   0.14662   0.15125
 Alpha virt. eigenvalues --    0.15937   0.16248   0.17038   0.17199   0.18307
 Alpha virt. eigenvalues --    0.18681   0.19145   0.19692   0.19887   0.20446
 Alpha virt. eigenvalues --    0.20693   0.21333   0.21682   0.21819   0.22208
 Alpha virt. eigenvalues --    0.23143   0.23247   0.23338   0.23481   0.23739
 Alpha virt. eigenvalues --    0.23918   0.24178   0.24641   0.25247   0.25594
 Alpha virt. eigenvalues --    0.26258   0.26570   0.26706   0.27145   0.28058
 Alpha virt. eigenvalues --    0.28422   0.29236   0.29661   0.30648   0.30704
 Alpha virt. eigenvalues --    0.31275   0.32436   0.32766   0.33333   0.33568
 Alpha virt. eigenvalues --    0.33712   0.34955   0.35140   0.35850   0.36533
 Alpha virt. eigenvalues --    0.36704   0.37605   0.38146   0.39256   0.39660
 Alpha virt. eigenvalues --    0.40037   0.40901   0.41355   0.41420   0.41832
 Alpha virt. eigenvalues --    0.42259   0.42623   0.43264   0.43681   0.44515
 Alpha virt. eigenvalues --    0.45136   0.45531   0.45888   0.46073   0.47087
 Alpha virt. eigenvalues --    0.47626   0.48066   0.48923   0.49352   0.49466
 Alpha virt. eigenvalues --    0.50070   0.50161   0.50473   0.50737   0.51117
 Alpha virt. eigenvalues --    0.51428   0.52205   0.52458   0.52951   0.53640
 Alpha virt. eigenvalues --    0.54007   0.54590   0.54683   0.54965   0.55499
 Alpha virt. eigenvalues --    0.55883   0.56209   0.56776   0.57125   0.57286
 Alpha virt. eigenvalues --    0.57676   0.58317   0.59052   0.59431   0.59817
 Alpha virt. eigenvalues --    0.60060   0.60646   0.60841   0.61008   0.61629
 Alpha virt. eigenvalues --    0.61995   0.62123   0.62698   0.63438   0.63683
 Alpha virt. eigenvalues --    0.64048   0.64639   0.64958   0.65250   0.65335
 Alpha virt. eigenvalues --    0.65600   0.65848   0.66528   0.66782   0.67525
 Alpha virt. eigenvalues --    0.67637   0.68341   0.68570   0.68821   0.69838
 Alpha virt. eigenvalues --    0.70480   0.70866   0.71486   0.71618   0.71908
 Alpha virt. eigenvalues --    0.72127   0.72911   0.73358   0.73481   0.73689
 Alpha virt. eigenvalues --    0.74036   0.74296   0.74674   0.75119   0.75184
 Alpha virt. eigenvalues --    0.75600   0.76241   0.76505   0.76685   0.76935
 Alpha virt. eigenvalues --    0.77360   0.77587   0.78206   0.78600   0.78904
 Alpha virt. eigenvalues --    0.79215   0.79594   0.79971   0.80560   0.80992
 Alpha virt. eigenvalues --    0.81504   0.81991   0.82654   0.82827   0.83205
 Alpha virt. eigenvalues --    0.83351   0.84076   0.84474   0.85046   0.85136
 Alpha virt. eigenvalues --    0.85762   0.86109   0.86740   0.87159   0.87838
 Alpha virt. eigenvalues --    0.88111   0.88266   0.88406   0.89089   0.89631
 Alpha virt. eigenvalues --    0.90574   0.90717   0.91713   0.91922   0.92564
 Alpha virt. eigenvalues --    0.93058   0.93365   0.93783   0.94135   0.94810
 Alpha virt. eigenvalues --    0.95203   0.95334   0.95912   0.96438   0.96779
 Alpha virt. eigenvalues --    0.97067   0.97823   0.98109   0.98190   0.98635
 Alpha virt. eigenvalues --    0.99552   0.99746   1.00944   1.01083   1.01533
 Alpha virt. eigenvalues --    1.01906   1.01977   1.02560   1.03101   1.03388
 Alpha virt. eigenvalues --    1.03625   1.04229   1.04331   1.05339   1.05380
 Alpha virt. eigenvalues --    1.05879   1.06552   1.06670   1.07181   1.08206
 Alpha virt. eigenvalues --    1.08585   1.09243   1.09982   1.10943   1.11257
 Alpha virt. eigenvalues --    1.11994   1.12519   1.13073   1.13606   1.13788
 Alpha virt. eigenvalues --    1.14033   1.14154   1.14496   1.15018   1.15667
 Alpha virt. eigenvalues --    1.16124   1.16507   1.16754   1.17256   1.17935
 Alpha virt. eigenvalues --    1.18279   1.19055   1.19410   1.19756   1.20131
 Alpha virt. eigenvalues --    1.20297   1.20923   1.21228   1.21626   1.21712
 Alpha virt. eigenvalues --    1.21941   1.22473   1.22645   1.23088   1.23366
 Alpha virt. eigenvalues --    1.23904   1.24060   1.24436   1.24897   1.25689
 Alpha virt. eigenvalues --    1.26344   1.26422   1.27409   1.28034   1.28857
 Alpha virt. eigenvalues --    1.28949   1.29910   1.30173   1.31372   1.31674
 Alpha virt. eigenvalues --    1.32242   1.33032   1.33501   1.34166   1.34524
 Alpha virt. eigenvalues --    1.34954   1.35103   1.36268   1.36629   1.37493
 Alpha virt. eigenvalues --    1.37879   1.38729   1.39502   1.39849   1.40418
 Alpha virt. eigenvalues --    1.40791   1.42369   1.43600   1.44273   1.44864
 Alpha virt. eigenvalues --    1.45206   1.46403   1.47179   1.47844   1.48490
 Alpha virt. eigenvalues --    1.48611   1.49135   1.49940   1.50478   1.50773
 Alpha virt. eigenvalues --    1.51793   1.52213   1.53147   1.53564   1.54314
 Alpha virt. eigenvalues --    1.54737   1.55521   1.56678   1.56863   1.57543
 Alpha virt. eigenvalues --    1.58752   1.59037   1.59845   1.60198   1.61904
 Alpha virt. eigenvalues --    1.62232   1.62681   1.62868   1.63640   1.64289
 Alpha virt. eigenvalues --    1.64805   1.65694   1.66440   1.66860   1.67208
 Alpha virt. eigenvalues --    1.67543   1.68071   1.68751   1.68814   1.69632
 Alpha virt. eigenvalues --    1.69889   1.71001   1.71203   1.71383   1.71864
 Alpha virt. eigenvalues --    1.71987   1.72246   1.72671   1.73502   1.73639
 Alpha virt. eigenvalues --    1.74093   1.74285   1.74818   1.75350   1.75671
 Alpha virt. eigenvalues --    1.75795   1.76202   1.76910   1.77141   1.77686
 Alpha virt. eigenvalues --    1.78089   1.78235   1.78437   1.78928   1.79205
 Alpha virt. eigenvalues --    1.79592   1.79854   1.79955   1.80375   1.80502
 Alpha virt. eigenvalues --    1.80957   1.81460   1.81660   1.81924   1.82498
 Alpha virt. eigenvalues --    1.83134   1.83426   1.83869   1.84281   1.84801
 Alpha virt. eigenvalues --    1.85142   1.85656   1.86470   1.86636   1.87381
 Alpha virt. eigenvalues --    1.87899   1.88115   1.88418   1.88851   1.89203
 Alpha virt. eigenvalues --    1.89675   1.89816   1.90184   1.91087   1.91495
 Alpha virt. eigenvalues --    1.91778   1.92051   1.92231   1.93303   1.93693
 Alpha virt. eigenvalues --    1.94203   1.95396   1.95928   1.96692   1.97184
 Alpha virt. eigenvalues --    1.98276   1.99274   1.99891   2.01075   2.01453
 Alpha virt. eigenvalues --    2.01827   2.02290   2.02451   2.03358   2.04370
 Alpha virt. eigenvalues --    2.04701   2.05515   2.06589   2.06728   2.07364
 Alpha virt. eigenvalues --    2.07665   2.08411   2.08950   2.09359   2.09767
 Alpha virt. eigenvalues --    2.10474   2.11213   2.11852   2.12283   2.13047
 Alpha virt. eigenvalues --    2.13800   2.15105   2.15370   2.18127   2.18734
 Alpha virt. eigenvalues --    2.19367   2.19483   2.20472   2.20930   2.21690
 Alpha virt. eigenvalues --    2.21944   2.22201   2.22644   2.23410   2.23720
 Alpha virt. eigenvalues --    2.24463   2.25235   2.25771   2.26267   2.26608
 Alpha virt. eigenvalues --    2.27379   2.28295   2.29057   2.29184   2.29778
 Alpha virt. eigenvalues --    2.30062   2.30398   2.31388   2.32197   2.32815
 Alpha virt. eigenvalues --    2.33527   2.34088   2.34163   2.34567   2.34748
 Alpha virt. eigenvalues --    2.35778   2.36247   2.36550   2.37374   2.37544
 Alpha virt. eigenvalues --    2.38159   2.40024   2.40504   2.40847   2.41116
 Alpha virt. eigenvalues --    2.41471   2.41977   2.42857   2.43175   2.43949
 Alpha virt. eigenvalues --    2.45361   2.45461   2.46137   2.46518   2.47344
 Alpha virt. eigenvalues --    2.47679   2.48960   2.49068   2.50034   2.51808
 Alpha virt. eigenvalues --    2.52868   2.54011   2.54860   2.54972   2.56262
 Alpha virt. eigenvalues --    2.56856   2.57282   2.57665   2.58173   2.59737
 Alpha virt. eigenvalues --    2.60771   2.61118   2.61649   2.62257   2.63603
 Alpha virt. eigenvalues --    2.64204   2.65008   2.65555   2.65572   2.66657
 Alpha virt. eigenvalues --    2.67051   2.67626   2.68069   2.68444   2.69235
 Alpha virt. eigenvalues --    2.70423   2.70814   2.71606   2.71650   2.72838
 Alpha virt. eigenvalues --    2.73800   2.74390   2.75022   2.75214   2.75976
 Alpha virt. eigenvalues --    2.77710   2.78853   2.79413   2.79475   2.79955
 Alpha virt. eigenvalues --    2.80184   2.80323   2.80900   2.81644   2.82133
 Alpha virt. eigenvalues --    2.82402   2.82773   2.83138   2.83406   2.83755
 Alpha virt. eigenvalues --    2.85200   2.85954   2.86430   2.87046   2.87163
 Alpha virt. eigenvalues --    2.87826   2.88315   2.89312   2.91496   2.92986
 Alpha virt. eigenvalues --    2.94465   2.96231   2.96789   2.98533   2.98784
 Alpha virt. eigenvalues --    2.99722   3.01384   3.03900   3.04726   3.06008
 Alpha virt. eigenvalues --    3.06923   3.09473   3.10877   3.13965   3.14609
 Alpha virt. eigenvalues --    3.15261   3.15844   3.16429   3.17696   3.20433
 Alpha virt. eigenvalues --    3.22306   3.23248   3.23666   3.24160   3.27097
 Alpha virt. eigenvalues --    3.45870   3.46911   3.48018   3.49992   3.50461
 Alpha virt. eigenvalues --    3.52824   3.54128   3.56513   3.58229   3.60036
 Alpha virt. eigenvalues --    3.63014   3.71243   3.74651
          Condensed to atoms (all electrons):
 Mulliken charges:
               1
     1  N   -0.311322
     2  C    0.180474
     3  C    0.041628
     4  N   -0.256729
     5  C    0.132713
     6  H    0.028644
     7  N   -0.278986
     8  C    0.125605
     9  H    0.016536
    10  N   -0.290424
    11  C    0.231057
    12  C    0.108469
    13  N   -0.046359
    14  H    0.108361
    15  H    0.088538
    16  H    0.027491
    17  H    0.034691
    18  H    0.026006
    19  N   -0.302219
    20  C    0.239967
    21  C    0.180448
    22  N   -0.106468
    23  H    0.109497
    24  H    0.116159
    25  N   -0.296774
    26  C    0.226471
    27  N   -0.120449
    28  H    0.118863
    29  C    0.141594
    30  O   -0.320845
    31  C    0.009792
    32  N   -0.223295
    33  C    0.123741
    34  H    0.027614
    35  H    0.028426
    36  H    0.026571
    37  H    0.022698
    38  H    0.054251
    39  H    0.063951
    40  H    0.071822
    41  H    0.030136
    42  C   -0.107373
    43  O   -0.271965
    44  C    0.173471
    45  H    0.137235
    46  N   -0.132479
    47  O   -0.351015
    48  C    0.355342
    49  H    0.046902
    50  C    0.179860
    51  C    0.037511
    52  N   -0.289077
    53  H    0.034046
    54  H    0.033567
    55  H    0.021579
    56  H    0.121965
    57  H    0.118800
    58  N   -0.055449
    59  C    0.118738
    60  C    0.233808
    61  N   -0.266777
    62  H    0.050005
    63  C    0.155306
    64  N   -0.300547
    65  H    0.028329
    66  C    0.120400
    67  N   -0.256631
    68  C    0.007148
    69  C    0.174115
    70  N   -0.305157
 Sum of Mulliken charges =  -0.00000
 Mulliken charges with hydrogens summed into heavy atoms:
               1
     1  N   -0.311322
     2  C    0.268661
     3  C    0.041628
     4  N   -0.256729
     5  C    0.161357
     7  N   -0.278986
     8  C    0.142141
    10  N   -0.290424
    11  C    0.231057
    12  C    0.108469
    13  N    0.150540
    19  N   -0.302219
    20  C    0.239967
    21  C    0.258143
    22  N    0.119188
    25  N   -0.296774
    26  C    0.226471
    27  N   -0.001586
    29  C    0.141594
    30  O   -0.320845
    31  C    0.009792
    32  N   -0.223295
    33  C    0.151355
    42  C   -0.077238
    43  O   -0.271965
    44  C    0.173471
    46  N    0.004756
    47  O   -0.351015
    48  C    0.355342
    50  C    0.226761
    51  C    0.227535
    52  N   -0.289077
    58  N    0.185316
    59  C    0.118738
    60  C    0.233808
    61  N   -0.266777
    63  C    0.205311
    64  N   -0.300547
    66  C    0.148729
    67  N   -0.256631
    68  C    0.007148
    69  C    0.263307
    70  N   -0.305157
 Electronic spatial extent (au):  <R**2>=          23575.2530
 Charge=              0.0000 electrons
 Dipole moment (field-independent basis, Debye):
    X=              6.3205    Y=              6.0043    Z=              3.1774  Tot=              9.2788
 Quadrupole moment (field-independent basis, Debye-Ang):
   XX=           -140.9247   YY=           -225.8513   ZZ=           -254.7362
   XY=             12.0738   XZ=             14.9831   YZ=             -7.1455
 Traceless Quadrupole moment (field-independent basis, Debye-Ang):
   XX=             66.2461   YY=            -18.6806   ZZ=            -47.5655
   XY=             12.0738   XZ=             14.9831   YZ=             -7.1455
 Octapole moment (field-independent basis, Debye-Ang**2):
  XXX=              5.5700  YYY=             81.0528  ZZZ=             16.2369  XYY=             45.2707
  XXY=             17.6835  XXZ=            -53.6653  XZZ=             27.7124  YZZ=             45.2167
  YYZ=             51.2561  XYZ=             40.0677
 Hexadecapole moment (field-independent basis, Debye-Ang**3):
 XXXX=         -16075.3029 YYYY=          -4654.0831 ZZZZ=          -3224.7518 XXXY=            491.1752
 XXXZ=            200.2184 YYYX=             63.3432 YYYZ=            -77.3103 ZZZX=             88.1489
 ZZZY=             39.4056 XXYY=          -4299.8521 XXZZ=          -4285.2587 YYZZ=          -1388.9027
 XXYZ=             78.8145 YYXZ=            189.2610 ZZXY=             95.9131
 N-N= 5.494226204969D+03 E-N=-1.576931826566D+04  KE= 2.037740564345D+03
 No NMR shielding tensors so no spin-rotation constants.
 Leave Link  601 at Sun Jan 21 04:28:00 2018, MaxMem=  4294967296 cpu:              46.9 elap:               1.7
 (Enter /share/apps/g16/l9999.exe)
 1\1\GINC-COMPUTE-0-3\SP\RwB97XD\CC-pVDZ\C23H27N17O3\SATYA\21-Jan-2018\
 0\\#p wb97xd/cc-pvdz sp scf=(maxcycles=20)\\Base pair stacking\\0,1\N,
 0,6.18783,7.37628,-6.47105\C,0,6.66059,8.77054,-6.57363\C,0,4.9153,5.5
 8479,-6.37851\N,0,6.22341,5.13822,-6.25948\C,0,6.9377,6.2354,-6.32\H,0
 ,8.0258,6.27096,-6.25909\N,0,2.56215,5.65205,-6.52372\C,0,2.68342,6.97
 839,-6.6407\H,0,1.74646,7.52342,-6.74702\N,0,3.78316,7.72902,-6.64603\
 C,0,4.87751,6.96207,-6.50964\C,0,3.68185,4.90845,-6.38803\N,0,3.56284,
 3.58431,-6.27112\H,0,4.36475,2.99469,-6.1686\H,0,2.66857,3.13677,-6.28
 203\H,0,7.26148,8.86263,-7.36775\H,0,5.87687,9.38226,-6.67715\H,0,7.16
 528,9.01534,-5.74576\N,0,1.70728,6.72335,-3.26456\C,0,0.78503,5.70477,
 -3.26328\C,0,1.38981,8.1623,-3.36129\N,0,-2.5169,4.63674,-3.39872\H,0,
 -3.01279,3.76899,-3.38065\H,0,-3.06417,5.47055,-3.47605\N,0,-0.55535,5
 .84618,-3.34948\C,0,-1.17818,4.68128,-3.32272\N,0,-0.53912,3.46949,-3.
 21948\H,0,-1.09628,2.62904,-3.20649\C,0,0.83898,3.30027,-3.12957\O,0,1
 .31505,2.16183,-3.03986\C,0,1.52161,4.5429,-3.15705\N,0,2.87898,4.8263
 5,-3.09292\C,0,2.94097,6.1286,-3.16\H,0,3.86439,6.7083,-3.13738\H,0,1.
 82347,8.54702,-4.17537\H,0,0.39965,8.2794,-3.42565\H,0,1.72817,8.63535
 ,-2.54855\H,0,-4.38372,-1.19738,-3.84208\H,0,-4.28457,-1.29923,-2.0858
 2\H,0,-4.10545,0.26078,-2.88935\H,0,-0.17868,-3.47768,-3.32784\C,0,-0.
 586,-2.46986,-3.2464\O,0,1.53516,-1.40949,-3.30466\C,0,0.30786,-1.3524
 4,-3.23206\H,0,0.28815,0.69051,-3.11248\N,0,-0.31071,-0.12307,-3.12585
 \O,0,-2.11255,1.24723,-2.94466\C,0,-1.65838,0.12024,-3.03565\H,0,-2.62
 734,-3.08009,-3.16654\C,0,-1.90546,-2.2645,-3.16\C,0,-3.90228,-0.79731
 ,-2.96218\N,0,-2.45498,-1.00768,-3.05609\H,0,-4.76841,2.68034,-6.86174
 \H,0,-3.89395,3.66758,-5.90113\H,0,-4.78072,2.4651,-5.24405\H,0,2.1943
 9,0.17265,-6.31721\H,0,0.84815,-0.86462,-6.46493\N,0,1.20054,0.06342,-
 6.33931\C,0,0.3807,1.10821,-6.20724\C,0,-1.73933,2.18123,-6.08142\N,0,
 -1.23793,3.41613,-5.91402\H,0,0.58312,4.34649,-5.77681\C,0,0.09314,3.3
 8269,-5.90822\N,0,0.91608,2.33728,-6.04035\H,0,-4.0057,-0.10207,-6.401
 23\C,0,-3.0732,0.45719,-6.32\N,0,-1.87718,-0.07521,-6.38132\C,0,-1.022
 19,1.00703,-6.23142\C,0,-4.21906,2.73088,-6.02768\N,0,-3.06421,1.81885
 ,-6.1396\\Version=EM64L-G16RevA.03\State=1-A\HF=-2048.7447762\RMSD=6.2
 03e-09\Dipole=-3.6398509,-0.0920754,-0.2639666\Quadrupole=23.9166437,8
 .7288297,-32.6454733,34.0279522,-11.7246262,3.8984969\PG=C01 [X(C23H27
 N17O3)]\\@


 TO BEHOLD HARMS OF OUR OWN HANDS DOING,
 WHERE NONE BESIDE US WROUGHT,
 CAUSES SHARP RUING...

                                         SOPHOCLES
 Job cpu time:       0 days  6 hours  0 minutes 16.2 seconds.
 Elapsed time:       0 days  0 hours 11 minutes 37.7 seconds.
 File lengths (MBytes):  RWF=    298 Int=      0 D2E=      0 Chk=     33 Scr=      1
 Normal termination of Gaussian 16 at Sun Jan 21 04:28:01 2018.
