 Entering Gaussian System, Link 0=g16
 Input=str30.5.-2.0.com
 Output=str30.5.-2.0.log
 Initial command:
 /share/apps/g16/l1.exe "/state/partition1/scr/Gau-4220.inp" -scrdir="/state/partition1/scr/"
 Entering Link 1 = /share/apps/g16/l1.exe PID=      4221.
  
 Copyright (c) 1988,1990,1992,1993,1995,1998,2003,2009,2016,
            Gaussian, Inc.  All Rights Reserved.
  
 This is part of the Gaussian(R) 16 program.  It is based on
 the Gaussian(R) 09 system (copyright 2009, Gaussian, Inc.),
 the Gaussian(R) 03 system (copyright 2003, Gaussian, Inc.),
 the Gaussian(R) 98 system (copyright 1998, Gaussian, Inc.),
 the Gaussian(R) 94 system (copyright 1995, Gaussian, Inc.),
 the Gaussian 92(TM) system (copyright 1992, Gaussian, Inc.),
 the Gaussian 90(TM) system (copyright 1990, Gaussian, Inc.),
 the Gaussian 88(TM) system (copyright 1988, Gaussian, Inc.),
 the Gaussian 86(TM) system (copyright 1986, Carnegie Mellon
 University), and the Gaussian 82(TM) system (copyright 1983,
 Carnegie Mellon University). Gaussian is a federally registered
 trademark of Gaussian, Inc.
  
 This software contains proprietary and confidential information,
 including trade secrets, belonging to Gaussian, Inc.
  
 This software is provided under written license and may be
 used, copied, transmitted, or stored only in accord with that
 written license.
  
 The following legend is applicable only to US Government
 contracts under FAR:
  
                    RESTRICTED RIGHTS LEGEND
  
 Use, reproduction and disclosure by the US Government is
 subject to restrictions as set forth in subparagraphs (a)
 and (c) of the Commercial Computer Software - Restricted
 Rights clause in FAR 52.227-19.
  
 Gaussian, Inc.
 340 Quinnipiac St., Bldg. 40, Wallingford CT 06492
  
  
 ---------------------------------------------------------------
 Warning -- This program may not be used in any manner that
 competes with the business of Gaussian, Inc. or will provide
 assistance to any competitor of Gaussian, Inc.  The licensee
 of this program is prohibited from giving any competitor of
 Gaussian, Inc. access to this program.  By using this program,
 the user acknowledges that Gaussian, Inc. is engaged in the
 business of creating and licensing software in the field of
 computational chemistry and represents and warrants to the
 licensee that it is not a competitor of Gaussian, Inc. and that
 it will not use this program in any manner prohibited above.
 ---------------------------------------------------------------
  

 Cite this work as:
 Gaussian 16, Revision A.03,
 M. J. Frisch, G. W. Trucks, H. B. Schlegel, G. E. Scuseria, 
 M. A. Robb, J. R. Cheeseman, G. Scalmani, V. Barone, 
 G. A. Petersson, H. Nakatsuji, X. Li, M. Caricato, A. V. Marenich, 
 J. Bloino, B. G. Janesko, R. Gomperts, B. Mennucci, H. P. Hratchian, 
 J. V. Ortiz, A. F. Izmaylov, J. L. Sonnenberg, D. Williams-Young, 
 F. Ding, F. Lipparini, F. Egidi, J. Goings, B. Peng, A. Petrone, 
 T. Henderson, D. Ranasinghe, V. G. Zakrzewski, J. Gao, N. Rega, 
 G. Zheng, W. Liang, M. Hada, M. Ehara, K. Toyota, R. Fukuda, 
 J. Hasegawa, M. Ishida, T. Nakajima, Y. Honda, O. Kitao, H. Nakai, 
 T. Vreven, K. Throssell, J. A. Montgomery, Jr., J. E. Peralta, 
 F. Ogliaro, M. J. Bearpark, J. J. Heyd, E. N. Brothers, K. N. Kudin, 
 V. N. Staroverov, T. A. Keith, R. Kobayashi, J. Normand, 
 K. Raghavachari, A. P. Rendell, J. C. Burant, S. S. Iyengar, 
 J. Tomasi, M. Cossi, J. M. Millam, M. Klene, C. Adamo, R. Cammi, 
 J. W. Ochterski, R. L. Martin, K. Morokuma, O. Farkas, 
 J. B. Foresman, and D. J. Fox, Gaussian, Inc., Wallingford CT, 2016.
 
 ******************************************
 Gaussian 16:  EM64L-G16RevA.03 25-Dec-2016
                21-Jan-2018 
 ******************************************
 %nprocshared=32
 Will use up to   32 processors via shared memory.
 %mem=32GB
 %chk=allatoms_t.chk
 ---------------------------------------
 #p wb97xd/cc-pvdz sp scf=(maxcycles=20)
 ---------------------------------------
 1/38=1,172=1/1;
 2/12=2,17=6,18=5,40=1/2;
 3/5=16,11=2,25=1,30=1,74=-58/1,2,3;
 4//1;
 5/5=2,7=20,38=5/2;
 6/7=2,8=2,9=2,10=2,28=1/1;
 99/5=1,9=1/99;
 Leave Link    1 at Sun Jan 21 21:18:12 2018, MaxMem=  4294967296 cpu:               2.7 elap:               0.1
 (Enter /share/apps/g16/l101.exe)
 ------------------
 Base pair stacking
 ------------------
 Symbolic Z-matrix:
 Charge =  0 Multiplicity = 1
 N                     6.706     7.22349  -6.04088 
 C                     7.20026   8.60623  -6.18831 
 C                     5.4179    5.44169  -5.98337 
 N                     6.69266   5.01005  -5.64662 
 C                     7.41767   6.10079  -5.69474 
 H                     8.48682   6.14435  -5.48505 
 N                     3.10885   5.4901   -6.4618 
 C                     3.25653   6.80295  -6.66721 
 H                     2.34831   7.33484  -6.94737 
 N                     4.35252   7.55389  -6.57892 
 C                     5.41049   6.8037   -6.22915 
 C                     4.19221   4.76321  -6.11104 
 N                     4.0468    3.45256  -5.90556 
 H                     4.82146   2.87553  -5.64448 
 H                     3.15908   3.00301  -6.00554 
 H                     7.90709   8.63541  -6.89523 
 H                     6.44395   9.20526  -6.44961 
 H                     7.58624   8.91878  -5.32037 
 N                     1.85505   6.71853  -3.24635 
 C                     0.93432   5.69988  -3.29776 
 C                     1.54848   8.15491  -3.39973 
 N                    -2.34724   4.62793  -3.67734 
 H                    -2.84418   3.76059  -3.68072 
 H                    -2.88527   5.45965  -3.81689 
 N                    -0.39446   5.83888  -3.49544 
 C                    -1.01904   4.67461  -3.49399 
 N                    -0.39214   3.46559  -3.31297 
 H                    -0.9497    2.62541  -3.32696 
 C                     0.97389   3.29887  -3.10792 
 O                     1.43953   2.16283  -2.9552 
 C                     1.65824   4.54086  -3.10692 
 N                     3.00633   4.82614  -2.93909 
 C                     3.07537   6.12665  -3.02918 
 H                     3.99472   6.70705  -2.94433 
 H                     2.04727   8.52199  -4.18412 
 H                     0.56697   8.27022  -3.54672 
 H                     1.82048   8.64566  -2.57269 
 H                    -4.18009  -1.21515  -4.14387 
 H                    -4.22384  -1.27873  -2.38356 
 H                    -3.97797   0.26349  -3.20359 
 H                    -0.03379  -3.48216  -3.24085 
 C                    -0.44498  -2.47296  -3.21462 
 O                     1.6754   -1.41332  -3.12366 
 C                     0.44634  -1.35516  -3.1521 
 H                     0.41985   0.6899   -3.0789 
 N                    -0.17709  -0.124    -3.12313 
 O                    -1.98578   1.24925  -3.11848 
 C                    -1.52729   0.12072  -3.14785 
 H                    -2.48691  -3.08207  -3.28737 
 C                    -1.7668   -2.26626  -3.24001 
 C                    -3.77104  -0.79585  -3.23671 
 N                    -2.32119  -1.00768  -3.20833 
 H                    -4.12728   2.47942  -7.58281 
 H                    -3.38745   3.5438   -6.59193 
 H                    -4.36758   2.39595  -5.97076 
 H                     2.66937   0.04441  -5.86764 
 H                     1.34829  -1.00534  -6.11839 
 N                     1.6875   -0.06915  -6.01989 
 C                     0.86614   0.98052  -6.08868 
 C                    -1.24148   2.05402  -6.3481 
 N                    -0.75797   3.29989  -6.21223 
 H                     1.0338    4.24361  -5.89671 
 C                     0.55887   3.2709   -6.01732 
 N                     1.38331   2.22062  -5.9481 
 H                    -3.46011  -0.25428  -6.7971 
 C                    -2.54343   0.31244  -6.63139 
 N                    -1.35514  -0.2197   -6.48139 
 C                    -0.52039   0.87362  -6.30095 
 C                    -3.69959   2.59898  -6.68682 
 N                    -2.54821   1.68426  -6.56191 
 
 ITRead=  0  0  0  0  0  0  0  0  0  0  0  0  0  0  0  0  0  0  0  0
 ITRead=  0  0  0  0  0  0  0  0  0  0  0  0  0  0  0  0  0  0  0  0
 ITRead=  0  0  0  0  0  0  0  0  0  0  0  0  0  0  0  0  0  0  0  0
 ITRead=  0  0  0  0  0  0  0  0  0  0
 MicOpt= -1 -1 -1 -1 -1 -1 -1 -1 -1 -1 -1 -1 -1 -1 -1 -1 -1 -1 -1 -1
 MicOpt= -1 -1 -1 -1 -1 -1 -1 -1 -1 -1 -1 -1 -1 -1 -1 -1 -1 -1 -1 -1
 MicOpt= -1 -1 -1 -1 -1 -1 -1 -1 -1 -1 -1 -1 -1 -1 -1 -1 -1 -1 -1 -1
 MicOpt= -1 -1 -1 -1 -1 -1 -1 -1 -1 -1
 NAtoms=     70 NQM=       70 NQMF=       0 NMMI=      0 NMMIF=      0
                NMic=       0 NMicF=      0.
                    Isotopes and Nuclear Properties:
 (Nuclear quadrupole moments (NQMom) in fm**2, nuclear magnetic moments (NMagM)
  in nuclear magnetons)

  Atom         1           2           3           4           5           6           7           8           9          10
 IAtWgt=          14          12          12          14          12           1          14          12           1          14
 AtmWgt=  14.0030740  12.0000000  12.0000000  14.0030740  12.0000000   1.0078250  14.0030740  12.0000000   1.0078250  14.0030740
 NucSpn=           2           0           0           2           0           1           2           0           1           2
 AtZEff=  -0.0000000  -0.0000000  -0.0000000  -0.0000000  -0.0000000  -0.0000000  -0.0000000  -0.0000000  -0.0000000  -0.0000000
 NQMom=    2.0440000   0.0000000   0.0000000   2.0440000   0.0000000   0.0000000   2.0440000   0.0000000   0.0000000   2.0440000
 NMagM=    0.4037610   0.0000000   0.0000000   0.4037610   0.0000000   2.7928460   0.4037610   0.0000000   2.7928460   0.4037610
 AtZNuc=   7.0000000   6.0000000   6.0000000   7.0000000   6.0000000   1.0000000   7.0000000   6.0000000   1.0000000   7.0000000

  Atom        11          12          13          14          15          16          17          18          19          20
 IAtWgt=          12          12          14           1           1           1           1           1          14          12
 AtmWgt=  12.0000000  12.0000000  14.0030740   1.0078250   1.0078250   1.0078250   1.0078250   1.0078250  14.0030740  12.0000000
 NucSpn=           0           0           2           1           1           1           1           1           2           0
 AtZEff=  -0.0000000  -0.0000000  -0.0000000  -0.0000000  -0.0000000  -0.0000000  -0.0000000  -0.0000000  -0.0000000  -0.0000000
 NQMom=    0.0000000   0.0000000   2.0440000   0.0000000   0.0000000   0.0000000   0.0000000   0.0000000   2.0440000   0.0000000
 NMagM=    0.0000000   0.0000000   0.4037610   2.7928460   2.7928460   2.7928460   2.7928460   2.7928460   0.4037610   0.0000000
 AtZNuc=   6.0000000   6.0000000   7.0000000   1.0000000   1.0000000   1.0000000   1.0000000   1.0000000   7.0000000   6.0000000

  Atom        21          22          23          24          25          26          27          28          29          30
 IAtWgt=          12          14           1           1          14          12          14           1          12          16
 AtmWgt=  12.0000000  14.0030740   1.0078250   1.0078250  14.0030740  12.0000000  14.0030740   1.0078250  12.0000000  15.9949146
 NucSpn=           0           2           1           1           2           0           2           1           0           0
 AtZEff=  -0.0000000  -0.0000000  -0.0000000  -0.0000000  -0.0000000  -0.0000000  -0.0000000  -0.0000000  -0.0000000  -0.0000000
 NQMom=    0.0000000   2.0440000   0.0000000   0.0000000   2.0440000   0.0000000   2.0440000   0.0000000   0.0000000   0.0000000
 NMagM=    0.0000000   0.4037610   2.7928460   2.7928460   0.4037610   0.0000000   0.4037610   2.7928460   0.0000000   0.0000000
 AtZNuc=   6.0000000   7.0000000   1.0000000   1.0000000   7.0000000   6.0000000   7.0000000   1.0000000   6.0000000   8.0000000

  Atom        31          32          33          34          35          36          37          38          39          40
 IAtWgt=          12          14          12           1           1           1           1           1           1           1
 AtmWgt=  12.0000000  14.0030740  12.0000000   1.0078250   1.0078250   1.0078250   1.0078250   1.0078250   1.0078250   1.0078250
 NucSpn=           0           2           0           1           1           1           1           1           1           1
 AtZEff=  -0.0000000  -0.0000000  -0.0000000  -0.0000000  -0.0000000  -0.0000000  -0.0000000  -0.0000000  -0.0000000  -0.0000000
 NQMom=    0.0000000   2.0440000   0.0000000   0.0000000   0.0000000   0.0000000   0.0000000   0.0000000   0.0000000   0.0000000
 NMagM=    0.0000000   0.4037610   0.0000000   2.7928460   2.7928460   2.7928460   2.7928460   2.7928460   2.7928460   2.7928460
 AtZNuc=   6.0000000   7.0000000   6.0000000   1.0000000   1.0000000   1.0000000   1.0000000   1.0000000   1.0000000   1.0000000

  Atom        41          42          43          44          45          46          47          48          49          50
 IAtWgt=           1          12          16          12           1          14          16          12           1          12
 AtmWgt=   1.0078250  12.0000000  15.9949146  12.0000000   1.0078250  14.0030740  15.9949146  12.0000000   1.0078250  12.0000000
 NucSpn=           1           0           0           0           1           2           0           0           1           0
 AtZEff=  -0.0000000  -0.0000000  -0.0000000  -0.0000000  -0.0000000  -0.0000000  -0.0000000  -0.0000000  -0.0000000  -0.0000000
 NQMom=    0.0000000   0.0000000   0.0000000   0.0000000   0.0000000   2.0440000   0.0000000   0.0000000   0.0000000   0.0000000
 NMagM=    2.7928460   0.0000000   0.0000000   0.0000000   2.7928460   0.4037610   0.0000000   0.0000000   2.7928460   0.0000000
 AtZNuc=   1.0000000   6.0000000   8.0000000   6.0000000   1.0000000   7.0000000   8.0000000   6.0000000   1.0000000   6.0000000

  Atom        51          52          53          54          55          56          57          58          59          60
 IAtWgt=          12          14           1           1           1           1           1          14          12          12
 AtmWgt=  12.0000000  14.0030740   1.0078250   1.0078250   1.0078250   1.0078250   1.0078250  14.0030740  12.0000000  12.0000000
 NucSpn=           0           2           1           1           1           1           1           2           0           0
 AtZEff=  -0.0000000  -0.0000000  -0.0000000  -0.0000000  -0.0000000  -0.0000000  -0.0000000  -0.0000000  -0.0000000  -0.0000000
 NQMom=    0.0000000   2.0440000   0.0000000   0.0000000   0.0000000   0.0000000   0.0000000   2.0440000   0.0000000   0.0000000
 NMagM=    0.0000000   0.4037610   2.7928460   2.7928460   2.7928460   2.7928460   2.7928460   0.4037610   0.0000000   0.0000000
 AtZNuc=   6.0000000   7.0000000   1.0000000   1.0000000   1.0000000   1.0000000   1.0000000   7.0000000   6.0000000   6.0000000

  Atom        61          62          63          64          65          66          67          68          69          70
 IAtWgt=          14           1          12          14           1          12          14          12          12          14
 AtmWgt=  14.0030740   1.0078250  12.0000000  14.0030740   1.0078250  12.0000000  14.0030740  12.0000000  12.0000000  14.0030740
 NucSpn=           2           1           0           2           1           0           2           0           0           2
 AtZEff=  -0.0000000  -0.0000000  -0.0000000  -0.0000000  -0.0000000  -0.0000000  -0.0000000  -0.0000000  -0.0000000  -0.0000000
 NQMom=    2.0440000   0.0000000   0.0000000   2.0440000   0.0000000   0.0000000   2.0440000   0.0000000   0.0000000   2.0440000
 NMagM=    0.4037610   2.7928460   0.0000000   0.4037610   2.7928460   0.0000000   0.4037610   0.0000000   0.0000000   0.4037610
 AtZNuc=   7.0000000   1.0000000   6.0000000   7.0000000   1.0000000   6.0000000   7.0000000   6.0000000   6.0000000   7.0000000
 Leave Link  101 at Sun Jan 21 21:18:12 2018, MaxMem=  4294967296 cpu:               7.7 elap:               0.3
 (Enter /share/apps/g16/l202.exe)
 Stoichiometry    C23H27N17O3
 Framework group  C1[X(C23H27N17O3)]
 Deg. of freedom   204
 Full point group                 C1      NOp   1
 Largest Abelian subgroup         C1      NOp   1
 Largest concise Abelian subgroup C1      NOp   1
                         Standard orientation:                         
 ---------------------------------------------------------------------
 Center     Atomic      Atomic             Coordinates (Angstroms)
 Number     Number       Type             X           Y           Z
 ---------------------------------------------------------------------
      1          7           0       -6.923058   -1.187222    0.270071
      2          6           0       -8.262966   -0.572343    0.337657
      3          6           0       -4.759613   -1.547065    0.435423
      4          7           0       -5.299981   -2.688107   -0.139688
      5          6           0       -6.581744   -2.425647   -0.216294
      6          1           0       -7.330719   -3.106010   -0.622608
      7          7           0       -3.245954    0.019505    1.339659
      8          6           0       -4.302403    0.816894    1.528511
      9          1           0       -4.081024    1.782878    1.980315
     10          7           0       -5.585232    0.601197    1.244391
     11          6           0       -5.747874   -0.613143    0.693617
     12          6           0       -3.442619   -1.195804    0.783407
     13          7           0       -2.389297   -1.993199    0.594084
     14          1           0       -2.488163   -2.901269    0.185602
     15          1           0       -1.465967   -1.710252    0.853969
     16          1           0       -8.864125   -1.140814    0.899478
     17          1           0       -8.192453    0.338545    0.743157
     18          1           0       -8.644092   -0.496572   -0.583750
     19          7           0       -2.839179    2.209298   -1.568865
     20          6           0       -1.484544    2.119415   -1.356922
     21          6           0       -3.660158    3.416069   -1.344374
     22          7           0        1.510481    3.581171   -0.379739
     23          1           0        2.469105    3.311481   -0.292874
     24          1           0        1.279769    4.522553   -0.132189
     25          7           0       -0.682333    3.110457   -0.911559
     26          6           0        0.575640    2.719849   -0.808818
     27          7           0        1.016341    1.455867   -1.118064
     28          1           0        1.996649    1.245890   -1.009082
     29          6           0        0.208708    0.420450   -1.577977
     30          8           0        0.706567   -0.684178   -1.828307
     31          6           0       -1.145507    0.824968   -1.693474
     32          7           0       -2.264783    0.116448   -2.108346
     33          6           0       -3.243336    0.975809   -2.018119
     34          1           0       -4.283067    0.761373   -2.267605
     35          1           0       -4.364987    3.219822   -0.663557
     36          1           0       -3.076654    4.156908   -1.014306
     37          1           0       -4.092993    3.691089   -2.202180
     38          1           0        6.858252    0.652413    0.356667
     39          1           0        7.153769    0.885376   -1.364683
     40          1           0        5.789978    1.690518   -0.588047
     41          1           0        5.686616   -3.696451   -1.334852
     42          6           0        5.262875   -2.694086   -1.271940
     43          8           0        3.048945   -3.400724   -1.747645
     44          6           0        3.860026   -2.512137   -1.488147
     45          1           0        2.442148   -1.036997   -1.531917
     46          7           0        3.427519   -1.205359   -1.385539
     47          8           0        3.716789    1.019607   -1.034759
     48          6           0        4.191547   -0.100371   -1.104824
     49          1           0        7.106021   -1.720570   -0.823759
     50          6           0        6.033934   -1.635745   -0.996329
     51          6           0        6.390515    0.793224   -0.606385
     52          7           0        5.534314   -0.357020   -0.909043
     53          1           0        3.780091    2.745272    3.766038
     54          1           0        2.636563    3.124978    2.665919
     55          1           0        4.207978    3.079474    2.227000
     56          1           0        0.983420   -3.444246    0.777052
     57          1           0        2.613859   -3.306818    1.259636
     58          7           0        1.728286   -2.865779    1.109764
     59          6           0        1.549644   -1.564004    1.343516
     60          6           0        2.225894    0.618887    2.006415
     61          7           0        1.025637    1.184257    1.796235
     62          1           0       -0.849482    0.654867    1.160408
     63          6           0        0.153636    0.278909    1.357081
     64          7           0        0.330618   -1.025371    1.122321
     65          1           0        5.346031    0.460034    2.838088
     66          6           0        4.327939    0.249147    2.509533
     67          7           0        3.895459   -0.929347    2.132943
     68          6           0        2.564046   -0.708935    1.811275
     69          6           0        3.509839    2.659589    2.807063
     70          7           0        3.370334    1.232533    2.457719
 ---------------------------------------------------------------------
 Rotational constants (GHZ):           0.1594459           0.0497496           0.0464195
 Leave Link  202 at Sun Jan 21 21:18:13 2018, MaxMem=  4294967296 cpu:               0.4 elap:               0.0
 (Enter /share/apps/g16/l301.exe)
 Standard basis: CC-pVDZ (5D, 7F)
 Ernie: Thresh=  0.10000D-02 Tol=  0.10000D-05 Strict=F.
 Ernie:  86 primitive shells out of 1081 were deleted.
 There are   780 symmetry adapted cartesian basis functions of A   symmetry.
 There are   737 symmetry adapted basis functions of A   symmetry.
   737 basis functions,  1608 primitive gaussians,   780 cartesian basis functions
   154 alpha electrons      154 beta electrons
       nuclear repulsion energy      5477.3373999795 Hartrees.
 IExCor= 4639 DFT=T Ex+Corr=wB97XD ExCW=0 ScaHFX=  1.000000
 ScaDFX=  1.000000  1.000000  1.000000  1.000000 ScalE2=  1.000000  1.000000
 IRadAn=      5 IRanWt=     -1 IRanGd=            0 ICorTp=0 IEmpDi=121
 HFx  wShort=  0.000000 wLong=  0.200000 cFull=  0.222036 cShort=  0.000000 cLong=  0.777964
 DFx  wShort=  0.000000 wLong=  0.200000 cFull=  0.000000 cShort=  0.000000 cLong=  1.000000
 NAtoms=   70 NActive=   70 NUniq=   70 SFac= 1.00D+00 NAtFMM=   60 NAOKFM=T Big=T
 Integral buffers will be    131072 words long.
 Raffenetti 2 integral format.
 Two-electron integral symmetry is turned on.
 R6Disp:  Grimme-D2 Dispersion energy=       -0.0707900484 Hartrees.
 Nuclear repulsion after empirical dispersion term =     5477.2666099310 Hartrees.
 Leave Link  301 at Sun Jan 21 21:18:13 2018, MaxMem=  4294967296 cpu:               3.0 elap:               0.1
 (Enter /share/apps/g16/l302.exe)
 NPDir=0 NMtPBC=     1 NCelOv=     1 NCel=       1 NClECP=     1 NCelD=      1
         NCelK=      1 NCelE2=     1 NClLst=     1 CellRange=     0.0.
 One-electron integrals computed using PRISM.
 One-electron integral symmetry used in STVInt
 NBasis=   737 RedAO= T EigKep=  7.12D-04  NBF=   737
 NBsUse=   737 1.00D-06 EigRej= -1.00D+00 NBFU=   737
 Precomputing XC quadrature grid using
 IXCGrd= 4 IRadAn=           5 IRanWt=          -1 IRanGd=           0 AccXCQ= 0.00D+00.
 Generated NRdTot=       0 NPtTot=           0 NUsed=           0 NTot=          32
 NSgBfM=   760   757   757   760   760 MxSgAt=    70 MxSgA2=    70.
 Leave Link  302 at Sun Jan 21 21:18:17 2018, MaxMem=  4294967296 cpu:             139.1 elap:               4.4
 (Enter /share/apps/g16/l303.exe)
 DipDrv:  MaxL=1.
 Leave Link  303 at Sun Jan 21 21:18:18 2018, MaxMem=  4294967296 cpu:              12.3 elap:               0.4
 (Enter /share/apps/g16/l401.exe)
 ExpMin= 1.22D-01 ExpMax= 1.17D+04 ExpMxC= 4.01D+02 IAcc=3 IRadAn=         5 AccDes= 0.00D+00
 Harris functional with IExCor= 4639 and IRadAn=       5 diagonalized for initial guess.
 HarFok:  IExCor= 4639 AccDes= 0.00D+00 IRadAn=         5 IDoV= 1 UseB2=F ITyADJ=14
 ICtDFT=  3500011 ScaDFX=  1.000000  1.000000  1.000000  1.000000
 FoFCou: FMM=F IPFlag=           0 FMFlag=      100000 FMFlg1=        2001
         NFxFlg=           0 DoJE=T BraDBF=F KetDBF=T FulRan=T
         wScrn=  0.000000 ICntrl=       500 IOpCl=  0 I1Cent=   200000004 NGrid=           0
         NMat0=    1 NMatS0=      1 NMatT0=    0 NMatD0=    1 NMtDS0=    0 NMtDT0=    0
 Petite list used in FoFCou.
 Harris En= -1963.88557037756    
 JPrj=0 DoOrth=F DoCkMO=F.
 Leave Link  401 at Sun Jan 21 21:18:30 2018, MaxMem=  4294967296 cpu:             396.4 elap:              12.4
 (Enter /share/apps/g16/l502.exe)
 Integral symmetry usage will be decided dynamically.
 Closed shell SCF:
 Using DIIS extrapolation, IDIIS=  1040.
 NGot=  4294967296 LenX=  4293717438 LenY=  4293108258
 Requested convergence on RMS density matrix=1.00D-08 within  20 cycles.
 Requested convergence on MAX density matrix=1.00D-06.
 Requested convergence on             energy=1.00D-06.
 No special actions if energy rises.
 Fock matrices will be formed incrementally for  20 cycles.
 Integral accuracy reduced to 1.0D-05 until final iterations.

 Cycle   1  Pass 0  IDiag  1:
 FoFJK:  IHMeth= 1 ICntrl=       0 DoSepK=T KAlg= 0 I1Cent=           0 FoldK=F
 IRaf=         1 NMat=       1 IRICut=       1 DoRegI=T DoRafI=F ISym2E= 0 IDoP0=0 IntGTp=1.
 FoFCou: FMM=T IPFlag=           0 FMFlag=      100000 FMFlg1=        2001
         NFxFlg=           0 DoJE=T BraDBF=F KetDBF=F FulRan=T
         wScrn=  0.000000 ICntrl=       500 IOpCl=  0 I1Cent=           0 NGrid=           0
         NMat0=    1 NMatS0=      1 NMatT0=    0 NMatD0=    1 NMtDS0=    0 NMtDT0=    0
 Symmetry not used in FoFCou.
 FMM levels:  10  Number of levels for PrismC:   9
 E= -2048.31675691760    
 DIIS: error= 1.90D-02 at cycle   1 NSaved=   1.
 NSaved= 1 IEnMin= 1 EnMin= -2048.31675691760     IErMin= 1 ErrMin= 1.90D-02
 ErrMax= 1.90D-02  0.00D+00 EMaxC= 1.00D-01 BMatC= 8.31D-01 BMatP= 8.31D-01
 IDIUse=3 WtCom= 8.10D-01 WtEn= 1.90D-01
 Coeff-Com:  0.100D+01
 Coeff-En:   0.100D+01
 Coeff:      0.100D+01
 Gap=     0.255 Goal=   None    Shift=    0.000
 GapD=    0.255 DampG=1.000 DampE=0.500 DampFc=0.5000 IDamp=-1.
 Damping current iteration by 5.00D-01
 RMSDP=1.57D-03 MaxDP=1.30D-01              OVMax= 1.96D-01

 Cycle   2  Pass 0  IDiag  1:
 RMSU=  7.84D-04    CP:  9.98D-01
 E= -2048.51326626978     Delta-E=       -0.196509352179 Rises=F Damp=T
 DIIS: error= 1.06D-02 at cycle   2 NSaved=   2.
 NSaved= 2 IEnMin= 2 EnMin= -2048.51326626978     IErMin= 2 ErrMin= 1.06D-02
 ErrMax= 1.06D-02  0.00D+00 EMaxC= 1.00D-01 BMatC= 1.45D-01 BMatP= 8.31D-01
 IDIUse=3 WtCom= 8.94D-01 WtEn= 1.06D-01
 Coeff-Com: -0.196D+00 0.120D+01
 Coeff-En:   0.000D+00 0.100D+01
 Coeff:     -0.176D+00 0.118D+01
 Gap=     0.365 Goal=   None    Shift=    0.000
 RMSDP=5.91D-04 MaxDP=3.39D-02 DE=-1.97D-01 OVMax= 1.35D-01

 Cycle   3  Pass 0  IDiag  1:
 RMSU=  5.81D-04    CP:  9.94D-01  1.12D+00
 E= -2048.69105337862     Delta-E=       -0.177787108835 Rises=F Damp=F
 DIIS: error= 6.80D-03 at cycle   3 NSaved=   3.
 NSaved= 3 IEnMin= 3 EnMin= -2048.69105337862     IErMin= 3 ErrMin= 6.80D-03
 ErrMax= 6.80D-03  0.00D+00 EMaxC= 1.00D-01 BMatC= 6.44D-02 BMatP= 1.45D-01
 IDIUse=3 WtCom= 9.32D-01 WtEn= 6.80D-02
 Coeff-Com: -0.234D+00 0.553D+00 0.681D+00
 Coeff-En:   0.000D+00 0.000D+00 0.100D+01
 Coeff:     -0.218D+00 0.516D+00 0.702D+00
 Gap=     0.280 Goal=   None    Shift=    0.000
 RMSDP=3.60D-04 MaxDP=3.27D-02 DE=-1.78D-01 OVMax= 6.56D-02

 Cycle   4  Pass 0  IDiag  1:
 RMSU=  2.03D-04    CP:  9.94D-01  1.41D+00  6.68D-01
 E= -2048.74055221913     Delta-E=       -0.049498840511 Rises=F Damp=F
 DIIS: error= 2.35D-03 at cycle   4 NSaved=   4.
 NSaved= 4 IEnMin= 4 EnMin= -2048.74055221913     IErMin= 4 ErrMin= 2.35D-03
 ErrMax= 2.35D-03  0.00D+00 EMaxC= 1.00D-01 BMatC= 8.79D-03 BMatP= 6.44D-02
 IDIUse=3 WtCom= 9.77D-01 WtEn= 2.35D-02
 Coeff-Com: -0.977D-01 0.189D+00 0.375D+00 0.534D+00
 Coeff-En:   0.000D+00 0.000D+00 0.535D-01 0.946D+00
 Coeff:     -0.954D-01 0.185D+00 0.367D+00 0.543D+00
 Gap=     0.285 Goal=   None    Shift=    0.000
 RMSDP=1.26D-04 MaxDP=1.14D-02 DE=-4.95D-02 OVMax= 1.33D-02

 Cycle   5  Pass 0  IDiag  1:
 RMSU=  6.07D-05    CP:  9.94D-01  1.39D+00  8.00D-01  6.20D-01
 E= -2048.74789610532     Delta-E=       -0.007343886187 Rises=F Damp=F
 DIIS: error= 5.79D-04 at cycle   5 NSaved=   5.
 NSaved= 5 IEnMin= 5 EnMin= -2048.74789610532     IErMin= 5 ErrMin= 5.79D-04
 ErrMax= 5.79D-04  0.00D+00 EMaxC= 1.00D-01 BMatC= 2.82D-04 BMatP= 8.79D-03
 IDIUse=3 WtCom= 9.94D-01 WtEn= 5.79D-03
 Coeff-Com: -0.252D-01 0.433D-01 0.119D+00 0.237D+00 0.625D+00
 Coeff-En:   0.000D+00 0.000D+00 0.000D+00 0.000D+00 0.100D+01
 Coeff:     -0.250D-01 0.430D-01 0.119D+00 0.236D+00 0.627D+00
 Gap=     0.285 Goal=   None    Shift=    0.000
 RMSDP=2.63D-05 MaxDP=1.85D-03 DE=-7.34D-03 OVMax= 3.13D-03

 Failed to achieve initial convergence to 1.0D-08 in  6 cycles.
 Switch to full accuracy anyway.
 Cycle   6  Pass 1  IDiag  1:
 E= -2048.74807661812     Delta-E=       -0.000180512804 Rises=F Damp=F
 DIIS: error= 2.03D-04 at cycle   1 NSaved=   1.
 NSaved= 1 IEnMin= 1 EnMin= -2048.74807661812     IErMin= 1 ErrMin= 2.03D-04
 ErrMax= 2.03D-04  0.00D+00 EMaxC= 1.00D-01 BMatC= 7.04D-05 BMatP= 7.04D-05
 IDIUse=3 WtCom= 9.98D-01 WtEn= 2.03D-03
 Coeff-Com:  0.100D+01
 Coeff-En:   0.100D+01
 Coeff:      0.100D+01
 Gap=     0.285 Goal=   None    Shift=    0.000
 RMSDP=2.63D-05 MaxDP=1.85D-03 DE=-1.81D-04 OVMax= 2.62D-03

 Cycle   7  Pass 1  IDiag  1:
 RMSU=  1.05D-04    CP:  1.00D+00
 E= -2048.74812758802     Delta-E=       -0.000050969905 Rises=F Damp=F
 DIIS: error= 2.53D-04 at cycle   2 NSaved=   2.
 NSaved= 2 IEnMin= 2 EnMin= -2048.74812758802     IErMin= 1 ErrMin= 2.03D-04
 ErrMax= 2.53D-04  0.00D+00 EMaxC= 1.00D-01 BMatC= 4.28D-05 BMatP= 7.04D-05
 IDIUse=3 WtCom= 9.97D-01 WtEn= 2.53D-03
 Coeff-Com:  0.417D+00 0.583D+00
 Coeff-En:   0.000D+00 0.100D+01
 Coeff:      0.416D+00 0.584D+00
 Gap=     0.286 Goal=   None    Shift=    0.000
 RMSDP=1.13D-05 MaxDP=1.05D-03 DE=-5.10D-05 OVMax= 1.49D-03

 Cycle   8  Pass 1  IDiag  1:
 RMSU=  1.10D-05    CP:  1.00D+00  1.02D+00
 E= -2048.74815923755     Delta-E=       -0.000031649528 Rises=F Damp=F
 DIIS: error= 9.89D-05 at cycle   3 NSaved=   3.
 NSaved= 3 IEnMin= 3 EnMin= -2048.74815923755     IErMin= 3 ErrMin= 9.89D-05
 ErrMax= 9.89D-05  0.00D+00 EMaxC= 1.00D-01 BMatC= 9.20D-06 BMatP= 4.28D-05
 IDIUse=1 WtCom= 1.00D+00 WtEn= 0.00D+00
 Coeff-Com: -0.193D-01 0.302D+00 0.717D+00
 Coeff:     -0.193D-01 0.302D+00 0.717D+00
 Gap=     0.286 Goal=   None    Shift=    0.000
 RMSDP=5.50D-06 MaxDP=4.15D-04 DE=-3.16D-05 OVMax= 5.44D-04

 Cycle   9  Pass 1  IDiag  1:
 RMSU=  3.79D-06    CP:  1.00D+00  1.05D+00  7.74D-01
 E= -2048.74816803206     Delta-E=       -0.000008794509 Rises=F Damp=F
 DIIS: error= 3.49D-05 at cycle   4 NSaved=   4.
 NSaved= 4 IEnMin= 4 EnMin= -2048.74816803206     IErMin= 4 ErrMin= 3.49D-05
 ErrMax= 3.49D-05  0.00D+00 EMaxC= 1.00D-01 BMatC= 4.83D-07 BMatP= 9.20D-06
 IDIUse=1 WtCom= 1.00D+00 WtEn= 0.00D+00
 Coeff-Com: -0.324D-01 0.794D-01 0.262D+00 0.691D+00
 Coeff:     -0.324D-01 0.794D-01 0.262D+00 0.691D+00
 Gap=     0.286 Goal=   None    Shift=    0.000
 RMSDP=1.43D-06 MaxDP=1.30D-04 DE=-8.79D-06 OVMax= 5.05D-04

 Cycle  10  Pass 1  IDiag  1:
 RMSU=  1.27D-06    CP:  1.00D+00  1.06D+00  8.09D-01  1.11D+00
 E= -2048.74816885899     Delta-E=       -0.000000826924 Rises=F Damp=F
 DIIS: error= 1.56D-05 at cycle   5 NSaved=   5.
 NSaved= 5 IEnMin= 5 EnMin= -2048.74816885899     IErMin= 5 ErrMin= 1.56D-05
 ErrMax= 1.56D-05  0.00D+00 EMaxC= 1.00D-01 BMatC= 1.16D-07 BMatP= 4.83D-07
 IDIUse=1 WtCom= 1.00D+00 WtEn= 0.00D+00
 Coeff-Com: -0.344D-02-0.547D-01-0.123D+00 0.205D+00 0.976D+00
 Coeff:     -0.344D-02-0.547D-01-0.123D+00 0.205D+00 0.976D+00
 Gap=     0.286 Goal=   None    Shift=    0.000
 RMSDP=1.19D-06 MaxDP=7.62D-05 DE=-8.27D-07 OVMax= 2.44D-04

 Cycle  11  Pass 1  IDiag  1:
 RMSU=  4.82D-07    CP:  1.00D+00  1.06D+00  8.19D-01  1.39D+00  1.17D+00
 E= -2048.74816910939     Delta-E=       -0.000000250407 Rises=F Damp=F
 DIIS: error= 8.54D-06 at cycle   6 NSaved=   6.
 NSaved= 6 IEnMin= 6 EnMin= -2048.74816910939     IErMin= 6 ErrMin= 8.54D-06
 ErrMax= 8.54D-06  0.00D+00 EMaxC= 1.00D-01 BMatC= 2.73D-08 BMatP= 1.16D-07
 IDIUse=1 WtCom= 1.00D+00 WtEn= 0.00D+00
 Coeff-Com:  0.467D-02-0.429D-01-0.114D+00-0.662D-03 0.520D+00 0.633D+00
 Coeff:      0.467D-02-0.429D-01-0.114D+00-0.662D-03 0.520D+00 0.633D+00
 Gap=     0.286 Goal=   None    Shift=    0.000
 RMSDP=3.53D-07 MaxDP=3.60D-05 DE=-2.50D-07 OVMax= 1.26D-04

 Cycle  12  Pass 1  IDiag  1:
 RMSU=  1.76D-07    CP:  1.00D+00  1.06D+00  8.21D-01  1.45D+00  1.30D+00
                    CP:  9.28D-01
 E= -2048.74816914894     Delta-E=       -0.000000039546 Rises=F Damp=F
 DIIS: error= 1.18D-06 at cycle   7 NSaved=   7.
 NSaved= 7 IEnMin= 7 EnMin= -2048.74816914894     IErMin= 7 ErrMin= 1.18D-06
 ErrMax= 1.18D-06  0.00D+00 EMaxC= 1.00D-01 BMatC= 7.25D-10 BMatP= 2.73D-08
 IDIUse=1 WtCom= 1.00D+00 WtEn= 0.00D+00
 Coeff-Com:  0.105D-02-0.631D-02-0.183D-01-0.805D-02 0.484D-01 0.128D+00
 Coeff-Com:  0.855D+00
 Coeff:      0.105D-02-0.631D-02-0.183D-01-0.805D-02 0.484D-01 0.128D+00
 Coeff:      0.855D+00
 Gap=     0.286 Goal=   None    Shift=    0.000
 RMSDP=8.41D-08 MaxDP=5.08D-06 DE=-3.95D-08 OVMax= 2.25D-05

 Cycle  13  Pass 1  IDiag  1:
 RMSU=  4.84D-08    CP:  1.00D+00  1.06D+00  8.20D-01  1.46D+00  1.32D+00
                    CP:  1.02D+00  1.15D+00
 E= -2048.74816915047     Delta-E=       -0.000000001533 Rises=F Damp=F
 DIIS: error= 6.33D-07 at cycle   8 NSaved=   8.
 NSaved= 8 IEnMin= 8 EnMin= -2048.74816915047     IErMin= 8 ErrMin= 6.33D-07
 ErrMax= 6.33D-07  0.00D+00 EMaxC= 1.00D-01 BMatC= 2.85D-10 BMatP= 7.25D-10
 IDIUse=1 WtCom= 1.00D+00 WtEn= 0.00D+00
 Coeff-Com: -0.720D-03 0.836D-02 0.213D-01-0.181D-02-0.113D+00-0.100D+00
 Coeff-Com:  0.418D+00 0.769D+00
 Coeff:     -0.720D-03 0.836D-02 0.213D-01-0.181D-02-0.113D+00-0.100D+00
 Coeff:      0.418D+00 0.769D+00
 Gap=     0.286 Goal=   None    Shift=    0.000
 RMSDP=4.35D-08 MaxDP=2.50D-06 DE=-1.53D-09 OVMax= 1.06D-05

 Cycle  14  Pass 1  IDiag  1:
 RMSU=  2.53D-08    CP:  1.00D+00  1.06D+00  8.20D-01  1.46D+00  1.32D+00
                    CP:  1.06D+00  1.30D+00  1.09D+00
 E= -2048.74816915094     Delta-E=       -0.000000000470 Rises=F Damp=F
 DIIS: error= 1.97D-07 at cycle   9 NSaved=   9.
 NSaved= 9 IEnMin= 9 EnMin= -2048.74816915094     IErMin= 9 ErrMin= 1.97D-07
 ErrMax= 1.97D-07  0.00D+00 EMaxC= 1.00D-01 BMatC= 2.41D-11 BMatP= 2.85D-10
 IDIUse=1 WtCom= 1.00D+00 WtEn= 0.00D+00
 Coeff-Com: -0.395D-03 0.400D-02 0.104D-01 0.209D-03-0.497D-01-0.535D-01
 Coeff-Com:  0.766D-01 0.286D+00 0.726D+00
 Coeff:     -0.395D-03 0.400D-02 0.104D-01 0.209D-03-0.497D-01-0.535D-01
 Coeff:      0.766D-01 0.286D+00 0.726D+00
 Gap=     0.286 Goal=   None    Shift=    0.000
 RMSDP=1.25D-08 MaxDP=8.62D-07 DE=-4.70D-10 OVMax= 3.27D-06

 Cycle  15  Pass 1  IDiag  1:
 RMSU=  8.38D-09    CP:  1.00D+00  1.06D+00  8.20D-01  1.47D+00  1.32D+00
                    CP:  1.07D+00  1.32D+00  1.21D+00  1.12D+00
 E= -2048.74816915095     Delta-E=       -0.000000000004 Rises=F Damp=F
 DIIS: error= 9.65D-08 at cycle  10 NSaved=  10.
 NSaved=10 IEnMin=10 EnMin= -2048.74816915095     IErMin=10 ErrMin= 9.65D-08
 ErrMax= 9.65D-08  0.00D+00 EMaxC= 1.00D-01 BMatC= 4.69D-12 BMatP= 2.41D-11
 IDIUse=1 WtCom= 1.00D+00 WtEn= 0.00D+00
 Coeff-Com:  0.165D-04-0.409D-03-0.945D-03 0.159D-03 0.676D-02 0.288D-02
 Coeff-Com: -0.555D-01-0.668D-01 0.279D+00 0.835D+00
 Coeff:      0.165D-04-0.409D-03-0.945D-03 0.159D-03 0.676D-02 0.288D-02
 Coeff:     -0.555D-01-0.668D-01 0.279D+00 0.835D+00
 Gap=     0.286 Goal=   None    Shift=    0.000
 RMSDP=6.08D-09 MaxDP=3.79D-07 DE=-3.64D-12 OVMax= 1.27D-06

 SCF Done:  E(RwB97XD) =  -2048.74816915     A.U. after   15 cycles
            NFock= 15  Conv=0.61D-08     -V/T= 2.0054
 KE= 2.037709189715D+03 PE=-1.573547741275D+04 EE= 6.171753443958D+03
 Leave Link  502 at Sun Jan 21 21:29:41 2018, MaxMem=  4294967296 cpu:           20784.5 elap:             670.9
 (Enter /share/apps/g16/l601.exe)
 Copying SCF densities to generalized density rwf, IOpCl= 0 IROHF=0.

 **********************************************************************

            Population analysis using the SCF density.

 **********************************************************************

 Orbital symmetries:
       Occupied  (A) (A) (A) (A) (A) (A) (A) (A) (A) (A) (A) (A)
                 (A) (A) (A) (A) (A) (A) (A) (A) (A) (A) (A) (A)
                 (A) (A) (A) (A) (A) (A) (A) (A) (A) (A) (A) (A)
                 (A) (A) (A) (A) (A) (A) (A) (A) (A) (A) (A) (A)
                 (A) (A) (A) (A) (A) (A) (A) (A) (A) (A) (A) (A)
                 (A) (A) (A) (A) (A) (A) (A) (A) (A) (A) (A) (A)
                 (A) (A) (A) (A) (A) (A) (A) (A) (A) (A) (A) (A)
                 (A) (A) (A) (A) (A) (A) (A) (A) (A) (A) (A) (A)
                 (A) (A) (A) (A) (A) (A) (A) (A) (A) (A) (A) (A)
                 (A) (A) (A) (A) (A) (A) (A) (A) (A) (A) (A) (A)
                 (A) (A) (A) (A) (A) (A) (A) (A) (A) (A) (A) (A)
                 (A) (A) (A) (A) (A) (A) (A) (A) (A) (A) (A) (A)
                 (A) (A) (A) (A) (A) (A) (A) (A) (A) (A)
       Virtual   (A) (A) (A) (A) (A) (A) (A) (A) (A) (A) (A) (A)
                 (A) (A) (A) (A) (A) (A) (A) (A) (A) (A) (A) (A)
                 (A) (A) (A) (A) (A) (A) (A) (A) (A) (A) (A) (A)
                 (A) (A) (A) (A) (A) (A) (A) (A) (A) (A) (A) (A)
                 (A) (A) (A) (A) (A) (A) (A) (A) (A) (A) (A) (A)
                 (A) (A) (A) (A) (A) (A) (A) (A) (A) (A) (A) (A)
                 (A) (A) (A) (A) (A) (A) (A) (A) (A) (A) (A) (A)
                 (A) (A) (A) (A) (A) (A) (A) (A) (A) (A) (A) (A)
                 (A) (A) (A) (A) (A) (A) (A) (A) (A) (A) (A) (A)
                 (A) (A) (A) (A) (A) (A) (A) (A) (A) (A) (A) (A)
                 (A) (A) (A) (A) (A) (A) (A) (A) (A) (A) (A) (A)
                 (A) (A) (A) (A) (A) (A) (A) (A) (A) (A) (A) (A)
                 (A) (A) (A) (A) (A) (A) (A) (A) (A) (A) (A) (A)
                 (A) (A) (A) (A) (A) (A) (A) (A) (A) (A) (A) (A)
                 (A) (A) (A) (A) (A) (A) (A) (A) (A) (A) (A) (A)
                 (A) (A) (A) (A) (A) (A) (A) (A) (A) (A) (A) (A)
                 (A) (A) (A) (A) (A) (A) (A) (A) (A) (A) (A) (A)
                 (A) (A) (A) (A) (A) (A) (A) (A) (A) (A) (A) (A)
                 (A) (A) (A) (A) (A) (A) (A) (A) (A) (A) (A) (A)
                 (A) (A) (A) (A) (A) (A) (A) (A) (A) (A) (A) (A)
                 (A) (A) (A) (A) (A) (A) (A) (A) (A) (A) (A) (A)
                 (A) (A) (A) (A) (A) (A) (A) (A) (A) (A) (A) (A)
                 (A) (A) (A) (A) (A) (A) (A) (A) (A) (A) (A) (A)
                 (A) (A) (A) (A) (A) (A) (A) (A) (A) (A) (A) (A)
                 (A) (A) (A) (A) (A) (A) (A) (A) (A) (A) (A) (A)
                 (A) (A) (A) (A) (A) (A) (A) (A) (A) (A) (A) (A)
                 (A) (A) (A) (A) (A) (A) (A) (A) (A) (A) (A) (A)
                 (A) (A) (A) (A) (A) (A) (A) (A) (A) (A) (A) (A)
                 (A) (A) (A) (A) (A) (A) (A) (A) (A) (A) (A) (A)
                 (A) (A) (A) (A) (A) (A) (A) (A) (A) (A) (A) (A)
                 (A) (A) (A) (A) (A) (A) (A) (A) (A) (A) (A) (A)
                 (A) (A) (A) (A) (A) (A) (A) (A) (A) (A) (A) (A)
                 (A) (A) (A) (A) (A) (A) (A) (A) (A) (A) (A) (A)
                 (A) (A) (A) (A) (A) (A) (A) (A) (A) (A) (A) (A)
                 (A) (A) (A) (A) (A) (A) (A) (A) (A) (A) (A) (A)
                 (A) (A) (A) (A) (A) (A) (A) (A) (A) (A) (A) (A)
                 (A) (A) (A) (A) (A) (A) (A) (A) (A) (A) (A) (A)
                 (A) (A) (A) (A) (A) (A) (A) (A) (A) (A) (A) (A)
                 (A) (A) (A) (A) (A) (A) (A) (A) (A) (A) (A) (A)
                 (A) (A) (A) (A) (A) (A) (A) (A) (A) (A) (A) (A)
                 (A) (A) (A) (A) (A) (A) (A) (A) (A) (A) (A) (A)
                 (A) (A) (A) (A) (A) (A) (A) (A) (A) (A) (A) (A)
                 (A) (A) (A) (A) (A) (A) (A) (A) (A) (A) (A) (A)
                 (A) (A) (A) (A) (A) (A) (A) (A) (A) (A) (A) (A)
                 (A) (A) (A) (A) (A) (A) (A) (A) (A) (A) (A) (A)
                 (A) (A) (A) (A) (A) (A) (A) (A) (A) (A) (A) (A)
                 (A) (A) (A) (A) (A) (A) (A) (A) (A) (A) (A) (A)
                 (A) (A) (A) (A) (A) (A) (A) (A) (A) (A) (A) (A)
                 (A) (A) (A) (A) (A) (A) (A)
 The electronic state is 1-A.
 Alpha  occ. eigenvalues --  -19.26033 -19.22121 -19.20646 -14.52480 -14.51395
 Alpha  occ. eigenvalues --  -14.49399 -14.48629 -14.47941 -14.46834 -14.46830
 Alpha  occ. eigenvalues --  -14.46388 -14.44423 -14.42799 -14.42776 -14.42549
 Alpha  occ. eigenvalues --  -14.42075 -14.42040 -14.41572 -14.40752 -14.40700
 Alpha  occ. eigenvalues --  -10.45601 -10.41236 -10.40206 -10.38403 -10.38254
 Alpha  occ. eigenvalues --  -10.37748 -10.37013 -10.35937 -10.35916 -10.35649
 Alpha  occ. eigenvalues --  -10.34690 -10.34413 -10.34339 -10.34008 -10.33688
 Alpha  occ. eigenvalues --  -10.33370 -10.33190 -10.31505 -10.31348 -10.31029
 Alpha  occ. eigenvalues --  -10.30550 -10.29162 -10.28112  -1.19555  -1.14066
 Alpha  occ. eigenvalues --   -1.13239  -1.13140  -1.11987  -1.10525  -1.09380
 Alpha  occ. eigenvalues --   -1.08600  -1.07744  -1.05547  -1.03301  -1.02579
 Alpha  occ. eigenvalues --   -1.00951  -0.99904  -0.99792  -0.98532  -0.97534
 Alpha  occ. eigenvalues --   -0.96466  -0.95356  -0.93178  -0.91041  -0.86515
 Alpha  occ. eigenvalues --   -0.84995  -0.84541  -0.84047  -0.83866  -0.82887
 Alpha  occ. eigenvalues --   -0.82326  -0.78902  -0.75765  -0.74587  -0.73710
 Alpha  occ. eigenvalues --   -0.73487  -0.73445  -0.73422  -0.71642  -0.69142
 Alpha  occ. eigenvalues --   -0.67411  -0.66843  -0.66606  -0.65473  -0.64502
 Alpha  occ. eigenvalues --   -0.63750  -0.63300  -0.62915  -0.62689  -0.61768
 Alpha  occ. eigenvalues --   -0.60692  -0.60043  -0.59553  -0.59313  -0.58755
 Alpha  occ. eigenvalues --   -0.58430  -0.58385  -0.57020  -0.57001  -0.56523
 Alpha  occ. eigenvalues --   -0.56072  -0.55834  -0.54637  -0.54439  -0.54318
 Alpha  occ. eigenvalues --   -0.53627  -0.53552  -0.52903  -0.52741  -0.52683
 Alpha  occ. eigenvalues --   -0.52320  -0.52221  -0.51683  -0.51357  -0.50726
 Alpha  occ. eigenvalues --   -0.50137  -0.49618  -0.49514  -0.48925  -0.48760
 Alpha  occ. eigenvalues --   -0.48613  -0.48252  -0.47800  -0.47654  -0.47518
 Alpha  occ. eigenvalues --   -0.47419  -0.45555  -0.45326  -0.44030  -0.43281
 Alpha  occ. eigenvalues --   -0.41777  -0.39607  -0.39563  -0.37770  -0.37298
 Alpha  occ. eigenvalues --   -0.37225  -0.36685  -0.36290  -0.35700  -0.34453
 Alpha  occ. eigenvalues --   -0.34121  -0.34078  -0.33312  -0.33209  -0.32844
 Alpha  occ. eigenvalues --   -0.32668  -0.32260  -0.32026  -0.31857  -0.31541
 Alpha  occ. eigenvalues --   -0.30913  -0.28429  -0.26367  -0.25450
 Alpha virt. eigenvalues --    0.03106   0.05027   0.07411   0.08213   0.08595
 Alpha virt. eigenvalues --    0.09167   0.09646   0.10329   0.10868   0.11775
 Alpha virt. eigenvalues --    0.12826   0.13555   0.14454   0.14638   0.15414
 Alpha virt. eigenvalues --    0.15972   0.16364   0.16941   0.17109   0.18273
 Alpha virt. eigenvalues --    0.18743   0.19221   0.19777   0.19898   0.20502
 Alpha virt. eigenvalues --    0.20700   0.21375   0.21578   0.21833   0.22304
 Alpha virt. eigenvalues --    0.22953   0.23075   0.23394   0.23529   0.23691
 Alpha virt. eigenvalues --    0.23944   0.24107   0.24252   0.25049   0.25396
 Alpha virt. eigenvalues --    0.26278   0.26486   0.26651   0.27191   0.27985
 Alpha virt. eigenvalues --    0.28544   0.29234   0.29704   0.30670   0.30751
 Alpha virt. eigenvalues --    0.31250   0.32235   0.32773   0.33216   0.33604
 Alpha virt. eigenvalues --    0.33775   0.34898   0.35110   0.35920   0.36504
 Alpha virt. eigenvalues --    0.36597   0.37581   0.38173   0.39210   0.39641
 Alpha virt. eigenvalues --    0.40049   0.40876   0.41375   0.41488   0.41783
 Alpha virt. eigenvalues --    0.42265   0.42609   0.43295   0.43668   0.44469
 Alpha virt. eigenvalues --    0.45153   0.45553   0.45934   0.46046   0.46951
 Alpha virt. eigenvalues --    0.47388   0.48043   0.48801   0.49277   0.49527
 Alpha virt. eigenvalues --    0.49975   0.50252   0.50424   0.50575   0.51029
 Alpha virt. eigenvalues --    0.51444   0.51877   0.52379   0.52760   0.53560
 Alpha virt. eigenvalues --    0.53949   0.54536   0.54652   0.54858   0.55486
 Alpha virt. eigenvalues --    0.55825   0.56172   0.56378   0.56832   0.57358
 Alpha virt. eigenvalues --    0.57601   0.58284   0.59014   0.59160   0.59914
 Alpha virt. eigenvalues --    0.60080   0.60673   0.60886   0.60942   0.61631
 Alpha virt. eigenvalues --    0.62022   0.62216   0.62555   0.63506   0.63606
 Alpha virt. eigenvalues --    0.63985   0.64560   0.64834   0.65128   0.65357
 Alpha virt. eigenvalues --    0.65486   0.65957   0.66436   0.66704   0.67337
 Alpha virt. eigenvalues --    0.67448   0.68263   0.68438   0.68759   0.69652
 Alpha virt. eigenvalues --    0.70437   0.70750   0.71010   0.71421   0.71564
 Alpha virt. eigenvalues --    0.72018   0.72627   0.73117   0.73272   0.73617
 Alpha virt. eigenvalues --    0.73780   0.74142   0.74638   0.75050   0.75154
 Alpha virt. eigenvalues --    0.75486   0.76264   0.76530   0.76620   0.76690
 Alpha virt. eigenvalues --    0.77347   0.77623   0.78225   0.78585   0.79000
 Alpha virt. eigenvalues --    0.79196   0.79569   0.80028   0.80476   0.80806
 Alpha virt. eigenvalues --    0.81550   0.82059   0.82503   0.82714   0.83071
 Alpha virt. eigenvalues --    0.83602   0.83804   0.84313   0.85073   0.85324
 Alpha virt. eigenvalues --    0.85856   0.86062   0.86333   0.87177   0.87623
 Alpha virt. eigenvalues --    0.87960   0.88312   0.88723   0.88967   0.89984
 Alpha virt. eigenvalues --    0.90608   0.90821   0.91556   0.91847   0.92340
 Alpha virt. eigenvalues --    0.92823   0.93520   0.93945   0.94274   0.94509
 Alpha virt. eigenvalues --    0.95162   0.95376   0.95735   0.95965   0.96253
 Alpha virt. eigenvalues --    0.97111   0.97654   0.97964   0.98166   0.98501
 Alpha virt. eigenvalues --    0.99142   0.99494   1.00387   1.00950   1.01218
 Alpha virt. eigenvalues --    1.01849   1.02116   1.02697   1.02958   1.03214
 Alpha virt. eigenvalues --    1.03752   1.03841   1.04195   1.04898   1.05144
 Alpha virt. eigenvalues --    1.05491   1.06085   1.06614   1.07050   1.08004
 Alpha virt. eigenvalues --    1.08535   1.09128   1.09974   1.10679   1.11253
 Alpha virt. eigenvalues --    1.11734   1.12364   1.12722   1.13023   1.13819
 Alpha virt. eigenvalues --    1.13938   1.14223   1.14554   1.15033   1.15581
 Alpha virt. eigenvalues --    1.16016   1.16427   1.16900   1.17571   1.17707
 Alpha virt. eigenvalues --    1.18218   1.18942   1.19062   1.19407   1.19955
 Alpha virt. eigenvalues --    1.20125   1.21002   1.21124   1.21326   1.21648
 Alpha virt. eigenvalues --    1.21673   1.22219   1.22604   1.23010   1.23098
 Alpha virt. eigenvalues --    1.23458   1.23671   1.23853   1.24319   1.25428
 Alpha virt. eigenvalues --    1.25960   1.26307   1.26591   1.27381   1.28647
 Alpha virt. eigenvalues --    1.28836   1.29519   1.30258   1.31095   1.31551
 Alpha virt. eigenvalues --    1.32176   1.32290   1.33369   1.33473   1.34290
 Alpha virt. eigenvalues --    1.34808   1.34970   1.35764   1.36145   1.37259
 Alpha virt. eigenvalues --    1.37701   1.38472   1.38851   1.39279   1.40114
 Alpha virt. eigenvalues --    1.40867   1.42038   1.43315   1.43665   1.44691
 Alpha virt. eigenvalues --    1.45116   1.45233   1.46975   1.47848   1.48508
 Alpha virt. eigenvalues --    1.48658   1.48794   1.49845   1.50223   1.50867
 Alpha virt. eigenvalues --    1.51410   1.51945   1.52948   1.53513   1.54161
 Alpha virt. eigenvalues --    1.54870   1.55578   1.56402   1.56567   1.57406
 Alpha virt. eigenvalues --    1.58625   1.58917   1.59826   1.60106   1.61840
 Alpha virt. eigenvalues --    1.62109   1.62431   1.62571   1.63421   1.64092
 Alpha virt. eigenvalues --    1.64677   1.65461   1.66406   1.66822   1.67016
 Alpha virt. eigenvalues --    1.67552   1.67939   1.68411   1.69320   1.69379
 Alpha virt. eigenvalues --    1.69540   1.70635   1.70996   1.71121   1.71364
 Alpha virt. eigenvalues --    1.71512   1.72200   1.72543   1.73419   1.73627
 Alpha virt. eigenvalues --    1.74081   1.74325   1.74851   1.75098   1.75545
 Alpha virt. eigenvalues --    1.75748   1.75956   1.76710   1.76937   1.77460
 Alpha virt. eigenvalues --    1.77784   1.78158   1.78473   1.78743   1.79176
 Alpha virt. eigenvalues --    1.79522   1.79650   1.79967   1.80358   1.80463
 Alpha virt. eigenvalues --    1.80717   1.81224   1.81351   1.81748   1.82259
 Alpha virt. eigenvalues --    1.82507   1.82934   1.83551   1.84086   1.84708
 Alpha virt. eigenvalues --    1.85102   1.85868   1.86395   1.86697   1.87272
 Alpha virt. eigenvalues --    1.87595   1.88026   1.88325   1.88579   1.88867
 Alpha virt. eigenvalues --    1.88999   1.89545   1.89852   1.91126   1.91317
 Alpha virt. eigenvalues --    1.91594   1.91978   1.92216   1.93371   1.93485
 Alpha virt. eigenvalues --    1.93970   1.95179   1.95632   1.96555   1.97304
 Alpha virt. eigenvalues --    1.98011   1.98828   1.99448   2.00997   2.01326
 Alpha virt. eigenvalues --    2.01639   2.02185   2.02415   2.03170   2.04285
 Alpha virt. eigenvalues --    2.04678   2.05447   2.06565   2.06777   2.07248
 Alpha virt. eigenvalues --    2.07572   2.08446   2.08790   2.09271   2.09573
 Alpha virt. eigenvalues --    2.10409   2.11070   2.11778   2.12227   2.12588
 Alpha virt. eigenvalues --    2.13600   2.14972   2.15157   2.17747   2.18277
 Alpha virt. eigenvalues --    2.19177   2.19517   2.20193   2.20937   2.21624
 Alpha virt. eigenvalues --    2.21690   2.22440   2.22550   2.23464   2.23579
 Alpha virt. eigenvalues --    2.24281   2.25075   2.25604   2.26211   2.26545
 Alpha virt. eigenvalues --    2.27135   2.27932   2.29038   2.29263   2.29624
 Alpha virt. eigenvalues --    2.29978   2.30296   2.31060   2.32134   2.32486
 Alpha virt. eigenvalues --    2.33255   2.33742   2.33973   2.34499   2.34628
 Alpha virt. eigenvalues --    2.35586   2.36224   2.36329   2.37092   2.37581
 Alpha virt. eigenvalues --    2.38045   2.40008   2.40524   2.40631   2.41059
 Alpha virt. eigenvalues --    2.41281   2.41837   2.42773   2.43066   2.43846
 Alpha virt. eigenvalues --    2.45424   2.45452   2.46164   2.46440   2.46865
 Alpha virt. eigenvalues --    2.47302   2.48933   2.49046   2.50103   2.51683
 Alpha virt. eigenvalues --    2.52714   2.53986   2.54631   2.54936   2.56027
 Alpha virt. eigenvalues --    2.56813   2.57115   2.57523   2.57944   2.59714
 Alpha virt. eigenvalues --    2.60768   2.60905   2.61706   2.62160   2.63000
 Alpha virt. eigenvalues --    2.64124   2.64956   2.65356   2.65617   2.66429
 Alpha virt. eigenvalues --    2.66926   2.67652   2.67936   2.68465   2.69202
 Alpha virt. eigenvalues --    2.70439   2.70504   2.71191   2.71587   2.72504
 Alpha virt. eigenvalues --    2.73707   2.74361   2.75075   2.75228   2.75893
 Alpha virt. eigenvalues --    2.77548   2.78586   2.79166   2.79472   2.79787
 Alpha virt. eigenvalues --    2.80066   2.80175   2.80653   2.81702   2.82053
 Alpha virt. eigenvalues --    2.82367   2.82488   2.83005   2.83259   2.83654
 Alpha virt. eigenvalues --    2.84875   2.85747   2.86332   2.87003   2.87138
 Alpha virt. eigenvalues --    2.87366   2.88072   2.89139   2.91145   2.92692
 Alpha virt. eigenvalues --    2.94305   2.96282   2.96676   2.98105   2.98841
 Alpha virt. eigenvalues --    2.99723   3.01080   3.03332   3.04564   3.05787
 Alpha virt. eigenvalues --    3.06712   3.09511   3.10855   3.13919   3.14647
 Alpha virt. eigenvalues --    3.15224   3.15757   3.16318   3.17380   3.20172
 Alpha virt. eigenvalues --    3.22415   3.23302   3.23524   3.24007   3.26781
 Alpha virt. eigenvalues --    3.45958   3.46876   3.47872   3.49989   3.50643
 Alpha virt. eigenvalues --    3.52877   3.54161   3.56370   3.58079   3.59954
 Alpha virt. eigenvalues --    3.62860   3.71188   3.74582
          Condensed to atoms (all electrons):
 Mulliken charges:
               1
     1  N   -0.311102
     2  C    0.180536
     3  C    0.039476
     4  N   -0.256352
     5  C    0.132117
     6  H    0.028263
     7  N   -0.281669
     8  C    0.127232
     9  H    0.015283
    10  N   -0.290574
    11  C    0.231315
    12  C    0.109535
    13  N   -0.045380
    14  H    0.108541
    15  H    0.088758
    16  H    0.027344
    17  H    0.034803
    18  H    0.025579
    19  N   -0.304589
    20  C    0.242900
    21  C    0.180429
    22  N   -0.113854
    23  H    0.111069
    24  H    0.116689
    25  N   -0.300558
    26  C    0.234148
    27  N   -0.124557
    28  H    0.118344
    29  C    0.148181
    30  O   -0.321417
    31  C    0.005856
    32  N   -0.223911
    33  C    0.125636
    34  H    0.028027
    35  H    0.030662
    36  H    0.027000
    37  H    0.022864
    38  H    0.054595
    39  H    0.063365
    40  H    0.071739
    41  H    0.029906
    42  C   -0.105000
    43  O   -0.274824
    44  C    0.170236
    45  H    0.137706
    46  N   -0.131452
    47  O   -0.351432
    48  C    0.355458
    49  H    0.047038
    50  C    0.180669
    51  C    0.038731
    52  N   -0.289272
    53  H    0.033179
    54  H    0.036930
    55  H    0.020329
    56  H    0.122305
    57  H    0.118673
    58  N   -0.049484
    59  C    0.114263
    60  C    0.236289
    61  N   -0.266875
    62  H    0.046526
    63  C    0.156004
    64  N   -0.300649
    65  H    0.027911
    66  C    0.121858
    67  N   -0.257560
    68  C    0.007119
    69  C    0.176392
    70  N   -0.307296
 Sum of Mulliken charges =  -0.00000
 Mulliken charges with hydrogens summed into heavy atoms:
               1
     1  N   -0.311102
     2  C    0.268262
     3  C    0.039476
     4  N   -0.256352
     5  C    0.160380
     7  N   -0.281669
     8  C    0.142514
    10  N   -0.290574
    11  C    0.231315
    12  C    0.109535
    13  N    0.151919
    19  N   -0.304589
    20  C    0.242900
    21  C    0.260955
    22  N    0.113905
    25  N   -0.300558
    26  C    0.234148
    27  N   -0.006213
    29  C    0.148181
    30  O   -0.321417
    31  C    0.005856
    32  N   -0.223911
    33  C    0.153664
    42  C   -0.075094
    43  O   -0.274824
    44  C    0.170236
    46  N    0.006254
    47  O   -0.351432
    48  C    0.355458
    50  C    0.227707
    51  C    0.228429
    52  N   -0.289272
    58  N    0.191494
    59  C    0.114263
    60  C    0.236289
    61  N   -0.266875
    63  C    0.202530
    64  N   -0.300649
    66  C    0.149769
    67  N   -0.257560
    68  C    0.007119
    69  C    0.266829
    70  N   -0.307296
 Electronic spatial extent (au):  <R**2>=          23687.8380
 Charge=             -0.0000 electrons
 Dipole moment (field-independent basis, Debye):
    X=              6.4913    Y=              6.0522    Z=              2.9423  Tot=              9.3500
 Quadrupole moment (field-independent basis, Debye-Ang):
   XX=           -140.9266   YY=           -225.3660   ZZ=           -254.0162
   XY=             11.3033   XZ=             15.4914   YZ=             -5.8039
 Traceless Quadrupole moment (field-independent basis, Debye-Ang):
   XX=             65.8430   YY=            -18.5964   ZZ=            -47.2466
   XY=             11.3033   XZ=             15.4914   YZ=             -5.8039
 Octapole moment (field-independent basis, Debye-Ang**2):
  XXX=             11.5164  YYY=             81.9646  ZZZ=             20.6985  XYY=             42.3042
  XXY=             20.2140  XXZ=            -54.7407  XZZ=             34.1220  YZZ=             48.4583
  YYZ=             44.1635  XYZ=             42.8345
 Hexadecapole moment (field-independent basis, Debye-Ang**3):
 XXXX=         -16091.4198 YYYY=          -4672.3866 ZZZZ=          -3293.2079 XXXY=            474.8263
 XXXZ=            218.1787 YYYX=             50.4054 YYYZ=            -60.5677 ZZZX=            112.0172
 ZZZY=             54.0012 XXYY=          -4306.8064 XXZZ=          -4287.6080 YYZZ=          -1413.6252
 XXYZ=             79.4321 YYXZ=            176.4976 ZZXY=            105.1246
 N-N= 5.477266609931D+03 E-N=-1.573547741141D+04  KE= 2.037709189715D+03
 No NMR shielding tensors so no spin-rotation constants.
 Leave Link  601 at Sun Jan 21 21:29:43 2018, MaxMem=  4294967296 cpu:              47.2 elap:               1.7
 (Enter /share/apps/g16/l9999.exe)
 1\1\GINC-COMPUTE-0-3\SP\RwB97XD\CC-pVDZ\C23H27N17O3\SATYA\21-Jan-2018\
 0\\#p wb97xd/cc-pvdz sp scf=(maxcycles=20)\\Base pair stacking\\0,1\N,
 0,6.706,7.22349,-6.04088\C,0,7.20026,8.60623,-6.18831\C,0,5.4179,5.441
 69,-5.98337\N,0,6.69266,5.01005,-5.64662\C,0,7.41767,6.10079,-5.69474\
 H,0,8.48682,6.14435,-5.48505\N,0,3.10885,5.4901,-6.4618\C,0,3.25653,6.
 80295,-6.66721\H,0,2.34831,7.33484,-6.94737\N,0,4.35252,7.55389,-6.578
 92\C,0,5.41049,6.8037,-6.22915\C,0,4.19221,4.76321,-6.11104\N,0,4.0468
 ,3.45256,-5.90556\H,0,4.82146,2.87553,-5.64448\H,0,3.15908,3.00301,-6.
 00554\H,0,7.90709,8.63541,-6.89523\H,0,6.44395,9.20526,-6.44961\H,0,7.
 58624,8.91878,-5.32037\N,0,1.85505,6.71853,-3.24635\C,0,0.93432,5.6998
 8,-3.29776\C,0,1.54848,8.15491,-3.39973\N,0,-2.34724,4.62793,-3.67734\
 H,0,-2.84418,3.76059,-3.68072\H,0,-2.88527,5.45965,-3.81689\N,0,-0.394
 46,5.83888,-3.49544\C,0,-1.01904,4.67461,-3.49399\N,0,-0.39214,3.46559
 ,-3.31297\H,0,-0.9497,2.62541,-3.32696\C,0,0.97389,3.29887,-3.10792\O,
 0,1.43953,2.16283,-2.9552\C,0,1.65824,4.54086,-3.10692\N,0,3.00633,4.8
 2614,-2.93909\C,0,3.07537,6.12665,-3.02918\H,0,3.99472,6.70705,-2.9443
 3\H,0,2.04727,8.52199,-4.18412\H,0,0.56697,8.27022,-3.54672\H,0,1.8204
 8,8.64566,-2.57269\H,0,-4.18009,-1.21515,-4.14387\H,0,-4.22384,-1.2787
 3,-2.38356\H,0,-3.97797,0.26349,-3.20359\H,0,-0.03379,-3.48216,-3.2408
 5\C,0,-0.44498,-2.47296,-3.21462\O,0,1.6754,-1.41332,-3.12366\C,0,0.44
 634,-1.35516,-3.1521\H,0,0.41985,0.6899,-3.0789\N,0,-0.17709,-0.124,-3
 .12313\O,0,-1.98578,1.24925,-3.11848\C,0,-1.52729,0.12072,-3.14785\H,0
 ,-2.48691,-3.08207,-3.28737\C,0,-1.7668,-2.26626,-3.24001\C,0,-3.77104
 ,-0.79585,-3.23671\N,0,-2.32119,-1.00768,-3.20833\H,0,-4.12728,2.47942
 ,-7.58281\H,0,-3.38745,3.5438,-6.59193\H,0,-4.36758,2.39595,-5.97076\H
 ,0,2.66937,0.04441,-5.86764\H,0,1.34829,-1.00534,-6.11839\N,0,1.6875,-
 0.06915,-6.01989\C,0,0.86614,0.98052,-6.08868\C,0,-1.24148,2.05402,-6.
 3481\N,0,-0.75797,3.29989,-6.21223\H,0,1.0338,4.24361,-5.89671\C,0,0.5
 5887,3.2709,-6.01732\N,0,1.38331,2.22062,-5.9481\H,0,-3.46011,-0.25428
 ,-6.7971\C,0,-2.54343,0.31244,-6.63139\N,0,-1.35514,-0.2197,-6.48139\C
 ,0,-0.52039,0.87362,-6.30095\C,0,-3.69959,2.59898,-6.68682\N,0,-2.5482
 1,1.68426,-6.56191\\Version=EM64L-G16RevA.03\State=1-A\HF=-2048.748169
 2\RMSD=6.079e-09\Dipole=-3.645193,-0.1078231,-0.4825964\Quadrupole=25.
 8528841,8.8785606,-34.7314448,32.9625555,-6.1637192,5.5980962\PG=C01 [
 X(C23H27N17O3)]\\@


 In the race for quality, there is no finish line.
                               -- David T. Kearns
 Job cpu time:       0 days  5 hours 56 minutes 35.9 seconds.
 Elapsed time:       0 days  0 hours 11 minutes 30.5 seconds.
 File lengths (MBytes):  RWF=    298 Int=      0 D2E=      0 Chk=     33 Scr=      1
 Normal termination of Gaussian 16 at Sun Jan 21 21:29:43 2018.
