 Entering Gaussian System, Link 0=g16
 Input=str30.-10.-2.0.com
 Output=str30.-10.-2.0.log
 Initial command:
 /share/apps/g16/l1.exe "/state/partition1/scr/Gau-28295.inp" -scrdir="/state/partition1/scr/"
 Entering Link 1 = /share/apps/g16/l1.exe PID=     28296.
  
 Copyright (c) 1988,1990,1992,1993,1995,1998,2003,2009,2016,
            Gaussian, Inc.  All Rights Reserved.
  
 This is part of the Gaussian(R) 16 program.  It is based on
 the Gaussian(R) 09 system (copyright 2009, Gaussian, Inc.),
 the Gaussian(R) 03 system (copyright 2003, Gaussian, Inc.),
 the Gaussian(R) 98 system (copyright 1998, Gaussian, Inc.),
 the Gaussian(R) 94 system (copyright 1995, Gaussian, Inc.),
 the Gaussian 92(TM) system (copyright 1992, Gaussian, Inc.),
 the Gaussian 90(TM) system (copyright 1990, Gaussian, Inc.),
 the Gaussian 88(TM) system (copyright 1988, Gaussian, Inc.),
 the Gaussian 86(TM) system (copyright 1986, Carnegie Mellon
 University), and the Gaussian 82(TM) system (copyright 1983,
 Carnegie Mellon University). Gaussian is a federally registered
 trademark of Gaussian, Inc.
  
 This software contains proprietary and confidential information,
 including trade secrets, belonging to Gaussian, Inc.
  
 This software is provided under written license and may be
 used, copied, transmitted, or stored only in accord with that
 written license.
  
 The following legend is applicable only to US Government
 contracts under FAR:
  
                    RESTRICTED RIGHTS LEGEND
  
 Use, reproduction and disclosure by the US Government is
 subject to restrictions as set forth in subparagraphs (a)
 and (c) of the Commercial Computer Software - Restricted
 Rights clause in FAR 52.227-19.
  
 Gaussian, Inc.
 340 Quinnipiac St., Bldg. 40, Wallingford CT 06492
  
  
 ---------------------------------------------------------------
 Warning -- This program may not be used in any manner that
 competes with the business of Gaussian, Inc. or will provide
 assistance to any competitor of Gaussian, Inc.  The licensee
 of this program is prohibited from giving any competitor of
 Gaussian, Inc. access to this program.  By using this program,
 the user acknowledges that Gaussian, Inc. is engaged in the
 business of creating and licensing software in the field of
 computational chemistry and represents and warrants to the
 licensee that it is not a competitor of Gaussian, Inc. and that
 it will not use this program in any manner prohibited above.
 ---------------------------------------------------------------
  

 Cite this work as:
 Gaussian 16, Revision A.03,
 M. J. Frisch, G. W. Trucks, H. B. Schlegel, G. E. Scuseria, 
 M. A. Robb, J. R. Cheeseman, G. Scalmani, V. Barone, 
 G. A. Petersson, H. Nakatsuji, X. Li, M. Caricato, A. V. Marenich, 
 J. Bloino, B. G. Janesko, R. Gomperts, B. Mennucci, H. P. Hratchian, 
 J. V. Ortiz, A. F. Izmaylov, J. L. Sonnenberg, D. Williams-Young, 
 F. Ding, F. Lipparini, F. Egidi, J. Goings, B. Peng, A. Petrone, 
 T. Henderson, D. Ranasinghe, V. G. Zakrzewski, J. Gao, N. Rega, 
 G. Zheng, W. Liang, M. Hada, M. Ehara, K. Toyota, R. Fukuda, 
 J. Hasegawa, M. Ishida, T. Nakajima, Y. Honda, O. Kitao, H. Nakai, 
 T. Vreven, K. Throssell, J. A. Montgomery, Jr., J. E. Peralta, 
 F. Ogliaro, M. J. Bearpark, J. J. Heyd, E. N. Brothers, K. N. Kudin, 
 V. N. Staroverov, T. A. Keith, R. Kobayashi, J. Normand, 
 K. Raghavachari, A. P. Rendell, J. C. Burant, S. S. Iyengar, 
 J. Tomasi, M. Cossi, J. M. Millam, M. Klene, C. Adamo, R. Cammi, 
 J. W. Ochterski, R. L. Martin, K. Morokuma, O. Farkas, 
 J. B. Foresman, and D. J. Fox, Gaussian, Inc., Wallingford CT, 2016.
 
 ******************************************
 Gaussian 16:  EM64L-G16RevA.03 25-Dec-2016
                21-Jan-2018 
 ******************************************
 %nprocshared=32
 Will use up to   32 processors via shared memory.
 %mem=32GB
 %chk=allatoms_t.chk
 ---------------------------------------
 #p wb97xd/cc-pvdz sp scf=(maxcycles=20)
 ---------------------------------------
 1/38=1,172=1/1;
 2/12=2,17=6,18=5,40=1/2;
 3/5=16,11=2,25=1,30=1,74=-58/1,2,3;
 4//1;
 5/5=2,7=20,38=5/2;
 6/7=2,8=2,9=2,10=2,28=1/1;
 99/5=1,9=1/99;
 Leave Link    1 at Sun Jan 21 07:50:21 2018, MaxMem=  4294967296 cpu:               2.8 elap:               0.1
 (Enter /share/apps/g16/l101.exe)
 ------------------
 Base pair stacking
 ------------------
 Symbolic Z-matrix:
 Charge =  0 Multiplicity = 1
 N                     5.06371   7.66423  -7.15004 
 C                     5.53617   9.06234  -7.15774 
 C                     3.80695   5.86615  -6.99256 
 N                     5.08137   5.42196  -7.31395 
 C                     5.78751   6.52302  -7.39596 
 H                     6.8507    6.56135  -7.63492 
 N                     1.50878   5.9277   -6.46572 
 C                     1.63737   7.25689  -6.40017 
 H                     0.72626   7.80064  -6.15427 
 N                     2.71739   8.01169  -6.59187 
 C                     3.78055   7.24598  -6.88816 
 C                     2.59689   5.18545  -6.76602 
 N                     2.47053   3.85848  -6.83192 
 H                     3.24937   3.26971  -7.05096 
 H                     1.59353   3.40786  -6.66468 
 H                     5.89721   9.28863  -8.06252 
 H                     4.77526   9.67329  -6.9412 
 H                     6.25769   9.17632  -6.4748 
 N                     1.42125   6.71796  -3.28139 
 C                     0.50588   5.69877  -3.17469 
 C                     1.10013   8.15923  -3.263 
 N                    -2.78011   4.6322   -2.8191 
 H                    -3.27124   3.76366  -2.75845 
 H                    -3.32814   5.46768  -2.77052 
 N                    -0.82997   5.84158  -3.03623 
 C                    -1.44656   4.6756   -2.95929 
 N                    -0.80581   3.46151  -3.01357 
 H                    -1.35806   2.62037  -2.9468 
 C                     0.56771   3.29081  -3.15568 
 O                     1.04582   2.15033  -3.19371 
 C                     1.24361   4.53459  -3.23967 
 N                     2.59495   4.81721  -3.38425 
 C                     2.65233   6.12125  -3.40407 
 H                     3.57035   6.70094  -3.5064 
 H                     1.39823   8.57978  -4.1192 
 H                     0.11329   8.27738  -3.16085 
 H                     1.56829   8.59696  -2.49617 
 H                    -4.7258   -1.18013  -3.20601 
 H                    -4.34392  -1.35827  -1.49514 
 H                    -4.2889    0.23557  -2.2488 
 H                    -0.50547  -3.47372  -3.4795 
 C                    -0.88873  -2.47109  -3.28956 
 O                     1.20069  -1.40568  -3.645 
 C                     0.0017   -1.35388  -3.37199 
 H                     0.01275   0.68188  -3.16248 
 N                    -0.58478  -0.13133  -3.11379 
 O                    -2.32597   1.22679  -2.58373 
 C                    -1.89868   0.10559  -2.79584 
 H                    -2.89343  -3.08759  -2.90629 
 C                    -2.17561  -2.27187  -2.98158 
 C                    -4.10598  -0.818    -2.39932 
 N                    -2.69419  -1.02168  -2.73565 
 H                    -5.72541   2.96172  -5.22003 
 H                    -4.5872    3.79135  -4.39645 
 H                    -5.29785   2.488    -3.71796 
 H                     1.02912   0.48282  -7.03575 
 H                    -0.33951  -0.53309  -6.96598 
 N                     0.06472   0.36666  -6.79788 
 C                    -0.65135   1.36651  -6.27948 
 C                    -2.6171    2.37959  -5.40131 
 N                    -2.04793   3.57721  -5.18641 
 H                    -0.22969   4.49501  -5.41499 
 C                    -0.76888   3.55925  -5.55602 
 N                    -0.04987   2.55885  -6.07543 
 H                    -4.9588    0.15083  -5.43631 
 C                    -4.02193   0.7008   -5.52984 
 N                    -2.90784   0.19968  -6.00456 
 C                    -2.00896   1.25372  -5.92865 
 C                    -4.96578   2.88353  -4.57439 
 N                    -3.91791   2.01547  -5.14574 
 
 ITRead=  0  0  0  0  0  0  0  0  0  0  0  0  0  0  0  0  0  0  0  0
 ITRead=  0  0  0  0  0  0  0  0  0  0  0  0  0  0  0  0  0  0  0  0
 ITRead=  0  0  0  0  0  0  0  0  0  0  0  0  0  0  0  0  0  0  0  0
 ITRead=  0  0  0  0  0  0  0  0  0  0
 MicOpt= -1 -1 -1 -1 -1 -1 -1 -1 -1 -1 -1 -1 -1 -1 -1 -1 -1 -1 -1 -1
 MicOpt= -1 -1 -1 -1 -1 -1 -1 -1 -1 -1 -1 -1 -1 -1 -1 -1 -1 -1 -1 -1
 MicOpt= -1 -1 -1 -1 -1 -1 -1 -1 -1 -1 -1 -1 -1 -1 -1 -1 -1 -1 -1 -1
 MicOpt= -1 -1 -1 -1 -1 -1 -1 -1 -1 -1
 NAtoms=     70 NQM=       70 NQMF=       0 NMMI=      0 NMMIF=      0
                NMic=       0 NMicF=      0.
                    Isotopes and Nuclear Properties:
 (Nuclear quadrupole moments (NQMom) in fm**2, nuclear magnetic moments (NMagM)
  in nuclear magnetons)

  Atom         1           2           3           4           5           6           7           8           9          10
 IAtWgt=          14          12          12          14          12           1          14          12           1          14
 AtmWgt=  14.0030740  12.0000000  12.0000000  14.0030740  12.0000000   1.0078250  14.0030740  12.0000000   1.0078250  14.0030740
 NucSpn=           2           0           0           2           0           1           2           0           1           2
 AtZEff=  -0.0000000  -0.0000000  -0.0000000  -0.0000000  -0.0000000  -0.0000000  -0.0000000  -0.0000000  -0.0000000  -0.0000000
 NQMom=    2.0440000   0.0000000   0.0000000   2.0440000   0.0000000   0.0000000   2.0440000   0.0000000   0.0000000   2.0440000
 NMagM=    0.4037610   0.0000000   0.0000000   0.4037610   0.0000000   2.7928460   0.4037610   0.0000000   2.7928460   0.4037610
 AtZNuc=   7.0000000   6.0000000   6.0000000   7.0000000   6.0000000   1.0000000   7.0000000   6.0000000   1.0000000   7.0000000

  Atom        11          12          13          14          15          16          17          18          19          20
 IAtWgt=          12          12          14           1           1           1           1           1          14          12
 AtmWgt=  12.0000000  12.0000000  14.0030740   1.0078250   1.0078250   1.0078250   1.0078250   1.0078250  14.0030740  12.0000000
 NucSpn=           0           0           2           1           1           1           1           1           2           0
 AtZEff=  -0.0000000  -0.0000000  -0.0000000  -0.0000000  -0.0000000  -0.0000000  -0.0000000  -0.0000000  -0.0000000  -0.0000000
 NQMom=    0.0000000   0.0000000   2.0440000   0.0000000   0.0000000   0.0000000   0.0000000   0.0000000   2.0440000   0.0000000
 NMagM=    0.0000000   0.0000000   0.4037610   2.7928460   2.7928460   2.7928460   2.7928460   2.7928460   0.4037610   0.0000000
 AtZNuc=   6.0000000   6.0000000   7.0000000   1.0000000   1.0000000   1.0000000   1.0000000   1.0000000   7.0000000   6.0000000

  Atom        21          22          23          24          25          26          27          28          29          30
 IAtWgt=          12          14           1           1          14          12          14           1          12          16
 AtmWgt=  12.0000000  14.0030740   1.0078250   1.0078250  14.0030740  12.0000000  14.0030740   1.0078250  12.0000000  15.9949146
 NucSpn=           0           2           1           1           2           0           2           1           0           0
 AtZEff=  -0.0000000  -0.0000000  -0.0000000  -0.0000000  -0.0000000  -0.0000000  -0.0000000  -0.0000000  -0.0000000  -0.0000000
 NQMom=    0.0000000   2.0440000   0.0000000   0.0000000   2.0440000   0.0000000   2.0440000   0.0000000   0.0000000   0.0000000
 NMagM=    0.0000000   0.4037610   2.7928460   2.7928460   0.4037610   0.0000000   0.4037610   2.7928460   0.0000000   0.0000000
 AtZNuc=   6.0000000   7.0000000   1.0000000   1.0000000   7.0000000   6.0000000   7.0000000   1.0000000   6.0000000   8.0000000

  Atom        31          32          33          34          35          36          37          38          39          40
 IAtWgt=          12          14          12           1           1           1           1           1           1           1
 AtmWgt=  12.0000000  14.0030740  12.0000000   1.0078250   1.0078250   1.0078250   1.0078250   1.0078250   1.0078250   1.0078250
 NucSpn=           0           2           0           1           1           1           1           1           1           1
 AtZEff=  -0.0000000  -0.0000000  -0.0000000  -0.0000000  -0.0000000  -0.0000000  -0.0000000  -0.0000000  -0.0000000  -0.0000000
 NQMom=    0.0000000   2.0440000   0.0000000   0.0000000   0.0000000   0.0000000   0.0000000   0.0000000   0.0000000   0.0000000
 NMagM=    0.0000000   0.4037610   0.0000000   2.7928460   2.7928460   2.7928460   2.7928460   2.7928460   2.7928460   2.7928460
 AtZNuc=   6.0000000   7.0000000   6.0000000   1.0000000   1.0000000   1.0000000   1.0000000   1.0000000   1.0000000   1.0000000

  Atom        41          42          43          44          45          46          47          48          49          50
 IAtWgt=           1          12          16          12           1          14          16          12           1          12
 AtmWgt=   1.0078250  12.0000000  15.9949146  12.0000000   1.0078250  14.0030740  15.9949146  12.0000000   1.0078250  12.0000000
 NucSpn=           1           0           0           0           1           2           0           0           1           0
 AtZEff=  -0.0000000  -0.0000000  -0.0000000  -0.0000000  -0.0000000  -0.0000000  -0.0000000  -0.0000000  -0.0000000  -0.0000000
 NQMom=    0.0000000   0.0000000   0.0000000   0.0000000   0.0000000   2.0440000   0.0000000   0.0000000   0.0000000   0.0000000
 NMagM=    2.7928460   0.0000000   0.0000000   0.0000000   2.7928460   0.4037610   0.0000000   0.0000000   2.7928460   0.0000000
 AtZNuc=   1.0000000   6.0000000   8.0000000   6.0000000   1.0000000   7.0000000   8.0000000   6.0000000   1.0000000   6.0000000

  Atom        51          52          53          54          55          56          57          58          59          60
 IAtWgt=          12          14           1           1           1           1           1          14          12          12
 AtmWgt=  12.0000000  14.0030740   1.0078250   1.0078250   1.0078250   1.0078250   1.0078250  14.0030740  12.0000000  12.0000000
 NucSpn=           0           2           1           1           1           1           1           2           0           0
 AtZEff=  -0.0000000  -0.0000000  -0.0000000  -0.0000000  -0.0000000  -0.0000000  -0.0000000  -0.0000000  -0.0000000  -0.0000000
 NQMom=    0.0000000   2.0440000   0.0000000   0.0000000   0.0000000   0.0000000   0.0000000   2.0440000   0.0000000   0.0000000
 NMagM=    0.0000000   0.4037610   2.7928460   2.7928460   2.7928460   2.7928460   2.7928460   0.4037610   0.0000000   0.0000000
 AtZNuc=   6.0000000   7.0000000   1.0000000   1.0000000   1.0000000   1.0000000   1.0000000   7.0000000   6.0000000   6.0000000

  Atom        61          62          63          64          65          66          67          68          69          70
 IAtWgt=          14           1          12          14           1          12          14          12          12          14
 AtmWgt=  14.0030740   1.0078250  12.0000000  14.0030740   1.0078250  12.0000000  14.0030740  12.0000000  12.0000000  14.0030740
 NucSpn=           2           1           0           2           1           0           2           0           0           2
 AtZEff=  -0.0000000  -0.0000000  -0.0000000  -0.0000000  -0.0000000  -0.0000000  -0.0000000  -0.0000000  -0.0000000  -0.0000000
 NQMom=    2.0440000   0.0000000   0.0000000   2.0440000   0.0000000   0.0000000   2.0440000   0.0000000   0.0000000   2.0440000
 NMagM=    0.4037610   2.7928460   0.0000000   0.4037610   2.7928460   0.0000000   0.4037610   0.0000000   0.0000000   0.4037610
 AtZNuc=   7.0000000   1.0000000   6.0000000   7.0000000   1.0000000   6.0000000   7.0000000   6.0000000   6.0000000   7.0000000
 Leave Link  101 at Sun Jan 21 07:50:21 2018, MaxMem=  4294967296 cpu:               7.7 elap:               0.3
 (Enter /share/apps/g16/l202.exe)
 Stoichiometry    C23H27N17O3
 Framework group  C1[X(C23H27N17O3)]
 Deg. of freedom   204
 Full point group                 C1      NOp   1
 Largest Abelian subgroup         C1      NOp   1
 Largest concise Abelian subgroup C1      NOp   1
                         Standard orientation:                         
 ---------------------------------------------------------------------
 Center     Atomic      Atomic             Coordinates (Angstroms)
 Number     Number       Type             X           Y           Z
 ---------------------------------------------------------------------
      1          7           0       -6.878600   -1.149834    0.321771
      2          6           0       -8.205171   -0.509584    0.230786
      3          6           0       -4.725908   -1.506023    0.598147
      4          7           0       -5.284533   -2.734741    0.277318
      5          6           0       -6.559093   -2.470965    0.123653
      6          1           0       -7.318036   -3.209324   -0.136687
      7          7           0       -3.188831    0.191253    1.163465
      8          6           0       -4.229448    1.030678    1.155677
      9          1           0       -3.992101    2.067711    1.389090
     10          7           0       -5.513204    0.782566    0.904029
     11          6           0       -5.696164   -0.519535    0.629313
     12          6           0       -3.405765   -1.112360    0.883053
     13          7           0       -2.368273   -1.951834    0.890334
     14          1           0       -2.482367   -2.925231    0.688588
     15          1           0       -1.442091   -1.636566    1.097579
     16          1           0       -8.825696   -0.929718    0.893070
     17          1           0       -8.119303    0.466457    0.428532
     18          1           0       -8.573207   -0.630044   -0.691183
     19          7           0       -2.916510    1.990094   -1.568227
     20          6           0       -1.563833    1.923399   -1.336164
     21          6           0       -3.767414    3.171945   -1.323472
     22          7           0        1.382026    3.420760   -0.267721
     23          1           0        2.344832    3.169423   -0.172420
     24          1           0        1.126646    4.349463    0.002491
     25          7           0       -0.790971    2.918324   -0.849473
     26          6           0        0.473468    2.552148   -0.736687
     27          7           0        0.946877    1.307354   -1.074167
     28          1           0        1.929672    1.115521   -0.954709
     29          6           0        0.169804    0.268384   -1.576752
     30          8           0        0.695879   -0.817612   -1.849860
     31          6           0       -1.190950    0.646759   -1.703494
     32          7           0       -2.287467   -0.073542   -2.157052
     33          6           0       -3.286053    0.761570   -2.058980
     34          1           0       -4.316632    0.532003   -2.331889
     35          1           0       -4.478679    2.941083   -0.660440
     36          1           0       -3.205795    3.915407   -0.962785
     37          1           0       -4.192247    3.462062   -2.180302
     38          1           0        6.780413    0.588094    0.475253
     39          1           0        7.098562    0.876666   -1.233592
     40          1           0        5.704960    1.629595   -0.457493
     41          1           0        5.732448   -3.734701   -1.358255
     42          6           0        5.285757   -2.743934   -1.274106
     43          8           0        3.095934   -3.484209   -1.806814
     44          6           0        3.882931   -2.586147   -1.508630
     45          1           0        2.433781   -1.141283   -1.534443
     46          7           0        3.420119   -1.292487   -1.376333
     47          8           0        3.654568    0.927220   -0.957844
     48          6           0        4.154974   -0.179783   -1.051626
     49          1           0        7.099498   -1.744146   -0.767590
     50          6           0        6.028743   -1.677545   -0.955692
     51          6           0        6.325354    0.746360   -0.491151
     52          7           0        5.499714   -0.412922   -0.840635
     53          1           0        3.866094    3.247217    3.053281
     54          1           0        2.744878    3.398717    1.877689
     55          1           0        4.320148    3.228235    1.485828
     56          1           0        0.968729   -3.391823    1.442727
     57          1           0        2.595800   -3.183289    1.910961
     58          7           0        1.722195   -2.768906    1.653454
     59          6           0        1.569818   -1.444352    1.593999
     60          6           0        2.286468    0.817355    1.775047
     61          7           0        1.101796    1.345852    1.426233
     62          1           0       -0.776752    0.726059    0.890026
     63          6           0        0.215241    0.383168    1.180951
     64          7           0        0.365914   -0.944002    1.239944
     65          1           0        5.391866    0.784796    2.673713
     66          6           0        4.373415    0.526604    2.382107
     67          7           0        3.919379   -0.697247    2.264979
     68          6           0        2.597244   -0.527187    1.880549
     69          6           0        3.605757    2.958907    2.131812
     70          7           0        3.438722    1.492920    2.100518
 ---------------------------------------------------------------------
 Rotational constants (GHZ):           0.1670977           0.0503899           0.0468032
 Leave Link  202 at Sun Jan 21 07:50:21 2018, MaxMem=  4294967296 cpu:               0.3 elap:               0.0
 (Enter /share/apps/g16/l301.exe)
 Standard basis: CC-pVDZ (5D, 7F)
 Ernie: Thresh=  0.10000D-02 Tol=  0.10000D-05 Strict=F.
 Ernie:  86 primitive shells out of 1081 were deleted.
 There are   780 symmetry adapted cartesian basis functions of A   symmetry.
 There are   737 symmetry adapted basis functions of A   symmetry.
   737 basis functions,  1608 primitive gaussians,   780 cartesian basis functions
   154 alpha electrons      154 beta electrons
       nuclear repulsion energy      5533.0726643566 Hartrees.
 IExCor= 4639 DFT=T Ex+Corr=wB97XD ExCW=0 ScaHFX=  1.000000
 ScaDFX=  1.000000  1.000000  1.000000  1.000000 ScalE2=  1.000000  1.000000
 IRadAn=      5 IRanWt=     -1 IRanGd=            0 ICorTp=0 IEmpDi=121
 HFx  wShort=  0.000000 wLong=  0.200000 cFull=  0.222036 cShort=  0.000000 cLong=  0.777964
 DFx  wShort=  0.000000 wLong=  0.200000 cFull=  0.000000 cShort=  0.000000 cLong=  1.000000
 NAtoms=   70 NActive=   70 NUniq=   70 SFac= 1.00D+00 NAtFMM=   60 NAOKFM=T Big=T
 Integral buffers will be    131072 words long.
 Raffenetti 2 integral format.
 Two-electron integral symmetry is turned on.
 R6Disp:  Grimme-D2 Dispersion energy=       -0.0747939824 Hartrees.
 Nuclear repulsion after empirical dispersion term =     5532.9978703742 Hartrees.
 Leave Link  301 at Sun Jan 21 07:50:21 2018, MaxMem=  4294967296 cpu:               2.1 elap:               0.1
 (Enter /share/apps/g16/l302.exe)
 NPDir=0 NMtPBC=     1 NCelOv=     1 NCel=       1 NClECP=     1 NCelD=      1
         NCelK=      1 NCelE2=     1 NClLst=     1 CellRange=     0.0.
 One-electron integrals computed using PRISM.
 One-electron integral symmetry used in STVInt
 NBasis=   737 RedAO= T EigKep=  6.99D-04  NBF=   737
 NBsUse=   737 1.00D-06 EigRej= -1.00D+00 NBFU=   737
 Precomputing XC quadrature grid using
 IXCGrd= 4 IRadAn=           5 IRanWt=          -1 IRanGd=           0 AccXCQ= 0.00D+00.
 Generated NRdTot=       0 NPtTot=           0 NUsed=           0 NTot=          32
 NSgBfM=   763   763   763   763   763 MxSgAt=    70 MxSgA2=    70.
 Leave Link  302 at Sun Jan 21 07:50:26 2018, MaxMem=  4294967296 cpu:             133.7 elap:               4.2
 (Enter /share/apps/g16/l303.exe)
 DipDrv:  MaxL=1.
 Leave Link  303 at Sun Jan 21 07:50:26 2018, MaxMem=  4294967296 cpu:              14.7 elap:               0.5
 (Enter /share/apps/g16/l401.exe)
 ExpMin= 1.22D-01 ExpMax= 1.17D+04 ExpMxC= 4.01D+02 IAcc=3 IRadAn=         5 AccDes= 0.00D+00
 Harris functional with IExCor= 4639 and IRadAn=       5 diagonalized for initial guess.
 HarFok:  IExCor= 4639 AccDes= 0.00D+00 IRadAn=         5 IDoV= 1 UseB2=F ITyADJ=14
 ICtDFT=  3500011 ScaDFX=  1.000000  1.000000  1.000000  1.000000
 FoFCou: FMM=F IPFlag=           0 FMFlag=      100000 FMFlg1=        2001
         NFxFlg=           0 DoJE=T BraDBF=F KetDBF=T FulRan=T
         wScrn=  0.000000 ICntrl=       500 IOpCl=  0 I1Cent=   200000004 NGrid=           0
         NMat0=    1 NMatS0=      1 NMatT0=    0 NMatD0=    1 NMtDS0=    0 NMtDT0=    0
 Petite list used in FoFCou.
 Harris En= -1963.85061014095    
 JPrj=0 DoOrth=F DoCkMO=F.
 Leave Link  401 at Sun Jan 21 07:50:39 2018, MaxMem=  4294967296 cpu:             405.2 elap:              12.7
 (Enter /share/apps/g16/l502.exe)
 Integral symmetry usage will be decided dynamically.
 Closed shell SCF:
 Using DIIS extrapolation, IDIIS=  1040.
 NGot=  4294967296 LenX=  4293717438 LenY=  4293108258
 Requested convergence on RMS density matrix=1.00D-08 within  20 cycles.
 Requested convergence on MAX density matrix=1.00D-06.
 Requested convergence on             energy=1.00D-06.
 No special actions if energy rises.
 Fock matrices will be formed incrementally for  20 cycles.
 Integral accuracy reduced to 1.0D-05 until final iterations.

 Cycle   1  Pass 0  IDiag  1:
 FoFJK:  IHMeth= 1 ICntrl=       0 DoSepK=T KAlg= 0 I1Cent=           0 FoldK=F
 IRaf=         1 NMat=       1 IRICut=       1 DoRegI=T DoRafI=F ISym2E= 0 IDoP0=0 IntGTp=1.
 FoFCou: FMM=T IPFlag=           0 FMFlag=      100000 FMFlg1=        2001
         NFxFlg=           0 DoJE=T BraDBF=F KetDBF=F FulRan=T
         wScrn=  0.000000 ICntrl=       500 IOpCl=  0 I1Cent=           0 NGrid=           0
         NMat0=    1 NMatS0=      1 NMatT0=    0 NMatD0=    1 NMtDS0=    0 NMtDT0=    0
 Symmetry not used in FoFCou.
 FMM levels:  10  Number of levels for PrismC:   9
 E= -2048.29271995039    
 DIIS: error= 2.51D-02 at cycle   1 NSaved=   1.
 NSaved= 1 IEnMin= 1 EnMin= -2048.29271995039     IErMin= 1 ErrMin= 2.51D-02
 ErrMax= 2.51D-02  0.00D+00 EMaxC= 1.00D-01 BMatC= 8.29D-01 BMatP= 8.29D-01
 IDIUse=3 WtCom= 7.49D-01 WtEn= 2.51D-01
 Coeff-Com:  0.100D+01
 Coeff-En:   0.100D+01
 Coeff:      0.100D+01
 Gap=     0.261 Goal=   None    Shift=    0.000
 GapD=    0.261 DampG=1.000 DampE=0.500 DampFc=0.5000 IDamp=-1.
 Damping current iteration by 5.00D-01
 RMSDP=1.58D-03 MaxDP=1.30D-01              OVMax= 2.00D-01

 Cycle   2  Pass 0  IDiag  1:
 RMSU=  7.89D-04    CP:  9.97D-01
 E= -2048.48841856780     Delta-E=       -0.195698617408 Rises=F Damp=T
 DIIS: error= 1.38D-02 at cycle   2 NSaved=   2.
 NSaved= 2 IEnMin= 2 EnMin= -2048.48841856780     IErMin= 2 ErrMin= 1.38D-02
 ErrMax= 1.38D-02  0.00D+00 EMaxC= 1.00D-01 BMatC= 1.45D-01 BMatP= 8.29D-01
 IDIUse=3 WtCom= 8.62D-01 WtEn= 1.38D-01
 Coeff-Com: -0.197D+00 0.120D+01
 Coeff-En:   0.000D+00 0.100D+01
 Coeff:     -0.170D+00 0.117D+01
 Gap=     0.364 Goal=   None    Shift=    0.000
 RMSDP=5.95D-04 MaxDP=3.34D-02 DE=-1.96D-01 OVMax= 1.58D-01

 Cycle   3  Pass 0  IDiag  1:
 RMSU=  5.84D-04    CP:  9.94D-01  1.13D+00
 E= -2048.66736139430     Delta-E=       -0.178942826500 Rises=F Damp=F
 DIIS: error= 6.34D-03 at cycle   3 NSaved=   3.
 NSaved= 3 IEnMin= 3 EnMin= -2048.66736139430     IErMin= 3 ErrMin= 6.34D-03
 ErrMax= 6.34D-03  0.00D+00 EMaxC= 1.00D-01 BMatC= 6.22D-02 BMatP= 1.45D-01
 IDIUse=3 WtCom= 9.37D-01 WtEn= 6.34D-02
 Coeff-Com: -0.231D+00 0.547D+00 0.684D+00
 Coeff-En:   0.000D+00 0.000D+00 0.100D+01
 Coeff:     -0.217D+00 0.512D+00 0.704D+00
 Gap=     0.280 Goal=   None    Shift=    0.000
 RMSDP=3.58D-04 MaxDP=3.29D-02 DE=-1.79D-01 OVMax= 6.87D-02

 Cycle   4  Pass 0  IDiag  1:
 RMSU=  2.04D-04    CP:  9.94D-01  1.41D+00  6.73D-01
 E= -2048.71506164401     Delta-E=       -0.047700249710 Rises=F Damp=F
 DIIS: error= 2.42D-03 at cycle   4 NSaved=   4.
 NSaved= 4 IEnMin= 4 EnMin= -2048.71506164401     IErMin= 4 ErrMin= 2.42D-03
 ErrMax= 2.42D-03  0.00D+00 EMaxC= 1.00D-01 BMatC= 8.58D-03 BMatP= 6.22D-02
 IDIUse=3 WtCom= 9.76D-01 WtEn= 2.42D-02
 Coeff-Com: -0.971D-01 0.188D+00 0.376D+00 0.533D+00
 Coeff-En:   0.000D+00 0.000D+00 0.537D-01 0.946D+00
 Coeff:     -0.947D-01 0.184D+00 0.368D+00 0.543D+00
 Gap=     0.285 Goal=   None    Shift=    0.000
 RMSDP=1.27D-04 MaxDP=1.18D-02 DE=-4.77D-02 OVMax= 1.32D-02

 Cycle   5  Pass 0  IDiag  1:
 RMSU=  6.17D-05    CP:  9.93D-01  1.39D+00  8.04D-01  6.18D-01
 E= -2048.72223739002     Delta-E=       -0.007175746014 Rises=F Damp=F
 DIIS: error= 5.93D-04 at cycle   5 NSaved=   5.
 NSaved= 5 IEnMin= 5 EnMin= -2048.72223739002     IErMin= 5 ErrMin= 5.93D-04
 ErrMax= 5.93D-04  0.00D+00 EMaxC= 1.00D-01 BMatC= 2.78D-04 BMatP= 8.58D-03
 IDIUse=3 WtCom= 9.94D-01 WtEn= 5.93D-03
 Coeff-Com: -0.248D-01 0.425D-01 0.118D+00 0.236D+00 0.628D+00
 Coeff-En:   0.000D+00 0.000D+00 0.000D+00 0.000D+00 0.100D+01
 Coeff:     -0.246D-01 0.423D-01 0.118D+00 0.235D+00 0.630D+00
 Gap=     0.285 Goal=   None    Shift=    0.000
 RMSDP=2.63D-05 MaxDP=1.88D-03 DE=-7.18D-03 OVMax= 3.15D-03

 Failed to achieve initial convergence to 1.0D-08 in  6 cycles.
 Switch to full accuracy anyway.
 Cycle   6  Pass 1  IDiag  1:
 E= -2048.72242615370     Delta-E=       -0.000188763672 Rises=F Damp=F
 DIIS: error= 2.28D-04 at cycle   1 NSaved=   1.
 NSaved= 1 IEnMin= 1 EnMin= -2048.72242615370     IErMin= 1 ErrMin= 2.28D-04
 ErrMax= 2.28D-04  0.00D+00 EMaxC= 1.00D-01 BMatC= 7.13D-05 BMatP= 7.13D-05
 IDIUse=3 WtCom= 9.98D-01 WtEn= 2.28D-03
 Coeff-Com:  0.100D+01
 Coeff-En:   0.100D+01
 Coeff:      0.100D+01
 Gap=     0.285 Goal=   None    Shift=    0.000
 RMSDP=2.63D-05 MaxDP=1.88D-03 DE=-1.89D-04 OVMax= 2.71D-03

 Cycle   7  Pass 1  IDiag  1:
 RMSU=  1.05D-04    CP:  1.00D+00
 E= -2048.72247608769     Delta-E=       -0.000049933993 Rises=F Damp=F
 DIIS: error= 2.43D-04 at cycle   2 NSaved=   2.
 NSaved= 2 IEnMin= 2 EnMin= -2048.72247608769     IErMin= 1 ErrMin= 2.28D-04
 ErrMax= 2.43D-04  0.00D+00 EMaxC= 1.00D-01 BMatC= 4.39D-05 BMatP= 7.13D-05
 IDIUse=3 WtCom= 9.98D-01 WtEn= 2.43D-03
 Coeff-Com:  0.419D+00 0.581D+00
 Coeff-En:   0.830D-02 0.992D+00
 Coeff:      0.418D+00 0.582D+00
 Gap=     0.285 Goal=   None    Shift=    0.000
 RMSDP=1.14D-05 MaxDP=1.05D-03 DE=-4.99D-05 OVMax= 1.50D-03

 Cycle   8  Pass 1  IDiag  1:
 RMSU=  1.12D-05    CP:  1.00D+00  1.02D+00
 E= -2048.72250877124     Delta-E=       -0.000032683553 Rises=F Damp=F
 DIIS: error= 9.33D-05 at cycle   3 NSaved=   3.
 NSaved= 3 IEnMin= 3 EnMin= -2048.72250877124     IErMin= 3 ErrMin= 9.33D-05
 ErrMax= 9.33D-05  0.00D+00 EMaxC= 1.00D-01 BMatC= 9.22D-06 BMatP= 4.39D-05
 IDIUse=1 WtCom= 1.00D+00 WtEn= 0.00D+00
 Coeff-Com: -0.191D-01 0.299D+00 0.720D+00
 Coeff:     -0.191D-01 0.299D+00 0.720D+00
 Gap=     0.285 Goal=   None    Shift=    0.000
 RMSDP=5.59D-06 MaxDP=4.30D-04 DE=-3.27D-05 OVMax= 5.64D-04

 Cycle   9  Pass 1  IDiag  1:
 RMSU=  3.84D-06    CP:  1.00D+00  1.05D+00  7.71D-01
 E= -2048.72251765312     Delta-E=       -0.000008881874 Rises=F Damp=F
 DIIS: error= 3.37D-05 at cycle   4 NSaved=   4.
 NSaved= 4 IEnMin= 4 EnMin= -2048.72251765312     IErMin= 4 ErrMin= 3.37D-05
 ErrMax= 3.37D-05  0.00D+00 EMaxC= 1.00D-01 BMatC= 4.98D-07 BMatP= 9.22D-06
 IDIUse=1 WtCom= 1.00D+00 WtEn= 0.00D+00
 Coeff-Com: -0.324D-01 0.791D-01 0.266D+00 0.687D+00
 Coeff:     -0.324D-01 0.791D-01 0.266D+00 0.687D+00
 Gap=     0.285 Goal=   None    Shift=    0.000
 RMSDP=1.45D-06 MaxDP=1.24D-04 DE=-8.88D-06 OVMax= 5.08D-04

 Cycle  10  Pass 1  IDiag  1:
 RMSU=  1.29D-06    CP:  1.00D+00  1.06D+00  8.05D-01  1.10D+00
 E= -2048.72251849425     Delta-E=       -0.000000841139 Rises=F Damp=F
 DIIS: error= 1.58D-05 at cycle   5 NSaved=   5.
 NSaved= 5 IEnMin= 5 EnMin= -2048.72251849425     IErMin= 5 ErrMin= 1.58D-05
 ErrMax= 1.58D-05  0.00D+00 EMaxC= 1.00D-01 BMatC= 1.18D-07 BMatP= 4.98D-07
 IDIUse=1 WtCom= 1.00D+00 WtEn= 0.00D+00
 Coeff-Com: -0.363D-02-0.543D-01-0.121D+00 0.206D+00 0.973D+00
 Coeff:     -0.363D-02-0.543D-01-0.121D+00 0.206D+00 0.973D+00
 Gap=     0.285 Goal=   None    Shift=    0.000
 RMSDP=1.20D-06 MaxDP=7.44D-05 DE=-8.41D-07 OVMax= 2.50D-04

 Cycle  11  Pass 1  IDiag  1:
 RMSU=  4.92D-07    CP:  1.00D+00  1.06D+00  8.14D-01  1.38D+00  1.17D+00
 E= -2048.72251874937     Delta-E=       -0.000000255120 Rises=F Damp=F
 DIIS: error= 8.01D-06 at cycle   6 NSaved=   6.
 NSaved= 6 IEnMin= 6 EnMin= -2048.72251874937     IErMin= 6 ErrMin= 8.01D-06
 ErrMax= 8.01D-06  0.00D+00 EMaxC= 1.00D-01 BMatC= 2.80D-08 BMatP= 1.18D-07
 IDIUse=1 WtCom= 1.00D+00 WtEn= 0.00D+00
 Coeff-Com:  0.457D-02-0.429D-01-0.115D+00-0.663D-03 0.519D+00 0.634D+00
 Coeff:      0.457D-02-0.429D-01-0.115D+00-0.663D-03 0.519D+00 0.634D+00
 Gap=     0.285 Goal=   None    Shift=    0.000
 RMSDP=3.61D-07 MaxDP=3.50D-05 DE=-2.55D-07 OVMax= 1.27D-04

 Cycle  12  Pass 1  IDiag  1:
 RMSU=  1.82D-07    CP:  1.00D+00  1.06D+00  8.16D-01  1.45D+00  1.29D+00
                    CP:  9.33D-01
 E= -2048.72251878936     Delta-E=       -0.000000039980 Rises=F Damp=F
 DIIS: error= 1.38D-06 at cycle   7 NSaved=   7.
 NSaved= 7 IEnMin= 7 EnMin= -2048.72251878936     IErMin= 7 ErrMin= 1.38D-06
 ErrMax= 1.38D-06  0.00D+00 EMaxC= 1.00D-01 BMatC= 6.99D-10 BMatP= 2.80D-08
 IDIUse=1 WtCom= 1.00D+00 WtEn= 0.00D+00
 Coeff-Com:  0.101D-02-0.607D-02-0.177D-01-0.822D-02 0.465D-01 0.123D+00
 Coeff-Com:  0.861D+00
 Coeff:      0.101D-02-0.607D-02-0.177D-01-0.822D-02 0.465D-01 0.123D+00
 Coeff:      0.861D+00
 Gap=     0.285 Goal=   None    Shift=    0.000
 RMSDP=8.45D-08 MaxDP=5.10D-06 DE=-4.00D-08 OVMax= 2.33D-05

 Cycle  13  Pass 1  IDiag  1:
 RMSU=  4.99D-08    CP:  1.00D+00  1.06D+00  8.15D-01  1.46D+00  1.31D+00
                    CP:  1.02D+00  1.14D+00
 E= -2048.72251879081     Delta-E=       -0.000000001451 Rises=F Damp=F
 DIIS: error= 5.34D-07 at cycle   8 NSaved=   8.
 NSaved= 8 IEnMin= 8 EnMin= -2048.72251879081     IErMin= 8 ErrMin= 5.34D-07
 ErrMax= 5.34D-07  0.00D+00 EMaxC= 1.00D-01 BMatC= 2.88D-10 BMatP= 6.99D-10
 IDIUse=1 WtCom= 1.00D+00 WtEn= 0.00D+00
 Coeff-Com: -0.691D-03 0.826D-02 0.212D-01-0.221D-02-0.111D+00-0.101D+00
 Coeff-Com:  0.421D+00 0.765D+00
 Coeff:     -0.691D-03 0.826D-02 0.212D-01-0.221D-02-0.111D+00-0.101D+00
 Coeff:      0.421D+00 0.765D+00
 Gap=     0.285 Goal=   None    Shift=    0.000
 RMSDP=4.43D-08 MaxDP=2.47D-06 DE=-1.45D-09 OVMax= 1.04D-05

 Cycle  14  Pass 1  IDiag  1:
 RMSU=  2.62D-08    CP:  1.00D+00  1.06D+00  8.15D-01  1.46D+00  1.32D+00
                    CP:  1.06D+00  1.28D+00  1.07D+00
 E= -2048.72251879122     Delta-E=       -0.000000000416 Rises=F Damp=F
 DIIS: error= 1.49D-07 at cycle   9 NSaved=   9.
 NSaved= 9 IEnMin= 9 EnMin= -2048.72251879122     IErMin= 9 ErrMin= 1.49D-07
 ErrMax= 1.49D-07  0.00D+00 EMaxC= 1.00D-01 BMatC= 2.35D-11 BMatP= 2.88D-10
 IDIUse=1 WtCom= 1.00D+00 WtEn= 0.00D+00
 Coeff-Com: -0.373D-03 0.384D-02 0.101D-01 0.174D-03-0.473D-01-0.521D-01
 Coeff-Com:  0.748D-01 0.278D+00 0.733D+00
 Coeff:     -0.373D-03 0.384D-02 0.101D-01 0.174D-03-0.473D-01-0.521D-01
 Coeff:      0.748D-01 0.278D+00 0.733D+00
 Gap=     0.285 Goal=   None    Shift=    0.000
 RMSDP=1.26D-08 MaxDP=6.70D-07 DE=-4.16D-10 OVMax= 3.26D-06

 Cycle  15  Pass 1  IDiag  1:
 RMSU=  8.63D-09    CP:  1.00D+00  1.06D+00  8.15D-01  1.46D+00  1.32D+00
                    CP:  1.07D+00  1.31D+00  1.21D+00  1.11D+00
 E= -2048.72251879138     Delta-E=       -0.000000000163 Rises=F Damp=F
 DIIS: error= 7.70D-08 at cycle  10 NSaved=  10.
 NSaved=10 IEnMin=10 EnMin= -2048.72251879138     IErMin=10 ErrMin= 7.70D-08
 ErrMax= 7.70D-08  0.00D+00 EMaxC= 1.00D-01 BMatC= 4.51D-12 BMatP= 2.35D-11
 IDIUse=1 WtCom= 1.00D+00 WtEn= 0.00D+00
 Coeff-Com:  0.226D-04-0.489D-03-0.116D-02 0.164D-03 0.767D-02 0.379D-02
 Coeff-Com: -0.604D-01-0.751D-01 0.266D+00 0.859D+00
 Coeff:      0.226D-04-0.489D-03-0.116D-02 0.164D-03 0.767D-02 0.379D-02
 Coeff:     -0.604D-01-0.751D-01 0.266D+00 0.859D+00
 Gap=     0.285 Goal=   None    Shift=    0.000
 RMSDP=6.55D-09 MaxDP=3.56D-07 DE=-1.63D-10 OVMax= 1.37D-06

 SCF Done:  E(RwB97XD) =  -2048.72251879     A.U. after   15 cycles
            NFock= 15  Conv=0.66D-08     -V/T= 2.0053
 KE= 2.037900995553D+03 PE=-1.584675312072D+04 EE= 6.227131735998D+03
 Leave Link  502 at Sun Jan 21 08:02:24 2018, MaxMem=  4294967296 cpu:           21760.0 elap:             704.8
 (Enter /share/apps/g16/l601.exe)
 Copying SCF densities to generalized density rwf, IOpCl= 0 IROHF=0.

 **********************************************************************

            Population analysis using the SCF density.

 **********************************************************************

 Orbital symmetries:
       Occupied  (A) (A) (A) (A) (A) (A) (A) (A) (A) (A) (A) (A)
                 (A) (A) (A) (A) (A) (A) (A) (A) (A) (A) (A) (A)
                 (A) (A) (A) (A) (A) (A) (A) (A) (A) (A) (A) (A)
                 (A) (A) (A) (A) (A) (A) (A) (A) (A) (A) (A) (A)
                 (A) (A) (A) (A) (A) (A) (A) (A) (A) (A) (A) (A)
                 (A) (A) (A) (A) (A) (A) (A) (A) (A) (A) (A) (A)
                 (A) (A) (A) (A) (A) (A) (A) (A) (A) (A) (A) (A)
                 (A) (A) (A) (A) (A) (A) (A) (A) (A) (A) (A) (A)
                 (A) (A) (A) (A) (A) (A) (A) (A) (A) (A) (A) (A)
                 (A) (A) (A) (A) (A) (A) (A) (A) (A) (A) (A) (A)
                 (A) (A) (A) (A) (A) (A) (A) (A) (A) (A) (A) (A)
                 (A) (A) (A) (A) (A) (A) (A) (A) (A) (A) (A) (A)
                 (A) (A) (A) (A) (A) (A) (A) (A) (A) (A)
       Virtual   (A) (A) (A) (A) (A) (A) (A) (A) (A) (A) (A) (A)
                 (A) (A) (A) (A) (A) (A) (A) (A) (A) (A) (A) (A)
                 (A) (A) (A) (A) (A) (A) (A) (A) (A) (A) (A) (A)
                 (A) (A) (A) (A) (A) (A) (A) (A) (A) (A) (A) (A)
                 (A) (A) (A) (A) (A) (A) (A) (A) (A) (A) (A) (A)
                 (A) (A) (A) (A) (A) (A) (A) (A) (A) (A) (A) (A)
                 (A) (A) (A) (A) (A) (A) (A) (A) (A) (A) (A) (A)
                 (A) (A) (A) (A) (A) (A) (A) (A) (A) (A) (A) (A)
                 (A) (A) (A) (A) (A) (A) (A) (A) (A) (A) (A) (A)
                 (A) (A) (A) (A) (A) (A) (A) (A) (A) (A) (A) (A)
                 (A) (A) (A) (A) (A) (A) (A) (A) (A) (A) (A) (A)
                 (A) (A) (A) (A) (A) (A) (A) (A) (A) (A) (A) (A)
                 (A) (A) (A) (A) (A) (A) (A) (A) (A) (A) (A) (A)
                 (A) (A) (A) (A) (A) (A) (A) (A) (A) (A) (A) (A)
                 (A) (A) (A) (A) (A) (A) (A) (A) (A) (A) (A) (A)
                 (A) (A) (A) (A) (A) (A) (A) (A) (A) (A) (A) (A)
                 (A) (A) (A) (A) (A) (A) (A) (A) (A) (A) (A) (A)
                 (A) (A) (A) (A) (A) (A) (A) (A) (A) (A) (A) (A)
                 (A) (A) (A) (A) (A) (A) (A) (A) (A) (A) (A) (A)
                 (A) (A) (A) (A) (A) (A) (A) (A) (A) (A) (A) (A)
                 (A) (A) (A) (A) (A) (A) (A) (A) (A) (A) (A) (A)
                 (A) (A) (A) (A) (A) (A) (A) (A) (A) (A) (A) (A)
                 (A) (A) (A) (A) (A) (A) (A) (A) (A) (A) (A) (A)
                 (A) (A) (A) (A) (A) (A) (A) (A) (A) (A) (A) (A)
                 (A) (A) (A) (A) (A) (A) (A) (A) (A) (A) (A) (A)
                 (A) (A) (A) (A) (A) (A) (A) (A) (A) (A) (A) (A)
                 (A) (A) (A) (A) (A) (A) (A) (A) (A) (A) (A) (A)
                 (A) (A) (A) (A) (A) (A) (A) (A) (A) (A) (A) (A)
                 (A) (A) (A) (A) (A) (A) (A) (A) (A) (A) (A) (A)
                 (A) (A) (A) (A) (A) (A) (A) (A) (A) (A) (A) (A)
                 (A) (A) (A) (A) (A) (A) (A) (A) (A) (A) (A) (A)
                 (A) (A) (A) (A) (A) (A) (A) (A) (A) (A) (A) (A)
                 (A) (A) (A) (A) (A) (A) (A) (A) (A) (A) (A) (A)
                 (A) (A) (A) (A) (A) (A) (A) (A) (A) (A) (A) (A)
                 (A) (A) (A) (A) (A) (A) (A) (A) (A) (A) (A) (A)
                 (A) (A) (A) (A) (A) (A) (A) (A) (A) (A) (A) (A)
                 (A) (A) (A) (A) (A) (A) (A) (A) (A) (A) (A) (A)
                 (A) (A) (A) (A) (A) (A) (A) (A) (A) (A) (A) (A)
                 (A) (A) (A) (A) (A) (A) (A) (A) (A) (A) (A) (A)
                 (A) (A) (A) (A) (A) (A) (A) (A) (A) (A) (A) (A)
                 (A) (A) (A) (A) (A) (A) (A) (A) (A) (A) (A) (A)
                 (A) (A) (A) (A) (A) (A) (A) (A) (A) (A) (A) (A)
                 (A) (A) (A) (A) (A) (A) (A) (A) (A) (A) (A) (A)
                 (A) (A) (A) (A) (A) (A) (A) (A) (A) (A) (A) (A)
                 (A) (A) (A) (A) (A) (A) (A) (A) (A) (A) (A) (A)
                 (A) (A) (A) (A) (A) (A) (A) (A) (A) (A) (A) (A)
                 (A) (A) (A) (A) (A) (A) (A) (A) (A) (A) (A) (A)
                 (A) (A) (A) (A) (A) (A) (A) (A) (A) (A) (A) (A)
                 (A) (A) (A) (A) (A) (A) (A)
 The electronic state is 1-A.
 Alpha  occ. eigenvalues --  -19.26014 -19.21925 -19.20523 -14.52460 -14.51594
 Alpha  occ. eigenvalues --  -14.49638 -14.48451 -14.47874 -14.46923 -14.46404
 Alpha  occ. eigenvalues --  -14.46290 -14.44627 -14.43194 -14.42943 -14.42511
 Alpha  occ. eigenvalues --  -14.42275 -14.42027 -14.41957 -14.40976 -14.40640
 Alpha  occ. eigenvalues --  -10.45572 -10.40956 -10.40045 -10.38766 -10.38078
 Alpha  occ. eigenvalues --  -10.37691 -10.37238 -10.36272 -10.36144 -10.35729
 Alpha  occ. eigenvalues --  -10.34920 -10.34687 -10.34297 -10.34192 -10.34023
 Alpha  occ. eigenvalues --  -10.33853 -10.33062 -10.31689 -10.31552 -10.30985
 Alpha  occ. eigenvalues --  -10.30248 -10.29443 -10.27996  -1.19562  -1.14340
 Alpha  occ. eigenvalues --   -1.13169  -1.12968  -1.12236  -1.10399  -1.09354
 Alpha  occ. eigenvalues --   -1.08535  -1.08056  -1.05867  -1.03689  -1.02500
 Alpha  occ. eigenvalues --   -1.01308  -1.00232  -0.99584  -0.98436  -0.97793
 Alpha  occ. eigenvalues --   -0.96355  -0.95702  -0.93514  -0.91010  -0.86884
 Alpha  occ. eigenvalues --   -0.85426  -0.84812  -0.83955  -0.83849  -0.83133
 Alpha  occ. eigenvalues --   -0.82150  -0.78854  -0.76140  -0.74571  -0.73861
 Alpha  occ. eigenvalues --   -0.73752  -0.73504  -0.73364  -0.71980  -0.69572
 Alpha  occ. eigenvalues --   -0.67295  -0.67153  -0.66556  -0.65915  -0.64435
 Alpha  occ. eigenvalues --   -0.63661  -0.63626  -0.63334  -0.62686  -0.61625
 Alpha  occ. eigenvalues --   -0.61021  -0.60403  -0.59738  -0.59495  -0.59045
 Alpha  occ. eigenvalues --   -0.58773  -0.58163  -0.57434  -0.57221  -0.56748
 Alpha  occ. eigenvalues --   -0.56099  -0.55949  -0.55214  -0.54680  -0.54362
 Alpha  occ. eigenvalues --   -0.53841  -0.53486  -0.53002  -0.52737  -0.52657
 Alpha  occ. eigenvalues --   -0.52524  -0.52306  -0.51877  -0.51558  -0.50963
 Alpha  occ. eigenvalues --   -0.49974  -0.49884  -0.49434  -0.49076  -0.48617
 Alpha  occ. eigenvalues --   -0.48573  -0.48136  -0.48047  -0.47689  -0.47611
 Alpha  occ. eigenvalues --   -0.47307  -0.45725  -0.45573  -0.43960  -0.43110
 Alpha  occ. eigenvalues --   -0.42071  -0.40040  -0.39571  -0.38107  -0.37355
 Alpha  occ. eigenvalues --   -0.37182  -0.36946  -0.36225  -0.35635  -0.34507
 Alpha  occ. eigenvalues --   -0.34409  -0.34310  -0.33332  -0.33125  -0.32710
 Alpha  occ. eigenvalues --   -0.32538  -0.32178  -0.31908  -0.31766  -0.31611
 Alpha  occ. eigenvalues --   -0.31218  -0.28303  -0.26681  -0.25335
 Alpha virt. eigenvalues --    0.03211   0.04659   0.07110   0.07991   0.08742
 Alpha virt. eigenvalues --    0.09096   0.09580   0.10008   0.11088   0.11727
 Alpha virt. eigenvalues --    0.12983   0.13381   0.14374   0.14635   0.14707
 Alpha virt. eigenvalues --    0.15887   0.16105   0.17249   0.17470   0.18243
 Alpha virt. eigenvalues --    0.18795   0.19014   0.19346   0.19898   0.20222
 Alpha virt. eigenvalues --    0.20657   0.21118   0.21751   0.21948   0.22303
 Alpha virt. eigenvalues --    0.23117   0.23339   0.23579   0.23735   0.23879
 Alpha virt. eigenvalues --    0.24074   0.24364   0.25230   0.25788   0.25926
 Alpha virt. eigenvalues --    0.26377   0.26902   0.27076   0.27190   0.28109
 Alpha virt. eigenvalues --    0.28267   0.29256   0.29610   0.30574   0.30649
 Alpha virt. eigenvalues --    0.31378   0.32685   0.32976   0.33365   0.33667
 Alpha virt. eigenvalues --    0.33721   0.35037   0.35236   0.35904   0.36602
 Alpha virt. eigenvalues --    0.37025   0.37622   0.38171   0.39320   0.39715
 Alpha virt. eigenvalues --    0.40194   0.40962   0.41280   0.41421   0.41900
 Alpha virt. eigenvalues --    0.42377   0.42603   0.43296   0.43833   0.44602
 Alpha virt. eigenvalues --    0.45214   0.45450   0.45916   0.46153   0.47285
 Alpha virt. eigenvalues --    0.47779   0.48531   0.49113   0.49195   0.49776
 Alpha virt. eigenvalues --    0.49915   0.50374   0.50578   0.51154   0.51341
 Alpha virt. eigenvalues --    0.51939   0.52281   0.52986   0.53367   0.54026
 Alpha virt. eigenvalues --    0.54496   0.54734   0.54904   0.55237   0.55706
 Alpha virt. eigenvalues --    0.55968   0.56783   0.56793   0.57274   0.57548
 Alpha virt. eigenvalues --    0.58110   0.58411   0.59022   0.59493   0.59695
 Alpha virt. eigenvalues --    0.60611   0.60725   0.60868   0.61484   0.61784
 Alpha virt. eigenvalues --    0.61993   0.62474   0.62988   0.63366   0.63781
 Alpha virt. eigenvalues --    0.64081   0.64669   0.65056   0.65126   0.65400
 Alpha virt. eigenvalues --    0.65738   0.66314   0.66685   0.67072   0.67940
 Alpha virt. eigenvalues --    0.67992   0.68781   0.68876   0.69029   0.70038
 Alpha virt. eigenvalues --    0.70671   0.70982   0.71527   0.71833   0.72286
 Alpha virt. eigenvalues --    0.72807   0.73445   0.73685   0.74024   0.74307
 Alpha virt. eigenvalues --    0.74547   0.74687   0.75023   0.75282   0.75745
 Alpha virt. eigenvalues --    0.76008   0.76205   0.76436   0.76754   0.77154
 Alpha virt. eigenvalues --    0.77496   0.77856   0.78460   0.78722   0.79013
 Alpha virt. eigenvalues --    0.79415   0.79691   0.79785   0.80772   0.80909
 Alpha virt. eigenvalues --    0.81452   0.81642   0.82775   0.82906   0.83230
 Alpha virt. eigenvalues --    0.83516   0.84291   0.84946   0.85138   0.85399
 Alpha virt. eigenvalues --    0.86078   0.86146   0.86562   0.87043   0.87654
 Alpha virt. eigenvalues --    0.88415   0.88505   0.88762   0.89273   0.89613
 Alpha virt. eigenvalues --    0.90561   0.90694   0.91129   0.91832   0.92195
 Alpha virt. eigenvalues --    0.92687   0.92975   0.93879   0.94285   0.95105
 Alpha virt. eigenvalues --    0.95166   0.95675   0.95887   0.96470   0.96800
 Alpha virt. eigenvalues --    0.97274   0.97786   0.98056   0.98700   0.99110
 Alpha virt. eigenvalues --    0.99931   1.00621   1.00934   1.01119   1.01657
 Alpha virt. eigenvalues --    1.02148   1.02965   1.03195   1.03555   1.03915
 Alpha virt. eigenvalues --    1.04512   1.05192   1.05526   1.05789   1.06309
 Alpha virt. eigenvalues --    1.06616   1.07026   1.07233   1.07913   1.08755
 Alpha virt. eigenvalues --    1.09061   1.09370   1.10756   1.11192   1.11686
 Alpha virt. eigenvalues --    1.12554   1.13264   1.13524   1.13686   1.14116
 Alpha virt. eigenvalues --    1.14404   1.14449   1.14903   1.15127   1.15914
 Alpha virt. eigenvalues --    1.16109   1.16584   1.17613   1.18096   1.18476
 Alpha virt. eigenvalues --    1.19226   1.19420   1.19668   1.19955   1.20197
 Alpha virt. eigenvalues --    1.20907   1.21295   1.21573   1.21908   1.22150
 Alpha virt. eigenvalues --    1.22569   1.22703   1.22985   1.23366   1.23854
 Alpha virt. eigenvalues --    1.24882   1.25324   1.26380   1.26691   1.26754
 Alpha virt. eigenvalues --    1.27347   1.27964   1.28410   1.28820   1.29404
 Alpha virt. eigenvalues --    1.29906   1.30495   1.31227   1.31518   1.32047
 Alpha virt. eigenvalues --    1.32341   1.33574   1.33967   1.34803   1.35311
 Alpha virt. eigenvalues --    1.36029   1.36653   1.37135   1.38023   1.38255
 Alpha virt. eigenvalues --    1.38684   1.39085   1.40047   1.40404   1.41137
 Alpha virt. eigenvalues --    1.42012   1.43434   1.43910   1.45043   1.45628
 Alpha virt. eigenvalues --    1.46783   1.47357   1.48149   1.48473   1.48615
 Alpha virt. eigenvalues --    1.49517   1.50279   1.50524   1.50733   1.51475
 Alpha virt. eigenvalues --    1.52809   1.53001   1.54030   1.54650   1.55027
 Alpha virt. eigenvalues --    1.55419   1.56847   1.57068   1.57801   1.58780
 Alpha virt. eigenvalues --    1.59364   1.59741   1.59965   1.61075   1.61718
 Alpha virt. eigenvalues --    1.62678   1.62959   1.63178   1.64082   1.64411
 Alpha virt. eigenvalues --    1.65663   1.66280   1.66568   1.66962   1.67398
 Alpha virt. eigenvalues --    1.67669   1.68095   1.68412   1.69269   1.69920
 Alpha virt. eigenvalues --    1.70245   1.70772   1.70945   1.71266   1.72357
 Alpha virt. eigenvalues --    1.72702   1.72859   1.73179   1.73493   1.73601
 Alpha virt. eigenvalues --    1.74733   1.74840   1.75193   1.75602   1.75905
 Alpha virt. eigenvalues --    1.76331   1.76794   1.76917   1.77166   1.77970
 Alpha virt. eigenvalues --    1.78166   1.78684   1.79172   1.79443   1.79673
 Alpha virt. eigenvalues --    1.79877   1.80044   1.80326   1.80615   1.81028
 Alpha virt. eigenvalues --    1.81264   1.81494   1.82186   1.82678   1.83098
 Alpha virt. eigenvalues --    1.83777   1.84300   1.84455   1.84579   1.85522
 Alpha virt. eigenvalues --    1.86063   1.86393   1.87228   1.87411   1.88336
 Alpha virt. eigenvalues --    1.88374   1.88808   1.89134   1.89517   1.90144
 Alpha virt. eigenvalues --    1.90736   1.90962   1.91033   1.91802   1.91969
 Alpha virt. eigenvalues --    1.92694   1.92777   1.93216   1.94329   1.94700
 Alpha virt. eigenvalues --    1.94926   1.95775   1.96723   1.96975   1.98039
 Alpha virt. eigenvalues --    1.99180   1.99969   2.00851   2.01155   2.02168
 Alpha virt. eigenvalues --    2.02638   2.02677   2.03898   2.04225   2.04887
 Alpha virt. eigenvalues --    2.05265   2.05721   2.06802   2.07347   2.07656
 Alpha virt. eigenvalues --    2.08053   2.08309   2.09069   2.10079   2.10643
 Alpha virt. eigenvalues --    2.10923   2.11551   2.12116   2.13065   2.13449
 Alpha virt. eigenvalues --    2.14368   2.15051   2.16190   2.18851   2.19162
 Alpha virt. eigenvalues --    2.19382   2.20008   2.20543   2.21058   2.21731
 Alpha virt. eigenvalues --    2.21841   2.22367   2.23182   2.23678   2.24115
 Alpha virt. eigenvalues --    2.25270   2.25762   2.26191   2.26721   2.27382
 Alpha virt. eigenvalues --    2.28067   2.28842   2.29070   2.29444   2.30251
 Alpha virt. eigenvalues --    2.30531   2.30941   2.32028   2.32504   2.33417
 Alpha virt. eigenvalues --    2.33923   2.34270   2.34884   2.35182   2.35337
 Alpha virt. eigenvalues --    2.35816   2.36895   2.37456   2.37763   2.38120
 Alpha virt. eigenvalues --    2.38893   2.40357   2.40851   2.40929   2.41386
 Alpha virt. eigenvalues --    2.41706   2.42570   2.42926   2.43397   2.44475
 Alpha virt. eigenvalues --    2.45403   2.46169   2.46360   2.46760   2.47951
 Alpha virt. eigenvalues --    2.49109   2.49298   2.49851   2.50079   2.52232
 Alpha virt. eigenvalues --    2.53310   2.54165   2.55219   2.55584   2.56854
 Alpha virt. eigenvalues --    2.57026   2.57689   2.58248   2.58852   2.60086
 Alpha virt. eigenvalues --    2.60801   2.61555   2.61695   2.62362   2.64264
 Alpha virt. eigenvalues --    2.64770   2.65430   2.65645   2.66009   2.67422
 Alpha virt. eigenvalues --    2.67657   2.67749   2.68252   2.68796   2.69633
 Alpha virt. eigenvalues --    2.70356   2.71356   2.71812   2.72891   2.73862
 Alpha virt. eigenvalues --    2.74161   2.74798   2.75106   2.75178   2.76355
 Alpha virt. eigenvalues --    2.78612   2.79133   2.79348   2.79930   2.80339
 Alpha virt. eigenvalues --    2.80871   2.81147   2.81400   2.81617   2.82219
 Alpha virt. eigenvalues --    2.82489   2.83253   2.83692   2.83884   2.84466
 Alpha virt. eigenvalues --    2.85884   2.86419   2.86864   2.87169   2.87809
 Alpha virt. eigenvalues --    2.88260   2.89220   2.90146   2.92604   2.94010
 Alpha virt. eigenvalues --    2.94930   2.96092   2.97146   2.98709   2.99715
 Alpha virt. eigenvalues --    3.00129   3.02344   3.04499   3.05116   3.06820
 Alpha virt. eigenvalues --    3.08057   3.09710   3.11231   3.14147   3.14594
 Alpha virt. eigenvalues --    3.15286   3.16195   3.16671   3.18279   3.21116
 Alpha virt. eigenvalues --    3.22431   3.23172   3.23814   3.24524   3.27753
 Alpha virt. eigenvalues --    3.45876   3.46982   3.48480   3.49891   3.50429
 Alpha virt. eigenvalues --    3.52784   3.54086   3.56729   3.58593   3.60216
 Alpha virt. eigenvalues --    3.63304   3.71302   3.74757
          Condensed to atoms (all electrons):
 Mulliken charges:
               1
     1  N   -0.311909
     2  C    0.180376
     3  C    0.045682
     4  N   -0.257515
     5  C    0.133722
     6  H    0.029312
     7  N   -0.273830
     8  C    0.122239
     9  H    0.019563
    10  N   -0.289867
    11  C    0.231246
    12  C    0.106931
    13  N   -0.048305
    14  H    0.107931
    15  H    0.088065
    16  H    0.027781
    17  H    0.034382
    18  H    0.026851
    19  N   -0.295721
    20  C    0.234245
    21  C    0.177901
    22  N   -0.084246
    23  H    0.102064
    24  H    0.115413
    25  N   -0.287632
    26  C    0.205515
    27  N   -0.112761
    28  H    0.120272
    29  C    0.130846
    30  O   -0.319975
    31  C    0.018537
    32  N   -0.221486
    33  C    0.118055
    34  H    0.026869
    35  H    0.024472
    36  H    0.025968
    37  H    0.022071
    38  H    0.053994
    39  H    0.065251
    40  H    0.071974
    41  H    0.030710
    42  C   -0.109892
    43  O   -0.267914
    44  C    0.178808
    45  H    0.136141
    46  N   -0.133886
    47  O   -0.349827
    48  C    0.355960
    49  H    0.046800
    50  C    0.178381
    51  C    0.035119
    52  N   -0.288749
    53  H    0.035573
    54  H    0.024421
    55  H    0.025424
    56  H    0.120811
    57  H    0.118691
    58  N   -0.064232
    59  C    0.123801
    60  C    0.230960
    61  N   -0.274118
    62  H    0.055735
    63  C    0.160584
    64  N   -0.301396
    65  H    0.028641
    66  C    0.116017
    67  N   -0.254775
    68  C    0.007253
    69  C    0.170452
    70  N   -0.299779
 Sum of Mulliken charges =  -0.00000
 Mulliken charges with hydrogens summed into heavy atoms:
               1
     1  N   -0.311909
     2  C    0.269391
     3  C    0.045682
     4  N   -0.257515
     5  C    0.163035
     7  N   -0.273830
     8  C    0.141802
    10  N   -0.289867
    11  C    0.231246
    12  C    0.106931
    13  N    0.147691
    19  N   -0.295721
    20  C    0.234245
    21  C    0.250412
    22  N    0.133232
    25  N   -0.287632
    26  C    0.205515
    27  N    0.007511
    29  C    0.130846
    30  O   -0.319975
    31  C    0.018537
    32  N   -0.221486
    33  C    0.144924
    42  C   -0.079182
    43  O   -0.267914
    44  C    0.178808
    46  N    0.002255
    47  O   -0.349827
    48  C    0.355960
    50  C    0.225182
    51  C    0.226337
    52  N   -0.288749
    58  N    0.175270
    59  C    0.123801
    60  C    0.230960
    61  N   -0.274118
    63  C    0.216318
    64  N   -0.301396
    66  C    0.144659
    67  N   -0.254775
    68  C    0.007253
    69  C    0.255870
    70  N   -0.299779
 Electronic spatial extent (au):  <R**2>=          23339.3099
 Charge=             -0.0000 electrons
 Dipole moment (field-independent basis, Debye):
    X=              6.0052    Y=              5.9017    Z=              3.6870  Tot=              9.1917
 Quadrupole moment (field-independent basis, Debye-Ang):
   XX=           -140.9099   YY=           -227.2499   ZZ=           -256.0345
   XY=             13.1025   XZ=             13.8598   YZ=             -9.4428
 Traceless Quadrupole moment (field-independent basis, Debye-Ang):
   XX=             67.1549   YY=            -19.1851   ZZ=            -47.9697
   XY=             13.1025   XZ=             13.8598   YZ=             -9.4428
 Octapole moment (field-independent basis, Debye-Ang**2):
  XXX=             -4.7965  YYY=             79.8443  ZZZ=             11.3148  XYY=             48.8386
  XXY=             13.1743  XXZ=            -51.9978  XZZ=             17.3146  YZZ=             37.2771
  YYZ=             64.0529  XYZ=             33.4427
 Hexadecapole moment (field-independent basis, Debye-Ang**3):
 XXXX=         -16028.1581 YYYY=          -4610.7687 ZZZZ=          -3108.6709 XXXY=            513.4432
 XXXZ=            165.0233 YYYX=             85.1126 YYYZ=           -103.3169 ZZZX=             51.5205
 ZZZY=              5.7406 XXYY=          -4277.3127 XXZZ=          -4281.8794 YYZZ=          -1341.5089
 XXYZ=             79.2170 YYXZ=            206.8415 ZZXY=             74.4790
 N-N= 5.532997870374D+03 E-N=-1.584675312078D+04  KE= 2.037900995553D+03
 No NMR shielding tensors so no spin-rotation constants.
 Leave Link  601 at Sun Jan 21 08:02:26 2018, MaxMem=  4294967296 cpu:              46.5 elap:               1.6
 (Enter /share/apps/g16/l9999.exe)
 1\1\GINC-COMPUTE-0-3\SP\RwB97XD\CC-pVDZ\C23H27N17O3\SATYA\21-Jan-2018\
 0\\#p wb97xd/cc-pvdz sp scf=(maxcycles=20)\\Base pair stacking\\0,1\N,
 0,5.06371,7.66423,-7.15004\C,0,5.53617,9.06234,-7.15774\C,0,3.80695,5.
 86615,-6.99256\N,0,5.08137,5.42196,-7.31395\C,0,5.78751,6.52302,-7.395
 96\H,0,6.8507,6.56135,-7.63492\N,0,1.50878,5.9277,-6.46572\C,0,1.63737
 ,7.25689,-6.40017\H,0,0.72626,7.80064,-6.15427\N,0,2.71739,8.01169,-6.
 59187\C,0,3.78055,7.24598,-6.88816\C,0,2.59689,5.18545,-6.76602\N,0,2.
 47053,3.85848,-6.83192\H,0,3.24937,3.26971,-7.05096\H,0,1.59353,3.4078
 6,-6.66468\H,0,5.89721,9.28863,-8.06252\H,0,4.77526,9.67329,-6.9412\H,
 0,6.25769,9.17632,-6.4748\N,0,1.42125,6.71796,-3.28139\C,0,0.50588,5.6
 9877,-3.17469\C,0,1.10013,8.15923,-3.263\N,0,-2.78011,4.6322,-2.8191\H
 ,0,-3.27124,3.76366,-2.75845\H,0,-3.32814,5.46768,-2.77052\N,0,-0.8299
 7,5.84158,-3.03623\C,0,-1.44656,4.6756,-2.95929\N,0,-0.80581,3.46151,-
 3.01357\H,0,-1.35806,2.62037,-2.9468\C,0,0.56771,3.29081,-3.15568\O,0,
 1.04582,2.15033,-3.19371\C,0,1.24361,4.53459,-3.23967\N,0,2.59495,4.81
 721,-3.38425\C,0,2.65233,6.12125,-3.40407\H,0,3.57035,6.70094,-3.5064\
 H,0,1.39823,8.57978,-4.1192\H,0,0.11329,8.27738,-3.16085\H,0,1.56829,8
 .59696,-2.49617\H,0,-4.7258,-1.18013,-3.20601\H,0,-4.34392,-1.35827,-1
 .49514\H,0,-4.2889,0.23557,-2.2488\H,0,-0.50547,-3.47372,-3.4795\C,0,-
 0.88873,-2.47109,-3.28956\O,0,1.20069,-1.40568,-3.645\C,0,0.0017,-1.35
 388,-3.37199\H,0,0.01275,0.68188,-3.16248\N,0,-0.58478,-0.13133,-3.113
 79\O,0,-2.32597,1.22679,-2.58373\C,0,-1.89868,0.10559,-2.79584\H,0,-2.
 89343,-3.08759,-2.90629\C,0,-2.17561,-2.27187,-2.98158\C,0,-4.10598,-0
 .818,-2.39932\N,0,-2.69419,-1.02168,-2.73565\H,0,-5.72541,2.96172,-5.2
 2003\H,0,-4.5872,3.79135,-4.39645\H,0,-5.29785,2.488,-3.71796\H,0,1.02
 912,0.48282,-7.03575\H,0,-0.33951,-0.53309,-6.96598\N,0,0.06472,0.3666
 6,-6.79788\C,0,-0.65135,1.36651,-6.27948\C,0,-2.6171,2.37959,-5.40131\
 N,0,-2.04793,3.57721,-5.18641\H,0,-0.22969,4.49501,-5.41499\C,0,-0.768
 88,3.55925,-5.55602\N,0,-0.04987,2.55885,-6.07543\H,0,-4.9588,0.15083,
 -5.43631\C,0,-4.02193,0.7008,-5.52984\N,0,-2.90784,0.19968,-6.00456\C,
 0,-2.00896,1.25372,-5.92865\C,0,-4.96578,2.88353,-4.57439\N,0,-3.91791
 ,2.01547,-5.14574\\Version=EM64L-G16RevA.03\State=1-A\HF=-2048.7225188
 \RMSD=6.550e-09\Dipole=-3.6112826,-0.0514759,0.1828431\Quadrupole=16.6
 383543,8.5527903,-25.1911446,36.249311,-20.6885474,-0.3825203\PG=C01 [
 X(C23H27N17O3)]\\@


 THERE IS NO SCIENCE WITHOUT FANCY, NOR ART WITHOUT FACTS.
     -- VLADIMIR NABAKOV
 Job cpu time:       0 days  6 hours 12 minutes 55.3 seconds.
 Elapsed time:       0 days  0 hours 12 minutes  4.5 seconds.
 File lengths (MBytes):  RWF=    298 Int=      0 D2E=      0 Chk=     33 Scr=      1
 Normal termination of Gaussian 16 at Sun Jan 21 08:02:26 2018.
