 Entering Gaussian System, Link 0=g16
 Input=str30.10.1.5.com
 Output=str30.10.1.5.log
 Initial command:
 /share/apps/g16/l1.exe "/state/partition1/scr/Gau-27266.inp" -scrdir="/state/partition1/scr/"
 Entering Link 1 = /share/apps/g16/l1.exe PID=     27267.
  
 Copyright (c) 1988,1990,1992,1993,1995,1998,2003,2009,2016,
            Gaussian, Inc.  All Rights Reserved.
  
 This is part of the Gaussian(R) 16 program.  It is based on
 the Gaussian(R) 09 system (copyright 2009, Gaussian, Inc.),
 the Gaussian(R) 03 system (copyright 2003, Gaussian, Inc.),
 the Gaussian(R) 98 system (copyright 1998, Gaussian, Inc.),
 the Gaussian(R) 94 system (copyright 1995, Gaussian, Inc.),
 the Gaussian 92(TM) system (copyright 1992, Gaussian, Inc.),
 the Gaussian 90(TM) system (copyright 1990, Gaussian, Inc.),
 the Gaussian 88(TM) system (copyright 1988, Gaussian, Inc.),
 the Gaussian 86(TM) system (copyright 1986, Carnegie Mellon
 University), and the Gaussian 82(TM) system (copyright 1983,
 Carnegie Mellon University). Gaussian is a federally registered
 trademark of Gaussian, Inc.
  
 This software contains proprietary and confidential information,
 including trade secrets, belonging to Gaussian, Inc.
  
 This software is provided under written license and may be
 used, copied, transmitted, or stored only in accord with that
 written license.
  
 The following legend is applicable only to US Government
 contracts under FAR:
  
                    RESTRICTED RIGHTS LEGEND
  
 Use, reproduction and disclosure by the US Government is
 subject to restrictions as set forth in subparagraphs (a)
 and (c) of the Commercial Computer Software - Restricted
 Rights clause in FAR 52.227-19.
  
 Gaussian, Inc.
 340 Quinnipiac St., Bldg. 40, Wallingford CT 06492
  
  
 ---------------------------------------------------------------
 Warning -- This program may not be used in any manner that
 competes with the business of Gaussian, Inc. or will provide
 assistance to any competitor of Gaussian, Inc.  The licensee
 of this program is prohibited from giving any competitor of
 Gaussian, Inc. access to this program.  By using this program,
 the user acknowledges that Gaussian, Inc. is engaged in the
 business of creating and licensing software in the field of
 computational chemistry and represents and warrants to the
 licensee that it is not a competitor of Gaussian, Inc. and that
 it will not use this program in any manner prohibited above.
 ---------------------------------------------------------------
  

 Cite this work as:
 Gaussian 16, Revision A.03,
 M. J. Frisch, G. W. Trucks, H. B. Schlegel, G. E. Scuseria, 
 M. A. Robb, J. R. Cheeseman, G. Scalmani, V. Barone, 
 G. A. Petersson, H. Nakatsuji, X. Li, M. Caricato, A. V. Marenich, 
 J. Bloino, B. G. Janesko, R. Gomperts, B. Mennucci, H. P. Hratchian, 
 J. V. Ortiz, A. F. Izmaylov, J. L. Sonnenberg, D. Williams-Young, 
 F. Ding, F. Lipparini, F. Egidi, J. Goings, B. Peng, A. Petrone, 
 T. Henderson, D. Ranasinghe, V. G. Zakrzewski, J. Gao, N. Rega, 
 G. Zheng, W. Liang, M. Hada, M. Ehara, K. Toyota, R. Fukuda, 
 J. Hasegawa, M. Ishida, T. Nakajima, Y. Honda, O. Kitao, H. Nakai, 
 T. Vreven, K. Throssell, J. A. Montgomery, Jr., J. E. Peralta, 
 F. Ogliaro, M. J. Bearpark, J. J. Heyd, E. N. Brothers, K. N. Kudin, 
 V. N. Staroverov, T. A. Keith, R. Kobayashi, J. Normand, 
 K. Raghavachari, A. P. Rendell, J. C. Burant, S. S. Iyengar, 
 J. Tomasi, M. Cossi, J. M. Millam, M. Klene, C. Adamo, R. Cammi, 
 J. W. Ochterski, R. L. Martin, K. Morokuma, O. Farkas, 
 J. B. Foresman, and D. J. Fox, Gaussian, Inc., Wallingford CT, 2016.
 
 ******************************************
 Gaussian 16:  EM64L-G16RevA.03 25-Dec-2016
                21-Jan-2018 
 ******************************************
 %nprocshared=32
 Will use up to   32 processors via shared memory.
 %mem=32GB
 %chk=allatoms_t.chk
 ---------------------------------------
 #p wb97xd/cc-pvdz sp scf=(maxcycles=20)
 ---------------------------------------
 1/38=1,172=1/1;
 2/12=2,17=6,18=5,40=1/2;
 3/5=16,11=2,25=1,30=1,74=-58/1,2,3;
 4//1;
 5/5=2,7=20,38=5/2;
 6/7=2,8=2,9=2,10=2,28=1/1;
 99/5=1,9=1/99;
 Leave Link    1 at Sun Jan 21 07:38:44 2018, MaxMem=  4294967296 cpu:               2.7 elap:               0.1
 (Enter /share/apps/g16/l101.exe)
 ------------------
 Base pair stacking
 ------------------
 Symbolic Z-matrix:
 Charge =  0 Multiplicity = 1
 N                     3.85728   1.22598  -5.99798 
 C                     4.38638   2.59097  -6.18467 
 C                     2.54943  -0.54222  -5.98008 
 N                     3.75813  -0.94797  -5.43314 
 C                     4.49769   0.13354  -5.46582 
 H                     5.52724   0.19154  -5.11144 
 N                     0.33143  -0.52756  -6.78209 
 C                     0.52461   0.76386  -7.06931 
 H                    -0.32779   1.27328  -7.5167 
 N                     1.60757   1.51694  -6.88772 
 C                     2.59543   0.79526  -6.33297 
 C                     1.34462  -1.22599  -6.22465 
 N                     1.15371  -2.51522  -5.93722 
 H                     1.87595  -3.07088  -5.52389 
 H                     0.28274  -2.96935  -6.12512 
 H                     5.18588   2.56085  -6.78473 
 H                     3.68263   3.16849  -6.59738 
 H                     4.65081   2.97225  -5.29884 
 N                     1.10688   3.34062  -3.29923 
 C                     0.19109   2.32154  -3.4034 
 C                     0.81711   4.77345  -3.50833 
 N                    -3.05101   1.24316  -4.02602 
 H                    -3.54799   0.3762   -4.05105 
 H                    -3.57397   2.0719   -4.22707 
 N                    -1.11682   2.45684  -3.71181 
 C                    -1.74208   1.29319  -3.73598 
 N                    -1.13479   0.0881   -3.47815 
 H                    -1.69126  -0.7519   -3.51929 
 C                     0.20958  -0.07476  -3.15876 
 O                     0.65863  -1.20742  -2.94387 
 C                     0.8944    1.16662  -3.12896 
 N                     2.22495   1.45484  -2.85795 
 C                     2.30407   2.75303  -2.97039 
 H                     3.21476   3.33469  -2.82347 
 H                     1.37905   5.12304  -4.25722 
 H                    -0.14888   4.886    -3.73738 
 H                     1.02187   5.28205  -2.67274 
 H                    -4.85301  -4.60782  -4.51324 
 H                    -5.04032  -4.63285  -2.7614 
 H                    -4.72487  -3.10906  -3.59202 
 H                    -0.79933  -6.85657  -3.22583 
 C                    -1.20899  -5.84685  -3.25521 
 O                     0.89931  -4.78651  -3.01464 
 C                    -0.3232   -4.72838  -3.14452 
 H                    -0.35091  -2.6822   -3.11825 
 N                    -0.94411  -3.49657  -3.19331 
 O                    -2.74402  -2.12266  -3.36613 
 C                    -2.28724  -3.25179  -3.33342 
 H                    -3.23957  -6.45639  -3.48103 
 C                    -2.52387  -5.64009  -3.39285 
 C                    -4.51835  -4.16898  -3.58508 
 N                    -3.07613  -4.38085  -3.4339 
 H                    -6.71614  -3.60268  -8.66828 
 H                    -6.10831  -2.46288  -7.67154 
 H                    -7.18175  -3.55407  -7.10487 
 H                    -0.26225  -5.90575  -5.82069 
 H                    -1.54933  -6.96936  -6.17038 
 N                    -1.21445  -6.02905  -6.10045 
 C                    -2.00344  -4.98656  -6.36858 
 C                    -4.03866  -3.93285  -7.00832 
 N                    -3.56192  -2.68118  -6.90601 
 H                    -1.81943  -1.71908  -6.41744 
 C                    -2.28607  -2.69727  -6.52541 
 N                    -1.49411  -3.74034  -6.25638 
 H                    -6.20378  -6.26488  -7.57934 
 C                    -5.31177  -5.68868  -7.33188 
 N                    -4.16381  -6.2096   -6.97337 
 C                    -3.3477   -5.10716  -6.76522 
 C                    -6.41702  -3.41156  -7.7334 
 N                    -5.30735  -4.31575  -7.37413 
 
 ITRead=  0  0  0  0  0  0  0  0  0  0  0  0  0  0  0  0  0  0  0  0
 ITRead=  0  0  0  0  0  0  0  0  0  0  0  0  0  0  0  0  0  0  0  0
 ITRead=  0  0  0  0  0  0  0  0  0  0  0  0  0  0  0  0  0  0  0  0
 ITRead=  0  0  0  0  0  0  0  0  0  0
 MicOpt= -1 -1 -1 -1 -1 -1 -1 -1 -1 -1 -1 -1 -1 -1 -1 -1 -1 -1 -1 -1
 MicOpt= -1 -1 -1 -1 -1 -1 -1 -1 -1 -1 -1 -1 -1 -1 -1 -1 -1 -1 -1 -1
 MicOpt= -1 -1 -1 -1 -1 -1 -1 -1 -1 -1 -1 -1 -1 -1 -1 -1 -1 -1 -1 -1
 MicOpt= -1 -1 -1 -1 -1 -1 -1 -1 -1 -1
 NAtoms=     70 NQM=       70 NQMF=       0 NMMI=      0 NMMIF=      0
                NMic=       0 NMicF=      0.
                    Isotopes and Nuclear Properties:
 (Nuclear quadrupole moments (NQMom) in fm**2, nuclear magnetic moments (NMagM)
  in nuclear magnetons)

  Atom         1           2           3           4           5           6           7           8           9          10
 IAtWgt=          14          12          12          14          12           1          14          12           1          14
 AtmWgt=  14.0030740  12.0000000  12.0000000  14.0030740  12.0000000   1.0078250  14.0030740  12.0000000   1.0078250  14.0030740
 NucSpn=           2           0           0           2           0           1           2           0           1           2
 AtZEff=  -0.0000000  -0.0000000  -0.0000000  -0.0000000  -0.0000000  -0.0000000  -0.0000000  -0.0000000  -0.0000000  -0.0000000
 NQMom=    2.0440000   0.0000000   0.0000000   2.0440000   0.0000000   0.0000000   2.0440000   0.0000000   0.0000000   2.0440000
 NMagM=    0.4037610   0.0000000   0.0000000   0.4037610   0.0000000   2.7928460   0.4037610   0.0000000   2.7928460   0.4037610
 AtZNuc=   7.0000000   6.0000000   6.0000000   7.0000000   6.0000000   1.0000000   7.0000000   6.0000000   1.0000000   7.0000000

  Atom        11          12          13          14          15          16          17          18          19          20
 IAtWgt=          12          12          14           1           1           1           1           1          14          12
 AtmWgt=  12.0000000  12.0000000  14.0030740   1.0078250   1.0078250   1.0078250   1.0078250   1.0078250  14.0030740  12.0000000
 NucSpn=           0           0           2           1           1           1           1           1           2           0
 AtZEff=  -0.0000000  -0.0000000  -0.0000000  -0.0000000  -0.0000000  -0.0000000  -0.0000000  -0.0000000  -0.0000000  -0.0000000
 NQMom=    0.0000000   0.0000000   2.0440000   0.0000000   0.0000000   0.0000000   0.0000000   0.0000000   2.0440000   0.0000000
 NMagM=    0.0000000   0.0000000   0.4037610   2.7928460   2.7928460   2.7928460   2.7928460   2.7928460   0.4037610   0.0000000
 AtZNuc=   6.0000000   6.0000000   7.0000000   1.0000000   1.0000000   1.0000000   1.0000000   1.0000000   7.0000000   6.0000000

  Atom        21          22          23          24          25          26          27          28          29          30
 IAtWgt=          12          14           1           1          14          12          14           1          12          16
 AtmWgt=  12.0000000  14.0030740   1.0078250   1.0078250  14.0030740  12.0000000  14.0030740   1.0078250  12.0000000  15.9949146
 NucSpn=           0           2           1           1           2           0           2           1           0           0
 AtZEff=  -0.0000000  -0.0000000  -0.0000000  -0.0000000  -0.0000000  -0.0000000  -0.0000000  -0.0000000  -0.0000000  -0.0000000
 NQMom=    0.0000000   2.0440000   0.0000000   0.0000000   2.0440000   0.0000000   2.0440000   0.0000000   0.0000000   0.0000000
 NMagM=    0.0000000   0.4037610   2.7928460   2.7928460   0.4037610   0.0000000   0.4037610   2.7928460   0.0000000   0.0000000
 AtZNuc=   6.0000000   7.0000000   1.0000000   1.0000000   7.0000000   6.0000000   7.0000000   1.0000000   6.0000000   8.0000000

  Atom        31          32          33          34          35          36          37          38          39          40
 IAtWgt=          12          14          12           1           1           1           1           1           1           1
 AtmWgt=  12.0000000  14.0030740  12.0000000   1.0078250   1.0078250   1.0078250   1.0078250   1.0078250   1.0078250   1.0078250
 NucSpn=           0           2           0           1           1           1           1           1           1           1
 AtZEff=  -0.0000000  -0.0000000  -0.0000000  -0.0000000  -0.0000000  -0.0000000  -0.0000000  -0.0000000  -0.0000000  -0.0000000
 NQMom=    0.0000000   2.0440000   0.0000000   0.0000000   0.0000000   0.0000000   0.0000000   0.0000000   0.0000000   0.0000000
 NMagM=    0.0000000   0.4037610   0.0000000   2.7928460   2.7928460   2.7928460   2.7928460   2.7928460   2.7928460   2.7928460
 AtZNuc=   6.0000000   7.0000000   6.0000000   1.0000000   1.0000000   1.0000000   1.0000000   1.0000000   1.0000000   1.0000000

  Atom        41          42          43          44          45          46          47          48          49          50
 IAtWgt=           1          12          16          12           1          14          16          12           1          12
 AtmWgt=   1.0078250  12.0000000  15.9949146  12.0000000   1.0078250  14.0030740  15.9949146  12.0000000   1.0078250  12.0000000
 NucSpn=           1           0           0           0           1           2           0           0           1           0
 AtZEff=  -0.0000000  -0.0000000  -0.0000000  -0.0000000  -0.0000000  -0.0000000  -0.0000000  -0.0000000  -0.0000000  -0.0000000
 NQMom=    0.0000000   0.0000000   0.0000000   0.0000000   0.0000000   2.0440000   0.0000000   0.0000000   0.0000000   0.0000000
 NMagM=    2.7928460   0.0000000   0.0000000   0.0000000   2.7928460   0.4037610   0.0000000   0.0000000   2.7928460   0.0000000
 AtZNuc=   1.0000000   6.0000000   8.0000000   6.0000000   1.0000000   7.0000000   8.0000000   6.0000000   1.0000000   6.0000000

  Atom        51          52          53          54          55          56          57          58          59          60
 IAtWgt=          12          14           1           1           1           1           1          14          12          12
 AtmWgt=  12.0000000  14.0030740   1.0078250   1.0078250   1.0078250   1.0078250   1.0078250  14.0030740  12.0000000  12.0000000
 NucSpn=           0           2           1           1           1           1           1           2           0           0
 AtZEff=  -0.0000000  -0.0000000  -0.0000000  -0.0000000  -0.0000000  -0.0000000  -0.0000000  -0.0000000  -0.0000000  -0.0000000
 NQMom=    0.0000000   2.0440000   0.0000000   0.0000000   0.0000000   0.0000000   0.0000000   2.0440000   0.0000000   0.0000000
 NMagM=    0.0000000   0.4037610   2.7928460   2.7928460   2.7928460   2.7928460   2.7928460   0.4037610   0.0000000   0.0000000
 AtZNuc=   6.0000000   7.0000000   1.0000000   1.0000000   1.0000000   1.0000000   1.0000000   7.0000000   6.0000000   6.0000000

  Atom        61          62          63          64          65          66          67          68          69          70
 IAtWgt=          14           1          12          14           1          12          14          12          12          14
 AtmWgt=  14.0030740   1.0078250  12.0000000  14.0030740   1.0078250  12.0000000  14.0030740  12.0000000  12.0000000  14.0030740
 NucSpn=           2           1           0           2           1           0           2           0           0           2
 AtZEff=  -0.0000000  -0.0000000  -0.0000000  -0.0000000  -0.0000000  -0.0000000  -0.0000000  -0.0000000  -0.0000000  -0.0000000
 NQMom=    2.0440000   0.0000000   0.0000000   2.0440000   0.0000000   0.0000000   2.0440000   0.0000000   0.0000000   2.0440000
 NMagM=    0.4037610   2.7928460   0.0000000   0.4037610   2.7928460   0.0000000   0.4037610   0.0000000   0.0000000   0.4037610
 AtZNuc=   7.0000000   1.0000000   6.0000000   7.0000000   1.0000000   6.0000000   7.0000000   6.0000000   6.0000000   7.0000000
 Leave Link  101 at Sun Jan 21 07:38:44 2018, MaxMem=  4294967296 cpu:               7.0 elap:               0.2
 (Enter /share/apps/g16/l202.exe)
 Stoichiometry    C23H27N17O3
 Framework group  C1[X(C23H27N17O3)]
 Deg. of freedom   204
 Full point group                 C1      NOp   1
 Largest Abelian subgroup         C1      NOp   1
 Largest concise Abelian subgroup C1      NOp   1
                         Standard orientation:                         
 ---------------------------------------------------------------------
 Center     Atomic      Atomic             Coordinates (Angstroms)
 Number     Number       Type             X           Y           Z
 ---------------------------------------------------------------------
      1          7           0        4.872922   -1.855819   -1.473356
      2          6           0        6.217287   -1.419109   -1.897579
      3          6           0        2.700557   -1.973667   -1.150450
      4          7           0        3.246507   -3.086310   -0.526993
      5          6           0        4.533425   -2.970786   -0.746490
      6          1           0        5.287669   -3.676822   -0.397847
      7          7           0        1.175701   -0.369023   -1.964629
      8          6           0        2.234816    0.265328   -2.477909
      9          1           0        2.009793    1.183691   -3.018489
     10          7           0        3.524103   -0.062901   -2.423947
     11          6           0        3.690795   -1.205838   -1.738129
     12          6           0        1.376588   -1.516261   -1.280096
     13          7           0        0.320614   -2.150934   -0.766981
     14          1           0        0.422401   -3.003337   -0.252901
     15          1           0       -0.607710   -1.796212   -0.878861
     16          1           0        6.631550   -2.123460   -2.474167
     17          1           0        6.143964   -0.566919   -2.414800
     18          1           0        6.791135   -1.269977   -1.092314
     19          7           0        5.044990    1.919024    0.771775
     20          6           0        3.673440    1.960717    0.843613
     21          6           0        5.909303    3.021604    0.304901
     22          7           0        0.688709    3.678143    0.392395
     23          1           0       -0.287798    3.505935    0.518944
     24          1           0        0.948898    4.577469    0.039929
     25          7           0        2.891203    3.007519    0.502497
     26          6           0        1.608713    2.745611    0.682051
     27          7           0        1.127046    1.550630    1.159059
     28          1           0        0.130350    1.438949    1.264294
     29          6           0        1.913494    0.459881    1.516315
     30          8           0        1.378652   -0.573658    1.936414
     31          6           0        3.293656    0.726186    1.328898
     32          7           0        4.404422   -0.074432    1.557129
     33          6           0        5.418000    0.673023    1.213370
     34          1           0        6.462573    0.363607    1.262364
     35          1           0        6.436658    2.720708   -0.488941
     36          1           0        5.340897    3.802579    0.049441
     37          1           0        6.533919    3.290705    1.037192
     38          1           0       -4.942269    1.290564    0.949273
     39          1           0       -4.852025    1.634998    2.674925
     40          1           0       -3.610426    2.255670    1.586544
     41          1           0       -3.851537   -3.070901    2.662324
     42          6           0       -3.359493   -2.122294    2.447249
     43          8           0       -1.169797   -3.032159    2.514340
     44          6           0       -1.931616   -2.077335    2.363603
     45          1           0       -0.405641   -0.757524    2.020369
     46          7           0       -1.411186   -0.829118    2.087246
     47          8           0       -1.560527    1.394561    1.651217
     48          6           0       -2.111635    0.334767    1.891572
     49          1           0       -5.157753   -0.984598    2.314213
     50          6           0       -4.070019   -1.003758    2.261146
     51          6           0       -4.274234    1.427721    1.786516
     52          7           0       -3.483643    0.210327    1.988161
     53          1           0       -5.932617    2.835461   -3.337734
     54          1           0       -4.551688    3.216148   -2.556577
     55          1           0       -5.991171    3.415807   -1.813537
     56          1           0       -3.129858   -3.201002   -0.055775
     57          1           0       -4.806638   -2.934230   -0.221198
     58          7           0       -3.873577   -2.586160   -0.318463
     59          6           0       -3.632869   -1.356555   -0.778155
     60          6           0       -4.236318    0.786336   -1.618131
     61          7           0       -2.973108    1.227138   -1.738214
     62          1           0       -1.060774    0.565338   -1.413236
     63          6           0       -2.112332    0.289250   -1.347907
     64          7           0       -2.351443   -0.942880   -0.887195
     65          1           0       -7.463382    0.893583   -1.781624
     66          6           0       -6.421774    0.607447   -1.632949
     67          7           0       -6.026433   -0.555053   -1.174691
     68          6           0       -4.642778   -0.454918   -1.160303
     69          6           0       -5.473112    2.843782   -2.449597
     70          7           0       -5.390901    1.467997   -1.921906
 ---------------------------------------------------------------------
 Rotational constants (GHZ):           0.1463519           0.0529048           0.0506414
 Leave Link  202 at Sun Jan 21 07:38:44 2018, MaxMem=  4294967296 cpu:               0.3 elap:               0.0
 (Enter /share/apps/g16/l301.exe)
 Standard basis: CC-pVDZ (5D, 7F)
 Ernie: Thresh=  0.10000D-02 Tol=  0.10000D-05 Strict=F.
 Ernie:  86 primitive shells out of 1081 were deleted.
 There are   780 symmetry adapted cartesian basis functions of A   symmetry.
 There are   737 symmetry adapted basis functions of A   symmetry.
   737 basis functions,  1608 primitive gaussians,   780 cartesian basis functions
   154 alpha electrons      154 beta electrons
       nuclear repulsion energy      5496.8990308170 Hartrees.
 IExCor= 4639 DFT=T Ex+Corr=wB97XD ExCW=0 ScaHFX=  1.000000
 ScaDFX=  1.000000  1.000000  1.000000  1.000000 ScalE2=  1.000000  1.000000
 IRadAn=      5 IRanWt=     -1 IRanGd=            0 ICorTp=0 IEmpDi=121
 HFx  wShort=  0.000000 wLong=  0.200000 cFull=  0.222036 cShort=  0.000000 cLong=  0.777964
 DFx  wShort=  0.000000 wLong=  0.200000 cFull=  0.000000 cShort=  0.000000 cLong=  1.000000
 NAtoms=   70 NActive=   70 NUniq=   70 SFac= 1.00D+00 NAtFMM=   60 NAOKFM=T Big=T
 Integral buffers will be    131072 words long.
 Raffenetti 2 integral format.
 Two-electron integral symmetry is turned on.
 R6Disp:  Grimme-D2 Dispersion energy=       -0.0708636825 Hartrees.
 Nuclear repulsion after empirical dispersion term =     5496.8281671345 Hartrees.
 Leave Link  301 at Sun Jan 21 07:38:44 2018, MaxMem=  4294967296 cpu:               2.1 elap:               0.1
 (Enter /share/apps/g16/l302.exe)
 NPDir=0 NMtPBC=     1 NCelOv=     1 NCel=       1 NClECP=     1 NCelD=      1
         NCelK=      1 NCelE2=     1 NClLst=     1 CellRange=     0.0.
 One-electron integrals computed using PRISM.
 One-electron integral symmetry used in STVInt
 NBasis=   737 RedAO= T EigKep=  6.98D-04  NBF=   737
 NBsUse=   737 1.00D-06 EigRej= -1.00D+00 NBFU=   737
 Precomputing XC quadrature grid using
 IXCGrd= 4 IRadAn=           5 IRanWt=          -1 IRanGd=           0 AccXCQ= 0.00D+00.
 Generated NRdTot=       0 NPtTot=           0 NUsed=           0 NTot=          32
 NSgBfM=   765   762   764   765   765 MxSgAt=    70 MxSgA2=    70.
 Leave Link  302 at Sun Jan 21 07:38:49 2018, MaxMem=  4294967296 cpu:             134.1 elap:               4.2
 (Enter /share/apps/g16/l303.exe)
 DipDrv:  MaxL=1.
 Leave Link  303 at Sun Jan 21 07:38:49 2018, MaxMem=  4294967296 cpu:              12.5 elap:               0.4
 (Enter /share/apps/g16/l401.exe)
 ExpMin= 1.22D-01 ExpMax= 1.17D+04 ExpMxC= 4.01D+02 IAcc=3 IRadAn=         5 AccDes= 0.00D+00
 Harris functional with IExCor= 4639 and IRadAn=       5 diagonalized for initial guess.
 HarFok:  IExCor= 4639 AccDes= 0.00D+00 IRadAn=         5 IDoV= 1 UseB2=F ITyADJ=14
 ICtDFT=  3500011 ScaDFX=  1.000000  1.000000  1.000000  1.000000
 FoFCou: FMM=F IPFlag=           0 FMFlag=      100000 FMFlg1=        2001
         NFxFlg=           0 DoJE=T BraDBF=F KetDBF=T FulRan=T
         wScrn=  0.000000 ICntrl=       500 IOpCl=  0 I1Cent=   200000004 NGrid=           0
         NMat0=    1 NMatS0=      1 NMatT0=    0 NMatD0=    1 NMtDS0=    0 NMtDT0=    0
 Petite list used in FoFCou.
 Harris En= -1963.88386459638    
 JPrj=0 DoOrth=F DoCkMO=F.
 Leave Link  401 at Sun Jan 21 07:39:02 2018, MaxMem=  4294967296 cpu:             399.9 elap:              12.5
 (Enter /share/apps/g16/l502.exe)
 Integral symmetry usage will be decided dynamically.
 Closed shell SCF:
 Using DIIS extrapolation, IDIIS=  1040.
 NGot=  4294967296 LenX=  4293717438 LenY=  4293108258
 Requested convergence on RMS density matrix=1.00D-08 within  20 cycles.
 Requested convergence on MAX density matrix=1.00D-06.
 Requested convergence on             energy=1.00D-06.
 No special actions if energy rises.
 Fock matrices will be formed incrementally for  20 cycles.
 Integral accuracy reduced to 1.0D-05 until final iterations.

 Cycle   1  Pass 0  IDiag  1:
 FoFJK:  IHMeth= 1 ICntrl=       0 DoSepK=T KAlg= 0 I1Cent=           0 FoldK=F
 IRaf=         1 NMat=       1 IRICut=       1 DoRegI=T DoRafI=F ISym2E= 0 IDoP0=0 IntGTp=1.
 FoFCou: FMM=T IPFlag=           0 FMFlag=      100000 FMFlg1=        2001
         NFxFlg=           0 DoJE=T BraDBF=F KetDBF=F FulRan=T
         wScrn=  0.000000 ICntrl=       500 IOpCl=  0 I1Cent=           0 NGrid=           0
         NMat0=    1 NMatS0=      1 NMatT0=    0 NMatD0=    1 NMtDS0=    0 NMtDT0=    0
 Symmetry not used in FoFCou.
 FMM levels:  10  Number of levels for PrismC:   9
 E= -2048.31711668050    
 DIIS: error= 2.46D-02 at cycle   1 NSaved=   1.
 NSaved= 1 IEnMin= 1 EnMin= -2048.31711668050     IErMin= 1 ErrMin= 2.46D-02
 ErrMax= 2.46D-02  0.00D+00 EMaxC= 1.00D-01 BMatC= 8.30D-01 BMatP= 8.30D-01
 IDIUse=3 WtCom= 7.54D-01 WtEn= 2.46D-01
 Coeff-Com:  0.100D+01
 Coeff-En:   0.100D+01
 Coeff:      0.100D+01
 Gap=     0.262 Goal=   None    Shift=    0.000
 GapD=    0.262 DampG=1.000 DampE=0.500 DampFc=0.5000 IDamp=-1.
 Damping current iteration by 5.00D-01
 RMSDP=1.55D-03 MaxDP=1.30D-01              OVMax= 1.93D-01

 Cycle   2  Pass 0  IDiag  1:
 RMSU=  7.76D-04    CP:  9.98D-01
 E= -2048.51345195573     Delta-E=       -0.196335275232 Rises=F Damp=T
 DIIS: error= 1.35D-02 at cycle   2 NSaved=   2.
 NSaved= 2 IEnMin= 2 EnMin= -2048.51345195573     IErMin= 2 ErrMin= 1.35D-02
 ErrMax= 1.35D-02  0.00D+00 EMaxC= 1.00D-01 BMatC= 1.44D-01 BMatP= 8.30D-01
 IDIUse=3 WtCom= 8.65D-01 WtEn= 1.35D-01
 Coeff-Com: -0.202D+00 0.120D+01
 Coeff-En:   0.000D+00 0.100D+01
 Coeff:     -0.174D+00 0.117D+01
 Gap=     0.314 Goal=   None    Shift=    0.000
 RMSDP=5.80D-04 MaxDP=3.53D-02 DE=-1.96D-01 OVMax= 1.27D-01

 Cycle   3  Pass 0  IDiag  1:
 RMSU=  5.67D-04    CP:  9.94D-01  1.15D+00
 E= -2048.69232949930     Delta-E=       -0.178877543569 Rises=F Damp=F
 DIIS: error= 7.57D-03 at cycle   3 NSaved=   3.
 NSaved= 3 IEnMin= 3 EnMin= -2048.69232949930     IErMin= 3 ErrMin= 7.57D-03
 ErrMax= 7.57D-03  0.00D+00 EMaxC= 1.00D-01 BMatC= 6.16D-02 BMatP= 1.44D-01
 IDIUse=3 WtCom= 9.24D-01 WtEn= 7.57D-02
 Coeff-Com: -0.232D+00 0.548D+00 0.684D+00
 Coeff-En:   0.000D+00 0.000D+00 0.100D+01
 Coeff:     -0.214D+00 0.506D+00 0.708D+00
 Gap=     0.278 Goal=   None    Shift=    0.000
 RMSDP=3.51D-04 MaxDP=3.41D-02 DE=-1.79D-01 OVMax= 6.46D-02

 Cycle   4  Pass 0  IDiag  1:
 RMSU=  2.00D-04    CP:  9.95D-01  1.43D+00  6.72D-01
 E= -2048.73856793280     Delta-E=       -0.046238433505 Rises=F Damp=F
 DIIS: error= 2.96D-03 at cycle   4 NSaved=   4.
 NSaved= 4 IEnMin= 4 EnMin= -2048.73856793280     IErMin= 4 ErrMin= 2.96D-03
 ErrMax= 2.96D-03  0.00D+00 EMaxC= 1.00D-01 BMatC= 9.00D-03 BMatP= 6.16D-02
 IDIUse=3 WtCom= 9.70D-01 WtEn= 2.96D-02
 Coeff-Com: -0.951D-01 0.184D+00 0.379D+00 0.532D+00
 Coeff-En:   0.000D+00 0.000D+00 0.644D-01 0.936D+00
 Coeff:     -0.923D-01 0.179D+00 0.369D+00 0.544D+00
 Gap=     0.283 Goal=   None    Shift=    0.000
 RMSDP=1.25D-04 MaxDP=1.19D-02 DE=-4.62D-02 OVMax= 1.34D-02

 Cycle   5  Pass 0  IDiag  1:
 RMSU=  6.19D-05    CP:  9.94D-01  1.40D+00  8.04D-01  6.24D-01
 E= -2048.74589188381     Delta-E=       -0.007323951001 Rises=F Damp=F
 DIIS: error= 5.70D-04 at cycle   5 NSaved=   5.
 NSaved= 5 IEnMin= 5 EnMin= -2048.74589188381     IErMin= 5 ErrMin= 5.70D-04
 ErrMax= 5.70D-04  0.00D+00 EMaxC= 1.00D-01 BMatC= 2.90D-04 BMatP= 9.00D-03
 IDIUse=3 WtCom= 9.94D-01 WtEn= 5.70D-03
 Coeff-Com: -0.244D-01 0.418D-01 0.121D+00 0.241D+00 0.621D+00
 Coeff-En:   0.000D+00 0.000D+00 0.000D+00 0.000D+00 0.100D+01
 Coeff:     -0.243D-01 0.415D-01 0.121D+00 0.239D+00 0.623D+00
 Gap=     0.283 Goal=   None    Shift=    0.000
 RMSDP=2.56D-05 MaxDP=2.06D-03 DE=-7.32D-03 OVMax= 2.97D-03

 Failed to achieve initial convergence to 1.0D-08 in  6 cycles.
 Switch to full accuracy anyway.
 Cycle   6  Pass 1  IDiag  1:
 E= -2048.74619332501     Delta-E=       -0.000301441203 Rises=F Damp=F
 DIIS: error= 2.85D-04 at cycle   1 NSaved=   1.
 NSaved= 1 IEnMin= 1 EnMin= -2048.74619332501     IErMin= 1 ErrMin= 2.85D-04
 ErrMax= 2.85D-04  0.00D+00 EMaxC= 1.00D-01 BMatC= 7.49D-05 BMatP= 7.49D-05
 IDIUse=3 WtCom= 9.97D-01 WtEn= 2.85D-03
 Coeff-Com:  0.100D+01
 Coeff-En:   0.100D+01
 Coeff:      0.100D+01
 Gap=     0.283 Goal=   None    Shift=    0.000
 RMSDP=2.56D-05 MaxDP=2.06D-03 DE=-3.01D-04 OVMax= 2.04D-03

 Cycle   7  Pass 1  IDiag  1:
 RMSU=  1.14D-04    CP:  1.00D+00
 E= -2048.74624751841     Delta-E=       -0.000054193400 Rises=F Damp=F
 DIIS: error= 2.46D-04 at cycle   2 NSaved=   2.
 NSaved= 2 IEnMin= 2 EnMin= -2048.74624751841     IErMin= 2 ErrMin= 2.46D-04
 ErrMax= 2.46D-04  0.00D+00 EMaxC= 1.00D-01 BMatC= 4.59D-05 BMatP= 7.49D-05
 IDIUse=3 WtCom= 9.98D-01 WtEn= 2.46D-03
 Coeff-Com:  0.418D+00 0.582D+00
 Coeff-En:   0.000D+00 0.100D+01
 Coeff:      0.417D+00 0.583D+00
 Gap=     0.283 Goal=   None    Shift=    0.000
 RMSDP=1.13D-05 MaxDP=1.23D-03 DE=-5.42D-05 OVMax= 1.29D-03

 Cycle   8  Pass 1  IDiag  1:
 RMSU=  1.10D-05    CP:  1.00D+00  1.02D+00
 E= -2048.74628023410     Delta-E=       -0.000032715695 Rises=F Damp=F
 DIIS: error= 1.14D-04 at cycle   3 NSaved=   3.
 NSaved= 3 IEnMin= 3 EnMin= -2048.74628023410     IErMin= 3 ErrMin= 1.14D-04
 ErrMax= 1.14D-04  0.00D+00 EMaxC= 1.00D-01 BMatC= 1.02D-05 BMatP= 4.59D-05
 IDIUse=3 WtCom= 9.99D-01 WtEn= 1.14D-03
 Coeff-Com: -0.193D-01 0.306D+00 0.713D+00
 Coeff-En:   0.000D+00 0.124D+00 0.876D+00
 Coeff:     -0.192D-01 0.306D+00 0.713D+00
 Gap=     0.283 Goal=   None    Shift=    0.000
 RMSDP=5.63D-06 MaxDP=5.11D-04 DE=-3.27D-05 OVMax= 4.80D-04

 Cycle   9  Pass 1  IDiag  1:
 RMSU=  3.84D-06    CP:  1.00D+00  1.05D+00  7.70D-01
 E= -2048.74628955549     Delta-E=       -0.000009321388 Rises=F Damp=F
 DIIS: error= 2.97D-05 at cycle   4 NSaved=   4.
 NSaved= 4 IEnMin= 4 EnMin= -2048.74628955549     IErMin= 4 ErrMin= 2.97D-05
 ErrMax= 2.97D-05  0.00D+00 EMaxC= 1.00D-01 BMatC= 4.91D-07 BMatP= 1.02D-05
 IDIUse=1 WtCom= 1.00D+00 WtEn= 0.00D+00
 Coeff-Com: -0.312D-01 0.829D-01 0.260D+00 0.689D+00
 Coeff:     -0.312D-01 0.829D-01 0.260D+00 0.689D+00
 Gap=     0.283 Goal=   None    Shift=    0.000
 RMSDP=1.45D-06 MaxDP=1.33D-04 DE=-9.32D-06 OVMax= 4.29D-04

 Cycle  10  Pass 1  IDiag  1:
 RMSU=  1.28D-06    CP:  1.00D+00  1.06D+00  8.03D-01  1.12D+00
 E= -2048.74629039325     Delta-E=       -0.000000837759 Rises=F Damp=F
 DIIS: error= 9.44D-06 at cycle   5 NSaved=   5.
 NSaved= 5 IEnMin= 5 EnMin= -2048.74629039325     IErMin= 5 ErrMin= 9.44D-06
 ErrMax= 9.44D-06  0.00D+00 EMaxC= 1.00D-01 BMatC= 1.17D-07 BMatP= 4.91D-07
 IDIUse=1 WtCom= 1.00D+00 WtEn= 0.00D+00
 Coeff-Com: -0.285D-02-0.549D-01-0.124D+00 0.199D+00 0.983D+00
 Coeff:     -0.285D-02-0.549D-01-0.124D+00 0.199D+00 0.983D+00
 Gap=     0.283 Goal=   None    Shift=    0.000
 RMSDP=1.23D-06 MaxDP=7.86D-05 DE=-8.38D-07 OVMax= 2.10D-04

 Cycle  11  Pass 1  IDiag  1:
 RMSU=  5.13D-07    CP:  1.00D+00  1.06D+00  8.12D-01  1.40D+00  1.18D+00
 E= -2048.74629065464     Delta-E=       -0.000000261392 Rises=F Damp=F
 DIIS: error= 6.52D-06 at cycle   6 NSaved=   6.
 NSaved= 6 IEnMin= 6 EnMin= -2048.74629065464     IErMin= 6 ErrMin= 6.52D-06
 ErrMax= 6.52D-06  0.00D+00 EMaxC= 1.00D-01 BMatC= 2.96D-08 BMatP= 1.17D-07
 IDIUse=1 WtCom= 1.00D+00 WtEn= 0.00D+00
 Coeff-Com:  0.484D-02-0.446D-01-0.117D+00-0.640D-02 0.532D+00 0.631D+00
 Coeff:      0.484D-02-0.446D-01-0.117D+00-0.640D-02 0.532D+00 0.631D+00
 Gap=     0.283 Goal=   None    Shift=    0.000
 RMSDP=3.83D-07 MaxDP=3.67D-05 DE=-2.61D-07 OVMax= 1.12D-04

 Cycle  12  Pass 1  IDiag  1:
 RMSU=  1.93D-07    CP:  1.00D+00  1.06D+00  8.13D-01  1.47D+00  1.32D+00
                    CP:  9.19D-01
 E= -2048.74629069841     Delta-E=       -0.000000043769 Rises=F Damp=F
 DIIS: error= 1.10D-06 at cycle   7 NSaved=   7.
 NSaved= 7 IEnMin= 7 EnMin= -2048.74629069841     IErMin= 7 ErrMin= 1.10D-06
 ErrMax= 1.10D-06  0.00D+00 EMaxC= 1.00D-01 BMatC= 9.11D-10 BMatP= 2.96D-08
 IDIUse=1 WtCom= 1.00D+00 WtEn= 0.00D+00
 Coeff-Com:  0.115D-02-0.711D-02-0.204D-01-0.838D-02 0.568D-01 0.142D+00
 Coeff-Com:  0.836D+00
 Coeff:      0.115D-02-0.711D-02-0.204D-01-0.838D-02 0.568D-01 0.142D+00
 Coeff:      0.836D+00
 Gap=     0.283 Goal=   None    Shift=    0.000
 RMSDP=9.04D-08 MaxDP=5.60D-06 DE=-4.38D-08 OVMax= 2.09D-05

 Cycle  13  Pass 1  IDiag  1:
 RMSU=  5.39D-08    CP:  1.00D+00  1.06D+00  8.13D-01  1.48D+00  1.34D+00
                    CP:  1.01D+00  1.14D+00
 E= -2048.74629070033     Delta-E=       -0.000000001914 Rises=F Damp=F
 DIIS: error= 6.79D-07 at cycle   8 NSaved=   8.
 NSaved= 8 IEnMin= 8 EnMin= -2048.74629070033     IErMin= 8 ErrMin= 6.79D-07
 ErrMax= 6.79D-07  0.00D+00 EMaxC= 1.00D-01 BMatC= 3.75D-10 BMatP= 9.11D-10
 IDIUse=1 WtCom= 1.00D+00 WtEn= 0.00D+00
 Coeff-Com: -0.777D-03 0.904D-02 0.225D-01-0.104D-02-0.123D+00-0.101D+00
 Coeff-Com:  0.432D+00 0.762D+00
 Coeff:     -0.777D-03 0.904D-02 0.225D-01-0.104D-02-0.123D+00-0.101D+00
 Coeff:      0.432D+00 0.762D+00
 Gap=     0.283 Goal=   None    Shift=    0.000
 RMSDP=5.29D-08 MaxDP=3.01D-06 DE=-1.91D-09 OVMax= 1.13D-05

 Cycle  14  Pass 1  IDiag  1:
 RMSU=  3.00D-08    CP:  1.00D+00  1.06D+00  8.12D-01  1.48D+00  1.35D+00
                    CP:  1.06D+00  1.30D+00  1.09D+00
 E= -2048.74629070116     Delta-E=       -0.000000000839 Rises=F Damp=F
 DIIS: error= 1.99D-07 at cycle   9 NSaved=   9.
 NSaved= 9 IEnMin= 9 EnMin= -2048.74629070116     IErMin= 9 ErrMin= 1.99D-07
 ErrMax= 1.99D-07  0.00D+00 EMaxC= 1.00D-01 BMatC= 4.06D-11 BMatP= 3.75D-10
 IDIUse=1 WtCom= 1.00D+00 WtEn= 0.00D+00
 Coeff-Com: -0.486D-03 0.496D-02 0.127D-01 0.910D-03-0.616D-01-0.616D-01
 Coeff-Com:  0.965D-01 0.329D+00 0.679D+00
 Coeff:     -0.486D-03 0.496D-02 0.127D-01 0.910D-03-0.616D-01-0.616D-01
 Coeff:      0.965D-01 0.329D+00 0.679D+00
 Gap=     0.283 Goal=   None    Shift=    0.000
 RMSDP=1.48D-08 MaxDP=9.17D-07 DE=-8.39D-10 OVMax= 3.23D-06

 Cycle  15  Pass 1  IDiag  1:
 RMSU=  9.89D-09    CP:  1.00D+00  1.06D+00  8.13D-01  1.48D+00  1.35D+00
                    CP:  1.07D+00  1.32D+00  1.23D+00  1.09D+00
 E= -2048.74629070096     Delta-E=        0.000000000203 Rises=F Damp=F
 DIIS: error= 8.38D-08 at cycle  10 NSaved=  10.
 NSaved=10 IEnMin= 9 EnMin= -2048.74629070116     IErMin=10 ErrMin= 8.38D-08
 ErrMax= 8.38D-08  0.00D+00 EMaxC= 1.00D-01 BMatC= 5.71D-12 BMatP= 4.06D-11
 IDIUse=1 WtCom= 1.00D+00 WtEn= 0.00D+00
 Coeff-Com:  0.763D-05-0.341D-03-0.699D-03 0.141D-03 0.596D-02 0.151D-02
 Coeff-Com: -0.564D-01-0.556D-01 0.242D+00 0.864D+00
 Coeff:      0.763D-05-0.341D-03-0.699D-03 0.141D-03 0.596D-02 0.151D-02
 Coeff:     -0.564D-01-0.556D-01 0.242D+00 0.864D+00
 Gap=     0.283 Goal=   None    Shift=    0.000
 RMSDP=7.50D-09 MaxDP=4.34D-07 DE= 2.03D-10 OVMax= 1.69D-06

 SCF Done:  E(RwB97XD) =  -2048.74629070     A.U. after   15 cycles
            NFock= 15  Conv=0.75D-08     -V/T= 2.0054
 KE= 2.037720000747D+03 PE=-1.577421491294D+04 EE= 6.190920454356D+03
 Leave Link  502 at Sun Jan 21 07:50:18 2018, MaxMem=  4294967296 cpu:           20955.2 elap:             676.7
 (Enter /share/apps/g16/l601.exe)
 Copying SCF densities to generalized density rwf, IOpCl= 0 IROHF=0.

 **********************************************************************

            Population analysis using the SCF density.

 **********************************************************************

 Orbital symmetries:
       Occupied  (A) (A) (A) (A) (A) (A) (A) (A) (A) (A) (A) (A)
                 (A) (A) (A) (A) (A) (A) (A) (A) (A) (A) (A) (A)
                 (A) (A) (A) (A) (A) (A) (A) (A) (A) (A) (A) (A)
                 (A) (A) (A) (A) (A) (A) (A) (A) (A) (A) (A) (A)
                 (A) (A) (A) (A) (A) (A) (A) (A) (A) (A) (A) (A)
                 (A) (A) (A) (A) (A) (A) (A) (A) (A) (A) (A) (A)
                 (A) (A) (A) (A) (A) (A) (A) (A) (A) (A) (A) (A)
                 (A) (A) (A) (A) (A) (A) (A) (A) (A) (A) (A) (A)
                 (A) (A) (A) (A) (A) (A) (A) (A) (A) (A) (A) (A)
                 (A) (A) (A) (A) (A) (A) (A) (A) (A) (A) (A) (A)
                 (A) (A) (A) (A) (A) (A) (A) (A) (A) (A) (A) (A)
                 (A) (A) (A) (A) (A) (A) (A) (A) (A) (A) (A) (A)
                 (A) (A) (A) (A) (A) (A) (A) (A) (A) (A)
       Virtual   (A) (A) (A) (A) (A) (A) (A) (A) (A) (A) (A) (A)
                 (A) (A) (A) (A) (A) (A) (A) (A) (A) (A) (A) (A)
                 (A) (A) (A) (A) (A) (A) (A) (A) (A) (A) (A) (A)
                 (A) (A) (A) (A) (A) (A) (A) (A) (A) (A) (A) (A)
                 (A) (A) (A) (A) (A) (A) (A) (A) (A) (A) (A) (A)
                 (A) (A) (A) (A) (A) (A) (A) (A) (A) (A) (A) (A)
                 (A) (A) (A) (A) (A) (A) (A) (A) (A) (A) (A) (A)
                 (A) (A) (A) (A) (A) (A) (A) (A) (A) (A) (A) (A)
                 (A) (A) (A) (A) (A) (A) (A) (A) (A) (A) (A) (A)
                 (A) (A) (A) (A) (A) (A) (A) (A) (A) (A) (A) (A)
                 (A) (A) (A) (A) (A) (A) (A) (A) (A) (A) (A) (A)
                 (A) (A) (A) (A) (A) (A) (A) (A) (A) (A) (A) (A)
                 (A) (A) (A) (A) (A) (A) (A) (A) (A) (A) (A) (A)
                 (A) (A) (A) (A) (A) (A) (A) (A) (A) (A) (A) (A)
                 (A) (A) (A) (A) (A) (A) (A) (A) (A) (A) (A) (A)
                 (A) (A) (A) (A) (A) (A) (A) (A) (A) (A) (A) (A)
                 (A) (A) (A) (A) (A) (A) (A) (A) (A) (A) (A) (A)
                 (A) (A) (A) (A) (A) (A) (A) (A) (A) (A) (A) (A)
                 (A) (A) (A) (A) (A) (A) (A) (A) (A) (A) (A) (A)
                 (A) (A) (A) (A) (A) (A) (A) (A) (A) (A) (A) (A)
                 (A) (A) (A) (A) (A) (A) (A) (A) (A) (A) (A) (A)
                 (A) (A) (A) (A) (A) (A) (A) (A) (A) (A) (A) (A)
                 (A) (A) (A) (A) (A) (A) (A) (A) (A) (A) (A) (A)
                 (A) (A) (A) (A) (A) (A) (A) (A) (A) (A) (A) (A)
                 (A) (A) (A) (A) (A) (A) (A) (A) (A) (A) (A) (A)
                 (A) (A) (A) (A) (A) (A) (A) (A) (A) (A) (A) (A)
                 (A) (A) (A) (A) (A) (A) (A) (A) (A) (A) (A) (A)
                 (A) (A) (A) (A) (A) (A) (A) (A) (A) (A) (A) (A)
                 (A) (A) (A) (A) (A) (A) (A) (A) (A) (A) (A) (A)
                 (A) (A) (A) (A) (A) (A) (A) (A) (A) (A) (A) (A)
                 (A) (A) (A) (A) (A) (A) (A) (A) (A) (A) (A) (A)
                 (A) (A) (A) (A) (A) (A) (A) (A) (A) (A) (A) (A)
                 (A) (A) (A) (A) (A) (A) (A) (A) (A) (A) (A) (A)
                 (A) (A) (A) (A) (A) (A) (A) (A) (A) (A) (A) (A)
                 (A) (A) (A) (A) (A) (A) (A) (A) (A) (A) (A) (A)
                 (A) (A) (A) (A) (A) (A) (A) (A) (A) (A) (A) (A)
                 (A) (A) (A) (A) (A) (A) (A) (A) (A) (A) (A) (A)
                 (A) (A) (A) (A) (A) (A) (A) (A) (A) (A) (A) (A)
                 (A) (A) (A) (A) (A) (A) (A) (A) (A) (A) (A) (A)
                 (A) (A) (A) (A) (A) (A) (A) (A) (A) (A) (A) (A)
                 (A) (A) (A) (A) (A) (A) (A) (A) (A) (A) (A) (A)
                 (A) (A) (A) (A) (A) (A) (A) (A) (A) (A) (A) (A)
                 (A) (A) (A) (A) (A) (A) (A) (A) (A) (A) (A) (A)
                 (A) (A) (A) (A) (A) (A) (A) (A) (A) (A) (A) (A)
                 (A) (A) (A) (A) (A) (A) (A) (A) (A) (A) (A) (A)
                 (A) (A) (A) (A) (A) (A) (A) (A) (A) (A) (A) (A)
                 (A) (A) (A) (A) (A) (A) (A) (A) (A) (A) (A) (A)
                 (A) (A) (A) (A) (A) (A) (A) (A) (A) (A) (A) (A)
                 (A) (A) (A) (A) (A) (A) (A)
 The electronic state is 1-A.
 Alpha  occ. eigenvalues --  -19.25593 -19.22034 -19.20699 -14.52550 -14.52176
 Alpha  occ. eigenvalues --  -14.49107 -14.48226 -14.48056 -14.47546 -14.46958
 Alpha  occ. eigenvalues --  -14.46786 -14.45519 -14.44455 -14.44416 -14.42221
 Alpha  occ. eigenvalues --  -14.42145 -14.41341 -14.40806 -14.40722 -14.40287
 Alpha  occ. eigenvalues --  -10.45175 -10.41372 -10.40033 -10.40005 -10.38356
 Alpha  occ. eigenvalues --  -10.38047 -10.37363 -10.37315 -10.35953 -10.35316
 Alpha  occ. eigenvalues --  -10.34849 -10.34609 -10.33916 -10.33767 -10.33515
 Alpha  occ. eigenvalues --  -10.33020 -10.32973 -10.32795 -10.31197 -10.30831
 Alpha  occ. eigenvalues --  -10.30729 -10.28373 -10.28186  -1.19157  -1.15303
 Alpha  occ. eigenvalues --   -1.13336  -1.12987  -1.10859  -1.10809  -1.09499
 Alpha  occ. eigenvalues --   -1.08986  -1.08680  -1.04943  -1.04881  -1.02240
 Alpha  occ. eigenvalues --   -1.01041  -1.00284  -0.99864  -0.98716  -0.97010
 Alpha  occ. eigenvalues --   -0.96878  -0.96464  -0.92604  -0.90799  -0.87720
 Alpha  occ. eigenvalues --   -0.85952  -0.84388  -0.83580  -0.83351  -0.82760
 Alpha  occ. eigenvalues --   -0.82008  -0.78648  -0.77122  -0.74924  -0.74854
 Alpha  occ. eigenvalues --   -0.73776  -0.73120  -0.72633  -0.70822  -0.70471
 Alpha  occ. eigenvalues --   -0.67565  -0.66906  -0.66294  -0.66036  -0.64556
 Alpha  occ. eigenvalues --   -0.64301  -0.63754  -0.62767  -0.62482  -0.61963
 Alpha  occ. eigenvalues --   -0.60752  -0.60499  -0.60294  -0.59446  -0.59248
 Alpha  occ. eigenvalues --   -0.59024  -0.58509  -0.56997  -0.56351  -0.55938
 Alpha  occ. eigenvalues --   -0.55888  -0.55438  -0.55196  -0.54352  -0.54088
 Alpha  occ. eigenvalues --   -0.53762  -0.53675  -0.53639  -0.53275  -0.53143
 Alpha  occ. eigenvalues --   -0.52839  -0.52183  -0.51484  -0.50491  -0.50326
 Alpha  occ. eigenvalues --   -0.50165  -0.49837  -0.49433  -0.49181  -0.48975
 Alpha  occ. eigenvalues --   -0.48722  -0.48519  -0.48389  -0.47974  -0.47365
 Alpha  occ. eigenvalues --   -0.46696  -0.45893  -0.45566  -0.44602  -0.42807
 Alpha  occ. eigenvalues --   -0.40924  -0.40784  -0.39244  -0.38044  -0.37680
 Alpha  occ. eigenvalues --   -0.37492  -0.37420  -0.36830  -0.35902  -0.34802
 Alpha  occ. eigenvalues --   -0.34397  -0.34123  -0.33299  -0.33195  -0.32994
 Alpha  occ. eigenvalues --   -0.32871  -0.32755  -0.32102  -0.32010  -0.30607
 Alpha  occ. eigenvalues --   -0.30281  -0.29474  -0.25845  -0.25444
 Alpha virt. eigenvalues --    0.02903   0.04016   0.06846   0.08171   0.08853
 Alpha virt. eigenvalues --    0.09013   0.09581   0.10409   0.11186   0.12076
 Alpha virt. eigenvalues --    0.12954   0.13732   0.14346   0.14600   0.14904
 Alpha virt. eigenvalues --    0.15307   0.16116   0.17165   0.17943   0.18022
 Alpha virt. eigenvalues --    0.18439   0.18930   0.19481   0.20270   0.20480
 Alpha virt. eigenvalues --    0.20687   0.20865   0.21279   0.21387   0.21915
 Alpha virt. eigenvalues --    0.22143   0.22692   0.22795   0.23344   0.23583
 Alpha virt. eigenvalues --    0.23702   0.24268   0.24344   0.25021   0.25909
 Alpha virt. eigenvalues --    0.26077   0.26770   0.27526   0.27767   0.27875
 Alpha virt. eigenvalues --    0.28872   0.29189   0.29413   0.30536   0.30832
 Alpha virt. eigenvalues --    0.31581   0.31714   0.32320   0.32881   0.33170
 Alpha virt. eigenvalues --    0.33942   0.34479   0.35154   0.36112   0.36268
 Alpha virt. eigenvalues --    0.36605   0.37510   0.37860   0.38563   0.38915
 Alpha virt. eigenvalues --    0.39449   0.40211   0.40556   0.40877   0.41253
 Alpha virt. eigenvalues --    0.41960   0.42129   0.42742   0.43994   0.44569
 Alpha virt. eigenvalues --    0.45068   0.45790   0.46048   0.46360   0.46644
 Alpha virt. eigenvalues --    0.46937   0.47493   0.47779   0.48631   0.48795
 Alpha virt. eigenvalues --    0.49412   0.50295   0.50520   0.51036   0.51170
 Alpha virt. eigenvalues --    0.51688   0.51942   0.52303   0.52508   0.52716
 Alpha virt. eigenvalues --    0.53174   0.54201   0.54498   0.54921   0.55124
 Alpha virt. eigenvalues --    0.55469   0.56111   0.56517   0.56928   0.57309
 Alpha virt. eigenvalues --    0.57685   0.57862   0.58757   0.58877   0.59273
 Alpha virt. eigenvalues --    0.59865   0.60257   0.60640   0.60778   0.61041
 Alpha virt. eigenvalues --    0.61469   0.61641   0.62055   0.62799   0.63006
 Alpha virt. eigenvalues --    0.63477   0.63869   0.64626   0.64900   0.65652
 Alpha virt. eigenvalues --    0.65903   0.66421   0.66552   0.66969   0.67561
 Alpha virt. eigenvalues --    0.67688   0.68871   0.69089   0.69238   0.70242
 Alpha virt. eigenvalues --    0.70540   0.70684   0.71417   0.71730   0.71864
 Alpha virt. eigenvalues --    0.72235   0.72587   0.72814   0.73131   0.73617
 Alpha virt. eigenvalues --    0.74271   0.74514   0.75207   0.75629   0.75720
 Alpha virt. eigenvalues --    0.76229   0.76280   0.76561   0.76889   0.77096
 Alpha virt. eigenvalues --    0.77627   0.77878   0.78437   0.78673   0.78860
 Alpha virt. eigenvalues --    0.79140   0.79591   0.80402   0.80569   0.80947
 Alpha virt. eigenvalues --    0.81609   0.81747   0.82123   0.82200   0.82919
 Alpha virt. eigenvalues --    0.83251   0.83806   0.84633   0.84710   0.84793
 Alpha virt. eigenvalues --    0.85351   0.86385   0.86561   0.86980   0.87800
 Alpha virt. eigenvalues --    0.87871   0.88380   0.89236   0.89564   0.89684
 Alpha virt. eigenvalues --    0.89972   0.90756   0.91184   0.91283   0.92007
 Alpha virt. eigenvalues --    0.92149   0.92746   0.93282   0.93624   0.94578
 Alpha virt. eigenvalues --    0.95346   0.95444   0.95845   0.96527   0.97270
 Alpha virt. eigenvalues --    0.97337   0.97586   0.97768   0.98319   0.98628
 Alpha virt. eigenvalues --    0.98994   0.99199   1.00097   1.00241   1.00658
 Alpha virt. eigenvalues --    1.01317   1.01618   1.01740   1.02383   1.02466
 Alpha virt. eigenvalues --    1.02924   1.03151   1.04189   1.04337   1.04796
 Alpha virt. eigenvalues --    1.05270   1.05549   1.06259   1.06724   1.07173
 Alpha virt. eigenvalues --    1.07654   1.08269   1.08898   1.09624   1.10491
 Alpha virt. eigenvalues --    1.10904   1.11777   1.11887   1.12883   1.13649
 Alpha virt. eigenvalues --    1.13827   1.14482   1.14817   1.15060   1.15835
 Alpha virt. eigenvalues --    1.15983   1.16339   1.16611   1.17267   1.17428
 Alpha virt. eigenvalues --    1.17600   1.18198   1.18461   1.19037   1.19113
 Alpha virt. eigenvalues --    1.19233   1.20178   1.20478   1.20893   1.21531
 Alpha virt. eigenvalues --    1.21825   1.22280   1.22535   1.22861   1.23175
 Alpha virt. eigenvalues --    1.23276   1.23618   1.24005   1.24259   1.24406
 Alpha virt. eigenvalues --    1.25518   1.25970   1.26400   1.26719   1.28013
 Alpha virt. eigenvalues --    1.28018   1.28548   1.28935   1.29850   1.30159
 Alpha virt. eigenvalues --    1.31783   1.32406   1.32521   1.33659   1.33705
 Alpha virt. eigenvalues --    1.34245   1.34298   1.35105   1.35786   1.36788
 Alpha virt. eigenvalues --    1.37058   1.37745   1.37851   1.38553   1.39171
 Alpha virt. eigenvalues --    1.41015   1.41171   1.41876   1.42406   1.43042
 Alpha virt. eigenvalues --    1.44900   1.45680   1.46222   1.46656   1.47278
 Alpha virt. eigenvalues --    1.47612   1.48595   1.48874   1.50218   1.50921
 Alpha virt. eigenvalues --    1.52182   1.52962   1.53426   1.53621   1.53773
 Alpha virt. eigenvalues --    1.55724   1.55851   1.56503   1.56953   1.57273
 Alpha virt. eigenvalues --    1.58280   1.58727   1.59010   1.59869   1.60983
 Alpha virt. eigenvalues --    1.61324   1.61827   1.62588   1.62922   1.63012
 Alpha virt. eigenvalues --    1.63677   1.64099   1.64682   1.65449   1.65832
 Alpha virt. eigenvalues --    1.66579   1.67123   1.67872   1.68431   1.69272
 Alpha virt. eigenvalues --    1.69595   1.70371   1.70429   1.71154   1.72031
 Alpha virt. eigenvalues --    1.72246   1.72412   1.73093   1.73219   1.73453
 Alpha virt. eigenvalues --    1.74019   1.74518   1.75151   1.75187   1.75318
 Alpha virt. eigenvalues --    1.75662   1.76124   1.76376   1.77099   1.77244
 Alpha virt. eigenvalues --    1.77493   1.77685   1.78086   1.78385   1.78660
 Alpha virt. eigenvalues --    1.79276   1.79640   1.79905   1.80162   1.80355
 Alpha virt. eigenvalues --    1.80652   1.80953   1.81467   1.81791   1.82287
 Alpha virt. eigenvalues --    1.82762   1.83530   1.84106   1.84242   1.84637
 Alpha virt. eigenvalues --    1.84830   1.85322   1.85665   1.85993   1.86636
 Alpha virt. eigenvalues --    1.87365   1.87927   1.88669   1.88816   1.89417
 Alpha virt. eigenvalues --    1.89976   1.90293   1.90656   1.91134   1.91605
 Alpha virt. eigenvalues --    1.92195   1.92547   1.93159   1.93316   1.93798
 Alpha virt. eigenvalues --    1.95413   1.95533   1.96718   1.96863   1.97171
 Alpha virt. eigenvalues --    1.97974   1.98575   1.99870   2.00480   2.01327
 Alpha virt. eigenvalues --    2.01982   2.02538   2.02772   2.02967   2.03783
 Alpha virt. eigenvalues --    2.04086   2.05152   2.05758   2.06981   2.07442
 Alpha virt. eigenvalues --    2.07571   2.08154   2.09140   2.09979   2.10229
 Alpha virt. eigenvalues --    2.10611   2.11296   2.11856   2.12621   2.13110
 Alpha virt. eigenvalues --    2.13776   2.14646   2.15002   2.17203   2.17638
 Alpha virt. eigenvalues --    2.18164   2.18701   2.20148   2.20903   2.21513
 Alpha virt. eigenvalues --    2.22028   2.22583   2.22707   2.23681   2.24118
 Alpha virt. eigenvalues --    2.24328   2.25543   2.25944   2.26070   2.26858
 Alpha virt. eigenvalues --    2.27370   2.27916   2.28950   2.29532   2.29829
 Alpha virt. eigenvalues --    2.30213   2.30742   2.31000   2.31712   2.32240
 Alpha virt. eigenvalues --    2.32638   2.33346   2.33455   2.34041   2.34250
 Alpha virt. eigenvalues --    2.34531   2.34768   2.36119   2.36641   2.37596
 Alpha virt. eigenvalues --    2.37716   2.38398   2.39615   2.40629   2.41141
 Alpha virt. eigenvalues --    2.41964   2.42302   2.43168   2.43501   2.44399
 Alpha virt. eigenvalues --    2.44728   2.44996   2.45516   2.46361   2.46619
 Alpha virt. eigenvalues --    2.46970   2.48351   2.50076   2.50283   2.51226
 Alpha virt. eigenvalues --    2.52264   2.53294   2.54802   2.55187   2.56332
 Alpha virt. eigenvalues --    2.56459   2.57035   2.58693   2.58895   2.60415
 Alpha virt. eigenvalues --    2.61079   2.61962   2.62922   2.63251   2.64172
 Alpha virt. eigenvalues --    2.64973   2.64991   2.65446   2.65883   2.66198
 Alpha virt. eigenvalues --    2.67227   2.67607   2.67860   2.68049   2.69077
 Alpha virt. eigenvalues --    2.69616   2.70740   2.70995   2.71291   2.72344
 Alpha virt. eigenvalues --    2.72894   2.74855   2.75545   2.76157   2.76434
 Alpha virt. eigenvalues --    2.76912   2.77670   2.78110   2.79076   2.79165
 Alpha virt. eigenvalues --    2.79502   2.80098   2.80183   2.80698   2.81766
 Alpha virt. eigenvalues --    2.82175   2.82337   2.82628   2.83230   2.84091
 Alpha virt. eigenvalues --    2.84490   2.85141   2.86330   2.86493   2.86855
 Alpha virt. eigenvalues --    2.87246   2.88170   2.88657   2.91868   2.93511
 Alpha virt. eigenvalues --    2.94368   2.94851   2.96185   2.96383   2.98496
 Alpha virt. eigenvalues --    3.00117   3.00960   3.01743   3.04235   3.05453
 Alpha virt. eigenvalues --    3.06958   3.09882   3.10809   3.12520   3.14799
 Alpha virt. eigenvalues --    3.15840   3.15964   3.16595   3.17595   3.20595
 Alpha virt. eigenvalues --    3.21013   3.22479   3.23372   3.24677   3.25671
 Alpha virt. eigenvalues --    3.44702   3.46979   3.47256   3.48882   3.50580
 Alpha virt. eigenvalues --    3.53231   3.54346   3.56055   3.57648   3.59919
 Alpha virt. eigenvalues --    3.63203   3.70909   3.75180
          Condensed to atoms (all electrons):
 Mulliken charges:
               1
     1  N   -0.306966
     2  C    0.181026
     3  C    0.056558
     4  N   -0.253646
     5  C    0.146611
     6  H    0.025755
     7  N   -0.294683
     8  C    0.130964
     9  H    0.009937
    10  N   -0.285925
    11  C    0.243280
    12  C    0.085743
    13  N   -0.054905
    14  H    0.116653
    15  H    0.085283
    16  H    0.025249
    17  H    0.030420
    18  H    0.019054
    19  N   -0.309229
    20  C    0.263761
    21  C    0.182553
    22  N   -0.124533
    23  H    0.119010
    24  H    0.118672
    25  N   -0.312205
    26  C    0.249963
    27  N   -0.145014
    28  H    0.119563
    29  C    0.190486
    30  O   -0.320876
    31  C   -0.017069
    32  N   -0.222707
    33  C    0.115125
    34  H    0.022637
    35  H    0.026093
    36  H    0.031092
    37  H    0.024504
    38  H    0.061334
    39  H    0.059124
    40  H    0.075104
    41  H    0.020294
    42  C   -0.108452
    43  O   -0.271454
    44  C    0.166461
    45  H    0.130328
    46  N   -0.116613
    47  O   -0.348934
    48  C    0.343910
    49  H    0.044200
    50  C    0.165501
    51  C    0.042840
    52  N   -0.275681
    53  H    0.034593
    54  H    0.041794
    55  H    0.027418
    56  H    0.125403
    57  H    0.114619
    58  N   -0.047554
    59  C    0.084474
    60  C    0.227889
    61  N   -0.266508
    62  H    0.031268
    63  C    0.168245
    64  N   -0.310844
    65  H    0.037409
    66  C    0.129514
    67  N   -0.256202
    68  C    0.020498
    69  C    0.181286
    70  N   -0.303502
 Sum of Mulliken charges =  -0.00000
 Mulliken charges with hydrogens summed into heavy atoms:
               1
     1  N   -0.306966
     2  C    0.255749
     3  C    0.056558
     4  N   -0.253646
     5  C    0.172365
     7  N   -0.294683
     8  C    0.140900
    10  N   -0.285925
    11  C    0.243280
    12  C    0.085743
    13  N    0.147031
    19  N   -0.309229
    20  C    0.263761
    21  C    0.264243
    22  N    0.113150
    25  N   -0.312205
    26  C    0.249963
    27  N   -0.025451
    29  C    0.190486
    30  O   -0.320876
    31  C   -0.017069
    32  N   -0.222707
    33  C    0.137761
    42  C   -0.088157
    43  O   -0.271454
    44  C    0.166461
    46  N    0.013715
    47  O   -0.348934
    48  C    0.343910
    50  C    0.209700
    51  C    0.238402
    52  N   -0.275681
    58  N    0.192468
    59  C    0.084474
    60  C    0.227889
    61  N   -0.266508
    63  C    0.199514
    64  N   -0.310844
    66  C    0.166924
    67  N   -0.256202
    68  C    0.020498
    69  C    0.285091
    70  N   -0.303502
 Electronic spatial extent (au):  <R**2>=          22500.7219
 Charge=             -0.0000 electrons
 Dipole moment (field-independent basis, Debye):
    X=             -6.7854    Y=              7.2916    Z=             -2.1110  Tot=             10.1816
 Quadrupole moment (field-independent basis, Debye-Ang):
   XX=           -152.0293   YY=           -223.2070   ZZ=           -255.5461
   XY=             -4.0548   XZ=             -8.6172   YZ=              4.5401
 Traceless Quadrupole moment (field-independent basis, Debye-Ang):
   XX=             58.2315   YY=            -12.9462   ZZ=            -45.2853
   XY=             -4.0548   XZ=             -8.6172   YZ=              4.5401
 Octapole moment (field-independent basis, Debye-Ang**2):
  XXX=             94.6007  YYY=             99.9269  ZZZ=             -4.9539  XYY=            -59.6303
  XXY=            103.9983  XXZ=            -50.3513  XZZ=            -72.0505  YZZ=             46.1566
  YYZ=            -43.0988  XYZ=             68.5655
 Hexadecapole moment (field-independent basis, Debye-Ang**3):
 XXXX=         -16299.3342 YYYY=          -4660.6552 ZZZZ=          -4073.6030 XXXY=           -581.5826
 XXXZ=            -35.5108 YYYX=             76.2355 YYYZ=            -20.2534 ZZZX=             32.2591
 ZZZY=             -5.3144 XXYY=          -3505.2277 XXZZ=          -3856.2112 YYZZ=          -1561.8028
 XXYZ=           -160.4165 YYXZ=             48.8107 ZZXY=           -131.6295
 N-N= 5.496828167134D+03 E-N=-1.577421491565D+04  KE= 2.037720000747D+03
 No NMR shielding tensors so no spin-rotation constants.
 Leave Link  601 at Sun Jan 21 07:50:20 2018, MaxMem=  4294967296 cpu:              47.7 elap:               1.7
 (Enter /share/apps/g16/l9999.exe)
 1\1\GINC-COMPUTE-0-3\SP\RwB97XD\CC-pVDZ\C23H27N17O3\SATYA\21-Jan-2018\
 0\\#p wb97xd/cc-pvdz sp scf=(maxcycles=20)\\Base pair stacking\\0,1\N,
 0,3.85728,1.22598,-5.99798\C,0,4.38638,2.59097,-6.18467\C,0,2.54943,-0
 .54222,-5.98008\N,0,3.75813,-0.94797,-5.43314\C,0,4.49769,0.13354,-5.4
 6582\H,0,5.52724,0.19154,-5.11144\N,0,0.33143,-0.52756,-6.78209\C,0,0.
 52461,0.76386,-7.06931\H,0,-0.32779,1.27328,-7.5167\N,0,1.60757,1.5169
 4,-6.88772\C,0,2.59543,0.79526,-6.33297\C,0,1.34462,-1.22599,-6.22465\
 N,0,1.15371,-2.51522,-5.93722\H,0,1.87595,-3.07088,-5.52389\H,0,0.2827
 4,-2.96935,-6.12512\H,0,5.18588,2.56085,-6.78473\H,0,3.68263,3.16849,-
 6.59738\H,0,4.65081,2.97225,-5.29884\N,0,1.10688,3.34062,-3.29923\C,0,
 0.19109,2.32154,-3.4034\C,0,0.81711,4.77345,-3.50833\N,0,-3.05101,1.24
 316,-4.02602\H,0,-3.54799,0.3762,-4.05105\H,0,-3.57397,2.0719,-4.22707
 \N,0,-1.11682,2.45684,-3.71181\C,0,-1.74208,1.29319,-3.73598\N,0,-1.13
 479,0.0881,-3.47815\H,0,-1.69126,-0.7519,-3.51929\C,0,0.20958,-0.07476
 ,-3.15876\O,0,0.65863,-1.20742,-2.94387\C,0,0.8944,1.16662,-3.12896\N,
 0,2.22495,1.45484,-2.85795\C,0,2.30407,2.75303,-2.97039\H,0,3.21476,3.
 33469,-2.82347\H,0,1.37905,5.12304,-4.25722\H,0,-0.14888,4.886,-3.7373
 8\H,0,1.02187,5.28205,-2.67274\H,0,-4.85301,-4.60782,-4.51324\H,0,-5.0
 4032,-4.63285,-2.7614\H,0,-4.72487,-3.10906,-3.59202\H,0,-0.79933,-6.8
 5657,-3.22583\C,0,-1.20899,-5.84685,-3.25521\O,0,0.89931,-4.78651,-3.0
 1464\C,0,-0.3232,-4.72838,-3.14452\H,0,-0.35091,-2.6822,-3.11825\N,0,-
 0.94411,-3.49657,-3.19331\O,0,-2.74402,-2.12266,-3.36613\C,0,-2.28724,
 -3.25179,-3.33342\H,0,-3.23957,-6.45639,-3.48103\C,0,-2.52387,-5.64009
 ,-3.39285\C,0,-4.51835,-4.16898,-3.58508\N,0,-3.07613,-4.38085,-3.4339
 \H,0,-6.71614,-3.60268,-8.66828\H,0,-6.10831,-2.46288,-7.67154\H,0,-7.
 18175,-3.55407,-7.10487\H,0,-0.26225,-5.90575,-5.82069\H,0,-1.54933,-6
 .96936,-6.17038\N,0,-1.21445,-6.02905,-6.10045\C,0,-2.00344,-4.98656,-
 6.36858\C,0,-4.03866,-3.93285,-7.00832\N,0,-3.56192,-2.68118,-6.90601\
 H,0,-1.81943,-1.71908,-6.41744\C,0,-2.28607,-2.69727,-6.52541\N,0,-1.4
 9411,-3.74034,-6.25638\H,0,-6.20378,-6.26488,-7.57934\C,0,-5.31177,-5.
 68868,-7.33188\N,0,-4.16381,-6.2096,-6.97337\C,0,-3.3477,-5.10716,-6.7
 6522\C,0,-6.41702,-3.41156,-7.7334\N,0,-5.30735,-4.31575,-7.37413\\Ver
 sion=EM64L-G16RevA.03\State=1-A\HF=-2048.7462907\RMSD=7.503e-09\Dipole
 =-3.9224162,-0.0439104,-0.8116219\Quadrupole=15.2229487,17.6795532,-32
 .9025019,27.4258298,-2.3068851,6.3927355\PG=C01 [X(C23H27N17O3)]\\@


 THERE'S NOTHING WRONG WITH FOLLOWING A TRAIN OF THOUGHT...
 AS LONG AS IT ULTIMATELY PULLS INTO THE STATION.
 Job cpu time:       0 days  5 hours 59 minutes 24.0 seconds.
 Elapsed time:       0 days  0 hours 11 minutes 36.2 seconds.
 File lengths (MBytes):  RWF=    298 Int=      0 D2E=      0 Chk=     33 Scr=      1
 Normal termination of Gaussian 16 at Sun Jan 21 07:50:21 2018.
