 Entering Gaussian System, Link 0=g16
 Input=str30.-15.1.0.com
 Output=str30.-15.1.0.log
 Initial command:
 /share/apps/g16/l1.exe "/state/partition1/scr/Gau-12148.inp" -scrdir="/state/partition1/scr/"
 Entering Link 1 = /share/apps/g16/l1.exe PID=     12149.
  
 Copyright (c) 1988,1990,1992,1993,1995,1998,2003,2009,2016,
            Gaussian, Inc.  All Rights Reserved.
  
 This is part of the Gaussian(R) 16 program.  It is based on
 the Gaussian(R) 09 system (copyright 2009, Gaussian, Inc.),
 the Gaussian(R) 03 system (copyright 2003, Gaussian, Inc.),
 the Gaussian(R) 98 system (copyright 1998, Gaussian, Inc.),
 the Gaussian(R) 94 system (copyright 1995, Gaussian, Inc.),
 the Gaussian 92(TM) system (copyright 1992, Gaussian, Inc.),
 the Gaussian 90(TM) system (copyright 1990, Gaussian, Inc.),
 the Gaussian 88(TM) system (copyright 1988, Gaussian, Inc.),
 the Gaussian 86(TM) system (copyright 1986, Carnegie Mellon
 University), and the Gaussian 82(TM) system (copyright 1983,
 Carnegie Mellon University). Gaussian is a federally registered
 trademark of Gaussian, Inc.
  
 This software contains proprietary and confidential information,
 including trade secrets, belonging to Gaussian, Inc.
  
 This software is provided under written license and may be
 used, copied, transmitted, or stored only in accord with that
 written license.
  
 The following legend is applicable only to US Government
 contracts under FAR:
  
                    RESTRICTED RIGHTS LEGEND
  
 Use, reproduction and disclosure by the US Government is
 subject to restrictions as set forth in subparagraphs (a)
 and (c) of the Commercial Computer Software - Restricted
 Rights clause in FAR 52.227-19.
  
 Gaussian, Inc.
 340 Quinnipiac St., Bldg. 40, Wallingford CT 06492
  
  
 ---------------------------------------------------------------
 Warning -- This program may not be used in any manner that
 competes with the business of Gaussian, Inc. or will provide
 assistance to any competitor of Gaussian, Inc.  The licensee
 of this program is prohibited from giving any competitor of
 Gaussian, Inc. access to this program.  By using this program,
 the user acknowledges that Gaussian, Inc. is engaged in the
 business of creating and licensing software in the field of
 computational chemistry and represents and warrants to the
 licensee that it is not a competitor of Gaussian, Inc. and that
 it will not use this program in any manner prohibited above.
 ---------------------------------------------------------------
  

 Cite this work as:
 Gaussian 16, Revision A.03,
 M. J. Frisch, G. W. Trucks, H. B. Schlegel, G. E. Scuseria, 
 M. A. Robb, J. R. Cheeseman, G. Scalmani, V. Barone, 
 G. A. Petersson, H. Nakatsuji, X. Li, M. Caricato, A. V. Marenich, 
 J. Bloino, B. G. Janesko, R. Gomperts, B. Mennucci, H. P. Hratchian, 
 J. V. Ortiz, A. F. Izmaylov, J. L. Sonnenberg, D. Williams-Young, 
 F. Ding, F. Lipparini, F. Egidi, J. Goings, B. Peng, A. Petrone, 
 T. Henderson, D. Ranasinghe, V. G. Zakrzewski, J. Gao, N. Rega, 
 G. Zheng, W. Liang, M. Hada, M. Ehara, K. Toyota, R. Fukuda, 
 J. Hasegawa, M. Ishida, T. Nakajima, Y. Honda, O. Kitao, H. Nakai, 
 T. Vreven, K. Throssell, J. A. Montgomery, Jr., J. E. Peralta, 
 F. Ogliaro, M. J. Bearpark, J. J. Heyd, E. N. Brothers, K. N. Kudin, 
 V. N. Staroverov, T. A. Keith, R. Kobayashi, J. Normand, 
 K. Raghavachari, A. P. Rendell, J. C. Burant, S. S. Iyengar, 
 J. Tomasi, M. Cossi, J. M. Millam, M. Klene, C. Adamo, R. Cammi, 
 J. W. Ochterski, R. L. Martin, K. Morokuma, O. Farkas, 
 J. B. Foresman, and D. J. Fox, Gaussian, Inc., Wallingford CT, 2016.
 
 ******************************************
 Gaussian 16:  EM64L-G16RevA.03 25-Dec-2016
                21-Jan-2018 
 ******************************************
 %nprocshared=32
 Will use up to   32 processors via shared memory.
 %mem=32GB
 %chk=allatoms_t.chk
 ---------------------------------------
 #p wb97xd/cc-pvdz sp scf=(maxcycles=20)
 ---------------------------------------
 1/38=1,172=1/1;
 2/12=2,17=6,18=5,40=1/2;
 3/5=16,11=2,25=1,30=1,74=-58/1,2,3;
 4//1;
 5/5=2,7=20,38=5/2;
 6/7=2,8=2,9=2,10=2,28=1/1;
 99/5=1,9=1/99;
 Leave Link    1 at Sun Jan 21 10:48:30 2018, MaxMem=  4294967296 cpu:               2.7 elap:               0.1
 (Enter /share/apps/g16/l101.exe)
 ------------------
 Base pair stacking
 ------------------
 Symbolic Z-matrix:
 Charge =  0 Multiplicity = 1
 N                     1.67196   2.80832  -6.82626 
 C                     2.16517   4.19881  -6.79038 
 C                     0.41578   1.01312  -6.63501 
 N                     1.62381   0.58655  -7.16738 
 C                     2.33227   1.68516  -7.2613 
 H                     3.35194   1.73449  -7.6444 
 N                    -1.78415   1.0496   -5.78535 
 C                    -1.62238   2.36812  -5.63399 
 H                    -2.47947   2.89723  -5.21962 
 N                    -0.56579   3.1276   -5.91631 
 C                     0.43053   2.38017  -6.41942 
 C                    -0.76325   0.32568  -6.29407 
 N                    -0.92282  -0.99062  -6.44591 
 H                    -0.19376  -1.56575  -6.81862 
 H                    -1.77609  -1.44651  -6.19243 
 H                     2.39992   4.49466  -7.71642 
 H                     1.45393   4.7961   -6.42092 
 H                     2.97741   4.25169  -6.20947 
 N                     0.51989   3.83466  -3.18061 
 C                    -0.38701   2.81469  -3.02173 
 C                     0.20594   5.27564  -3.10496 
 N                    -3.63652   1.7453   -2.42271 
 H                    -4.12386   0.87635  -2.34103 
 H                    -4.1761    2.5803   -2.31159 
 N                    -1.70669   2.95635  -2.77183 
 C                    -2.31868   1.78985  -2.67012 
 N                    -1.68836   0.57633  -2.80267 
 H                    -2.23604  -0.26528  -2.70932 
 C                    -0.33154   0.40681  -3.05988 
 O                     0.13825  -0.73325  -3.16138 
 C                     0.33926   1.65115  -3.17176 
 N                     1.67523   1.93494  -3.41983 
 C                     1.73497   3.23902  -3.41606 
 H                     2.64346   3.81949  -3.58029 
 H                     0.43467   5.71434  -3.97331 
 H                    -0.76893   5.39295  -2.92021 
 H                     0.73638   5.69589  -2.36955 
 H                    -5.62583  -4.05443  -2.77535 
 H                    -5.10647  -4.27038  -1.10553 
 H                    -5.1079   -2.66056  -1.82654 
 H                    -1.44913  -6.34752  -3.44132 
 C                    -1.81244  -5.34873  -3.19916 
 O                     0.24449  -4.27879  -3.70055 
 C                    -0.92812  -4.23125  -3.32969 
 H                    -0.89354  -2.20056  -3.07783 
 N                    -1.48771  -3.01379  -2.9982 
 O                    -3.17561  -1.66507  -2.29879 
 C                    -2.77059  -2.78199  -2.56921 
 H                    -3.78124  -5.97058  -2.66723 
 C                    -3.06933  -5.15443  -2.78311 
 C                    -4.94121  -3.71086  -2.01421 
 N                    -3.56216  -3.90917  -2.46878 
 H                    -8.82707  -1.95154  -3.76724 
 H                    -7.56899  -1.19993  -3.05001 
 H                    -8.20206  -2.54832  -2.38281 
 H                    -2.44249  -4.32759  -6.70953 
 H                    -3.80686  -5.33525  -6.52732 
 N                    -3.36601  -4.45516  -6.34761 
 C                    -3.98311  -3.49497  -5.65594 
 C                    -5.78658  -2.54103  -4.43152 
 N                    -5.17022  -1.3691   -4.20545 
 H                    -3.38492  -0.44986  -4.61569 
 C                    -3.95626  -1.36699  -4.75244 
 N                    -3.33639  -2.32768  -5.44557 
 H                    -8.15198  -4.7416   -4.31078 
 C                    -7.22721  -4.1931   -4.49215 
 N                    -6.20048  -4.66279  -5.15765 
 C                    -5.27997  -3.62528  -5.12669 
 C                    -7.98599  -2.08747  -3.24369 
 N                    -7.04535  -2.91458  -4.02412 
 
 ITRead=  0  0  0  0  0  0  0  0  0  0  0  0  0  0  0  0  0  0  0  0
 ITRead=  0  0  0  0  0  0  0  0  0  0  0  0  0  0  0  0  0  0  0  0
 ITRead=  0  0  0  0  0  0  0  0  0  0  0  0  0  0  0  0  0  0  0  0
 ITRead=  0  0  0  0  0  0  0  0  0  0
 MicOpt= -1 -1 -1 -1 -1 -1 -1 -1 -1 -1 -1 -1 -1 -1 -1 -1 -1 -1 -1 -1
 MicOpt= -1 -1 -1 -1 -1 -1 -1 -1 -1 -1 -1 -1 -1 -1 -1 -1 -1 -1 -1 -1
 MicOpt= -1 -1 -1 -1 -1 -1 -1 -1 -1 -1 -1 -1 -1 -1 -1 -1 -1 -1 -1 -1
 MicOpt= -1 -1 -1 -1 -1 -1 -1 -1 -1 -1
 NAtoms=     70 NQM=       70 NQMF=       0 NMMI=      0 NMMIF=      0
                NMic=       0 NMicF=      0.
                    Isotopes and Nuclear Properties:
 (Nuclear quadrupole moments (NQMom) in fm**2, nuclear magnetic moments (NMagM)
  in nuclear magnetons)

  Atom         1           2           3           4           5           6           7           8           9          10
 IAtWgt=          14          12          12          14          12           1          14          12           1          14
 AtmWgt=  14.0030740  12.0000000  12.0000000  14.0030740  12.0000000   1.0078250  14.0030740  12.0000000   1.0078250  14.0030740
 NucSpn=           2           0           0           2           0           1           2           0           1           2
 AtZEff=  -0.0000000  -0.0000000  -0.0000000  -0.0000000  -0.0000000  -0.0000000  -0.0000000  -0.0000000  -0.0000000  -0.0000000
 NQMom=    2.0440000   0.0000000   0.0000000   2.0440000   0.0000000   0.0000000   2.0440000   0.0000000   0.0000000   2.0440000
 NMagM=    0.4037610   0.0000000   0.0000000   0.4037610   0.0000000   2.7928460   0.4037610   0.0000000   2.7928460   0.4037610
 AtZNuc=   7.0000000   6.0000000   6.0000000   7.0000000   6.0000000   1.0000000   7.0000000   6.0000000   1.0000000   7.0000000

  Atom        11          12          13          14          15          16          17          18          19          20
 IAtWgt=          12          12          14           1           1           1           1           1          14          12
 AtmWgt=  12.0000000  12.0000000  14.0030740   1.0078250   1.0078250   1.0078250   1.0078250   1.0078250  14.0030740  12.0000000
 NucSpn=           0           0           2           1           1           1           1           1           2           0
 AtZEff=  -0.0000000  -0.0000000  -0.0000000  -0.0000000  -0.0000000  -0.0000000  -0.0000000  -0.0000000  -0.0000000  -0.0000000
 NQMom=    0.0000000   0.0000000   2.0440000   0.0000000   0.0000000   0.0000000   0.0000000   0.0000000   2.0440000   0.0000000
 NMagM=    0.0000000   0.0000000   0.4037610   2.7928460   2.7928460   2.7928460   2.7928460   2.7928460   0.4037610   0.0000000
 AtZNuc=   6.0000000   6.0000000   7.0000000   1.0000000   1.0000000   1.0000000   1.0000000   1.0000000   7.0000000   6.0000000

  Atom        21          22          23          24          25          26          27          28          29          30
 IAtWgt=          12          14           1           1          14          12          14           1          12          16
 AtmWgt=  12.0000000  14.0030740   1.0078250   1.0078250  14.0030740  12.0000000  14.0030740   1.0078250  12.0000000  15.9949146
 NucSpn=           0           2           1           1           2           0           2           1           0           0
 AtZEff=  -0.0000000  -0.0000000  -0.0000000  -0.0000000  -0.0000000  -0.0000000  -0.0000000  -0.0000000  -0.0000000  -0.0000000
 NQMom=    0.0000000   2.0440000   0.0000000   0.0000000   2.0440000   0.0000000   2.0440000   0.0000000   0.0000000   0.0000000
 NMagM=    0.0000000   0.4037610   2.7928460   2.7928460   0.4037610   0.0000000   0.4037610   2.7928460   0.0000000   0.0000000
 AtZNuc=   6.0000000   7.0000000   1.0000000   1.0000000   7.0000000   6.0000000   7.0000000   1.0000000   6.0000000   8.0000000

  Atom        31          32          33          34          35          36          37          38          39          40
 IAtWgt=          12          14          12           1           1           1           1           1           1           1
 AtmWgt=  12.0000000  14.0030740  12.0000000   1.0078250   1.0078250   1.0078250   1.0078250   1.0078250   1.0078250   1.0078250
 NucSpn=           0           2           0           1           1           1           1           1           1           1
 AtZEff=  -0.0000000  -0.0000000  -0.0000000  -0.0000000  -0.0000000  -0.0000000  -0.0000000  -0.0000000  -0.0000000  -0.0000000
 NQMom=    0.0000000   2.0440000   0.0000000   0.0000000   0.0000000   0.0000000   0.0000000   0.0000000   0.0000000   0.0000000
 NMagM=    0.0000000   0.4037610   0.0000000   2.7928460   2.7928460   2.7928460   2.7928460   2.7928460   2.7928460   2.7928460
 AtZNuc=   6.0000000   7.0000000   6.0000000   1.0000000   1.0000000   1.0000000   1.0000000   1.0000000   1.0000000   1.0000000

  Atom        41          42          43          44          45          46          47          48          49          50
 IAtWgt=           1          12          16          12           1          14          16          12           1          12
 AtmWgt=   1.0078250  12.0000000  15.9949146  12.0000000   1.0078250  14.0030740  15.9949146  12.0000000   1.0078250  12.0000000
 NucSpn=           1           0           0           0           1           2           0           0           1           0
 AtZEff=  -0.0000000  -0.0000000  -0.0000000  -0.0000000  -0.0000000  -0.0000000  -0.0000000  -0.0000000  -0.0000000  -0.0000000
 NQMom=    0.0000000   0.0000000   0.0000000   0.0000000   0.0000000   2.0440000   0.0000000   0.0000000   0.0000000   0.0000000
 NMagM=    2.7928460   0.0000000   0.0000000   0.0000000   2.7928460   0.4037610   0.0000000   0.0000000   2.7928460   0.0000000
 AtZNuc=   1.0000000   6.0000000   8.0000000   6.0000000   1.0000000   7.0000000   8.0000000   6.0000000   1.0000000   6.0000000

  Atom        51          52          53          54          55          56          57          58          59          60
 IAtWgt=          12          14           1           1           1           1           1          14          12          12
 AtmWgt=  12.0000000  14.0030740   1.0078250   1.0078250   1.0078250   1.0078250   1.0078250  14.0030740  12.0000000  12.0000000
 NucSpn=           0           2           1           1           1           1           1           2           0           0
 AtZEff=  -0.0000000  -0.0000000  -0.0000000  -0.0000000  -0.0000000  -0.0000000  -0.0000000  -0.0000000  -0.0000000  -0.0000000
 NQMom=    0.0000000   2.0440000   0.0000000   0.0000000   0.0000000   0.0000000   0.0000000   2.0440000   0.0000000   0.0000000
 NMagM=    0.0000000   0.4037610   2.7928460   2.7928460   2.7928460   2.7928460   2.7928460   0.4037610   0.0000000   0.0000000
 AtZNuc=   6.0000000   7.0000000   1.0000000   1.0000000   1.0000000   1.0000000   1.0000000   7.0000000   6.0000000   6.0000000

  Atom        61          62          63          64          65          66          67          68          69          70
 IAtWgt=          14           1          12          14           1          12          14          12          12          14
 AtmWgt=  14.0030740   1.0078250  12.0000000  14.0030740   1.0078250  12.0000000  14.0030740  12.0000000  12.0000000  14.0030740
 NucSpn=           2           1           0           2           1           0           2           0           0           2
 AtZEff=  -0.0000000  -0.0000000  -0.0000000  -0.0000000  -0.0000000  -0.0000000  -0.0000000  -0.0000000  -0.0000000  -0.0000000
 NQMom=    2.0440000   0.0000000   0.0000000   2.0440000   0.0000000   0.0000000   2.0440000   0.0000000   0.0000000   2.0440000
 NMagM=    0.4037610   2.7928460   0.0000000   0.4037610   2.7928460   0.0000000   0.4037610   0.0000000   0.0000000   0.4037610
 AtZNuc=   7.0000000   1.0000000   6.0000000   7.0000000   1.0000000   6.0000000   7.0000000   6.0000000   6.0000000   7.0000000
 Leave Link  101 at Sun Jan 21 10:48:30 2018, MaxMem=  4294967296 cpu:               7.3 elap:               0.3
 (Enter /share/apps/g16/l202.exe)
 Stoichiometry    C23H27N17O3
 Framework group  C1[X(C23H27N17O3)]
 Deg. of freedom   204
 Full point group                 C1      NOp   1
 Largest Abelian subgroup         C1      NOp   1
 Largest concise Abelian subgroup C1      NOp   1
                         Standard orientation:                         
 ---------------------------------------------------------------------
 Center     Atomic      Atomic             Coordinates (Angstroms)
 Number     Number       Type             X           Y           Z
 ---------------------------------------------------------------------
      1          7           0        5.190141   -1.359455   -1.432931
      2          6           0        6.548473   -0.785222   -1.489468
      3          6           0        3.004085   -1.599880   -1.407167
      4          7           0        3.536239   -2.875376   -1.286179
      5          6           0        4.831961   -2.679490   -1.306544
      6          1           0        5.579698   -3.469603   -1.232136
      7          7           0        1.495070    0.204793   -1.577382
      8          6           0        2.569560    0.996708   -1.654311
      9          1           0        2.357153    2.060151   -1.755480
     10          7           0        3.860965    0.673722   -1.625164
     11          6           0        4.011344   -0.655109   -1.498603
     12          6           0        1.679750   -1.127458   -1.450527
     13          7           0        0.608415   -1.919597   -1.373576
     14          1           0        0.697891   -2.911703   -1.279051
     15          1           0       -0.319665   -1.548578   -1.407769
     16          1           0        7.039811   -1.164516   -2.273629
     17          1           0        6.487597    0.207980   -1.584137
     18          1           0        7.042290   -1.008612   -0.649094
     19          7           0        4.750507    1.653143    1.097360
     20          6           0        3.376637    1.662065    1.076145
     21          6           0        5.617372    2.790789    0.729914
     22          7           0        0.388432    3.328922    0.481207
     23          1           0       -0.589929    3.130812    0.534203
     24          1           0        0.649930    4.246045    0.179176
     25          7           0        2.594055    2.703234    0.718925
     26          6           0        1.309112    2.406838    0.800594
     27          7           0        0.825473    1.184911    1.201206
     28          1           0       -0.173059    1.047601    1.233684
     29          6           0        1.612215    0.099342    1.573269
     30          8           0        1.075454   -0.960375    1.919145
     31          6           0        2.995003    0.402555    1.490627
     32          7           0        4.106910   -0.381309    1.766508
     33          6           0        5.122954    0.400304    1.519639
     34          1           0        6.169024    0.112303    1.629472
     35          1           0        6.204608    2.530807   -0.035834
     36          1           0        5.048742    3.567926    0.463487
     37          1           0        6.184047    3.046547    1.512392
     38          1           0       -5.207428    0.799534    0.565635
     39          1           0       -5.243035    1.082455    2.304415
     40          1           0       -3.945893    1.769666    1.326386
     41          1           0       -4.129473   -3.596727    2.195820
     42          6           0       -3.647241   -2.630317    2.048440
     43          8           0       -1.445609   -3.493740    2.234018
     44          6           0       -2.218514   -2.550984    2.064789
     45          1           0       -0.705405   -1.186314    1.873722
     46          7           0       -1.711123   -1.282378    1.868756
     47          8           0       -1.884722    0.951972    1.501647
     48          6           0       -2.424856   -0.127765    1.666271
     49          1           0       -5.459539   -1.528249    1.832007
     50          6           0       -4.370572   -1.521577    1.853217
     51          6           0       -4.601347    0.920574    1.451126
     52          7           0       -3.796804   -0.285737    1.663883
     53          1           0       -5.584826    3.711765   -2.085858
     54          1           0       -4.294779    3.703930   -1.086949
     55          1           0       -5.801259    3.560534   -0.475356
     56          1           0       -2.847220   -3.163349   -1.534607
     57          1           0       -4.511961   -2.844978   -1.727897
     58          7           0       -3.588484   -2.493027   -1.571295
     59          6           0       -3.356857   -1.187606   -1.418296
     60          6           0       -3.967864    1.108214   -1.285666
     61          7           0       -2.717441    1.552267   -1.076656
     62          1           0       -0.816753    0.808149   -0.891537
     63          6           0       -1.858190    0.535318   -1.056548
     64          7           0       -2.088208   -0.772836   -1.209581
     65          1           0       -7.169427    1.288121   -1.697774
     66          6           0       -6.134585    0.962014   -1.589598
     67          7           0       -5.735697   -0.284817   -1.652651
     68          6           0       -4.363830   -0.206244   -1.461515
     69          6           0       -5.206584    3.325856   -1.244428
     70          7           0       -5.117060    1.858098   -1.369564
 ---------------------------------------------------------------------
 Rotational constants (GHZ):           0.1604950           0.0547774           0.0516844
 Leave Link  202 at Sun Jan 21 10:48:31 2018, MaxMem=  4294967296 cpu:               0.4 elap:               0.0
 (Enter /share/apps/g16/l301.exe)
 Standard basis: CC-pVDZ (5D, 7F)
 Ernie: Thresh=  0.10000D-02 Tol=  0.10000D-05 Strict=F.
 Ernie:  86 primitive shells out of 1081 were deleted.
 There are   780 symmetry adapted cartesian basis functions of A   symmetry.
 There are   737 symmetry adapted basis functions of A   symmetry.
   737 basis functions,  1608 primitive gaussians,   780 cartesian basis functions
   154 alpha electrons      154 beta electrons
       nuclear repulsion energy      5611.5509627277 Hartrees.
 IExCor= 4639 DFT=T Ex+Corr=wB97XD ExCW=0 ScaHFX=  1.000000
 ScaDFX=  1.000000  1.000000  1.000000  1.000000 ScalE2=  1.000000  1.000000
 IRadAn=      5 IRanWt=     -1 IRanGd=            0 ICorTp=0 IEmpDi=121
 HFx  wShort=  0.000000 wLong=  0.200000 cFull=  0.222036 cShort=  0.000000 cLong=  0.777964
 DFx  wShort=  0.000000 wLong=  0.200000 cFull=  0.000000 cShort=  0.000000 cLong=  1.000000
 NAtoms=   70 NActive=   70 NUniq=   70 SFac= 1.00D+00 NAtFMM=   60 NAOKFM=T Big=T
 Integral buffers will be    131072 words long.
 Raffenetti 2 integral format.
 Two-electron integral symmetry is turned on.
 R6Disp:  Grimme-D2 Dispersion energy=       -0.0784448161 Hartrees.
 Nuclear repulsion after empirical dispersion term =     5611.4725179116 Hartrees.
 Leave Link  301 at Sun Jan 21 10:48:31 2018, MaxMem=  4294967296 cpu:               2.9 elap:               0.1
 (Enter /share/apps/g16/l302.exe)
 NPDir=0 NMtPBC=     1 NCelOv=     1 NCel=       1 NClECP=     1 NCelD=      1
         NCelK=      1 NCelE2=     1 NClLst=     1 CellRange=     0.0.
 One-electron integrals computed using PRISM.
 One-electron integral symmetry used in STVInt
 NBasis=   737 RedAO= T EigKep=  6.46D-04  NBF=   737
 NBsUse=   737 1.00D-06 EigRej= -1.00D+00 NBFU=   737
 Precomputing XC quadrature grid using
 IXCGrd= 4 IRadAn=           5 IRanWt=          -1 IRanGd=           0 AccXCQ= 0.00D+00.
 Generated NRdTot=       0 NPtTot=           0 NUsed=           0 NTot=          32
 NSgBfM=   768   768   768   768   768 MxSgAt=    70 MxSgA2=    70.
 Leave Link  302 at Sun Jan 21 10:48:35 2018, MaxMem=  4294967296 cpu:             138.6 elap:               4.4
 (Enter /share/apps/g16/l303.exe)
 DipDrv:  MaxL=1.
 Leave Link  303 at Sun Jan 21 10:48:36 2018, MaxMem=  4294967296 cpu:              12.5 elap:               0.4
 (Enter /share/apps/g16/l401.exe)
 ExpMin= 1.22D-01 ExpMax= 1.17D+04 ExpMxC= 4.01D+02 IAcc=3 IRadAn=         5 AccDes= 0.00D+00
 Harris functional with IExCor= 4639 and IRadAn=       5 diagonalized for initial guess.
 HarFok:  IExCor= 4639 AccDes= 0.00D+00 IRadAn=         5 IDoV= 1 UseB2=F ITyADJ=14
 ICtDFT=  3500011 ScaDFX=  1.000000  1.000000  1.000000  1.000000
 FoFCou: FMM=F IPFlag=           0 FMFlag=      100000 FMFlg1=        2001
         NFxFlg=           0 DoJE=T BraDBF=F KetDBF=T FulRan=T
         wScrn=  0.000000 ICntrl=       500 IOpCl=  0 I1Cent=   200000004 NGrid=           0
         NMat0=    1 NMatS0=      1 NMatT0=    0 NMatD0=    1 NMtDS0=    0 NMtDT0=    0
 Petite list used in FoFCou.
 Harris En= -1963.86419919382    
 JPrj=0 DoOrth=F DoCkMO=F.
 Leave Link  401 at Sun Jan 21 10:48:48 2018, MaxMem=  4294967296 cpu:             412.6 elap:              12.9
 (Enter /share/apps/g16/l502.exe)
 Integral symmetry usage will be decided dynamically.
 Closed shell SCF:
 Using DIIS extrapolation, IDIIS=  1040.
 NGot=  4294967296 LenX=  4293717438 LenY=  4293108258
 Requested convergence on RMS density matrix=1.00D-08 within  20 cycles.
 Requested convergence on MAX density matrix=1.00D-06.
 Requested convergence on             energy=1.00D-06.
 No special actions if energy rises.
 Fock matrices will be formed incrementally for  20 cycles.
 Integral accuracy reduced to 1.0D-05 until final iterations.

 Cycle   1  Pass 0  IDiag  1:
 FoFJK:  IHMeth= 1 ICntrl=       0 DoSepK=T KAlg= 0 I1Cent=           0 FoldK=F
 IRaf=         1 NMat=       1 IRICut=       1 DoRegI=T DoRafI=F ISym2E= 0 IDoP0=0 IntGTp=1.
 FoFCou: FMM=T IPFlag=           0 FMFlag=      100000 FMFlg1=        2001
         NFxFlg=           0 DoJE=T BraDBF=F KetDBF=F FulRan=T
         wScrn=  0.000000 ICntrl=       500 IOpCl=  0 I1Cent=           0 NGrid=           0
         NMat0=    1 NMatS0=      1 NMatT0=    0 NMatD0=    1 NMtDS0=    0 NMtDT0=    0
 Symmetry not used in FoFCou.
 FMM levels:  10  Number of levels for PrismC:   9
 E= -2048.30713533104    
 DIIS: error= 2.04D-02 at cycle   1 NSaved=   1.
 NSaved= 1 IEnMin= 1 EnMin= -2048.30713533104     IErMin= 1 ErrMin= 2.04D-02
 ErrMax= 2.04D-02  0.00D+00 EMaxC= 1.00D-01 BMatC= 8.28D-01 BMatP= 8.28D-01
 IDIUse=3 WtCom= 7.96D-01 WtEn= 2.04D-01
 Coeff-Com:  0.100D+01
 Coeff-En:   0.100D+01
 Coeff:      0.100D+01
 Gap=     0.263 Goal=   None    Shift=    0.000
 GapD=    0.263 DampG=1.000 DampE=0.500 DampFc=0.5000 IDamp=-1.
 Damping current iteration by 5.00D-01
 RMSDP=1.57D-03 MaxDP=1.31D-01              OVMax= 2.09D-01

 Cycle   2  Pass 0  IDiag  1:
 RMSU=  7.83D-04    CP:  9.98D-01
 E= -2048.50275417057     Delta-E=       -0.195618839534 Rises=F Damp=T
 DIIS: error= 1.01D-02 at cycle   2 NSaved=   2.
 NSaved= 2 IEnMin= 2 EnMin= -2048.50275417057     IErMin= 2 ErrMin= 1.01D-02
 ErrMax= 1.01D-02  0.00D+00 EMaxC= 1.00D-01 BMatC= 1.45D-01 BMatP= 8.28D-01
 IDIUse=3 WtCom= 8.99D-01 WtEn= 1.01D-01
 Coeff-Com: -0.203D+00 0.120D+01
 Coeff-En:   0.000D+00 0.100D+01
 Coeff:     -0.182D+00 0.118D+01
 Gap=     0.306 Goal=   None    Shift=    0.000
 RMSDP=5.96D-04 MaxDP=3.63D-02 DE=-1.96D-01 OVMax= 1.25D-01

 Cycle   3  Pass 0  IDiag  1:
 RMSU=  5.83D-04    CP:  9.94D-01  1.15D+00
 E= -2048.67820970584     Delta-E=       -0.175455535265 Rises=F Damp=F
 DIIS: error= 7.81D-03 at cycle   3 NSaved=   3.
 NSaved= 3 IEnMin= 3 EnMin= -2048.67820970584     IErMin= 3 ErrMin= 7.81D-03
 ErrMax= 7.81D-03  0.00D+00 EMaxC= 1.00D-01 BMatC= 6.49D-02 BMatP= 1.45D-01
 IDIUse=3 WtCom= 9.22D-01 WtEn= 7.81D-02
 Coeff-Com: -0.236D+00 0.559D+00 0.677D+00
 Coeff-En:   0.000D+00 0.000D+00 0.100D+01
 Coeff:     -0.218D+00 0.516D+00 0.702D+00
 Gap=     0.287 Goal=   None    Shift=    0.000
 RMSDP=3.65D-04 MaxDP=3.53D-02 DE=-1.75D-01 OVMax= 7.09D-02

 Cycle   4  Pass 0  IDiag  1:
 RMSU=  2.06D-04    CP:  9.94D-01  1.44D+00  6.61D-01
 E= -2048.72653137161     Delta-E=       -0.048321665777 Rises=F Damp=F
 DIIS: error= 2.94D-03 at cycle   4 NSaved=   4.
 NSaved= 4 IEnMin= 4 EnMin= -2048.72653137161     IErMin= 4 ErrMin= 2.94D-03
 ErrMax= 2.94D-03  0.00D+00 EMaxC= 1.00D-01 BMatC= 9.65D-03 BMatP= 6.49D-02
 IDIUse=3 WtCom= 9.71D-01 WtEn= 2.94D-02
 Coeff-Com: -0.980D-01 0.190D+00 0.380D+00 0.528D+00
 Coeff-En:   0.000D+00 0.000D+00 0.708D-01 0.929D+00
 Coeff:     -0.951D-01 0.184D+00 0.371D+00 0.540D+00
 Gap=     0.288 Goal=   None    Shift=    0.000
 RMSDP=1.30D-04 MaxDP=1.22D-02 DE=-4.83D-02 OVMax= 1.46D-02

 Cycle   5  Pass 0  IDiag  1:
 RMSU=  6.25D-05    CP:  9.94D-01  1.41D+00  7.97D-01  6.15D-01
 E= -2048.73437423333     Delta-E=       -0.007842861716 Rises=F Damp=F
 DIIS: error= 6.05D-04 at cycle   5 NSaved=   5.
 NSaved= 5 IEnMin= 5 EnMin= -2048.73437423333     IErMin= 5 ErrMin= 6.05D-04
 ErrMax= 6.05D-04  0.00D+00 EMaxC= 1.00D-01 BMatC= 3.04D-04 BMatP= 9.65D-03
 IDIUse=3 WtCom= 9.94D-01 WtEn= 6.05D-03
 Coeff-Com: -0.259D-01 0.448D-01 0.124D+00 0.241D+00 0.615D+00
 Coeff-En:   0.000D+00 0.000D+00 0.000D+00 0.000D+00 0.100D+01
 Coeff:     -0.258D-01 0.445D-01 0.124D+00 0.240D+00 0.618D+00
 Gap=     0.288 Goal=   None    Shift=    0.000
 RMSDP=2.70D-05 MaxDP=1.94D-03 DE=-7.84D-03 OVMax= 3.43D-03

 Failed to achieve initial convergence to 1.0D-08 in  6 cycles.
 Switch to full accuracy anyway.
 Cycle   6  Pass 1  IDiag  1:
 E= -2048.73463096620     Delta-E=       -0.000256732874 Rises=F Damp=F
 DIIS: error= 2.45D-04 at cycle   1 NSaved=   1.
 NSaved= 1 IEnMin= 1 EnMin= -2048.73463096620     IErMin= 1 ErrMin= 2.45D-04
 ErrMax= 2.45D-04  0.00D+00 EMaxC= 1.00D-01 BMatC= 7.73D-05 BMatP= 7.73D-05
 IDIUse=3 WtCom= 9.98D-01 WtEn= 2.45D-03
 Coeff-Com:  0.100D+01
 Coeff-En:   0.100D+01
 Coeff:      0.100D+01
 Gap=     0.288 Goal=   None    Shift=    0.000
 RMSDP=2.70D-05 MaxDP=1.94D-03 DE=-2.57D-04 OVMax= 2.00D-03

 Cycle   7  Pass 1  IDiag  1:
 RMSU=  1.12D-04    CP:  1.00D+00
 E= -2048.73468389946     Delta-E=       -0.000052933259 Rises=F Damp=F
 DIIS: error= 2.44D-04 at cycle   2 NSaved=   2.
 NSaved= 2 IEnMin= 2 EnMin= -2048.73468389946     IErMin= 2 ErrMin= 2.44D-04
 ErrMax= 2.44D-04  0.00D+00 EMaxC= 1.00D-01 BMatC= 4.76D-05 BMatP= 7.73D-05
 IDIUse=3 WtCom= 9.98D-01 WtEn= 2.44D-03
 Coeff-Com:  0.419D+00 0.581D+00
 Coeff-En:   0.246D-01 0.975D+00
 Coeff:      0.418D+00 0.582D+00
 Gap=     0.288 Goal=   None    Shift=    0.000
 RMSDP=1.19D-05 MaxDP=1.08D-03 DE=-5.29D-05 OVMax= 1.62D-03

 Cycle   8  Pass 1  IDiag  1:
 RMSU=  1.16D-05    CP:  1.00D+00  1.02D+00
 E= -2048.73471887108     Delta-E=       -0.000034971616 Rises=F Damp=F
 DIIS: error= 9.97D-05 at cycle   3 NSaved=   3.
 NSaved= 3 IEnMin= 3 EnMin= -2048.73471887108     IErMin= 3 ErrMin= 9.97D-05
 ErrMax= 9.97D-05  0.00D+00 EMaxC= 1.00D-01 BMatC= 1.04D-05 BMatP= 4.76D-05
 IDIUse=1 WtCom= 1.00D+00 WtEn= 0.00D+00
 Coeff-Com: -0.185D-01 0.305D+00 0.714D+00
 Coeff:     -0.185D-01 0.305D+00 0.714D+00
 Gap=     0.288 Goal=   None    Shift=    0.000
 RMSDP=5.75D-06 MaxDP=4.66D-04 DE=-3.50D-05 OVMax= 5.73D-04

 Cycle   9  Pass 1  IDiag  1:
 RMSU=  3.93D-06    CP:  1.00D+00  1.05D+00  7.68D-01
 E= -2048.73472872708     Delta-E=       -0.000009856000 Rises=F Damp=F
 DIIS: error= 3.21D-05 at cycle   4 NSaved=   4.
 NSaved= 4 IEnMin= 4 EnMin= -2048.73472872708     IErMin= 4 ErrMin= 3.21D-05
 ErrMax= 3.21D-05  0.00D+00 EMaxC= 1.00D-01 BMatC= 5.32D-07 BMatP= 1.04D-05
 IDIUse=1 WtCom= 1.00D+00 WtEn= 0.00D+00
 Coeff-Com: -0.311D-01 0.859D-01 0.269D+00 0.676D+00
 Coeff:     -0.311D-01 0.859D-01 0.269D+00 0.676D+00
 Gap=     0.288 Goal=   None    Shift=    0.000
 RMSDP=1.46D-06 MaxDP=1.36D-04 DE=-9.86D-06 OVMax= 3.54D-04

 Cycle  10  Pass 1  IDiag  1:
 RMSU=  1.31D-06    CP:  1.00D+00  1.05D+00  8.00D-01  1.10D+00
 E= -2048.73472958922     Delta-E=       -0.000000862139 Rises=F Damp=F
 DIIS: error= 1.03D-05 at cycle   5 NSaved=   5.
 NSaved= 5 IEnMin= 5 EnMin= -2048.73472958922     IErMin= 5 ErrMin= 1.03D-05
 ErrMax= 1.03D-05  0.00D+00 EMaxC= 1.00D-01 BMatC= 1.21D-07 BMatP= 5.32D-07
 IDIUse=1 WtCom= 1.00D+00 WtEn= 0.00D+00
 Coeff-Com: -0.347D-02-0.529D-01-0.117D+00 0.200D+00 0.974D+00
 Coeff:     -0.347D-02-0.529D-01-0.117D+00 0.200D+00 0.974D+00
 Gap=     0.288 Goal=   None    Shift=    0.000
 RMSDP=1.22D-06 MaxDP=7.73D-05 DE=-8.62D-07 OVMax= 1.83D-04

 Cycle  11  Pass 1  IDiag  1:
 RMSU=  5.08D-07    CP:  1.00D+00  1.05D+00  8.11D-01  1.37D+00  1.18D+00
 E= -2048.73472985043     Delta-E=       -0.000000261213 Rises=F Damp=F
 DIIS: error= 6.08D-06 at cycle   6 NSaved=   6.
 NSaved= 6 IEnMin= 6 EnMin= -2048.73472985043     IErMin= 6 ErrMin= 6.08D-06
 ErrMax= 6.08D-06  0.00D+00 EMaxC= 1.00D-01 BMatC= 3.06D-08 BMatP= 1.21D-07
 IDIUse=1 WtCom= 1.00D+00 WtEn= 0.00D+00
 Coeff-Com:  0.462D-02-0.442D-01-0.116D+00-0.565D-02 0.528D+00 0.634D+00
 Coeff:      0.462D-02-0.442D-01-0.116D+00-0.565D-02 0.528D+00 0.634D+00
 Gap=     0.288 Goal=   None    Shift=    0.000
 RMSDP=3.82D-07 MaxDP=3.66D-05 DE=-2.61D-07 OVMax= 9.36D-05

 Cycle  12  Pass 1  IDiag  1:
 RMSU=  1.91D-07    CP:  1.00D+00  1.05D+00  8.12D-01  1.44D+00  1.31D+00
                    CP:  9.25D-01
 E= -2048.73472989402     Delta-E=       -0.000000043591 Rises=F Damp=F
 DIIS: error= 9.94D-07 at cycle   7 NSaved=   7.
 NSaved= 7 IEnMin= 7 EnMin= -2048.73472989402     IErMin= 7 ErrMin= 9.94D-07
 ErrMax= 9.94D-07  0.00D+00 EMaxC= 1.00D-01 BMatC= 8.03D-10 BMatP= 3.06D-08
 IDIUse=1 WtCom= 1.00D+00 WtEn= 0.00D+00
 Coeff-Com:  0.107D-02-0.670D-02-0.192D-01-0.883D-02 0.520D-01 0.129D+00
 Coeff-Com:  0.852D+00
 Coeff:      0.107D-02-0.670D-02-0.192D-01-0.883D-02 0.520D-01 0.129D+00
 Coeff:      0.852D+00
 Gap=     0.288 Goal=   None    Shift=    0.000
 RMSDP=8.71D-08 MaxDP=5.53D-06 DE=-4.36D-08 OVMax= 1.73D-05

 Cycle  13  Pass 1  IDiag  1:
 RMSU=  5.05D-08    CP:  1.00D+00  1.05D+00  8.12D-01  1.45D+00  1.33D+00
                    CP:  1.01D+00  1.15D+00
 E= -2048.73472989577     Delta-E=       -0.000000001742 Rises=F Damp=F
 DIIS: error= 6.48D-07 at cycle   8 NSaved=   8.
 NSaved= 8 IEnMin= 8 EnMin= -2048.73472989577     IErMin= 8 ErrMin= 6.48D-07
 ErrMax= 6.48D-07  0.00D+00 EMaxC= 1.00D-01 BMatC= 3.24D-10 BMatP= 8.03D-10
 IDIUse=1 WtCom= 1.00D+00 WtEn= 0.00D+00
 Coeff-Com: -0.696D-03 0.845D-02 0.211D-01-0.111D-02-0.113D+00-0.100D+00
 Coeff-Com:  0.421D+00 0.765D+00
 Coeff:     -0.696D-03 0.845D-02 0.211D-01-0.111D-02-0.113D+00-0.100D+00
 Coeff:      0.421D+00 0.765D+00
 Gap=     0.288 Goal=   None    Shift=    0.000
 RMSDP=4.78D-08 MaxDP=2.76D-06 DE=-1.74D-09 OVMax= 8.93D-06

 Cycle  14  Pass 1  IDiag  1:
 RMSU=  2.80D-08    CP:  1.00D+00  1.05D+00  8.12D-01  1.46D+00  1.33D+00
                    CP:  1.06D+00  1.30D+00  1.11D+00
 E= -2048.73472989644     Delta-E=       -0.000000000673 Rises=F Damp=F
 DIIS: error= 1.65D-07 at cycle   9 NSaved=   9.
 NSaved= 9 IEnMin= 9 EnMin= -2048.73472989644     IErMin= 9 ErrMin= 1.65D-07
 ErrMax= 1.65D-07  0.00D+00 EMaxC= 1.00D-01 BMatC= 3.38D-11 BMatP= 3.24D-10
 IDIUse=1 WtCom= 1.00D+00 WtEn= 0.00D+00
 Coeff-Com: -0.423D-03 0.446D-02 0.114D-01 0.741D-03-0.544D-01-0.583D-01
 Coeff-Com:  0.862D-01 0.314D+00 0.696D+00
 Coeff:     -0.423D-03 0.446D-02 0.114D-01 0.741D-03-0.544D-01-0.583D-01
 Coeff:      0.862D-01 0.314D+00 0.696D+00
 Gap=     0.288 Goal=   None    Shift=    0.000
 RMSDP=1.40D-08 MaxDP=9.03D-07 DE=-6.73D-10 OVMax= 2.55D-06

 Cycle  15  Pass 1  IDiag  1:
 RMSU=  9.34D-09    CP:  1.00D+00  1.05D+00  8.12D-01  1.46D+00  1.33D+00
                    CP:  1.06D+00  1.32D+00  1.26D+00  1.10D+00
 E= -2048.73472989654     Delta-E=       -0.000000000099 Rises=F Damp=F
 DIIS: error= 8.99D-08 at cycle  10 NSaved=  10.
 NSaved=10 IEnMin=10 EnMin= -2048.73472989654     IErMin=10 ErrMin= 8.99D-08
 ErrMax= 8.99D-08  0.00D+00 EMaxC= 1.00D-01 BMatC= 5.97D-12 BMatP= 3.38D-11
 IDIUse=1 WtCom= 1.00D+00 WtEn= 0.00D+00
 Coeff-Com: -0.386D-06-0.250D-03-0.527D-03 0.198D-03 0.488D-02 0.726D-03
 Coeff-Com: -0.555D-01-0.551D-01 0.275D+00 0.831D+00
 Coeff:     -0.386D-06-0.250D-03-0.527D-03 0.198D-03 0.488D-02 0.726D-03
 Coeff:     -0.555D-01-0.551D-01 0.275D+00 0.831D+00
 Gap=     0.288 Goal=   None    Shift=    0.000
 RMSDP=7.19D-09 MaxDP=4.08D-07 DE=-9.91D-11 OVMax= 1.20D-06

 SCF Done:  E(RwB97XD) =  -2048.73472990     A.U. after   15 cycles
            NFock= 15  Conv=0.72D-08     -V/T= 2.0053
 KE= 2.037891399643D+03 PE=-1.600352169064D+04 EE= 6.305423043191D+03
 Leave Link  502 at Sun Jan 21 11:00:53 2018, MaxMem=  4294967296 cpu:           22425.6 elap:             724.1
 (Enter /share/apps/g16/l601.exe)
 Copying SCF densities to generalized density rwf, IOpCl= 0 IROHF=0.

 **********************************************************************

            Population analysis using the SCF density.

 **********************************************************************

 Orbital symmetries:
       Occupied  (A) (A) (A) (A) (A) (A) (A) (A) (A) (A) (A) (A)
                 (A) (A) (A) (A) (A) (A) (A) (A) (A) (A) (A) (A)
                 (A) (A) (A) (A) (A) (A) (A) (A) (A) (A) (A) (A)
                 (A) (A) (A) (A) (A) (A) (A) (A) (A) (A) (A) (A)
                 (A) (A) (A) (A) (A) (A) (A) (A) (A) (A) (A) (A)
                 (A) (A) (A) (A) (A) (A) (A) (A) (A) (A) (A) (A)
                 (A) (A) (A) (A) (A) (A) (A) (A) (A) (A) (A) (A)
                 (A) (A) (A) (A) (A) (A) (A) (A) (A) (A) (A) (A)
                 (A) (A) (A) (A) (A) (A) (A) (A) (A) (A) (A) (A)
                 (A) (A) (A) (A) (A) (A) (A) (A) (A) (A) (A) (A)
                 (A) (A) (A) (A) (A) (A) (A) (A) (A) (A) (A) (A)
                 (A) (A) (A) (A) (A) (A) (A) (A) (A) (A) (A) (A)
                 (A) (A) (A) (A) (A) (A) (A) (A) (A) (A)
       Virtual   (A) (A) (A) (A) (A) (A) (A) (A) (A) (A) (A) (A)
                 (A) (A) (A) (A) (A) (A) (A) (A) (A) (A) (A) (A)
                 (A) (A) (A) (A) (A) (A) (A) (A) (A) (A) (A) (A)
                 (A) (A) (A) (A) (A) (A) (A) (A) (A) (A) (A) (A)
                 (A) (A) (A) (A) (A) (A) (A) (A) (A) (A) (A) (A)
                 (A) (A) (A) (A) (A) (A) (A) (A) (A) (A) (A) (A)
                 (A) (A) (A) (A) (A) (A) (A) (A) (A) (A) (A) (A)
                 (A) (A) (A) (A) (A) (A) (A) (A) (A) (A) (A) (A)
                 (A) (A) (A) (A) (A) (A) (A) (A) (A) (A) (A) (A)
                 (A) (A) (A) (A) (A) (A) (A) (A) (A) (A) (A) (A)
                 (A) (A) (A) (A) (A) (A) (A) (A) (A) (A) (A) (A)
                 (A) (A) (A) (A) (A) (A) (A) (A) (A) (A) (A) (A)
                 (A) (A) (A) (A) (A) (A) (A) (A) (A) (A) (A) (A)
                 (A) (A) (A) (A) (A) (A) (A) (A) (A) (A) (A) (A)
                 (A) (A) (A) (A) (A) (A) (A) (A) (A) (A) (A) (A)
                 (A) (A) (A) (A) (A) (A) (A) (A) (A) (A) (A) (A)
                 (A) (A) (A) (A) (A) (A) (A) (A) (A) (A) (A) (A)
                 (A) (A) (A) (A) (A) (A) (A) (A) (A) (A) (A) (A)
                 (A) (A) (A) (A) (A) (A) (A) (A) (A) (A) (A) (A)
                 (A) (A) (A) (A) (A) (A) (A) (A) (A) (A) (A) (A)
                 (A) (A) (A) (A) (A) (A) (A) (A) (A) (A) (A) (A)
                 (A) (A) (A) (A) (A) (A) (A) (A) (A) (A) (A) (A)
                 (A) (A) (A) (A) (A) (A) (A) (A) (A) (A) (A) (A)
                 (A) (A) (A) (A) (A) (A) (A) (A) (A) (A) (A) (A)
                 (A) (A) (A) (A) (A) (A) (A) (A) (A) (A) (A) (A)
                 (A) (A) (A) (A) (A) (A) (A) (A) (A) (A) (A) (A)
                 (A) (A) (A) (A) (A) (A) (A) (A) (A) (A) (A) (A)
                 (A) (A) (A) (A) (A) (A) (A) (A) (A) (A) (A) (A)
                 (A) (A) (A) (A) (A) (A) (A) (A) (A) (A) (A) (A)
                 (A) (A) (A) (A) (A) (A) (A) (A) (A) (A) (A) (A)
                 (A) (A) (A) (A) (A) (A) (A) (A) (A) (A) (A) (A)
                 (A) (A) (A) (A) (A) (A) (A) (A) (A) (A) (A) (A)
                 (A) (A) (A) (A) (A) (A) (A) (A) (A) (A) (A) (A)
                 (A) (A) (A) (A) (A) (A) (A) (A) (A) (A) (A) (A)
                 (A) (A) (A) (A) (A) (A) (A) (A) (A) (A) (A) (A)
                 (A) (A) (A) (A) (A) (A) (A) (A) (A) (A) (A) (A)
                 (A) (A) (A) (A) (A) (A) (A) (A) (A) (A) (A) (A)
                 (A) (A) (A) (A) (A) (A) (A) (A) (A) (A) (A) (A)
                 (A) (A) (A) (A) (A) (A) (A) (A) (A) (A) (A) (A)
                 (A) (A) (A) (A) (A) (A) (A) (A) (A) (A) (A) (A)
                 (A) (A) (A) (A) (A) (A) (A) (A) (A) (A) (A) (A)
                 (A) (A) (A) (A) (A) (A) (A) (A) (A) (A) (A) (A)
                 (A) (A) (A) (A) (A) (A) (A) (A) (A) (A) (A) (A)
                 (A) (A) (A) (A) (A) (A) (A) (A) (A) (A) (A) (A)
                 (A) (A) (A) (A) (A) (A) (A) (A) (A) (A) (A) (A)
                 (A) (A) (A) (A) (A) (A) (A) (A) (A) (A) (A) (A)
                 (A) (A) (A) (A) (A) (A) (A) (A) (A) (A) (A) (A)
                 (A) (A) (A) (A) (A) (A) (A) (A) (A) (A) (A) (A)
                 (A) (A) (A) (A) (A) (A) (A)
 The electronic state is 1-A.
 Alpha  occ. eigenvalues --  -19.25166 -19.21506 -19.20455 -14.52729 -14.51890
 Alpha  occ. eigenvalues --  -14.48721 -14.48584 -14.48493 -14.47307 -14.46563
 Alpha  occ. eigenvalues --  -14.46521 -14.45909 -14.44686 -14.44510 -14.42817
 Alpha  occ. eigenvalues --  -14.41850 -14.41316 -14.41098 -14.40960 -14.40590
 Alpha  occ. eigenvalues --  -10.44855 -10.41049 -10.40341 -10.39615 -10.38317
 Alpha  occ. eigenvalues --  -10.38064 -10.37491 -10.37263 -10.36289 -10.35776
 Alpha  occ. eigenvalues --  -10.34306 -10.34265 -10.34196 -10.34053 -10.33460
 Alpha  occ. eigenvalues --  -10.33413 -10.33133 -10.32940 -10.31276 -10.30737
 Alpha  occ. eigenvalues --  -10.30656 -10.28617 -10.27991  -1.19015  -1.15712
 Alpha  occ. eigenvalues --   -1.13047  -1.12534  -1.11326  -1.10440  -1.09670
 Alpha  occ. eigenvalues --   -1.08824  -1.08411  -1.05360  -1.05149  -1.01958
 Alpha  occ. eigenvalues --   -1.01381  -1.00786  -0.99566  -0.98413  -0.97286
 Alpha  occ. eigenvalues --   -0.96985  -0.96480  -0.93055  -0.90566  -0.88056
 Alpha  occ. eigenvalues --   -0.86302  -0.84070  -0.84016  -0.83154  -0.82522
 Alpha  occ. eigenvalues --   -0.82354  -0.78380  -0.77425  -0.75266  -0.74497
 Alpha  occ. eigenvalues --   -0.73468  -0.73128  -0.72866  -0.71273  -0.70773
 Alpha  occ. eigenvalues --   -0.67264  -0.67171  -0.66553  -0.66093  -0.64643
 Alpha  occ. eigenvalues --   -0.64223  -0.63630  -0.62998  -0.62533  -0.61723
 Alpha  occ. eigenvalues --   -0.61621  -0.60870  -0.60713  -0.59845  -0.59122
 Alpha  occ. eigenvalues --   -0.58591  -0.58216  -0.57353  -0.56811  -0.56025
 Alpha  occ. eigenvalues --   -0.55954  -0.55695  -0.55534  -0.54443  -0.54086
 Alpha  occ. eigenvalues --   -0.53900  -0.53790  -0.53361  -0.53128  -0.52890
 Alpha  occ. eigenvalues --   -0.52798  -0.52069  -0.51999  -0.50804  -0.50360
 Alpha  occ. eigenvalues --   -0.50224  -0.49936  -0.49220  -0.49127  -0.48850
 Alpha  occ. eigenvalues --   -0.48567  -0.48351  -0.48098  -0.47633  -0.47132
 Alpha  occ. eigenvalues --   -0.47053  -0.45780  -0.44860  -0.44798  -0.42685
 Alpha  occ. eigenvalues --   -0.41185  -0.41081  -0.39006  -0.38103  -0.37990
 Alpha  occ. eigenvalues --   -0.37515  -0.37180  -0.37042  -0.35883  -0.35123
 Alpha  occ. eigenvalues --   -0.34661  -0.34229  -0.33682  -0.33297  -0.32832
 Alpha  occ. eigenvalues --   -0.32495  -0.32161  -0.31770  -0.31728  -0.30946
 Alpha  occ. eigenvalues --   -0.30627  -0.29727  -0.25889  -0.25423
 Alpha virt. eigenvalues --    0.03396   0.03673   0.06625   0.07803   0.09013
 Alpha virt. eigenvalues --    0.09304   0.09715   0.10028   0.10833   0.12639
 Alpha virt. eigenvalues --    0.12717   0.13920   0.14181   0.14237   0.14579
 Alpha virt. eigenvalues --    0.15166   0.16188   0.17536   0.17667   0.17868
 Alpha virt. eigenvalues --    0.18494   0.19115   0.19608   0.20245   0.20607
 Alpha virt. eigenvalues --    0.20714   0.21074   0.21275   0.21635   0.22056
 Alpha virt. eigenvalues --    0.22265   0.22828   0.23251   0.23336   0.24061
 Alpha virt. eigenvalues --    0.24114   0.24338   0.25008   0.25579   0.26012
 Alpha virt. eigenvalues --    0.26360   0.27900   0.28081   0.28298   0.28861
 Alpha virt. eigenvalues --    0.28951   0.29720   0.30205   0.30598   0.30741
 Alpha virt. eigenvalues --    0.31587   0.32087   0.32492   0.33178   0.33511
 Alpha virt. eigenvalues --    0.33805   0.34776   0.35668   0.36037   0.36911
 Alpha virt. eigenvalues --    0.37139   0.37626   0.38034   0.38898   0.39275
 Alpha virt. eigenvalues --    0.40053   0.40317   0.40488   0.41135   0.41525
 Alpha virt. eigenvalues --    0.42130   0.42354   0.42874   0.43787   0.44267
 Alpha virt. eigenvalues --    0.45258   0.46028   0.46331   0.46756   0.46971
 Alpha virt. eigenvalues --    0.47614   0.47965   0.48048   0.48983   0.49194
 Alpha virt. eigenvalues --    0.49512   0.49972   0.50711   0.51270   0.52013
 Alpha virt. eigenvalues --    0.52151   0.52880   0.53070   0.53780   0.53890
 Alpha virt. eigenvalues --    0.54193   0.54476   0.55166   0.55700   0.55963
 Alpha virt. eigenvalues --    0.56316   0.56559   0.56908   0.57625   0.57777
 Alpha virt. eigenvalues --    0.58140   0.58590   0.58767   0.58978   0.59875
 Alpha virt. eigenvalues --    0.60110   0.60605   0.60874   0.61096   0.61597
 Alpha virt. eigenvalues --    0.62310   0.62434   0.62951   0.63295   0.64033
 Alpha virt. eigenvalues --    0.64406   0.64559   0.64838   0.65376   0.65691
 Alpha virt. eigenvalues --    0.66406   0.66692   0.66952   0.67728   0.68192
 Alpha virt. eigenvalues --    0.68548   0.68893   0.69355   0.69795   0.70168
 Alpha virt. eigenvalues --    0.71057   0.71200   0.71404   0.72017   0.72772
 Alpha virt. eigenvalues --    0.72996   0.73179   0.73346   0.74045   0.74630
 Alpha virt. eigenvalues --    0.74888   0.75244   0.75426   0.75926   0.76025
 Alpha virt. eigenvalues --    0.76399   0.76702   0.77030   0.77245   0.77759
 Alpha virt. eigenvalues --    0.78256   0.78598   0.78894   0.79539   0.79644
 Alpha virt. eigenvalues --    0.79895   0.80066   0.80333   0.80956   0.81561
 Alpha virt. eigenvalues --    0.81625   0.81936   0.82711   0.83039   0.83766
 Alpha virt. eigenvalues --    0.83832   0.84279   0.84586   0.84612   0.85334
 Alpha virt. eigenvalues --    0.85809   0.86581   0.86776   0.87382   0.87907
 Alpha virt. eigenvalues --    0.88139   0.88923   0.89279   0.89934   0.90485
 Alpha virt. eigenvalues --    0.90844   0.90996   0.91446   0.92131   0.92620
 Alpha virt. eigenvalues --    0.93300   0.93353   0.93705   0.93986   0.95079
 Alpha virt. eigenvalues --    0.95539   0.96049   0.96250   0.96476   0.96897
 Alpha virt. eigenvalues --    0.97275   0.97995   0.98245   0.99327   1.00392
 Alpha virt. eigenvalues --    1.00589   1.00990   1.01131   1.01732   1.02157
 Alpha virt. eigenvalues --    1.02231   1.02558   1.03255   1.03667   1.04357
 Alpha virt. eigenvalues --    1.05085   1.05303   1.05696   1.06003   1.06270
 Alpha virt. eigenvalues --    1.06822   1.07610   1.08315   1.08802   1.09490
 Alpha virt. eigenvalues --    1.09740   1.10355   1.11009   1.11353   1.12129
 Alpha virt. eigenvalues --    1.12294   1.12504   1.13359   1.13811   1.14761
 Alpha virt. eigenvalues --    1.15043   1.15402   1.15700   1.16032   1.16524
 Alpha virt. eigenvalues --    1.16869   1.17523   1.17867   1.18723   1.18873
 Alpha virt. eigenvalues --    1.19311   1.19523   1.19999   1.20346   1.20572
 Alpha virt. eigenvalues --    1.20649   1.21332   1.21593   1.22010   1.22345
 Alpha virt. eigenvalues --    1.23167   1.23311   1.23598   1.23981   1.24294
 Alpha virt. eigenvalues --    1.24800   1.25010   1.25233   1.26388   1.26773
 Alpha virt. eigenvalues --    1.27376   1.27753   1.28875   1.29345   1.29446
 Alpha virt. eigenvalues --    1.30037   1.30431   1.30952   1.31456   1.32628
 Alpha virt. eigenvalues --    1.33670   1.34071   1.34560   1.35155   1.35348
 Alpha virt. eigenvalues --    1.36644   1.36947   1.37509   1.38440   1.38792
 Alpha virt. eigenvalues --    1.39687   1.39806   1.40315   1.41032   1.41466
 Alpha virt. eigenvalues --    1.42842   1.44069   1.44362   1.44682   1.45769
 Alpha virt. eigenvalues --    1.47296   1.47954   1.48562   1.48794   1.49886
 Alpha virt. eigenvalues --    1.50509   1.50953   1.51689   1.52370   1.52945
 Alpha virt. eigenvalues --    1.53527   1.54627   1.54868   1.55964   1.56202
 Alpha virt. eigenvalues --    1.56455   1.57255   1.57497   1.58769   1.59205
 Alpha virt. eigenvalues --    1.59778   1.59994   1.61144   1.61706   1.62356
 Alpha virt. eigenvalues --    1.62714   1.63752   1.64167   1.64723   1.65055
 Alpha virt. eigenvalues --    1.65322   1.65816   1.66095   1.66972   1.67140
 Alpha virt. eigenvalues --    1.68153   1.68848   1.69184   1.69401   1.70147
 Alpha virt. eigenvalues --    1.70749   1.70974   1.71493   1.71865   1.72056
 Alpha virt. eigenvalues --    1.72516   1.73802   1.74155   1.74271   1.74682
 Alpha virt. eigenvalues --    1.75122   1.75563   1.75964   1.76218   1.76681
 Alpha virt. eigenvalues --    1.77123   1.77267   1.77464   1.77736   1.77824
 Alpha virt. eigenvalues --    1.78333   1.79144   1.79614   1.79935   1.79960
 Alpha virt. eigenvalues --    1.80350   1.80533   1.80933   1.81102   1.81632
 Alpha virt. eigenvalues --    1.82290   1.82469   1.83071   1.83693   1.83844
 Alpha virt. eigenvalues --    1.84056   1.84129   1.84784   1.85088   1.85789
 Alpha virt. eigenvalues --    1.86042   1.86833   1.87458   1.88105   1.88237
 Alpha virt. eigenvalues --    1.88755   1.89178   1.89354   1.89671   1.90429
 Alpha virt. eigenvalues --    1.90707   1.91154   1.91943   1.92333   1.92784
 Alpha virt. eigenvalues --    1.93425   1.93711   1.94184   1.94765   1.95668
 Alpha virt. eigenvalues --    1.96619   1.97643   1.98111   1.98450   1.99055
 Alpha virt. eigenvalues --    1.99606   2.00539   2.01365   2.02088   2.02445
 Alpha virt. eigenvalues --    2.03090   2.03858   2.04669   2.05022   2.05630
 Alpha virt. eigenvalues --    2.05960   2.06649   2.07416   2.07869   2.08387
 Alpha virt. eigenvalues --    2.09201   2.10112   2.10299   2.10817   2.12016
 Alpha virt. eigenvalues --    2.12612   2.13464   2.13619   2.15088   2.16310
 Alpha virt. eigenvalues --    2.16655   2.17269   2.17552   2.18297   2.19913
 Alpha virt. eigenvalues --    2.20575   2.21106   2.21431   2.22131   2.22456
 Alpha virt. eigenvalues --    2.23045   2.23651   2.24159   2.24642   2.24869
 Alpha virt. eigenvalues --    2.25776   2.26120   2.26717   2.27434   2.28051
 Alpha virt. eigenvalues --    2.28776   2.29106   2.29820   2.30560   2.30739
 Alpha virt. eigenvalues --    2.31193   2.32051   2.32673   2.33377   2.33693
 Alpha virt. eigenvalues --    2.33729   2.34267   2.34875   2.35192   2.35940
 Alpha virt. eigenvalues --    2.36236   2.36388   2.37127   2.37846   2.37926
 Alpha virt. eigenvalues --    2.38816   2.39443   2.40189   2.41346   2.41565
 Alpha virt. eigenvalues --    2.42283   2.42648   2.44070   2.44272   2.44849
 Alpha virt. eigenvalues --    2.45152   2.45489   2.45843   2.46940   2.47947
 Alpha virt. eigenvalues --    2.48358   2.49519   2.50781   2.52229   2.52559
 Alpha virt. eigenvalues --    2.54322   2.55445   2.55844   2.56486   2.57412
 Alpha virt. eigenvalues --    2.58160   2.58645   2.59690   2.60366   2.61455
 Alpha virt. eigenvalues --    2.62056   2.63312   2.63940   2.64258   2.65687
 Alpha virt. eigenvalues --    2.65736   2.66500   2.66852   2.67444   2.67576
 Alpha virt. eigenvalues --    2.68797   2.68974   2.69404   2.70009   2.70818
 Alpha virt. eigenvalues --    2.71553   2.71798   2.72349   2.72829   2.73106
 Alpha virt. eigenvalues --    2.74193   2.76057   2.76079   2.76380   2.77492
 Alpha virt. eigenvalues --    2.78025   2.78575   2.79583   2.79784   2.80331
 Alpha virt. eigenvalues --    2.80595   2.80854   2.81107   2.81386   2.82426
 Alpha virt. eigenvalues --    2.82634   2.83465   2.83862   2.84671   2.84916
 Alpha virt. eigenvalues --    2.85543   2.86523   2.86971   2.87170   2.87609
 Alpha virt. eigenvalues --    2.88528   2.89668   2.90057   2.93745   2.94681
 Alpha virt. eigenvalues --    2.95252   2.98412   2.98763   2.99662   3.00248
 Alpha virt. eigenvalues --    3.01501   3.02105   3.03429   3.05688   3.06982
 Alpha virt. eigenvalues --    3.08801   3.09992   3.11178   3.12899   3.15699
 Alpha virt. eigenvalues --    3.16006   3.16367   3.17148   3.18662   3.21176
 Alpha virt. eigenvalues --    3.21584   3.23170   3.24119   3.24529   3.27358
 Alpha virt. eigenvalues --    3.44648   3.47297   3.48593   3.49183   3.51594
 Alpha virt. eigenvalues --    3.53419   3.54599   3.56691   3.58613   3.60637
 Alpha virt. eigenvalues --    3.64243   3.71716   3.75649
          Condensed to atoms (all electrons):
 Mulliken charges:
               1
     1  N   -0.307889
     2  C    0.175714
     3  C    0.070898
     4  N   -0.260059
     5  C    0.141951
     6  H    0.026882
     7  N   -0.283678
     8  C    0.128422
     9  H    0.017070
    10  N   -0.280555
    11  C    0.239128
    12  C    0.077372
    13  N   -0.051663
    14  H    0.110195
    15  H    0.082602
    16  H    0.028688
    17  H    0.029724
    18  H    0.023235
    19  N   -0.285530
    20  C    0.242084
    21  C    0.184455
    22  N   -0.112895
    23  H    0.118796
    24  H    0.116456
    25  N   -0.293090
    26  C    0.218464
    27  N   -0.118290
    28  H    0.111942
    29  C    0.171448
    30  O   -0.321776
    31  C   -0.009399
    32  N   -0.216993
    33  C    0.103923
    34  H    0.017669
    35  H    0.021330
    36  H    0.029569
    37  H    0.021986
    38  H    0.051922
    39  H    0.052882
    40  H    0.073883
    41  H    0.025806
    42  C   -0.102135
    43  O   -0.266913
    44  C    0.172024
    45  H    0.129689
    46  N   -0.116800
    47  O   -0.336941
    48  C    0.332251
    49  H    0.046030
    50  C    0.161725
    51  C    0.066329
    52  N   -0.278601
    53  H    0.037121
    54  H    0.039531
    55  H    0.026248
    56  H    0.122645
    57  H    0.118521
    58  N   -0.058849
    59  C    0.095386
    60  C    0.176551
    61  N   -0.254364
    62  H    0.012864
    63  C    0.174869
    64  N   -0.303249
    65  H    0.035579
    66  C    0.113593
    67  N   -0.246619
    68  C    0.037576
    69  C    0.182174
    70  N   -0.288917
 Sum of Mulliken charges =  -0.00000
 Mulliken charges with hydrogens summed into heavy atoms:
               1
     1  N   -0.307889
     2  C    0.257361
     3  C    0.070898
     4  N   -0.260059
     5  C    0.168834
     7  N   -0.283678
     8  C    0.145492
    10  N   -0.280555
    11  C    0.239128
    12  C    0.077372
    13  N    0.141134
    19  N   -0.285530
    20  C    0.242084
    21  C    0.257341
    22  N    0.122356
    25  N   -0.293090
    26  C    0.218464
    27  N   -0.006348
    29  C    0.171448
    30  O   -0.321776
    31  C   -0.009399
    32  N   -0.216993
    33  C    0.121592
    42  C   -0.076330
    43  O   -0.266913
    44  C    0.172024
    46  N    0.012889
    47  O   -0.336941
    48  C    0.332251
    50  C    0.207755
    51  C    0.245016
    52  N   -0.278601
    58  N    0.182316
    59  C    0.095386
    60  C    0.176551
    61  N   -0.254364
    63  C    0.187733
    64  N   -0.303249
    66  C    0.149172
    67  N   -0.246619
    68  C    0.037576
    69  C    0.285074
    70  N   -0.288917
 Electronic spatial extent (au):  <R**2>=          21715.4091
 Charge=             -0.0000 electrons
 Dipole moment (field-independent basis, Debye):
    X=             -6.6662    Y=              6.9543    Z=             -2.9964  Tot=             10.0886
 Quadrupole moment (field-independent basis, Debye-Ang):
   XX=           -151.4969   YY=           -227.1838   ZZ=           -257.4106
   XY=             -3.4692   XZ=             -7.0656   YZ=             13.7668
 Traceless Quadrupole moment (field-independent basis, Debye-Ang):
   XX=             60.5335   YY=            -15.1534   ZZ=            -45.3801
   XY=             -3.4692   XZ=             -7.0656   YZ=             13.7668
 Octapole moment (field-independent basis, Debye-Ang**2):
  XXX=             95.3508  YYY=            109.6576  ZZZ=             -0.1326  XYY=            -92.8479
  XXY=             89.6924  XXZ=            -10.7782  XZZ=            -36.2967  YZZ=             24.1342
  YYZ=            -64.4078  XYZ=             38.9784
 Hexadecapole moment (field-independent basis, Debye-Ang**3):
 XXXX=         -16004.7367 YYYY=          -4520.4132 ZZZZ=          -3546.2071 XXXY=           -579.1195
 XXXZ=           -255.5782 YYYX=             -3.6141 YYYZ=            124.8922 ZZZX=            -47.2741
 ZZZY=             41.4704 XXYY=          -3460.2687 XXZZ=          -3891.3836 YYZZ=          -1439.3749
 XXYZ=             -3.0987 YYXZ=            148.7410 ZZXY=            -11.8810
 N-N= 5.611472517912D+03 E-N=-1.600352169235D+04  KE= 2.037891399643D+03
 No NMR shielding tensors so no spin-rotation constants.
 Leave Link  601 at Sun Jan 21 11:00:54 2018, MaxMem=  4294967296 cpu:              46.2 elap:               1.6
 (Enter /share/apps/g16/l9999.exe)
 1\1\GINC-COMPUTE-0-3\SP\RwB97XD\CC-pVDZ\C23H27N17O3\SATYA\21-Jan-2018\
 0\\#p wb97xd/cc-pvdz sp scf=(maxcycles=20)\\Base pair stacking\\0,1\N,
 0,1.67196,2.80832,-6.82626\C,0,2.16517,4.19881,-6.79038\C,0,0.41578,1.
 01312,-6.63501\N,0,1.62381,0.58655,-7.16738\C,0,2.33227,1.68516,-7.261
 3\H,0,3.35194,1.73449,-7.6444\N,0,-1.78415,1.0496,-5.78535\C,0,-1.6223
 8,2.36812,-5.63399\H,0,-2.47947,2.89723,-5.21962\N,0,-0.56579,3.1276,-
 5.91631\C,0,0.43053,2.38017,-6.41942\C,0,-0.76325,0.32568,-6.29407\N,0
 ,-0.92282,-0.99062,-6.44591\H,0,-0.19376,-1.56575,-6.81862\H,0,-1.7760
 9,-1.44651,-6.19243\H,0,2.39992,4.49466,-7.71642\H,0,1.45393,4.7961,-6
 .42092\H,0,2.97741,4.25169,-6.20947\N,0,0.51989,3.83466,-3.18061\C,0,-
 0.38701,2.81469,-3.02173\C,0,0.20594,5.27564,-3.10496\N,0,-3.63652,1.7
 453,-2.42271\H,0,-4.12386,0.87635,-2.34103\H,0,-4.1761,2.5803,-2.31159
 \N,0,-1.70669,2.95635,-2.77183\C,0,-2.31868,1.78985,-2.67012\N,0,-1.68
 836,0.57633,-2.80267\H,0,-2.23604,-0.26528,-2.70932\C,0,-0.33154,0.406
 81,-3.05988\O,0,0.13825,-0.73325,-3.16138\C,0,0.33926,1.65115,-3.17176
 \N,0,1.67523,1.93494,-3.41983\C,0,1.73497,3.23902,-3.41606\H,0,2.64346
 ,3.81949,-3.58029\H,0,0.43467,5.71434,-3.97331\H,0,-0.76893,5.39295,-2
 .92021\H,0,0.73638,5.69589,-2.36955\H,0,-5.62583,-4.05443,-2.77535\H,0
 ,-5.10647,-4.27038,-1.10553\H,0,-5.1079,-2.66056,-1.82654\H,0,-1.44913
 ,-6.34752,-3.44132\C,0,-1.81244,-5.34873,-3.19916\O,0,0.24449,-4.27879
 ,-3.70055\C,0,-0.92812,-4.23125,-3.32969\H,0,-0.89354,-2.20056,-3.0778
 3\N,0,-1.48771,-3.01379,-2.9982\O,0,-3.17561,-1.66507,-2.29879\C,0,-2.
 77059,-2.78199,-2.56921\H,0,-3.78124,-5.97058,-2.66723\C,0,-3.06933,-5
 .15443,-2.78311\C,0,-4.94121,-3.71086,-2.01421\N,0,-3.56216,-3.90917,-
 2.46878\H,0,-8.82707,-1.95154,-3.76724\H,0,-7.56899,-1.19993,-3.05001\
 H,0,-8.20206,-2.54832,-2.38281\H,0,-2.44249,-4.32759,-6.70953\H,0,-3.8
 0686,-5.33525,-6.52732\N,0,-3.36601,-4.45516,-6.34761\C,0,-3.98311,-3.
 49497,-5.65594\C,0,-5.78658,-2.54103,-4.43152\N,0,-5.17022,-1.3691,-4.
 20545\H,0,-3.38492,-0.44986,-4.61569\C,0,-3.95626,-1.36699,-4.75244\N,
 0,-3.33639,-2.32768,-5.44557\H,0,-8.15198,-4.7416,-4.31078\C,0,-7.2272
 1,-4.1931,-4.49215\N,0,-6.20048,-4.66279,-5.15765\C,0,-5.27997,-3.6252
 8,-5.12669\C,0,-7.98599,-2.08747,-3.24369\N,0,-7.04535,-2.91458,-4.024
 12\\Version=EM64L-G16RevA.03\State=1-A\HF=-2048.7347299\RMSD=7.192e-09
 \Dipole=-3.9354908,-0.00155,0.5157817\Quadrupole=2.4752267,15.8920798,
 -18.3673064,32.6791503,-20.442801,-0.7148068\PG=C01 [X(C23H27N17O3)]\\
 @


 NATURE GIVES TO EVERY TIME AND SEASON SOME BEAUTY OF ITS OWN.

                                                    --DICKENS
 Job cpu time:       0 days  6 hours 24 minutes 11.3 seconds.
 Elapsed time:       0 days  0 hours 12 minutes 24.1 seconds.
 File lengths (MBytes):  RWF=    298 Int=      0 D2E=      0 Chk=     33 Scr=      1
 Normal termination of Gaussian 16 at Sun Jan 21 11:00:55 2018.
