 Entering Gaussian System, Link 0=g16
 Input=str30.20.-1.5.com
 Output=str30.20.-1.5.log
 Initial command:
 /share/apps/g16/l1.exe "/state/partition1/scr/Gau-8810.inp" -scrdir="/state/partition1/scr/"
 Entering Link 1 = /share/apps/g16/l1.exe PID=      8811.
  
 Copyright (c) 1988,1990,1992,1993,1995,1998,2003,2009,2016,
            Gaussian, Inc.  All Rights Reserved.
  
 This is part of the Gaussian(R) 16 program.  It is based on
 the Gaussian(R) 09 system (copyright 2009, Gaussian, Inc.),
 the Gaussian(R) 03 system (copyright 2003, Gaussian, Inc.),
 the Gaussian(R) 98 system (copyright 1998, Gaussian, Inc.),
 the Gaussian(R) 94 system (copyright 1995, Gaussian, Inc.),
 the Gaussian 92(TM) system (copyright 1992, Gaussian, Inc.),
 the Gaussian 90(TM) system (copyright 1990, Gaussian, Inc.),
 the Gaussian 88(TM) system (copyright 1988, Gaussian, Inc.),
 the Gaussian 86(TM) system (copyright 1986, Carnegie Mellon
 University), and the Gaussian 82(TM) system (copyright 1983,
 Carnegie Mellon University). Gaussian is a federally registered
 trademark of Gaussian, Inc.
  
 This software contains proprietary and confidential information,
 including trade secrets, belonging to Gaussian, Inc.
  
 This software is provided under written license and may be
 used, copied, transmitted, or stored only in accord with that
 written license.
  
 The following legend is applicable only to US Government
 contracts under FAR:
  
                    RESTRICTED RIGHTS LEGEND
  
 Use, reproduction and disclosure by the US Government is
 subject to restrictions as set forth in subparagraphs (a)
 and (c) of the Commercial Computer Software - Restricted
 Rights clause in FAR 52.227-19.
  
 Gaussian, Inc.
 340 Quinnipiac St., Bldg. 40, Wallingford CT 06492
  
  
 ---------------------------------------------------------------
 Warning -- This program may not be used in any manner that
 competes with the business of Gaussian, Inc. or will provide
 assistance to any competitor of Gaussian, Inc.  The licensee
 of this program is prohibited from giving any competitor of
 Gaussian, Inc. access to this program.  By using this program,
 the user acknowledges that Gaussian, Inc. is engaged in the
 business of creating and licensing software in the field of
 computational chemistry and represents and warrants to the
 licensee that it is not a competitor of Gaussian, Inc. and that
 it will not use this program in any manner prohibited above.
 ---------------------------------------------------------------
  

 Cite this work as:
 Gaussian 16, Revision A.03,
 M. J. Frisch, G. W. Trucks, H. B. Schlegel, G. E. Scuseria, 
 M. A. Robb, J. R. Cheeseman, G. Scalmani, V. Barone, 
 G. A. Petersson, H. Nakatsuji, X. Li, M. Caricato, A. V. Marenich, 
 J. Bloino, B. G. Janesko, R. Gomperts, B. Mennucci, H. P. Hratchian, 
 J. V. Ortiz, A. F. Izmaylov, J. L. Sonnenberg, D. Williams-Young, 
 F. Ding, F. Lipparini, F. Egidi, J. Goings, B. Peng, A. Petrone, 
 T. Henderson, D. Ranasinghe, V. G. Zakrzewski, J. Gao, N. Rega, 
 G. Zheng, W. Liang, M. Hada, M. Ehara, K. Toyota, R. Fukuda, 
 J. Hasegawa, M. Ishida, T. Nakajima, Y. Honda, O. Kitao, H. Nakai, 
 T. Vreven, K. Throssell, J. A. Montgomery, Jr., J. E. Peralta, 
 F. Ogliaro, M. J. Bearpark, J. J. Heyd, E. N. Brothers, K. N. Kudin, 
 V. N. Staroverov, T. A. Keith, R. Kobayashi, J. Normand, 
 K. Raghavachari, A. P. Rendell, J. C. Burant, S. S. Iyengar, 
 J. Tomasi, M. Cossi, J. M. Millam, M. Klene, C. Adamo, R. Cammi, 
 J. W. Ochterski, R. L. Martin, K. Morokuma, O. Farkas, 
 J. B. Foresman, and D. J. Fox, Gaussian, Inc., Wallingford CT, 2016.
 
 ******************************************
 Gaussian 16:  EM64L-G16RevA.03 25-Dec-2016
                21-Jan-2018 
 ******************************************
 %nprocshared=32
 Will use up to   32 processors via shared memory.
 %mem=32GB
 %chk=allatoms_t.chk
 ---------------------------------------
 #p wb97xd/cc-pvdz sp scf=(maxcycles=20)
 ---------------------------------------
 1/38=1,172=1/1;
 2/12=2,17=6,18=5,40=1/2;
 3/5=16,11=2,25=1,30=1,74=-58/1,2,3;
 4//1;
 5/5=2,7=20,38=5/2;
 6/7=2,8=2,9=2,10=2,28=1/1;
 99/5=1,9=1/99;
 Leave Link    1 at Sun Jan 21 16:10:45 2018, MaxMem=  4294967296 cpu:               7.4 elap:               0.2
 (Enter /share/apps/g16/l101.exe)
 ------------------
 Base pair stacking
 ------------------
 Symbolic Z-matrix:
 Charge =  0 Multiplicity = 1
 N                     7.54951   5.91639  -4.5348 
 C                     8.18274   7.22843  -4.77052 
 C                     6.19318   4.18691  -4.61593 
 N                     7.18128   3.86247  -3.6977 
 C                     7.95886   4.9174   -3.68558 
 H                     8.85303   5.0215   -3.07029 
 N                     4.28504   4.09426  -5.99916 
 C                     4.61942   5.32082  -6.41306 
 H                     3.95164   5.76009  -7.15291 
 N                     5.65      6.08266  -6.05194 
 C                     6.40681   5.44983  -5.14025 
 C                     5.06668   3.48456  -5.08135 
 N                     4.73454   2.26017  -4.66696 
 H                     5.2842    1.77107  -3.98882 
 H                     3.9254    1.79029  -5.02003 
 H                     9.11347   7.0945   -5.11109 
 H                     7.65184   7.73902  -5.44622 
 H                     8.21392   7.74444  -3.91451 
 N                     2.18944   6.19863  -3.1684 
 C                     1.29312   5.17807  -3.3761 
 C                     1.95064   7.62166  -3.4825 
 N                    -1.81543   4.08101  -4.46929 
 H                    -2.30986   3.21491  -4.53758 
 H                    -2.29125   4.9014   -4.78752 
 N                     0.05365   5.3028   -3.89781 
 C                    -0.57026   4.14063  -3.97341 
 N                    -0.0239    2.94652  -3.56953 
 H                    -0.57417   2.10679  -3.66449 
 C                     1.24952   2.79465  -3.0299 
 O                     1.64734   1.67139  -2.69707 
 C                     1.932     4.03459  -2.94242 
 N                     3.20381   4.33129  -2.47193 
 C                     3.31214   5.62318  -2.62523 
 H                     4.19244   6.2086   -2.3576 
 H                     2.62955   7.93705  -4.14464 
 H                     1.03552   7.72633  -3.86962 
 H                     2.02225   8.16566  -2.64719 
 H                    -3.5692   -1.78151  -4.9925 
 H                    -4.03766  -1.72986  -3.2947 
 H                    -3.57785  -0.24438  -4.12734 
 H                     0.20174  -3.98134  -2.97078 
 C                    -0.18836  -2.97292  -3.1091 
 O                     1.86302  -1.90793  -2.57549 
 C                     0.67821  -1.85272  -2.90408 
 H                     0.66564   0.19273  -2.96978 
 N                     0.08485  -0.62279  -3.10522 
 O                    -1.65054   0.7464   -3.6257 
 C                    -1.21559  -0.38128  -3.47138 
 H                    -2.16125  -3.58708  -3.63477 
 C                    -1.46168  -2.76935  -3.46663 
 C                    -3.38503  -1.30346  -4.04192 
 N                    -1.98829  -1.51184  -3.65019 
 H                    -2.12918   0.8252   -9.29362 
 H                    -1.75769   2.1043   -8.35129 
 H                    -3.00302   1.12886  -7.94915 
 H                     3.15936  -1.05361  -4.43904 
 H                     1.96216  -2.14693  -4.96959 
 N                     2.31542  -1.21092  -4.95204 
 C                     1.68819  -0.21737  -5.58497 
 C                    -0.03274   0.73976  -6.92066 
 N                     0.4647    1.98689  -6.87989 
 H                     2.05543   2.99789  -6.07485 
 C                     1.58408   2.01967  -6.1596 
 N                     2.21389   1.02565  -5.52489 
 H                    -2.08083  -1.63241  -7.71457 
 C                    -1.26123  -1.0327   -7.31765 
 N                    -0.28594  -1.50047  -6.57759 
 C                     0.50012  -0.38695  -6.31891 
 C                    -2.08849   1.16107  -8.35259 
 N                    -1.17094   0.31551  -7.56447 
 
 ITRead=  0  0  0  0  0  0  0  0  0  0  0  0  0  0  0  0  0  0  0  0
 ITRead=  0  0  0  0  0  0  0  0  0  0  0  0  0  0  0  0  0  0  0  0
 ITRead=  0  0  0  0  0  0  0  0  0  0  0  0  0  0  0  0  0  0  0  0
 ITRead=  0  0  0  0  0  0  0  0  0  0
 MicOpt= -1 -1 -1 -1 -1 -1 -1 -1 -1 -1 -1 -1 -1 -1 -1 -1 -1 -1 -1 -1
 MicOpt= -1 -1 -1 -1 -1 -1 -1 -1 -1 -1 -1 -1 -1 -1 -1 -1 -1 -1 -1 -1
 MicOpt= -1 -1 -1 -1 -1 -1 -1 -1 -1 -1 -1 -1 -1 -1 -1 -1 -1 -1 -1 -1
 MicOpt= -1 -1 -1 -1 -1 -1 -1 -1 -1 -1
 NAtoms=     70 NQM=       70 NQMF=       0 NMMI=      0 NMMIF=      0
                NMic=       0 NMicF=      0.
                    Isotopes and Nuclear Properties:
 (Nuclear quadrupole moments (NQMom) in fm**2, nuclear magnetic moments (NMagM)
  in nuclear magnetons)

  Atom         1           2           3           4           5           6           7           8           9          10
 IAtWgt=          14          12          12          14          12           1          14          12           1          14
 AtmWgt=  14.0030740  12.0000000  12.0000000  14.0030740  12.0000000   1.0078250  14.0030740  12.0000000   1.0078250  14.0030740
 NucSpn=           2           0           0           2           0           1           2           0           1           2
 AtZEff=  -0.0000000  -0.0000000  -0.0000000  -0.0000000  -0.0000000  -0.0000000  -0.0000000  -0.0000000  -0.0000000  -0.0000000
 NQMom=    2.0440000   0.0000000   0.0000000   2.0440000   0.0000000   0.0000000   2.0440000   0.0000000   0.0000000   2.0440000
 NMagM=    0.4037610   0.0000000   0.0000000   0.4037610   0.0000000   2.7928460   0.4037610   0.0000000   2.7928460   0.4037610
 AtZNuc=   7.0000000   6.0000000   6.0000000   7.0000000   6.0000000   1.0000000   7.0000000   6.0000000   1.0000000   7.0000000

  Atom        11          12          13          14          15          16          17          18          19          20
 IAtWgt=          12          12          14           1           1           1           1           1          14          12
 AtmWgt=  12.0000000  12.0000000  14.0030740   1.0078250   1.0078250   1.0078250   1.0078250   1.0078250  14.0030740  12.0000000
 NucSpn=           0           0           2           1           1           1           1           1           2           0
 AtZEff=  -0.0000000  -0.0000000  -0.0000000  -0.0000000  -0.0000000  -0.0000000  -0.0000000  -0.0000000  -0.0000000  -0.0000000
 NQMom=    0.0000000   0.0000000   2.0440000   0.0000000   0.0000000   0.0000000   0.0000000   0.0000000   2.0440000   0.0000000
 NMagM=    0.0000000   0.0000000   0.4037610   2.7928460   2.7928460   2.7928460   2.7928460   2.7928460   0.4037610   0.0000000
 AtZNuc=   6.0000000   6.0000000   7.0000000   1.0000000   1.0000000   1.0000000   1.0000000   1.0000000   7.0000000   6.0000000

  Atom        21          22          23          24          25          26          27          28          29          30
 IAtWgt=          12          14           1           1          14          12          14           1          12          16
 AtmWgt=  12.0000000  14.0030740   1.0078250   1.0078250  14.0030740  12.0000000  14.0030740   1.0078250  12.0000000  15.9949146
 NucSpn=           0           2           1           1           2           0           2           1           0           0
 AtZEff=  -0.0000000  -0.0000000  -0.0000000  -0.0000000  -0.0000000  -0.0000000  -0.0000000  -0.0000000  -0.0000000  -0.0000000
 NQMom=    0.0000000   2.0440000   0.0000000   0.0000000   2.0440000   0.0000000   2.0440000   0.0000000   0.0000000   0.0000000
 NMagM=    0.0000000   0.4037610   2.7928460   2.7928460   0.4037610   0.0000000   0.4037610   2.7928460   0.0000000   0.0000000
 AtZNuc=   6.0000000   7.0000000   1.0000000   1.0000000   7.0000000   6.0000000   7.0000000   1.0000000   6.0000000   8.0000000

  Atom        31          32          33          34          35          36          37          38          39          40
 IAtWgt=          12          14          12           1           1           1           1           1           1           1
 AtmWgt=  12.0000000  14.0030740  12.0000000   1.0078250   1.0078250   1.0078250   1.0078250   1.0078250   1.0078250   1.0078250
 NucSpn=           0           2           0           1           1           1           1           1           1           1
 AtZEff=  -0.0000000  -0.0000000  -0.0000000  -0.0000000  -0.0000000  -0.0000000  -0.0000000  -0.0000000  -0.0000000  -0.0000000
 NQMom=    0.0000000   2.0440000   0.0000000   0.0000000   0.0000000   0.0000000   0.0000000   0.0000000   0.0000000   0.0000000
 NMagM=    0.0000000   0.4037610   0.0000000   2.7928460   2.7928460   2.7928460   2.7928460   2.7928460   2.7928460   2.7928460
 AtZNuc=   6.0000000   7.0000000   6.0000000   1.0000000   1.0000000   1.0000000   1.0000000   1.0000000   1.0000000   1.0000000

  Atom        41          42          43          44          45          46          47          48          49          50
 IAtWgt=           1          12          16          12           1          14          16          12           1          12
 AtmWgt=   1.0078250  12.0000000  15.9949146  12.0000000   1.0078250  14.0030740  15.9949146  12.0000000   1.0078250  12.0000000
 NucSpn=           1           0           0           0           1           2           0           0           1           0
 AtZEff=  -0.0000000  -0.0000000  -0.0000000  -0.0000000  -0.0000000  -0.0000000  -0.0000000  -0.0000000  -0.0000000  -0.0000000
 NQMom=    0.0000000   0.0000000   0.0000000   0.0000000   0.0000000   2.0440000   0.0000000   0.0000000   0.0000000   0.0000000
 NMagM=    2.7928460   0.0000000   0.0000000   0.0000000   2.7928460   0.4037610   0.0000000   0.0000000   2.7928460   0.0000000
 AtZNuc=   1.0000000   6.0000000   8.0000000   6.0000000   1.0000000   7.0000000   8.0000000   6.0000000   1.0000000   6.0000000

  Atom        51          52          53          54          55          56          57          58          59          60
 IAtWgt=          12          14           1           1           1           1           1          14          12          12
 AtmWgt=  12.0000000  14.0030740   1.0078250   1.0078250   1.0078250   1.0078250   1.0078250  14.0030740  12.0000000  12.0000000
 NucSpn=           0           2           1           1           1           1           1           2           0           0
 AtZEff=  -0.0000000  -0.0000000  -0.0000000  -0.0000000  -0.0000000  -0.0000000  -0.0000000  -0.0000000  -0.0000000  -0.0000000
 NQMom=    0.0000000   2.0440000   0.0000000   0.0000000   0.0000000   0.0000000   0.0000000   2.0440000   0.0000000   0.0000000
 NMagM=    0.0000000   0.4037610   2.7928460   2.7928460   2.7928460   2.7928460   2.7928460   0.4037610   0.0000000   0.0000000
 AtZNuc=   6.0000000   7.0000000   1.0000000   1.0000000   1.0000000   1.0000000   1.0000000   7.0000000   6.0000000   6.0000000

  Atom        61          62          63          64          65          66          67          68          69          70
 IAtWgt=          14           1          12          14           1          12          14          12          12          14
 AtmWgt=  14.0030740   1.0078250  12.0000000  14.0030740   1.0078250  12.0000000  14.0030740  12.0000000  12.0000000  14.0030740
 NucSpn=           2           1           0           2           1           0           2           0           0           2
 AtZEff=  -0.0000000  -0.0000000  -0.0000000  -0.0000000  -0.0000000  -0.0000000  -0.0000000  -0.0000000  -0.0000000  -0.0000000
 NQMom=    2.0440000   0.0000000   0.0000000   2.0440000   0.0000000   0.0000000   2.0440000   0.0000000   0.0000000   2.0440000
 NMagM=    0.4037610   2.7928460   0.0000000   0.4037610   2.7928460   0.0000000   0.4037610   0.0000000   0.0000000   0.4037610
 AtZNuc=   7.0000000   1.0000000   6.0000000   7.0000000   1.0000000   6.0000000   7.0000000   6.0000000   6.0000000   7.0000000
 Leave Link  101 at Sun Jan 21 16:10:45 2018, MaxMem=  4294967296 cpu:               5.5 elap:               0.2
 (Enter /share/apps/g16/l202.exe)
 Stoichiometry    C23H27N17O3
 Framework group  C1[X(C23H27N17O3)]
 Deg. of freedom   204
 Full point group                 C1      NOp   1
 Largest Abelian subgroup         C1      NOp   1
 Largest concise Abelian subgroup C1      NOp   1
                         Standard orientation:                         
 ---------------------------------------------------------------------
 Center     Atomic      Atomic             Coordinates (Angstroms)
 Number     Number       Type             X           Y           Z
 ---------------------------------------------------------------------
      1          7           0       -6.688484   -1.355081    0.262306
      2          6           0       -8.042638   -0.846053    0.554109
      3          6           0       -4.510710   -1.662454    0.250696
      4          7           0       -5.037790   -2.586242   -0.640119
      5          6           0       -6.328712   -2.364083   -0.597464
      6          1           0       -7.071622   -2.911965   -1.177868
      7          7           0       -3.011949   -0.399477    1.562760
      8          6           0       -4.083913    0.255948    2.019799
      9          1           0       -3.874815    1.039635    2.746696
     10          7           0       -5.369357    0.089439    1.715152
     11          6           0       -5.516064   -0.896520    0.814721
     12          6           0       -3.192819   -1.385989    0.657691
     13          7           0       -2.123992   -2.041403    0.200298
     14          1           0       -2.210827   -2.778850   -0.470411
     15          1           0       -1.200519   -1.817759    0.512280
     16          1           0       -8.605629   -1.585353    0.923785
     17          1           0       -7.984300   -0.106116    1.223599
     18          1           0       -8.459445   -0.500489   -0.286634
     19          7           0       -3.081864    2.553294   -1.284935
     20          6           0       -1.720707    2.439313   -1.135505
     21          6           0       -3.881251    3.746864   -0.942779
     22          7           0        1.325490    3.807687   -0.181604
     23          1           0        2.284162    3.525913   -0.153251
     24          1           0        1.114185    4.730820    0.140718
     25          7           0       -0.891511    3.390869   -0.654879
     26          6           0        0.365699    2.985292   -0.631456
     27          7           0        0.781166    1.743262   -1.046516
     28          1           0        1.762968    1.519341   -0.992811
     29          6           0       -0.054478    0.748511   -1.544547
     30          8           0        0.422035   -0.339116   -1.892043
     31          6           0       -1.408230    1.169538   -1.575757
     32          7           0       -2.550221    0.499826   -1.993172
     33          6           0       -3.515876    1.357427   -1.802783
     34          1           0       -4.566882    1.168321   -2.023904
     35          1           0       -4.559905    3.507931   -0.249122
     36          1           0       -3.277668    4.458496   -0.585668
     37          1           0       -4.345660    4.084731   -1.760689
     38          1           0        6.669726    0.797342    0.127519
     39          1           0        6.897753    1.149173   -1.583874
     40          1           0        5.574377    1.906899   -0.697368
     41          1           0        5.388222   -3.413074   -1.815864
     42          6           0        4.977199   -2.414756   -1.665388
     43          8           0        2.739056   -3.070716   -2.098441
     44          6           0        3.568617   -2.208289   -1.810616
     45          1           0        2.164626   -0.723969   -1.692530
     46          7           0        3.153413   -0.909053   -1.598836
     47          8           0        3.478369    1.283543   -1.104786
     48          6           0        3.938941    0.168052   -1.272746
     49          1           0        6.846382   -1.488060   -1.225835
     50          6           0        5.769079   -1.383850   -1.347942
     51          6           0        6.164880    1.009004   -0.803278
     52          7           0        5.285936   -0.111061   -1.150653
     53          1           0        4.014633    1.705007    4.542816
     54          1           0        2.820702    2.364702    3.647597
     55          1           0        4.375578    2.521454    3.176603
     56          1           0        1.294705   -3.341625   -0.168769
     57          1           0        2.936990   -3.297785    0.290685
     58          7           0        2.033823   -2.867508    0.309842
     59          6           0        1.825386   -1.712773    0.945688
     60          6           0        2.460544    0.177378    2.244021
     61          7           0        1.237141    0.732036    2.253122
     62          1           0       -0.643566    0.354634    1.531222
     63          6           0        0.376806   -0.023895    1.573935
     64          7           0        0.583633   -1.180767    0.936390
     65          1           0        5.612468   -0.110192    2.903439
     66          6           0        4.589686   -0.247700    2.551376
     67          7           0        4.178782   -1.264949    1.834401
     68          6           0        2.830492   -1.007846    1.632547
     69          6           0        3.711981    1.913566    3.612812
     70          7           0        3.602100    0.663561    2.836014
 ---------------------------------------------------------------------
 Rotational constants (GHZ):           0.1483456           0.0507426           0.0478600
 Leave Link  202 at Sun Jan 21 16:10:45 2018, MaxMem=  4294967296 cpu:               0.3 elap:               0.0
 (Enter /share/apps/g16/l301.exe)
 Standard basis: CC-pVDZ (5D, 7F)
 Ernie: Thresh=  0.10000D-02 Tol=  0.10000D-05 Strict=F.
 Ernie:  86 primitive shells out of 1081 were deleted.
 There are   780 symmetry adapted cartesian basis functions of A   symmetry.
 There are   737 symmetry adapted basis functions of A   symmetry.
   737 basis functions,  1608 primitive gaussians,   780 cartesian basis functions
   154 alpha electrons      154 beta electrons
       nuclear repulsion energy      5458.0197581563 Hartrees.
 IExCor= 4639 DFT=T Ex+Corr=wB97XD ExCW=0 ScaHFX=  1.000000
 ScaDFX=  1.000000  1.000000  1.000000  1.000000 ScalE2=  1.000000  1.000000
 IRadAn=      5 IRanWt=     -1 IRanGd=            0 ICorTp=0 IEmpDi=121
 HFx  wShort=  0.000000 wLong=  0.200000 cFull=  0.222036 cShort=  0.000000 cLong=  0.777964
 DFx  wShort=  0.000000 wLong=  0.200000 cFull=  0.000000 cShort=  0.000000 cLong=  1.000000
 NAtoms=   70 NActive=   70 NUniq=   70 SFac= 1.00D+00 NAtFMM=   60 NAOKFM=T Big=T
 Integral buffers will be    131072 words long.
 Raffenetti 2 integral format.
 Two-electron integral symmetry is turned on.
 R6Disp:  Grimme-D2 Dispersion energy=       -0.0676130419 Hartrees.
 Nuclear repulsion after empirical dispersion term =     5457.9521451144 Hartrees.
 Leave Link  301 at Sun Jan 21 16:10:45 2018, MaxMem=  4294967296 cpu:               2.1 elap:               0.1
 (Enter /share/apps/g16/l302.exe)
 NPDir=0 NMtPBC=     1 NCelOv=     1 NCel=       1 NClECP=     1 NCelD=      1
         NCelK=      1 NCelE2=     1 NClLst=     1 CellRange=     0.0.
 One-electron integrals computed using PRISM.
 One-electron integral symmetry used in STVInt
 NBasis=   737 RedAO= T EigKep=  7.14D-04  NBF=   737
 NBsUse=   737 1.00D-06 EigRej= -1.00D+00 NBFU=   737
 Precomputing XC quadrature grid using
 IXCGrd= 4 IRadAn=           5 IRanWt=          -1 IRanGd=           0 AccXCQ= 0.00D+00.
 Generated NRdTot=       0 NPtTot=           0 NUsed=           0 NTot=          32
 NSgBfM=   764   764   764   764   764 MxSgAt=    70 MxSgA2=    70.
 Leave Link  302 at Sun Jan 21 16:10:49 2018, MaxMem=  4294967296 cpu:             134.3 elap:               4.2
 (Enter /share/apps/g16/l303.exe)
 DipDrv:  MaxL=1.
 Leave Link  303 at Sun Jan 21 16:10:50 2018, MaxMem=  4294967296 cpu:              12.4 elap:               0.4
 (Enter /share/apps/g16/l401.exe)
 ExpMin= 1.22D-01 ExpMax= 1.17D+04 ExpMxC= 4.01D+02 IAcc=3 IRadAn=         5 AccDes= 0.00D+00
 Harris functional with IExCor= 4639 and IRadAn=       5 diagonalized for initial guess.
 HarFok:  IExCor= 4639 AccDes= 0.00D+00 IRadAn=         5 IDoV= 1 UseB2=F ITyADJ=14
 ICtDFT=  3500011 ScaDFX=  1.000000  1.000000  1.000000  1.000000
 FoFCou: FMM=F IPFlag=           0 FMFlag=      100000 FMFlg1=        2001
         NFxFlg=           0 DoJE=T BraDBF=F KetDBF=T FulRan=T
         wScrn=  0.000000 ICntrl=       500 IOpCl=  0 I1Cent=   200000004 NGrid=           0
         NMat0=    1 NMatS0=      1 NMatT0=    0 NMatD0=    1 NMtDS0=    0 NMtDT0=    0
 Petite list used in FoFCou.
 Harris En= -1963.87401549851    
 JPrj=0 DoOrth=F DoCkMO=F.
 Leave Link  401 at Sun Jan 21 16:11:02 2018, MaxMem=  4294967296 cpu:             392.5 elap:              12.3
 (Enter /share/apps/g16/l502.exe)
 Integral symmetry usage will be decided dynamically.
 Closed shell SCF:
 Using DIIS extrapolation, IDIIS=  1040.
 NGot=  4294967296 LenX=  4293717438 LenY=  4293108258
 Requested convergence on RMS density matrix=1.00D-08 within  20 cycles.
 Requested convergence on MAX density matrix=1.00D-06.
 Requested convergence on             energy=1.00D-06.
 No special actions if energy rises.
 Fock matrices will be formed incrementally for  20 cycles.
 Integral accuracy reduced to 1.0D-05 until final iterations.

 Cycle   1  Pass 0  IDiag  1:
 FoFJK:  IHMeth= 1 ICntrl=       0 DoSepK=T KAlg= 0 I1Cent=           0 FoldK=F
 IRaf=         1 NMat=       1 IRICut=       1 DoRegI=T DoRafI=F ISym2E= 0 IDoP0=0 IntGTp=1.
 FoFCou: FMM=T IPFlag=           0 FMFlag=      100000 FMFlg1=        2001
         NFxFlg=           0 DoJE=T BraDBF=F KetDBF=F FulRan=T
         wScrn=  0.000000 ICntrl=       500 IOpCl=  0 I1Cent=           0 NGrid=           0
         NMat0=    1 NMatS0=      1 NMatT0=    0 NMatD0=    1 NMtDS0=    0 NMtDT0=    0
 Symmetry not used in FoFCou.
 FMM levels:  10  Number of levels for PrismC:   9
 E= -2048.30946402158    
 DIIS: error= 2.53D-02 at cycle   1 NSaved=   1.
 NSaved= 1 IEnMin= 1 EnMin= -2048.30946402158     IErMin= 1 ErrMin= 2.53D-02
 ErrMax= 2.53D-02  0.00D+00 EMaxC= 1.00D-01 BMatC= 8.32D-01 BMatP= 8.32D-01
 IDIUse=3 WtCom= 7.47D-01 WtEn= 2.53D-01
 Coeff-Com:  0.100D+01
 Coeff-En:   0.100D+01
 Coeff:      0.100D+01
 Gap=     0.253 Goal=   None    Shift=    0.000
 GapD=    0.253 DampG=1.000 DampE=0.500 DampFc=0.5000 IDamp=-1.
 Damping current iteration by 5.00D-01
 RMSDP=1.57D-03 MaxDP=1.29D-01              OVMax= 1.75D-01

 Cycle   2  Pass 0  IDiag  1:
 RMSU=  7.82D-04    CP:  9.98D-01
 E= -2048.50555891692     Delta-E=       -0.196094895345 Rises=F Damp=T
 DIIS: error= 1.39D-02 at cycle   2 NSaved=   2.
 NSaved= 2 IEnMin= 2 EnMin= -2048.50555891692     IErMin= 2 ErrMin= 1.39D-02
 ErrMax= 1.39D-02  0.00D+00 EMaxC= 1.00D-01 BMatC= 1.44D-01 BMatP= 8.32D-01
 IDIUse=3 WtCom= 8.61D-01 WtEn= 1.39D-01
 Coeff-Com: -0.196D+00 0.120D+01
 Coeff-En:   0.000D+00 0.100D+01
 Coeff:     -0.169D+00 0.117D+01
 Gap=     0.366 Goal=   None    Shift=    0.000
 RMSDP=5.86D-04 MaxDP=3.31D-02 DE=-1.96D-01 OVMax= 1.52D-01

 Cycle   3  Pass 0  IDiag  1:
 RMSU=  5.76D-04    CP:  9.94D-01  1.13D+00
 E= -2048.68465467753     Delta-E=       -0.179095760602 Rises=F Damp=F
 DIIS: error= 6.27D-03 at cycle   3 NSaved=   3.
 NSaved= 3 IEnMin= 3 EnMin= -2048.68465467753     IErMin= 3 ErrMin= 6.27D-03
 ErrMax= 6.27D-03  0.00D+00 EMaxC= 1.00D-01 BMatC= 6.24D-02 BMatP= 1.44D-01
 IDIUse=3 WtCom= 9.37D-01 WtEn= 6.27D-02
 Coeff-Com: -0.230D+00 0.547D+00 0.684D+00
 Coeff-En:   0.000D+00 0.000D+00 0.100D+01
 Coeff:     -0.216D+00 0.512D+00 0.703D+00
 Gap=     0.277 Goal=   None    Shift=    0.000
 RMSDP=3.55D-04 MaxDP=3.17D-02 DE=-1.79D-01 OVMax= 5.70D-02

 Cycle   4  Pass 0  IDiag  1:
 RMSU=  2.04D-04    CP:  9.94D-01  1.41D+00  6.72D-01
 E= -2048.73238679766     Delta-E=       -0.047732120133 Rises=F Damp=F
 DIIS: error= 2.57D-03 at cycle   4 NSaved=   4.
 NSaved= 4 IEnMin= 4 EnMin= -2048.73238679766     IErMin= 4 ErrMin= 2.57D-03
 ErrMax= 2.57D-03  0.00D+00 EMaxC= 1.00D-01 BMatC= 8.71D-03 BMatP= 6.24D-02
 IDIUse=3 WtCom= 9.74D-01 WtEn= 2.57D-02
 Coeff-Com: -0.967D-01 0.187D+00 0.375D+00 0.534D+00
 Coeff-En:   0.000D+00 0.000D+00 0.561D-01 0.944D+00
 Coeff:     -0.943D-01 0.183D+00 0.367D+00 0.544D+00
 Gap=     0.281 Goal=   None    Shift=    0.000
 RMSDP=1.25D-04 MaxDP=1.08D-02 DE=-4.77D-02 OVMax= 1.35D-02

 Cycle   5  Pass 0  IDiag  1:
 RMSU=  6.01D-05    CP:  9.94D-01  1.39D+00  8.03D-01  6.22D-01
 E= -2048.73964487135     Delta-E=       -0.007258073692 Rises=F Damp=F
 DIIS: error= 4.20D-04 at cycle   5 NSaved=   5.
 NSaved= 5 IEnMin= 5 EnMin= -2048.73964487135     IErMin= 5 ErrMin= 4.20D-04
 ErrMax= 4.20D-04  0.00D+00 EMaxC= 1.00D-01 BMatC= 2.87D-04 BMatP= 8.71D-03
 IDIUse=3 WtCom= 9.96D-01 WtEn= 4.20D-03
 Coeff-Com: -0.252D-01 0.433D-01 0.120D+00 0.239D+00 0.623D+00
 Coeff-En:   0.000D+00 0.000D+00 0.000D+00 0.000D+00 0.100D+01
 Coeff:     -0.251D-01 0.432D-01 0.119D+00 0.238D+00 0.624D+00
 Gap=     0.282 Goal=   None    Shift=    0.000
 RMSDP=2.65D-05 MaxDP=1.84D-03 DE=-7.26D-03 OVMax= 2.89D-03

 Failed to achieve initial convergence to 1.0D-08 in  6 cycles.
 Switch to full accuracy anyway.
 Cycle   6  Pass 1  IDiag  1:
 E= -2048.73984759927     Delta-E=       -0.000202727922 Rises=F Damp=F
 DIIS: error= 2.43D-04 at cycle   1 NSaved=   1.
 NSaved= 1 IEnMin= 1 EnMin= -2048.73984759927     IErMin= 1 ErrMin= 2.43D-04
 ErrMax= 2.43D-04  0.00D+00 EMaxC= 1.00D-01 BMatC= 7.28D-05 BMatP= 7.28D-05
 IDIUse=3 WtCom= 9.98D-01 WtEn= 2.43D-03
 Coeff-Com:  0.100D+01
 Coeff-En:   0.100D+01
 Coeff:      0.100D+01
 Gap=     0.282 Goal=   None    Shift=    0.000
 RMSDP=2.65D-05 MaxDP=1.84D-03 DE=-2.03D-04 OVMax= 2.33D-03

 Cycle   7  Pass 1  IDiag  1:
 RMSU=  1.11D-04    CP:  1.00D+00
 E= -2048.73990367865     Delta-E=       -0.000056079375 Rises=F Damp=F
 DIIS: error= 1.69D-04 at cycle   2 NSaved=   2.
 NSaved= 2 IEnMin= 2 EnMin= -2048.73990367865     IErMin= 2 ErrMin= 1.69D-04
 ErrMax= 1.69D-04  0.00D+00 EMaxC= 1.00D-01 BMatC= 4.14D-05 BMatP= 7.28D-05
 IDIUse=3 WtCom= 9.98D-01 WtEn= 1.69D-03
 Coeff-Com:  0.405D+00 0.595D+00
 Coeff-En:   0.000D+00 0.100D+01
 Coeff:      0.404D+00 0.596D+00
 Gap=     0.282 Goal=   None    Shift=    0.000
 RMSDP=1.14D-05 MaxDP=1.06D-03 DE=-5.61D-05 OVMax= 1.36D-03

 Cycle   8  Pass 1  IDiag  1:
 RMSU=  1.10D-05    CP:  1.00D+00  1.03D+00
 E= -2048.73993352966     Delta-E=       -0.000029851009 Rises=F Damp=F
 DIIS: error= 1.03D-04 at cycle   3 NSaved=   3.
 NSaved= 3 IEnMin= 3 EnMin= -2048.73993352966     IErMin= 3 ErrMin= 1.03D-04
 ErrMax= 1.03D-04  0.00D+00 EMaxC= 1.00D-01 BMatC= 1.00D-05 BMatP= 4.14D-05
 IDIUse=3 WtCom= 9.99D-01 WtEn= 1.03D-03
 Coeff-Com: -0.206D-01 0.317D+00 0.704D+00
 Coeff-En:   0.000D+00 0.137D+00 0.863D+00
 Coeff:     -0.206D-01 0.316D+00 0.704D+00
 Gap=     0.282 Goal=   None    Shift=    0.000
 RMSDP=5.61D-06 MaxDP=4.30D-04 DE=-2.99D-05 OVMax= 4.93D-04

 Cycle   9  Pass 1  IDiag  1:
 RMSU=  3.80D-06    CP:  1.00D+00  1.05D+00  7.63D-01
 E= -2048.73994294454     Delta-E=       -0.000009414879 Rises=F Damp=F
 DIIS: error= 2.14D-05 at cycle   4 NSaved=   4.
 NSaved= 4 IEnMin= 4 EnMin= -2048.73994294454     IErMin= 4 ErrMin= 2.14D-05
 ErrMax= 2.14D-05  0.00D+00 EMaxC= 1.00D-01 BMatC= 4.84D-07 BMatP= 1.00D-05
 IDIUse=1 WtCom= 1.00D+00 WtEn= 0.00D+00
 Coeff-Com: -0.310D-01 0.846D-01 0.255D+00 0.691D+00
 Coeff:     -0.310D-01 0.846D-01 0.255D+00 0.691D+00
 Gap=     0.282 Goal=   None    Shift=    0.000
 RMSDP=1.46D-06 MaxDP=1.35D-04 DE=-9.41D-06 OVMax= 4.50D-04

 Cycle  10  Pass 1  IDiag  1:
 RMSU=  1.29D-06    CP:  1.00D+00  1.06D+00  7.99D-01  1.11D+00
 E= -2048.73994378223     Delta-E=       -0.000000837689 Rises=F Damp=F
 DIIS: error= 1.10D-05 at cycle   5 NSaved=   5.
 NSaved= 5 IEnMin= 5 EnMin= -2048.73994378223     IErMin= 5 ErrMin= 1.10D-05
 ErrMax= 1.10D-05  0.00D+00 EMaxC= 1.00D-01 BMatC= 1.22D-07 BMatP= 4.84D-07
 IDIUse=1 WtCom= 1.00D+00 WtEn= 0.00D+00
 Coeff-Com: -0.259D-02-0.592D-01-0.127D+00 0.209D+00 0.980D+00
 Coeff:     -0.259D-02-0.592D-01-0.127D+00 0.209D+00 0.980D+00
 Gap=     0.282 Goal=   None    Shift=    0.000
 RMSDP=1.23D-06 MaxDP=7.89D-05 DE=-8.38D-07 OVMax= 2.25D-04

 Cycle  11  Pass 1  IDiag  1:
 RMSU=  5.01D-07    CP:  1.00D+00  1.06D+00  8.09D-01  1.40D+00  1.17D+00
 E= -2048.73994404751     Delta-E=       -0.000000265282 Rises=F Damp=F
 DIIS: error= 5.63D-06 at cycle   6 NSaved=   6.
 NSaved= 6 IEnMin= 6 EnMin= -2048.73994404751     IErMin= 6 ErrMin= 5.63D-06
 ErrMax= 5.63D-06  0.00D+00 EMaxC= 1.00D-01 BMatC= 2.85D-08 BMatP= 1.22D-07
 IDIUse=1 WtCom= 1.00D+00 WtEn= 0.00D+00
 Coeff-Com:  0.481D-02-0.464D-01-0.116D+00 0.267D-02 0.524D+00 0.631D+00
 Coeff:      0.481D-02-0.464D-01-0.116D+00 0.267D-02 0.524D+00 0.631D+00
 Gap=     0.282 Goal=   None    Shift=    0.000
 RMSDP=3.63D-07 MaxDP=3.69D-05 DE=-2.65D-07 OVMax= 1.14D-04

 Cycle  12  Pass 1  IDiag  1:
 RMSU=  1.84D-07    CP:  1.00D+00  1.06D+00  8.11D-01  1.47D+00  1.30D+00
                    CP:  9.41D-01
 E= -2048.73994408843     Delta-E=       -0.000000040923 Rises=F Damp=F
 DIIS: error= 1.35D-06 at cycle   7 NSaved=   7.
 NSaved= 7 IEnMin= 7 EnMin= -2048.73994408843     IErMin= 7 ErrMin= 1.35D-06
 ErrMax= 1.35D-06  0.00D+00 EMaxC= 1.00D-01 BMatC= 8.50D-10 BMatP= 2.85D-08
 IDIUse=1 WtCom= 1.00D+00 WtEn= 0.00D+00
 Coeff-Com:  0.117D-02-0.777D-02-0.209D-01-0.733D-02 0.594D-01 0.144D+00
 Coeff-Com:  0.831D+00
 Coeff:      0.117D-02-0.777D-02-0.209D-01-0.733D-02 0.594D-01 0.144D+00
 Coeff:      0.831D+00
 Gap=     0.282 Goal=   None    Shift=    0.000
 RMSDP=8.81D-08 MaxDP=5.01D-06 DE=-4.09D-08 OVMax= 2.02D-05

 Cycle  13  Pass 1  IDiag  1:
 RMSU=  5.15D-08    CP:  1.00D+00  1.06D+00  8.11D-01  1.48D+00  1.32D+00
                    CP:  1.03D+00  1.14D+00
 E= -2048.73994409018     Delta-E=       -0.000000001745 Rises=F Damp=F
 DIIS: error= 5.55D-07 at cycle   8 NSaved=   8.
 NSaved= 8 IEnMin= 8 EnMin= -2048.73994409018     IErMin= 8 ErrMin= 5.55D-07
 ErrMax= 5.55D-07  0.00D+00 EMaxC= 1.00D-01 BMatC= 3.29D-10 BMatP= 8.50D-10
 IDIUse=1 WtCom= 1.00D+00 WtEn= 0.00D+00
 Coeff-Com: -0.735D-03 0.893D-02 0.212D-01-0.233D-02-0.114D+00-0.955D-01
 Coeff-Com:  0.416D+00 0.766D+00
 Coeff:     -0.735D-03 0.893D-02 0.212D-01-0.233D-02-0.114D+00-0.955D-01
 Coeff:      0.416D+00 0.766D+00
 Gap=     0.282 Goal=   None    Shift=    0.000
 RMSDP=4.70D-08 MaxDP=2.65D-06 DE=-1.75D-09 OVMax= 1.02D-05

 Cycle  14  Pass 1  IDiag  1:
 RMSU=  2.69D-08    CP:  1.00D+00  1.06D+00  8.10D-01  1.48D+00  1.32D+00
                    CP:  1.08D+00  1.28D+00  1.09D+00
 E= -2048.73994409051     Delta-E=       -0.000000000337 Rises=F Damp=F
 DIIS: error= 2.11D-07 at cycle   9 NSaved=   9.
 NSaved= 9 IEnMin= 9 EnMin= -2048.73994409051     IErMin= 9 ErrMin= 2.11D-07
 ErrMax= 2.11D-07  0.00D+00 EMaxC= 1.00D-01 BMatC= 3.13D-11 BMatP= 3.29D-10
 IDIUse=1 WtCom= 1.00D+00 WtEn= 0.00D+00
 Coeff-Com: -0.442D-03 0.471D-02 0.114D-01 0.156D-05-0.551D-01-0.568D-01
 Coeff-Com:  0.858D-01 0.308D+00 0.703D+00
 Coeff:     -0.442D-03 0.471D-02 0.114D-01 0.156D-05-0.551D-01-0.568D-01
 Coeff:      0.858D-01 0.308D+00 0.703D+00
 Gap=     0.282 Goal=   None    Shift=    0.000
 RMSDP=1.37D-08 MaxDP=8.86D-07 DE=-3.37D-10 OVMax= 3.08D-06

 Cycle  15  Pass 1  IDiag  1:
 RMSU=  9.27D-09    CP:  1.00D+00  1.06D+00  8.10D-01  1.48D+00  1.32D+00
                    CP:  1.09D+00  1.31D+00  1.22D+00  1.12D+00
 E= -2048.73994409069     Delta-E=       -0.000000000179 Rises=F Damp=F
 DIIS: error= 6.52D-08 at cycle  10 NSaved=  10.
 NSaved=10 IEnMin=10 EnMin= -2048.73994409069     IErMin=10 ErrMin= 6.52D-08
 ErrMax= 6.52D-08  0.00D+00 EMaxC= 1.00D-01 BMatC= 5.54D-12 BMatP= 3.13D-11
 IDIUse=1 WtCom= 1.00D+00 WtEn= 0.00D+00
 Coeff-Com:  0.553D-06-0.253D-03-0.507D-03 0.213D-03 0.458D-02 0.506D-03
 Coeff-Com: -0.506D-01-0.549D-01 0.276D+00 0.824D+00
 Coeff:      0.553D-06-0.253D-03-0.507D-03 0.213D-03 0.458D-02 0.506D-03
 Coeff:     -0.506D-01-0.549D-01 0.276D+00 0.824D+00
 Gap=     0.282 Goal=   None    Shift=    0.000
 RMSDP=6.62D-09 MaxDP=4.01D-07 DE=-1.79D-10 OVMax= 1.31D-06

 SCF Done:  E(RwB97XD) =  -2048.73994409     A.U. after   15 cycles
            NFock= 15  Conv=0.66D-08     -V/T= 2.0054
 KE= 2.037759996711D+03 PE=-1.569709014794D+04 EE= 6.152638062024D+03
 Leave Link  502 at Sun Jan 21 16:22:13 2018, MaxMem=  4294967296 cpu:           20594.4 elap:             671.4
 (Enter /share/apps/g16/l601.exe)
 Copying SCF densities to generalized density rwf, IOpCl= 0 IROHF=0.

 **********************************************************************

            Population analysis using the SCF density.

 **********************************************************************

 Orbital symmetries:
       Occupied  (A) (A) (A) (A) (A) (A) (A) (A) (A) (A) (A) (A)
                 (A) (A) (A) (A) (A) (A) (A) (A) (A) (A) (A) (A)
                 (A) (A) (A) (A) (A) (A) (A) (A) (A) (A) (A) (A)
                 (A) (A) (A) (A) (A) (A) (A) (A) (A) (A) (A) (A)
                 (A) (A) (A) (A) (A) (A) (A) (A) (A) (A) (A) (A)
                 (A) (A) (A) (A) (A) (A) (A) (A) (A) (A) (A) (A)
                 (A) (A) (A) (A) (A) (A) (A) (A) (A) (A) (A) (A)
                 (A) (A) (A) (A) (A) (A) (A) (A) (A) (A) (A) (A)
                 (A) (A) (A) (A) (A) (A) (A) (A) (A) (A) (A) (A)
                 (A) (A) (A) (A) (A) (A) (A) (A) (A) (A) (A) (A)
                 (A) (A) (A) (A) (A) (A) (A) (A) (A) (A) (A) (A)
                 (A) (A) (A) (A) (A) (A) (A) (A) (A) (A) (A) (A)
                 (A) (A) (A) (A) (A) (A) (A) (A) (A) (A)
       Virtual   (A) (A) (A) (A) (A) (A) (A) (A) (A) (A) (A) (A)
                 (A) (A) (A) (A) (A) (A) (A) (A) (A) (A) (A) (A)
                 (A) (A) (A) (A) (A) (A) (A) (A) (A) (A) (A) (A)
                 (A) (A) (A) (A) (A) (A) (A) (A) (A) (A) (A) (A)
                 (A) (A) (A) (A) (A) (A) (A) (A) (A) (A) (A) (A)
                 (A) (A) (A) (A) (A) (A) (A) (A) (A) (A) (A) (A)
                 (A) (A) (A) (A) (A) (A) (A) (A) (A) (A) (A) (A)
                 (A) (A) (A) (A) (A) (A) (A) (A) (A) (A) (A) (A)
                 (A) (A) (A) (A) (A) (A) (A) (A) (A) (A) (A) (A)
                 (A) (A) (A) (A) (A) (A) (A) (A) (A) (A) (A) (A)
                 (A) (A) (A) (A) (A) (A) (A) (A) (A) (A) (A) (A)
                 (A) (A) (A) (A) (A) (A) (A) (A) (A) (A) (A) (A)
                 (A) (A) (A) (A) (A) (A) (A) (A) (A) (A) (A) (A)
                 (A) (A) (A) (A) (A) (A) (A) (A) (A) (A) (A) (A)
                 (A) (A) (A) (A) (A) (A) (A) (A) (A) (A) (A) (A)
                 (A) (A) (A) (A) (A) (A) (A) (A) (A) (A) (A) (A)
                 (A) (A) (A) (A) (A) (A) (A) (A) (A) (A) (A) (A)
                 (A) (A) (A) (A) (A) (A) (A) (A) (A) (A) (A) (A)
                 (A) (A) (A) (A) (A) (A) (A) (A) (A) (A) (A) (A)
                 (A) (A) (A) (A) (A) (A) (A) (A) (A) (A) (A) (A)
                 (A) (A) (A) (A) (A) (A) (A) (A) (A) (A) (A) (A)
                 (A) (A) (A) (A) (A) (A) (A) (A) (A) (A) (A) (A)
                 (A) (A) (A) (A) (A) (A) (A) (A) (A) (A) (A) (A)
                 (A) (A) (A) (A) (A) (A) (A) (A) (A) (A) (A) (A)
                 (A) (A) (A) (A) (A) (A) (A) (A) (A) (A) (A) (A)
                 (A) (A) (A) (A) (A) (A) (A) (A) (A) (A) (A) (A)
                 (A) (A) (A) (A) (A) (A) (A) (A) (A) (A) (A) (A)
                 (A) (A) (A) (A) (A) (A) (A) (A) (A) (A) (A) (A)
                 (A) (A) (A) (A) (A) (A) (A) (A) (A) (A) (A) (A)
                 (A) (A) (A) (A) (A) (A) (A) (A) (A) (A) (A) (A)
                 (A) (A) (A) (A) (A) (A) (A) (A) (A) (A) (A) (A)
                 (A) (A) (A) (A) (A) (A) (A) (A) (A) (A) (A) (A)
                 (A) (A) (A) (A) (A) (A) (A) (A) (A) (A) (A) (A)
                 (A) (A) (A) (A) (A) (A) (A) (A) (A) (A) (A) (A)
                 (A) (A) (A) (A) (A) (A) (A) (A) (A) (A) (A) (A)
                 (A) (A) (A) (A) (A) (A) (A) (A) (A) (A) (A) (A)
                 (A) (A) (A) (A) (A) (A) (A) (A) (A) (A) (A) (A)
                 (A) (A) (A) (A) (A) (A) (A) (A) (A) (A) (A) (A)
                 (A) (A) (A) (A) (A) (A) (A) (A) (A) (A) (A) (A)
                 (A) (A) (A) (A) (A) (A) (A) (A) (A) (A) (A) (A)
                 (A) (A) (A) (A) (A) (A) (A) (A) (A) (A) (A) (A)
                 (A) (A) (A) (A) (A) (A) (A) (A) (A) (A) (A) (A)
                 (A) (A) (A) (A) (A) (A) (A) (A) (A) (A) (A) (A)
                 (A) (A) (A) (A) (A) (A) (A) (A) (A) (A) (A) (A)
                 (A) (A) (A) (A) (A) (A) (A) (A) (A) (A) (A) (A)
                 (A) (A) (A) (A) (A) (A) (A) (A) (A) (A) (A) (A)
                 (A) (A) (A) (A) (A) (A) (A) (A) (A) (A) (A) (A)
                 (A) (A) (A) (A) (A) (A) (A) (A) (A) (A) (A) (A)
                 (A) (A) (A) (A) (A) (A) (A)
 The electronic state is 1-A.
 Alpha  occ. eigenvalues --  -19.26183 -19.22403 -19.20876 -14.52696 -14.51245
 Alpha  occ. eigenvalues --  -14.48996 -14.48832 -14.48250 -14.47182 -14.46963
 Alpha  occ. eigenvalues --  -14.45677 -14.44333 -14.42655 -14.42473 -14.42227
 Alpha  occ. eigenvalues --  -14.42019 -14.41601 -14.41051 -14.40933 -14.40229
 Alpha  occ. eigenvalues --  -10.45799 -10.41459 -10.40549 -10.38455 -10.38030
 Alpha  occ. eigenvalues --  -10.38008 -10.36838 -10.35728 -10.35642 -10.35429
 Alpha  occ. eigenvalues --  -10.34503 -10.34263 -10.34257 -10.33531 -10.33371
 Alpha  occ. eigenvalues --  -10.33203 -10.33079 -10.31230 -10.31228 -10.31134
 Alpha  occ. eigenvalues --  -10.30820 -10.28663 -10.28269  -1.19743  -1.13918
 Alpha  occ. eigenvalues --   -1.13697  -1.13427  -1.11555  -1.10718  -1.09590
 Alpha  occ. eigenvalues --   -1.08804  -1.07460  -1.05059  -1.03018  -1.02923
 Alpha  occ. eigenvalues --   -1.00444  -1.00010  -0.99652  -0.98730  -0.97105
 Alpha  occ. eigenvalues --   -0.96666  -0.95085  -0.92684  -0.91256  -0.86292
 Alpha  occ. eigenvalues --   -0.84746  -0.84226  -0.84122  -0.83988  -0.82545
 Alpha  occ. eigenvalues --   -0.82486  -0.79148  -0.75522  -0.74769  -0.73894
 Alpha  occ. eigenvalues --   -0.73707  -0.73271  -0.72992  -0.71162  -0.68881
 Alpha  occ. eigenvalues --   -0.67594  -0.66864  -0.66382  -0.65258  -0.64744
 Alpha  occ. eigenvalues --   -0.63958  -0.62871  -0.62868  -0.62571  -0.61935
 Alpha  occ. eigenvalues --   -0.60259  -0.60119  -0.59771  -0.59040  -0.58629
 Alpha  occ. eigenvalues --   -0.58518  -0.58173  -0.56737  -0.56598  -0.56546
 Alpha  occ. eigenvalues --   -0.56256  -0.55374  -0.54701  -0.54592  -0.54096
 Alpha  occ. eigenvalues --   -0.53840  -0.53603  -0.53100  -0.52790  -0.52556
 Alpha  occ. eigenvalues --   -0.52270  -0.51896  -0.51466  -0.50965  -0.50396
 Alpha  occ. eigenvalues --   -0.50315  -0.49787  -0.49423  -0.49211  -0.49145
 Alpha  occ. eigenvalues --   -0.48466  -0.48359  -0.47860  -0.47736  -0.47388
 Alpha  occ. eigenvalues --   -0.47075  -0.45446  -0.45168  -0.44257  -0.42917
 Alpha  occ. eigenvalues --   -0.41296  -0.39740  -0.39376  -0.37457  -0.37368
 Alpha  occ. eigenvalues --   -0.37293  -0.36785  -0.36162  -0.35751  -0.34478
 Alpha  occ. eigenvalues --   -0.33747  -0.33700  -0.33622  -0.33252  -0.32869
 Alpha  occ. eigenvalues --   -0.32671  -0.32409  -0.32281  -0.31989  -0.31103
 Alpha  occ. eigenvalues --   -0.30449  -0.27948  -0.25939  -0.25523
 Alpha virt. eigenvalues --    0.02666   0.05406   0.07893   0.08004   0.08692
 Alpha virt. eigenvalues --    0.09091   0.09574   0.10873   0.11067   0.12154
 Alpha virt. eigenvalues --    0.13005   0.13828   0.14552   0.14630   0.15969
 Alpha virt. eigenvalues --    0.16233   0.16289   0.16783   0.17218   0.18238
 Alpha virt. eigenvalues --    0.19038   0.19490   0.19721   0.20108   0.20427
 Alpha virt. eigenvalues --    0.20715   0.21052   0.21622   0.21809   0.22463
 Alpha virt. eigenvalues --    0.22578   0.23323   0.23465   0.23557   0.23657
 Alpha virt. eigenvalues --    0.23887   0.23993   0.24227   0.24533   0.24957
 Alpha virt. eigenvalues --    0.25979   0.26450   0.26817   0.27346   0.27849
 Alpha virt. eigenvalues --    0.28862   0.29255   0.29955   0.30491   0.30964
 Alpha virt. eigenvalues --    0.31264   0.31922   0.32702   0.32844   0.33826
 Alpha virt. eigenvalues --    0.34034   0.34625   0.34991   0.36027   0.36274
 Alpha virt. eigenvalues --    0.36609   0.37440   0.38183   0.38972   0.39650
 Alpha virt. eigenvalues --    0.40192   0.40881   0.41494   0.41696   0.41871
 Alpha virt. eigenvalues --    0.42483   0.42658   0.43149   0.44096   0.44556
 Alpha virt. eigenvalues --    0.45073   0.45721   0.46004   0.46393   0.46880
 Alpha virt. eigenvalues --    0.47072   0.48122   0.48566   0.49065   0.49678
 Alpha virt. eigenvalues --    0.49921   0.50232   0.50581   0.50874   0.51094
 Alpha virt. eigenvalues --    0.51639   0.51787   0.52048   0.52692   0.53333
 Alpha virt. eigenvalues --    0.53585   0.53944   0.54339   0.54696   0.55244
 Alpha virt. eigenvalues --    0.55489   0.56138   0.56518   0.56946   0.57213
 Alpha virt. eigenvalues --    0.57377   0.58253   0.58748   0.59242   0.60115
 Alpha virt. eigenvalues --    0.60170   0.60594   0.60897   0.61142   0.61527
 Alpha virt. eigenvalues --    0.61885   0.62472   0.63248   0.63453   0.63693
 Alpha virt. eigenvalues --    0.64019   0.64459   0.64527   0.65216   0.65600
 Alpha virt. eigenvalues --    0.65831   0.66130   0.66401   0.66894   0.67218
 Alpha virt. eigenvalues --    0.67508   0.68202   0.68428   0.68800   0.69295
 Alpha virt. eigenvalues --    0.69930   0.70421   0.70758   0.71135   0.71495
 Alpha virt. eigenvalues --    0.71769   0.72434   0.72566   0.73083   0.73414
 Alpha virt. eigenvalues --    0.73665   0.73762   0.74618   0.74855   0.75063
 Alpha virt. eigenvalues --    0.75766   0.76064   0.76293   0.76571   0.76764
 Alpha virt. eigenvalues --    0.77341   0.77675   0.78132   0.78615   0.78734
 Alpha virt. eigenvalues --    0.79167   0.79285   0.79797   0.80354   0.80747
 Alpha virt. eigenvalues --    0.81150   0.81723   0.82201   0.82778   0.82988
 Alpha virt. eigenvalues --    0.83409   0.83603   0.84527   0.85064   0.85133
 Alpha virt. eigenvalues --    0.85784   0.85974   0.86658   0.86938   0.87343
 Alpha virt. eigenvalues --    0.87897   0.88540   0.88713   0.89151   0.89473
 Alpha virt. eigenvalues --    0.89947   0.90454   0.90757   0.91247   0.91928
 Alpha virt. eigenvalues --    0.92442   0.93082   0.93532   0.93991   0.94169
 Alpha virt. eigenvalues --    0.94431   0.95179   0.95377   0.95837   0.96091
 Alpha virt. eigenvalues --    0.96628   0.96991   0.97082   0.98076   0.98369
 Alpha virt. eigenvalues --    0.98489   0.98905   0.99660   0.99872   1.00852
 Alpha virt. eigenvalues --    1.01166   1.01927   1.02064   1.02366   1.02761
 Alpha virt. eigenvalues --    1.03287   1.04095   1.04195   1.04435   1.04881
 Alpha virt. eigenvalues --    1.05362   1.05806   1.06360   1.06748   1.06917
 Alpha virt. eigenvalues --    1.07812   1.08698   1.08885   1.09969   1.10681
 Alpha virt. eigenvalues --    1.11483   1.11499   1.11990   1.13237   1.13570
 Alpha virt. eigenvalues --    1.13817   1.14324   1.14611   1.14860   1.15075
 Alpha virt. eigenvalues --    1.15909   1.16504   1.16930   1.17641   1.17950
 Alpha virt. eigenvalues --    1.18178   1.18545   1.18909   1.19326   1.19641
 Alpha virt. eigenvalues --    1.19857   1.20269   1.20937   1.21456   1.21595
 Alpha virt. eigenvalues --    1.22100   1.22539   1.22949   1.23220   1.23355
 Alpha virt. eigenvalues --    1.23492   1.23759   1.24474   1.24657   1.24797
 Alpha virt. eigenvalues --    1.25524   1.26087   1.27377   1.28248   1.28876
 Alpha virt. eigenvalues --    1.29212   1.29673   1.30177   1.30870   1.31764
 Alpha virt. eigenvalues --    1.32049   1.32864   1.33484   1.33563   1.34129
 Alpha virt. eigenvalues --    1.34344   1.35301   1.36373   1.36909   1.37670
 Alpha virt. eigenvalues --    1.37712   1.38239   1.38994   1.40093   1.40369
 Alpha virt. eigenvalues --    1.41118   1.41976   1.42488   1.43461   1.44168
 Alpha virt. eigenvalues --    1.44708   1.46026   1.46511   1.47513   1.47851
 Alpha virt. eigenvalues --    1.48640   1.49031   1.49526   1.49655   1.50545
 Alpha virt. eigenvalues --    1.51017   1.51651   1.52628   1.53418   1.53510
 Alpha virt. eigenvalues --    1.54137   1.55714   1.55851   1.56230   1.57438
 Alpha virt. eigenvalues --    1.57738   1.58925   1.59780   1.60199   1.60708
 Alpha virt. eigenvalues --    1.61564   1.61977   1.62537   1.62809   1.63478
 Alpha virt. eigenvalues --    1.63564   1.65372   1.65700   1.66480   1.67023
 Alpha virt. eigenvalues --    1.67163   1.67778   1.67882   1.68595   1.68805
 Alpha virt. eigenvalues --    1.69235   1.69861   1.69952   1.70854   1.71278
 Alpha virt. eigenvalues --    1.71645   1.71998   1.72596   1.72946   1.73552
 Alpha virt. eigenvalues --    1.73958   1.74218   1.74674   1.74775   1.75251
 Alpha virt. eigenvalues --    1.75487   1.75901   1.76253   1.76382   1.77071
 Alpha virt. eigenvalues --    1.77405   1.78045   1.78189   1.78722   1.78855
 Alpha virt. eigenvalues --    1.79396   1.79624   1.79933   1.80090   1.80297
 Alpha virt. eigenvalues --    1.80519   1.80827   1.81517   1.81663   1.81901
 Alpha virt. eigenvalues --    1.82027   1.82666   1.83288   1.84267   1.84319
 Alpha virt. eigenvalues --    1.85048   1.85693   1.85908   1.86259   1.86754
 Alpha virt. eigenvalues --    1.87049   1.87677   1.88513   1.88829   1.89129
 Alpha virt. eigenvalues --    1.89625   1.90298   1.90539   1.90682   1.91198
 Alpha virt. eigenvalues --    1.91978   1.92408   1.93338   1.93444   1.94058
 Alpha virt. eigenvalues --    1.94505   1.95462   1.95962   1.96620   1.97548
 Alpha virt. eigenvalues --    1.98118   1.98573   1.99404   2.00273   2.00951
 Alpha virt. eigenvalues --    2.01786   2.02277   2.02619   2.02727   2.02818
 Alpha virt. eigenvalues --    2.04006   2.05138   2.06237   2.06525   2.07370
 Alpha virt. eigenvalues --    2.07804   2.08365   2.08574   2.08836   2.09613
 Alpha virt. eigenvalues --    2.10364   2.10818   2.10962   2.11913   2.12448
 Alpha virt. eigenvalues --    2.13757   2.14426   2.15623   2.16786   2.17980
 Alpha virt. eigenvalues --    2.19009   2.20204   2.20430   2.20644   2.21483
 Alpha virt. eigenvalues --    2.21700   2.22455   2.22608   2.23174   2.24227
 Alpha virt. eigenvalues --    2.24438   2.24870   2.25111   2.26493   2.26868
 Alpha virt. eigenvalues --    2.27563   2.28130   2.28514   2.29461   2.29636
 Alpha virt. eigenvalues --    2.29880   2.30913   2.31022   2.31685   2.31966
 Alpha virt. eigenvalues --    2.32638   2.33778   2.33857   2.34350   2.34507
 Alpha virt. eigenvalues --    2.35152   2.35627   2.36083   2.36679   2.37598
 Alpha virt. eigenvalues --    2.37849   2.38392   2.40600   2.41048   2.41641
 Alpha virt. eigenvalues --    2.41842   2.42542   2.43066   2.43421   2.44227
 Alpha virt. eigenvalues --    2.44681   2.45573   2.46280   2.46471   2.46938
 Alpha virt. eigenvalues --    2.47448   2.48921   2.50259   2.51043   2.51418
 Alpha virt. eigenvalues --    2.53583   2.53943   2.54616   2.54791   2.55615
 Alpha virt. eigenvalues --    2.56430   2.57048   2.57674   2.58615   2.60053
 Alpha virt. eigenvalues --    2.61012   2.61267   2.62029   2.62172   2.62764
 Alpha virt. eigenvalues --    2.63937   2.64957   2.65127   2.65325   2.65903
 Alpha virt. eigenvalues --    2.66735   2.67534   2.68032   2.68618   2.68932
 Alpha virt. eigenvalues --    2.69401   2.70677   2.70891   2.71238   2.72427
 Alpha virt. eigenvalues --    2.73978   2.74246   2.74990   2.75469   2.76541
 Alpha virt. eigenvalues --    2.77383   2.77985   2.78982   2.79518   2.79662
 Alpha virt. eigenvalues --    2.79833   2.79929   2.80524   2.81703   2.81762
 Alpha virt. eigenvalues --    2.82402   2.82695   2.83078   2.83156   2.84199
 Alpha virt. eigenvalues --    2.84493   2.84860   2.86060   2.86630   2.87041
 Alpha virt. eigenvalues --    2.87440   2.88354   2.88770   2.90873   2.92449
 Alpha virt. eigenvalues --    2.94188   2.95869   2.96409   2.97404   2.99223
 Alpha virt. eigenvalues --    3.00212   3.00608   3.00762   3.04585   3.05560
 Alpha virt. eigenvalues --    3.07640   3.09902   3.12048   3.13637   3.15038
 Alpha virt. eigenvalues --    3.15072   3.15923   3.16288   3.17459   3.19971
 Alpha virt. eigenvalues --    3.22655   3.23330   3.23638   3.23710   3.25917
 Alpha virt. eigenvalues --    3.46302   3.46881   3.47787   3.50026   3.50945
 Alpha virt. eigenvalues --    3.53277   3.54575   3.55964   3.57680   3.59725
 Alpha virt. eigenvalues --    3.62339   3.70540   3.74471
          Condensed to atoms (all electrons):
 Mulliken charges:
               1
     1  N   -0.310865
     2  C    0.180581
     3  C    0.042205
     4  N   -0.254544
     5  C    0.129440
     6  H    0.026339
     7  N   -0.288735
     8  C    0.130689
     9  H    0.013071
    10  N   -0.290961
    11  C    0.230519
    12  C    0.109425
    13  N   -0.043557
    14  H    0.110013
    15  H    0.090979
    16  H    0.026698
    17  H    0.034481
    18  H    0.023639
    19  N   -0.310139
    20  C    0.254992
    21  C    0.180158
    22  N   -0.122450
    23  H    0.113040
    24  H    0.118219
    25  N   -0.308969
    26  C    0.247742
    27  N   -0.140774
    28  H    0.116804
    29  C    0.175941
    30  O   -0.324473
    31  C   -0.005405
    32  N   -0.225559
    33  C    0.130254
    34  H    0.027596
    35  H    0.032852
    36  H    0.028288
    37  H    0.023501
    38  H    0.055532
    39  H    0.062242
    40  H    0.073109
    41  H    0.029030
    42  C   -0.099369
    43  O   -0.287228
    44  C    0.145321
    45  H    0.139125
    46  N   -0.120246
    47  O   -0.349439
    48  C    0.354891
    49  H    0.047976
    50  C    0.190334
    51  C    0.041231
    52  N   -0.286147
    53  H    0.031582
    54  H    0.041387
    55  H    0.020745
    56  H    0.127011
    57  H    0.115256
    58  N   -0.024270
    59  C    0.093314
    60  C    0.245853
    61  N   -0.276296
    62  H    0.034444
    63  C    0.163893
    64  N   -0.302367
    65  H    0.028159
    66  C    0.123644
    67  N   -0.258945
    68  C   -0.000749
    69  C    0.180447
    70  N   -0.310504
 Sum of Mulliken charges =  -0.00000
 Mulliken charges with hydrogens summed into heavy atoms:
               1
     1  N   -0.310865
     2  C    0.265398
     3  C    0.042205
     4  N   -0.254544
     5  C    0.155779
     7  N   -0.288735
     8  C    0.143760
    10  N   -0.290961
    11  C    0.230519
    12  C    0.109425
    13  N    0.157435
    19  N   -0.310139
    20  C    0.254992
    21  C    0.264799
    22  N    0.108808
    25  N   -0.308969
    26  C    0.247742
    27  N   -0.023970
    29  C    0.175941
    30  O   -0.324473
    31  C   -0.005405
    32  N   -0.225559
    33  C    0.157850
    42  C   -0.070339
    43  O   -0.287228
    44  C    0.145321
    46  N    0.018879
    47  O   -0.349439
    48  C    0.354891
    50  C    0.238311
    51  C    0.232113
    52  N   -0.286147
    58  N    0.217997
    59  C    0.093314
    60  C    0.245853
    61  N   -0.276296
    63  C    0.198337
    64  N   -0.302367
    66  C    0.151803
    67  N   -0.258945
    68  C   -0.000749
    69  C    0.274161
    70  N   -0.310504
 Electronic spatial extent (au):  <R**2>=          23422.5995
 Charge=             -0.0000 electrons
 Dipole moment (field-independent basis, Debye):
    X=              7.1007    Y=              6.2126    Z=              2.5590  Tot=              9.7757
 Quadrupole moment (field-independent basis, Debye-Ang):
   XX=           -142.5635   YY=           -224.5025   ZZ=           -252.3517
   XY=              6.4798   XZ=             13.8787   YZ=             -0.1014
 Traceless Quadrupole moment (field-independent basis, Debye-Ang):
   XX=             63.9091   YY=            -18.0299   ZZ=            -45.8792
   XY=              6.4798   XZ=             13.8787   YZ=             -0.1014
 Octapole moment (field-independent basis, Debye-Ang**2):
  XXX=              7.2704  YYY=             87.6492  ZZZ=             49.3295  XYY=             23.1798
  XXY=             40.7474  XXZ=            -49.8022  XZZ=             70.4194  YZZ=             52.6867
  YYZ=             21.4127  XYZ=             47.5420
 Hexadecapole moment (field-independent basis, Debye-Ang**3):
 XXXX=         -15755.3345 YYYY=          -4764.6176 ZZZZ=          -3669.7765 XXXY=            430.6474
 XXXZ=            198.0054 YYYX=            -33.3341 YYYZ=             33.2193 ZZZX=            229.6528
 ZZZY=             73.1862 XXYY=          -4134.1171 XXZZ=          -4114.6592 YYZZ=          -1536.4556
 XXYZ=            104.5802 YYXZ=             99.7556 ZZXY=            121.7276
 N-N= 5.457952145114D+03 E-N=-1.569709015051D+04  KE= 2.037759996711D+03
 No NMR shielding tensors so no spin-rotation constants.
 Leave Link  601 at Sun Jan 21 16:22:18 2018, MaxMem=  4294967296 cpu:             121.4 elap:               4.1
 (Enter /share/apps/g16/l9999.exe)
 1\1\GINC-COMPUTE-0-3\SP\RwB97XD\CC-pVDZ\C23H27N17O3\SATYA\21-Jan-2018\
 0\\#p wb97xd/cc-pvdz sp scf=(maxcycles=20)\\Base pair stacking\\0,1\N,
 0,7.54951,5.91639,-4.5348\C,0,8.18274,7.22843,-4.77052\C,0,6.19318,4.1
 8691,-4.61593\N,0,7.18128,3.86247,-3.6977\C,0,7.95886,4.9174,-3.68558\
 H,0,8.85303,5.0215,-3.07029\N,0,4.28504,4.09426,-5.99916\C,0,4.61942,5
 .32082,-6.41306\H,0,3.95164,5.76009,-7.15291\N,0,5.65,6.08266,-6.05194
 \C,0,6.40681,5.44983,-5.14025\C,0,5.06668,3.48456,-5.08135\N,0,4.73454
 ,2.26017,-4.66696\H,0,5.2842,1.77107,-3.98882\H,0,3.9254,1.79029,-5.02
 003\H,0,9.11347,7.0945,-5.11109\H,0,7.65184,7.73902,-5.44622\H,0,8.213
 92,7.74444,-3.91451\N,0,2.18944,6.19863,-3.1684\C,0,1.29312,5.17807,-3
 .3761\C,0,1.95064,7.62166,-3.4825\N,0,-1.81543,4.08101,-4.46929\H,0,-2
 .30986,3.21491,-4.53758\H,0,-2.29125,4.9014,-4.78752\N,0,0.05365,5.302
 8,-3.89781\C,0,-0.57026,4.14063,-3.97341\N,0,-0.0239,2.94652,-3.56953\
 H,0,-0.57417,2.10679,-3.66449\C,0,1.24952,2.79465,-3.0299\O,0,1.64734,
 1.67139,-2.69707\C,0,1.932,4.03459,-2.94242\N,0,3.20381,4.33129,-2.471
 93\C,0,3.31214,5.62318,-2.62523\H,0,4.19244,6.2086,-2.3576\H,0,2.62955
 ,7.93705,-4.14464\H,0,1.03552,7.72633,-3.86962\H,0,2.02225,8.16566,-2.
 64719\H,0,-3.5692,-1.78151,-4.9925\H,0,-4.03766,-1.72986,-3.2947\H,0,-
 3.57785,-0.24438,-4.12734\H,0,0.20174,-3.98134,-2.97078\C,0,-0.18836,-
 2.97292,-3.1091\O,0,1.86302,-1.90793,-2.57549\C,0,0.67821,-1.85272,-2.
 90408\H,0,0.66564,0.19273,-2.96978\N,0,0.08485,-0.62279,-3.10522\O,0,-
 1.65054,0.7464,-3.6257\C,0,-1.21559,-0.38128,-3.47138\H,0,-2.16125,-3.
 58708,-3.63477\C,0,-1.46168,-2.76935,-3.46663\C,0,-3.38503,-1.30346,-4
 .04192\N,0,-1.98829,-1.51184,-3.65019\H,0,-2.12918,0.8252,-9.29362\H,0
 ,-1.75769,2.1043,-8.35129\H,0,-3.00302,1.12886,-7.94915\H,0,3.15936,-1
 .05361,-4.43904\H,0,1.96216,-2.14693,-4.96959\N,0,2.31542,-1.21092,-4.
 95204\C,0,1.68819,-0.21737,-5.58497\C,0,-0.03274,0.73976,-6.92066\N,0,
 0.4647,1.98689,-6.87989\H,0,2.05543,2.99789,-6.07485\C,0,1.58408,2.019
 67,-6.1596\N,0,2.21389,1.02565,-5.52489\H,0,-2.08083,-1.63241,-7.71457
 \C,0,-1.26123,-1.0327,-7.31765\N,0,-0.28594,-1.50047,-6.57759\C,0,0.50
 012,-0.38695,-6.31891\C,0,-2.08849,1.16107,-8.35259\N,0,-1.17094,0.315
 51,-7.56447\\Version=EM64L-G16RevA.03\State=1-A\HF=-2048.7399441\RMSD=
 6.617e-09\Dipole=-3.6699486,-0.1449212,-1.1413244\Quadrupole=22.469688
 1,10.5894656,-33.0591537,29.721046,10.1591042,9.4124369\PG=C01 [X(C23H
 27N17O3)]\\@


 Other things may change us, but we start and end with family.
 -- Anthony Brandt
 Job cpu time:       0 days  5 hours 54 minutes 32.7 seconds.
 Elapsed time:       0 days  0 hours 11 minutes 33.1 seconds.
 File lengths (MBytes):  RWF=    298 Int=      0 D2E=      0 Chk=     33 Scr=      1
 Normal termination of Gaussian 16 at Sun Jan 21 16:22:18 2018.
