 Entering Gaussian System, Link 0=g16
 Input=str30.20.1.0.com
 Output=str30.20.1.0.log
 Initial command:
 /share/apps/g16/l1.exe "/state/partition1/scr/Gau-5569.inp" -scrdir="/state/partition1/scr/"
 Entering Link 1 = /share/apps/g16/l1.exe PID=      5570.
  
 Copyright (c) 1988,1990,1992,1993,1995,1998,2003,2009,2016,
            Gaussian, Inc.  All Rights Reserved.
  
 This is part of the Gaussian(R) 16 program.  It is based on
 the Gaussian(R) 09 system (copyright 2009, Gaussian, Inc.),
 the Gaussian(R) 03 system (copyright 2003, Gaussian, Inc.),
 the Gaussian(R) 98 system (copyright 1998, Gaussian, Inc.),
 the Gaussian(R) 94 system (copyright 1995, Gaussian, Inc.),
 the Gaussian 92(TM) system (copyright 1992, Gaussian, Inc.),
 the Gaussian 90(TM) system (copyright 1990, Gaussian, Inc.),
 the Gaussian 88(TM) system (copyright 1988, Gaussian, Inc.),
 the Gaussian 86(TM) system (copyright 1986, Carnegie Mellon
 University), and the Gaussian 82(TM) system (copyright 1983,
 Carnegie Mellon University). Gaussian is a federally registered
 trademark of Gaussian, Inc.
  
 This software contains proprietary and confidential information,
 including trade secrets, belonging to Gaussian, Inc.
  
 This software is provided under written license and may be
 used, copied, transmitted, or stored only in accord with that
 written license.
  
 The following legend is applicable only to US Government
 contracts under FAR:
  
                    RESTRICTED RIGHTS LEGEND
  
 Use, reproduction and disclosure by the US Government is
 subject to restrictions as set forth in subparagraphs (a)
 and (c) of the Commercial Computer Software - Restricted
 Rights clause in FAR 52.227-19.
  
 Gaussian, Inc.
 340 Quinnipiac St., Bldg. 40, Wallingford CT 06492
  
  
 ---------------------------------------------------------------
 Warning -- This program may not be used in any manner that
 competes with the business of Gaussian, Inc. or will provide
 assistance to any competitor of Gaussian, Inc.  The licensee
 of this program is prohibited from giving any competitor of
 Gaussian, Inc. access to this program.  By using this program,
 the user acknowledges that Gaussian, Inc. is engaged in the
 business of creating and licensing software in the field of
 computational chemistry and represents and warrants to the
 licensee that it is not a competitor of Gaussian, Inc. and that
 it will not use this program in any manner prohibited above.
 ---------------------------------------------------------------
  

 Cite this work as:
 Gaussian 16, Revision A.03,
 M. J. Frisch, G. W. Trucks, H. B. Schlegel, G. E. Scuseria, 
 M. A. Robb, J. R. Cheeseman, G. Scalmani, V. Barone, 
 G. A. Petersson, H. Nakatsuji, X. Li, M. Caricato, A. V. Marenich, 
 J. Bloino, B. G. Janesko, R. Gomperts, B. Mennucci, H. P. Hratchian, 
 J. V. Ortiz, A. F. Izmaylov, J. L. Sonnenberg, D. Williams-Young, 
 F. Ding, F. Lipparini, F. Egidi, J. Goings, B. Peng, A. Petrone, 
 T. Henderson, D. Ranasinghe, V. G. Zakrzewski, J. Gao, N. Rega, 
 G. Zheng, W. Liang, M. Hada, M. Ehara, K. Toyota, R. Fukuda, 
 J. Hasegawa, M. Ishida, T. Nakajima, Y. Honda, O. Kitao, H. Nakai, 
 T. Vreven, K. Throssell, J. A. Montgomery, Jr., J. E. Peralta, 
 F. Ogliaro, M. J. Bearpark, J. J. Heyd, E. N. Brothers, K. N. Kudin, 
 V. N. Staroverov, T. A. Keith, R. Kobayashi, J. Normand, 
 K. Raghavachari, A. P. Rendell, J. C. Burant, S. S. Iyengar, 
 J. Tomasi, M. Cossi, J. M. Millam, M. Klene, C. Adamo, R. Cammi, 
 J. W. Ochterski, R. L. Martin, K. Morokuma, O. Farkas, 
 J. B. Foresman, and D. J. Fox, Gaussian, Inc., Wallingford CT, 2016.
 
 ******************************************
 Gaussian 16:  EM64L-G16RevA.03 25-Dec-2016
                21-Jan-2018 
 ******************************************
 %nprocshared=32
 Will use up to   32 processors via shared memory.
 %mem=32GB
 %chk=allatoms_t.chk
 ---------------------------------------
 #p wb97xd/cc-pvdz sp scf=(maxcycles=20)
 ---------------------------------------
 1/38=1,172=1/1;
 2/12=2,17=6,18=5,40=1/2;
 3/5=16,11=2,25=1,30=1,74=-58/1,2,3;
 4//1;
 5/5=2,7=20,38=5/2;
 6/7=2,8=2,9=2,10=2,28=1/1;
 99/5=1,9=1/99;
 Leave Link    1 at Sun Jan 21 15:34:15 2018, MaxMem=  4294967296 cpu:               2.7 elap:               0.1
 (Enter /share/apps/g16/l101.exe)
 ------------------
 Base pair stacking
 ------------------
 Symbolic Z-matrix:
 Charge =  0 Multiplicity = 1
 N                     5.277     1.77832  -5.15605 
 C                     5.91024   3.09036  -5.39177 
 C                     3.92068   0.04884  -5.23717 
 N                     4.90877  -0.27561  -4.31895 
 C                     5.68636   0.77933  -4.30683 
 H                     6.58052   0.88342  -3.69154 
 N                     2.01253  -0.04382  -6.62041 
 C                     2.34692   1.18275  -7.0343 
 H                     1.67914   1.62201  -7.77416 
 N                     3.3775    1.94459  -6.67319 
 C                     4.13431   1.31176  -5.7615 
 C                     2.79418  -0.65352  -5.7026 
 N                     2.46204  -1.87791  -5.28821 
 H                     3.0117   -2.367    -4.61007 
 H                     1.6529   -2.34779  -5.64127 
 H                     6.84097   2.95643  -5.73234 
 H                     5.37934   3.60095  -6.06747 
 H                     5.94142   3.60637  -4.53576 
 N                     1.56158   3.82033  -3.27876 
 C                     0.66526   2.79977  -3.48645 
 C                     1.32278   5.24336  -3.59286 
 N                    -2.44329   1.70271  -4.57965 
 H                    -2.93772   0.83662  -4.64794 
 H                    -2.91911   2.52311  -4.89787 
 N                    -0.57421   2.9245   -4.00817 
 C                    -1.19812   1.76233  -4.08377 
 N                    -0.65176   0.56823  -3.67988 
 H                    -1.20203  -0.2715   -3.77484 
 C                     0.62166   0.41635  -3.14025 
 O                     1.01948  -0.7069   -2.80743 
 C                     1.30414   1.65629  -3.05277 
 N                     2.57596   1.95299  -2.58228 
 C                     2.68428   3.24488  -2.73558 
 H                     3.56458   3.83031  -2.46795 
 H                     2.00169   5.55875  -4.25499 
 H                     0.40766   5.34804  -3.97997 
 H                     1.39439   5.78737  -2.75755 
 H                    -4.19706  -4.15981  -5.10286 
 H                    -4.66551  -4.10816  -3.40506 
 H                    -4.20571  -2.62267  -4.2377 
 H                    -0.42612  -6.35964  -3.08114 
 C                    -0.81622  -5.35122  -3.21945 
 O                     1.23516  -4.28622  -2.68584 
 C                     0.05035  -4.23101  -3.01443 
 H                     0.03778  -2.18557  -3.08013 
 N                    -0.54301  -3.00109  -3.21557 
 O                    -2.2784   -1.63189  -3.73606 
 C                    -1.84344  -2.75957  -3.58174 
 H                    -2.78911  -5.96538  -3.74513 
 C                    -2.08954  -5.14765  -3.57699 
 C                    -4.01289  -3.68176  -4.15227 
 N                    -2.61615  -3.89013  -3.76054 
 H                    -4.40168  -3.31287  -9.91487 
 H                    -4.03019  -2.03377  -8.97254 
 H                    -5.27553  -3.00922  -8.5704 
 H                     0.88686  -5.19169  -5.06029 
 H                    -0.31034  -6.285    -5.59083 
 N                     0.04292  -5.34899  -5.57329 
 C                    -0.58432  -4.35544  -6.20622 
 C                    -2.30524  -3.39831  -7.54191 
 N                    -1.8078   -2.15119  -7.50114 
 H                    -0.21708  -1.14019  -6.6961 
 C                    -0.68842  -2.11841  -6.78085 
 N                    -0.05861  -3.11242  -6.14614 
 H                    -4.35333  -5.77048  -8.33582 
 C                    -3.53373  -5.17077  -7.93889 
 N                    -2.55844  -5.63854  -7.19884 
 C                    -1.77238  -4.52503  -6.94016 
 C                    -4.36099  -2.97701  -8.97384 
 N                    -3.44344  -3.82257  -8.18572 
 
 ITRead=  0  0  0  0  0  0  0  0  0  0  0  0  0  0  0  0  0  0  0  0
 ITRead=  0  0  0  0  0  0  0  0  0  0  0  0  0  0  0  0  0  0  0  0
 ITRead=  0  0  0  0  0  0  0  0  0  0  0  0  0  0  0  0  0  0  0  0
 ITRead=  0  0  0  0  0  0  0  0  0  0
 MicOpt= -1 -1 -1 -1 -1 -1 -1 -1 -1 -1 -1 -1 -1 -1 -1 -1 -1 -1 -1 -1
 MicOpt= -1 -1 -1 -1 -1 -1 -1 -1 -1 -1 -1 -1 -1 -1 -1 -1 -1 -1 -1 -1
 MicOpt= -1 -1 -1 -1 -1 -1 -1 -1 -1 -1 -1 -1 -1 -1 -1 -1 -1 -1 -1 -1
 MicOpt= -1 -1 -1 -1 -1 -1 -1 -1 -1 -1
 NAtoms=     70 NQM=       70 NQMF=       0 NMMI=      0 NMMIF=      0
                NMic=       0 NMicF=      0.
                    Isotopes and Nuclear Properties:
 (Nuclear quadrupole moments (NQMom) in fm**2, nuclear magnetic moments (NMagM)
  in nuclear magnetons)

  Atom         1           2           3           4           5           6           7           8           9          10
 IAtWgt=          14          12          12          14          12           1          14          12           1          14
 AtmWgt=  14.0030740  12.0000000  12.0000000  14.0030740  12.0000000   1.0078250  14.0030740  12.0000000   1.0078250  14.0030740
 NucSpn=           2           0           0           2           0           1           2           0           1           2
 AtZEff=  -0.0000000  -0.0000000  -0.0000000  -0.0000000  -0.0000000  -0.0000000  -0.0000000  -0.0000000  -0.0000000  -0.0000000
 NQMom=    2.0440000   0.0000000   0.0000000   2.0440000   0.0000000   0.0000000   2.0440000   0.0000000   0.0000000   2.0440000
 NMagM=    0.4037610   0.0000000   0.0000000   0.4037610   0.0000000   2.7928460   0.4037610   0.0000000   2.7928460   0.4037610
 AtZNuc=   7.0000000   6.0000000   6.0000000   7.0000000   6.0000000   1.0000000   7.0000000   6.0000000   1.0000000   7.0000000

  Atom        11          12          13          14          15          16          17          18          19          20
 IAtWgt=          12          12          14           1           1           1           1           1          14          12
 AtmWgt=  12.0000000  12.0000000  14.0030740   1.0078250   1.0078250   1.0078250   1.0078250   1.0078250  14.0030740  12.0000000
 NucSpn=           0           0           2           1           1           1           1           1           2           0
 AtZEff=  -0.0000000  -0.0000000  -0.0000000  -0.0000000  -0.0000000  -0.0000000  -0.0000000  -0.0000000  -0.0000000  -0.0000000
 NQMom=    0.0000000   0.0000000   2.0440000   0.0000000   0.0000000   0.0000000   0.0000000   0.0000000   2.0440000   0.0000000
 NMagM=    0.0000000   0.0000000   0.4037610   2.7928460   2.7928460   2.7928460   2.7928460   2.7928460   0.4037610   0.0000000
 AtZNuc=   6.0000000   6.0000000   7.0000000   1.0000000   1.0000000   1.0000000   1.0000000   1.0000000   7.0000000   6.0000000

  Atom        21          22          23          24          25          26          27          28          29          30
 IAtWgt=          12          14           1           1          14          12          14           1          12          16
 AtmWgt=  12.0000000  14.0030740   1.0078250   1.0078250  14.0030740  12.0000000  14.0030740   1.0078250  12.0000000  15.9949146
 NucSpn=           0           2           1           1           2           0           2           1           0           0
 AtZEff=  -0.0000000  -0.0000000  -0.0000000  -0.0000000  -0.0000000  -0.0000000  -0.0000000  -0.0000000  -0.0000000  -0.0000000
 NQMom=    0.0000000   2.0440000   0.0000000   0.0000000   2.0440000   0.0000000   2.0440000   0.0000000   0.0000000   0.0000000
 NMagM=    0.0000000   0.4037610   2.7928460   2.7928460   0.4037610   0.0000000   0.4037610   2.7928460   0.0000000   0.0000000
 AtZNuc=   6.0000000   7.0000000   1.0000000   1.0000000   7.0000000   6.0000000   7.0000000   1.0000000   6.0000000   8.0000000

  Atom        31          32          33          34          35          36          37          38          39          40
 IAtWgt=          12          14          12           1           1           1           1           1           1           1
 AtmWgt=  12.0000000  14.0030740  12.0000000   1.0078250   1.0078250   1.0078250   1.0078250   1.0078250   1.0078250   1.0078250
 NucSpn=           0           2           0           1           1           1           1           1           1           1
 AtZEff=  -0.0000000  -0.0000000  -0.0000000  -0.0000000  -0.0000000  -0.0000000  -0.0000000  -0.0000000  -0.0000000  -0.0000000
 NQMom=    0.0000000   2.0440000   0.0000000   0.0000000   0.0000000   0.0000000   0.0000000   0.0000000   0.0000000   0.0000000
 NMagM=    0.0000000   0.4037610   0.0000000   2.7928460   2.7928460   2.7928460   2.7928460   2.7928460   2.7928460   2.7928460
 AtZNuc=   6.0000000   7.0000000   6.0000000   1.0000000   1.0000000   1.0000000   1.0000000   1.0000000   1.0000000   1.0000000

  Atom        41          42          43          44          45          46          47          48          49          50
 IAtWgt=           1          12          16          12           1          14          16          12           1          12
 AtmWgt=   1.0078250  12.0000000  15.9949146  12.0000000   1.0078250  14.0030740  15.9949146  12.0000000   1.0078250  12.0000000
 NucSpn=           1           0           0           0           1           2           0           0           1           0
 AtZEff=  -0.0000000  -0.0000000  -0.0000000  -0.0000000  -0.0000000  -0.0000000  -0.0000000  -0.0000000  -0.0000000  -0.0000000
 NQMom=    0.0000000   0.0000000   0.0000000   0.0000000   0.0000000   2.0440000   0.0000000   0.0000000   0.0000000   0.0000000
 NMagM=    2.7928460   0.0000000   0.0000000   0.0000000   2.7928460   0.4037610   0.0000000   0.0000000   2.7928460   0.0000000
 AtZNuc=   1.0000000   6.0000000   8.0000000   6.0000000   1.0000000   7.0000000   8.0000000   6.0000000   1.0000000   6.0000000

  Atom        51          52          53          54          55          56          57          58          59          60
 IAtWgt=          12          14           1           1           1           1           1          14          12          12
 AtmWgt=  12.0000000  14.0030740   1.0078250   1.0078250   1.0078250   1.0078250   1.0078250  14.0030740  12.0000000  12.0000000
 NucSpn=           0           2           1           1           1           1           1           2           0           0
 AtZEff=  -0.0000000  -0.0000000  -0.0000000  -0.0000000  -0.0000000  -0.0000000  -0.0000000  -0.0000000  -0.0000000  -0.0000000
 NQMom=    0.0000000   2.0440000   0.0000000   0.0000000   0.0000000   0.0000000   0.0000000   2.0440000   0.0000000   0.0000000
 NMagM=    0.0000000   0.4037610   2.7928460   2.7928460   2.7928460   2.7928460   2.7928460   0.4037610   0.0000000   0.0000000
 AtZNuc=   6.0000000   7.0000000   1.0000000   1.0000000   1.0000000   1.0000000   1.0000000   7.0000000   6.0000000   6.0000000

  Atom        61          62          63          64          65          66          67          68          69          70
 IAtWgt=          14           1          12          14           1          12          14          12          12          14
 AtmWgt=  14.0030740   1.0078250  12.0000000  14.0030740   1.0078250  12.0000000  14.0030740  12.0000000  12.0000000  14.0030740
 NucSpn=           2           1           0           2           1           0           2           0           0           2
 AtZEff=  -0.0000000  -0.0000000  -0.0000000  -0.0000000  -0.0000000  -0.0000000  -0.0000000  -0.0000000  -0.0000000  -0.0000000
 NQMom=    2.0440000   0.0000000   0.0000000   2.0440000   0.0000000   0.0000000   2.0440000   0.0000000   0.0000000   2.0440000
 NMagM=    0.4037610   2.7928460   0.0000000   0.4037610   2.7928460   0.0000000   0.4037610   0.0000000   0.0000000   0.4037610
 AtZNuc=   7.0000000   1.0000000   6.0000000   7.0000000   1.0000000   6.0000000   7.0000000   6.0000000   6.0000000   7.0000000
 Leave Link  101 at Sun Jan 21 15:34:15 2018, MaxMem=  4294967296 cpu:               7.5 elap:               0.3
 (Enter /share/apps/g16/l202.exe)
 Stoichiometry    C23H27N17O3
 Framework group  C1[X(C23H27N17O3)]
 Deg. of freedom   204
 Full point group                 C1      NOp   1
 Largest Abelian subgroup         C1      NOp   1
 Largest concise Abelian subgroup C1      NOp   1
                         Standard orientation:                         
 ---------------------------------------------------------------------
 Center     Atomic      Atomic             Coordinates (Angstroms)
 Number     Number       Type             X           Y           Z
 ---------------------------------------------------------------------
      1          7           0       -5.198379   -2.110794    0.950997
      2          6           0       -6.541164   -1.809046    1.483802
      3          6           0       -3.024888   -2.152022    0.617050
      4          7           0       -3.578298   -3.009038   -0.323151
      5          6           0       -4.865604   -2.949899   -0.084327
      6          1           0       -5.624946   -3.502786   -0.638091
      7          7           0       -1.488609   -0.899666    1.895497
      8          6           0       -2.544655   -0.441505    2.575533
      9          1           0       -2.313653    0.260855    3.375284
     10          7           0       -3.837120   -0.719383    2.416742
     11          6           0       -4.011150   -1.590970    1.409536
     12          6           0       -1.696890   -1.775281    0.888024
     13          7           0       -0.644000   -2.233761    0.208035
     14          1           0       -0.751236   -2.883283   -0.545511
     15          1           0        0.287369   -1.943778    0.428507
     16          1           0       -6.968296   -2.651808    1.811667
     17          1           0       -6.462418   -1.160309    2.240153
     18          1           0       -7.106499   -1.409843    0.761982
     19          7           0       -4.720181    2.255359   -0.534400
     20          6           0       -3.347153    2.286240   -0.578096
     21          6           0       -5.578369    3.290651    0.075830
     22          7           0       -0.349075    3.873321    0.166492
     23          1           0        0.627220    3.706672    0.031172
     24          1           0       -0.603885    4.715142    0.643079
     25          7           0       -2.557695    3.259704   -0.074947
     26          6           0       -1.275705    3.007437   -0.271117
     27          7           0       -0.801086    1.888070   -0.910854
     28          1           0        0.195798    1.777845   -1.015897
     29          6           0       -1.595028    0.873560   -1.436490
     30          8           0       -1.066166   -0.095272   -1.995407
     31          6           0       -2.974740    1.130524   -1.233399
     32          7           0       -4.091488    0.388995   -1.593854
     33          6           0       -5.101292    1.093366   -1.159834
     34          1           0       -6.148723    0.810418   -1.269881
     35          1           0       -6.123385    2.884735    0.808630
     36          1           0       -5.004593    4.017004    0.451927
     37          1           0       -6.186542    3.673650   -0.618616
     38          1           0        5.259801    1.507646   -0.647565
     39          1           0        5.204266    2.102587   -2.305153
     40          1           0        3.951803    2.575909   -1.156812
     41          1           0        4.143582   -2.538547   -2.998941
     42          6           0        3.660009   -1.624320   -2.654609
     43          8           0        1.460363   -2.481067   -2.888418
     44          6           0        2.231578   -1.570354   -2.587381
     45          1           0        0.716829   -0.292009   -2.077803
     46          7           0        1.722401   -0.368342   -2.138890
     47          8           0        1.892498    1.764894   -1.378913
     48          6           0        2.434133    0.743491   -1.763663
     49          1           0        5.470074   -0.545924   -2.328182
     50          6           0        4.381418   -0.556087   -2.295351
     51          6           0        4.608371    1.776183   -1.465855
     52          7           0        3.805919    0.613672   -1.856227
     53          1           0        5.644209    1.624854    4.226151
     54          1           0        4.274337    2.247606    3.595504
     55          1           0        5.722195    2.648372    2.957394
     56          1           0        2.800056   -3.058023   -0.778549
     57          1           0        4.478328   -2.878342   -0.531147
     58          7           0        3.548537   -2.565026   -0.334838
     59          6           0        3.318099   -1.535436    0.482483
     60          6           0        3.939017    0.233028    1.948337
     61          7           0        2.679980    0.631869    2.193633
     62          1           0        0.762976    0.129350    1.670975
     63          6           0        1.811805   -0.127053    1.527890
     64          7           0        2.040628   -1.158705    0.708800
     65          1           0        7.165611    0.240726    2.151276
     66          6           0        6.122067    0.028872    1.916580
     67          7           0        5.717282   -0.928774    1.118622
     68          6           0        4.335043   -0.810455    1.129895
     69          6           0        5.192296    1.914353    3.382374
     70          7           0        5.098751    0.771241    2.453640
 ---------------------------------------------------------------------
 Rotational constants (GHZ):           0.1401115           0.0533507           0.0510164
 Leave Link  202 at Sun Jan 21 15:34:15 2018, MaxMem=  4294967296 cpu:               0.3 elap:               0.0
 (Enter /share/apps/g16/l301.exe)
 Standard basis: CC-pVDZ (5D, 7F)
 Ernie: Thresh=  0.10000D-02 Tol=  0.10000D-05 Strict=F.
 Ernie:  86 primitive shells out of 1081 were deleted.
 There are   780 symmetry adapted cartesian basis functions of A   symmetry.
 There are   737 symmetry adapted basis functions of A   symmetry.
   737 basis functions,  1608 primitive gaussians,   780 cartesian basis functions
   154 alpha electrons      154 beta electrons
       nuclear repulsion energy      5481.2192539884 Hartrees.
 IExCor= 4639 DFT=T Ex+Corr=wB97XD ExCW=0 ScaHFX=  1.000000
 ScaDFX=  1.000000  1.000000  1.000000  1.000000 ScalE2=  1.000000  1.000000
 IRadAn=      5 IRanWt=     -1 IRanGd=            0 ICorTp=0 IEmpDi=121
 HFx  wShort=  0.000000 wLong=  0.200000 cFull=  0.222036 cShort=  0.000000 cLong=  0.777964
 DFx  wShort=  0.000000 wLong=  0.200000 cFull=  0.000000 cShort=  0.000000 cLong=  1.000000
 NAtoms=   70 NActive=   70 NUniq=   70 SFac= 1.00D+00 NAtFMM=   60 NAOKFM=T Big=T
 Integral buffers will be    131072 words long.
 Raffenetti 2 integral format.
 Two-electron integral symmetry is turned on.
 R6Disp:  Grimme-D2 Dispersion energy=       -0.0686596472 Hartrees.
 Nuclear repulsion after empirical dispersion term =     5481.1505943411 Hartrees.
 Leave Link  301 at Sun Jan 21 15:34:15 2018, MaxMem=  4294967296 cpu:               2.1 elap:               0.1
 (Enter /share/apps/g16/l302.exe)
 NPDir=0 NMtPBC=     1 NCelOv=     1 NCel=       1 NClECP=     1 NCelD=      1
         NCelK=      1 NCelE2=     1 NClLst=     1 CellRange=     0.0.
 One-electron integrals computed using PRISM.
 One-electron integral symmetry used in STVInt
 GSVD:  received Info=                   1 from GESDD.
 NBasis=   737 RedAO= T EigKep=  6.82D-04  NBF=   737
 NBsUse=   737 1.00D-06 EigRej= -1.00D+00 NBFU=   737
 Precomputing XC quadrature grid using
 IXCGrd= 4 IRadAn=           5 IRanWt=          -1 IRanGd=           0 AccXCQ= 0.00D+00.
 Generated NRdTot=       0 NPtTot=           0 NUsed=           0 NTot=          32
 NSgBfM=   761   760   761   761   761 MxSgAt=    70 MxSgA2=    70.
 Leave Link  302 at Sun Jan 21 15:34:21 2018, MaxMem=  4294967296 cpu:             186.2 elap:               5.8
 (Enter /share/apps/g16/l303.exe)
 DipDrv:  MaxL=1.
 Leave Link  303 at Sun Jan 21 15:34:21 2018, MaxMem=  4294967296 cpu:              12.4 elap:               0.4
 (Enter /share/apps/g16/l401.exe)
 ExpMin= 1.22D-01 ExpMax= 1.17D+04 ExpMxC= 4.01D+02 IAcc=3 IRadAn=         5 AccDes= 0.00D+00
 Harris functional with IExCor= 4639 and IRadAn=       5 diagonalized for initial guess.
 HarFok:  IExCor= 4639 AccDes= 0.00D+00 IRadAn=         5 IDoV= 1 UseB2=F ITyADJ=14
 ICtDFT=  3500011 ScaDFX=  1.000000  1.000000  1.000000  1.000000
 FoFCou: FMM=F IPFlag=           0 FMFlag=      100000 FMFlg1=        2001
         NFxFlg=           0 DoJE=T BraDBF=F KetDBF=T FulRan=T
         wScrn=  0.000000 ICntrl=       500 IOpCl=  0 I1Cent=   200000004 NGrid=           0
         NMat0=    1 NMatS0=      1 NMatT0=    0 NMatD0=    1 NMtDS0=    0 NMtDT0=    0
 Petite list used in FoFCou.
 Harris En= -1963.86586213639    
 JPrj=0 DoOrth=F DoCkMO=F.
 Leave Link  401 at Sun Jan 21 15:34:34 2018, MaxMem=  4294967296 cpu:             395.3 elap:              12.4
 (Enter /share/apps/g16/l502.exe)
 Integral symmetry usage will be decided dynamically.
 Closed shell SCF:
 Using DIIS extrapolation, IDIIS=  1040.
 NGot=  4294967296 LenX=  4293717438 LenY=  4293108258
 Requested convergence on RMS density matrix=1.00D-08 within  20 cycles.
 Requested convergence on MAX density matrix=1.00D-06.
 Requested convergence on             energy=1.00D-06.
 No special actions if energy rises.
 Fock matrices will be formed incrementally for  20 cycles.
 Integral accuracy reduced to 1.0D-05 until final iterations.

 Cycle   1  Pass 0  IDiag  1:
 FoFJK:  IHMeth= 1 ICntrl=       0 DoSepK=T KAlg= 0 I1Cent=           0 FoldK=F
 IRaf=         1 NMat=       1 IRICut=       1 DoRegI=T DoRafI=F ISym2E= 0 IDoP0=0 IntGTp=1.
 FoFCou: FMM=T IPFlag=           0 FMFlag=      100000 FMFlg1=        2001
         NFxFlg=           0 DoJE=T BraDBF=F KetDBF=F FulRan=T
         wScrn=  0.000000 ICntrl=       500 IOpCl=  0 I1Cent=           0 NGrid=           0
         NMat0=    1 NMatS0=      1 NMatT0=    0 NMatD0=    1 NMtDS0=    0 NMtDT0=    0
 Symmetry not used in FoFCou.
 FMM levels:  10  Number of levels for PrismC:   9
 E= -2048.30649002608    
 DIIS: error= 2.56D-02 at cycle   1 NSaved=   1.
 NSaved= 1 IEnMin= 1 EnMin= -2048.30649002608     IErMin= 1 ErrMin= 2.56D-02
 ErrMax= 2.56D-02  0.00D+00 EMaxC= 1.00D-01 BMatC= 8.28D-01 BMatP= 8.28D-01
 IDIUse=3 WtCom= 7.44D-01 WtEn= 2.56D-01
 Coeff-Com:  0.100D+01
 Coeff-En:   0.100D+01
 Coeff:      0.100D+01
 Gap=     0.309 Goal=   None    Shift=    0.000
 GapD=    0.309 DampG=1.000 DampE=0.500 DampFc=0.5000 IDamp=-1.
 Damping current iteration by 5.00D-01
 RMSDP=1.55D-03 MaxDP=1.23D-01              OVMax= 1.37D-01

 Cycle   2  Pass 0  IDiag  1:
 RMSU=  7.73D-04    CP:  9.98D-01
 E= -2048.50188541048     Delta-E=       -0.195395384401 Rises=F Damp=T
 DIIS: error= 1.44D-02 at cycle   2 NSaved=   2.
 NSaved= 2 IEnMin= 2 EnMin= -2048.50188541048     IErMin= 2 ErrMin= 1.44D-02
 ErrMax= 1.44D-02  0.00D+00 EMaxC= 1.00D-01 BMatC= 1.44D-01 BMatP= 8.28D-01
 IDIUse=3 WtCom= 8.56D-01 WtEn= 1.44D-01
 Coeff-Com: -0.205D+00 0.120D+01
 Coeff-En:   0.000D+00 0.100D+01
 Coeff:     -0.175D+00 0.118D+01
 Gap=     0.337 Goal=   None    Shift=    0.000
 RMSDP=5.81D-04 MaxDP=3.31D-02 DE=-1.95D-01 OVMax= 1.20D-01

 Cycle   3  Pass 0  IDiag  1:
 RMSU=  5.67D-04    CP:  9.94D-01  1.15D+00
 E= -2048.67933085630     Delta-E=       -0.177445445818 Rises=F Damp=F
 DIIS: error= 5.80D-03 at cycle   3 NSaved=   3.
 NSaved= 3 IEnMin= 3 EnMin= -2048.67933085630     IErMin= 3 ErrMin= 5.80D-03
 ErrMax= 5.80D-03  0.00D+00 EMaxC= 1.00D-01 BMatC= 6.10D-02 BMatP= 1.44D-01
 IDIUse=3 WtCom= 9.42D-01 WtEn= 5.80D-02
 Coeff-Com: -0.232D+00 0.548D+00 0.684D+00
 Coeff-En:   0.000D+00 0.000D+00 0.100D+01
 Coeff:     -0.218D+00 0.516D+00 0.702D+00
 Gap=     0.274 Goal=   None    Shift=    0.000
 RMSDP=3.45D-04 MaxDP=3.08D-02 DE=-1.77D-01 OVMax= 5.17D-02

 Cycle   4  Pass 0  IDiag  1:
 RMSU=  1.99D-04    CP:  9.95D-01  1.43D+00  6.78D-01
 E= -2048.72568738377     Delta-E=       -0.046356527470 Rises=F Damp=F
 DIIS: error= 2.24D-03 at cycle   4 NSaved=   4.
 NSaved= 4 IEnMin= 4 EnMin= -2048.72568738377     IErMin= 4 ErrMin= 2.24D-03
 ErrMax= 2.24D-03  0.00D+00 EMaxC= 1.00D-01 BMatC= 8.30D-03 BMatP= 6.10D-02
 IDIUse=3 WtCom= 9.78D-01 WtEn= 2.24D-02
 Coeff-Com: -0.969D-01 0.188D+00 0.373D+00 0.537D+00
 Coeff-En:   0.000D+00 0.000D+00 0.488D-01 0.951D+00
 Coeff:     -0.948D-01 0.183D+00 0.365D+00 0.546D+00
 Gap=     0.279 Goal=   None    Shift=    0.000
 RMSDP=1.20D-04 MaxDP=1.04D-02 DE=-4.64D-02 OVMax= 1.37D-02

 Cycle   5  Pass 0  IDiag  1:
 RMSU=  6.12D-05    CP:  9.94D-01  1.41D+00  8.03D-01  6.32D-01
 E= -2048.73253112396     Delta-E=       -0.006843740186 Rises=F Damp=F
 DIIS: error= 4.93D-04 at cycle   5 NSaved=   5.
 NSaved= 5 IEnMin= 5 EnMin= -2048.73253112396     IErMin= 5 ErrMin= 4.93D-04
 ErrMax= 4.93D-04  0.00D+00 EMaxC= 1.00D-01 BMatC= 2.65D-04 BMatP= 8.30D-03
 IDIUse=3 WtCom= 9.95D-01 WtEn= 4.93D-03
 Coeff-Com: -0.246D-01 0.423D-01 0.117D+00 0.235D+00 0.630D+00
 Coeff-En:   0.000D+00 0.000D+00 0.000D+00 0.000D+00 0.100D+01
 Coeff:     -0.245D-01 0.421D-01 0.116D+00 0.234D+00 0.632D+00
 Gap=     0.279 Goal=   None    Shift=    0.000
 RMSDP=2.55D-05 MaxDP=1.60D-03 DE=-6.84D-03 OVMax= 3.14D-03

 Failed to achieve initial convergence to 1.0D-08 in  6 cycles.
 Switch to full accuracy anyway.
 Cycle   6  Pass 1  IDiag  1:
 E= -2048.73277113327     Delta-E=       -0.000240009312 Rises=F Damp=F
 DIIS: error= 2.56D-04 at cycle   1 NSaved=   1.
 NSaved= 1 IEnMin= 1 EnMin= -2048.73277113327     IErMin= 1 ErrMin= 2.56D-04
 ErrMax= 2.56D-04  0.00D+00 EMaxC= 1.00D-01 BMatC= 7.54D-05 BMatP= 7.54D-05
 IDIUse=3 WtCom= 9.97D-01 WtEn= 2.56D-03
 Coeff-Com:  0.100D+01
 Coeff-En:   0.100D+01
 Coeff:      0.100D+01
 Gap=     0.279 Goal=   None    Shift=    0.000
 RMSDP=2.55D-05 MaxDP=1.60D-03 DE=-2.40D-04 OVMax= 2.20D-03

 Cycle   7  Pass 1  IDiag  1:
 RMSU=  1.15D-04    CP:  1.00D+00
 E= -2048.73282723339     Delta-E=       -0.000056100124 Rises=F Damp=F
 DIIS: error= 2.38D-04 at cycle   2 NSaved=   2.
 NSaved= 2 IEnMin= 2 EnMin= -2048.73282723339     IErMin= 2 ErrMin= 2.38D-04
 ErrMax= 2.38D-04  0.00D+00 EMaxC= 1.00D-01 BMatC= 4.47D-05 BMatP= 7.54D-05
 IDIUse=3 WtCom= 9.98D-01 WtEn= 2.38D-03
 Coeff-Com:  0.412D+00 0.588D+00
 Coeff-En:   0.000D+00 0.100D+01
 Coeff:      0.411D+00 0.589D+00
 Gap=     0.279 Goal=   None    Shift=    0.000
 RMSDP=1.15D-05 MaxDP=1.02D-03 DE=-5.61D-05 OVMax= 1.46D-03

 Cycle   8  Pass 1  IDiag  1:
 RMSU=  1.11D-05    CP:  1.00D+00  1.03D+00
 E= -2048.73285963236     Delta-E=       -0.000032398963 Rises=F Damp=F
 DIIS: error= 9.08D-05 at cycle   3 NSaved=   3.
 NSaved= 3 IEnMin= 3 EnMin= -2048.73285963236     IErMin= 3 ErrMin= 9.08D-05
 ErrMax= 9.08D-05  0.00D+00 EMaxC= 1.00D-01 BMatC= 1.02D-05 BMatP= 4.47D-05
 IDIUse=1 WtCom= 1.00D+00 WtEn= 0.00D+00
 Coeff-Com: -0.203D-01 0.310D+00 0.711D+00
 Coeff:     -0.203D-01 0.310D+00 0.711D+00
 Gap=     0.279 Goal=   None    Shift=    0.000
 RMSDP=5.72D-06 MaxDP=4.67D-04 DE=-3.24D-05 OVMax= 5.13D-04

 Cycle   9  Pass 1  IDiag  1:
 RMSU=  3.92D-06    CP:  1.00D+00  1.05D+00  7.67D-01
 E= -2048.73286927185     Delta-E=       -0.000009639497 Rises=F Damp=F
 DIIS: error= 2.29D-05 at cycle   4 NSaved=   4.
 NSaved= 4 IEnMin= 4 EnMin= -2048.73286927185     IErMin= 4 ErrMin= 2.29D-05
 ErrMax= 2.29D-05  0.00D+00 EMaxC= 1.00D-01 BMatC= 4.89D-07 BMatP= 1.02D-05
 IDIUse=1 WtCom= 1.00D+00 WtEn= 0.00D+00
 Coeff-Com: -0.308D-01 0.829D-01 0.256D+00 0.692D+00
 Coeff:     -0.308D-01 0.829D-01 0.256D+00 0.692D+00
 Gap=     0.279 Goal=   None    Shift=    0.000
 RMSDP=1.50D-06 MaxDP=1.24D-04 DE=-9.64D-06 OVMax= 3.99D-04

 Cycle  10  Pass 1  IDiag  1:
 RMSU=  1.31D-06    CP:  1.00D+00  1.06D+00  8.01D-01  1.13D+00
 E= -2048.73287013543     Delta-E=       -0.000000863572 Rises=F Damp=F
 DIIS: error= 1.19D-05 at cycle   5 NSaved=   5.
 NSaved= 5 IEnMin= 5 EnMin= -2048.73287013543     IErMin= 5 ErrMin= 1.19D-05
 ErrMax= 1.19D-05  0.00D+00 EMaxC= 1.00D-01 BMatC= 1.24D-07 BMatP= 4.89D-07
 IDIUse=1 WtCom= 1.00D+00 WtEn= 0.00D+00
 Coeff-Com: -0.253D-02-0.583D-01-0.128D+00 0.207D+00 0.982D+00
 Coeff:     -0.253D-02-0.583D-01-0.128D+00 0.207D+00 0.982D+00
 Gap=     0.279 Goal=   None    Shift=    0.000
 RMSDP=1.29D-06 MaxDP=7.56D-05 DE=-8.64D-07 OVMax= 2.57D-04

 Cycle  11  Pass 1  IDiag  1:
 RMSU=  5.21D-07    CP:  1.00D+00  1.06D+00  8.12D-01  1.42D+00  1.19D+00
 E= -2048.73287041755     Delta-E=       -0.000000282129 Rises=F Damp=F
 DIIS: error= 6.20D-06 at cycle   6 NSaved=   6.
 NSaved= 6 IEnMin= 6 EnMin= -2048.73287041755     IErMin= 6 ErrMin= 6.20D-06
 ErrMax= 6.20D-06  0.00D+00 EMaxC= 1.00D-01 BMatC= 3.02D-08 BMatP= 1.24D-07
 IDIUse=1 WtCom= 1.00D+00 WtEn= 0.00D+00
 Coeff-Com:  0.497D-02-0.466D-01-0.119D+00-0.238D-02 0.530D+00 0.633D+00
 Coeff:      0.497D-02-0.466D-01-0.119D+00-0.238D-02 0.530D+00 0.633D+00
 Gap=     0.279 Goal=   None    Shift=    0.000
 RMSDP=4.04D-07 MaxDP=3.46D-05 DE=-2.82D-07 OVMax= 1.16D-04

 Cycle  12  Pass 1  IDiag  1:
 RMSU=  2.00D-07    CP:  1.00D+00  1.06D+00  8.14D-01  1.50D+00  1.33D+00
                    CP:  9.29D-01
 E= -2048.73287046340     Delta-E=       -0.000000045843 Rises=F Damp=F
 DIIS: error= 1.28D-06 at cycle   7 NSaved=   7.
 NSaved= 7 IEnMin= 7 EnMin= -2048.73287046340     IErMin= 7 ErrMin= 1.28D-06
 ErrMax= 1.28D-06  0.00D+00 EMaxC= 1.00D-01 BMatC= 9.65D-10 BMatP= 3.02D-08
 IDIUse=1 WtCom= 1.00D+00 WtEn= 0.00D+00
 Coeff-Com:  0.112D-02-0.682D-02-0.189D-01-0.796D-02 0.483D-01 0.136D+00
 Coeff-Com:  0.848D+00
 Coeff:      0.112D-02-0.682D-02-0.189D-01-0.796D-02 0.483D-01 0.136D+00
 Coeff:      0.848D+00
 Gap=     0.279 Goal=   None    Shift=    0.000
 RMSDP=9.91D-08 MaxDP=5.53D-06 DE=-4.58D-08 OVMax= 2.79D-05

 Cycle  13  Pass 1  IDiag  1:
 RMSU=  5.72D-08    CP:  1.00D+00  1.06D+00  8.14D-01  1.51D+00  1.35D+00
                    CP:  1.03D+00  1.15D+00
 E= -2048.73287046553     Delta-E=       -0.000000002135 Rises=F Damp=F
 DIIS: error= 6.67D-07 at cycle   8 NSaved=   8.
 NSaved= 8 IEnMin= 8 EnMin= -2048.73287046553     IErMin= 8 ErrMin= 6.67D-07
 ErrMax= 6.67D-07  0.00D+00 EMaxC= 1.00D-01 BMatC= 4.12D-10 BMatP= 9.65D-10
 IDIUse=1 WtCom= 1.00D+00 WtEn= 0.00D+00
 Coeff-Com: -0.837D-03 0.978D-02 0.241D-01-0.196D-02-0.128D+00-0.104D+00
 Coeff-Com:  0.444D+00 0.757D+00
 Coeff:     -0.837D-03 0.978D-02 0.241D-01-0.196D-02-0.128D+00-0.104D+00
 Coeff:      0.444D+00 0.757D+00
 Gap=     0.279 Goal=   None    Shift=    0.000
 RMSDP=5.68D-08 MaxDP=2.99D-06 DE=-2.13D-09 OVMax= 1.57D-05

 Cycle  14  Pass 1  IDiag  1:
 RMSU=  3.15D-08    CP:  1.00D+00  1.06D+00  8.14D-01  1.51D+00  1.36D+00
                    CP:  1.08D+00  1.32D+00  1.12D+00
 E= -2048.73287046666     Delta-E=       -0.000000001132 Rises=F Damp=F
 DIIS: error= 2.31D-07 at cycle   9 NSaved=   9.
 NSaved= 9 IEnMin= 9 EnMin= -2048.73287046666     IErMin= 9 ErrMin= 2.31D-07
 ErrMax= 2.31D-07  0.00D+00 EMaxC= 1.00D-01 BMatC= 4.29D-11 BMatP= 4.12D-10
 IDIUse=1 WtCom= 1.00D+00 WtEn= 0.00D+00
 Coeff-Com: -0.502D-03 0.515D-02 0.130D-01 0.428D-03-0.617D-01-0.615D-01
 Coeff-Com:  0.919D-01 0.317D+00 0.696D+00
 Coeff:     -0.502D-03 0.515D-02 0.130D-01 0.428D-03-0.617D-01-0.615D-01
 Coeff:      0.919D-01 0.317D+00 0.696D+00
 Gap=     0.279 Goal=   None    Shift=    0.000
 RMSDP=1.66D-08 MaxDP=9.40D-07 DE=-1.13D-09 OVMax= 4.56D-06

 Cycle  15  Pass 1  IDiag  1:
 RMSU=  1.04D-08    CP:  1.00D+00  1.06D+00  8.14D-01  1.51D+00  1.36D+00
                    CP:  1.09D+00  1.35D+00  1.27D+00  1.11D+00
 E= -2048.73287046663     Delta-E=        0.000000000031 Rises=F Damp=F
 DIIS: error= 7.36D-08 at cycle  10 NSaved=  10.
 NSaved=10 IEnMin= 9 EnMin= -2048.73287046666     IErMin=10 ErrMin= 7.36D-08
 ErrMax= 7.36D-08  0.00D+00 EMaxC= 1.00D-01 BMatC= 6.90D-12 BMatP= 4.29D-11
 IDIUse=1 WtCom= 1.00D+00 WtEn= 0.00D+00
 Coeff-Com:  0.116D-04-0.404D-03-0.826D-03 0.220D-03 0.657D-02 0.205D-02
 Coeff-Com: -0.606D-01-0.575D-01 0.265D+00 0.846D+00
 Coeff:      0.116D-04-0.404D-03-0.826D-03 0.220D-03 0.657D-02 0.205D-02
 Coeff:     -0.606D-01-0.575D-01 0.265D+00 0.846D+00
 Gap=     0.279 Goal=   None    Shift=    0.000
 RMSDP=8.32D-09 MaxDP=4.60D-07 DE= 3.09D-11 OVMax= 2.35D-06

 SCF Done:  E(RwB97XD) =  -2048.73287047     A.U. after   15 cycles
            NFock= 15  Conv=0.83D-08     -V/T= 2.0054
 KE= 2.037792431713D+03 PE=-1.574298375401D+04 EE= 6.175307857490D+03
 Leave Link  502 at Sun Jan 21 15:45:36 2018, MaxMem=  4294967296 cpu:           20464.9 elap:             662.3
 (Enter /share/apps/g16/l601.exe)
 Copying SCF densities to generalized density rwf, IOpCl= 0 IROHF=0.

 **********************************************************************

            Population analysis using the SCF density.

 **********************************************************************

 Orbital symmetries:
       Occupied  (A) (A) (A) (A) (A) (A) (A) (A) (A) (A) (A) (A)
                 (A) (A) (A) (A) (A) (A) (A) (A) (A) (A) (A) (A)
                 (A) (A) (A) (A) (A) (A) (A) (A) (A) (A) (A) (A)
                 (A) (A) (A) (A) (A) (A) (A) (A) (A) (A) (A) (A)
                 (A) (A) (A) (A) (A) (A) (A) (A) (A) (A) (A) (A)
                 (A) (A) (A) (A) (A) (A) (A) (A) (A) (A) (A) (A)
                 (A) (A) (A) (A) (A) (A) (A) (A) (A) (A) (A) (A)
                 (A) (A) (A) (A) (A) (A) (A) (A) (A) (A) (A) (A)
                 (A) (A) (A) (A) (A) (A) (A) (A) (A) (A) (A) (A)
                 (A) (A) (A) (A) (A) (A) (A) (A) (A) (A) (A) (A)
                 (A) (A) (A) (A) (A) (A) (A) (A) (A) (A) (A) (A)
                 (A) (A) (A) (A) (A) (A) (A) (A) (A) (A) (A) (A)
                 (A) (A) (A) (A) (A) (A) (A) (A) (A) (A)
       Virtual   (A) (A) (A) (A) (A) (A) (A) (A) (A) (A) (A) (A)
                 (A) (A) (A) (A) (A) (A) (A) (A) (A) (A) (A) (A)
                 (A) (A) (A) (A) (A) (A) (A) (A) (A) (A) (A) (A)
                 (A) (A) (A) (A) (A) (A) (A) (A) (A) (A) (A) (A)
                 (A) (A) (A) (A) (A) (A) (A) (A) (A) (A) (A) (A)
                 (A) (A) (A) (A) (A) (A) (A) (A) (A) (A) (A) (A)
                 (A) (A) (A) (A) (A) (A) (A) (A) (A) (A) (A) (A)
                 (A) (A) (A) (A) (A) (A) (A) (A) (A) (A) (A) (A)
                 (A) (A) (A) (A) (A) (A) (A) (A) (A) (A) (A) (A)
                 (A) (A) (A) (A) (A) (A) (A) (A) (A) (A) (A) (A)
                 (A) (A) (A) (A) (A) (A) (A) (A) (A) (A) (A) (A)
                 (A) (A) (A) (A) (A) (A) (A) (A) (A) (A) (A) (A)
                 (A) (A) (A) (A) (A) (A) (A) (A) (A) (A) (A) (A)
                 (A) (A) (A) (A) (A) (A) (A) (A) (A) (A) (A) (A)
                 (A) (A) (A) (A) (A) (A) (A) (A) (A) (A) (A) (A)
                 (A) (A) (A) (A) (A) (A) (A) (A) (A) (A) (A) (A)
                 (A) (A) (A) (A) (A) (A) (A) (A) (A) (A) (A) (A)
                 (A) (A) (A) (A) (A) (A) (A) (A) (A) (A) (A) (A)
                 (A) (A) (A) (A) (A) (A) (A) (A) (A) (A) (A) (A)
                 (A) (A) (A) (A) (A) (A) (A) (A) (A) (A) (A) (A)
                 (A) (A) (A) (A) (A) (A) (A) (A) (A) (A) (A) (A)
                 (A) (A) (A) (A) (A) (A) (A) (A) (A) (A) (A) (A)
                 (A) (A) (A) (A) (A) (A) (A) (A) (A) (A) (A) (A)
                 (A) (A) (A) (A) (A) (A) (A) (A) (A) (A) (A) (A)
                 (A) (A) (A) (A) (A) (A) (A) (A) (A) (A) (A) (A)
                 (A) (A) (A) (A) (A) (A) (A) (A) (A) (A) (A) (A)
                 (A) (A) (A) (A) (A) (A) (A) (A) (A) (A) (A) (A)
                 (A) (A) (A) (A) (A) (A) (A) (A) (A) (A) (A) (A)
                 (A) (A) (A) (A) (A) (A) (A) (A) (A) (A) (A) (A)
                 (A) (A) (A) (A) (A) (A) (A) (A) (A) (A) (A) (A)
                 (A) (A) (A) (A) (A) (A) (A) (A) (A) (A) (A) (A)
                 (A) (A) (A) (A) (A) (A) (A) (A) (A) (A) (A) (A)
                 (A) (A) (A) (A) (A) (A) (A) (A) (A) (A) (A) (A)
                 (A) (A) (A) (A) (A) (A) (A) (A) (A) (A) (A) (A)
                 (A) (A) (A) (A) (A) (A) (A) (A) (A) (A) (A) (A)
                 (A) (A) (A) (A) (A) (A) (A) (A) (A) (A) (A) (A)
                 (A) (A) (A) (A) (A) (A) (A) (A) (A) (A) (A) (A)
                 (A) (A) (A) (A) (A) (A) (A) (A) (A) (A) (A) (A)
                 (A) (A) (A) (A) (A) (A) (A) (A) (A) (A) (A) (A)
                 (A) (A) (A) (A) (A) (A) (A) (A) (A) (A) (A) (A)
                 (A) (A) (A) (A) (A) (A) (A) (A) (A) (A) (A) (A)
                 (A) (A) (A) (A) (A) (A) (A) (A) (A) (A) (A) (A)
                 (A) (A) (A) (A) (A) (A) (A) (A) (A) (A) (A) (A)
                 (A) (A) (A) (A) (A) (A) (A) (A) (A) (A) (A) (A)
                 (A) (A) (A) (A) (A) (A) (A) (A) (A) (A) (A) (A)
                 (A) (A) (A) (A) (A) (A) (A) (A) (A) (A) (A) (A)
                 (A) (A) (A) (A) (A) (A) (A) (A) (A) (A) (A) (A)
                 (A) (A) (A) (A) (A) (A) (A) (A) (A) (A) (A) (A)
                 (A) (A) (A) (A) (A) (A) (A)
 The electronic state is 1-A.
 Alpha  occ. eigenvalues --  -19.25820 -19.22772 -19.20837 -14.52321 -14.52279
 Alpha  occ. eigenvalues --  -14.49090 -14.48190 -14.47965 -14.47657 -14.47120
 Alpha  occ. eigenvalues --  -14.46916 -14.45348 -14.44116 -14.44056 -14.42247
 Alpha  occ. eigenvalues --  -14.41792 -14.41264 -14.40633 -14.40597 -14.39999
 Alpha  occ. eigenvalues --  -10.45383 -10.41489 -10.40591 -10.39615 -10.38465
 Alpha  occ. eigenvalues --  -10.37823 -10.37126 -10.36994 -10.35572 -10.35063
 Alpha  occ. eigenvalues --  -10.35019 -10.34643 -10.33710 -10.33705 -10.33425
 Alpha  occ. eigenvalues --  -10.32871 -10.32772 -10.32524 -10.31267 -10.31173
 Alpha  occ. eigenvalues --  -10.30741 -10.28404 -10.28000  -1.19397  -1.15030
 Alpha  occ. eigenvalues --   -1.13687  -1.13440  -1.10880  -1.10735  -1.09395
 Alpha  occ. eigenvalues --   -1.09023  -1.08800  -1.04716  -1.04641  -1.02664
 Alpha  occ. eigenvalues --   -1.00840  -1.00023  -0.99973  -0.98797  -0.96889
 Alpha  occ. eigenvalues --   -0.96753  -0.96338  -0.92335  -0.91049  -0.87444
 Alpha  occ. eigenvalues --   -0.85725  -0.84407  -0.83579  -0.83476  -0.82777
 Alpha  occ. eigenvalues --   -0.81904  -0.78910  -0.76873  -0.74908  -0.74659
 Alpha  occ. eigenvalues --   -0.73887  -0.73487  -0.72448  -0.70635  -0.70255
 Alpha  occ. eigenvalues --   -0.67656  -0.66928  -0.66341  -0.65843  -0.64811
 Alpha  occ. eigenvalues --   -0.64241  -0.63734  -0.62867  -0.62273  -0.62036
 Alpha  occ. eigenvalues --   -0.60619  -0.60265  -0.60110  -0.59352  -0.59229
 Alpha  occ. eigenvalues --   -0.59050  -0.58618  -0.56921  -0.56183  -0.56094
 Alpha  occ. eigenvalues --   -0.55975  -0.55206  -0.54950  -0.54456  -0.54189
 Alpha  occ. eigenvalues --   -0.53906  -0.53748  -0.53499  -0.53413  -0.53235
 Alpha  occ. eigenvalues --   -0.52598  -0.52470  -0.51393  -0.50491  -0.50386
 Alpha  occ. eigenvalues --   -0.49961  -0.49701  -0.49637  -0.49431  -0.49174
 Alpha  occ. eigenvalues --   -0.48726  -0.48552  -0.48167  -0.47943  -0.47591
 Alpha  occ. eigenvalues --   -0.46551  -0.46015  -0.45432  -0.44471  -0.42911
 Alpha  occ. eigenvalues --   -0.40676  -0.40526  -0.39460  -0.38056  -0.37549
 Alpha  occ. eigenvalues --   -0.37496  -0.37351  -0.36668  -0.36210  -0.34475
 Alpha  occ. eigenvalues --   -0.34316  -0.33955  -0.33854  -0.33111  -0.33012
 Alpha  occ. eigenvalues --   -0.32919  -0.32616  -0.32543  -0.32072  -0.30480
 Alpha  occ. eigenvalues --   -0.30077  -0.28596  -0.25903  -0.25148
 Alpha virt. eigenvalues --    0.02776   0.04377   0.07261   0.08135   0.08474
 Alpha virt. eigenvalues --    0.09114   0.09482   0.10551   0.11408   0.12038
 Alpha virt. eigenvalues --    0.13011   0.13799   0.14334   0.14634   0.15316
 Alpha virt. eigenvalues --    0.15363   0.16330   0.17200   0.17797   0.18127
 Alpha virt. eigenvalues --    0.18398   0.18965   0.19707   0.20328   0.20588
 Alpha virt. eigenvalues --    0.20703   0.21017   0.21339   0.21540   0.22056
 Alpha virt. eigenvalues --    0.22120   0.22733   0.23035   0.23354   0.23500
 Alpha virt. eigenvalues --    0.23713   0.24290   0.24456   0.25189   0.25431
 Alpha virt. eigenvalues --    0.26047   0.26461   0.27382   0.27589   0.27735
 Alpha virt. eigenvalues --    0.28969   0.29130   0.29647   0.30398   0.30805
 Alpha virt. eigenvalues --    0.31376   0.31834   0.32362   0.32822   0.33165
 Alpha virt. eigenvalues --    0.33950   0.34429   0.35300   0.36061   0.36197
 Alpha virt. eigenvalues --    0.36661   0.37364   0.37728   0.38810   0.39308
 Alpha virt. eigenvalues --    0.39537   0.40253   0.41015   0.41272   0.41525
 Alpha virt. eigenvalues --    0.41908   0.42418   0.43234   0.43879   0.44255
 Alpha virt. eigenvalues --    0.44527   0.45630   0.46178   0.46635   0.46919
 Alpha virt. eigenvalues --    0.47054   0.47319   0.48034   0.48387   0.48960
 Alpha virt. eigenvalues --    0.49724   0.50290   0.50617   0.51072   0.51217
 Alpha virt. eigenvalues --    0.51598   0.51736   0.52225   0.52421   0.52972
 Alpha virt. eigenvalues --    0.53153   0.53951   0.54405   0.54930   0.55178
 Alpha virt. eigenvalues --    0.55670   0.55896   0.56427   0.57040   0.57459
 Alpha virt. eigenvalues --    0.57661   0.58161   0.58838   0.59300   0.59688
 Alpha virt. eigenvalues --    0.59872   0.60470   0.60751   0.60941   0.61054
 Alpha virt. eigenvalues --    0.61593   0.62041   0.62423   0.62452   0.62955
 Alpha virt. eigenvalues --    0.63550   0.63707   0.64725   0.64911   0.65156
 Alpha virt. eigenvalues --    0.65678   0.65955   0.66675   0.67181   0.67338
 Alpha virt. eigenvalues --    0.67702   0.68404   0.68682   0.68931   0.69213
 Alpha virt. eigenvalues --    0.69891   0.70789   0.70962   0.71336   0.71726
 Alpha virt. eigenvalues --    0.72131   0.72463   0.72719   0.72973   0.73969
 Alpha virt. eigenvalues --    0.74031   0.74464   0.74872   0.75184   0.75329
 Alpha virt. eigenvalues --    0.75675   0.75966   0.76320   0.76565   0.76934
 Alpha virt. eigenvalues --    0.77068   0.77370   0.77802   0.78191   0.78481
 Alpha virt. eigenvalues --    0.79406   0.79742   0.80322   0.80496   0.80863
 Alpha virt. eigenvalues --    0.81119   0.81789   0.82028   0.82191   0.82827
 Alpha virt. eigenvalues --    0.83066   0.83759   0.83990   0.84357   0.85030
 Alpha virt. eigenvalues --    0.85150   0.86048   0.86367   0.86407   0.87488
 Alpha virt. eigenvalues --    0.87704   0.88189   0.88452   0.89189   0.89620
 Alpha virt. eigenvalues --    0.90007   0.90403   0.90591   0.90840   0.91897
 Alpha virt. eigenvalues --    0.92211   0.92741   0.92887   0.93090   0.93775
 Alpha virt. eigenvalues --    0.94846   0.95217   0.95324   0.95760   0.96814
 Alpha virt. eigenvalues --    0.97043   0.97334   0.97913   0.98151   0.98543
 Alpha virt. eigenvalues --    0.98883   0.99201   0.99468   1.00213   1.00567
 Alpha virt. eigenvalues --    1.01171   1.01368   1.02002   1.02224   1.03112
 Alpha virt. eigenvalues --    1.03175   1.03852   1.04250   1.04328   1.04760
 Alpha virt. eigenvalues --    1.05105   1.05387   1.06245   1.06988   1.07139
 Alpha virt. eigenvalues --    1.07831   1.08127   1.08688   1.09440   1.10541
 Alpha virt. eigenvalues --    1.11031   1.11281   1.11669   1.13177   1.13436
 Alpha virt. eigenvalues --    1.13555   1.14345   1.14630   1.14934   1.15208
 Alpha virt. eigenvalues --    1.15645   1.16422   1.16762   1.17047   1.17779
 Alpha virt. eigenvalues --    1.18189   1.18293   1.19157   1.19391   1.19749
 Alpha virt. eigenvalues --    1.19793   1.20481   1.20757   1.21364   1.21388
 Alpha virt. eigenvalues --    1.22155   1.22445   1.22524   1.23125   1.23194
 Alpha virt. eigenvalues --    1.23409   1.23689   1.23792   1.24209   1.24522
 Alpha virt. eigenvalues --    1.25698   1.25815   1.26815   1.27630   1.28190
 Alpha virt. eigenvalues --    1.29121   1.29505   1.29814   1.30170   1.30315
 Alpha virt. eigenvalues --    1.31211   1.31853   1.32977   1.33301   1.34076
 Alpha virt. eigenvalues --    1.34433   1.34802   1.36139   1.36504   1.36655
 Alpha virt. eigenvalues --    1.37813   1.38113   1.39280   1.39361   1.40460
 Alpha virt. eigenvalues --    1.40678   1.41287   1.41661   1.42165   1.43995
 Alpha virt. eigenvalues --    1.44552   1.45524   1.45759   1.46327   1.46732
 Alpha virt. eigenvalues --    1.48269   1.48635   1.49171   1.50059   1.50204
 Alpha virt. eigenvalues --    1.51639   1.52741   1.52966   1.53528   1.54076
 Alpha virt. eigenvalues --    1.54525   1.55849   1.56116   1.56395   1.57321
 Alpha virt. eigenvalues --    1.57708   1.58633   1.59059   1.59666   1.60070
 Alpha virt. eigenvalues --    1.60987   1.61617   1.62006   1.62707   1.62784
 Alpha virt. eigenvalues --    1.64011   1.64294   1.64847   1.65328   1.65669
 Alpha virt. eigenvalues --    1.66263   1.67354   1.68064   1.68842   1.69382
 Alpha virt. eigenvalues --    1.69498   1.70202   1.70376   1.70776   1.71512
 Alpha virt. eigenvalues --    1.71998   1.72352   1.72797   1.73113   1.73519
 Alpha virt. eigenvalues --    1.74080   1.74134   1.74916   1.75118   1.75614
 Alpha virt. eigenvalues --    1.75720   1.76006   1.76169   1.76413   1.77308
 Alpha virt. eigenvalues --    1.77595   1.77796   1.77972   1.78407   1.78879
 Alpha virt. eigenvalues --    1.79093   1.79589   1.80175   1.80265   1.80325
 Alpha virt. eigenvalues --    1.80818   1.80872   1.81512   1.81948   1.82250
 Alpha virt. eigenvalues --    1.82503   1.83063   1.83232   1.83920   1.84350
 Alpha virt. eigenvalues --    1.84907   1.85591   1.85731   1.86105   1.87247
 Alpha virt. eigenvalues --    1.87645   1.88010   1.88403   1.89286   1.89568
 Alpha virt. eigenvalues --    1.89859   1.90278   1.90849   1.91358   1.92158
 Alpha virt. eigenvalues --    1.92461   1.92942   1.93298   1.93456   1.93923
 Alpha virt. eigenvalues --    1.94889   1.95904   1.96547   1.96824   1.97929
 Alpha virt. eigenvalues --    1.98279   1.98612   2.00200   2.00327   2.00613
 Alpha virt. eigenvalues --    2.01745   2.02044   2.02269   2.02813   2.03785
 Alpha virt. eigenvalues --    2.04334   2.05510   2.06501   2.06913   2.07416
 Alpha virt. eigenvalues --    2.08179   2.08397   2.08734   2.09443   2.09689
 Alpha virt. eigenvalues --    2.10076   2.10953   2.11189   2.12415   2.12716
 Alpha virt. eigenvalues --    2.12973   2.14542   2.15292   2.16813   2.17384
 Alpha virt. eigenvalues --    2.18085   2.18248   2.19351   2.21317   2.21402
 Alpha virt. eigenvalues --    2.21823   2.22082   2.22820   2.23492   2.23591
 Alpha virt. eigenvalues --    2.24363   2.24489   2.25492   2.26236   2.26542
 Alpha virt. eigenvalues --    2.27244   2.28059   2.28671   2.29462   2.29934
 Alpha virt. eigenvalues --    2.30283   2.30757   2.31382   2.31531   2.32085
 Alpha virt. eigenvalues --    2.32472   2.33055   2.33379   2.33572   2.34090
 Alpha virt. eigenvalues --    2.34363   2.35155   2.35497   2.36321   2.36913
 Alpha virt. eigenvalues --    2.38092   2.39255   2.39949   2.40700   2.41340
 Alpha virt. eigenvalues --    2.41618   2.42336   2.43123   2.44161   2.44243
 Alpha virt. eigenvalues --    2.44435   2.45236   2.45359   2.46447   2.46999
 Alpha virt. eigenvalues --    2.47864   2.49185   2.50141   2.50873   2.51231
 Alpha virt. eigenvalues --    2.52136   2.52804   2.54132   2.55024   2.55825
 Alpha virt. eigenvalues --    2.55985   2.57288   2.58772   2.59243   2.59464
 Alpha virt. eigenvalues --    2.60682   2.61726   2.62183   2.62414   2.63639
 Alpha virt. eigenvalues --    2.64485   2.64677   2.64944   2.65089   2.66190
 Alpha virt. eigenvalues --    2.66537   2.67055   2.67720   2.67955   2.68712
 Alpha virt. eigenvalues --    2.69464   2.70521   2.70685   2.71027   2.72105
 Alpha virt. eigenvalues --    2.72712   2.74437   2.75655   2.76084   2.76117
 Alpha virt. eigenvalues --    2.77114   2.77797   2.78528   2.79037   2.79125
 Alpha virt. eigenvalues --    2.79354   2.80156   2.80337   2.81072   2.81499
 Alpha virt. eigenvalues --    2.81874   2.82004   2.82239   2.83241   2.83924
 Alpha virt. eigenvalues --    2.84283   2.84963   2.85905   2.86050   2.86549
 Alpha virt. eigenvalues --    2.87417   2.87934   2.88738   2.90584   2.93083
 Alpha virt. eigenvalues --    2.93467   2.95131   2.95946   2.96410   2.98493
 Alpha virt. eigenvalues --    3.00152   3.00843   3.01450   3.04446   3.05327
 Alpha virt. eigenvalues --    3.06166   3.09858   3.10714   3.12749   3.14542
 Alpha virt. eigenvalues --    3.15406   3.15807   3.15999   3.17337   3.20927
 Alpha virt. eigenvalues --    3.21155   3.22218   3.23394   3.24440   3.25681
 Alpha virt. eigenvalues --    3.44976   3.47006   3.47610   3.49366   3.50457
 Alpha virt. eigenvalues --    3.53403   3.54266   3.55767   3.57394   3.59561
 Alpha virt. eigenvalues --    3.62351   3.70557   3.74883
          Condensed to atoms (all electrons):
 Mulliken charges:
               1
     1  N   -0.309539
     2  C    0.180733
     3  C    0.057395
     4  N   -0.251251
     5  C    0.140636
     6  H    0.024375
     7  N   -0.297745
     8  C    0.132826
     9  H    0.009581
    10  N   -0.289954
    11  C    0.241214
    12  C    0.092246
    13  N   -0.048458
    14  H    0.116958
    15  H    0.083836
    16  H    0.025045
    17  H    0.031533
    18  H    0.019517
    19  N   -0.310062
    20  C    0.259274
    21  C    0.181608
    22  N   -0.124094
    23  H    0.117728
    24  H    0.119031
    25  N   -0.312108
    26  C    0.250035
    27  N   -0.150325
    28  H    0.119870
    29  C    0.196233
    30  O   -0.322370
    31  C   -0.016583
    32  N   -0.221277
    33  C    0.122420
    34  H    0.021059
    35  H    0.028011
    36  H    0.030420
    37  H    0.024478
    38  H    0.059991
    39  H    0.059818
    40  H    0.073887
    41  H    0.021842
    42  C   -0.113210
    43  O   -0.272344
    44  C    0.155535
    45  H    0.129678
    46  N   -0.104680
    47  O   -0.347972
    48  C    0.338843
    49  H    0.044169
    50  C    0.170429
    51  C    0.042029
    52  N   -0.276537
    53  H    0.033894
    54  H    0.042338
    55  H    0.026456
    56  H    0.123453
    57  H    0.113139
    58  N   -0.038438
    59  C    0.077994
    60  C    0.239435
    61  N   -0.271158
    62  H    0.033843
    63  C    0.167859
    64  N   -0.307277
    65  H    0.036145
    66  C    0.128354
    67  N   -0.261705
    68  C    0.028433
    69  C    0.181246
    70  N   -0.307789
 Sum of Mulliken charges =  -0.00000
 Mulliken charges with hydrogens summed into heavy atoms:
               1
     1  N   -0.309539
     2  C    0.256828
     3  C    0.057395
     4  N   -0.251251
     5  C    0.165011
     7  N   -0.297745
     8  C    0.142408
    10  N   -0.289954
    11  C    0.241214
    12  C    0.092246
    13  N    0.152336
    19  N   -0.310062
    20  C    0.259274
    21  C    0.264517
    22  N    0.112666
    25  N   -0.312108
    26  C    0.250035
    27  N   -0.030455
    29  C    0.196233
    30  O   -0.322370
    31  C   -0.016583
    32  N   -0.221277
    33  C    0.143479
    42  C   -0.091367
    43  O   -0.272344
    44  C    0.155535
    46  N    0.024999
    47  O   -0.347972
    48  C    0.338843
    50  C    0.214598
    51  C    0.235725
    52  N   -0.276537
    58  N    0.198153
    59  C    0.077994
    60  C    0.239435
    61  N   -0.271158
    63  C    0.201702
    64  N   -0.307277
    66  C    0.164499
    67  N   -0.261705
    68  C    0.028433
    69  C    0.283934
    70  N   -0.307789
 Electronic spatial extent (au):  <R**2>=          22515.9143
 Charge=             -0.0000 electrons
 Dipole moment (field-independent basis, Debye):
    X=              6.7939    Y=              6.9153    Z=              2.9932  Tot=             10.1458
 Quadrupole moment (field-independent basis, Debye-Ang):
   XX=           -150.9530   YY=           -223.5891   ZZ=           -253.7319
   XY=              5.2916   XZ=             -2.7829   YZ=              3.1726
 Traceless Quadrupole moment (field-independent basis, Debye-Ang):
   XX=             58.4716   YY=            -14.1644   ZZ=            -44.3072
   XY=              5.2916   XZ=             -2.7829   YZ=              3.1726
 Octapole moment (field-independent basis, Debye-Ang**2):
  XXX=            -94.4572  YYY=             88.2840  ZZZ=             42.1981  XYY=             16.7674
  XXY=             81.3921  XXZ=             51.0501  XZZ=            110.4625  YZZ=             54.8435
  YYZ=             28.3923  XYZ=             54.7999
 Hexadecapole moment (field-independent basis, Debye-Ang**3):
 XXXX=         -15884.8873 YYYY=          -4871.5619 ZZZZ=          -4221.9407 XXXY=            534.7964
 XXXZ=            135.5758 YYYX=            -79.9358 YYYZ=            126.2820 ZZZX=            200.6465
 ZZZY=             41.5704 XXYY=          -3628.6671 XXZZ=          -3698.8500 YYZZ=          -1600.4795
 XXYZ=            209.8287 YYXZ=            -28.4784 ZZXY=            121.9062
 N-N= 5.481150594341D+03 E-N=-1.574298376186D+04  KE= 2.037792431713D+03
 No NMR shielding tensors so no spin-rotation constants.
 Leave Link  601 at Sun Jan 21 15:45:38 2018, MaxMem=  4294967296 cpu:              48.5 elap:               1.7
 (Enter /share/apps/g16/l9999.exe)
 1\1\GINC-COMPUTE-0-3\SP\RwB97XD\CC-pVDZ\C23H27N17O3\SATYA\21-Jan-2018\
 0\\#p wb97xd/cc-pvdz sp scf=(maxcycles=20)\\Base pair stacking\\0,1\N,
 0,5.277,1.77832,-5.15605\C,0,5.91024,3.09036,-5.39177\C,0,3.92068,0.04
 884,-5.23717\N,0,4.90877,-0.27561,-4.31895\C,0,5.68636,0.77933,-4.3068
 3\H,0,6.58052,0.88342,-3.69154\N,0,2.01253,-0.04382,-6.62041\C,0,2.346
 92,1.18275,-7.0343\H,0,1.67914,1.62201,-7.77416\N,0,3.3775,1.94459,-6.
 67319\C,0,4.13431,1.31176,-5.7615\C,0,2.79418,-0.65352,-5.7026\N,0,2.4
 6204,-1.87791,-5.28821\H,0,3.0117,-2.367,-4.61007\H,0,1.6529,-2.34779,
 -5.64127\H,0,6.84097,2.95643,-5.73234\H,0,5.37934,3.60095,-6.06747\H,0
 ,5.94142,3.60637,-4.53576\N,0,1.56158,3.82033,-3.27876\C,0,0.66526,2.7
 9977,-3.48645\C,0,1.32278,5.24336,-3.59286\N,0,-2.44329,1.70271,-4.579
 65\H,0,-2.93772,0.83662,-4.64794\H,0,-2.91911,2.52311,-4.89787\N,0,-0.
 57421,2.9245,-4.00817\C,0,-1.19812,1.76233,-4.08377\N,0,-0.65176,0.568
 23,-3.67988\H,0,-1.20203,-0.2715,-3.77484\C,0,0.62166,0.41635,-3.14025
 \O,0,1.01948,-0.7069,-2.80743\C,0,1.30414,1.65629,-3.05277\N,0,2.57596
 ,1.95299,-2.58228\C,0,2.68428,3.24488,-2.73558\H,0,3.56458,3.83031,-2.
 46795\H,0,2.00169,5.55875,-4.25499\H,0,0.40766,5.34804,-3.97997\H,0,1.
 39439,5.78737,-2.75755\H,0,-4.19706,-4.15981,-5.10286\H,0,-4.66551,-4.
 10816,-3.40506\H,0,-4.20571,-2.62267,-4.2377\H,0,-0.42612,-6.35964,-3.
 08114\C,0,-0.81622,-5.35122,-3.21945\O,0,1.23516,-4.28622,-2.68584\C,0
 ,0.05035,-4.23101,-3.01443\H,0,0.03778,-2.18557,-3.08013\N,0,-0.54301,
 -3.00109,-3.21557\O,0,-2.2784,-1.63189,-3.73606\C,0,-1.84344,-2.75957,
 -3.58174\H,0,-2.78911,-5.96538,-3.74513\C,0,-2.08954,-5.14765,-3.57699
 \C,0,-4.01289,-3.68176,-4.15227\N,0,-2.61615,-3.89013,-3.76054\H,0,-4.
 40168,-3.31287,-9.91487\H,0,-4.03019,-2.03377,-8.97254\H,0,-5.27553,-3
 .00922,-8.5704\H,0,0.88686,-5.19169,-5.06029\H,0,-0.31034,-6.285,-5.59
 083\N,0,0.04292,-5.34899,-5.57329\C,0,-0.58432,-4.35544,-6.20622\C,0,-
 2.30524,-3.39831,-7.54191\N,0,-1.8078,-2.15119,-7.50114\H,0,-0.21708,-
 1.14019,-6.6961\C,0,-0.68842,-2.11841,-6.78085\N,0,-0.05861,-3.11242,-
 6.14614\H,0,-4.35333,-5.77048,-8.33582\C,0,-3.53373,-5.17077,-7.93889\
 N,0,-2.55844,-5.63854,-7.19884\C,0,-1.77238,-4.52503,-6.94016\C,0,-4.3
 6099,-2.97701,-8.97384\N,0,-3.44344,-3.82257,-8.18572\\Version=EM64L-G
 16RevA.03\State=1-A\HF=-2048.7328705\RMSD=8.318e-09\Dipole=-3.7662488,
 -0.0512892,-1.3213766\Quadrupole=15.0297113,16.4468639,-31.4765751,26.
 277395,7.7023197,8.6512077\PG=C01 [X(C23H27N17O3)]\\@


 SCIENCE IS A VERY HUMAN FORM OF KNOWLEDGE.
 WE ARE ALWAYS AT THE BRINK OF THE KNOWN,
 WE ALWAYS FEEL FORWARD FOR WHAT IS HOPED.
 EVERY JUDGEMENT IN SCIENCE STANDS ON THE EDGE OF ERROR, AND IS PERSONAL.
 SCIENCE IS A TRIBUTE TO WHAT WE CAN KNOW ALTHOUGH WE ARE FALLIBLE.

                     -- J. BRONOWSKI
 Job cpu time:       0 days  5 hours 52 minutes  2.4 seconds.
 Elapsed time:       0 days  0 hours 11 minutes 23.3 seconds.
 File lengths (MBytes):  RWF=    298 Int=      0 D2E=      0 Chk=     33 Scr=      1
 Normal termination of Gaussian 16 at Sun Jan 21 15:45:38 2018.
