 Entering Gaussian System, Link 0=g16
 Input=str30.-5.-2.5.com
 Output=str30.-5.-2.5.log
 Initial command:
 /share/apps/g16/l1.exe "/state/partition1/scr/Gau-6274.inp" -scrdir="/state/partition1/scr/"
 Entering Link 1 = /share/apps/g16/l1.exe PID=      6275.
  
 Copyright (c) 1988,1990,1992,1993,1995,1998,2003,2009,2016,
            Gaussian, Inc.  All Rights Reserved.
  
 This is part of the Gaussian(R) 16 program.  It is based on
 the Gaussian(R) 09 system (copyright 2009, Gaussian, Inc.),
 the Gaussian(R) 03 system (copyright 2003, Gaussian, Inc.),
 the Gaussian(R) 98 system (copyright 1998, Gaussian, Inc.),
 the Gaussian(R) 94 system (copyright 1995, Gaussian, Inc.),
 the Gaussian 92(TM) system (copyright 1992, Gaussian, Inc.),
 the Gaussian 90(TM) system (copyright 1990, Gaussian, Inc.),
 the Gaussian 88(TM) system (copyright 1988, Gaussian, Inc.),
 the Gaussian 86(TM) system (copyright 1986, Carnegie Mellon
 University), and the Gaussian 82(TM) system (copyright 1983,
 Carnegie Mellon University). Gaussian is a federally registered
 trademark of Gaussian, Inc.
  
 This software contains proprietary and confidential information,
 including trade secrets, belonging to Gaussian, Inc.
  
 This software is provided under written license and may be
 used, copied, transmitted, or stored only in accord with that
 written license.
  
 The following legend is applicable only to US Government
 contracts under FAR:
  
                    RESTRICTED RIGHTS LEGEND
  
 Use, reproduction and disclosure by the US Government is
 subject to restrictions as set forth in subparagraphs (a)
 and (c) of the Commercial Computer Software - Restricted
 Rights clause in FAR 52.227-19.
  
 Gaussian, Inc.
 340 Quinnipiac St., Bldg. 40, Wallingford CT 06492
  
  
 ---------------------------------------------------------------
 Warning -- This program may not be used in any manner that
 competes with the business of Gaussian, Inc. or will provide
 assistance to any competitor of Gaussian, Inc.  The licensee
 of this program is prohibited from giving any competitor of
 Gaussian, Inc. access to this program.  By using this program,
 the user acknowledges that Gaussian, Inc. is engaged in the
 business of creating and licensing software in the field of
 computational chemistry and represents and warrants to the
 licensee that it is not a competitor of Gaussian, Inc. and that
 it will not use this program in any manner prohibited above.
 ---------------------------------------------------------------
  

 Cite this work as:
 Gaussian 16, Revision A.03,
 M. J. Frisch, G. W. Trucks, H. B. Schlegel, G. E. Scuseria, 
 M. A. Robb, J. R. Cheeseman, G. Scalmani, V. Barone, 
 G. A. Petersson, H. Nakatsuji, X. Li, M. Caricato, A. V. Marenich, 
 J. Bloino, B. G. Janesko, R. Gomperts, B. Mennucci, H. P. Hratchian, 
 J. V. Ortiz, A. F. Izmaylov, J. L. Sonnenberg, D. Williams-Young, 
 F. Ding, F. Lipparini, F. Egidi, J. Goings, B. Peng, A. Petrone, 
 T. Henderson, D. Ranasinghe, V. G. Zakrzewski, J. Gao, N. Rega, 
 G. Zheng, W. Liang, M. Hada, M. Ehara, K. Toyota, R. Fukuda, 
 J. Hasegawa, M. Ishida, T. Nakajima, Y. Honda, O. Kitao, H. Nakai, 
 T. Vreven, K. Throssell, J. A. Montgomery, Jr., J. E. Peralta, 
 F. Ogliaro, M. J. Bearpark, J. J. Heyd, E. N. Brothers, K. N. Kudin, 
 V. N. Staroverov, T. A. Keith, R. Kobayashi, J. Normand, 
 K. Raghavachari, A. P. Rendell, J. C. Burant, S. S. Iyengar, 
 J. Tomasi, M. Cossi, J. M. Millam, M. Klene, C. Adamo, R. Cammi, 
 J. W. Ochterski, R. L. Martin, K. Morokuma, O. Farkas, 
 J. B. Foresman, and D. J. Fox, Gaussian, Inc., Wallingford CT, 2016.
 
 ******************************************
 Gaussian 16:  EM64L-G16RevA.03 25-Dec-2016
                21-Jan-2018 
 ******************************************
 %nprocshared=32
 Will use up to   32 processors via shared memory.
 %mem=32GB
 %chk=allatoms_t.chk
 ---------------------------------------
 #p wb97xd/cc-pvdz sp scf=(maxcycles=20)
 ---------------------------------------
 1/38=1,172=1/1;
 2/12=2,17=6,18=5,40=1/2;
 3/5=16,11=2,25=1,30=1,74=-58/1,2,3;
 4//1;
 5/5=2,7=20,38=5/2;
 6/7=2,8=2,9=2,10=2,28=1/1;
 99/5=1,9=1/99;
 Leave Link    1 at Sun Jan 21 21:41:18 2018, MaxMem=  4294967296 cpu:               2.7 elap:               0.1
 (Enter /share/apps/g16/l101.exe)
 ------------------
 Base pair stacking
 ------------------
 Symbolic Z-matrix:
 Charge =  0 Multiplicity = 1
 N                     6.1209    8.35872  -6.87294 
 C                     6.58647   9.75808  -6.92798 
 C                     4.85869   6.56192  -6.74779 
 N                     6.16675   6.11099  -6.84963 
 C                     6.87483   7.21154  -6.92095 
 H                     7.96102   7.24522  -7.01043 
 N                     2.50902   6.63386  -6.55596 
 C                     2.62397   7.96567  -6.58143 
 H                     1.686     8.5148   -6.51112 
 N                     3.71847   8.71747  -6.68024 
 C                     4.8146    7.94518  -6.76083 
 C                     3.63035   5.88498  -6.6389 
 N                     3.51764   4.55539  -6.61364 
 H                     4.32098   3.96174  -6.67237 
 H                     2.62687   4.1076   -6.5352 
 H                     7.07112   9.91597  -7.78842 
 H                     5.80119   10.37389  -6.871 
 H                     7.20406   9.93646  -6.16198 
 N                     1.69236   7.20565  -3.2817 
 C                     0.77183   6.18694  -3.22774 
 C                     1.3701    8.64623  -3.3211 
 N                    -2.53169   5.12088  -3.11806 
 H                    -3.0257    4.25275  -3.07868 
 H                    -3.08226   5.95597  -3.13263 
 N                    -0.57093   6.32968  -3.20184 
 C                    -1.19116   5.16425  -3.14995 
 N                    -0.54752   3.95074  -3.12522 
 H                    -1.10297   3.11     -3.08533 
 C                     0.83309   3.78011  -3.15108 
 O                     1.31328   2.64016  -3.12502 
 C                     1.51299   5.0233   -3.20685 
 N                     2.87148   5.30579  -3.24689 
 C                     2.92963   6.60922  -3.29049 
 H                     3.85266   7.18863  -3.33026 
 H                     1.73685   9.04874  -4.15913 
 H                     0.37815   8.76434  -3.30238 
 H                     1.77392   9.10162  -2.5284 
 H                    -4.43646  -0.70291  -3.53512 
 H                    -4.19534  -0.8429   -1.79531 
 H                    -4.0798    0.73428  -2.57666 
 H                    -0.20674  -2.99229  -3.41327 
 C                    -0.60472  -1.98664  -3.2772 
 O                     1.50621  -0.92446  -3.48428 
 C                     0.28892  -0.86946  -3.31115 
 H                     0.28183   1.1704   -3.14603 
 N                    -0.31728   0.35708  -3.12845 
 O                    -2.09658   1.72245  -2.772 
 C                    -1.65285   0.59787  -2.92398 
 H                    -2.6337   -2.59922  -3.0453 
 C                    -1.91253  -1.78369  -3.07962 
 C                    -3.88469  -0.3219   -2.68868 
 N                    -2.45007  -0.52964  -2.90422 
 H                    -4.82167   3.67797  -6.10206 
 H                    -3.81309   4.58666  -5.19699 
 H                    -4.60939   3.33231  -4.52128 
 H                     2.12732   1.1547   -6.7425 
 H                     0.76491   0.1289   -6.7833 
 N                     1.13927   1.04473  -6.63387 
 C                     0.35485   2.07299  -6.30441 
 C                    -1.71756   3.1261   -5.79667 
 N                    -1.18723   4.34483  -5.60214 
 H                     0.64293   5.26632  -5.64686 
 C                     0.13124   4.31491  -5.78561 
 N                     0.91871   3.28604  -6.11562 
 H                    -4.02567   0.86963  -5.97885 
 C                    -3.08626   1.42319  -5.98424 
 N                    -1.91513   0.90099  -6.25527 
 C                    -1.03844   1.97001  -6.13987 
 C                    -4.16064   3.66235  -5.35187 
 N                    -3.04058   2.76576  -5.69767 
 
 ITRead=  0  0  0  0  0  0  0  0  0  0  0  0  0  0  0  0  0  0  0  0
 ITRead=  0  0  0  0  0  0  0  0  0  0  0  0  0  0  0  0  0  0  0  0
 ITRead=  0  0  0  0  0  0  0  0  0  0  0  0  0  0  0  0  0  0  0  0
 ITRead=  0  0  0  0  0  0  0  0  0  0
 MicOpt= -1 -1 -1 -1 -1 -1 -1 -1 -1 -1 -1 -1 -1 -1 -1 -1 -1 -1 -1 -1
 MicOpt= -1 -1 -1 -1 -1 -1 -1 -1 -1 -1 -1 -1 -1 -1 -1 -1 -1 -1 -1 -1
 MicOpt= -1 -1 -1 -1 -1 -1 -1 -1 -1 -1 -1 -1 -1 -1 -1 -1 -1 -1 -1 -1
 MicOpt= -1 -1 -1 -1 -1 -1 -1 -1 -1 -1
 NAtoms=     70 NQM=       70 NQMF=       0 NMMI=      0 NMMIF=      0
                NMic=       0 NMicF=      0.
                    Isotopes and Nuclear Properties:
 (Nuclear quadrupole moments (NQMom) in fm**2, nuclear magnetic moments (NMagM)
  in nuclear magnetons)

  Atom         1           2           3           4           5           6           7           8           9          10
 IAtWgt=          14          12          12          14          12           1          14          12           1          14
 AtmWgt=  14.0030740  12.0000000  12.0000000  14.0030740  12.0000000   1.0078250  14.0030740  12.0000000   1.0078250  14.0030740
 NucSpn=           2           0           0           2           0           1           2           0           1           2
 AtZEff=  -0.0000000  -0.0000000  -0.0000000  -0.0000000  -0.0000000  -0.0000000  -0.0000000  -0.0000000  -0.0000000  -0.0000000
 NQMom=    2.0440000   0.0000000   0.0000000   2.0440000   0.0000000   0.0000000   2.0440000   0.0000000   0.0000000   2.0440000
 NMagM=    0.4037610   0.0000000   0.0000000   0.4037610   0.0000000   2.7928460   0.4037610   0.0000000   2.7928460   0.4037610
 AtZNuc=   7.0000000   6.0000000   6.0000000   7.0000000   6.0000000   1.0000000   7.0000000   6.0000000   1.0000000   7.0000000

  Atom        11          12          13          14          15          16          17          18          19          20
 IAtWgt=          12          12          14           1           1           1           1           1          14          12
 AtmWgt=  12.0000000  12.0000000  14.0030740   1.0078250   1.0078250   1.0078250   1.0078250   1.0078250  14.0030740  12.0000000
 NucSpn=           0           0           2           1           1           1           1           1           2           0
 AtZEff=  -0.0000000  -0.0000000  -0.0000000  -0.0000000  -0.0000000  -0.0000000  -0.0000000  -0.0000000  -0.0000000  -0.0000000
 NQMom=    0.0000000   0.0000000   2.0440000   0.0000000   0.0000000   0.0000000   0.0000000   0.0000000   2.0440000   0.0000000
 NMagM=    0.0000000   0.0000000   0.4037610   2.7928460   2.7928460   2.7928460   2.7928460   2.7928460   0.4037610   0.0000000
 AtZNuc=   6.0000000   6.0000000   7.0000000   1.0000000   1.0000000   1.0000000   1.0000000   1.0000000   7.0000000   6.0000000

  Atom        21          22          23          24          25          26          27          28          29          30
 IAtWgt=          12          14           1           1          14          12          14           1          12          16
 AtmWgt=  12.0000000  14.0030740   1.0078250   1.0078250  14.0030740  12.0000000  14.0030740   1.0078250  12.0000000  15.9949146
 NucSpn=           0           2           1           1           2           0           2           1           0           0
 AtZEff=  -0.0000000  -0.0000000  -0.0000000  -0.0000000  -0.0000000  -0.0000000  -0.0000000  -0.0000000  -0.0000000  -0.0000000
 NQMom=    0.0000000   2.0440000   0.0000000   0.0000000   2.0440000   0.0000000   2.0440000   0.0000000   0.0000000   0.0000000
 NMagM=    0.0000000   0.4037610   2.7928460   2.7928460   0.4037610   0.0000000   0.4037610   2.7928460   0.0000000   0.0000000
 AtZNuc=   6.0000000   7.0000000   1.0000000   1.0000000   7.0000000   6.0000000   7.0000000   1.0000000   6.0000000   8.0000000

  Atom        31          32          33          34          35          36          37          38          39          40
 IAtWgt=          12          14          12           1           1           1           1           1           1           1
 AtmWgt=  12.0000000  14.0030740  12.0000000   1.0078250   1.0078250   1.0078250   1.0078250   1.0078250   1.0078250   1.0078250
 NucSpn=           0           2           0           1           1           1           1           1           1           1
 AtZEff=  -0.0000000  -0.0000000  -0.0000000  -0.0000000  -0.0000000  -0.0000000  -0.0000000  -0.0000000  -0.0000000  -0.0000000
 NQMom=    0.0000000   2.0440000   0.0000000   0.0000000   0.0000000   0.0000000   0.0000000   0.0000000   0.0000000   0.0000000
 NMagM=    0.0000000   0.4037610   0.0000000   2.7928460   2.7928460   2.7928460   2.7928460   2.7928460   2.7928460   2.7928460
 AtZNuc=   6.0000000   7.0000000   6.0000000   1.0000000   1.0000000   1.0000000   1.0000000   1.0000000   1.0000000   1.0000000

  Atom        41          42          43          44          45          46          47          48          49          50
 IAtWgt=           1          12          16          12           1          14          16          12           1          12
 AtmWgt=   1.0078250  12.0000000  15.9949146  12.0000000   1.0078250  14.0030740  15.9949146  12.0000000   1.0078250  12.0000000
 NucSpn=           1           0           0           0           1           2           0           0           1           0
 AtZEff=  -0.0000000  -0.0000000  -0.0000000  -0.0000000  -0.0000000  -0.0000000  -0.0000000  -0.0000000  -0.0000000  -0.0000000
 NQMom=    0.0000000   0.0000000   0.0000000   0.0000000   0.0000000   2.0440000   0.0000000   0.0000000   0.0000000   0.0000000
 NMagM=    2.7928460   0.0000000   0.0000000   0.0000000   2.7928460   0.4037610   0.0000000   0.0000000   2.7928460   0.0000000
 AtZNuc=   1.0000000   6.0000000   8.0000000   6.0000000   1.0000000   7.0000000   8.0000000   6.0000000   1.0000000   6.0000000

  Atom        51          52          53          54          55          56          57          58          59          60
 IAtWgt=          12          14           1           1           1           1           1          14          12          12
 AtmWgt=  12.0000000  14.0030740   1.0078250   1.0078250   1.0078250   1.0078250   1.0078250  14.0030740  12.0000000  12.0000000
 NucSpn=           0           2           1           1           1           1           1           2           0           0
 AtZEff=  -0.0000000  -0.0000000  -0.0000000  -0.0000000  -0.0000000  -0.0000000  -0.0000000  -0.0000000  -0.0000000  -0.0000000
 NQMom=    0.0000000   2.0440000   0.0000000   0.0000000   0.0000000   0.0000000   0.0000000   2.0440000   0.0000000   0.0000000
 NMagM=    0.0000000   0.4037610   2.7928460   2.7928460   2.7928460   2.7928460   2.7928460   0.4037610   0.0000000   0.0000000
 AtZNuc=   6.0000000   7.0000000   1.0000000   1.0000000   1.0000000   1.0000000   1.0000000   7.0000000   6.0000000   6.0000000

  Atom        61          62          63          64          65          66          67          68          69          70
 IAtWgt=          14           1          12          14           1          12          14          12          12          14
 AtmWgt=  14.0030740   1.0078250  12.0000000  14.0030740   1.0078250  12.0000000  14.0030740  12.0000000  12.0000000  14.0030740
 NucSpn=           2           1           0           2           1           0           2           0           0           2
 AtZEff=  -0.0000000  -0.0000000  -0.0000000  -0.0000000  -0.0000000  -0.0000000  -0.0000000  -0.0000000  -0.0000000  -0.0000000
 NQMom=    2.0440000   0.0000000   0.0000000   2.0440000   0.0000000   0.0000000   2.0440000   0.0000000   0.0000000   2.0440000
 NMagM=    0.4037610   2.7928460   0.0000000   0.4037610   2.7928460   0.0000000   0.4037610   0.0000000   0.0000000   0.4037610
 AtZNuc=   7.0000000   1.0000000   6.0000000   7.0000000   1.0000000   6.0000000   7.0000000   6.0000000   6.0000000   7.0000000
 Leave Link  101 at Sun Jan 21 21:41:19 2018, MaxMem=  4294967296 cpu:              10.5 elap:               0.4
 (Enter /share/apps/g16/l202.exe)
 Stoichiometry    C23H27N17O3
 Framework group  C1[X(C23H27N17O3)]
 Deg. of freedom   204
 Full point group                 C1      NOp   1
 Largest Abelian subgroup         C1      NOp   1
 Largest concise Abelian subgroup C1      NOp   1
                         Standard orientation:                         
 ---------------------------------------------------------------------
 Center     Atomic      Atomic             Coordinates (Angstroms)
 Number     Number       Type             X           Y           Z
 ---------------------------------------------------------------------
      1          7           0       -7.151210   -1.099950    0.166344
      2          6           0       -8.476357   -0.454116    0.096509
      3          6           0       -5.002000   -1.473581    0.446739
      4          7           0       -5.557492   -2.681602    0.050705
      5          6           0       -6.830075   -2.408155   -0.102373
      6          1           0       -7.586329   -3.129800   -0.412627
      7          7           0       -3.470708    0.187363    1.124479
      8          6           0       -4.510771    1.027054    1.152206
      9          1           0       -4.275634    2.049007    1.446481
     10          7           0       -5.791668    0.794982    0.872308
     11          6           0       -5.972082   -0.489340    0.522457
     12          6           0       -3.685023   -1.098095    0.768463
     13          7           0       -2.648074   -1.937790    0.740194
     14          1           0       -2.760313   -2.898122    0.482531
     15          1           0       -1.724190   -1.635761    0.975474
     16          1           0       -9.104632   -0.910259    0.726887
     17          1           0       -8.392305    0.509113    0.350000
     18          1           0       -8.833858   -0.521935   -0.834934
     19          7           0       -2.597342    2.055134   -1.607429
     20          6           0       -1.248498    1.974217   -1.358171
     21          6           0       -3.432520    3.255890   -1.404113
     22          7           0        1.708174    3.454958   -0.296448
     23          1           0        2.665867    3.191711   -0.183435
     24          1           0        1.464203    4.394352   -0.054098
     25          7           0       -0.465770    2.970039   -0.889423
     26          6           0        0.791531    2.587904   -0.752410
     27          7           0        1.249335    1.327459   -1.051050
     28          1           0        2.227669    1.124043   -0.915243
     29          6           0        0.461904    0.287244   -1.534549
     30          8           0        0.974115   -0.813559   -1.772501
     31          6           0       -0.891361    0.682643   -1.686960
     32          7           0       -1.993807   -0.032891   -2.133641
     33          6           0       -2.980383    0.819605   -2.069369
     34          1           0       -4.011309    0.598419   -2.347849
     35          1           0       -4.154562    3.053766   -0.743344
     36          1           0       -2.863500    4.000202   -1.057010
     37          1           0       -3.843327    3.529269   -2.273207
     38          1           0        7.053589    0.561809    0.583803
     39          1           0        7.395022    0.799455   -1.128396
     40          1           0        6.004732    1.594020   -0.388723
     41          1           0        5.959242   -3.792369   -1.145411
     42          6           0        5.527022   -2.793038   -1.092894
     43          8           0        3.332032   -3.514100   -1.630689
     44          6           0        4.129475   -2.620371   -1.347624
     45          1           0        2.703207   -1.154923   -1.428645
     46          7           0        3.685286   -1.316752   -1.255259
     47          8           0        3.949377    0.909601   -0.893583
     48          6           0        4.433616   -0.206989   -0.952002
     49          1           0        7.350295   -1.807593   -0.592530
     50          6           0        6.282834   -1.729850   -0.794611
     51          6           0        6.611734    0.700895   -0.391645
     52          7           0        5.772189   -0.454723   -0.719455
     53          1           0        3.563523    3.123932    3.264220
     54          1           0        2.455927    3.342795    2.086326
     55          1           0        4.035501    3.192942    1.703489
     56          1           0        0.681696   -3.410393    1.248486
     57          1           0        2.303388   -3.230423    1.746298
     58          7           0        1.432982   -2.801197    1.502624
     59          6           0        1.281923   -1.475236    1.516303
     60          6           0        1.997508    0.771856    1.832908
     61          7           0        0.817172    1.320514    1.500980
     62          1           0       -1.055405    0.734078    0.909221
     63          6           0       -0.066976    0.374202    1.191635
     64          7           0        0.082398   -0.954358    1.177339
     65          1           0        5.092395    0.685162    2.763699
     66          6           0        4.077229    0.444979    2.446371
     67          7           0        3.623987   -0.769808    2.255162
     68          6           0        2.306436   -0.576851    1.865892
     69          6           0        3.313629    2.888382    2.325041
     70          7           0        3.146280    1.426689    2.209131
 ---------------------------------------------------------------------
 Rotational constants (GHZ):           0.1680494           0.0483034           0.0447717
 Leave Link  202 at Sun Jan 21 21:41:19 2018, MaxMem=  4294967296 cpu:               0.3 elap:               0.0
 (Enter /share/apps/g16/l301.exe)
 Standard basis: CC-pVDZ (5D, 7F)
 Ernie: Thresh=  0.10000D-02 Tol=  0.10000D-05 Strict=F.
 Ernie:  86 primitive shells out of 1081 were deleted.
 There are   780 symmetry adapted cartesian basis functions of A   symmetry.
 There are   737 symmetry adapted basis functions of A   symmetry.
   737 basis functions,  1608 primitive gaussians,   780 cartesian basis functions
   154 alpha electrons      154 beta electrons
       nuclear repulsion energy      5485.3638458945 Hartrees.
 IExCor= 4639 DFT=T Ex+Corr=wB97XD ExCW=0 ScaHFX=  1.000000
 ScaDFX=  1.000000  1.000000  1.000000  1.000000 ScalE2=  1.000000  1.000000
 IRadAn=      5 IRanWt=     -1 IRanGd=            0 ICorTp=0 IEmpDi=121
 HFx  wShort=  0.000000 wLong=  0.200000 cFull=  0.222036 cShort=  0.000000 cLong=  0.777964
 DFx  wShort=  0.000000 wLong=  0.200000 cFull=  0.000000 cShort=  0.000000 cLong=  1.000000
 NAtoms=   70 NActive=   70 NUniq=   70 SFac= 1.00D+00 NAtFMM=   60 NAOKFM=T Big=T
 Integral buffers will be    131072 words long.
 Raffenetti 2 integral format.
 Two-electron integral symmetry is turned on.
 R6Disp:  Grimme-D2 Dispersion energy=       -0.0725512371 Hartrees.
 Nuclear repulsion after empirical dispersion term =     5485.2912946573 Hartrees.
 Leave Link  301 at Sun Jan 21 21:41:19 2018, MaxMem=  4294967296 cpu:               2.1 elap:               0.1
 (Enter /share/apps/g16/l302.exe)
 NPDir=0 NMtPBC=     1 NCelOv=     1 NCel=       1 NClECP=     1 NCelD=      1
         NCelK=      1 NCelE2=     1 NClLst=     1 CellRange=     0.0.
 One-electron integrals computed using PRISM.
 One-electron integral symmetry used in STVInt
 NBasis=   737 RedAO= T EigKep=  7.02D-04  NBF=   737
 NBsUse=   737 1.00D-06 EigRej= -1.00D+00 NBFU=   737
 Precomputing XC quadrature grid using
 IXCGrd= 4 IRadAn=           5 IRanWt=          -1 IRanGd=           0 AccXCQ= 0.00D+00.
 Generated NRdTot=       0 NPtTot=           0 NUsed=           0 NTot=          32
 NSgBfM=   757   757   757   757   757 MxSgAt=    70 MxSgA2=    70.
 Leave Link  302 at Sun Jan 21 21:41:23 2018, MaxMem=  4294967296 cpu:             134.7 elap:               4.2
 (Enter /share/apps/g16/l303.exe)
 DipDrv:  MaxL=1.
 Leave Link  303 at Sun Jan 21 21:41:23 2018, MaxMem=  4294967296 cpu:              12.4 elap:               0.4
 (Enter /share/apps/g16/l401.exe)
 ExpMin= 1.22D-01 ExpMax= 1.17D+04 ExpMxC= 4.01D+02 IAcc=3 IRadAn=         5 AccDes= 0.00D+00
 Harris functional with IExCor= 4639 and IRadAn=       5 diagonalized for initial guess.
 HarFok:  IExCor= 4639 AccDes= 0.00D+00 IRadAn=         5 IDoV= 1 UseB2=F ITyADJ=14
 ICtDFT=  3500011 ScaDFX=  1.000000  1.000000  1.000000  1.000000
 FoFCou: FMM=F IPFlag=           0 FMFlag=      100000 FMFlg1=        2001
         NFxFlg=           0 DoJE=T BraDBF=F KetDBF=T FulRan=T
         wScrn=  0.000000 ICntrl=       500 IOpCl=  0 I1Cent=   200000004 NGrid=           0
         NMat0=    1 NMatS0=      1 NMatT0=    0 NMatD0=    1 NMtDS0=    0 NMtDT0=    0
 Petite list used in FoFCou.
 Harris En= -1963.86351136912    
 JPrj=0 DoOrth=F DoCkMO=F.
 Leave Link  401 at Sun Jan 21 21:41:36 2018, MaxMem=  4294967296 cpu:             398.5 elap:              12.5
 (Enter /share/apps/g16/l502.exe)
 Integral symmetry usage will be decided dynamically.
 Closed shell SCF:
 Using DIIS extrapolation, IDIIS=  1040.
 NGot=  4294967296 LenX=  4293717438 LenY=  4293108258
 Requested convergence on RMS density matrix=1.00D-08 within  20 cycles.
 Requested convergence on MAX density matrix=1.00D-06.
 Requested convergence on             energy=1.00D-06.
 No special actions if energy rises.
 Fock matrices will be formed incrementally for  20 cycles.
 Integral accuracy reduced to 1.0D-05 until final iterations.

 Cycle   1  Pass 0  IDiag  1:
 FoFJK:  IHMeth= 1 ICntrl=       0 DoSepK=T KAlg= 0 I1Cent=           0 FoldK=F
 IRaf=         1 NMat=       1 IRICut=       1 DoRegI=T DoRafI=F ISym2E= 0 IDoP0=0 IntGTp=1.
 FoFCou: FMM=T IPFlag=           0 FMFlag=      100000 FMFlg1=        2001
         NFxFlg=           0 DoJE=T BraDBF=F KetDBF=F FulRan=T
         wScrn=  0.000000 ICntrl=       500 IOpCl=  0 I1Cent=           0 NGrid=           0
         NMat0=    1 NMatS0=      1 NMatT0=    0 NMatD0=    1 NMtDS0=    0 NMtDT0=    0
 Symmetry not used in FoFCou.
 FMM levels:  10  Number of levels for PrismC:   9
 E= -2048.29986222170    
 DIIS: error= 2.22D-02 at cycle   1 NSaved=   1.
 NSaved= 1 IEnMin= 1 EnMin= -2048.29986222170     IErMin= 1 ErrMin= 2.22D-02
 ErrMax= 2.22D-02  0.00D+00 EMaxC= 1.00D-01 BMatC= 8.31D-01 BMatP= 8.31D-01
 IDIUse=3 WtCom= 7.78D-01 WtEn= 2.22D-01
 Coeff-Com:  0.100D+01
 Coeff-En:   0.100D+01
 Coeff:      0.100D+01
 Gap=     0.252 Goal=   None    Shift=    0.000
 GapD=    0.252 DampG=1.000 DampE=0.500 DampFc=0.5000 IDamp=-1.
 Damping current iteration by 5.00D-01
 RMSDP=1.58D-03 MaxDP=1.30D-01              OVMax= 2.06D-01

 Cycle   2  Pass 0  IDiag  1:
 RMSU=  7.89D-04    CP:  9.97D-01
 E= -2048.49611294048     Delta-E=       -0.196250718784 Rises=F Damp=T
 DIIS: error= 1.24D-02 at cycle   2 NSaved=   2.
 NSaved= 2 IEnMin= 2 EnMin= -2048.49611294048     IErMin= 2 ErrMin= 1.24D-02
 ErrMax= 1.24D-02  0.00D+00 EMaxC= 1.00D-01 BMatC= 1.45D-01 BMatP= 8.31D-01
 IDIUse=3 WtCom= 8.76D-01 WtEn= 1.24D-01
 Coeff-Com: -0.196D+00 0.120D+01
 Coeff-En:   0.000D+00 0.100D+01
 Coeff:     -0.171D+00 0.117D+01
 Gap=     0.367 Goal=   None    Shift=    0.000
 RMSDP=5.97D-04 MaxDP=3.35D-02 DE=-1.96D-01 OVMax= 1.60D-01

 Cycle   3  Pass 0  IDiag  1:
 RMSU=  5.86D-04    CP:  9.94D-01  1.13D+00
 E= -2048.67511448419     Delta-E=       -0.179001543712 Rises=F Damp=F
 DIIS: error= 6.66D-03 at cycle   3 NSaved=   3.
 NSaved= 3 IEnMin= 3 EnMin= -2048.67511448419     IErMin= 3 ErrMin= 6.66D-03
 ErrMax= 6.66D-03  0.00D+00 EMaxC= 1.00D-01 BMatC= 6.32D-02 BMatP= 1.45D-01
 IDIUse=3 WtCom= 9.33D-01 WtEn= 6.66D-02
 Coeff-Com: -0.232D+00 0.549D+00 0.683D+00
 Coeff-En:   0.000D+00 0.000D+00 0.100D+01
 Coeff:     -0.217D+00 0.512D+00 0.704D+00
 Gap=     0.280 Goal=   None    Shift=    0.000
 RMSDP=3.60D-04 MaxDP=3.27D-02 DE=-1.79D-01 OVMax= 7.01D-02

 Cycle   4  Pass 0  IDiag  1:
 RMSU=  2.04D-04    CP:  9.94D-01  1.41D+00  6.71D-01
 E= -2048.72367891248     Delta-E=       -0.048564428283 Rises=F Damp=F
 DIIS: error= 2.53D-03 at cycle   4 NSaved=   4.
 NSaved= 4 IEnMin= 4 EnMin= -2048.72367891248     IErMin= 4 ErrMin= 2.53D-03
 ErrMax= 2.53D-03  0.00D+00 EMaxC= 1.00D-01 BMatC= 8.68D-03 BMatP= 6.32D-02
 IDIUse=3 WtCom= 9.75D-01 WtEn= 2.53D-02
 Coeff-Com: -0.972D-01 0.188D+00 0.376D+00 0.533D+00
 Coeff-En:   0.000D+00 0.000D+00 0.537D-01 0.946D+00
 Coeff:     -0.948D-01 0.184D+00 0.368D+00 0.544D+00
 Gap=     0.285 Goal=   None    Shift=    0.000
 RMSDP=1.28D-04 MaxDP=1.18D-02 DE=-4.86D-02 OVMax= 1.39D-02

 Cycle   5  Pass 0  IDiag  1:
 RMSU=  6.17D-05    CP:  9.93D-01  1.39D+00  8.02D-01  6.17D-01
 E= -2048.73093284137     Delta-E=       -0.007253928895 Rises=F Damp=F
 DIIS: error= 5.78D-04 at cycle   5 NSaved=   5.
 NSaved= 5 IEnMin= 5 EnMin= -2048.73093284137     IErMin= 5 ErrMin= 5.78D-04
 ErrMax= 5.78D-04  0.00D+00 EMaxC= 1.00D-01 BMatC= 2.89D-04 BMatP= 8.68D-03
 IDIUse=3 WtCom= 9.94D-01 WtEn= 5.78D-03
 Coeff-Com: -0.253D-01 0.435D-01 0.120D+00 0.239D+00 0.622D+00
 Coeff-En:   0.000D+00 0.000D+00 0.000D+00 0.000D+00 0.100D+01
 Coeff:     -0.252D-01 0.433D-01 0.119D+00 0.238D+00 0.624D+00
 Gap=     0.286 Goal=   None    Shift=    0.000
 RMSDP=2.68D-05 MaxDP=1.88D-03 DE=-7.25D-03 OVMax= 3.18D-03

 Failed to achieve initial convergence to 1.0D-08 in  6 cycles.
 Switch to full accuracy anyway.
 Cycle   6  Pass 1  IDiag  1:
 E= -2048.73117083352     Delta-E=       -0.000237992153 Rises=F Damp=F
 DIIS: error= 2.16D-04 at cycle   1 NSaved=   1.
 NSaved= 1 IEnMin= 1 EnMin= -2048.73117083352     IErMin= 1 ErrMin= 2.16D-04
 ErrMax= 2.16D-04  0.00D+00 EMaxC= 1.00D-01 BMatC= 7.51D-05 BMatP= 7.51D-05
 IDIUse=3 WtCom= 9.98D-01 WtEn= 2.16D-03
 Coeff-Com:  0.100D+01
 Coeff-En:   0.100D+01
 Coeff:      0.100D+01
 Gap=     0.285 Goal=   None    Shift=    0.000
 RMSDP=2.68D-05 MaxDP=1.88D-03 DE=-2.38D-04 OVMax= 2.70D-03

 Cycle   7  Pass 1  IDiag  1:
 RMSU=  1.10D-04    CP:  1.00D+00
 E= -2048.73122353912     Delta-E=       -0.000052705595 Rises=F Damp=F
 DIIS: error= 2.30D-04 at cycle   2 NSaved=   2.
 NSaved= 2 IEnMin= 2 EnMin= -2048.73122353912     IErMin= 1 ErrMin= 2.16D-04
 ErrMax= 2.30D-04  0.00D+00 EMaxC= 1.00D-01 BMatC= 4.54D-05 BMatP= 7.51D-05
 IDIUse=3 WtCom= 9.98D-01 WtEn= 2.30D-03
 Coeff-Com:  0.416D+00 0.584D+00
 Coeff-En:   0.000D+00 0.100D+01
 Coeff:      0.415D+00 0.585D+00
 Gap=     0.286 Goal=   None    Shift=    0.000
 RMSDP=1.19D-05 MaxDP=1.03D-03 DE=-5.27D-05 OVMax= 1.51D-03

 Cycle   8  Pass 1  IDiag  1:
 RMSU=  1.17D-05    CP:  1.00D+00  1.02D+00
 E= -2048.73125679519     Delta-E=       -0.000033256069 Rises=F Damp=F
 DIIS: error= 1.00D-04 at cycle   3 NSaved=   3.
 NSaved= 3 IEnMin= 3 EnMin= -2048.73125679519     IErMin= 3 ErrMin= 1.00D-04
 ErrMax= 1.00D-04  0.00D+00 EMaxC= 1.00D-01 BMatC= 1.01D-05 BMatP= 4.54D-05
 IDIUse=3 WtCom= 9.99D-01 WtEn= 1.00D-03
 Coeff-Com: -0.189D-01 0.307D+00 0.712D+00
 Coeff-En:   0.000D+00 0.127D+00 0.873D+00
 Coeff:     -0.189D-01 0.306D+00 0.712D+00
 Gap=     0.286 Goal=   None    Shift=    0.000
 RMSDP=5.73D-06 MaxDP=4.17D-04 DE=-3.33D-05 OVMax= 6.23D-04

 Cycle   9  Pass 1  IDiag  1:
 RMSU=  3.86D-06    CP:  1.00D+00  1.05D+00  7.64D-01
 E= -2048.73126636581     Delta-E=       -0.000009570620 Rises=F Damp=F
 DIIS: error= 3.57D-05 at cycle   4 NSaved=   4.
 NSaved= 4 IEnMin= 4 EnMin= -2048.73126636581     IErMin= 4 ErrMin= 3.57D-05
 ErrMax= 3.57D-05  0.00D+00 EMaxC= 1.00D-01 BMatC= 5.13D-07 BMatP= 1.01D-05
 IDIUse=1 WtCom= 1.00D+00 WtEn= 0.00D+00
 Coeff-Com: -0.313D-01 0.833D-01 0.264D+00 0.684D+00
 Coeff:     -0.313D-01 0.833D-01 0.264D+00 0.684D+00
 Gap=     0.286 Goal=   None    Shift=    0.000
 RMSDP=1.45D-06 MaxDP=1.19D-04 DE=-9.57D-06 OVMax= 5.00D-04

 Cycle  10  Pass 1  IDiag  1:
 RMSU=  1.30D-06    CP:  1.00D+00  1.06D+00  7.97D-01  1.10D+00
 E= -2048.73126722181     Delta-E=       -0.000000855999 Rises=F Damp=F
 DIIS: error= 1.62D-05 at cycle   5 NSaved=   5.
 NSaved= 5 IEnMin= 5 EnMin= -2048.73126722181     IErMin= 5 ErrMin= 1.62D-05
 ErrMax= 1.62D-05  0.00D+00 EMaxC= 1.00D-01 BMatC= 1.16D-07 BMatP= 5.13D-07
 IDIUse=1 WtCom= 1.00D+00 WtEn= 0.00D+00
 Coeff-Com: -0.311D-02-0.557D-01-0.122D+00 0.196D+00 0.985D+00
 Coeff:     -0.311D-02-0.557D-01-0.122D+00 0.196D+00 0.985D+00
 Gap=     0.286 Goal=   None    Shift=    0.000
 RMSDP=1.21D-06 MaxDP=7.59D-05 DE=-8.56D-07 OVMax= 2.59D-04

 Cycle  11  Pass 1  IDiag  1:
 RMSU=  4.89D-07    CP:  1.00D+00  1.06D+00  8.05D-01  1.38D+00  1.18D+00
 E= -2048.73126748152     Delta-E=       -0.000000259710 Rises=F Damp=F
 DIIS: error= 8.24D-06 at cycle   6 NSaved=   6.
 NSaved= 6 IEnMin= 6 EnMin= -2048.73126748152     IErMin= 6 ErrMin= 8.24D-06
 ErrMax= 8.24D-06  0.00D+00 EMaxC= 1.00D-01 BMatC= 2.91D-08 BMatP= 1.16D-07
 IDIUse=1 WtCom= 1.00D+00 WtEn= 0.00D+00
 Coeff-Com:  0.458D-02-0.444D-01-0.114D+00-0.423D-02 0.529D+00 0.629D+00
 Coeff:      0.458D-02-0.444D-01-0.114D+00-0.423D-02 0.529D+00 0.629D+00
 Gap=     0.286 Goal=   None    Shift=    0.000
 RMSDP=3.63D-07 MaxDP=3.47D-05 DE=-2.60D-07 OVMax= 1.25D-04

 Cycle  12  Pass 1  IDiag  1:
 RMSU=  1.84D-07    CP:  1.00D+00  1.06D+00  8.07D-01  1.45D+00  1.30D+00
                    CP:  9.28D-01
 E= -2048.73126752233     Delta-E=       -0.000000040814 Rises=F Damp=F
 DIIS: error= 1.21D-06 at cycle   7 NSaved=   7.
 NSaved= 7 IEnMin= 7 EnMin= -2048.73126752233     IErMin= 7 ErrMin= 1.21D-06
 ErrMax= 1.21D-06  0.00D+00 EMaxC= 1.00D-01 BMatC= 6.92D-10 BMatP= 2.91D-08
 IDIUse=1 WtCom= 1.00D+00 WtEn= 0.00D+00
 Coeff-Com:  0.962D-03-0.598D-02-0.168D-01-0.861D-02 0.446D-01 0.117D+00
 Coeff-Com:  0.868D+00
 Coeff:      0.962D-03-0.598D-02-0.168D-01-0.861D-02 0.446D-01 0.117D+00
 Coeff:      0.868D+00
 Gap=     0.286 Goal=   None    Shift=    0.000
 RMSDP=8.53D-08 MaxDP=5.13D-06 DE=-4.08D-08 OVMax= 2.39D-05

 Cycle  13  Pass 1  IDiag  1:
 RMSU=  5.10D-08    CP:  1.00D+00  1.06D+00  8.07D-01  1.45D+00  1.32D+00
                    CP:  1.02D+00  1.14D+00
 E= -2048.73126752428     Delta-E=       -0.000000001944 Rises=F Damp=F
 DIIS: error= 4.98D-07 at cycle   8 NSaved=   8.
 NSaved= 8 IEnMin= 8 EnMin= -2048.73126752428     IErMin= 8 ErrMin= 4.98D-07
 ErrMax= 4.98D-07  0.00D+00 EMaxC= 1.00D-01 BMatC= 2.98D-10 BMatP= 6.92D-10
 IDIUse=1 WtCom= 1.00D+00 WtEn= 0.00D+00
 Coeff-Com: -0.704D-03 0.858D-02 0.213D-01-0.157D-02-0.114D+00-0.103D+00
 Coeff-Com:  0.424D+00 0.765D+00
 Coeff:     -0.704D-03 0.858D-02 0.213D-01-0.157D-02-0.114D+00-0.103D+00
 Coeff:      0.424D+00 0.765D+00
 Gap=     0.286 Goal=   None    Shift=    0.000
 RMSDP=4.56D-08 MaxDP=2.47D-06 DE=-1.94D-09 OVMax= 1.02D-05

 Cycle  14  Pass 1  IDiag  1:
 RMSU=  2.69D-08    CP:  1.00D+00  1.06D+00  8.06D-01  1.46D+00  1.33D+00
                    CP:  1.06D+00  1.29D+00  1.06D+00
 E= -2048.73126752480     Delta-E=       -0.000000000519 Rises=F Damp=F
 DIIS: error= 1.67D-07 at cycle   9 NSaved=   9.
 NSaved= 9 IEnMin= 9 EnMin= -2048.73126752480     IErMin= 9 ErrMin= 1.67D-07
 ErrMax= 1.67D-07  0.00D+00 EMaxC= 1.00D-01 BMatC= 2.51D-11 BMatP= 2.98D-10
 IDIUse=1 WtCom= 1.00D+00 WtEn= 0.00D+00
 Coeff-Com: -0.377D-03 0.401D-02 0.101D-01 0.460D-03-0.484D-01-0.524D-01
 Coeff-Com:  0.833D-01 0.285D+00 0.718D+00
 Coeff:     -0.377D-03 0.401D-02 0.101D-01 0.460D-03-0.484D-01-0.524D-01
 Coeff:      0.833D-01 0.285D+00 0.718D+00
 Gap=     0.286 Goal=   None    Shift=    0.000
 RMSDP=1.26D-08 MaxDP=7.60D-07 DE=-5.19D-10 OVMax= 3.11D-06

 Cycle  15  Pass 1  IDiag  1:
 RMSU=  9.03D-09    CP:  1.00D+00  1.06D+00  8.06D-01  1.46D+00  1.33D+00
                    CP:  1.06D+00  1.31D+00  1.20D+00  1.09D+00
 E= -2048.73126752483     Delta-E=       -0.000000000037 Rises=F Damp=F
 DIIS: error= 8.36D-08 at cycle  10 NSaved=  10.
 NSaved=10 IEnMin=10 EnMin= -2048.73126752483     IErMin=10 ErrMin= 8.36D-08
 ErrMax= 8.36D-08  0.00D+00 EMaxC= 1.00D-01 BMatC= 5.23D-12 BMatP= 2.51D-11
 IDIUse=1 WtCom= 1.00D+00 WtEn= 0.00D+00
 Coeff-Com:  0.164D-04-0.428D-03-0.969D-03 0.144D-03 0.691D-02 0.275D-02
 Coeff-Com: -0.617D-01-0.719D-01 0.278D+00 0.847D+00
 Coeff:      0.164D-04-0.428D-03-0.969D-03 0.144D-03 0.691D-02 0.275D-02
 Coeff:     -0.617D-01-0.719D-01 0.278D+00 0.847D+00
 Gap=     0.286 Goal=   None    Shift=    0.000
 RMSDP=6.98D-09 MaxDP=3.48D-07 DE=-3.73D-11 OVMax= 1.46D-06

 SCF Done:  E(RwB97XD) =  -2048.73126752     A.U. after   15 cycles
            NFock= 15  Conv=0.70D-08     -V/T= 2.0053
 KE= 2.037834480669D+03 PE=-1.575139714993D+04 EE= 6.179540107080D+03
 Leave Link  502 at Sun Jan 21 21:52:58 2018, MaxMem=  4294967296 cpu:           21101.8 elap:             682.0
 (Enter /share/apps/g16/l601.exe)
 Copying SCF densities to generalized density rwf, IOpCl= 0 IROHF=0.

 **********************************************************************

            Population analysis using the SCF density.

 **********************************************************************

 Orbital symmetries:
       Occupied  (A) (A) (A) (A) (A) (A) (A) (A) (A) (A) (A) (A)
                 (A) (A) (A) (A) (A) (A) (A) (A) (A) (A) (A) (A)
                 (A) (A) (A) (A) (A) (A) (A) (A) (A) (A) (A) (A)
                 (A) (A) (A) (A) (A) (A) (A) (A) (A) (A) (A) (A)
                 (A) (A) (A) (A) (A) (A) (A) (A) (A) (A) (A) (A)
                 (A) (A) (A) (A) (A) (A) (A) (A) (A) (A) (A) (A)
                 (A) (A) (A) (A) (A) (A) (A) (A) (A) (A) (A) (A)
                 (A) (A) (A) (A) (A) (A) (A) (A) (A) (A) (A) (A)
                 (A) (A) (A) (A) (A) (A) (A) (A) (A) (A) (A) (A)
                 (A) (A) (A) (A) (A) (A) (A) (A) (A) (A) (A) (A)
                 (A) (A) (A) (A) (A) (A) (A) (A) (A) (A) (A) (A)
                 (A) (A) (A) (A) (A) (A) (A) (A) (A) (A) (A) (A)
                 (A) (A) (A) (A) (A) (A) (A) (A) (A) (A)
       Virtual   (A) (A) (A) (A) (A) (A) (A) (A) (A) (A) (A) (A)
                 (A) (A) (A) (A) (A) (A) (A) (A) (A) (A) (A) (A)
                 (A) (A) (A) (A) (A) (A) (A) (A) (A) (A) (A) (A)
                 (A) (A) (A) (A) (A) (A) (A) (A) (A) (A) (A) (A)
                 (A) (A) (A) (A) (A) (A) (A) (A) (A) (A) (A) (A)
                 (A) (A) (A) (A) (A) (A) (A) (A) (A) (A) (A) (A)
                 (A) (A) (A) (A) (A) (A) (A) (A) (A) (A) (A) (A)
                 (A) (A) (A) (A) (A) (A) (A) (A) (A) (A) (A) (A)
                 (A) (A) (A) (A) (A) (A) (A) (A) (A) (A) (A) (A)
                 (A) (A) (A) (A) (A) (A) (A) (A) (A) (A) (A) (A)
                 (A) (A) (A) (A) (A) (A) (A) (A) (A) (A) (A) (A)
                 (A) (A) (A) (A) (A) (A) (A) (A) (A) (A) (A) (A)
                 (A) (A) (A) (A) (A) (A) (A) (A) (A) (A) (A) (A)
                 (A) (A) (A) (A) (A) (A) (A) (A) (A) (A) (A) (A)
                 (A) (A) (A) (A) (A) (A) (A) (A) (A) (A) (A) (A)
                 (A) (A) (A) (A) (A) (A) (A) (A) (A) (A) (A) (A)
                 (A) (A) (A) (A) (A) (A) (A) (A) (A) (A) (A) (A)
                 (A) (A) (A) (A) (A) (A) (A) (A) (A) (A) (A) (A)
                 (A) (A) (A) (A) (A) (A) (A) (A) (A) (A) (A) (A)
                 (A) (A) (A) (A) (A) (A) (A) (A) (A) (A) (A) (A)
                 (A) (A) (A) (A) (A) (A) (A) (A) (A) (A) (A) (A)
                 (A) (A) (A) (A) (A) (A) (A) (A) (A) (A) (A) (A)
                 (A) (A) (A) (A) (A) (A) (A) (A) (A) (A) (A) (A)
                 (A) (A) (A) (A) (A) (A) (A) (A) (A) (A) (A) (A)
                 (A) (A) (A) (A) (A) (A) (A) (A) (A) (A) (A) (A)
                 (A) (A) (A) (A) (A) (A) (A) (A) (A) (A) (A) (A)
                 (A) (A) (A) (A) (A) (A) (A) (A) (A) (A) (A) (A)
                 (A) (A) (A) (A) (A) (A) (A) (A) (A) (A) (A) (A)
                 (A) (A) (A) (A) (A) (A) (A) (A) (A) (A) (A) (A)
                 (A) (A) (A) (A) (A) (A) (A) (A) (A) (A) (A) (A)
                 (A) (A) (A) (A) (A) (A) (A) (A) (A) (A) (A) (A)
                 (A) (A) (A) (A) (A) (A) (A) (A) (A) (A) (A) (A)
                 (A) (A) (A) (A) (A) (A) (A) (A) (A) (A) (A) (A)
                 (A) (A) (A) (A) (A) (A) (A) (A) (A) (A) (A) (A)
                 (A) (A) (A) (A) (A) (A) (A) (A) (A) (A) (A) (A)
                 (A) (A) (A) (A) (A) (A) (A) (A) (A) (A) (A) (A)
                 (A) (A) (A) (A) (A) (A) (A) (A) (A) (A) (A) (A)
                 (A) (A) (A) (A) (A) (A) (A) (A) (A) (A) (A) (A)
                 (A) (A) (A) (A) (A) (A) (A) (A) (A) (A) (A) (A)
                 (A) (A) (A) (A) (A) (A) (A) (A) (A) (A) (A) (A)
                 (A) (A) (A) (A) (A) (A) (A) (A) (A) (A) (A) (A)
                 (A) (A) (A) (A) (A) (A) (A) (A) (A) (A) (A) (A)
                 (A) (A) (A) (A) (A) (A) (A) (A) (A) (A) (A) (A)
                 (A) (A) (A) (A) (A) (A) (A) (A) (A) (A) (A) (A)
                 (A) (A) (A) (A) (A) (A) (A) (A) (A) (A) (A) (A)
                 (A) (A) (A) (A) (A) (A) (A) (A) (A) (A) (A) (A)
                 (A) (A) (A) (A) (A) (A) (A) (A) (A) (A) (A) (A)
                 (A) (A) (A) (A) (A) (A) (A) (A) (A) (A) (A) (A)
                 (A) (A) (A) (A) (A) (A) (A)
 The electronic state is 1-A.
 Alpha  occ. eigenvalues --  -19.26022 -19.21960 -19.20552 -14.52482 -14.51413
 Alpha  occ. eigenvalues --  -14.49694 -14.48550 -14.47840 -14.46799 -14.46543
 Alpha  occ. eigenvalues --  -14.46453 -14.44379 -14.42937 -14.42839 -14.42490
 Alpha  occ. eigenvalues --  -14.42366 -14.41977 -14.41951 -14.41076 -14.40691
 Alpha  occ. eigenvalues --  -10.45583 -10.41183 -10.40066 -10.38449 -10.38155
 Alpha  occ. eigenvalues --  -10.37708 -10.36987 -10.36319 -10.35860 -10.35718
 Alpha  occ. eigenvalues --  -10.35012 -10.34363 -10.34267 -10.34239 -10.34071
 Alpha  occ. eigenvalues --  -10.33473 -10.33147 -10.31699 -10.31367 -10.31006
 Alpha  occ. eigenvalues --  -10.30438 -10.29538 -10.28065  -1.19543  -1.14111
 Alpha  occ. eigenvalues --   -1.13175  -1.12990  -1.12307  -1.10466  -1.09374
 Alpha  occ. eigenvalues --   -1.08597  -1.07770  -1.05930  -1.03359  -1.02488
 Alpha  occ. eigenvalues --   -1.01331  -1.00103  -0.99685  -0.98442  -0.97849
 Alpha  occ. eigenvalues --   -0.96412  -0.95394  -0.93561  -0.91021  -0.86598
 Alpha  occ. eigenvalues --   -0.85111  -0.84857  -0.84028  -0.83883  -0.83178
 Alpha  occ. eigenvalues --   -0.82271  -0.78869  -0.75803  -0.74594  -0.73815
 Alpha  occ. eigenvalues --   -0.73734  -0.73453  -0.73343  -0.72021  -0.69228
 Alpha  occ. eigenvalues --   -0.67428  -0.67186  -0.66565  -0.65557  -0.64456
 Alpha  occ. eigenvalues --   -0.63716  -0.63622  -0.63068  -0.62672  -0.61806
 Alpha  occ. eigenvalues --   -0.61028  -0.60082  -0.59524  -0.59404  -0.59168
 Alpha  occ. eigenvalues --   -0.58502  -0.58274  -0.57338  -0.57241  -0.56773
 Alpha  occ. eigenvalues --   -0.56149  -0.55989  -0.55065  -0.54419  -0.54375
 Alpha  occ. eigenvalues --   -0.53599  -0.53549  -0.52895  -0.52807  -0.52694
 Alpha  occ. eigenvalues --   -0.52487  -0.52128  -0.51709  -0.51637  -0.51023
 Alpha  occ. eigenvalues --   -0.50048  -0.49908  -0.49455  -0.48931  -0.48686
 Alpha  occ. eigenvalues --   -0.48585  -0.48184  -0.47947  -0.47781  -0.47492
 Alpha  occ. eigenvalues --   -0.47332  -0.45897  -0.45311  -0.44003  -0.42905
 Alpha  occ. eigenvalues --   -0.42123  -0.39571  -0.39520  -0.38130  -0.37295
 Alpha  occ. eigenvalues --   -0.37196  -0.36698  -0.36179  -0.35634  -0.34775
 Alpha  occ. eigenvalues --   -0.34437  -0.34389  -0.33169  -0.32991  -0.32822
 Alpha  occ. eigenvalues --   -0.32546  -0.32171  -0.31940  -0.31817  -0.31694
 Alpha  occ. eigenvalues --   -0.31226  -0.28349  -0.26715  -0.25367
 Alpha virt. eigenvalues --    0.03206   0.04922   0.07019   0.08146   0.08420
 Alpha virt. eigenvalues --    0.09235   0.09694   0.09932   0.11017   0.12119
 Alpha virt. eigenvalues --    0.12781   0.13258   0.14411   0.14663   0.14985
 Alpha virt. eigenvalues --    0.16036   0.16233   0.17056   0.17242   0.18367
 Alpha virt. eigenvalues --    0.18716   0.19082   0.19576   0.19762   0.20417
 Alpha virt. eigenvalues --    0.20550   0.21147   0.21632   0.21983   0.22102
 Alpha virt. eigenvalues --    0.23213   0.23242   0.23337   0.23458   0.23793
 Alpha virt. eigenvalues --    0.24053   0.24459   0.25092   0.25826   0.26020
 Alpha virt. eigenvalues --    0.26241   0.26776   0.26972   0.27394   0.28113
 Alpha virt. eigenvalues --    0.28473   0.29154   0.29575   0.30668   0.30873
 Alpha virt. eigenvalues --    0.31489   0.32525   0.32886   0.33487   0.33512
 Alpha virt. eigenvalues --    0.33989   0.34943   0.35435   0.35954   0.36595
 Alpha virt. eigenvalues --    0.36768   0.37699   0.38298   0.39374   0.39787
 Alpha virt. eigenvalues --    0.40056   0.41057   0.41315   0.41520   0.41846
 Alpha virt. eigenvalues --    0.42236   0.42811   0.43383   0.43691   0.44597
 Alpha virt. eigenvalues --    0.45304   0.45628   0.45908   0.46201   0.47111
 Alpha virt. eigenvalues --    0.47804   0.48022   0.49065   0.49121   0.49689
 Alpha virt. eigenvalues --    0.50096   0.50159   0.50791   0.50893   0.51495
 Alpha virt. eigenvalues --    0.51972   0.52131   0.52804   0.53318   0.53642
 Alpha virt. eigenvalues --    0.54043   0.54576   0.54730   0.55241   0.55458
 Alpha virt. eigenvalues --    0.55975   0.56225   0.56739   0.57140   0.57627
 Alpha virt. eigenvalues --    0.58231   0.58621   0.59121   0.59576   0.59947
 Alpha virt. eigenvalues --    0.60167   0.60726   0.60858   0.61530   0.61730
 Alpha virt. eigenvalues --    0.61934   0.62053   0.62615   0.63100   0.63506
 Alpha virt. eigenvalues --    0.63981   0.64605   0.64768   0.65209   0.65492
 Alpha virt. eigenvalues --    0.65677   0.65831   0.66357   0.66646   0.67279
 Alpha virt. eigenvalues --    0.67609   0.68072   0.68441   0.68683   0.69687
 Alpha virt. eigenvalues --    0.70600   0.70996   0.71071   0.71482   0.72295
 Alpha virt. eigenvalues --    0.72644   0.73242   0.73355   0.73699   0.73910
 Alpha virt. eigenvalues --    0.74196   0.74545   0.74596   0.75235   0.75362
 Alpha virt. eigenvalues --    0.75650   0.76229   0.76456   0.76850   0.77107
 Alpha virt. eigenvalues --    0.77355   0.77691   0.78285   0.78621   0.78855
 Alpha virt. eigenvalues --    0.79600   0.79893   0.80112   0.80542   0.81190
 Alpha virt. eigenvalues --    0.81449   0.82020   0.82500   0.82658   0.83063
 Alpha virt. eigenvalues --    0.83277   0.83782   0.84177   0.84743   0.85001
 Alpha virt. eigenvalues --    0.85084   0.86292   0.86959   0.87046   0.87672
 Alpha virt. eigenvalues --    0.88042   0.88166   0.88675   0.89182   0.89702
 Alpha virt. eigenvalues --    0.90453   0.90770   0.91282   0.91909   0.92348
 Alpha virt. eigenvalues --    0.93108   0.93319   0.93880   0.94099   0.94514
 Alpha virt. eigenvalues --    0.94942   0.95005   0.95964   0.96104   0.96777
 Alpha virt. eigenvalues --    0.97147   0.97684   0.97973   0.98597   0.99581
 Alpha virt. eigenvalues --    0.99850   1.00269   1.00571   1.01382   1.01619
 Alpha virt. eigenvalues --    1.01895   1.02279   1.02871   1.03329   1.03425
 Alpha virt. eigenvalues --    1.03711   1.04792   1.04969   1.05273   1.05748
 Alpha virt. eigenvalues --    1.05989   1.06257   1.06667   1.07368   1.08409
 Alpha virt. eigenvalues --    1.09063   1.09210   1.10631   1.10919   1.11221
 Alpha virt. eigenvalues --    1.12049   1.12437   1.13000   1.13536   1.13710
 Alpha virt. eigenvalues --    1.14053   1.14264   1.15242   1.15517   1.15720
 Alpha virt. eigenvalues --    1.16052   1.16750   1.17122   1.17682   1.18161
 Alpha virt. eigenvalues --    1.18445   1.18608   1.18806   1.19761   1.20253
 Alpha virt. eigenvalues --    1.20704   1.20907   1.21501   1.21713   1.21880
 Alpha virt. eigenvalues --    1.22334   1.22508   1.22880   1.22940   1.23709
 Alpha virt. eigenvalues --    1.24352   1.24469   1.25034   1.25844   1.26047
 Alpha virt. eigenvalues --    1.26702   1.27104   1.27856   1.28604   1.29334
 Alpha virt. eigenvalues --    1.29853   1.30483   1.30627   1.31767   1.31905
 Alpha virt. eigenvalues --    1.32612   1.33386   1.33949   1.35029   1.35274
 Alpha virt. eigenvalues --    1.35830   1.36440   1.36569   1.37342   1.37739
 Alpha virt. eigenvalues --    1.38395   1.38786   1.38942   1.39745   1.40517
 Alpha virt. eigenvalues --    1.41218   1.42955   1.44161   1.44841   1.45379
 Alpha virt. eigenvalues --    1.45727   1.47765   1.48064   1.48431   1.48791
 Alpha virt. eigenvalues --    1.48839   1.50128   1.50227   1.50942   1.51586
 Alpha virt. eigenvalues --    1.52232   1.52384   1.53718   1.54628   1.55407
 Alpha virt. eigenvalues --    1.55467   1.56680   1.56964   1.57444   1.57910
 Alpha virt. eigenvalues --    1.58928   1.59534   1.60136   1.60616   1.61808
 Alpha virt. eigenvalues --    1.62033   1.62940   1.63156   1.63642   1.64807
 Alpha virt. eigenvalues --    1.65374   1.66271   1.66707   1.66947   1.67149
 Alpha virt. eigenvalues --    1.67381   1.67757   1.68534   1.68956   1.69434
 Alpha virt. eigenvalues --    1.69859   1.70596   1.70857   1.71338   1.71708
 Alpha virt. eigenvalues --    1.72007   1.72327   1.72901   1.73357   1.73653
 Alpha virt. eigenvalues --    1.74100   1.74527   1.74763   1.75000   1.75138
 Alpha virt. eigenvalues --    1.75921   1.76426   1.76763   1.77187   1.77408
 Alpha virt. eigenvalues --    1.77548   1.78145   1.78787   1.78896   1.79303
 Alpha virt. eigenvalues --    1.79555   1.79665   1.80306   1.80602   1.81037
 Alpha virt. eigenvalues --    1.81269   1.81648   1.81856   1.82530   1.82777
 Alpha virt. eigenvalues --    1.83253   1.83583   1.84327   1.84425   1.85486
 Alpha virt. eigenvalues --    1.85891   1.86411   1.87066   1.87386   1.87809
 Alpha virt. eigenvalues --    1.87964   1.88493   1.88594   1.89016   1.89040
 Alpha virt. eigenvalues --    1.89872   1.90237   1.90768   1.91238   1.92064
 Alpha virt. eigenvalues --    1.92282   1.92521   1.92715   1.94034   1.94255
 Alpha virt. eigenvalues --    1.94490   1.95417   1.95710   1.96715   1.98347
 Alpha virt. eigenvalues --    1.99352   1.99647   2.00392   2.00941   2.01642
 Alpha virt. eigenvalues --    2.02012   2.02481   2.03114   2.04692   2.04975
 Alpha virt. eigenvalues --    2.05076   2.05573   2.06450   2.07132   2.07351
 Alpha virt. eigenvalues --    2.08202   2.08481   2.08755   2.09935   2.10365
 Alpha virt. eigenvalues --    2.10457   2.10962   2.11733   2.12501   2.13266
 Alpha virt. eigenvalues --    2.14169   2.14944   2.16264   2.18152   2.18715
 Alpha virt. eigenvalues --    2.19355   2.19968   2.20200   2.20521   2.21178
 Alpha virt. eigenvalues --    2.21588   2.22455   2.23210   2.23419   2.23924
 Alpha virt. eigenvalues --    2.24305   2.25115   2.26458   2.26904   2.27546
 Alpha virt. eigenvalues --    2.28332   2.28703   2.29090   2.29433   2.30019
 Alpha virt. eigenvalues --    2.30387   2.31309   2.31842   2.32323   2.32914
 Alpha virt. eigenvalues --    2.33621   2.34207   2.34571   2.35539   2.35599
 Alpha virt. eigenvalues --    2.35864   2.36486   2.37077   2.37785   2.38476
 Alpha virt. eigenvalues --    2.38933   2.39806   2.40408   2.40810   2.41731
 Alpha virt. eigenvalues --    2.41751   2.42571   2.42885   2.43521   2.44766
 Alpha virt. eigenvalues --    2.45699   2.45905   2.46242   2.46973   2.47691
 Alpha virt. eigenvalues --    2.48962   2.49352   2.50405   2.51123   2.51958
 Alpha virt. eigenvalues --    2.53217   2.53462   2.54394   2.54811   2.56464
 Alpha virt. eigenvalues --    2.57058   2.57692   2.58342   2.58990   2.59797
 Alpha virt. eigenvalues --    2.60636   2.60851   2.61368   2.62595   2.64216
 Alpha virt. eigenvalues --    2.64353   2.65168   2.65501   2.65684   2.66496
 Alpha virt. eigenvalues --    2.67364   2.67825   2.68092   2.68683   2.69458
 Alpha virt. eigenvalues --    2.70625   2.71466   2.71768   2.72454   2.73424
 Alpha virt. eigenvalues --    2.73835   2.74748   2.74928   2.75579   2.76880
 Alpha virt. eigenvalues --    2.78279   2.79234   2.79323   2.79704   2.79786
 Alpha virt. eigenvalues --    2.80348   2.80873   2.81279   2.81642   2.82104
 Alpha virt. eigenvalues --    2.82529   2.83010   2.83207   2.83782   2.83978
 Alpha virt. eigenvalues --    2.85715   2.86332   2.86750   2.87312   2.87679
 Alpha virt. eigenvalues --    2.88094   2.89164   2.89406   2.91473   2.92668
 Alpha virt. eigenvalues --    2.94551   2.96140   2.97359   2.98532   2.98992
 Alpha virt. eigenvalues --    2.99650   3.02382   3.03996   3.04949   3.05729
 Alpha virt. eigenvalues --    3.08377   3.09354   3.10833   3.14169   3.14522
 Alpha virt. eigenvalues --    3.15212   3.15713   3.16145   3.18212   3.21376
 Alpha virt. eigenvalues --    3.22183   3.22993   3.23333   3.24536   3.27690
 Alpha virt. eigenvalues --    3.46265   3.46716   3.48357   3.49795   3.50615
 Alpha virt. eigenvalues --    3.52750   3.53977   3.56628   3.58288   3.60160
 Alpha virt. eigenvalues --    3.63070   3.71522   3.74689
          Condensed to atoms (all electrons):
 Mulliken charges:
               1
     1  N   -0.311304
     2  C    0.180579
     3  C    0.036460
     4  N   -0.257405
     5  C    0.133986
     6  H    0.029643
     7  N   -0.276514
     8  C    0.117956
     9  H    0.021254
    10  N   -0.288333
    11  C    0.234547
    12  C    0.106993
    13  N   -0.045613
    14  H    0.107586
    15  H    0.088528
    16  H    0.027759
    17  H    0.035450
    18  H    0.026838
    19  N   -0.298643
    20  C    0.226133
    21  C    0.183261
    22  N   -0.100019
    23  H    0.105395
    24  H    0.118497
    25  N   -0.286288
    26  C    0.214289
    27  N   -0.111887
    28  H    0.122396
    29  C    0.136884
    30  O   -0.321179
    31  C    0.006261
    32  N   -0.222259
    33  C    0.125878
    34  H    0.028580
    35  H    0.023014
    36  H    0.026558
    37  H    0.023152
    38  H    0.056634
    39  H    0.063901
    40  H    0.071228
    41  H    0.031029
    42  C   -0.107443
    43  O   -0.269942
    44  C    0.180014
    45  H    0.135325
    46  N   -0.134174
    47  O   -0.352778
    48  C    0.360038
    49  H    0.046913
    50  C    0.176040
    51  C    0.036713
    52  N   -0.292767
    53  H    0.033370
    54  H    0.032244
    55  H    0.023432
    56  H    0.119553
    57  H    0.119059
    58  N   -0.060371
    59  C    0.127431
    60  C    0.226866
    61  N   -0.260026
    62  H    0.060148
    63  C    0.141498
    64  N   -0.300119
    65  H    0.025725
    66  C    0.123009
    67  N   -0.258274
    68  C    0.014204
    69  C    0.163740
    70  N   -0.300656
 Sum of Mulliken charges =  -0.00000
 Mulliken charges with hydrogens summed into heavy atoms:
               1
     1  N   -0.311304
     2  C    0.270627
     3  C    0.036460
     4  N   -0.257405
     5  C    0.163629
     7  N   -0.276514
     8  C    0.139211
    10  N   -0.288333
    11  C    0.234547
    12  C    0.106993
    13  N    0.150502
    19  N   -0.298643
    20  C    0.226133
    21  C    0.255985
    22  N    0.123873
    25  N   -0.286288
    26  C    0.214289
    27  N    0.010509
    29  C    0.136884
    30  O   -0.321179
    31  C    0.006261
    32  N   -0.222259
    33  C    0.154458
    42  C   -0.076414
    43  O   -0.269942
    44  C    0.180014
    46  N    0.001150
    47  O   -0.352778
    48  C    0.360038
    50  C    0.222953
    51  C    0.228476
    52  N   -0.292767
    58  N    0.178240
    59  C    0.127431
    60  C    0.226866
    61  N   -0.260026
    63  C    0.201646
    64  N   -0.300119
    66  C    0.148735
    67  N   -0.258274
    68  C    0.014204
    69  C    0.252787
    70  N   -0.300656
 Electronic spatial extent (au):  <R**2>=          24193.2478
 Charge=             -0.0000 electrons
 Dipole moment (field-independent basis, Debye):
    X=              5.9717    Y=              5.8908    Z=              3.4343  Tot=              9.0641
 Quadrupole moment (field-independent basis, Debye-Ang):
   XX=           -138.7689   YY=           -226.9578   ZZ=           -254.4355
   XY=             14.0940   XZ=             17.0998   YZ=             -8.3356
 Traceless Quadrupole moment (field-independent basis, Debye-Ang):
   XX=             67.9519   YY=            -20.2371   ZZ=            -47.7148
   XY=             14.0940   XZ=             17.0998   YZ=             -8.3356
 Octapole moment (field-independent basis, Debye-Ang**2):
  XXX=             21.5687  YYY=             80.8745  ZZZ=             11.0902  XYY=             43.6242
  XXY=              4.7842  XXZ=            -54.8915  XZZ=             16.6210  YZZ=             39.5628
  YYZ=             56.9642  XYZ=             32.8535
 Hexadecapole moment (field-independent basis, Debye-Ang**3):
 XXXX=         -16469.8911 YYYY=          -4641.6829 ZZZZ=          -3001.6338 XXXY=            487.8334
 XXXZ=            293.8063 YYYX=            109.7356 YYYZ=            -96.0387 ZZZX=             69.0879
 ZZZY=             24.7943 XXYY=          -4520.0336 XXZZ=          -4461.5812 YYZZ=          -1331.5825
 XXYZ=             72.0081 YYXZ=            199.0175 ZZXY=             80.5953
 N-N= 5.485291294657D+03 E-N=-1.575139714405D+04  KE= 2.037834480669D+03
 No NMR shielding tensors so no spin-rotation constants.
 Leave Link  601 at Sun Jan 21 21:53:00 2018, MaxMem=  4294967296 cpu:              49.0 elap:               1.7
 (Enter /share/apps/g16/l9999.exe)
 1\1\GINC-COMPUTE-0-3\SP\RwB97XD\CC-pVDZ\C23H27N17O3\SATYA\21-Jan-2018\
 0\\#p wb97xd/cc-pvdz sp scf=(maxcycles=20)\\Base pair stacking\\0,1\N,
 0,6.1209,8.35872,-6.87294\C,0,6.58647,9.75808,-6.92798\C,0,4.85869,6.5
 6192,-6.74779\N,0,6.16675,6.11099,-6.84963\C,0,6.87483,7.21154,-6.9209
 5\H,0,7.96102,7.24522,-7.01043\N,0,2.50902,6.63386,-6.55596\C,0,2.6239
 7,7.96567,-6.58143\H,0,1.686,8.5148,-6.51112\N,0,3.71847,8.71747,-6.68
 024\C,0,4.8146,7.94518,-6.76083\C,0,3.63035,5.88498,-6.6389\N,0,3.5176
 4,4.55539,-6.61364\H,0,4.32098,3.96174,-6.67237\H,0,2.62687,4.1076,-6.
 5352\H,0,7.07112,9.91597,-7.78842\H,0,5.80119,10.37389,-6.871\H,0,7.20
 406,9.93646,-6.16198\N,0,1.69236,7.20565,-3.2817\C,0,0.77183,6.18694,-
 3.22774\C,0,1.3701,8.64623,-3.3211\N,0,-2.53169,5.12088,-3.11806\H,0,-
 3.0257,4.25275,-3.07868\H,0,-3.08226,5.95597,-3.13263\N,0,-0.57093,6.3
 2968,-3.20184\C,0,-1.19116,5.16425,-3.14995\N,0,-0.54752,3.95074,-3.12
 522\H,0,-1.10297,3.11,-3.08533\C,0,0.83309,3.78011,-3.15108\O,0,1.3132
 8,2.64016,-3.12502\C,0,1.51299,5.0233,-3.20685\N,0,2.87148,5.30579,-3.
 24689\C,0,2.92963,6.60922,-3.29049\H,0,3.85266,7.18863,-3.33026\H,0,1.
 73685,9.04874,-4.15913\H,0,0.37815,8.76434,-3.30238\H,0,1.77392,9.1016
 2,-2.5284\H,0,-4.43646,-0.70291,-3.53512\H,0,-4.19534,-0.8429,-1.79531
 \H,0,-4.0798,0.73428,-2.57666\H,0,-0.20674,-2.99229,-3.41327\C,0,-0.60
 472,-1.98664,-3.2772\O,0,1.50621,-0.92446,-3.48428\C,0,0.28892,-0.8694
 6,-3.31115\H,0,0.28183,1.1704,-3.14603\N,0,-0.31728,0.35708,-3.12845\O
 ,0,-2.09658,1.72245,-2.772\C,0,-1.65285,0.59787,-2.92398\H,0,-2.6337,-
 2.59922,-3.0453\C,0,-1.91253,-1.78369,-3.07962\C,0,-3.88469,-0.3219,-2
 .68868\N,0,-2.45007,-0.52964,-2.90422\H,0,-4.82167,3.67797,-6.10206\H,
 0,-3.81309,4.58666,-5.19699\H,0,-4.60939,3.33231,-4.52128\H,0,2.12732,
 1.1547,-6.7425\H,0,0.76491,0.1289,-6.7833\N,0,1.13927,1.04473,-6.63387
 \C,0,0.35485,2.07299,-6.30441\C,0,-1.71756,3.1261,-5.79667\N,0,-1.1872
 3,4.34483,-5.60214\H,0,0.64293,5.26632,-5.64686\C,0,0.13124,4.31491,-5
 .78561\N,0,0.91871,3.28604,-6.11562\H,0,-4.02567,0.86963,-5.97885\C,0,
 -3.08626,1.42319,-5.98424\N,0,-1.91513,0.90099,-6.25527\C,0,-1.03844,1
 .97001,-6.13987\C,0,-4.16064,3.66235,-5.35187\N,0,-3.04058,2.76576,-5.
 69767\\Version=EM64L-G16RevA.03\State=1-A\HF=-2048.7312675\RMSD=6.980e
 -09\Dipole=-3.5653519,-0.0388669,-0.0610883\Quadrupole=22.5530018,7.53
 82601,-30.0912619,36.1623391,-16.7792681,1.9191135\PG=C01 [X(C23H27N17
 O3)]\\@


 HOW IS IT THAT THE SKY FEEDS THE STARS?

                           -- LUCRETIUS
 Job cpu time:       0 days  6 hours  1 minutes 54.6 seconds.
 Elapsed time:       0 days  0 hours 11 minutes 41.6 seconds.
 File lengths (MBytes):  RWF=    298 Int=      0 D2E=      0 Chk=     33 Scr=      1
 Normal termination of Gaussian 16 at Sun Jan 21 21:53:00 2018.
