 Entering Gaussian System, Link 0=g16
 Input=str30.0.2.0.com
 Output=str30.0.2.0.log
 Initial command:
 /share/apps/g16/l1.exe "/state/partition1/scr/Gau-10254.inp" -scrdir="/state/partition1/scr/"
 Entering Link 1 = /share/apps/g16/l1.exe PID=     10255.
  
 Copyright (c) 1988,1990,1992,1993,1995,1998,2003,2009,2016,
            Gaussian, Inc.  All Rights Reserved.
  
 This is part of the Gaussian(R) 16 program.  It is based on
 the Gaussian(R) 09 system (copyright 2009, Gaussian, Inc.),
 the Gaussian(R) 03 system (copyright 2003, Gaussian, Inc.),
 the Gaussian(R) 98 system (copyright 1998, Gaussian, Inc.),
 the Gaussian(R) 94 system (copyright 1995, Gaussian, Inc.),
 the Gaussian 92(TM) system (copyright 1992, Gaussian, Inc.),
 the Gaussian 90(TM) system (copyright 1990, Gaussian, Inc.),
 the Gaussian 88(TM) system (copyright 1988, Gaussian, Inc.),
 the Gaussian 86(TM) system (copyright 1986, Carnegie Mellon
 University), and the Gaussian 82(TM) system (copyright 1983,
 Carnegie Mellon University). Gaussian is a federally registered
 trademark of Gaussian, Inc.
  
 This software contains proprietary and confidential information,
 including trade secrets, belonging to Gaussian, Inc.
  
 This software is provided under written license and may be
 used, copied, transmitted, or stored only in accord with that
 written license.
  
 The following legend is applicable only to US Government
 contracts under FAR:
  
                    RESTRICTED RIGHTS LEGEND
  
 Use, reproduction and disclosure by the US Government is
 subject to restrictions as set forth in subparagraphs (a)
 and (c) of the Commercial Computer Software - Restricted
 Rights clause in FAR 52.227-19.
  
 Gaussian, Inc.
 340 Quinnipiac St., Bldg. 40, Wallingford CT 06492
  
  
 ---------------------------------------------------------------
 Warning -- This program may not be used in any manner that
 competes with the business of Gaussian, Inc. or will provide
 assistance to any competitor of Gaussian, Inc.  The licensee
 of this program is prohibited from giving any competitor of
 Gaussian, Inc. access to this program.  By using this program,
 the user acknowledges that Gaussian, Inc. is engaged in the
 business of creating and licensing software in the field of
 computational chemistry and represents and warrants to the
 licensee that it is not a competitor of Gaussian, Inc. and that
 it will not use this program in any manner prohibited above.
 ---------------------------------------------------------------
  

 Cite this work as:
 Gaussian 16, Revision A.03,
 M. J. Frisch, G. W. Trucks, H. B. Schlegel, G. E. Scuseria, 
 M. A. Robb, J. R. Cheeseman, G. Scalmani, V. Barone, 
 G. A. Petersson, H. Nakatsuji, X. Li, M. Caricato, A. V. Marenich, 
 J. Bloino, B. G. Janesko, R. Gomperts, B. Mennucci, H. P. Hratchian, 
 J. V. Ortiz, A. F. Izmaylov, J. L. Sonnenberg, D. Williams-Young, 
 F. Ding, F. Lipparini, F. Egidi, J. Goings, B. Peng, A. Petrone, 
 T. Henderson, D. Ranasinghe, V. G. Zakrzewski, J. Gao, N. Rega, 
 G. Zheng, W. Liang, M. Hada, M. Ehara, K. Toyota, R. Fukuda, 
 J. Hasegawa, M. Ishida, T. Nakajima, Y. Honda, O. Kitao, H. Nakai, 
 T. Vreven, K. Throssell, J. A. Montgomery, Jr., J. E. Peralta, 
 F. Ogliaro, M. J. Bearpark, J. J. Heyd, E. N. Brothers, K. N. Kudin, 
 V. N. Staroverov, T. A. Keith, R. Kobayashi, J. Normand, 
 K. Raghavachari, A. P. Rendell, J. C. Burant, S. S. Iyengar, 
 J. Tomasi, M. Cossi, J. M. Millam, M. Klene, C. Adamo, R. Cammi, 
 J. W. Ochterski, R. L. Martin, K. Morokuma, O. Farkas, 
 J. B. Foresman, and D. J. Fox, Gaussian, Inc., Wallingford CT, 2016.
 
 ******************************************
 Gaussian 16:  EM64L-G16RevA.03 25-Dec-2016
                21-Jan-2018 
 ******************************************
 %nprocshared=32
 Will use up to   32 processors via shared memory.
 %mem=32GB
 %chk=allatoms_t.chk
 ---------------------------------------
 #p wb97xd/cc-pvdz sp scf=(maxcycles=20)
 ---------------------------------------
 1/38=1,172=1/1;
 2/12=2,17=6,18=5,40=1/2;
 3/5=16,11=2,25=1,30=1,74=-58/1,2,3;
 4//1;
 5/5=2,7=20,38=5/2;
 6/7=2,8=2,9=2,10=2,28=1/1;
 99/5=1,9=1/99;
 Leave Link    1 at Sun Jan 21 04:28:01 2018, MaxMem=  4294967296 cpu:               2.7 elap:               0.1
 (Enter /share/apps/g16/l101.exe)
 ------------------
 Base pair stacking
 ------------------
 Symbolic Z-matrix:
 Charge =  0 Multiplicity = 1
 N                     2.32333   0.68369  -6.47105 
 C                     2.79609   2.07795  -6.57363 
 C                     1.0508   -1.1078   -6.37851 
 N                     2.35891  -1.55437  -6.25948 
 C                     3.0732   -0.45719  -6.32 
 H                     4.1613   -0.42163  -6.25909 
 N                    -1.30235  -1.04055  -6.52372 
 C                    -1.18108   0.2858   -6.6407 
 H                    -2.11804   0.83083  -6.74702 
 N                    -0.08134   1.03643  -6.64603 
 C                     1.01301   0.26948  -6.50964 
 C                    -0.18265  -1.78414  -6.38803 
 N                    -0.30166  -3.10828  -6.27112 
 H                     0.50025  -3.6979   -6.1686 
 H                    -1.19594  -3.55582  -6.28203 
 H                     3.39697   2.17004  -7.36775 
 H                     2.01237   2.68967  -6.67715 
 H                     3.30078   2.32275  -5.74576 
 N                     0.67177   2.85925  -3.26456 
 C                    -0.25048   1.84067  -3.26328 
 C                     0.3543    4.29819  -3.36129 
 N                    -3.5524    0.77264  -3.39872 
 H                    -4.0483   -0.09512  -3.38065 
 H                    -4.09967   1.60644  -3.47605 
 N                    -1.59086   1.98207  -3.34948 
 C                    -2.21369   0.81718  -3.32272 
 N                    -1.57462  -0.39461  -3.21948 
 H                    -2.13179  -1.23506  -3.20649 
 C                    -0.19653  -0.56384  -3.12957 
 O                     0.27954  -1.70228  -3.03986 
 C                     0.48611   0.6788   -3.15705 
 N                     1.84347   0.96224  -3.09292 
 C                     1.90546   2.2645   -3.16 
 H                     2.82888   2.8442   -3.13738 
 H                     0.78796   4.68292  -4.17537 
 H                    -0.63585   4.4153   -3.42565 
 H                     0.69267   4.77125  -2.54855 
 H                    -5.41923  -5.06149  -3.84208 
 H                    -5.32008  -5.16333  -2.08582 
 H                    -5.14095  -3.60333  -2.88935 
 H                    -1.21418  -7.34178  -3.32784 
 C                    -1.62151  -6.33397  -3.2464 
 O                     0.49965  -5.27359  -3.30466 
 C                    -0.72765  -5.21654  -3.23206 
 H                    -0.74735  -3.17359  -3.11248 
 N                    -1.34621  -3.98717  -3.12585 
 O                    -3.14806  -2.61687  -2.94466 
 C                    -2.69388  -3.74386  -3.03565 
 H                    -3.66285  -6.9442   -3.16654 
 C                    -2.94097  -6.1286   -3.16 
 C                    -4.93779  -4.66141  -2.96218 
 N                    -3.49049  -4.87178  -3.05609 
 H                    -8.63291  -4.01225  -6.86174 
 H                    -7.75845  -3.02501  -5.90113 
 H                    -8.64522  -4.2275   -5.24405 
 H                    -1.67012  -6.51994  -6.31721 
 H                    -3.01635  -7.55721  -6.46493 
 N                    -2.66396  -6.62917  -6.33931 
 C                    -3.4838   -5.58438  -6.20724 
 C                    -5.60383  -4.51137  -6.08142 
 N                    -5.10243  -3.27646  -5.91402 
 H                    -3.28138  -2.3461   -5.77681 
 C                    -3.77136  -3.3099   -5.90822 
 N                    -2.94842  -4.35532  -6.04035 
 H                    -7.87021  -6.79466  -6.40123 
 C                    -6.9377   -6.2354   -6.32 
 N                    -5.74168  -6.7678   -6.38132 
 C                    -4.88669  -5.68556  -6.23142 
 C                    -8.08356  -3.96171  -6.02768 
 N                    -6.92871  -4.87374  -6.1396 
 
 ITRead=  0  0  0  0  0  0  0  0  0  0  0  0  0  0  0  0  0  0  0  0
 ITRead=  0  0  0  0  0  0  0  0  0  0  0  0  0  0  0  0  0  0  0  0
 ITRead=  0  0  0  0  0  0  0  0  0  0  0  0  0  0  0  0  0  0  0  0
 ITRead=  0  0  0  0  0  0  0  0  0  0
 MicOpt= -1 -1 -1 -1 -1 -1 -1 -1 -1 -1 -1 -1 -1 -1 -1 -1 -1 -1 -1 -1
 MicOpt= -1 -1 -1 -1 -1 -1 -1 -1 -1 -1 -1 -1 -1 -1 -1 -1 -1 -1 -1 -1
 MicOpt= -1 -1 -1 -1 -1 -1 -1 -1 -1 -1 -1 -1 -1 -1 -1 -1 -1 -1 -1 -1
 MicOpt= -1 -1 -1 -1 -1 -1 -1 -1 -1 -1
 NAtoms=     70 NQM=       70 NQMF=       0 NMMI=      0 NMMIF=      0
                NMic=       0 NMicF=      0.
                    Isotopes and Nuclear Properties:
 (Nuclear quadrupole moments (NQMom) in fm**2, nuclear magnetic moments (NMagM)
  in nuclear magnetons)

  Atom         1           2           3           4           5           6           7           8           9          10
 IAtWgt=          14          12          12          14          12           1          14          12           1          14
 AtmWgt=  14.0030740  12.0000000  12.0000000  14.0030740  12.0000000   1.0078250  14.0030740  12.0000000   1.0078250  14.0030740
 NucSpn=           2           0           0           2           0           1           2           0           1           2
 AtZEff=  -0.0000000  -0.0000000  -0.0000000  -0.0000000  -0.0000000  -0.0000000  -0.0000000  -0.0000000  -0.0000000  -0.0000000
 NQMom=    2.0440000   0.0000000   0.0000000   2.0440000   0.0000000   0.0000000   2.0440000   0.0000000   0.0000000   2.0440000
 NMagM=    0.4037610   0.0000000   0.0000000   0.4037610   0.0000000   2.7928460   0.4037610   0.0000000   2.7928460   0.4037610
 AtZNuc=   7.0000000   6.0000000   6.0000000   7.0000000   6.0000000   1.0000000   7.0000000   6.0000000   1.0000000   7.0000000

  Atom        11          12          13          14          15          16          17          18          19          20
 IAtWgt=          12          12          14           1           1           1           1           1          14          12
 AtmWgt=  12.0000000  12.0000000  14.0030740   1.0078250   1.0078250   1.0078250   1.0078250   1.0078250  14.0030740  12.0000000
 NucSpn=           0           0           2           1           1           1           1           1           2           0
 AtZEff=  -0.0000000  -0.0000000  -0.0000000  -0.0000000  -0.0000000  -0.0000000  -0.0000000  -0.0000000  -0.0000000  -0.0000000
 NQMom=    0.0000000   0.0000000   2.0440000   0.0000000   0.0000000   0.0000000   0.0000000   0.0000000   2.0440000   0.0000000
 NMagM=    0.0000000   0.0000000   0.4037610   2.7928460   2.7928460   2.7928460   2.7928460   2.7928460   0.4037610   0.0000000
 AtZNuc=   6.0000000   6.0000000   7.0000000   1.0000000   1.0000000   1.0000000   1.0000000   1.0000000   7.0000000   6.0000000

  Atom        21          22          23          24          25          26          27          28          29          30
 IAtWgt=          12          14           1           1          14          12          14           1          12          16
 AtmWgt=  12.0000000  14.0030740   1.0078250   1.0078250  14.0030740  12.0000000  14.0030740   1.0078250  12.0000000  15.9949146
 NucSpn=           0           2           1           1           2           0           2           1           0           0
 AtZEff=  -0.0000000  -0.0000000  -0.0000000  -0.0000000  -0.0000000  -0.0000000  -0.0000000  -0.0000000  -0.0000000  -0.0000000
 NQMom=    0.0000000   2.0440000   0.0000000   0.0000000   2.0440000   0.0000000   2.0440000   0.0000000   0.0000000   0.0000000
 NMagM=    0.0000000   0.4037610   2.7928460   2.7928460   0.4037610   0.0000000   0.4037610   2.7928460   0.0000000   0.0000000
 AtZNuc=   6.0000000   7.0000000   1.0000000   1.0000000   7.0000000   6.0000000   7.0000000   1.0000000   6.0000000   8.0000000

  Atom        31          32          33          34          35          36          37          38          39          40
 IAtWgt=          12          14          12           1           1           1           1           1           1           1
 AtmWgt=  12.0000000  14.0030740  12.0000000   1.0078250   1.0078250   1.0078250   1.0078250   1.0078250   1.0078250   1.0078250
 NucSpn=           0           2           0           1           1           1           1           1           1           1
 AtZEff=  -0.0000000  -0.0000000  -0.0000000  -0.0000000  -0.0000000  -0.0000000  -0.0000000  -0.0000000  -0.0000000  -0.0000000
 NQMom=    0.0000000   2.0440000   0.0000000   0.0000000   0.0000000   0.0000000   0.0000000   0.0000000   0.0000000   0.0000000
 NMagM=    0.0000000   0.4037610   0.0000000   2.7928460   2.7928460   2.7928460   2.7928460   2.7928460   2.7928460   2.7928460
 AtZNuc=   6.0000000   7.0000000   6.0000000   1.0000000   1.0000000   1.0000000   1.0000000   1.0000000   1.0000000   1.0000000

  Atom        41          42          43          44          45          46          47          48          49          50
 IAtWgt=           1          12          16          12           1          14          16          12           1          12
 AtmWgt=   1.0078250  12.0000000  15.9949146  12.0000000   1.0078250  14.0030740  15.9949146  12.0000000   1.0078250  12.0000000
 NucSpn=           1           0           0           0           1           2           0           0           1           0
 AtZEff=  -0.0000000  -0.0000000  -0.0000000  -0.0000000  -0.0000000  -0.0000000  -0.0000000  -0.0000000  -0.0000000  -0.0000000
 NQMom=    0.0000000   0.0000000   0.0000000   0.0000000   0.0000000   2.0440000   0.0000000   0.0000000   0.0000000   0.0000000
 NMagM=    2.7928460   0.0000000   0.0000000   0.0000000   2.7928460   0.4037610   0.0000000   0.0000000   2.7928460   0.0000000
 AtZNuc=   1.0000000   6.0000000   8.0000000   6.0000000   1.0000000   7.0000000   8.0000000   6.0000000   1.0000000   6.0000000

  Atom        51          52          53          54          55          56          57          58          59          60
 IAtWgt=          12          14           1           1           1           1           1          14          12          12
 AtmWgt=  12.0000000  14.0030740   1.0078250   1.0078250   1.0078250   1.0078250   1.0078250  14.0030740  12.0000000  12.0000000
 NucSpn=           0           2           1           1           1           1           1           2           0           0
 AtZEff=  -0.0000000  -0.0000000  -0.0000000  -0.0000000  -0.0000000  -0.0000000  -0.0000000  -0.0000000  -0.0000000  -0.0000000
 NQMom=    0.0000000   2.0440000   0.0000000   0.0000000   0.0000000   0.0000000   0.0000000   2.0440000   0.0000000   0.0000000
 NMagM=    0.0000000   0.4037610   2.7928460   2.7928460   2.7928460   2.7928460   2.7928460   0.4037610   0.0000000   0.0000000
 AtZNuc=   6.0000000   7.0000000   1.0000000   1.0000000   1.0000000   1.0000000   1.0000000   7.0000000   6.0000000   6.0000000

  Atom        61          62          63          64          65          66          67          68          69          70
 IAtWgt=          14           1          12          14           1          12          14          12          12          14
 AtmWgt=  14.0030740   1.0078250  12.0000000  14.0030740   1.0078250  12.0000000  14.0030740  12.0000000  12.0000000  14.0030740
 NucSpn=           2           1           0           2           1           0           2           0           0           2
 AtZEff=  -0.0000000  -0.0000000  -0.0000000  -0.0000000  -0.0000000  -0.0000000  -0.0000000  -0.0000000  -0.0000000  -0.0000000
 NQMom=    2.0440000   0.0000000   0.0000000   2.0440000   0.0000000   0.0000000   2.0440000   0.0000000   0.0000000   2.0440000
 NMagM=    0.4037610   2.7928460   0.0000000   0.4037610   2.7928460   0.0000000   0.4037610   0.0000000   0.0000000   0.4037610
 AtZNuc=   7.0000000   1.0000000   6.0000000   7.0000000   1.0000000   6.0000000   7.0000000   6.0000000   6.0000000   7.0000000
 Leave Link  101 at Sun Jan 21 04:28:01 2018, MaxMem=  4294967296 cpu:               7.6 elap:               0.3
 (Enter /share/apps/g16/l202.exe)
 Stoichiometry    C23H27N17O3
 Framework group  C1[X(C23H27N17O3)]
 Deg. of freedom   204
 Full point group                 C1      NOp   1
 Largest Abelian subgroup         C1      NOp   1
 Largest concise Abelian subgroup C1      NOp   1
                         Standard orientation:                         
 ---------------------------------------------------------------------
 Center     Atomic      Atomic             Coordinates (Angstroms)
 Number     Number       Type             X           Y           Z
 ---------------------------------------------------------------------
      1          7           0        4.567444   -1.561638   -1.783100
      2          6           0        5.915572   -1.043765   -2.086980
      3          6           0        2.394265   -1.738052   -1.494126
      4          7           0        2.930176   -2.977051   -1.174086
      5          6           0        4.217981   -2.821174   -1.360996
      6          1           0        4.965807   -3.599134   -1.204559
      7          7           0        0.883977    0.033864   -1.871309
      8          6           0        1.948663    0.768018   -2.210512
      9          1           0        1.731902    1.795247   -2.500460
     10          7           0        3.234858    0.425372   -2.245148
     11          6           0        3.391286   -0.855333   -1.871326
     12          6           0        1.074548   -1.250980   -1.499930
     13          7           0        0.013001   -1.985423   -1.160976
     14          1           0        0.107131   -2.941035   -0.879608
     15          1           0       -0.912046   -1.605703   -1.176733
     16          1           0        6.322889   -1.582938   -2.824238
     17          1           0        5.849903   -0.087810   -2.371538
     18          1           0        6.491280   -1.108346   -1.271875
     19          7           0        5.340772    1.663393    0.813711
     20          6           0        3.970546    1.701755    0.908900
     21          6           0        6.202218    2.800693    0.432724
     22          7           0        0.985783    3.458929    0.653483
     23          1           0        0.010575    3.278514    0.778669
     24          1           0        1.244080    4.385101    0.377449
     25          7           0        3.187221    2.776212    0.672284
     26          6           0        1.906515    2.502495    0.846849
     27          7           0        1.427500    1.271391    1.224249
     28          1           0        0.432014    1.153183    1.333792
     29          6           0        2.215094    0.151721    1.473027
     30          8           0        1.682653   -0.913448    1.808672
     31          6           0        3.593372    0.430295    1.289583
     32          7           0        4.704436   -0.389790    1.430562
     33          6           0        5.715642    0.382623    1.138905
     34          1           0        6.759704    0.067724    1.145366
     35          1           0        6.717084    2.569380   -0.392025
     36          1           0        5.632998    3.602354    0.255012
     37          1           0        6.838205    3.003111    1.176615
     38          1           0       -4.645097    1.044559    1.080924
     39          1           0       -4.528933    1.236135    2.828624
     40          1           0       -3.300849    1.947023    1.780867
     41          1           0       -3.545442   -3.452805    2.389009
     42          6           0       -3.053156   -2.490113    2.250766
     43          8           0       -0.865968   -3.407348    2.205936
     44          6           0       -1.626475   -2.441244    2.150589
     45          1           0       -0.100890   -1.099900    1.902158
     46          7           0       -1.105625   -1.174800    1.977149
     47          8           0       -1.253302    1.078893    1.739930
     48          6           0       -1.804667    0.003357    1.894475
     49          1           0       -4.849094   -1.341031    2.244180
     50          6           0       -3.762302   -1.357945    2.173798
     51          6           0       -3.964654    1.106249    1.917144
     52          7           0       -3.175581   -0.125940    1.999761
     53          1           0       -6.194922    3.544539   -2.368008
     54          1           0       -4.810028    3.702900   -1.520020
     55          1           0       -6.247141    3.720825   -0.746404
     56          1           0       -3.446704   -3.150580   -0.728450
     57          1           0       -5.121008   -2.835749   -0.816049
     58          7           0       -4.184796   -2.482695   -0.824827
     59          6           0       -3.932894   -1.178982   -0.959153
     60          6           0       -4.516812    1.111991   -1.227831
     61          7           0       -3.249609    1.557586   -1.236196
     62          1           0       -1.343340    0.818139   -1.094865
     63          6           0       -2.397388    0.543861   -1.098430
     64          7           0       -2.647725   -0.762580   -0.963757
     65          1           0       -7.742830    1.285795   -1.349361
     66          6           0       -6.703845    0.962096   -1.280994
     67          7           0       -6.319104   -0.281982   -1.132941
     68          6           0       -4.934570   -0.201048   -1.097762
     69          6           0       -5.734822    3.323782   -1.508026
     70          7           0       -5.665158    1.858569   -1.345852
 ---------------------------------------------------------------------
 Rotational constants (GHZ):           0.1535863           0.0522198           0.0496706
 Leave Link  202 at Sun Jan 21 04:28:01 2018, MaxMem=  4294967296 cpu:               0.4 elap:               0.0
 (Enter /share/apps/g16/l301.exe)
 Standard basis: CC-pVDZ (5D, 7F)
 Ernie: Thresh=  0.10000D-02 Tol=  0.10000D-05 Strict=F.
 Ernie:  86 primitive shells out of 1081 were deleted.
 There are   780 symmetry adapted cartesian basis functions of A   symmetry.
 There are   737 symmetry adapted basis functions of A   symmetry.
   737 basis functions,  1608 primitive gaussians,   780 cartesian basis functions
   154 alpha electrons      154 beta electrons
       nuclear repulsion energy      5513.5440519539 Hartrees.
 IExCor= 4639 DFT=T Ex+Corr=wB97XD ExCW=0 ScaHFX=  1.000000
 ScaDFX=  1.000000  1.000000  1.000000  1.000000 ScalE2=  1.000000  1.000000
 IRadAn=      5 IRanWt=     -1 IRanGd=            0 ICorTp=0 IEmpDi=121
 HFx  wShort=  0.000000 wLong=  0.200000 cFull=  0.222036 cShort=  0.000000 cLong=  0.777964
 DFx  wShort=  0.000000 wLong=  0.200000 cFull=  0.000000 cShort=  0.000000 cLong=  1.000000
 NAtoms=   70 NActive=   70 NUniq=   70 SFac= 1.00D+00 NAtFMM=   60 NAOKFM=T Big=T
 Integral buffers will be    131072 words long.
 Raffenetti 2 integral format.
 Two-electron integral symmetry is turned on.
 R6Disp:  Grimme-D2 Dispersion energy=       -0.0730832904 Hartrees.
 Nuclear repulsion after empirical dispersion term =     5513.4709686635 Hartrees.
 Leave Link  301 at Sun Jan 21 04:28:01 2018, MaxMem=  4294967296 cpu:               3.0 elap:               0.1
 (Enter /share/apps/g16/l302.exe)
 NPDir=0 NMtPBC=     1 NCelOv=     1 NCel=       1 NClECP=     1 NCelD=      1
         NCelK=      1 NCelE2=     1 NClLst=     1 CellRange=     0.0.
 One-electron integrals computed using PRISM.
 One-electron integral symmetry used in STVInt
 NBasis=   737 RedAO= T EigKep=  6.95D-04  NBF=   737
 NBsUse=   737 1.00D-06 EigRej= -1.00D+00 NBFU=   737
 Precomputing XC quadrature grid using
 IXCGrd= 4 IRadAn=           5 IRanWt=          -1 IRanGd=           0 AccXCQ= 0.00D+00.
 Generated NRdTot=       0 NPtTot=           0 NUsed=           0 NTot=          32
 NSgBfM=   765   765   765   765   765 MxSgAt=    70 MxSgA2=    70.
 Leave Link  302 at Sun Jan 21 04:28:06 2018, MaxMem=  4294967296 cpu:             138.4 elap:               4.4
 (Enter /share/apps/g16/l303.exe)
 DipDrv:  MaxL=1.
 Leave Link  303 at Sun Jan 21 04:28:06 2018, MaxMem=  4294967296 cpu:              12.4 elap:               0.4
 (Enter /share/apps/g16/l401.exe)
 ExpMin= 1.22D-01 ExpMax= 1.17D+04 ExpMxC= 4.01D+02 IAcc=3 IRadAn=         5 AccDes= 0.00D+00
 Harris functional with IExCor= 4639 and IRadAn=       5 diagonalized for initial guess.
 HarFok:  IExCor= 4639 AccDes= 0.00D+00 IRadAn=         5 IDoV= 1 UseB2=F ITyADJ=14
 ICtDFT=  3500011 ScaDFX=  1.000000  1.000000  1.000000  1.000000
 FoFCou: FMM=F IPFlag=           0 FMFlag=      100000 FMFlg1=        2001
         NFxFlg=           0 DoJE=T BraDBF=F KetDBF=T FulRan=T
         wScrn=  0.000000 ICntrl=       500 IOpCl=  0 I1Cent=   200000004 NGrid=           0
         NMat0=    1 NMatS0=      1 NMatT0=    0 NMatD0=    1 NMtDS0=    0 NMtDT0=    0
 Petite list used in FoFCou.
 Harris En= -1963.88746106470    
 JPrj=0 DoOrth=F DoCkMO=F.
 Leave Link  401 at Sun Jan 21 04:28:19 2018, MaxMem=  4294967296 cpu:             401.7 elap:              12.6
 (Enter /share/apps/g16/l502.exe)
 Integral symmetry usage will be decided dynamically.
 Closed shell SCF:
 Using DIIS extrapolation, IDIIS=  1040.
 NGot=  4294967296 LenX=  4293717438 LenY=  4293108258
 Requested convergence on RMS density matrix=1.00D-08 within  20 cycles.
 Requested convergence on MAX density matrix=1.00D-06.
 Requested convergence on             energy=1.00D-06.
 No special actions if energy rises.
 Fock matrices will be formed incrementally for  20 cycles.
 Integral accuracy reduced to 1.0D-05 until final iterations.

 Cycle   1  Pass 0  IDiag  1:
 FoFJK:  IHMeth= 1 ICntrl=       0 DoSepK=T KAlg= 0 I1Cent=           0 FoldK=F
 IRaf=         1 NMat=       1 IRICut=       1 DoRegI=T DoRafI=F ISym2E= 0 IDoP0=0 IntGTp=1.
 FoFCou: FMM=T IPFlag=           0 FMFlag=      100000 FMFlg1=        2001
         NFxFlg=           0 DoJE=T BraDBF=F KetDBF=F FulRan=T
         wScrn=  0.000000 ICntrl=       500 IOpCl=  0 I1Cent=           0 NGrid=           0
         NMat0=    1 NMatS0=      1 NMatT0=    0 NMatD0=    1 NMtDS0=    0 NMtDT0=    0
 Symmetry not used in FoFCou.
 FMM levels:  10  Number of levels for PrismC:   9
 E= -2048.32055716688    
 DIIS: error= 2.39D-02 at cycle   1 NSaved=   1.
 NSaved= 1 IEnMin= 1 EnMin= -2048.32055716688     IErMin= 1 ErrMin= 2.39D-02
 ErrMax= 2.39D-02  0.00D+00 EMaxC= 1.00D-01 BMatC= 8.30D-01 BMatP= 8.30D-01
 IDIUse=3 WtCom= 7.61D-01 WtEn= 2.39D-01
 Coeff-Com:  0.100D+01
 Coeff-En:   0.100D+01
 Coeff:      0.100D+01
 Gap=     0.265 Goal=   None    Shift=    0.000
 GapD=    0.265 DampG=1.000 DampE=0.500 DampFc=0.5000 IDamp=-1.
 Damping current iteration by 5.00D-01
 RMSDP=1.55D-03 MaxDP=1.31D-01              OVMax= 2.07D-01

 Cycle   2  Pass 0  IDiag  1:
 RMSU=  7.75D-04    CP:  9.98D-01
 E= -2048.51751850898     Delta-E=       -0.196961342092 Rises=F Damp=T
 DIIS: error= 1.33D-02 at cycle   2 NSaved=   2.
 NSaved= 2 IEnMin= 2 EnMin= -2048.51751850898     IErMin= 2 ErrMin= 1.33D-02
 ErrMax= 1.33D-02  0.00D+00 EMaxC= 1.00D-01 BMatC= 1.44D-01 BMatP= 8.30D-01
 IDIUse=3 WtCom= 8.67D-01 WtEn= 1.33D-01
 Coeff-Com: -0.205D+00 0.121D+01
 Coeff-En:   0.000D+00 0.100D+01
 Coeff:     -0.178D+00 0.118D+01
 Gap=     0.302 Goal=   None    Shift=    0.000
 RMSDP=5.81D-04 MaxDP=3.56D-02 DE=-1.97D-01 OVMax= 1.33D-01

 Cycle   3  Pass 0  IDiag  1:
 RMSU=  5.66D-04    CP:  9.94D-01  1.16D+00
 E= -2048.69662220938     Delta-E=       -0.179103700408 Rises=F Damp=F
 DIIS: error= 6.56D-03 at cycle   3 NSaved=   3.
 NSaved= 3 IEnMin= 3 EnMin= -2048.69662220938     IErMin= 3 ErrMin= 6.56D-03
 ErrMax= 6.56D-03  0.00D+00 EMaxC= 1.00D-01 BMatC= 6.08D-02 BMatP= 1.44D-01
 IDIUse=3 WtCom= 9.34D-01 WtEn= 6.56D-02
 Coeff-Com: -0.232D+00 0.548D+00 0.684D+00
 Coeff-En:   0.000D+00 0.000D+00 0.100D+01
 Coeff:     -0.217D+00 0.512D+00 0.705D+00
 Gap=     0.284 Goal=   None    Shift=    0.000
 RMSDP=3.45D-04 MaxDP=3.45D-02 DE=-1.79D-01 OVMax= 6.71D-02

 Cycle   4  Pass 0  IDiag  1:
 RMSU=  1.98D-04    CP:  9.95D-01  1.44D+00  6.77D-01
 E= -2048.74243099470     Delta-E=       -0.045808785315 Rises=F Damp=F
 DIIS: error= 2.45D-03 at cycle   4 NSaved=   4.
 NSaved= 4 IEnMin= 4 EnMin= -2048.74243099470     IErMin= 4 ErrMin= 2.45D-03
 ErrMax= 2.45D-03  0.00D+00 EMaxC= 1.00D-01 BMatC= 8.51D-03 BMatP= 6.08D-02
 IDIUse=3 WtCom= 9.75D-01 WtEn= 2.45D-02
 Coeff-Com: -0.964D-01 0.187D+00 0.375D+00 0.534D+00
 Coeff-En:   0.000D+00 0.000D+00 0.512D-01 0.949D+00
 Coeff:     -0.940D-01 0.182D+00 0.367D+00 0.545D+00
 Gap=     0.287 Goal=   None    Shift=    0.000
 RMSDP=1.21D-04 MaxDP=1.20D-02 DE=-4.58D-02 OVMax= 1.27D-02

 Cycle   5  Pass 0  IDiag  1:
 RMSU=  6.15D-05    CP:  9.94D-01  1.41D+00  8.04D-01  6.31D-01
 E= -2048.74929805599     Delta-E=       -0.006867061294 Rises=F Damp=F
 DIIS: error= 6.42D-04 at cycle   5 NSaved=   5.
 NSaved= 5 IEnMin= 5 EnMin= -2048.74929805599     IErMin= 5 ErrMin= 6.42D-04
 ErrMax= 6.42D-04  0.00D+00 EMaxC= 1.00D-01 BMatC= 2.86D-04 BMatP= 8.51D-03
 IDIUse=3 WtCom= 9.94D-01 WtEn= 6.42D-03
 Coeff-Com: -0.253D-01 0.436D-01 0.122D+00 0.241D+00 0.619D+00
 Coeff-En:   0.000D+00 0.000D+00 0.000D+00 0.000D+00 0.100D+01
 Coeff:     -0.251D-01 0.433D-01 0.121D+00 0.240D+00 0.621D+00
 Gap=     0.286 Goal=   None    Shift=    0.000
 RMSDP=2.53D-05 MaxDP=2.16D-03 DE=-6.87D-03 OVMax= 3.15D-03

 Failed to achieve initial convergence to 1.0D-08 in  6 cycles.
 Switch to full accuracy anyway.
 Cycle   6  Pass 1  IDiag  1:
 E= -2048.74962352303     Delta-E=       -0.000325467038 Rises=F Damp=F
 DIIS: error= 3.58D-04 at cycle   1 NSaved=   1.
 NSaved= 1 IEnMin= 1 EnMin= -2048.74962352303     IErMin= 1 ErrMin= 3.58D-04
 ErrMax= 3.58D-04  0.00D+00 EMaxC= 1.00D-01 BMatC= 7.61D-05 BMatP= 7.61D-05
 IDIUse=3 WtCom= 9.96D-01 WtEn= 3.58D-03
 Coeff-Com:  0.100D+01
 Coeff-En:   0.100D+01
 Coeff:      0.100D+01
 Gap=     0.286 Goal=   None    Shift=    0.000
 RMSDP=2.53D-05 MaxDP=2.16D-03 DE=-3.25D-04 OVMax= 2.22D-03

 Cycle   7  Pass 1  IDiag  1:
 RMSU=  1.15D-04    CP:  1.00D+00
 E= -2048.74967762386     Delta-E=       -0.000054100832 Rises=F Damp=F
 DIIS: error= 2.71D-04 at cycle   2 NSaved=   2.
 NSaved= 2 IEnMin= 2 EnMin= -2048.74967762386     IErMin= 2 ErrMin= 2.71D-04
 ErrMax= 2.71D-04  0.00D+00 EMaxC= 1.00D-01 BMatC= 4.67D-05 BMatP= 7.61D-05
 IDIUse=3 WtCom= 9.97D-01 WtEn= 2.71D-03
 Coeff-Com:  0.418D+00 0.582D+00
 Coeff-En:   0.000D+00 0.100D+01
 Coeff:      0.417D+00 0.583D+00
 Gap=     0.286 Goal=   None    Shift=    0.000
 RMSDP=1.13D-05 MaxDP=1.31D-03 DE=-5.41D-05 OVMax= 1.39D-03

 Cycle   8  Pass 1  IDiag  1:
 RMSU=  1.09D-05    CP:  1.00D+00  1.02D+00
 E= -2048.74971042110     Delta-E=       -0.000032797235 Rises=F Damp=F
 DIIS: error= 9.62D-05 at cycle   3 NSaved=   3.
 NSaved= 3 IEnMin= 3 EnMin= -2048.74971042110     IErMin= 3 ErrMin= 9.62D-05
 ErrMax= 9.62D-05  0.00D+00 EMaxC= 1.00D-01 BMatC= 1.05D-05 BMatP= 4.67D-05
 IDIUse=1 WtCom= 1.00D+00 WtEn= 0.00D+00
 Coeff-Com: -0.193D-01 0.308D+00 0.711D+00
 Coeff:     -0.193D-01 0.308D+00 0.711D+00
 Gap=     0.286 Goal=   None    Shift=    0.000
 RMSDP=5.67D-06 MaxDP=5.25D-04 DE=-3.28D-05 OVMax= 5.08D-04

 Cycle   9  Pass 1  IDiag  1:
 RMSU=  3.85D-06    CP:  1.00D+00  1.05D+00  7.67D-01
 E= -2048.74971986955     Delta-E=       -0.000009448456 Rises=F Damp=F
 DIIS: error= 3.61D-05 at cycle   4 NSaved=   4.
 NSaved= 4 IEnMin= 4 EnMin= -2048.74971986955     IErMin= 4 ErrMin= 3.61D-05
 ErrMax= 3.61D-05  0.00D+00 EMaxC= 1.00D-01 BMatC= 4.79D-07 BMatP= 1.05D-05
 IDIUse=1 WtCom= 1.00D+00 WtEn= 0.00D+00
 Coeff-Com: -0.307D-01 0.839D-01 0.256D+00 0.691D+00
 Coeff:     -0.307D-01 0.839D-01 0.256D+00 0.691D+00
 Gap=     0.286 Goal=   None    Shift=    0.000
 RMSDP=1.42D-06 MaxDP=1.37D-04 DE=-9.45D-06 OVMax= 4.68D-04

 Cycle  10  Pass 1  IDiag  1:
 RMSU=  1.26D-06    CP:  1.00D+00  1.06D+00  7.99D-01  1.12D+00
 E= -2048.74972068577     Delta-E=       -0.000000816216 Rises=F Damp=F
 DIIS: error= 1.19D-05 at cycle   5 NSaved=   5.
 NSaved= 5 IEnMin= 5 EnMin= -2048.74972068577     IErMin= 5 ErrMin= 1.19D-05
 ErrMax= 1.19D-05  0.00D+00 EMaxC= 1.00D-01 BMatC= 1.12D-07 BMatP= 4.79D-07
 IDIUse=1 WtCom= 1.00D+00 WtEn= 0.00D+00
 Coeff-Com: -0.257D-02-0.550D-01-0.125D+00 0.192D+00 0.991D+00
 Coeff:     -0.257D-02-0.550D-01-0.125D+00 0.192D+00 0.991D+00
 Gap=     0.286 Goal=   None    Shift=    0.000
 RMSDP=1.22D-06 MaxDP=7.91D-05 DE=-8.16D-07 OVMax= 2.38D-04

 Cycle  11  Pass 1  IDiag  1:
 RMSU=  5.01D-07    CP:  1.00D+00  1.06D+00  8.08D-01  1.40D+00  1.18D+00
 E= -2048.74972093648     Delta-E=       -0.000000250710 Rises=F Damp=F
 DIIS: error= 9.05D-06 at cycle   6 NSaved=   6.
 NSaved= 6 IEnMin= 6 EnMin= -2048.74972093648     IErMin= 6 ErrMin= 9.05D-06
 ErrMax= 9.05D-06  0.00D+00 EMaxC= 1.00D-01 BMatC= 2.92D-08 BMatP= 1.12D-07
 IDIUse=1 WtCom= 1.00D+00 WtEn= 0.00D+00
 Coeff-Com:  0.467D-02-0.441D-01-0.115D+00-0.676D-02 0.537D+00 0.624D+00
 Coeff:      0.467D-02-0.441D-01-0.115D+00-0.676D-02 0.537D+00 0.624D+00
 Gap=     0.286 Goal=   None    Shift=    0.000
 RMSDP=3.64D-07 MaxDP=3.70D-05 DE=-2.51D-07 OVMax= 1.20D-04

 Cycle  12  Pass 1  IDiag  1:
 RMSU=  1.87D-07    CP:  1.00D+00  1.06D+00  8.09D-01  1.46D+00  1.31D+00
                    CP:  9.09D-01
 E= -2048.74972097752     Delta-E=       -0.000000041039 Rises=F Damp=F
 DIIS: error= 8.95D-07 at cycle   7 NSaved=   7.
 NSaved= 7 IEnMin= 7 EnMin= -2048.74972097752     IErMin= 7 ErrMin= 8.95D-07
 ErrMax= 8.95D-07  0.00D+00 EMaxC= 1.00D-01 BMatC= 8.49D-10 BMatP= 2.92D-08
 IDIUse=1 WtCom= 1.00D+00 WtEn= 0.00D+00
 Coeff-Com:  0.110D-02-0.691D-02-0.198D-01-0.838D-02 0.571D-01 0.138D+00
 Coeff-Com:  0.839D+00
 Coeff:      0.110D-02-0.691D-02-0.198D-01-0.838D-02 0.571D-01 0.138D+00
 Coeff:      0.839D+00
 Gap=     0.286 Goal=   None    Shift=    0.000
 RMSDP=8.56D-08 MaxDP=5.49D-06 DE=-4.10D-08 OVMax= 2.14D-05

 Cycle  13  Pass 1  IDiag  1:
 RMSU=  5.24D-08    CP:  1.00D+00  1.06D+00  8.09D-01  1.47D+00  1.33D+00
                    CP:  1.00D+00  1.13D+00
 E= -2048.74972097930     Delta-E=       -0.000000001777 Rises=F Damp=F
 DIIS: error= 6.78D-07 at cycle   8 NSaved=   8.
 NSaved= 8 IEnMin= 8 EnMin= -2048.74972097930     IErMin= 8 ErrMin= 6.78D-07
 ErrMax= 6.78D-07  0.00D+00 EMaxC= 1.00D-01 BMatC= 3.44D-10 BMatP= 8.49D-10
 IDIUse=1 WtCom= 1.00D+00 WtEn= 0.00D+00
 Coeff-Com: -0.716D-03 0.861D-02 0.211D-01-0.891D-03-0.119D+00-0.953D-01
 Coeff-Com:  0.429D+00 0.756D+00
 Coeff:     -0.716D-03 0.861D-02 0.211D-01-0.891D-03-0.119D+00-0.953D-01
 Coeff:      0.429D+00 0.756D+00
 Gap=     0.286 Goal=   None    Shift=    0.000
 RMSDP=4.90D-08 MaxDP=2.93D-06 DE=-1.78D-09 OVMax= 1.14D-05

 Cycle  14  Pass 1  IDiag  1:
 RMSU=  2.85D-08    CP:  1.00D+00  1.06D+00  8.08D-01  1.48D+00  1.34D+00
                    CP:  1.04D+00  1.28D+00  1.07D+00
 E= -2048.74972097997     Delta-E=       -0.000000000672 Rises=F Damp=F
 DIIS: error= 1.82D-07 at cycle   9 NSaved=   9.
 NSaved= 9 IEnMin= 9 EnMin= -2048.74972097997     IErMin= 9 ErrMin= 1.82D-07
 ErrMax= 1.82D-07  0.00D+00 EMaxC= 1.00D-01 BMatC= 3.63D-11 BMatP= 3.44D-10
 IDIUse=1 WtCom= 1.00D+00 WtEn= 0.00D+00
 Coeff-Com: -0.446D-03 0.467D-02 0.118D-01 0.942D-03-0.587D-01-0.580D-01
 Coeff-Com:  0.930D-01 0.321D+00 0.686D+00
 Coeff:     -0.446D-03 0.467D-02 0.118D-01 0.942D-03-0.587D-01-0.580D-01
 Coeff:      0.930D-01 0.321D+00 0.686D+00
 Gap=     0.286 Goal=   None    Shift=    0.000
 RMSDP=1.40D-08 MaxDP=8.61D-07 DE=-6.72D-10 OVMax= 3.19D-06

 Cycle  15  Pass 1  IDiag  1:
 RMSU=  9.49D-09    CP:  1.00D+00  1.06D+00  8.08D-01  1.48D+00  1.34D+00
                    CP:  1.05D+00  1.31D+00  1.22D+00  1.09D+00
 E= -2048.74972097989     Delta-E=        0.000000000076 Rises=F Damp=F
 DIIS: error= 7.00D-08 at cycle  10 NSaved=  10.
 NSaved=10 IEnMin= 9 EnMin= -2048.74972097997     IErMin=10 ErrMin= 7.00D-08
 ErrMax= 7.00D-08  0.00D+00 EMaxC= 1.00D-01 BMatC= 5.56D-12 BMatP= 3.63D-11
 IDIUse=1 WtCom= 1.00D+00 WtEn= 0.00D+00
 Coeff-Com:  0.243D-05-0.285D-03-0.561D-03 0.156D-03 0.527D-02 0.720D-03
 Coeff-Com: -0.560D-01-0.540D-01 0.253D+00 0.852D+00
 Coeff:      0.243D-05-0.285D-03-0.561D-03 0.156D-03 0.527D-02 0.720D-03
 Coeff:     -0.560D-01-0.540D-01 0.253D+00 0.852D+00
 Gap=     0.286 Goal=   None    Shift=    0.000
 RMSDP=7.13D-09 MaxDP=4.14D-07 DE= 7.64D-11 OVMax= 1.51D-06

 SCF Done:  E(RwB97XD) =  -2048.74972098     A.U. after   15 cycles
            NFock= 15  Conv=0.71D-08     -V/T= 2.0054
 KE= 2.037726525176D+03 PE=-1.580737328143D+04 EE= 6.207426066608D+03
 Leave Link  502 at Sun Jan 21 04:39:34 2018, MaxMem=  4294967296 cpu:           20927.7 elap:             675.2
 (Enter /share/apps/g16/l601.exe)
 Copying SCF densities to generalized density rwf, IOpCl= 0 IROHF=0.

 **********************************************************************

            Population analysis using the SCF density.

 **********************************************************************

 Orbital symmetries:
       Occupied  (A) (A) (A) (A) (A) (A) (A) (A) (A) (A) (A) (A)
                 (A) (A) (A) (A) (A) (A) (A) (A) (A) (A) (A) (A)
                 (A) (A) (A) (A) (A) (A) (A) (A) (A) (A) (A) (A)
                 (A) (A) (A) (A) (A) (A) (A) (A) (A) (A) (A) (A)
                 (A) (A) (A) (A) (A) (A) (A) (A) (A) (A) (A) (A)
                 (A) (A) (A) (A) (A) (A) (A) (A) (A) (A) (A) (A)
                 (A) (A) (A) (A) (A) (A) (A) (A) (A) (A) (A) (A)
                 (A) (A) (A) (A) (A) (A) (A) (A) (A) (A) (A) (A)
                 (A) (A) (A) (A) (A) (A) (A) (A) (A) (A) (A) (A)
                 (A) (A) (A) (A) (A) (A) (A) (A) (A) (A) (A) (A)
                 (A) (A) (A) (A) (A) (A) (A) (A) (A) (A) (A) (A)
                 (A) (A) (A) (A) (A) (A) (A) (A) (A) (A) (A) (A)
                 (A) (A) (A) (A) (A) (A) (A) (A) (A) (A)
       Virtual   (A) (A) (A) (A) (A) (A) (A) (A) (A) (A) (A) (A)
                 (A) (A) (A) (A) (A) (A) (A) (A) (A) (A) (A) (A)
                 (A) (A) (A) (A) (A) (A) (A) (A) (A) (A) (A) (A)
                 (A) (A) (A) (A) (A) (A) (A) (A) (A) (A) (A) (A)
                 (A) (A) (A) (A) (A) (A) (A) (A) (A) (A) (A) (A)
                 (A) (A) (A) (A) (A) (A) (A) (A) (A) (A) (A) (A)
                 (A) (A) (A) (A) (A) (A) (A) (A) (A) (A) (A) (A)
                 (A) (A) (A) (A) (A) (A) (A) (A) (A) (A) (A) (A)
                 (A) (A) (A) (A) (A) (A) (A) (A) (A) (A) (A) (A)
                 (A) (A) (A) (A) (A) (A) (A) (A) (A) (A) (A) (A)
                 (A) (A) (A) (A) (A) (A) (A) (A) (A) (A) (A) (A)
                 (A) (A) (A) (A) (A) (A) (A) (A) (A) (A) (A) (A)
                 (A) (A) (A) (A) (A) (A) (A) (A) (A) (A) (A) (A)
                 (A) (A) (A) (A) (A) (A) (A) (A) (A) (A) (A) (A)
                 (A) (A) (A) (A) (A) (A) (A) (A) (A) (A) (A) (A)
                 (A) (A) (A) (A) (A) (A) (A) (A) (A) (A) (A) (A)
                 (A) (A) (A) (A) (A) (A) (A) (A) (A) (A) (A) (A)
                 (A) (A) (A) (A) (A) (A) (A) (A) (A) (A) (A) (A)
                 (A) (A) (A) (A) (A) (A) (A) (A) (A) (A) (A) (A)
                 (A) (A) (A) (A) (A) (A) (A) (A) (A) (A) (A) (A)
                 (A) (A) (A) (A) (A) (A) (A) (A) (A) (A) (A) (A)
                 (A) (A) (A) (A) (A) (A) (A) (A) (A) (A) (A) (A)
                 (A) (A) (A) (A) (A) (A) (A) (A) (A) (A) (A) (A)
                 (A) (A) (A) (A) (A) (A) (A) (A) (A) (A) (A) (A)
                 (A) (A) (A) (A) (A) (A) (A) (A) (A) (A) (A) (A)
                 (A) (A) (A) (A) (A) (A) (A) (A) (A) (A) (A) (A)
                 (A) (A) (A) (A) (A) (A) (A) (A) (A) (A) (A) (A)
                 (A) (A) (A) (A) (A) (A) (A) (A) (A) (A) (A) (A)
                 (A) (A) (A) (A) (A) (A) (A) (A) (A) (A) (A) (A)
                 (A) (A) (A) (A) (A) (A) (A) (A) (A) (A) (A) (A)
                 (A) (A) (A) (A) (A) (A) (A) (A) (A) (A) (A) (A)
                 (A) (A) (A) (A) (A) (A) (A) (A) (A) (A) (A) (A)
                 (A) (A) (A) (A) (A) (A) (A) (A) (A) (A) (A) (A)
                 (A) (A) (A) (A) (A) (A) (A) (A) (A) (A) (A) (A)
                 (A) (A) (A) (A) (A) (A) (A) (A) (A) (A) (A) (A)
                 (A) (A) (A) (A) (A) (A) (A) (A) (A) (A) (A) (A)
                 (A) (A) (A) (A) (A) (A) (A) (A) (A) (A) (A) (A)
                 (A) (A) (A) (A) (A) (A) (A) (A) (A) (A) (A) (A)
                 (A) (A) (A) (A) (A) (A) (A) (A) (A) (A) (A) (A)
                 (A) (A) (A) (A) (A) (A) (A) (A) (A) (A) (A) (A)
                 (A) (A) (A) (A) (A) (A) (A) (A) (A) (A) (A) (A)
                 (A) (A) (A) (A) (A) (A) (A) (A) (A) (A) (A) (A)
                 (A) (A) (A) (A) (A) (A) (A) (A) (A) (A) (A) (A)
                 (A) (A) (A) (A) (A) (A) (A) (A) (A) (A) (A) (A)
                 (A) (A) (A) (A) (A) (A) (A) (A) (A) (A) (A) (A)
                 (A) (A) (A) (A) (A) (A) (A) (A) (A) (A) (A) (A)
                 (A) (A) (A) (A) (A) (A) (A) (A) (A) (A) (A) (A)
                 (A) (A) (A) (A) (A) (A) (A) (A) (A) (A) (A) (A)
                 (A) (A) (A) (A) (A) (A) (A)
 The electronic state is 1-A.
 Alpha  occ. eigenvalues --  -19.25335 -19.21535 -19.20619 -14.52772 -14.51816
 Alpha  occ. eigenvalues --  -14.49165 -14.48517 -14.48335 -14.47275 -14.46819
 Alpha  occ. eigenvalues --  -14.46691 -14.45669 -14.44779 -14.44715 -14.42713
 Alpha  occ. eigenvalues --  -14.42050 -14.41445 -14.41073 -14.40887 -14.40596
 Alpha  occ. eigenvalues --  -10.44905 -10.41264 -10.40381 -10.39633 -10.38285
 Alpha  occ. eigenvalues --  -10.38228 -10.37571 -10.37264 -10.36256 -10.35662
 Alpha  occ. eigenvalues --  -10.34587 -10.34282 -10.34081 -10.33841 -10.33667
 Alpha  occ. eigenvalues --  -10.33218 -10.33215 -10.33071 -10.31269 -10.30674
 Alpha  occ. eigenvalues --  -10.30551 -10.28432 -10.28352  -1.18892  -1.15548
 Alpha  occ. eigenvalues --   -1.13273  -1.12544  -1.10978  -1.10856  -1.09769
 Alpha  occ. eigenvalues --   -1.08726  -1.08573  -1.05252  -1.05190  -1.01910
 Alpha  occ. eigenvalues --   -1.01245  -1.00632  -0.99767  -0.98665  -0.97318
 Alpha  occ. eigenvalues --   -0.96897  -0.96635  -0.92922  -0.90498  -0.88006
 Alpha  occ. eigenvalues --   -0.86160  -0.84406  -0.83732  -0.83001  -0.82761
 Alpha  occ. eigenvalues --   -0.82128  -0.78349  -0.77378  -0.75214  -0.74828
 Alpha  occ. eigenvalues --   -0.73693  -0.72886  -0.72801  -0.71073  -0.70743
 Alpha  occ. eigenvalues --   -0.67503  -0.67142  -0.66288  -0.66033  -0.64566
 Alpha  occ. eigenvalues --   -0.64439  -0.63539  -0.62750  -0.62682  -0.61908
 Alpha  occ. eigenvalues --   -0.60987  -0.60728  -0.60528  -0.59714  -0.59073
 Alpha  occ. eigenvalues --   -0.58903  -0.58420  -0.57196  -0.56569  -0.55859
 Alpha  occ. eigenvalues --   -0.55768  -0.55676  -0.55463  -0.54600  -0.54156
 Alpha  occ. eigenvalues --   -0.53903  -0.53753  -0.53422  -0.53134  -0.53057
 Alpha  occ. eigenvalues --   -0.52457  -0.51790  -0.51594  -0.50549  -0.50386
 Alpha  occ. eigenvalues --   -0.50270  -0.50036  -0.49536  -0.49171  -0.48873
 Alpha  occ. eigenvalues --   -0.48865  -0.48256  -0.48081  -0.47927  -0.47175
 Alpha  occ. eigenvalues --   -0.46884  -0.45811  -0.45637  -0.44857  -0.42687
 Alpha  occ. eigenvalues --   -0.41270  -0.41012  -0.39033  -0.38209  -0.37941
 Alpha  occ. eigenvalues --   -0.37508  -0.37356  -0.37004  -0.35598  -0.35094
 Alpha  occ. eigenvalues --   -0.34698  -0.34140  -0.33448  -0.33408  -0.33024
 Alpha  occ. eigenvalues --   -0.32680  -0.32603  -0.31965  -0.31432  -0.30721
 Alpha  occ. eigenvalues --   -0.30524  -0.30272  -0.25911  -0.25655
 Alpha virt. eigenvalues --    0.02981   0.04096   0.06438   0.07868   0.08806
 Alpha virt. eigenvalues --    0.09110   0.09721   0.10253   0.10899   0.12151
 Alpha virt. eigenvalues --    0.13120   0.13844   0.14201   0.14573   0.14692
 Alpha virt. eigenvalues --    0.15168   0.16182   0.17279   0.17579   0.18072
 Alpha virt. eigenvalues --    0.18533   0.19215   0.19241   0.20395   0.20596
 Alpha virt. eigenvalues --    0.20777   0.21040   0.21290   0.21470   0.21669
 Alpha virt. eigenvalues --    0.22198   0.22470   0.22951   0.23175   0.23706
 Alpha virt. eigenvalues --    0.23859   0.24228   0.24431   0.24967   0.25787
 Alpha virt. eigenvalues --    0.26327   0.27238   0.27597   0.27828   0.28029
 Alpha virt. eigenvalues --    0.28698   0.28958   0.29673   0.30594   0.30967
 Alpha virt. eigenvalues --    0.31842   0.31907   0.32248   0.33058   0.33343
 Alpha virt. eigenvalues --    0.33853   0.34576   0.34916   0.36297   0.36373
 Alpha virt. eigenvalues --    0.36635   0.37491   0.37920   0.38460   0.38610
 Alpha virt. eigenvalues --    0.39245   0.39904   0.40420   0.40604   0.41393
 Alpha virt. eigenvalues --    0.42139   0.42325   0.42642   0.44020   0.44153
 Alpha virt. eigenvalues --    0.45658   0.45713   0.46131   0.46562   0.46766
 Alpha virt. eigenvalues --    0.47020   0.47287   0.47891   0.48494   0.48735
 Alpha virt. eigenvalues --    0.49239   0.49953   0.50428   0.51028   0.51282
 Alpha virt. eigenvalues --    0.51783   0.52093   0.52288   0.53021   0.53180
 Alpha virt. eigenvalues --    0.53454   0.54207   0.54401   0.54720   0.55233
 Alpha virt. eigenvalues --    0.55580   0.55835   0.56350   0.56709   0.56941
 Alpha virt. eigenvalues --    0.57566   0.58040   0.58619   0.58696   0.59249
 Alpha virt. eigenvalues --    0.60077   0.60185   0.60537   0.60786   0.61008
 Alpha virt. eigenvalues --    0.61257   0.61759   0.62352   0.62699   0.62844
 Alpha virt. eigenvalues --    0.63534   0.64555   0.64598   0.65348   0.65383
 Alpha virt. eigenvalues --    0.65963   0.66430   0.66552   0.66890   0.67656
 Alpha virt. eigenvalues --    0.67942   0.68877   0.69250   0.69401   0.70085
 Alpha virt. eigenvalues --    0.71171   0.71253   0.71466   0.71867   0.72148
 Alpha virt. eigenvalues --    0.72674   0.73192   0.73633   0.73776   0.73969
 Alpha virt. eigenvalues --    0.74169   0.74916   0.75325   0.75442   0.76006
 Alpha virt. eigenvalues --    0.76394   0.76725   0.76854   0.76927   0.77481
 Alpha virt. eigenvalues --    0.78080   0.78196   0.78652   0.79009   0.79394
 Alpha virt. eigenvalues --    0.79997   0.80205   0.80547   0.80894   0.81164
 Alpha virt. eigenvalues --    0.81377   0.81605   0.81992   0.82846   0.83138
 Alpha virt. eigenvalues --    0.84027   0.84574   0.84674   0.85143   0.85424
 Alpha virt. eigenvalues --    0.85683   0.86463   0.86768   0.87080   0.87612
 Alpha virt. eigenvalues --    0.88399   0.88831   0.89171   0.89287   0.90261
 Alpha virt. eigenvalues --    0.90622   0.91014   0.91684   0.92148   0.92289
 Alpha virt. eigenvalues --    0.92884   0.92989   0.93883   0.93989   0.94761
 Alpha virt. eigenvalues --    0.95422   0.95534   0.96211   0.96372   0.96874
 Alpha virt. eigenvalues --    0.97467   0.97805   0.98230   0.98247   0.98307
 Alpha virt. eigenvalues --    0.99192   0.99304   0.99740   1.00395   1.00484
 Alpha virt. eigenvalues --    1.01530   1.01630   1.02015   1.02238   1.02932
 Alpha virt. eigenvalues --    1.04055   1.04525   1.04581   1.05153   1.05894
 Alpha virt. eigenvalues --    1.06023   1.06213   1.07011   1.07273   1.07421
 Alpha virt. eigenvalues --    1.07938   1.08351   1.08920   1.09613   1.11094
 Alpha virt. eigenvalues --    1.11499   1.12302   1.12355   1.12664   1.13519
 Alpha virt. eigenvalues --    1.13795   1.13944   1.14916   1.15153   1.15566
 Alpha virt. eigenvalues --    1.15717   1.16240   1.16800   1.17686   1.17874
 Alpha virt. eigenvalues --    1.18473   1.18642   1.18925   1.19159   1.19344
 Alpha virt. eigenvalues --    1.19988   1.20201   1.20696   1.20916   1.21050
 Alpha virt. eigenvalues --    1.21574   1.21995   1.22925   1.23240   1.23381
 Alpha virt. eigenvalues --    1.23999   1.24149   1.24294   1.24637   1.25361
 Alpha virt. eigenvalues --    1.25702   1.26218   1.26460   1.27606   1.27833
 Alpha virt. eigenvalues --    1.28107   1.28568   1.28824   1.29052   1.29756
 Alpha virt. eigenvalues --    1.31054   1.32142   1.32285   1.32913   1.33978
 Alpha virt. eigenvalues --    1.34197   1.34632   1.34825   1.35558   1.36259
 Alpha virt. eigenvalues --    1.37026   1.37385   1.38676   1.38850   1.39444
 Alpha virt. eigenvalues --    1.41086   1.41358   1.42165   1.42820   1.44391
 Alpha virt. eigenvalues --    1.45126   1.46126   1.47084   1.47196   1.48129
 Alpha virt. eigenvalues --    1.48767   1.49225   1.49538   1.50458   1.51096
 Alpha virt. eigenvalues --    1.52652   1.53137   1.53974   1.54187   1.54975
 Alpha virt. eigenvalues --    1.55751   1.55876   1.56728   1.57133   1.58170
 Alpha virt. eigenvalues --    1.58351   1.59303   1.59911   1.60381   1.61913
 Alpha virt. eigenvalues --    1.62204   1.62652   1.62806   1.63142   1.63545
 Alpha virt. eigenvalues --    1.64386   1.64646   1.65839   1.66371   1.66660
 Alpha virt. eigenvalues --    1.66838   1.67295   1.68048   1.68542   1.69240
 Alpha virt. eigenvalues --    1.70028   1.70622   1.71089   1.71267   1.71681
 Alpha virt. eigenvalues --    1.72576   1.72749   1.73550   1.73802   1.74017
 Alpha virt. eigenvalues --    1.74520   1.74760   1.75033   1.75197   1.75727
 Alpha virt. eigenvalues --    1.76059   1.76526   1.76762   1.76958   1.77194
 Alpha virt. eigenvalues --    1.77645   1.78484   1.78644   1.78798   1.78923
 Alpha virt. eigenvalues --    1.79673   1.79769   1.79889   1.80628   1.80971
 Alpha virt. eigenvalues --    1.81200   1.81604   1.81973   1.82159   1.82322
 Alpha virt. eigenvalues --    1.82893   1.83324   1.83629   1.84411   1.84846
 Alpha virt. eigenvalues --    1.84945   1.85308   1.85532   1.86497   1.87065
 Alpha virt. eigenvalues --    1.87479   1.88505   1.88691   1.89032   1.89614
 Alpha virt. eigenvalues --    1.90429   1.90617   1.91043   1.91585   1.91814
 Alpha virt. eigenvalues --    1.92792   1.93012   1.93216   1.93728   1.94282
 Alpha virt. eigenvalues --    1.95205   1.96257   1.96503   1.97223   1.97930
 Alpha virt. eigenvalues --    1.98497   1.99175   2.00038   2.00620   2.01355
 Alpha virt. eigenvalues --    2.02156   2.02608   2.03295   2.03566   2.03763
 Alpha virt. eigenvalues --    2.03837   2.04716   2.06237   2.07572   2.07711
 Alpha virt. eigenvalues --    2.08202   2.09142   2.09373   2.09561   2.10421
 Alpha virt. eigenvalues --    2.11510   2.11939   2.12321   2.13068   2.13401
 Alpha virt. eigenvalues --    2.14343   2.14797   2.15086   2.17159   2.17503
 Alpha virt. eigenvalues --    2.18894   2.19571   2.20263   2.20927   2.21629
 Alpha virt. eigenvalues --    2.22146   2.22837   2.23380   2.23953   2.24378
 Alpha virt. eigenvalues --    2.24495   2.25269   2.25860   2.26116   2.27266
 Alpha virt. eigenvalues --    2.27464   2.28502   2.28858   2.29442   2.29962
 Alpha virt. eigenvalues --    2.30458   2.30878   2.31561   2.31775   2.32618
 Alpha virt. eigenvalues --    2.32831   2.33553   2.33928   2.34268   2.34875
 Alpha virt. eigenvalues --    2.35423   2.35665   2.36261   2.37259   2.37542
 Alpha virt. eigenvalues --    2.37782   2.38764   2.39138   2.40370   2.41859
 Alpha virt. eigenvalues --    2.41898   2.42825   2.43128   2.43749   2.44416
 Alpha virt. eigenvalues --    2.44911   2.45245   2.45556   2.46263   2.46588
 Alpha virt. eigenvalues --    2.47664   2.48636   2.50300   2.51055   2.51264
 Alpha virt. eigenvalues --    2.51919   2.53704   2.55436   2.55557   2.56187
 Alpha virt. eigenvalues --    2.56997   2.57451   2.58094   2.58898   2.60813
 Alpha virt. eigenvalues --    2.61405   2.62150   2.63435   2.63606   2.64018
 Alpha virt. eigenvalues --    2.64712   2.65177   2.65402   2.66285   2.66466
 Alpha virt. eigenvalues --    2.67244   2.68211   2.69251   2.69380   2.69647
 Alpha virt. eigenvalues --    2.70794   2.71013   2.71456   2.72756   2.73316
 Alpha virt. eigenvalues --    2.75107   2.75518   2.76350   2.76482   2.76804
 Alpha virt. eigenvalues --    2.77028   2.77596   2.77858   2.79119   2.79584
 Alpha virt. eigenvalues --    2.79924   2.80406   2.80513   2.80847   2.81495
 Alpha virt. eigenvalues --    2.82406   2.82919   2.83138   2.84303   2.84486
 Alpha virt. eigenvalues --    2.85235   2.85644   2.86560   2.86761   2.87050
 Alpha virt. eigenvalues --    2.87281   2.88425   2.89083   2.92913   2.94148
 Alpha virt. eigenvalues --    2.94396   2.96156   2.97012   2.97947   2.99028
 Alpha virt. eigenvalues --    2.99967   3.01457   3.03001   3.03658   3.05817
 Alpha virt. eigenvalues --    3.06279   3.09700   3.10503   3.12244   3.15039
 Alpha virt. eigenvalues --    3.15784   3.16144   3.16518   3.18722   3.20137
 Alpha virt. eigenvalues --    3.21085   3.22731   3.23648   3.25053   3.25988
 Alpha virt. eigenvalues --    3.44149   3.47051   3.47532   3.48871   3.50632
 Alpha virt. eigenvalues --    3.53062   3.54549   3.56391   3.57879   3.60252
 Alpha virt. eigenvalues --    3.63641   3.71144   3.75426
          Condensed to atoms (all electrons):
 Mulliken charges:
               1
     1  N   -0.304197
     2  C    0.182900
     3  C    0.059174
     4  N   -0.255910
     5  C    0.150742
     6  H    0.027529
     7  N   -0.291399
     8  C    0.124716
     9  H    0.010619
    10  N   -0.278570
    11  C    0.240662
    12  C    0.081615
    13  N   -0.061470
    14  H    0.115928
    15  H    0.085299
    16  H    0.025218
    17  H    0.028929
    18  H    0.019716
    19  N   -0.308086
    20  C    0.266700
    21  C    0.183401
    22  N   -0.121882
    23  H    0.120755
    24  H    0.118339
    25  N   -0.307206
    26  C    0.237182
    27  N   -0.134533
    28  H    0.119966
    29  C    0.185221
    30  O   -0.320229
    31  C   -0.018093
    32  N   -0.223225
    33  C    0.107044
    34  H    0.025194
    35  H    0.023541
    36  H    0.031949
    37  H    0.024887
    38  H    0.062527
    39  H    0.055504
    40  H    0.076040
    41  H    0.020738
    42  C   -0.109536
    43  O   -0.269229
    44  C    0.170713
    45  H    0.131691
    46  N   -0.122867
    47  O   -0.348835
    48  C    0.343729
    49  H    0.044500
    50  C    0.164435
    51  C    0.045627
    52  N   -0.275532
    53  H    0.035125
    54  H    0.041457
    55  H    0.029099
    56  H    0.123287
    57  H    0.117637
    58  N   -0.054140
    59  C    0.088984
    60  C    0.205721
    61  N   -0.257554
    62  H    0.027751
    63  C    0.170477
    64  N   -0.309692
    65  H    0.039202
    66  C    0.134086
    67  N   -0.253483
    68  C    0.021020
    69  C    0.180708
    70  N   -0.301615
 Sum of Mulliken charges =  -0.00000
 Mulliken charges with hydrogens summed into heavy atoms:
               1
     1  N   -0.304197
     2  C    0.256763
     3  C    0.059174
     4  N   -0.255910
     5  C    0.178271
     7  N   -0.291399
     8  C    0.135335
    10  N   -0.278570
    11  C    0.240662
    12  C    0.081615
    13  N    0.139757
    19  N   -0.308086
    20  C    0.266700
    21  C    0.263778
    22  N    0.117211
    25  N   -0.307206
    26  C    0.237182
    27  N   -0.014567
    29  C    0.185221
    30  O   -0.320229
    31  C   -0.018093
    32  N   -0.223225
    33  C    0.132237
    42  C   -0.088798
    43  O   -0.269229
    44  C    0.170713
    46  N    0.008825
    47  O   -0.348835
    48  C    0.343729
    50  C    0.208934
    51  C    0.239699
    52  N   -0.275532
    58  N    0.186784
    59  C    0.088984
    60  C    0.205721
    61  N   -0.257554
    63  C    0.198228
    64  N   -0.309692
    66  C    0.173288
    67  N   -0.253483
    68  C    0.021020
    69  C    0.286388
    70  N   -0.301615
 Electronic spatial extent (au):  <R**2>=          22634.0418
 Charge=             -0.0000 electrons
 Dipole moment (field-independent basis, Debye):
    X=             -6.8310    Y=              7.4348    Z=             -1.7218  Tot=             10.2422
 Quadrupole moment (field-independent basis, Debye-Ang):
   XX=           -153.3976   YY=           -225.5271   ZZ=           -254.5972
   XY=             -0.8091   XZ=            -13.0306   YZ=             10.6849
 Traceless Quadrupole moment (field-independent basis, Debye-Ang):
   XX=             57.7764   YY=            -14.3531   ZZ=            -43.4232
   XY=             -0.8091   XZ=            -13.0306   YZ=             10.6849
 Octapole moment (field-independent basis, Debye-Ang**2):
  XXX=             86.0844  YYY=            117.2435  ZZZ=             12.0593  XYY=            -96.1272
  XXY=            127.6488  XXZ=            -49.0126  XZZ=            -40.8928  YZZ=             27.7056
  YYZ=            -48.9548  XYZ=             58.9114
 Hexadecapole moment (field-independent basis, Debye-Ang**3):
 XXXX=         -16840.0919 YYYY=          -4586.5388 ZZZZ=          -3779.6132 XXXY=           -582.9802
 XXXZ=           -190.2202 YYYX=             45.0401 YYYZ=             76.0009 ZZZX=            -66.8071
 ZZZY=             20.3045 XXYY=          -3465.7353 XXZZ=          -4010.8918 YYZZ=          -1507.5845
 XXYZ=            -50.2868 YYXZ=             80.8668 ZZXY=            -69.0548
 N-N= 5.513470968663D+03 E-N=-1.580737328136D+04  KE= 2.037726525176D+03
 No NMR shielding tensors so no spin-rotation constants.
 Leave Link  601 at Sun Jan 21 04:39:36 2018, MaxMem=  4294967296 cpu:              45.8 elap:               1.6
 (Enter /share/apps/g16/l9999.exe)
 1\1\GINC-COMPUTE-0-3\SP\RwB97XD\CC-pVDZ\C23H27N17O3\SATYA\21-Jan-2018\
 0\\#p wb97xd/cc-pvdz sp scf=(maxcycles=20)\\Base pair stacking\\0,1\N,
 0,2.32333,0.68369,-6.47105\C,0,2.79609,2.07795,-6.57363\C,0,1.0508,-1.
 1078,-6.37851\N,0,2.35891,-1.55437,-6.25948\C,0,3.0732,-0.45719,-6.32\
 H,0,4.1613,-0.42163,-6.25909\N,0,-1.30235,-1.04055,-6.52372\C,0,-1.181
 08,0.2858,-6.6407\H,0,-2.11804,0.83083,-6.74702\N,0,-0.08134,1.03643,-
 6.64603\C,0,1.01301,0.26948,-6.50964\C,0,-0.18265,-1.78414,-6.38803\N,
 0,-0.30166,-3.10828,-6.27112\H,0,0.50025,-3.6979,-6.1686\H,0,-1.19594,
 -3.55582,-6.28203\H,0,3.39697,2.17004,-7.36775\H,0,2.01237,2.68967,-6.
 67715\H,0,3.30078,2.32275,-5.74576\N,0,0.67177,2.85925,-3.26456\C,0,-0
 .25048,1.84067,-3.26328\C,0,0.3543,4.29819,-3.36129\N,0,-3.5524,0.7726
 4,-3.39872\H,0,-4.0483,-0.09512,-3.38065\H,0,-4.09967,1.60644,-3.47605
 \N,0,-1.59086,1.98207,-3.34948\C,0,-2.21369,0.81718,-3.32272\N,0,-1.57
 462,-0.39461,-3.21948\H,0,-2.13179,-1.23506,-3.20649\C,0,-0.19653,-0.5
 6384,-3.12957\O,0,0.27954,-1.70228,-3.03986\C,0,0.48611,0.6788,-3.1570
 5\N,0,1.84347,0.96224,-3.09292\C,0,1.90546,2.2645,-3.16\H,0,2.82888,2.
 8442,-3.13738\H,0,0.78796,4.68292,-4.17537\H,0,-0.63585,4.4153,-3.4256
 5\H,0,0.69267,4.77125,-2.54855\H,0,-5.41923,-5.06149,-3.84208\H,0,-5.3
 2008,-5.16333,-2.08582\H,0,-5.14095,-3.60333,-2.88935\H,0,-1.21418,-7.
 34178,-3.32784\C,0,-1.62151,-6.33397,-3.2464\O,0,0.49965,-5.27359,-3.3
 0466\C,0,-0.72765,-5.21654,-3.23206\H,0,-0.74735,-3.17359,-3.11248\N,0
 ,-1.34621,-3.98717,-3.12585\O,0,-3.14806,-2.61687,-2.94466\C,0,-2.6938
 8,-3.74386,-3.03565\H,0,-3.66285,-6.9442,-3.16654\C,0,-2.94097,-6.1286
 ,-3.16\C,0,-4.93779,-4.66141,-2.96218\N,0,-3.49049,-4.87178,-3.05609\H
 ,0,-8.63291,-4.01225,-6.86174\H,0,-7.75845,-3.02501,-5.90113\H,0,-8.64
 522,-4.2275,-5.24405\H,0,-1.67012,-6.51994,-6.31721\H,0,-3.01635,-7.55
 721,-6.46493\N,0,-2.66396,-6.62917,-6.33931\C,0,-3.4838,-5.58438,-6.20
 724\C,0,-5.60383,-4.51137,-6.08142\N,0,-5.10243,-3.27646,-5.91402\H,0,
 -3.28138,-2.3461,-5.77681\C,0,-3.77136,-3.3099,-5.90822\N,0,-2.94842,-
 4.35532,-6.04035\H,0,-7.87021,-6.79466,-6.40123\C,0,-6.9377,-6.2354,-6
 .32\N,0,-5.74168,-6.7678,-6.38132\C,0,-4.88669,-5.68556,-6.23142\C,0,-
 8.08356,-3.96171,-6.02768\N,0,-6.92871,-4.87374,-6.1396\\Version=EM64L
 -G16RevA.03\State=1-A\HF=-2048.749721\RMSD=7.130e-09\Dipole=-4.0177775
 ,-0.0247634,-0.3073941\Quadrupole=10.6644224,18.9204815,-29.584904,28.
 8875548,-11.4740541,4.2821509\PG=C01 [X(C23H27N17O3)]\\@


 ACTORS ARE SO FORTUNATE.  THEY CAN CHOOSE WHETHER
 THEY WILL APPEAR IN A TRAGEDY OR IN COMEDY,
 WHETHER THEY WILL SUFFER OF MAKE MERRY,
 LAUGH OR SHED TEARS.  BUT IN REAL LIFE IT IS DIFFERENT.
 MOST MEN AND WOMEN ARE FORCED TO PERFORM
 PARTS FOR WHICH THEY HAVE NO QUALIFICATIONS.
 THE WORLD IS A STAGE, BUT THE PLAY IS BADLY CAST.

                                   -- OSCAR WILDE
 Job cpu time:       0 days  5 hours 59 minutes  2.3 seconds.
 Elapsed time:       0 days  0 hours 11 minutes 34.9 seconds.
 File lengths (MBytes):  RWF=    298 Int=      0 D2E=      0 Chk=     33 Scr=      1
 Normal termination of Gaussian 16 at Sun Jan 21 04:39:36 2018.
