 Entering Gaussian System, Link 0=g16
 Input=str30.5.0.0.com
 Output=str30.5.0.0.log
 Initial command:
 /share/apps/g16/l1.exe "/state/partition1/scr/Gau-20333.inp" -scrdir="/state/partition1/scr/"
 Entering Link 1 = /share/apps/g16/l1.exe PID=     20334.
  
 Copyright (c) 1988,1990,1992,1993,1995,1998,2003,2009,2016,
            Gaussian, Inc.  All Rights Reserved.
  
 This is part of the Gaussian(R) 16 program.  It is based on
 the Gaussian(R) 09 system (copyright 2009, Gaussian, Inc.),
 the Gaussian(R) 03 system (copyright 2003, Gaussian, Inc.),
 the Gaussian(R) 98 system (copyright 1998, Gaussian, Inc.),
 the Gaussian(R) 94 system (copyright 1995, Gaussian, Inc.),
 the Gaussian 92(TM) system (copyright 1992, Gaussian, Inc.),
 the Gaussian 90(TM) system (copyright 1990, Gaussian, Inc.),
 the Gaussian 88(TM) system (copyright 1988, Gaussian, Inc.),
 the Gaussian 86(TM) system (copyright 1986, Carnegie Mellon
 University), and the Gaussian 82(TM) system (copyright 1983,
 Carnegie Mellon University). Gaussian is a federally registered
 trademark of Gaussian, Inc.
  
 This software contains proprietary and confidential information,
 including trade secrets, belonging to Gaussian, Inc.
  
 This software is provided under written license and may be
 used, copied, transmitted, or stored only in accord with that
 written license.
  
 The following legend is applicable only to US Government
 contracts under FAR:
  
                    RESTRICTED RIGHTS LEGEND
  
 Use, reproduction and disclosure by the US Government is
 subject to restrictions as set forth in subparagraphs (a)
 and (c) of the Commercial Computer Software - Restricted
 Rights clause in FAR 52.227-19.
  
 Gaussian, Inc.
 340 Quinnipiac St., Bldg. 40, Wallingford CT 06492
  
  
 ---------------------------------------------------------------
 Warning -- This program may not be used in any manner that
 competes with the business of Gaussian, Inc. or will provide
 assistance to any competitor of Gaussian, Inc.  The licensee
 of this program is prohibited from giving any competitor of
 Gaussian, Inc. access to this program.  By using this program,
 the user acknowledges that Gaussian, Inc. is engaged in the
 business of creating and licensing software in the field of
 computational chemistry and represents and warrants to the
 licensee that it is not a competitor of Gaussian, Inc. and that
 it will not use this program in any manner prohibited above.
 ---------------------------------------------------------------
  

 Cite this work as:
 Gaussian 16, Revision A.03,
 M. J. Frisch, G. W. Trucks, H. B. Schlegel, G. E. Scuseria, 
 M. A. Robb, J. R. Cheeseman, G. Scalmani, V. Barone, 
 G. A. Petersson, H. Nakatsuji, X. Li, M. Caricato, A. V. Marenich, 
 J. Bloino, B. G. Janesko, R. Gomperts, B. Mennucci, H. P. Hratchian, 
 J. V. Ortiz, A. F. Izmaylov, J. L. Sonnenberg, D. Williams-Young, 
 F. Ding, F. Lipparini, F. Egidi, J. Goings, B. Peng, A. Petrone, 
 T. Henderson, D. Ranasinghe, V. G. Zakrzewski, J. Gao, N. Rega, 
 G. Zheng, W. Liang, M. Hada, M. Ehara, K. Toyota, R. Fukuda, 
 J. Hasegawa, M. Ishida, T. Nakajima, Y. Honda, O. Kitao, H. Nakai, 
 T. Vreven, K. Throssell, J. A. Montgomery, Jr., J. E. Peralta, 
 F. Ogliaro, M. J. Bearpark, J. J. Heyd, E. N. Brothers, K. N. Kudin, 
 V. N. Staroverov, T. A. Keith, R. Kobayashi, J. Normand, 
 K. Raghavachari, A. P. Rendell, J. C. Burant, S. S. Iyengar, 
 J. Tomasi, M. Cossi, J. M. Millam, M. Klene, C. Adamo, R. Cammi, 
 J. W. Ochterski, R. L. Martin, K. Morokuma, O. Farkas, 
 J. B. Foresman, and D. J. Fox, Gaussian, Inc., Wallingford CT, 2016.
 
 ******************************************
 Gaussian 16:  EM64L-G16RevA.03 25-Dec-2016
                21-Jan-2018 
 ******************************************
 %nprocshared=32
 Will use up to   32 processors via shared memory.
 %mem=32GB
 %chk=allatoms_t.chk
 ---------------------------------------
 #p wb97xd/cc-pvdz sp scf=(maxcycles=20)
 ---------------------------------------
 1/38=1,172=1/1;
 2/12=2,17=6,18=5,40=1/2;
 3/5=16,11=2,25=1,30=1,74=-58/1,2,3;
 4//1;
 5/5=2,7=20,38=5/2;
 6/7=2,8=2,9=2,10=2,28=1/1;
 99/5=1,9=1/99;
 Leave Link    1 at Sun Jan 21 18:19:19 2018, MaxMem=  4294967296 cpu:               2.7 elap:               0.1
 (Enter /share/apps/g16/l101.exe)
 ------------------
 Base pair stacking
 ------------------
 Symbolic Z-matrix:
 Charge =  0 Multiplicity = 1
 N                     4.78093   3.87949  -6.16955 
 C                     5.27519   5.26223  -6.31699 
 C                     3.49283   2.09769  -6.11204 
 N                     4.76759   1.66605  -5.77529 
 C                     5.4926    2.75679  -5.82342 
 H                     6.56174   2.80035  -5.61372 
 N                     1.18378   2.1461   -6.59048 
 C                     1.33146   3.45895  -6.79589 
 H                     0.42324   3.99084  -7.07605 
 N                     2.42745   4.20989  -6.7076 
 C                     3.48542   3.4597   -6.35782 
 C                     2.26714   1.41921  -6.23972 
 N                     2.12173   0.10856  -6.03424 
 H                     2.89639  -0.46847  -5.77315 
 H                     1.23401  -0.34099  -6.13421 
 H                     5.98202   5.29141  -7.0239 
 H                     4.51888   5.86126  -6.57828 
 H                     5.66117   5.57478  -5.44904 
 N                     1.33824   4.78833  -3.26877 
 C                     0.4175    3.76967  -3.32018 
 C                     1.03167   6.22471  -3.42216 
 N                    -2.86405   2.69772  -3.69976 
 H                    -3.36099   1.83038  -3.70314 
 H                    -3.40208   3.52945  -3.83932 
 N                    -0.91127   3.90867  -3.51787 
 C                    -1.53585   2.7444   -3.51642 
 N                    -0.90895   1.53538  -3.3354 
 H                    -1.46651   0.6952   -3.34939 
 C                     0.45708   1.36866  -3.13035 
 O                     0.92271   0.23262  -2.97763 
 C                     1.14143   2.61066  -3.12935 
 N                     2.48951   2.89593  -2.96151 
 C                     2.55855   4.19644  -3.0516 
 H                     3.47791   4.77684  -2.96675 
 H                     1.53046   6.59179  -4.20655 
 H                     0.05016   6.34001  -3.56915 
 H                     1.30367   6.71546  -2.59512 
 H                    -4.69691  -3.14536  -4.16629 
 H                    -4.74065  -3.20894  -2.40598 
 H                    -4.49478  -1.66671  -3.22602 
 H                    -0.5506   -5.41237  -3.26328 
 C                    -0.96179  -4.40317  -3.23705 
 O                     1.15859  -3.34352  -3.14608 
 C                    -0.07048  -3.28537  -3.17453 
 H                    -0.09696  -1.24031  -3.10133 
 N                    -0.6939   -2.05421  -3.14556 
 O                    -2.50259  -0.68095  -3.14091 
 C                    -2.0441   -1.80949  -3.17027 
 H                    -3.00373  -5.01228  -3.30979 
 C                    -2.28362  -4.19646  -3.26243 
 C                    -4.28786  -2.72606  -3.25914 
 N                    -2.838    -2.93789  -3.23075 
 H                    -6.05235  -0.86458  -7.71148 
 H                    -5.31252   0.1998   -6.7206 
 H                    -6.29265  -0.94806  -6.09943 
 H                     0.7443   -3.29959  -5.99631 
 H                    -0.57678  -4.34934  -6.24706 
 N                    -0.23757  -3.41315  -6.14857 
 C                    -1.05893  -2.36348  -6.21736 
 C                    -3.16655  -1.28998  -6.47677 
 N                    -2.68305  -0.04412  -6.34091 
 H                    -0.89127   0.8996   -6.02539 
 C                    -1.3662   -0.0731   -6.14599 
 N                    -0.54177  -1.12338  -6.07677 
 H                    -5.38518  -3.59828  -6.92578 
 C                    -4.4685   -3.03156  -6.76006 
 N                    -3.28022  -3.5637   -6.61006 
 C                    -2.44546  -2.47038  -6.42962 
 C                    -5.62466  -0.74502  -6.8155 
 N                    -4.47329  -1.65975  -6.69058 
 
 ITRead=  0  0  0  0  0  0  0  0  0  0  0  0  0  0  0  0  0  0  0  0
 ITRead=  0  0  0  0  0  0  0  0  0  0  0  0  0  0  0  0  0  0  0  0
 ITRead=  0  0  0  0  0  0  0  0  0  0  0  0  0  0  0  0  0  0  0  0
 ITRead=  0  0  0  0  0  0  0  0  0  0
 MicOpt= -1 -1 -1 -1 -1 -1 -1 -1 -1 -1 -1 -1 -1 -1 -1 -1 -1 -1 -1 -1
 MicOpt= -1 -1 -1 -1 -1 -1 -1 -1 -1 -1 -1 -1 -1 -1 -1 -1 -1 -1 -1 -1
 MicOpt= -1 -1 -1 -1 -1 -1 -1 -1 -1 -1 -1 -1 -1 -1 -1 -1 -1 -1 -1 -1
 MicOpt= -1 -1 -1 -1 -1 -1 -1 -1 -1 -1
 NAtoms=     70 NQM=       70 NQMF=       0 NMMI=      0 NMMIF=      0
                NMic=       0 NMicF=      0.
                    Isotopes and Nuclear Properties:
 (Nuclear quadrupole moments (NQMom) in fm**2, nuclear magnetic moments (NMagM)
  in nuclear magnetons)

  Atom         1           2           3           4           5           6           7           8           9          10
 IAtWgt=          14          12          12          14          12           1          14          12           1          14
 AtmWgt=  14.0030740  12.0000000  12.0000000  14.0030740  12.0000000   1.0078250  14.0030740  12.0000000   1.0078250  14.0030740
 NucSpn=           2           0           0           2           0           1           2           0           1           2
 AtZEff=  -0.0000000  -0.0000000  -0.0000000  -0.0000000  -0.0000000  -0.0000000  -0.0000000  -0.0000000  -0.0000000  -0.0000000
 NQMom=    2.0440000   0.0000000   0.0000000   2.0440000   0.0000000   0.0000000   2.0440000   0.0000000   0.0000000   2.0440000
 NMagM=    0.4037610   0.0000000   0.0000000   0.4037610   0.0000000   2.7928460   0.4037610   0.0000000   2.7928460   0.4037610
 AtZNuc=   7.0000000   6.0000000   6.0000000   7.0000000   6.0000000   1.0000000   7.0000000   6.0000000   1.0000000   7.0000000

  Atom        11          12          13          14          15          16          17          18          19          20
 IAtWgt=          12          12          14           1           1           1           1           1          14          12
 AtmWgt=  12.0000000  12.0000000  14.0030740   1.0078250   1.0078250   1.0078250   1.0078250   1.0078250  14.0030740  12.0000000
 NucSpn=           0           0           2           1           1           1           1           1           2           0
 AtZEff=  -0.0000000  -0.0000000  -0.0000000  -0.0000000  -0.0000000  -0.0000000  -0.0000000  -0.0000000  -0.0000000  -0.0000000
 NQMom=    0.0000000   0.0000000   2.0440000   0.0000000   0.0000000   0.0000000   0.0000000   0.0000000   2.0440000   0.0000000
 NMagM=    0.0000000   0.0000000   0.4037610   2.7928460   2.7928460   2.7928460   2.7928460   2.7928460   0.4037610   0.0000000
 AtZNuc=   6.0000000   6.0000000   7.0000000   1.0000000   1.0000000   1.0000000   1.0000000   1.0000000   7.0000000   6.0000000

  Atom        21          22          23          24          25          26          27          28          29          30
 IAtWgt=          12          14           1           1          14          12          14           1          12          16
 AtmWgt=  12.0000000  14.0030740   1.0078250   1.0078250  14.0030740  12.0000000  14.0030740   1.0078250  12.0000000  15.9949146
 NucSpn=           0           2           1           1           2           0           2           1           0           0
 AtZEff=  -0.0000000  -0.0000000  -0.0000000  -0.0000000  -0.0000000  -0.0000000  -0.0000000  -0.0000000  -0.0000000  -0.0000000
 NQMom=    0.0000000   2.0440000   0.0000000   0.0000000   2.0440000   0.0000000   2.0440000   0.0000000   0.0000000   0.0000000
 NMagM=    0.0000000   0.4037610   2.7928460   2.7928460   0.4037610   0.0000000   0.4037610   2.7928460   0.0000000   0.0000000
 AtZNuc=   6.0000000   7.0000000   1.0000000   1.0000000   7.0000000   6.0000000   7.0000000   1.0000000   6.0000000   8.0000000

  Atom        31          32          33          34          35          36          37          38          39          40
 IAtWgt=          12          14          12           1           1           1           1           1           1           1
 AtmWgt=  12.0000000  14.0030740  12.0000000   1.0078250   1.0078250   1.0078250   1.0078250   1.0078250   1.0078250   1.0078250
 NucSpn=           0           2           0           1           1           1           1           1           1           1
 AtZEff=  -0.0000000  -0.0000000  -0.0000000  -0.0000000  -0.0000000  -0.0000000  -0.0000000  -0.0000000  -0.0000000  -0.0000000
 NQMom=    0.0000000   2.0440000   0.0000000   0.0000000   0.0000000   0.0000000   0.0000000   0.0000000   0.0000000   0.0000000
 NMagM=    0.0000000   0.4037610   0.0000000   2.7928460   2.7928460   2.7928460   2.7928460   2.7928460   2.7928460   2.7928460
 AtZNuc=   6.0000000   7.0000000   6.0000000   1.0000000   1.0000000   1.0000000   1.0000000   1.0000000   1.0000000   1.0000000

  Atom        41          42          43          44          45          46          47          48          49          50
 IAtWgt=           1          12          16          12           1          14          16          12           1          12
 AtmWgt=   1.0078250  12.0000000  15.9949146  12.0000000   1.0078250  14.0030740  15.9949146  12.0000000   1.0078250  12.0000000
 NucSpn=           1           0           0           0           1           2           0           0           1           0
 AtZEff=  -0.0000000  -0.0000000  -0.0000000  -0.0000000  -0.0000000  -0.0000000  -0.0000000  -0.0000000  -0.0000000  -0.0000000
 NQMom=    0.0000000   0.0000000   0.0000000   0.0000000   0.0000000   2.0440000   0.0000000   0.0000000   0.0000000   0.0000000
 NMagM=    2.7928460   0.0000000   0.0000000   0.0000000   2.7928460   0.4037610   0.0000000   0.0000000   2.7928460   0.0000000
 AtZNuc=   1.0000000   6.0000000   8.0000000   6.0000000   1.0000000   7.0000000   8.0000000   6.0000000   1.0000000   6.0000000

  Atom        51          52          53          54          55          56          57          58          59          60
 IAtWgt=          12          14           1           1           1           1           1          14          12          12
 AtmWgt=  12.0000000  14.0030740   1.0078250   1.0078250   1.0078250   1.0078250   1.0078250  14.0030740  12.0000000  12.0000000
 NucSpn=           0           2           1           1           1           1           1           2           0           0
 AtZEff=  -0.0000000  -0.0000000  -0.0000000  -0.0000000  -0.0000000  -0.0000000  -0.0000000  -0.0000000  -0.0000000  -0.0000000
 NQMom=    0.0000000   2.0440000   0.0000000   0.0000000   0.0000000   0.0000000   0.0000000   2.0440000   0.0000000   0.0000000
 NMagM=    0.0000000   0.4037610   2.7928460   2.7928460   2.7928460   2.7928460   2.7928460   0.4037610   0.0000000   0.0000000
 AtZNuc=   6.0000000   7.0000000   1.0000000   1.0000000   1.0000000   1.0000000   1.0000000   7.0000000   6.0000000   6.0000000

  Atom        61          62          63          64          65          66          67          68          69          70
 IAtWgt=          14           1          12          14           1          12          14          12          12          14
 AtmWgt=  14.0030740   1.0078250  12.0000000  14.0030740   1.0078250  12.0000000  14.0030740  12.0000000  12.0000000  14.0030740
 NucSpn=           2           1           0           2           1           0           2           0           0           2
 AtZEff=  -0.0000000  -0.0000000  -0.0000000  -0.0000000  -0.0000000  -0.0000000  -0.0000000  -0.0000000  -0.0000000  -0.0000000
 NQMom=    2.0440000   0.0000000   0.0000000   2.0440000   0.0000000   0.0000000   2.0440000   0.0000000   0.0000000   2.0440000
 NMagM=    0.4037610   2.7928460   0.0000000   0.4037610   2.7928460   0.0000000   0.4037610   0.0000000   0.0000000   0.4037610
 AtZNuc=   7.0000000   1.0000000   6.0000000   7.0000000   1.0000000   6.0000000   7.0000000   6.0000000   6.0000000   7.0000000
 Leave Link  101 at Sun Jan 21 18:19:19 2018, MaxMem=  4294967296 cpu:               7.5 elap:               0.3
 (Enter /share/apps/g16/l202.exe)
 Stoichiometry    C23H27N17O3
 Framework group  C1[X(C23H27N17O3)]
 Deg. of freedom   204
 Full point group                 C1      NOp   1
 Largest Abelian subgroup         C1      NOp   1
 Largest concise Abelian subgroup C1      NOp   1
                         Standard orientation:                         
 ---------------------------------------------------------------------
 Center     Atomic      Atomic             Coordinates (Angstroms)
 Number     Number       Type             X           Y           Z
 ---------------------------------------------------------------------
      1          7           0       -5.807614   -1.569072    0.946592
      2          6           0       -7.162767   -1.036939    1.188245
      3          6           0       -3.623271   -1.814925    0.872287
      4          7           0       -4.161635   -2.946300    0.276568
      5          6           0       -5.456069   -2.752903    0.345181
      6          1           0       -6.207549   -3.447780   -0.030794
      7          7           0       -2.105662   -0.224942    1.727726
      8          6           0       -3.175964    0.497521    2.074248
      9          1           0       -2.958332    1.444099    2.567083
     10          7           0       -4.468667    0.227527    1.904184
     11          6           0       -4.625594   -0.956917    1.290264
     12          6           0       -2.296902   -1.411945    1.111673
     13          7           0       -1.229754   -2.134563    0.764993
     14          1           0       -1.324149   -3.019196    0.307015
     15          1           0       -0.300065   -1.816491    0.951122
     16          1           0       -7.673921   -1.673019    1.766437
     17          1           0       -7.096988   -0.150920    1.646238
     18          1           0       -7.639536   -0.924985    0.316372
     19          7           0       -4.101136    2.113185   -1.203184
     20          6           0       -2.729111    2.087347   -1.132808
     21          6           0       -4.954433    3.254700   -0.816492
     22          7           0        0.272930    3.652592   -0.358541
     23          1           0        1.247747    3.432951   -0.385521
     24          1           0        0.021741    4.561821   -0.025473
     25          7           0       -1.936361    3.092344   -0.702041
     26          6           0       -0.656445    2.768258   -0.751129
     27          7           0       -0.186746    1.553443   -1.188290
     28          1           0        0.808877    1.393139   -1.191365
     29          6           0       -0.984148    0.504832   -1.635998
     30          8           0       -0.459636   -0.551663   -2.009399
     31          6           0       -2.361691    0.838112   -1.589109
     32          7           0       -3.480508    0.094639   -1.938916
     33          6           0       -4.486633    0.889508   -1.693755
     34          1           0       -5.534350    0.632413   -1.853374
     35          1           0       -5.575107    2.976087   -0.084408
     36          1           0       -4.378176    4.005231   -0.495723
     37          1           0       -5.486077    3.558225   -1.606454
     38          1           0        5.808406    0.992308   -0.356645
     39          1           0        5.914071    1.349866   -2.078746
     40          1           0        4.598203    2.025476   -1.117791
     41          1           0        4.689832   -3.300769   -2.218077
     42          6           0        4.224916   -2.330115   -2.045063
     43          8           0        2.012241   -3.130165   -2.346953
     44          6           0        2.799948   -2.215010   -2.108597
     45          1           0        1.312690   -0.823144   -1.910854
     46          7           0        2.315078   -0.944056   -1.874453
     47          8           0        2.526532    1.267195   -1.402351
     48          6           0        3.047320    0.182704   -1.595577
     49          1           0        6.052992   -1.283499   -1.715586
     50          6           0        4.965963   -1.249098   -1.775142
     51          6           0        5.238059    1.166762   -1.256825
     52          7           0        4.414268   -0.008954   -1.551500
     53          1           0        4.985927    2.737706    3.628912
     54          1           0        3.718158    3.120383    2.675802
     55          1           0        5.236686    3.192166    2.081655
     56          1           0        2.212622   -3.399962    0.513892
     57          1           0        3.874917   -3.200696    0.841263
     58          7           0        2.957612   -2.802195    0.810224
     59          6           0        2.738635   -1.530046    1.149131
     60          6           0        3.368617    0.641605    1.889951
     61          7           0        2.126273    1.149884    1.838660
     62          1           0        0.224901    0.555811    1.356480
     63          6           0        1.260496    0.225899    1.426823
     64          7           0        1.477854   -1.048769    1.086910
     65          1           0        6.561518    0.608410    2.396368
     66          6           0        5.527034    0.361081    2.156351
     67          7           0        5.118066   -0.813991    1.744485
     68          6           0        3.751325   -0.649856    1.571827
     69          6           0        4.623577    2.697468    2.697742
     70          7           0        4.520961    1.289683    2.266929
 ---------------------------------------------------------------------
 Rotational constants (GHZ):           0.1495464           0.0541584           0.0513041
 Leave Link  202 at Sun Jan 21 18:19:19 2018, MaxMem=  4294967296 cpu:               0.3 elap:               0.0
 (Enter /share/apps/g16/l301.exe)
 Standard basis: CC-pVDZ (5D, 7F)
 Ernie: Thresh=  0.10000D-02 Tol=  0.10000D-05 Strict=F.
 Ernie:  86 primitive shells out of 1081 were deleted.
 There are   780 symmetry adapted cartesian basis functions of A   symmetry.
 There are   737 symmetry adapted basis functions of A   symmetry.
   737 basis functions,  1608 primitive gaussians,   780 cartesian basis functions
   154 alpha electrons      154 beta electrons
       nuclear repulsion energy      5535.1285717540 Hartrees.
 IExCor= 4639 DFT=T Ex+Corr=wB97XD ExCW=0 ScaHFX=  1.000000
 ScaDFX=  1.000000  1.000000  1.000000  1.000000 ScalE2=  1.000000  1.000000
 IRadAn=      5 IRanWt=     -1 IRanGd=            0 ICorTp=0 IEmpDi=121
 HFx  wShort=  0.000000 wLong=  0.200000 cFull=  0.222036 cShort=  0.000000 cLong=  0.777964
 DFx  wShort=  0.000000 wLong=  0.200000 cFull=  0.000000 cShort=  0.000000 cLong=  1.000000
 NAtoms=   70 NActive=   70 NUniq=   70 SFac= 1.00D+00 NAtFMM=   60 NAOKFM=T Big=T
 Integral buffers will be    131072 words long.
 Raffenetti 2 integral format.
 Two-electron integral symmetry is turned on.
 R6Disp:  Grimme-D2 Dispersion energy=       -0.0730722603 Hartrees.
 Nuclear repulsion after empirical dispersion term =     5535.0554994936 Hartrees.
 Leave Link  301 at Sun Jan 21 18:19:19 2018, MaxMem=  4294967296 cpu:               2.1 elap:               0.1
 (Enter /share/apps/g16/l302.exe)
 NPDir=0 NMtPBC=     1 NCelOv=     1 NCel=       1 NClECP=     1 NCelD=      1
         NCelK=      1 NCelE2=     1 NClLst=     1 CellRange=     0.0.
 One-electron integrals computed using PRISM.
 One-electron integral symmetry used in STVInt
 NBasis=   737 RedAO= T EigKep=  6.81D-04  NBF=   737
 NBsUse=   737 1.00D-06 EigRej= -1.00D+00 NBFU=   737
 Precomputing XC quadrature grid using
 IXCGrd= 4 IRadAn=           5 IRanWt=          -1 IRanGd=           0 AccXCQ= 0.00D+00.
 Generated NRdTot=       0 NPtTot=           0 NUsed=           0 NTot=          32
 NSgBfM=   769   769   769   769   769 MxSgAt=    70 MxSgA2=    70.
 Leave Link  302 at Sun Jan 21 18:19:23 2018, MaxMem=  4294967296 cpu:             134.2 elap:               4.2
 (Enter /share/apps/g16/l303.exe)
 DipDrv:  MaxL=1.
 Leave Link  303 at Sun Jan 21 18:19:24 2018, MaxMem=  4294967296 cpu:              12.6 elap:               0.4
 (Enter /share/apps/g16/l401.exe)
 ExpMin= 1.22D-01 ExpMax= 1.17D+04 ExpMxC= 4.01D+02 IAcc=3 IRadAn=         5 AccDes= 0.00D+00
 Harris functional with IExCor= 4639 and IRadAn=       5 diagonalized for initial guess.
 HarFok:  IExCor= 4639 AccDes= 0.00D+00 IRadAn=         5 IDoV= 1 UseB2=F ITyADJ=14
 ICtDFT=  3500011 ScaDFX=  1.000000  1.000000  1.000000  1.000000
 FoFCou: FMM=F IPFlag=           0 FMFlag=      100000 FMFlg1=        2001
         NFxFlg=           0 DoJE=T BraDBF=F KetDBF=T FulRan=T
         wScrn=  0.000000 ICntrl=       500 IOpCl=  0 I1Cent=   200000004 NGrid=           0
         NMat0=    1 NMatS0=      1 NMatT0=    0 NMatD0=    1 NMtDS0=    0 NMtDT0=    0
 Petite list used in FoFCou.
 Harris En= -1963.89113219069    
 JPrj=0 DoOrth=F DoCkMO=F.
 Leave Link  401 at Sun Jan 21 18:19:36 2018, MaxMem=  4294967296 cpu:             404.6 elap:              12.7
 (Enter /share/apps/g16/l502.exe)
 Integral symmetry usage will be decided dynamically.
 Closed shell SCF:
 Using DIIS extrapolation, IDIIS=  1040.
 NGot=  4294967296 LenX=  4293717438 LenY=  4293108258
 Requested convergence on RMS density matrix=1.00D-08 within  20 cycles.
 Requested convergence on MAX density matrix=1.00D-06.
 Requested convergence on             energy=1.00D-06.
 No special actions if energy rises.
 Fock matrices will be formed incrementally for  20 cycles.
 Integral accuracy reduced to 1.0D-05 until final iterations.

 Cycle   1  Pass 0  IDiag  1:
 FoFJK:  IHMeth= 1 ICntrl=       0 DoSepK=T KAlg= 0 I1Cent=           0 FoldK=F
 IRaf=         1 NMat=       1 IRICut=       1 DoRegI=T DoRafI=F ISym2E= 0 IDoP0=0 IntGTp=1.
 FoFCou: FMM=T IPFlag=           0 FMFlag=      100000 FMFlg1=        2001
         NFxFlg=           0 DoJE=T BraDBF=F KetDBF=F FulRan=T
         wScrn=  0.000000 ICntrl=       500 IOpCl=  0 I1Cent=           0 NGrid=           0
         NMat0=    1 NMatS0=      1 NMatT0=    0 NMatD0=    1 NMtDS0=    0 NMtDT0=    0
 Symmetry not used in FoFCou.
 FMM levels:  10  Number of levels for PrismC:   9
 E= -2048.32186875559    
 DIIS: error= 2.46D-02 at cycle   1 NSaved=   1.
 NSaved= 1 IEnMin= 1 EnMin= -2048.32186875559     IErMin= 1 ErrMin= 2.46D-02
 ErrMax= 2.46D-02  0.00D+00 EMaxC= 1.00D-01 BMatC= 8.33D-01 BMatP= 8.33D-01
 IDIUse=3 WtCom= 7.54D-01 WtEn= 2.46D-01
 Coeff-Com:  0.100D+01
 Coeff-En:   0.100D+01
 Coeff:      0.100D+01
 Gap=     0.258 Goal=   None    Shift=    0.000
 GapD=    0.258 DampG=1.000 DampE=0.500 DampFc=0.5000 IDamp=-1.
 Damping current iteration by 5.00D-01
 RMSDP=1.57D-03 MaxDP=1.29D-01              OVMax= 1.92D-01

 Cycle   2  Pass 0  IDiag  1:
 RMSU=  7.82D-04    CP:  9.98D-01
 E= -2048.51879949378     Delta-E=       -0.196930738194 Rises=F Damp=T
 DIIS: error= 1.35D-02 at cycle   2 NSaved=   2.
 NSaved= 2 IEnMin= 2 EnMin= -2048.51879949378     IErMin= 2 ErrMin= 1.35D-02
 ErrMax= 1.35D-02  0.00D+00 EMaxC= 1.00D-01 BMatC= 1.45D-01 BMatP= 8.33D-01
 IDIUse=3 WtCom= 8.65D-01 WtEn= 1.35D-01
 Coeff-Com: -0.197D+00 0.120D+01
 Coeff-En:   0.000D+00 0.100D+01
 Coeff:     -0.171D+00 0.117D+01
 Gap=     0.348 Goal=   None    Shift=    0.000
 RMSDP=5.83D-04 MaxDP=3.41D-02 DE=-1.97D-01 OVMax= 1.36D-01

 Cycle   3  Pass 0  IDiag  1:
 RMSU=  5.72D-04    CP:  9.94D-01  1.13D+00
 E= -2048.69833008216     Delta-E=       -0.179530588383 Rises=F Damp=F
 DIIS: error= 6.48D-03 at cycle   3 NSaved=   3.
 NSaved= 3 IEnMin= 3 EnMin= -2048.69833008216     IErMin= 3 ErrMin= 6.48D-03
 ErrMax= 6.48D-03  0.00D+00 EMaxC= 1.00D-01 BMatC= 6.26D-02 BMatP= 1.45D-01
 IDIUse=3 WtCom= 9.35D-01 WtEn= 6.48D-02
 Coeff-Com: -0.231D+00 0.548D+00 0.683D+00
 Coeff-En:   0.000D+00 0.000D+00 0.100D+01
 Coeff:     -0.216D+00 0.512D+00 0.703D+00
 Gap=     0.281 Goal=   None    Shift=    0.000
 RMSDP=3.54D-04 MaxDP=3.26D-02 DE=-1.80D-01 OVMax= 6.58D-02

 Cycle   4  Pass 0  IDiag  1:
 RMSU=  2.03D-04    CP:  9.95D-01  1.42D+00  6.72D-01
 E= -2048.74586335394     Delta-E=       -0.047533271775 Rises=F Damp=F
 DIIS: error= 2.53D-03 at cycle   4 NSaved=   4.
 NSaved= 4 IEnMin= 4 EnMin= -2048.74586335394     IErMin= 4 ErrMin= 2.53D-03
 ErrMax= 2.53D-03  0.00D+00 EMaxC= 1.00D-01 BMatC= 8.82D-03 BMatP= 6.26D-02
 IDIUse=3 WtCom= 9.75D-01 WtEn= 2.53D-02
 Coeff-Com: -0.963D-01 0.186D+00 0.376D+00 0.534D+00
 Coeff-En:   0.000D+00 0.000D+00 0.587D-01 0.941D+00
 Coeff:     -0.939D-01 0.182D+00 0.368D+00 0.545D+00
 Gap=     0.285 Goal=   None    Shift=    0.000
 RMSDP=1.25D-04 MaxDP=1.09D-02 DE=-4.75D-02 OVMax= 1.50D-02

 Cycle   5  Pass 0  IDiag  1:
 RMSU=  6.12D-05    CP:  9.94D-01  1.39D+00  8.02D-01  6.22D-01
 E= -2048.75318177582     Delta-E=       -0.007318421878 Rises=F Damp=F
 DIIS: error= 5.29D-04 at cycle   5 NSaved=   5.
 NSaved= 5 IEnMin= 5 EnMin= -2048.75318177582     IErMin= 5 ErrMin= 5.29D-04
 ErrMax= 5.29D-04  0.00D+00 EMaxC= 1.00D-01 BMatC= 2.83D-04 BMatP= 8.82D-03
 IDIUse=3 WtCom= 9.95D-01 WtEn= 5.29D-03
 Coeff-Com: -0.250D-01 0.429D-01 0.120D+00 0.238D+00 0.624D+00
 Coeff-En:   0.000D+00 0.000D+00 0.000D+00 0.000D+00 0.100D+01
 Coeff:     -0.248D-01 0.427D-01 0.119D+00 0.237D+00 0.626D+00
 Gap=     0.285 Goal=   None    Shift=    0.000
 RMSDP=2.61D-05 MaxDP=1.62D-03 DE=-7.32D-03 OVMax= 3.19D-03

 Failed to achieve initial convergence to 1.0D-08 in  6 cycles.
 Switch to full accuracy anyway.
 Cycle   6  Pass 1  IDiag  1:
 E= -2048.75337853409     Delta-E=       -0.000196758275 Rises=F Damp=F
 DIIS: error= 3.11D-04 at cycle   1 NSaved=   1.
 NSaved= 1 IEnMin= 1 EnMin= -2048.75337853409     IErMin= 1 ErrMin= 3.11D-04
 ErrMax= 3.11D-04  0.00D+00 EMaxC= 1.00D-01 BMatC= 7.88D-05 BMatP= 7.88D-05
 IDIUse=3 WtCom= 9.97D-01 WtEn= 3.11D-03
 Coeff-Com:  0.100D+01
 Coeff-En:   0.100D+01
 Coeff:      0.100D+01
 Gap=     0.285 Goal=   None    Shift=    0.000
 RMSDP=2.61D-05 MaxDP=1.62D-03 DE=-1.97D-04 OVMax= 2.45D-03

 Cycle   7  Pass 1  IDiag  1:
 RMSU=  1.21D-04    CP:  1.00D+00
 E= -2048.75343762834     Delta-E=       -0.000059094244 Rises=F Damp=F
 DIIS: error= 2.36D-04 at cycle   2 NSaved=   2.
 NSaved= 2 IEnMin= 2 EnMin= -2048.75343762834     IErMin= 2 ErrMin= 2.36D-04
 ErrMax= 2.36D-04  0.00D+00 EMaxC= 1.00D-01 BMatC= 4.28D-05 BMatP= 7.88D-05
 IDIUse=3 WtCom= 9.98D-01 WtEn= 2.36D-03
 Coeff-Com:  0.397D+00 0.603D+00
 Coeff-En:   0.000D+00 0.100D+01
 Coeff:      0.396D+00 0.604D+00
 Gap=     0.285 Goal=   None    Shift=    0.000
 RMSDP=1.17D-05 MaxDP=9.83D-04 DE=-5.91D-05 OVMax= 1.58D-03

 Cycle   8  Pass 1  IDiag  1:
 RMSU=  1.12D-05    CP:  1.00D+00  1.03D+00
 E= -2048.75346825868     Delta-E=       -0.000030630345 Rises=F Damp=F
 DIIS: error= 9.65D-05 at cycle   3 NSaved=   3.
 NSaved= 3 IEnMin= 3 EnMin= -2048.75346825868     IErMin= 3 ErrMin= 9.65D-05
 ErrMax= 9.65D-05  0.00D+00 EMaxC= 1.00D-01 BMatC= 1.10D-05 BMatP= 4.28D-05
 IDIUse=1 WtCom= 1.00D+00 WtEn= 0.00D+00
 Coeff-Com: -0.199D-01 0.325D+00 0.695D+00
 Coeff:     -0.199D-01 0.325D+00 0.695D+00
 Gap=     0.286 Goal=   None    Shift=    0.000
 RMSDP=5.81D-06 MaxDP=4.44D-04 DE=-3.06D-05 OVMax= 5.87D-04

 Cycle   9  Pass 1  IDiag  1:
 RMSU=  3.86D-06    CP:  1.00D+00  1.05D+00  7.51D-01
 E= -2048.75347862374     Delta-E=       -0.000010365062 Rises=F Damp=F
 DIIS: error= 1.92D-05 at cycle   4 NSaved=   4.
 NSaved= 4 IEnMin= 4 EnMin= -2048.75347862374     IErMin= 4 ErrMin= 1.92D-05
 ErrMax= 1.92D-05  0.00D+00 EMaxC= 1.00D-01 BMatC= 5.05D-07 BMatP= 1.10D-05
 IDIUse=1 WtCom= 1.00D+00 WtEn= 0.00D+00
 Coeff-Com: -0.289D-01 0.912D-01 0.258D+00 0.680D+00
 Coeff:     -0.289D-01 0.912D-01 0.258D+00 0.680D+00
 Gap=     0.285 Goal=   None    Shift=    0.000
 RMSDP=1.45D-06 MaxDP=1.29D-04 DE=-1.04D-05 OVMax= 4.65D-04

 Cycle  10  Pass 1  IDiag  1:
 RMSU=  1.29D-06    CP:  1.00D+00  1.06D+00  7.86D-01  1.10D+00
 E= -2048.75347946949     Delta-E=       -0.000000845751 Rises=F Damp=F
 DIIS: error= 1.20D-05 at cycle   5 NSaved=   5.
 NSaved= 5 IEnMin= 5 EnMin= -2048.75347946949     IErMin= 5 ErrMin= 1.20D-05
 ErrMax= 1.20D-05  0.00D+00 EMaxC= 1.00D-01 BMatC= 1.23D-07 BMatP= 5.05D-07
 IDIUse=1 WtCom= 1.00D+00 WtEn= 0.00D+00
 Coeff-Com: -0.226D-02-0.605D-01-0.124D+00 0.204D+00 0.983D+00
 Coeff:     -0.226D-02-0.605D-01-0.124D+00 0.204D+00 0.983D+00
 Gap=     0.285 Goal=   None    Shift=    0.000
 RMSDP=1.24D-06 MaxDP=7.98D-05 DE=-8.46D-07 OVMax= 2.39D-04

 Cycle  11  Pass 1  IDiag  1:
 RMSU=  5.07D-07    CP:  1.00D+00  1.06D+00  7.98D-01  1.39D+00  1.18D+00
 E= -2048.75347974173     Delta-E=       -0.000000272234 Rises=F Damp=F
 DIIS: error= 5.48D-06 at cycle   6 NSaved=   6.
 NSaved= 6 IEnMin= 6 EnMin= -2048.75347974173     IErMin= 6 ErrMin= 5.48D-06
 ErrMax= 5.48D-06  0.00D+00 EMaxC= 1.00D-01 BMatC= 2.93D-08 BMatP= 1.23D-07
 IDIUse=1 WtCom= 1.00D+00 WtEn= 0.00D+00
 Coeff-Com:  0.470D-02-0.488D-01-0.115D+00-0.147D-02 0.527D+00 0.634D+00
 Coeff:      0.470D-02-0.488D-01-0.115D+00-0.147D-02 0.527D+00 0.634D+00
 Gap=     0.285 Goal=   None    Shift=    0.000
 RMSDP=3.80D-07 MaxDP=3.73D-05 DE=-2.72D-07 OVMax= 1.23D-04

 Cycle  12  Pass 1  IDiag  1:
 RMSU=  1.92D-07    CP:  1.00D+00  1.06D+00  8.00D-01  1.46D+00  1.31D+00
                    CP:  9.41D-01
 E= -2048.75347978473     Delta-E=       -0.000000043004 Rises=F Damp=F
 DIIS: error= 1.21D-06 at cycle   7 NSaved=   7.
 NSaved= 7 IEnMin= 7 EnMin= -2048.75347978473     IErMin= 7 ErrMin= 1.21D-06
 ErrMax= 1.21D-06  0.00D+00 EMaxC= 1.00D-01 BMatC= 8.60D-10 BMatP= 2.93D-08
 IDIUse=1 WtCom= 1.00D+00 WtEn= 0.00D+00
 Coeff-Com:  0.111D-02-0.800D-02-0.202D-01-0.849D-02 0.581D-01 0.139D+00
 Coeff-Com:  0.838D+00
 Coeff:      0.111D-02-0.800D-02-0.202D-01-0.849D-02 0.581D-01 0.139D+00
 Coeff:      0.838D+00
 Gap=     0.285 Goal=   None    Shift=    0.000
 RMSDP=8.91D-08 MaxDP=5.29D-06 DE=-4.30D-08 OVMax= 2.13D-05

 Cycle  13  Pass 1  IDiag  1:
 RMSU=  5.17D-08    CP:  1.00D+00  1.06D+00  8.00D-01  1.47D+00  1.33D+00
                    CP:  1.03D+00  1.14D+00
 E= -2048.75347978676     Delta-E=       -0.000000002027 Rises=F Damp=F
 DIIS: error= 7.42D-07 at cycle   8 NSaved=   8.
 NSaved= 8 IEnMin= 8 EnMin= -2048.75347978676     IErMin= 8 ErrMin= 7.42D-07
 ErrMax= 7.42D-07  0.00D+00 EMaxC= 1.00D-01 BMatC= 3.55D-10 BMatP= 8.60D-10
 IDIUse=1 WtCom= 1.00D+00 WtEn= 0.00D+00
 Coeff-Com: -0.737D-03 0.948D-02 0.216D-01-0.232D-02-0.116D+00-0.997D-01
 Coeff-Com:  0.429D+00 0.758D+00
 Coeff:     -0.737D-03 0.948D-02 0.216D-01-0.232D-02-0.116D+00-0.997D-01
 Coeff:      0.429D+00 0.758D+00
 Gap=     0.285 Goal=   None    Shift=    0.000
 RMSDP=4.93D-08 MaxDP=2.90D-06 DE=-2.03D-09 OVMax= 1.12D-05

 Cycle  14  Pass 1  IDiag  1:
 RMSU=  2.89D-08    CP:  1.00D+00  1.06D+00  7.99D-01  1.47D+00  1.34D+00
                    CP:  1.08D+00  1.29D+00  1.09D+00
 E= -2048.75347978709     Delta-E=       -0.000000000327 Rises=F Damp=F
 DIIS: error= 1.64D-07 at cycle   9 NSaved=   9.
 NSaved= 9 IEnMin= 9 EnMin= -2048.75347978709     IErMin= 9 ErrMin= 1.64D-07
 ErrMax= 1.64D-07  0.00D+00 EMaxC= 1.00D-01 BMatC= 3.72D-11 BMatP= 3.55D-10
 IDIUse=1 WtCom= 1.00D+00 WtEn= 0.00D+00
 Coeff-Com: -0.451D-03 0.514D-02 0.119D-01 0.169D-03-0.572D-01-0.601D-01
 Coeff-Com:  0.912D-01 0.319D+00 0.690D+00
 Coeff:     -0.451D-03 0.514D-02 0.119D-01 0.169D-03-0.572D-01-0.601D-01
 Coeff:      0.912D-01 0.319D+00 0.690D+00
 Gap=     0.285 Goal=   None    Shift=    0.000
 RMSDP=1.43D-08 MaxDP=9.16D-07 DE=-3.27D-10 OVMax= 3.25D-06

 Cycle  15  Pass 1  IDiag  1:
 RMSU=  9.65D-09    CP:  1.00D+00  1.06D+00  8.00D-01  1.47D+00  1.34D+00
                    CP:  1.08D+00  1.32D+00  1.24D+00  1.10D+00
 E= -2048.75347978707     Delta-E=        0.000000000016 Rises=F Damp=F
 DIIS: error= 7.99D-08 at cycle  10 NSaved=  10.
 NSaved=10 IEnMin= 9 EnMin= -2048.75347978709     IErMin=10 ErrMin= 7.99D-08
 ErrMax= 7.99D-08  0.00D+00 EMaxC= 1.00D-01 BMatC= 5.85D-12 BMatP= 3.72D-11
 IDIUse=1 WtCom= 1.00D+00 WtEn= 0.00D+00
 Coeff-Com:  0.509D-05-0.315D-03-0.619D-03 0.194D-03 0.538D-02 0.987D-03
 Coeff-Com: -0.563D-01-0.541D-01 0.262D+00 0.843D+00
 Coeff:      0.509D-05-0.315D-03-0.619D-03 0.194D-03 0.538D-02 0.987D-03
 Coeff:     -0.563D-01-0.541D-01 0.262D+00 0.843D+00
 Gap=     0.285 Goal=   None    Shift=    0.000
 RMSDP=7.26D-09 MaxDP=4.13D-07 DE= 1.64D-11 OVMax= 1.48D-06

 SCF Done:  E(RwB97XD) =  -2048.75347979     A.U. after   15 cycles
            NFock= 15  Conv=0.73D-08     -V/T= 2.0054
 KE= 2.037705049521D+03 PE=-1.585085953187D+04 EE= 6.229345503073D+03
 Leave Link  502 at Sun Jan 21 18:31:27 2018, MaxMem=  4294967296 cpu:           21682.3 elap:             710.5
 (Enter /share/apps/g16/l601.exe)
 Copying SCF densities to generalized density rwf, IOpCl= 0 IROHF=0.

 **********************************************************************

            Population analysis using the SCF density.

 **********************************************************************

 Orbital symmetries:
       Occupied  (A) (A) (A) (A) (A) (A) (A) (A) (A) (A) (A) (A)
                 (A) (A) (A) (A) (A) (A) (A) (A) (A) (A) (A) (A)
                 (A) (A) (A) (A) (A) (A) (A) (A) (A) (A) (A) (A)
                 (A) (A) (A) (A) (A) (A) (A) (A) (A) (A) (A) (A)
                 (A) (A) (A) (A) (A) (A) (A) (A) (A) (A) (A) (A)
                 (A) (A) (A) (A) (A) (A) (A) (A) (A) (A) (A) (A)
                 (A) (A) (A) (A) (A) (A) (A) (A) (A) (A) (A) (A)
                 (A) (A) (A) (A) (A) (A) (A) (A) (A) (A) (A) (A)
                 (A) (A) (A) (A) (A) (A) (A) (A) (A) (A) (A) (A)
                 (A) (A) (A) (A) (A) (A) (A) (A) (A) (A) (A) (A)
                 (A) (A) (A) (A) (A) (A) (A) (A) (A) (A) (A) (A)
                 (A) (A) (A) (A) (A) (A) (A) (A) (A) (A) (A) (A)
                 (A) (A) (A) (A) (A) (A) (A) (A) (A) (A)
       Virtual   (A) (A) (A) (A) (A) (A) (A) (A) (A) (A) (A) (A)
                 (A) (A) (A) (A) (A) (A) (A) (A) (A) (A) (A) (A)
                 (A) (A) (A) (A) (A) (A) (A) (A) (A) (A) (A) (A)
                 (A) (A) (A) (A) (A) (A) (A) (A) (A) (A) (A) (A)
                 (A) (A) (A) (A) (A) (A) (A) (A) (A) (A) (A) (A)
                 (A) (A) (A) (A) (A) (A) (A) (A) (A) (A) (A) (A)
                 (A) (A) (A) (A) (A) (A) (A) (A) (A) (A) (A) (A)
                 (A) (A) (A) (A) (A) (A) (A) (A) (A) (A) (A) (A)
                 (A) (A) (A) (A) (A) (A) (A) (A) (A) (A) (A) (A)
                 (A) (A) (A) (A) (A) (A) (A) (A) (A) (A) (A) (A)
                 (A) (A) (A) (A) (A) (A) (A) (A) (A) (A) (A) (A)
                 (A) (A) (A) (A) (A) (A) (A) (A) (A) (A) (A) (A)
                 (A) (A) (A) (A) (A) (A) (A) (A) (A) (A) (A) (A)
                 (A) (A) (A) (A) (A) (A) (A) (A) (A) (A) (A) (A)
                 (A) (A) (A) (A) (A) (A) (A) (A) (A) (A) (A) (A)
                 (A) (A) (A) (A) (A) (A) (A) (A) (A) (A) (A) (A)
                 (A) (A) (A) (A) (A) (A) (A) (A) (A) (A) (A) (A)
                 (A) (A) (A) (A) (A) (A) (A) (A) (A) (A) (A) (A)
                 (A) (A) (A) (A) (A) (A) (A) (A) (A) (A) (A) (A)
                 (A) (A) (A) (A) (A) (A) (A) (A) (A) (A) (A) (A)
                 (A) (A) (A) (A) (A) (A) (A) (A) (A) (A) (A) (A)
                 (A) (A) (A) (A) (A) (A) (A) (A) (A) (A) (A) (A)
                 (A) (A) (A) (A) (A) (A) (A) (A) (A) (A) (A) (A)
                 (A) (A) (A) (A) (A) (A) (A) (A) (A) (A) (A) (A)
                 (A) (A) (A) (A) (A) (A) (A) (A) (A) (A) (A) (A)
                 (A) (A) (A) (A) (A) (A) (A) (A) (A) (A) (A) (A)
                 (A) (A) (A) (A) (A) (A) (A) (A) (A) (A) (A) (A)
                 (A) (A) (A) (A) (A) (A) (A) (A) (A) (A) (A) (A)
                 (A) (A) (A) (A) (A) (A) (A) (A) (A) (A) (A) (A)
                 (A) (A) (A) (A) (A) (A) (A) (A) (A) (A) (A) (A)
                 (A) (A) (A) (A) (A) (A) (A) (A) (A) (A) (A) (A)
                 (A) (A) (A) (A) (A) (A) (A) (A) (A) (A) (A) (A)
                 (A) (A) (A) (A) (A) (A) (A) (A) (A) (A) (A) (A)
                 (A) (A) (A) (A) (A) (A) (A) (A) (A) (A) (A) (A)
                 (A) (A) (A) (A) (A) (A) (A) (A) (A) (A) (A) (A)
                 (A) (A) (A) (A) (A) (A) (A) (A) (A) (A) (A) (A)
                 (A) (A) (A) (A) (A) (A) (A) (A) (A) (A) (A) (A)
                 (A) (A) (A) (A) (A) (A) (A) (A) (A) (A) (A) (A)
                 (A) (A) (A) (A) (A) (A) (A) (A) (A) (A) (A) (A)
                 (A) (A) (A) (A) (A) (A) (A) (A) (A) (A) (A) (A)
                 (A) (A) (A) (A) (A) (A) (A) (A) (A) (A) (A) (A)
                 (A) (A) (A) (A) (A) (A) (A) (A) (A) (A) (A) (A)
                 (A) (A) (A) (A) (A) (A) (A) (A) (A) (A) (A) (A)
                 (A) (A) (A) (A) (A) (A) (A) (A) (A) (A) (A) (A)
                 (A) (A) (A) (A) (A) (A) (A) (A) (A) (A) (A) (A)
                 (A) (A) (A) (A) (A) (A) (A) (A) (A) (A) (A) (A)
                 (A) (A) (A) (A) (A) (A) (A) (A) (A) (A) (A) (A)
                 (A) (A) (A) (A) (A) (A) (A) (A) (A) (A) (A) (A)
                 (A) (A) (A) (A) (A) (A) (A)
 The electronic state is 1-A.
 Alpha  occ. eigenvalues --  -19.25749 -19.21984 -19.20599 -14.52324 -14.52212
 Alpha  occ. eigenvalues --  -14.48777 -14.48651 -14.47673 -14.47635 -14.46882
 Alpha  occ. eigenvalues --  -14.46568 -14.45382 -14.44019 -14.43974 -14.42283
 Alpha  occ. eigenvalues --  -14.41953 -14.41280 -14.41070 -14.40845 -14.40311
 Alpha  occ. eigenvalues --  -10.45315 -10.41175 -10.40110 -10.39600 -10.38204
 Alpha  occ. eigenvalues --  -10.37894 -10.37536 -10.36990 -10.35492 -10.35451
 Alpha  occ. eigenvalues --  -10.35091 -10.34252 -10.33999 -10.33897 -10.33344
 Alpha  occ. eigenvalues --  -10.33296 -10.33167 -10.32461 -10.31201 -10.30888
 Alpha  occ. eigenvalues --  -10.30676 -10.28461 -10.28030  -1.19310  -1.15057
 Alpha  occ. eigenvalues --   -1.13153  -1.13021  -1.11309  -1.10506  -1.09141
 Alpha  occ. eigenvalues --   -1.08953  -1.08506  -1.05073  -1.04464  -1.02373
 Alpha  occ. eigenvalues --   -1.00817  -1.00480  -0.99660  -0.98489  -0.96968
 Alpha  occ. eigenvalues --   -0.96493  -0.96483  -0.92744  -0.90855  -0.87459
 Alpha  occ. eigenvalues --   -0.85798  -0.84024  -0.83963  -0.83517  -0.82393
 Alpha  occ. eigenvalues --   -0.82350  -0.78671  -0.76800  -0.74628  -0.74493
 Alpha  occ. eigenvalues --   -0.73577  -0.73231  -0.72921  -0.71087  -0.70154
 Alpha  occ. eigenvalues --   -0.67311  -0.66513  -0.66384  -0.66324  -0.64350
 Alpha  occ. eigenvalues --   -0.63983  -0.63658  -0.62756  -0.62594  -0.61693
 Alpha  occ. eigenvalues --   -0.60735  -0.60418  -0.60220  -0.59299  -0.59250
 Alpha  occ. eigenvalues --   -0.58788  -0.58283  -0.56781  -0.56618  -0.56252
 Alpha  occ. eigenvalues --   -0.55866  -0.55526  -0.55121  -0.54394  -0.54205
 Alpha  occ. eigenvalues --   -0.53695  -0.53548  -0.53328  -0.53213  -0.52866
 Alpha  occ. eigenvalues --   -0.52592  -0.52360  -0.51875  -0.50843  -0.50305
 Alpha  occ. eigenvalues --   -0.50089  -0.49743  -0.49364  -0.48922  -0.48895
 Alpha  occ. eigenvalues --   -0.48756  -0.48329  -0.48180  -0.47460  -0.47326
 Alpha  occ. eigenvalues --   -0.46992  -0.45767  -0.44889  -0.44582  -0.43561
 Alpha  occ. eigenvalues --   -0.41132  -0.40519  -0.39334  -0.37617  -0.37310
 Alpha  occ. eigenvalues --   -0.37264  -0.37199  -0.37159  -0.36104  -0.34517
 Alpha  occ. eigenvalues --   -0.34140  -0.33989  -0.33449  -0.33390  -0.33187
 Alpha  occ. eigenvalues --   -0.32608  -0.32340  -0.32026  -0.31850  -0.30942
 Alpha  occ. eigenvalues --   -0.30519  -0.29419  -0.25711  -0.25332
 Alpha virt. eigenvalues --    0.03217   0.04184   0.07327   0.07783   0.08436
 Alpha virt. eigenvalues --    0.09155   0.09840   0.10612   0.11088   0.11943
 Alpha virt. eigenvalues --    0.13086   0.14141   0.14288   0.14588   0.15089
 Alpha virt. eigenvalues --    0.15179   0.16237   0.17032   0.17777   0.18489
 Alpha virt. eigenvalues --    0.18707   0.19317   0.19380   0.20176   0.20405
 Alpha virt. eigenvalues --    0.20641   0.20754   0.21150   0.21356   0.22201
 Alpha virt. eigenvalues --    0.22347   0.22734   0.23224   0.23699   0.23894
 Alpha virt. eigenvalues --    0.24013   0.24305   0.24751   0.25194   0.25560
 Alpha virt. eigenvalues --    0.25685   0.26693   0.27125   0.27607   0.28088
 Alpha virt. eigenvalues --    0.28779   0.28851   0.29653   0.30323   0.30587
 Alpha virt. eigenvalues --    0.31171   0.31379   0.32460   0.32810   0.33553
 Alpha virt. eigenvalues --    0.33736   0.34044   0.35143   0.36196   0.36390
 Alpha virt. eigenvalues --    0.36663   0.37301   0.37851   0.39006   0.39210
 Alpha virt. eigenvalues --    0.39922   0.40082   0.40911   0.41322   0.41920
 Alpha virt. eigenvalues --    0.41981   0.42613   0.42991   0.43542   0.44146
 Alpha virt. eigenvalues --    0.44563   0.44891   0.45989   0.46314   0.47088
 Alpha virt. eigenvalues --    0.47495   0.47699   0.48284   0.48798   0.49280
 Alpha virt. eigenvalues --    0.49921   0.50036   0.50389   0.51162   0.51311
 Alpha virt. eigenvalues --    0.51629   0.51735   0.52165   0.53122   0.53485
 Alpha virt. eigenvalues --    0.53772   0.54083   0.54591   0.54958   0.55352
 Alpha virt. eigenvalues --    0.55575   0.56065   0.56335   0.56988   0.57373
 Alpha virt. eigenvalues --    0.57648   0.58066   0.58464   0.58744   0.59702
 Alpha virt. eigenvalues --    0.59911   0.60352   0.60829   0.61174   0.61566
 Alpha virt. eigenvalues --    0.61897   0.62119   0.62532   0.63192   0.63270
 Alpha virt. eigenvalues --    0.63600   0.64574   0.65098   0.65344   0.65469
 Alpha virt. eigenvalues --    0.65763   0.66055   0.66467   0.67206   0.67323
 Alpha virt. eigenvalues --    0.68018   0.68172   0.68465   0.68755   0.69703
 Alpha virt. eigenvalues --    0.70282   0.70525   0.70923   0.71742   0.72113
 Alpha virt. eigenvalues --    0.72355   0.72990   0.73406   0.73579   0.73920
 Alpha virt. eigenvalues --    0.74224   0.74565   0.74971   0.75100   0.75537
 Alpha virt. eigenvalues --    0.76051   0.76179   0.76704   0.76904   0.77289
 Alpha virt. eigenvalues --    0.77458   0.77750   0.78602   0.78912   0.79121
 Alpha virt. eigenvalues --    0.79406   0.80403   0.80493   0.80703   0.81001
 Alpha virt. eigenvalues --    0.81451   0.82156   0.82664   0.83106   0.83556
 Alpha virt. eigenvalues --    0.83869   0.84174   0.84568   0.84893   0.85228
 Alpha virt. eigenvalues --    0.85676   0.86012   0.86679   0.87065   0.87869
 Alpha virt. eigenvalues --    0.87970   0.89069   0.89199   0.89950   0.90019
 Alpha virt. eigenvalues --    0.90480   0.91292   0.91871   0.92001   0.92504
 Alpha virt. eigenvalues --    0.93051   0.93490   0.93776   0.93909   0.94196
 Alpha virt. eigenvalues --    0.94864   0.95040   0.95427   0.96417   0.96704
 Alpha virt. eigenvalues --    0.97164   0.97884   0.98126   0.98481   0.98495
 Alpha virt. eigenvalues --    0.99146   0.99511   0.99830   1.00294   1.00763
 Alpha virt. eigenvalues --    1.01265   1.01702   1.02364   1.02390   1.03174
 Alpha virt. eigenvalues --    1.03517   1.04186   1.04955   1.05339   1.05645
 Alpha virt. eigenvalues --    1.05764   1.06440   1.06900   1.07020   1.07319
 Alpha virt. eigenvalues --    1.08060   1.08590   1.09073   1.10356   1.11034
 Alpha virt. eigenvalues --    1.11318   1.11793   1.12241   1.12494   1.13176
 Alpha virt. eigenvalues --    1.14201   1.14344   1.14690   1.15172   1.15801
 Alpha virt. eigenvalues --    1.16299   1.16778   1.16970   1.17925   1.18204
 Alpha virt. eigenvalues --    1.18278   1.18640   1.18993   1.19351   1.19886
 Alpha virt. eigenvalues --    1.20107   1.20876   1.21376   1.21431   1.21810
 Alpha virt. eigenvalues --    1.22189   1.22396   1.22618   1.22770   1.23254
 Alpha virt. eigenvalues --    1.23761   1.24234   1.24791   1.24938   1.25057
 Alpha virt. eigenvalues --    1.25578   1.26191   1.26785   1.27173   1.27430
 Alpha virt. eigenvalues --    1.28406   1.28811   1.29455   1.30123   1.30452
 Alpha virt. eigenvalues --    1.31966   1.32570   1.32811   1.33517   1.34191
 Alpha virt. eigenvalues --    1.34390   1.34940   1.36019   1.36218   1.36701
 Alpha virt. eigenvalues --    1.37861   1.37896   1.38371   1.39549   1.39917
 Alpha virt. eigenvalues --    1.40723   1.41333   1.42413   1.42618   1.43929
 Alpha virt. eigenvalues --    1.44868   1.45989   1.47176   1.47908   1.48524
 Alpha virt. eigenvalues --    1.49324   1.49620   1.49990   1.50324   1.50837
 Alpha virt. eigenvalues --    1.51077   1.52246   1.53334   1.53786   1.54730
 Alpha virt. eigenvalues --    1.55038   1.55844   1.56100   1.56425   1.57380
 Alpha virt. eigenvalues --    1.57910   1.58698   1.59743   1.60717   1.61152
 Alpha virt. eigenvalues --    1.61982   1.62238   1.62353   1.63277   1.63583
 Alpha virt. eigenvalues --    1.64447   1.64720   1.65026   1.65659   1.65781
 Alpha virt. eigenvalues --    1.66053   1.67094   1.68547   1.68885   1.69370
 Alpha virt. eigenvalues --    1.70405   1.70879   1.71272   1.71480   1.71782
 Alpha virt. eigenvalues --    1.72309   1.72698   1.73201   1.73566   1.74065
 Alpha virt. eigenvalues --    1.74468   1.74842   1.75221   1.75348   1.75780
 Alpha virt. eigenvalues --    1.75941   1.76465   1.76606   1.77018   1.77222
 Alpha virt. eigenvalues --    1.77547   1.78101   1.78593   1.78782   1.79240
 Alpha virt. eigenvalues --    1.79674   1.79957   1.80090   1.80567   1.80946
 Alpha virt. eigenvalues --    1.81081   1.81512   1.81825   1.81973   1.82077
 Alpha virt. eigenvalues --    1.82456   1.83157   1.83790   1.84224   1.84452
 Alpha virt. eigenvalues --    1.85046   1.86055   1.86328   1.86822   1.86884
 Alpha virt. eigenvalues --    1.87506   1.87931   1.88665   1.88933   1.89256
 Alpha virt. eigenvalues --    1.89983   1.90471   1.90889   1.91149   1.91448
 Alpha virt. eigenvalues --    1.92339   1.92847   1.93145   1.93551   1.93867
 Alpha virt. eigenvalues --    1.95130   1.95559   1.96719   1.96921   1.97819
 Alpha virt. eigenvalues --    1.98619   1.99276   1.99739   2.00942   2.01590
 Alpha virt. eigenvalues --    2.01775   2.02085   2.03295   2.03491   2.03742
 Alpha virt. eigenvalues --    2.04965   2.05510   2.06817   2.07357   2.07546
 Alpha virt. eigenvalues --    2.07869   2.08861   2.09315   2.09957   2.10654
 Alpha virt. eigenvalues --    2.11012   2.11385   2.11906   2.12196   2.13746
 Alpha virt. eigenvalues --    2.14486   2.15976   2.17046   2.17614   2.18368
 Alpha virt. eigenvalues --    2.18497   2.19315   2.19637   2.19977   2.21376
 Alpha virt. eigenvalues --    2.22353   2.22843   2.23286   2.23838   2.24052
 Alpha virt. eigenvalues --    2.24936   2.25448   2.25689   2.26639   2.26835
 Alpha virt. eigenvalues --    2.27258   2.27830   2.29232   2.29707   2.29891
 Alpha virt. eigenvalues --    2.30178   2.30826   2.31288   2.31789   2.32444
 Alpha virt. eigenvalues --    2.33184   2.33313   2.34155   2.34198   2.34486
 Alpha virt. eigenvalues --    2.34939   2.35166   2.36044   2.36518   2.36778
 Alpha virt. eigenvalues --    2.38439   2.38631   2.39766   2.40591   2.41580
 Alpha virt. eigenvalues --    2.41728   2.42196   2.42768   2.43653   2.43704
 Alpha virt. eigenvalues --    2.44408   2.44979   2.45493   2.46141   2.46632
 Alpha virt. eigenvalues --    2.47896   2.48780   2.50058   2.50177   2.51687
 Alpha virt. eigenvalues --    2.52290   2.53686   2.54892   2.55906   2.56086
 Alpha virt. eigenvalues --    2.56806   2.57288   2.58657   2.59075   2.60100
 Alpha virt. eigenvalues --    2.60850   2.61279   2.62004   2.63040   2.63568
 Alpha virt. eigenvalues --    2.64406   2.65272   2.65352   2.65823   2.66298
 Alpha virt. eigenvalues --    2.67092   2.67704   2.68778   2.69124   2.69624
 Alpha virt. eigenvalues --    2.70120   2.71083   2.71181   2.71564   2.72268
 Alpha virt. eigenvalues --    2.73266   2.74650   2.75663   2.75760   2.76332
 Alpha virt. eigenvalues --    2.77018   2.77661   2.79267   2.79599   2.79708
 Alpha virt. eigenvalues --    2.80089   2.80109   2.80532   2.80871   2.81648
 Alpha virt. eigenvalues --    2.81939   2.82482   2.83148   2.83719   2.84302
 Alpha virt. eigenvalues --    2.84953   2.85690   2.86361   2.86525   2.86988
 Alpha virt. eigenvalues --    2.87495   2.88081   2.89382   2.92166   2.93780
 Alpha virt. eigenvalues --    2.94186   2.96227   2.98022   2.98628   2.99309
 Alpha virt. eigenvalues --    2.99806   3.01497   3.02220   3.04702   3.05636
 Alpha virt. eigenvalues --    3.07108   3.10008   3.10737   3.12940   3.14816
 Alpha virt. eigenvalues --    3.15412   3.16195   3.16712   3.17845   3.20699
 Alpha virt. eigenvalues --    3.22187   3.22836   3.23682   3.24272   3.26636
 Alpha virt. eigenvalues --    3.44992   3.47456   3.47656   3.49551   3.50460
 Alpha virt. eigenvalues --    3.53263   3.54697   3.56081   3.57644   3.60005
 Alpha virt. eigenvalues --    3.63067   3.70701   3.74981
          Condensed to atoms (all electrons):
 Mulliken charges:
               1
     1  N   -0.311305
     2  C    0.179306
     3  C    0.066689
     4  N   -0.255216
     5  C    0.134073
     6  H    0.026021
     7  N   -0.292566
     8  C    0.135280
     9  H    0.012074
    10  N   -0.289829
    11  C    0.233934
    12  C    0.098952
    13  N   -0.048335
    14  H    0.112091
    15  H    0.086102
    16  H    0.026750
    17  H    0.031950
    18  H    0.022767
    19  N   -0.302833
    20  C    0.253739
    21  C    0.181462
    22  N   -0.117295
    23  H    0.114880
    24  H    0.116888
    25  N   -0.308333
    26  C    0.237477
    27  N   -0.146296
    28  H    0.123004
    29  C    0.184647
    30  O   -0.324270
    31  C   -0.014656
    32  N   -0.221856
    33  C    0.127593
    34  H    0.018559
    35  H    0.028509
    36  H    0.028220
    37  H    0.022011
    38  H    0.055674
    39  H    0.060643
    40  H    0.072910
    41  H    0.023660
    42  C   -0.112304
    43  O   -0.272128
    44  C    0.160778
    45  H    0.132241
    46  N   -0.113638
    47  O   -0.341161
    48  C    0.335095
    49  H    0.046412
    50  C    0.177413
    51  C    0.039100
    52  N   -0.278477
    53  H    0.034413
    54  H    0.039970
    55  H    0.024092
    56  H    0.127438
    57  H    0.116962
    58  N   -0.052991
    59  C    0.089190
    60  C    0.240674
    61  N   -0.270121
    62  H    0.037644
    63  C    0.155642
    64  N   -0.300022
    65  H    0.036509
    66  C    0.116179
    67  N   -0.257280
    68  C    0.028103
    69  C    0.181960
    70  N   -0.304770
 Sum of Mulliken charges =  -0.00000
 Mulliken charges with hydrogens summed into heavy atoms:
               1
     1  N   -0.311305
     2  C    0.260773
     3  C    0.066689
     4  N   -0.255216
     5  C    0.160094
     7  N   -0.292566
     8  C    0.147354
    10  N   -0.289829
    11  C    0.233934
    12  C    0.098952
    13  N    0.149858
    19  N   -0.302833
    20  C    0.253739
    21  C    0.260203
    22  N    0.114474
    25  N   -0.308333
    26  C    0.237477
    27  N   -0.023292
    29  C    0.184647
    30  O   -0.324270
    31  C   -0.014656
    32  N   -0.221856
    33  C    0.146152
    42  C   -0.088645
    43  O   -0.272128
    44  C    0.160778
    46  N    0.018603
    47  O   -0.341161
    48  C    0.335095
    50  C    0.223824
    51  C    0.228328
    52  N   -0.278477
    58  N    0.191409
    59  C    0.089190
    60  C    0.240674
    61  N   -0.270121
    63  C    0.193287
    64  N   -0.300022
    66  C    0.152689
    67  N   -0.257280
    68  C    0.028103
    69  C    0.280435
    70  N   -0.304770
 Electronic spatial extent (au):  <R**2>=          22121.1669
 Charge=             -0.0000 electrons
 Dipole moment (field-independent basis, Debye):
    X=              6.7806    Y=              6.5703    Z=              3.0090  Tot=              9.9095
 Quadrupole moment (field-independent basis, Debye-Ang):
   XX=           -147.8402   YY=           -223.6997   ZZ=           -256.9562
   XY=              6.9695   XZ=              2.9021   YZ=             -5.1002
 Traceless Quadrupole moment (field-independent basis, Debye-Ang):
   XX=             61.6585   YY=            -14.2010   ZZ=            -47.4575
   XY=              6.9695   XZ=              2.9021   YZ=             -5.1002
 Octapole moment (field-independent basis, Debye-Ang**2):
  XXX=            -74.3195  YYY=             85.3761  ZZZ=             21.5907  XYY=             51.7696
  XXY=             65.3526  XXZ=             -7.5474  XZZ=             63.2734  YZZ=             51.2771
  YYZ=             47.4994  XYZ=             55.9971
 Hexadecapole moment (field-independent basis, Debye-Ang**3):
 XXXX=         -15502.6331 YYYY=          -4663.1458 ZZZZ=          -3845.0844 XXXY=            569.3434
 XXXZ=            -22.6504 YYYX=            -62.2780 YYYZ=            -11.1291 ZZZX=             89.5662
 ZZZY=             28.1746 XXYY=          -3663.4447 XXZZ=          -3832.2990 YYZZ=          -1529.6580
 XXYZ=            117.8106 YYXZ=            130.9773 ZZXY=            128.5133
 N-N= 5.535055499494D+03 E-N=-1.585085953536D+04  KE= 2.037705049521D+03
 No NMR shielding tensors so no spin-rotation constants.
 Leave Link  601 at Sun Jan 21 18:31:32 2018, MaxMem=  4294967296 cpu:             155.6 elap:               5.2
 (Enter /share/apps/g16/l9999.exe)
 1\1\GINC-COMPUTE-0-3\SP\RwB97XD\CC-pVDZ\C23H27N17O3\SATYA\21-Jan-2018\
 0\\#p wb97xd/cc-pvdz sp scf=(maxcycles=20)\\Base pair stacking\\0,1\N,
 0,4.78093,3.87949,-6.16955\C,0,5.27519,5.26223,-6.31699\C,0,3.49283,2.
 09769,-6.11204\N,0,4.76759,1.66605,-5.77529\C,0,5.4926,2.75679,-5.8234
 2\H,0,6.56174,2.80035,-5.61372\N,0,1.18378,2.1461,-6.59048\C,0,1.33146
 ,3.45895,-6.79589\H,0,0.42324,3.99084,-7.07605\N,0,2.42745,4.20989,-6.
 7076\C,0,3.48542,3.4597,-6.35782\C,0,2.26714,1.41921,-6.23972\N,0,2.12
 173,0.10856,-6.03424\H,0,2.89639,-0.46847,-5.77315\H,0,1.23401,-0.3409
 9,-6.13421\H,0,5.98202,5.29141,-7.0239\H,0,4.51888,5.86126,-6.57828\H,
 0,5.66117,5.57478,-5.44904\N,0,1.33824,4.78833,-3.26877\C,0,0.4175,3.7
 6967,-3.32018\C,0,1.03167,6.22471,-3.42216\N,0,-2.86405,2.69772,-3.699
 76\H,0,-3.36099,1.83038,-3.70314\H,0,-3.40208,3.52945,-3.83932\N,0,-0.
 91127,3.90867,-3.51787\C,0,-1.53585,2.7444,-3.51642\N,0,-0.90895,1.535
 38,-3.3354\H,0,-1.46651,0.6952,-3.34939\C,0,0.45708,1.36866,-3.13035\O
 ,0,0.92271,0.23262,-2.97763\C,0,1.14143,2.61066,-3.12935\N,0,2.48951,2
 .89593,-2.96151\C,0,2.55855,4.19644,-3.0516\H,0,3.47791,4.77684,-2.966
 75\H,0,1.53046,6.59179,-4.20655\H,0,0.05016,6.34001,-3.56915\H,0,1.303
 67,6.71546,-2.59512\H,0,-4.69691,-3.14536,-4.16629\H,0,-4.74065,-3.208
 94,-2.40598\H,0,-4.49478,-1.66671,-3.22602\H,0,-0.5506,-5.41237,-3.263
 28\C,0,-0.96179,-4.40317,-3.23705\O,0,1.15859,-3.34352,-3.14608\C,0,-0
 .07048,-3.28537,-3.17453\H,0,-0.09696,-1.24031,-3.10133\N,0,-0.6939,-2
 .05421,-3.14556\O,0,-2.50259,-0.68095,-3.14091\C,0,-2.0441,-1.80949,-3
 .17027\H,0,-3.00373,-5.01228,-3.30979\C,0,-2.28362,-4.19646,-3.26243\C
 ,0,-4.28786,-2.72606,-3.25914\N,0,-2.838,-2.93789,-3.23075\H,0,-6.0523
 5,-0.86458,-7.71148\H,0,-5.31252,0.1998,-6.7206\H,0,-6.29265,-0.94806,
 -6.09943\H,0,0.7443,-3.29959,-5.99631\H,0,-0.57678,-4.34934,-6.24706\N
 ,0,-0.23757,-3.41315,-6.14857\C,0,-1.05893,-2.36348,-6.21736\C,0,-3.16
 655,-1.28998,-6.47677\N,0,-2.68305,-0.04412,-6.34091\H,0,-0.89127,0.89
 96,-6.02539\C,0,-1.3662,-0.0731,-6.14599\N,0,-0.54177,-1.12338,-6.0767
 7\H,0,-5.38518,-3.59828,-6.92578\C,0,-4.4685,-3.03156,-6.76006\N,0,-3.
 28022,-3.5637,-6.61006\C,0,-2.44546,-2.47038,-6.42962\C,0,-5.62466,-0.
 74502,-6.8155\N,0,-4.47329,-1.65975,-6.69058\\Version=EM64L-G16RevA.03
 \State=1-A\HF=-2048.7534798\RMSD=7.255e-09\Dipole=-3.8553043,-0.095732
 6,-0.5721803\Quadrupole=19.1643731,13.4964967,-32.6608698,29.8749157,-
 6.532232,5.6165186\PG=C01 [X(C23H27N17O3)]\\@


      THE ONE-EYED VIEW OF OUR UNIVERSE SAYS YOU MUST NOT LOOK
      FAR AFIELD FOR PROBLEMS.  SUCH PROBLEMS MAY NEVER ARRIVE. 
      INSTEAD, TEND TO THE WOLF WITHIN YOUR FENCES.
      THE PACKS RANGING OUTSIDE MAY NOT EVEN EXIST.

                              -- THE AZHAR BOOK SHAMRA I:4
                                 CHILDREN OF DUNE, BY FRANK HERBERT
 Job cpu time:       0 days  6 hours 13 minutes 24.3 seconds.
 Elapsed time:       0 days  0 hours 12 minutes 13.7 seconds.
 File lengths (MBytes):  RWF=    298 Int=      0 D2E=      0 Chk=     33 Scr=      1
 Normal termination of Gaussian 16 at Sun Jan 21 18:31:33 2018.
