 Entering Gaussian System, Link 0=g16
 Input=str30.10.1.0.com
 Output=str30.10.1.0.log
 Initial command:
 /share/apps/g16/l1.exe "/state/partition1/scr/Gau-22999.inp" -scrdir="/state/partition1/scr/"
 Entering Link 1 = /share/apps/g16/l1.exe PID=     23000.
  
 Copyright (c) 1988,1990,1992,1993,1995,1998,2003,2009,2016,
            Gaussian, Inc.  All Rights Reserved.
  
 This is part of the Gaussian(R) 16 program.  It is based on
 the Gaussian(R) 09 system (copyright 2009, Gaussian, Inc.),
 the Gaussian(R) 03 system (copyright 2003, Gaussian, Inc.),
 the Gaussian(R) 98 system (copyright 1998, Gaussian, Inc.),
 the Gaussian(R) 94 system (copyright 1995, Gaussian, Inc.),
 the Gaussian 92(TM) system (copyright 1992, Gaussian, Inc.),
 the Gaussian 90(TM) system (copyright 1990, Gaussian, Inc.),
 the Gaussian 88(TM) system (copyright 1988, Gaussian, Inc.),
 the Gaussian 86(TM) system (copyright 1986, Carnegie Mellon
 University), and the Gaussian 82(TM) system (copyright 1983,
 Carnegie Mellon University). Gaussian is a federally registered
 trademark of Gaussian, Inc.
  
 This software contains proprietary and confidential information,
 including trade secrets, belonging to Gaussian, Inc.
  
 This software is provided under written license and may be
 used, copied, transmitted, or stored only in accord with that
 written license.
  
 The following legend is applicable only to US Government
 contracts under FAR:
  
                    RESTRICTED RIGHTS LEGEND
  
 Use, reproduction and disclosure by the US Government is
 subject to restrictions as set forth in subparagraphs (a)
 and (c) of the Commercial Computer Software - Restricted
 Rights clause in FAR 52.227-19.
  
 Gaussian, Inc.
 340 Quinnipiac St., Bldg. 40, Wallingford CT 06492
  
  
 ---------------------------------------------------------------
 Warning -- This program may not be used in any manner that
 competes with the business of Gaussian, Inc. or will provide
 assistance to any competitor of Gaussian, Inc.  The licensee
 of this program is prohibited from giving any competitor of
 Gaussian, Inc. access to this program.  By using this program,
 the user acknowledges that Gaussian, Inc. is engaged in the
 business of creating and licensing software in the field of
 computational chemistry and represents and warrants to the
 licensee that it is not a competitor of Gaussian, Inc. and that
 it will not use this program in any manner prohibited above.
 ---------------------------------------------------------------
  

 Cite this work as:
 Gaussian 16, Revision A.03,
 M. J. Frisch, G. W. Trucks, H. B. Schlegel, G. E. Scuseria, 
 M. A. Robb, J. R. Cheeseman, G. Scalmani, V. Barone, 
 G. A. Petersson, H. Nakatsuji, X. Li, M. Caricato, A. V. Marenich, 
 J. Bloino, B. G. Janesko, R. Gomperts, B. Mennucci, H. P. Hratchian, 
 J. V. Ortiz, A. F. Izmaylov, J. L. Sonnenberg, D. Williams-Young, 
 F. Ding, F. Lipparini, F. Egidi, J. Goings, B. Peng, A. Petrone, 
 T. Henderson, D. Ranasinghe, V. G. Zakrzewski, J. Gao, N. Rega, 
 G. Zheng, W. Liang, M. Hada, M. Ehara, K. Toyota, R. Fukuda, 
 J. Hasegawa, M. Ishida, T. Nakajima, Y. Honda, O. Kitao, H. Nakai, 
 T. Vreven, K. Throssell, J. A. Montgomery, Jr., J. E. Peralta, 
 F. Ogliaro, M. J. Bearpark, J. J. Heyd, E. N. Brothers, K. N. Kudin, 
 V. N. Staroverov, T. A. Keith, R. Kobayashi, J. Normand, 
 K. Raghavachari, A. P. Rendell, J. C. Burant, S. S. Iyengar, 
 J. Tomasi, M. Cossi, J. M. Millam, M. Klene, C. Adamo, R. Cammi, 
 J. W. Ochterski, R. L. Martin, K. Morokuma, O. Farkas, 
 J. B. Foresman, and D. J. Fox, Gaussian, Inc., Wallingford CT, 2016.
 
 ******************************************
 Gaussian 16:  EM64L-G16RevA.03 25-Dec-2016
                21-Jan-2018 
 ******************************************
 %nprocshared=32
 Will use up to   32 processors via shared memory.
 %mem=32GB
 %chk=allatoms_t.chk
 ---------------------------------------
 #p wb97xd/cc-pvdz sp scf=(maxcycles=20)
 ---------------------------------------
 1/38=1,172=1/1;
 2/12=2,17=6,18=5,40=1/2;
 3/5=16,11=2,25=1,30=1,74=-58/1,2,3;
 4//1;
 5/5=2,7=20,38=5/2;
 6/7=2,8=2,9=2,10=2,28=1/1;
 99/5=1,9=1/99;
 Leave Link    1 at Sun Jan 21 06:50:55 2018, MaxMem=  4294967296 cpu:               2.7 elap:               0.1
 (Enter /share/apps/g16/l101.exe)
 ------------------
 Base pair stacking
 ------------------
 Symbolic Z-matrix:
 Charge =  0 Multiplicity = 1
 N                     4.33303   2.06034  -5.93394 
 C                     4.86213   3.42533  -6.12063 
 C                     3.02518   0.29214  -5.91604 
 N                     4.23388  -0.11361  -5.36911 
 C                     4.97344   0.9679   -5.40178 
 H                     6.003     1.0259   -5.0474 
 N                     0.80719   0.3068   -6.71805 
 C                     1.00037   1.59822  -7.00527 
 H                     0.14796   2.10764  -7.45266 
 N                     2.08332   2.3513   -6.82368 
 C                     3.07118   1.62963  -6.26894 
 C                     1.82037  -0.39163  -6.16062 
 N                     1.62946  -1.68086  -5.87318 
 H                     2.3517   -2.23652  -5.45986 
 H                     0.75849  -2.13499  -6.06109 
 H                     5.66163   3.39521  -6.72069 
 H                     4.15839   4.00285  -6.53334 
 H                     5.12657   3.80661  -5.2348 
 N                     1.23534   3.82179  -3.28802 
 C                     0.31954   2.80271  -3.3922 
 C                     0.94557   5.25462  -3.49713 
 N                    -2.92255   1.72433  -4.01481 
 H                    -3.41954   0.85737  -4.03985 
 H                    -3.44551   2.55307  -4.21587 
 N                    -0.98837   2.93801  -3.7006 
 C                    -1.61363   1.77436  -3.72478 
 N                    -1.00633   0.56927  -3.46695 
 H                    -1.5628   -0.27073  -3.50809 
 C                     0.33804   0.40641  -3.14755 
 O                     0.78708  -0.72625  -2.93266 
 C                     1.02285   1.64779  -3.11776 
 N                     2.35341   1.93601  -2.84674 
 C                     2.43252   3.2342   -2.95918 
 H                     3.34322   3.81586  -2.81227 
 H                     1.5075    5.60421  -4.24601 
 H                    -0.02042   5.36717  -3.72618 
 H                     1.15033   5.76322  -2.66154 
 H                    -4.72455  -4.12665  -4.50204 
 H                    -4.91186  -4.15168  -2.7502 
 H                    -4.59642  -2.62789  -3.58081 
 H                    -0.67088  -6.3754   -3.21463 
 C                    -1.08053  -5.36568  -3.24401 
 O                     1.02777  -4.30534  -3.00344 
 C                    -0.19475  -4.24721  -3.13332 
 H                    -0.22246  -2.20103  -3.10705 
 N                    -0.81565  -3.0154   -3.18211 
 O                    -2.61557  -1.64149  -3.35493 
 C                    -2.15878  -2.77062  -3.32222 
 H                    -3.11112  -5.97522  -3.46983 
 C                    -2.39542  -5.15892  -3.38164 
 C                    -4.3899   -3.68781  -3.57387 
 N                    -2.94767  -3.89968  -3.4227 
 H                    -6.24038  -2.76832  -8.60424 
 H                    -5.63256  -1.62852  -7.6075 
 H                    -6.706    -2.7197   -7.04083 
 H                     0.2135   -5.07139  -5.75665 
 H                    -1.07357  -6.135    -6.10634 
 N                    -0.73869  -5.19469  -6.03641 
 C                    -1.52768  -4.1522   -6.30454 
 C                    -3.56291  -3.09849  -6.94429 
 N                    -3.08617  -1.84682  -6.84198 
 H                    -1.34368  -0.88472  -6.3534 
 C                    -1.81032  -1.8629   -6.46138 
 N                    -1.01835  -2.90598  -6.19235 
 H                    -5.72803  -5.43052  -7.5153 
 C                    -4.83601  -4.85432  -7.26784 
 N                    -3.68806  -5.37524  -6.90933 
 C                    -2.87195  -4.2728   -6.70118 
 C                    -5.94127  -2.5772   -7.66936 
 N                    -4.8316   -3.48139  -7.31009 
 
 ITRead=  0  0  0  0  0  0  0  0  0  0  0  0  0  0  0  0  0  0  0  0
 ITRead=  0  0  0  0  0  0  0  0  0  0  0  0  0  0  0  0  0  0  0  0
 ITRead=  0  0  0  0  0  0  0  0  0  0  0  0  0  0  0  0  0  0  0  0
 ITRead=  0  0  0  0  0  0  0  0  0  0
 MicOpt= -1 -1 -1 -1 -1 -1 -1 -1 -1 -1 -1 -1 -1 -1 -1 -1 -1 -1 -1 -1
 MicOpt= -1 -1 -1 -1 -1 -1 -1 -1 -1 -1 -1 -1 -1 -1 -1 -1 -1 -1 -1 -1
 MicOpt= -1 -1 -1 -1 -1 -1 -1 -1 -1 -1 -1 -1 -1 -1 -1 -1 -1 -1 -1 -1
 MicOpt= -1 -1 -1 -1 -1 -1 -1 -1 -1 -1
 NAtoms=     70 NQM=       70 NQMF=       0 NMMI=      0 NMMIF=      0
                NMic=       0 NMicF=      0.
                    Isotopes and Nuclear Properties:
 (Nuclear quadrupole moments (NQMom) in fm**2, nuclear magnetic moments (NMagM)
  in nuclear magnetons)

  Atom         1           2           3           4           5           6           7           8           9          10
 IAtWgt=          14          12          12          14          12           1          14          12           1          14
 AtmWgt=  14.0030740  12.0000000  12.0000000  14.0030740  12.0000000   1.0078250  14.0030740  12.0000000   1.0078250  14.0030740
 NucSpn=           2           0           0           2           0           1           2           0           1           2
 AtZEff=  -0.0000000  -0.0000000  -0.0000000  -0.0000000  -0.0000000  -0.0000000  -0.0000000  -0.0000000  -0.0000000  -0.0000000
 NQMom=    2.0440000   0.0000000   0.0000000   2.0440000   0.0000000   0.0000000   2.0440000   0.0000000   0.0000000   2.0440000
 NMagM=    0.4037610   0.0000000   0.0000000   0.4037610   0.0000000   2.7928460   0.4037610   0.0000000   2.7928460   0.4037610
 AtZNuc=   7.0000000   6.0000000   6.0000000   7.0000000   6.0000000   1.0000000   7.0000000   6.0000000   1.0000000   7.0000000

  Atom        11          12          13          14          15          16          17          18          19          20
 IAtWgt=          12          12          14           1           1           1           1           1          14          12
 AtmWgt=  12.0000000  12.0000000  14.0030740   1.0078250   1.0078250   1.0078250   1.0078250   1.0078250  14.0030740  12.0000000
 NucSpn=           0           0           2           1           1           1           1           1           2           0
 AtZEff=  -0.0000000  -0.0000000  -0.0000000  -0.0000000  -0.0000000  -0.0000000  -0.0000000  -0.0000000  -0.0000000  -0.0000000
 NQMom=    0.0000000   0.0000000   2.0440000   0.0000000   0.0000000   0.0000000   0.0000000   0.0000000   2.0440000   0.0000000
 NMagM=    0.0000000   0.0000000   0.4037610   2.7928460   2.7928460   2.7928460   2.7928460   2.7928460   0.4037610   0.0000000
 AtZNuc=   6.0000000   6.0000000   7.0000000   1.0000000   1.0000000   1.0000000   1.0000000   1.0000000   7.0000000   6.0000000

  Atom        21          22          23          24          25          26          27          28          29          30
 IAtWgt=          12          14           1           1          14          12          14           1          12          16
 AtmWgt=  12.0000000  14.0030740   1.0078250   1.0078250  14.0030740  12.0000000  14.0030740   1.0078250  12.0000000  15.9949146
 NucSpn=           0           2           1           1           2           0           2           1           0           0
 AtZEff=  -0.0000000  -0.0000000  -0.0000000  -0.0000000  -0.0000000  -0.0000000  -0.0000000  -0.0000000  -0.0000000  -0.0000000
 NQMom=    0.0000000   2.0440000   0.0000000   0.0000000   2.0440000   0.0000000   2.0440000   0.0000000   0.0000000   0.0000000
 NMagM=    0.0000000   0.4037610   2.7928460   2.7928460   0.4037610   0.0000000   0.4037610   2.7928460   0.0000000   0.0000000
 AtZNuc=   6.0000000   7.0000000   1.0000000   1.0000000   7.0000000   6.0000000   7.0000000   1.0000000   6.0000000   8.0000000

  Atom        31          32          33          34          35          36          37          38          39          40
 IAtWgt=          12          14          12           1           1           1           1           1           1           1
 AtmWgt=  12.0000000  14.0030740  12.0000000   1.0078250   1.0078250   1.0078250   1.0078250   1.0078250   1.0078250   1.0078250
 NucSpn=           0           2           0           1           1           1           1           1           1           1
 AtZEff=  -0.0000000  -0.0000000  -0.0000000  -0.0000000  -0.0000000  -0.0000000  -0.0000000  -0.0000000  -0.0000000  -0.0000000
 NQMom=    0.0000000   2.0440000   0.0000000   0.0000000   0.0000000   0.0000000   0.0000000   0.0000000   0.0000000   0.0000000
 NMagM=    0.0000000   0.4037610   0.0000000   2.7928460   2.7928460   2.7928460   2.7928460   2.7928460   2.7928460   2.7928460
 AtZNuc=   6.0000000   7.0000000   6.0000000   1.0000000   1.0000000   1.0000000   1.0000000   1.0000000   1.0000000   1.0000000

  Atom        41          42          43          44          45          46          47          48          49          50
 IAtWgt=           1          12          16          12           1          14          16          12           1          12
 AtmWgt=   1.0078250  12.0000000  15.9949146  12.0000000   1.0078250  14.0030740  15.9949146  12.0000000   1.0078250  12.0000000
 NucSpn=           1           0           0           0           1           2           0           0           1           0
 AtZEff=  -0.0000000  -0.0000000  -0.0000000  -0.0000000  -0.0000000  -0.0000000  -0.0000000  -0.0000000  -0.0000000  -0.0000000
 NQMom=    0.0000000   0.0000000   0.0000000   0.0000000   0.0000000   2.0440000   0.0000000   0.0000000   0.0000000   0.0000000
 NMagM=    2.7928460   0.0000000   0.0000000   0.0000000   2.7928460   0.4037610   0.0000000   0.0000000   2.7928460   0.0000000
 AtZNuc=   1.0000000   6.0000000   8.0000000   6.0000000   1.0000000   7.0000000   8.0000000   6.0000000   1.0000000   6.0000000

  Atom        51          52          53          54          55          56          57          58          59          60
 IAtWgt=          12          14           1           1           1           1           1          14          12          12
 AtmWgt=  12.0000000  14.0030740   1.0078250   1.0078250   1.0078250   1.0078250   1.0078250  14.0030740  12.0000000  12.0000000
 NucSpn=           0           2           1           1           1           1           1           2           0           0
 AtZEff=  -0.0000000  -0.0000000  -0.0000000  -0.0000000  -0.0000000  -0.0000000  -0.0000000  -0.0000000  -0.0000000  -0.0000000
 NQMom=    0.0000000   2.0440000   0.0000000   0.0000000   0.0000000   0.0000000   0.0000000   2.0440000   0.0000000   0.0000000
 NMagM=    0.0000000   0.4037610   2.7928460   2.7928460   2.7928460   2.7928460   2.7928460   0.4037610   0.0000000   0.0000000
 AtZNuc=   6.0000000   7.0000000   1.0000000   1.0000000   1.0000000   1.0000000   1.0000000   7.0000000   6.0000000   6.0000000

  Atom        61          62          63          64          65          66          67          68          69          70
 IAtWgt=          14           1          12          14           1          12          14          12          12          14
 AtmWgt=  14.0030740   1.0078250  12.0000000  14.0030740   1.0078250  12.0000000  14.0030740  12.0000000  12.0000000  14.0030740
 NucSpn=           2           1           0           2           1           0           2           0           0           2
 AtZEff=  -0.0000000  -0.0000000  -0.0000000  -0.0000000  -0.0000000  -0.0000000  -0.0000000  -0.0000000  -0.0000000  -0.0000000
 NQMom=    2.0440000   0.0000000   0.0000000   2.0440000   0.0000000   0.0000000   2.0440000   0.0000000   0.0000000   2.0440000
 NMagM=    0.4037610   2.7928460   0.0000000   0.4037610   2.7928460   0.0000000   0.4037610   0.0000000   0.0000000   0.4037610
 AtZNuc=   7.0000000   1.0000000   6.0000000   7.0000000   1.0000000   6.0000000   7.0000000   6.0000000   6.0000000   7.0000000
 Leave Link  101 at Sun Jan 21 06:50:56 2018, MaxMem=  4294967296 cpu:               7.7 elap:               0.3
 (Enter /share/apps/g16/l202.exe)
 Stoichiometry    C23H27N17O3
 Framework group  C1[X(C23H27N17O3)]
 Deg. of freedom   204
 Full point group                 C1      NOp   1
 Largest Abelian subgroup         C1      NOp   1
 Largest concise Abelian subgroup C1      NOp   1
                         Standard orientation:                         
 ---------------------------------------------------------------------
 Center     Atomic      Atomic             Coordinates (Angstroms)
 Number     Number       Type             X           Y           Z
 ---------------------------------------------------------------------
      1          7           0       -5.192133   -1.825405    1.263408
      2          6           0       -6.542312   -1.377550    1.656395
      3          6           0       -3.012665   -1.971122    1.006483
      4          7           0       -3.555945   -3.057607    0.336321
      5          6           0       -4.847250   -2.926340    0.517926
      6          1           0       -5.601055   -3.610182    0.126669
      7          7           0       -1.489409   -0.414341    1.911490
      8          6           0       -2.554236    0.223922    2.407821
      9          1           0       -2.332100    1.123801    2.979784
     10          7           0       -3.846180   -0.081083    2.304195
     11          6           0       -4.008932   -1.202559    1.582936
     12          6           0       -1.686429   -1.539576    1.190313
     13          7           0       -0.624752   -2.178111    0.694030
     14          1           0       -0.723526   -3.014823    0.154235
     15          1           0        0.305029   -1.842092    0.844801
     16          1           0       -6.986059   -2.089824    2.200394
     17          1           0       -6.472094   -0.540665    2.198429
     18          1           0       -7.087541   -1.197618    0.837648
     19          7           0       -4.734481    2.036815   -0.875071
     20          6           0       -3.360833    2.057378   -0.902231
     21          6           0       -5.595682    3.141033   -0.406318
     22          7           0       -0.365180    3.711972   -0.310561
     23          1           0        0.612031    3.526811   -0.410665
     24          1           0       -0.622206    4.605920    0.057565
     25          7           0       -2.573392    3.081543   -0.508445
     26          6           0       -1.290127    2.802983   -0.654223
     27          7           0       -0.812477    1.613086   -1.147709
     28          1           0        0.185182    1.487515   -1.224260
     29          6           0       -1.604310    0.545497   -1.558957
     30          8           0       -1.072764   -0.485415   -1.989552
     31          6           0       -2.985358    0.829887   -1.408282
     32          7           0       -4.100833    0.054314   -1.693089
     33          6           0       -5.112896    0.809344   -1.361645
     34          1           0       -6.160155    0.518889   -1.452032
     35          1           0       -6.152999    2.828191    0.362010
     36          1           0       -5.023414    3.905348   -0.112039
     37          1           0       -6.192074    3.439810   -1.150536
     38          1           0        5.242048    1.245782   -0.752681
     39          1           0        5.212810    1.637105   -2.470431
     40          1           0        3.946921    2.249588   -1.405660
     41          1           0        4.137619   -3.050031   -2.616217
     42          6           0        3.654081   -2.099317   -2.391397
     43          8           0        1.453459   -2.970228   -2.552341
     44          6           0        2.225157   -2.032623   -2.351882
     45          1           0        0.710152   -0.696914   -2.021803
     46          7           0        1.716052   -0.783587   -2.058670
     47          8           0        1.886706    1.424999   -1.558435
     48          6           0        2.428298    0.362813   -1.809633
     49          1           0        5.465033   -0.995851   -2.170842
     50          6           0        4.375988   -0.998152   -2.152833
     51          6           0        4.603542    1.416185   -1.606697
     52          7           0        3.800546    0.217964   -1.865989
     53          1           0        5.621239    2.633075    3.595017
     54          1           0        4.272375    3.057368    2.781001
     55          1           0        5.737986    3.252395    2.089617
     56          1           0        2.829634   -3.266786    0.064572
     57          1           0        4.504261   -3.032651    0.290192
     58          7           0        3.574217   -2.671663    0.367159
     59          6           0        3.338472   -1.450754    0.851916
     60          6           0        3.948672    0.658802    1.767982
     61          7           0        2.689436    1.117413    1.859775
     62          1           0        0.778237    0.496600    1.456628
     63          6           0        1.826814    0.204733    1.417275
     64          7           0        2.060956   -1.018660    0.931378
     65          1           0        7.170112    0.707540    2.036521
     66          6           0        6.129389    0.442936    1.847250
     67          7           0        5.730523   -0.700260    1.345567
     68          6           0        4.349816   -0.576580    1.290019
     69          6           0        5.190714    2.672549    2.693305
     70          7           0        5.103605    1.312742    2.126436
 ---------------------------------------------------------------------
 Rotational constants (GHZ):           0.1457362           0.0536795           0.0512753
 Leave Link  202 at Sun Jan 21 06:50:56 2018, MaxMem=  4294967296 cpu:               0.3 elap:               0.0
 (Enter /share/apps/g16/l301.exe)
 Standard basis: CC-pVDZ (5D, 7F)
 Ernie: Thresh=  0.10000D-02 Tol=  0.10000D-05 Strict=F.
 Ernie:  86 primitive shells out of 1081 were deleted.
 There are   780 symmetry adapted cartesian basis functions of A   symmetry.
 There are   737 symmetry adapted basis functions of A   symmetry.
   737 basis functions,  1608 primitive gaussians,   780 cartesian basis functions
   154 alpha electrons      154 beta electrons
       nuclear repulsion energy      5510.5136371189 Hartrees.
 IExCor= 4639 DFT=T Ex+Corr=wB97XD ExCW=0 ScaHFX=  1.000000
 ScaDFX=  1.000000  1.000000  1.000000  1.000000 ScalE2=  1.000000  1.000000
 IRadAn=      5 IRanWt=     -1 IRanGd=            0 ICorTp=0 IEmpDi=121
 HFx  wShort=  0.000000 wLong=  0.200000 cFull=  0.222036 cShort=  0.000000 cLong=  0.777964
 DFx  wShort=  0.000000 wLong=  0.200000 cFull=  0.000000 cShort=  0.000000 cLong=  1.000000
 NAtoms=   70 NActive=   70 NUniq=   70 SFac= 1.00D+00 NAtFMM=   60 NAOKFM=T Big=T
 Integral buffers will be    131072 words long.
 Raffenetti 2 integral format.
 Two-electron integral symmetry is turned on.
 R6Disp:  Grimme-D2 Dispersion energy=       -0.0712699580 Hartrees.
 Nuclear repulsion after empirical dispersion term =     5510.4423671609 Hartrees.
 Leave Link  301 at Sun Jan 21 06:50:56 2018, MaxMem=  4294967296 cpu:               2.2 elap:               0.1
 (Enter /share/apps/g16/l302.exe)
 NPDir=0 NMtPBC=     1 NCelOv=     1 NCel=       1 NClECP=     1 NCelD=      1
         NCelK=      1 NCelE2=     1 NClLst=     1 CellRange=     0.0.
 One-electron integrals computed using PRISM.
 One-electron integral symmetry used in STVInt
 NBasis=   737 RedAO= T EigKep=  6.88D-04  NBF=   737
 NBsUse=   737 1.00D-06 EigRej= -1.00D+00 NBFU=   737
 Precomputing XC quadrature grid using
 IXCGrd= 4 IRadAn=           5 IRanWt=          -1 IRanGd=           0 AccXCQ= 0.00D+00.
 Generated NRdTot=       0 NPtTot=           0 NUsed=           0 NTot=          32
 NSgBfM=   763   763   763   763   763 MxSgAt=    70 MxSgA2=    70.
 Leave Link  302 at Sun Jan 21 06:51:00 2018, MaxMem=  4294967296 cpu:             134.3 elap:               4.2
 (Enter /share/apps/g16/l303.exe)
 DipDrv:  MaxL=1.
 Leave Link  303 at Sun Jan 21 06:51:01 2018, MaxMem=  4294967296 cpu:              12.5 elap:               0.4
 (Enter /share/apps/g16/l401.exe)
 ExpMin= 1.22D-01 ExpMax= 1.17D+04 ExpMxC= 4.01D+02 IAcc=3 IRadAn=         5 AccDes= 0.00D+00
 Harris functional with IExCor= 4639 and IRadAn=       5 diagonalized for initial guess.
 HarFok:  IExCor= 4639 AccDes= 0.00D+00 IRadAn=         5 IDoV= 1 UseB2=F ITyADJ=14
 ICtDFT=  3500011 ScaDFX=  1.000000  1.000000  1.000000  1.000000
 FoFCou: FMM=F IPFlag=           0 FMFlag=      100000 FMFlg1=        2001
         NFxFlg=           0 DoJE=T BraDBF=F KetDBF=T FulRan=T
         wScrn=  0.000000 ICntrl=       500 IOpCl=  0 I1Cent=   200000004 NGrid=           0
         NMat0=    1 NMatS0=      1 NMatT0=    0 NMatD0=    1 NMtDS0=    0 NMtDT0=    0
 Petite list used in FoFCou.
 Harris En= -1963.88425609763    
 JPrj=0 DoOrth=F DoCkMO=F.
 Leave Link  401 at Sun Jan 21 06:51:13 2018, MaxMem=  4294967296 cpu:             401.5 elap:              12.6
 (Enter /share/apps/g16/l502.exe)
 Integral symmetry usage will be decided dynamically.
 Closed shell SCF:
 Using DIIS extrapolation, IDIIS=  1040.
 NGot=  4294967296 LenX=  4293717438 LenY=  4293108258
 Requested convergence on RMS density matrix=1.00D-08 within  20 cycles.
 Requested convergence on MAX density matrix=1.00D-06.
 Requested convergence on             energy=1.00D-06.
 No special actions if energy rises.
 Fock matrices will be formed incrementally for  20 cycles.
 Integral accuracy reduced to 1.0D-05 until final iterations.

 Cycle   1  Pass 0  IDiag  1:
 FoFJK:  IHMeth= 1 ICntrl=       0 DoSepK=T KAlg= 0 I1Cent=           0 FoldK=F
 IRaf=         1 NMat=       1 IRICut=       1 DoRegI=T DoRafI=F ISym2E= 0 IDoP0=0 IntGTp=1.
 FoFCou: FMM=T IPFlag=           0 FMFlag=      100000 FMFlg1=        2001
         NFxFlg=           0 DoJE=T BraDBF=F KetDBF=F FulRan=T
         wScrn=  0.000000 ICntrl=       500 IOpCl=  0 I1Cent=           0 NGrid=           0
         NMat0=    1 NMatS0=      1 NMatT0=    0 NMatD0=    1 NMtDS0=    0 NMtDT0=    0
 Symmetry not used in FoFCou.
 FMM levels:  10  Number of levels for PrismC:   9
 E= -2048.31771527045    
 DIIS: error= 2.03D-02 at cycle   1 NSaved=   1.
 NSaved= 1 IEnMin= 1 EnMin= -2048.31771527045     IErMin= 1 ErrMin= 2.03D-02
 ErrMax= 2.03D-02  0.00D+00 EMaxC= 1.00D-01 BMatC= 8.31D-01 BMatP= 8.31D-01
 IDIUse=3 WtCom= 7.97D-01 WtEn= 2.03D-01
 Coeff-Com:  0.100D+01
 Coeff-En:   0.100D+01
 Coeff:      0.100D+01
 Gap=     0.261 Goal=   None    Shift=    0.000
 GapD=    0.261 DampG=1.000 DampE=0.500 DampFc=0.5000 IDamp=-1.
 Damping current iteration by 5.00D-01
 RMSDP=1.56D-03 MaxDP=1.28D-01              OVMax= 1.80D-01

 Cycle   2  Pass 0  IDiag  1:
 RMSU=  7.78D-04    CP:  9.98D-01
 E= -2048.51401465751     Delta-E=       -0.196299387055 Rises=F Damp=T
 DIIS: error= 1.11D-02 at cycle   2 NSaved=   2.
 NSaved= 2 IEnMin= 2 EnMin= -2048.51401465751     IErMin= 2 ErrMin= 1.11D-02
 ErrMax= 1.11D-02  0.00D+00 EMaxC= 1.00D-01 BMatC= 1.44D-01 BMatP= 8.31D-01
 IDIUse=3 WtCom= 8.89D-01 WtEn= 1.11D-01
 Coeff-Com: -0.201D+00 0.120D+01
 Coeff-En:   0.000D+00 0.100D+01
 Coeff:     -0.178D+00 0.118D+01
 Gap=     0.350 Goal=   None    Shift=    0.000
 RMSDP=5.83D-04 MaxDP=3.51D-02 DE=-1.96D-01 OVMax= 1.29D-01

 Cycle   3  Pass 0  IDiag  1:
 RMSU=  5.71D-04    CP:  9.94D-01  1.14D+00
 E= -2048.69124587103     Delta-E=       -0.177231213522 Rises=F Damp=F
 DIIS: error= 6.03D-03 at cycle   3 NSaved=   3.
 NSaved= 3 IEnMin= 3 EnMin= -2048.69124587103     IErMin= 3 ErrMin= 6.03D-03
 ErrMax= 6.03D-03  0.00D+00 EMaxC= 1.00D-01 BMatC= 6.37D-02 BMatP= 1.44D-01
 IDIUse=3 WtCom= 9.40D-01 WtEn= 6.03D-02
 Coeff-Com: -0.234D+00 0.554D+00 0.680D+00
 Coeff-En:   0.000D+00 0.000D+00 0.100D+01
 Coeff:     -0.220D+00 0.520D+00 0.700D+00
 Gap=     0.279 Goal=   None    Shift=    0.000
 RMSDP=3.52D-04 MaxDP=3.33D-02 DE=-1.77D-01 OVMax= 6.45D-02

 Cycle   4  Pass 0  IDiag  1:
 RMSU=  2.00D-04    CP:  9.95D-01  1.42D+00  6.72D-01
 E= -2048.73970640544     Delta-E=       -0.048460534409 Rises=F Damp=F
 DIIS: error= 2.28D-03 at cycle   4 NSaved=   4.
 NSaved= 4 IEnMin= 4 EnMin= -2048.73970640544     IErMin= 4 ErrMin= 2.28D-03
 ErrMax= 2.28D-03  0.00D+00 EMaxC= 1.00D-01 BMatC= 8.53D-03 BMatP= 6.37D-02
 IDIUse=3 WtCom= 9.77D-01 WtEn= 2.28D-02
 Coeff-Com: -0.983D-01 0.190D+00 0.372D+00 0.536D+00
 Coeff-En:   0.000D+00 0.000D+00 0.461D-01 0.954D+00
 Coeff:     -0.960D-01 0.186D+00 0.365D+00 0.545D+00
 Gap=     0.284 Goal=   None    Shift=    0.000
 RMSDP=1.22D-04 MaxDP=1.11D-02 DE=-4.85D-02 OVMax= 1.35D-02

 Cycle   5  Pass 0  IDiag  1:
 RMSU=  6.14D-05    CP:  9.94D-01  1.40D+00  7.99D-01  6.29D-01
 E= -2048.74670241664     Delta-E=       -0.006996011199 Rises=F Damp=F
 DIIS: error= 5.88D-04 at cycle   5 NSaved=   5.
 NSaved= 5 IEnMin= 5 EnMin= -2048.74670241664     IErMin= 5 ErrMin= 5.88D-04
 ErrMax= 5.88D-04  0.00D+00 EMaxC= 1.00D-01 BMatC= 2.77D-04 BMatP= 8.53D-03
 IDIUse=3 WtCom= 9.94D-01 WtEn= 5.88D-03
 Coeff-Com: -0.254D-01 0.439D-01 0.118D+00 0.237D+00 0.626D+00
 Coeff-En:   0.000D+00 0.000D+00 0.000D+00 0.000D+00 0.100D+01
 Coeff:     -0.253D-01 0.436D-01 0.118D+00 0.236D+00 0.628D+00
 Gap=     0.284 Goal=   None    Shift=    0.000
 RMSDP=2.57D-05 MaxDP=1.81D-03 DE=-7.00D-03 OVMax= 2.98D-03

 Failed to achieve initial convergence to 1.0D-08 in  6 cycles.
 Switch to full accuracy anyway.
 Cycle   6  Pass 1  IDiag  1:
 E= -2048.74699611443     Delta-E=       -0.000293697788 Rises=F Damp=F
 DIIS: error= 3.01D-04 at cycle   1 NSaved=   1.
 NSaved= 1 IEnMin= 1 EnMin= -2048.74699611443     IErMin= 1 ErrMin= 3.01D-04
 ErrMax= 3.01D-04  0.00D+00 EMaxC= 1.00D-01 BMatC= 7.45D-05 BMatP= 7.45D-05
 IDIUse=3 WtCom= 9.97D-01 WtEn= 3.01D-03
 Coeff-Com:  0.100D+01
 Coeff-En:   0.100D+01
 Coeff:      0.100D+01
 Gap=     0.284 Goal=   None    Shift=    0.000
 RMSDP=2.57D-05 MaxDP=1.81D-03 DE=-2.94D-04 OVMax= 2.07D-03

 Cycle   7  Pass 1  IDiag  1:
 RMSU=  1.12D-04    CP:  1.00D+00
 E= -2048.74705047480     Delta-E=       -0.000054360374 Rises=F Damp=F
 DIIS: error= 2.74D-04 at cycle   2 NSaved=   2.
 NSaved= 2 IEnMin= 2 EnMin= -2048.74705047480     IErMin= 2 ErrMin= 2.74D-04
 ErrMax= 2.74D-04  0.00D+00 EMaxC= 1.00D-01 BMatC= 4.51D-05 BMatP= 7.45D-05
 IDIUse=3 WtCom= 9.97D-01 WtEn= 2.74D-03
 Coeff-Com:  0.416D+00 0.584D+00
 Coeff-En:   0.000D+00 0.100D+01
 Coeff:      0.415D+00 0.585D+00
 Gap=     0.284 Goal=   None    Shift=    0.000
 RMSDP=1.13D-05 MaxDP=1.12D-03 DE=-5.44D-05 OVMax= 1.35D-03

 Cycle   8  Pass 1  IDiag  1:
 RMSU=  1.10D-05    CP:  1.00D+00  1.02D+00
 E= -2048.74708316268     Delta-E=       -0.000032687884 Rises=F Damp=F
 DIIS: error= 1.02D-04 at cycle   3 NSaved=   3.
 NSaved= 3 IEnMin= 3 EnMin= -2048.74708316268     IErMin= 3 ErrMin= 1.02D-04
 ErrMax= 1.02D-04  0.00D+00 EMaxC= 1.00D-01 BMatC= 9.99D-06 BMatP= 4.51D-05
 IDIUse=3 WtCom= 9.99D-01 WtEn= 1.02D-03
 Coeff-Com: -0.193D-01 0.306D+00 0.713D+00
 Coeff-En:   0.000D+00 0.123D+00 0.877D+00
 Coeff:     -0.193D-01 0.306D+00 0.713D+00
 Gap=     0.284 Goal=   None    Shift=    0.000
 RMSDP=5.64D-06 MaxDP=4.74D-04 DE=-3.27D-05 OVMax= 4.93D-04

 Cycle   9  Pass 1  IDiag  1:
 RMSU=  3.85D-06    CP:  1.00D+00  1.05D+00  7.66D-01
 E= -2048.74709248807     Delta-E=       -0.000009325384 Rises=F Damp=F
 DIIS: error= 2.80D-05 at cycle   4 NSaved=   4.
 NSaved= 4 IEnMin= 4 EnMin= -2048.74709248807     IErMin= 4 ErrMin= 2.80D-05
 ErrMax= 2.80D-05  0.00D+00 EMaxC= 1.00D-01 BMatC= 5.02D-07 BMatP= 9.99D-06
 IDIUse=1 WtCom= 1.00D+00 WtEn= 0.00D+00
 Coeff-Com: -0.314D-01 0.835D-01 0.263D+00 0.685D+00
 Coeff:     -0.314D-01 0.835D-01 0.263D+00 0.685D+00
 Gap=     0.284 Goal=   None    Shift=    0.000
 RMSDP=1.46D-06 MaxDP=1.33D-04 DE=-9.33D-06 OVMax= 4.22D-04

 Cycle  10  Pass 1  IDiag  1:
 RMSU=  1.30D-06    CP:  1.00D+00  1.06D+00  8.00D-01  1.11D+00
 E= -2048.74709333487     Delta-E=       -0.000000846801 Rises=F Damp=F
 DIIS: error= 1.28D-05 at cycle   5 NSaved=   5.
 NSaved= 5 IEnMin= 5 EnMin= -2048.74709333487     IErMin= 5 ErrMin= 1.28D-05
 ErrMax= 1.28D-05  0.00D+00 EMaxC= 1.00D-01 BMatC= 1.20D-07 BMatP= 5.02D-07
 IDIUse=1 WtCom= 1.00D+00 WtEn= 0.00D+00
 Coeff-Com: -0.311D-02-0.542D-01-0.121D+00 0.202D+00 0.976D+00
 Coeff:     -0.311D-02-0.542D-01-0.121D+00 0.202D+00 0.976D+00
 Gap=     0.284 Goal=   None    Shift=    0.000
 RMSDP=1.23D-06 MaxDP=7.61D-05 DE=-8.47D-07 OVMax= 2.13D-04

 Cycle  11  Pass 1  IDiag  1:
 RMSU=  5.10D-07    CP:  1.00D+00  1.06D+00  8.10D-01  1.39D+00  1.18D+00
 E= -2048.74709359732     Delta-E=       -0.000000262447 Rises=F Damp=F
 DIIS: error= 6.18D-06 at cycle   6 NSaved=   6.
 NSaved= 6 IEnMin= 6 EnMin= -2048.74709359732     IErMin= 6 ErrMin= 6.18D-06
 ErrMax= 6.18D-06  0.00D+00 EMaxC= 1.00D-01 BMatC= 2.97D-08 BMatP= 1.20D-07
 IDIUse=1 WtCom= 1.00D+00 WtEn= 0.00D+00
 Coeff-Com:  0.489D-02-0.447D-01-0.117D+00-0.604D-02 0.527D+00 0.636D+00
 Coeff:      0.489D-02-0.447D-01-0.117D+00-0.604D-02 0.527D+00 0.636D+00
 Gap=     0.284 Goal=   None    Shift=    0.000
 RMSDP=3.89D-07 MaxDP=3.67D-05 DE=-2.62D-07 OVMax= 1.10D-04

 Cycle  12  Pass 1  IDiag  1:
 RMSU=  1.94D-07    CP:  1.00D+00  1.06D+00  8.11D-01  1.47D+00  1.31D+00
                    CP:  9.24D-01
 E= -2048.74709364199     Delta-E=       -0.000000044673 Rises=F Damp=F
 DIIS: error= 1.13D-06 at cycle   7 NSaved=   7.
 NSaved= 7 IEnMin= 7 EnMin= -2048.74709364199     IErMin= 7 ErrMin= 1.13D-06
 ErrMax= 1.13D-06  0.00D+00 EMaxC= 1.00D-01 BMatC= 9.10D-10 BMatP= 2.97D-08
 IDIUse=1 WtCom= 1.00D+00 WtEn= 0.00D+00
 Coeff-Com:  0.120D-02-0.739D-02-0.210D-01-0.840D-02 0.590D-01 0.144D+00
 Coeff-Com:  0.833D+00
 Coeff:      0.120D-02-0.739D-02-0.210D-01-0.840D-02 0.590D-01 0.144D+00
 Coeff:      0.833D+00
 Gap=     0.284 Goal=   None    Shift=    0.000
 RMSDP=9.05D-08 MaxDP=5.40D-06 DE=-4.47D-08 OVMax= 2.16D-05

 Cycle  13  Pass 1  IDiag  1:
 RMSU=  5.37D-08    CP:  1.00D+00  1.06D+00  8.11D-01  1.48D+00  1.33D+00
                    CP:  1.02D+00  1.14D+00
 E= -2048.74709364360     Delta-E=       -0.000000001608 Rises=F Damp=F
 DIIS: error= 6.96D-07 at cycle   8 NSaved=   8.
 NSaved= 8 IEnMin= 8 EnMin= -2048.74709364360     IErMin= 8 ErrMin= 6.96D-07
 ErrMax= 6.96D-07  0.00D+00 EMaxC= 1.00D-01 BMatC= 3.77D-10 BMatP= 9.10D-10
 IDIUse=1 WtCom= 1.00D+00 WtEn= 0.00D+00
 Coeff-Com: -0.781D-03 0.898D-02 0.225D-01-0.113D-02-0.121D+00-0.102D+00
 Coeff-Com:  0.431D+00 0.763D+00
 Coeff:     -0.781D-03 0.898D-02 0.225D-01-0.113D-02-0.121D+00-0.102D+00
 Coeff:      0.431D+00 0.763D+00
 Gap=     0.284 Goal=   None    Shift=    0.000
 RMSDP=5.29D-08 MaxDP=3.00D-06 DE=-1.61D-09 OVMax= 1.20D-05

 Cycle  14  Pass 1  IDiag  1:
 RMSU=  3.00D-08    CP:  1.00D+00  1.06D+00  8.11D-01  1.48D+00  1.34D+00
                    CP:  1.06D+00  1.30D+00  1.09D+00
 E= -2048.74709364426     Delta-E=       -0.000000000666 Rises=F Damp=F
 DIIS: error= 2.10D-07 at cycle   9 NSaved=   9.
 NSaved= 9 IEnMin= 9 EnMin= -2048.74709364426     IErMin= 9 ErrMin= 2.10D-07
 ErrMax= 2.10D-07  0.00D+00 EMaxC= 1.00D-01 BMatC= 4.11D-11 BMatP= 3.77D-10
 IDIUse=1 WtCom= 1.00D+00 WtEn= 0.00D+00
 Coeff-Com: -0.492D-03 0.497D-02 0.127D-01 0.824D-03-0.612D-01-0.625D-01
 Coeff-Com:  0.961D-01 0.330D+00 0.679D+00
 Coeff:     -0.492D-03 0.497D-02 0.127D-01 0.824D-03-0.612D-01-0.625D-01
 Coeff:      0.961D-01 0.330D+00 0.679D+00
 Gap=     0.284 Goal=   None    Shift=    0.000
 RMSDP=1.50D-08 MaxDP=9.01D-07 DE=-6.66D-10 OVMax= 3.37D-06

 Cycle  15  Pass 1  IDiag  1:
 RMSU=  9.86D-09    CP:  1.00D+00  1.06D+00  8.11D-01  1.48D+00  1.34D+00
                    CP:  1.07D+00  1.33D+00  1.24D+00  1.09D+00
 E= -2048.74709364474     Delta-E=       -0.000000000478 Rises=F Damp=F
 DIIS: error= 7.55D-08 at cycle  10 NSaved=  10.
 NSaved=10 IEnMin=10 EnMin= -2048.74709364474     IErMin=10 ErrMin= 7.55D-08
 ErrMax= 7.55D-08  0.00D+00 EMaxC= 1.00D-01 BMatC= 5.80D-12 BMatP= 4.11D-11
 IDIUse=1 WtCom= 1.00D+00 WtEn= 0.00D+00
 Coeff-Com:  0.781D-05-0.339D-03-0.711D-03 0.139D-03 0.591D-02 0.177D-02
 Coeff-Com: -0.564D-01-0.565D-01 0.242D+00 0.865D+00
 Coeff:      0.781D-05-0.339D-03-0.711D-03 0.139D-03 0.591D-02 0.177D-02
 Coeff:     -0.564D-01-0.565D-01 0.242D+00 0.865D+00
 Gap=     0.284 Goal=   None    Shift=    0.000
 RMSDP=7.61D-09 MaxDP=4.40D-07 DE=-4.78D-10 OVMax= 1.80D-06

 SCF Done:  E(RwB97XD) =  -2048.74709364     A.U. after   15 cycles
            NFock= 15  Conv=0.76D-08     -V/T= 2.0054
 KE= 2.037721887924D+03 PE=-1.580152162211D+04 EE= 6.204610273384D+03
 Leave Link  502 at Sun Jan 21 07:02:54 2018, MaxMem=  4294967296 cpu:           21186.2 elap:             700.8
 (Enter /share/apps/g16/l601.exe)
 Copying SCF densities to generalized density rwf, IOpCl= 0 IROHF=0.

 **********************************************************************

            Population analysis using the SCF density.

 **********************************************************************

 Orbital symmetries:
       Occupied  (A) (A) (A) (A) (A) (A) (A) (A) (A) (A) (A) (A)
                 (A) (A) (A) (A) (A) (A) (A) (A) (A) (A) (A) (A)
                 (A) (A) (A) (A) (A) (A) (A) (A) (A) (A) (A) (A)
                 (A) (A) (A) (A) (A) (A) (A) (A) (A) (A) (A) (A)
                 (A) (A) (A) (A) (A) (A) (A) (A) (A) (A) (A) (A)
                 (A) (A) (A) (A) (A) (A) (A) (A) (A) (A) (A) (A)
                 (A) (A) (A) (A) (A) (A) (A) (A) (A) (A) (A) (A)
                 (A) (A) (A) (A) (A) (A) (A) (A) (A) (A) (A) (A)
                 (A) (A) (A) (A) (A) (A) (A) (A) (A) (A) (A) (A)
                 (A) (A) (A) (A) (A) (A) (A) (A) (A) (A) (A) (A)
                 (A) (A) (A) (A) (A) (A) (A) (A) (A) (A) (A) (A)
                 (A) (A) (A) (A) (A) (A) (A) (A) (A) (A) (A) (A)
                 (A) (A) (A) (A) (A) (A) (A) (A) (A) (A)
       Virtual   (A) (A) (A) (A) (A) (A) (A) (A) (A) (A) (A) (A)
                 (A) (A) (A) (A) (A) (A) (A) (A) (A) (A) (A) (A)
                 (A) (A) (A) (A) (A) (A) (A) (A) (A) (A) (A) (A)
                 (A) (A) (A) (A) (A) (A) (A) (A) (A) (A) (A) (A)
                 (A) (A) (A) (A) (A) (A) (A) (A) (A) (A) (A) (A)
                 (A) (A) (A) (A) (A) (A) (A) (A) (A) (A) (A) (A)
                 (A) (A) (A) (A) (A) (A) (A) (A) (A) (A) (A) (A)
                 (A) (A) (A) (A) (A) (A) (A) (A) (A) (A) (A) (A)
                 (A) (A) (A) (A) (A) (A) (A) (A) (A) (A) (A) (A)
                 (A) (A) (A) (A) (A) (A) (A) (A) (A) (A) (A) (A)
                 (A) (A) (A) (A) (A) (A) (A) (A) (A) (A) (A) (A)
                 (A) (A) (A) (A) (A) (A) (A) (A) (A) (A) (A) (A)
                 (A) (A) (A) (A) (A) (A) (A) (A) (A) (A) (A) (A)
                 (A) (A) (A) (A) (A) (A) (A) (A) (A) (A) (A) (A)
                 (A) (A) (A) (A) (A) (A) (A) (A) (A) (A) (A) (A)
                 (A) (A) (A) (A) (A) (A) (A) (A) (A) (A) (A) (A)
                 (A) (A) (A) (A) (A) (A) (A) (A) (A) (A) (A) (A)
                 (A) (A) (A) (A) (A) (A) (A) (A) (A) (A) (A) (A)
                 (A) (A) (A) (A) (A) (A) (A) (A) (A) (A) (A) (A)
                 (A) (A) (A) (A) (A) (A) (A) (A) (A) (A) (A) (A)
                 (A) (A) (A) (A) (A) (A) (A) (A) (A) (A) (A) (A)
                 (A) (A) (A) (A) (A) (A) (A) (A) (A) (A) (A) (A)
                 (A) (A) (A) (A) (A) (A) (A) (A) (A) (A) (A) (A)
                 (A) (A) (A) (A) (A) (A) (A) (A) (A) (A) (A) (A)
                 (A) (A) (A) (A) (A) (A) (A) (A) (A) (A) (A) (A)
                 (A) (A) (A) (A) (A) (A) (A) (A) (A) (A) (A) (A)
                 (A) (A) (A) (A) (A) (A) (A) (A) (A) (A) (A) (A)
                 (A) (A) (A) (A) (A) (A) (A) (A) (A) (A) (A) (A)
                 (A) (A) (A) (A) (A) (A) (A) (A) (A) (A) (A) (A)
                 (A) (A) (A) (A) (A) (A) (A) (A) (A) (A) (A) (A)
                 (A) (A) (A) (A) (A) (A) (A) (A) (A) (A) (A) (A)
                 (A) (A) (A) (A) (A) (A) (A) (A) (A) (A) (A) (A)
                 (A) (A) (A) (A) (A) (A) (A) (A) (A) (A) (A) (A)
                 (A) (A) (A) (A) (A) (A) (A) (A) (A) (A) (A) (A)
                 (A) (A) (A) (A) (A) (A) (A) (A) (A) (A) (A) (A)
                 (A) (A) (A) (A) (A) (A) (A) (A) (A) (A) (A) (A)
                 (A) (A) (A) (A) (A) (A) (A) (A) (A) (A) (A) (A)
                 (A) (A) (A) (A) (A) (A) (A) (A) (A) (A) (A) (A)
                 (A) (A) (A) (A) (A) (A) (A) (A) (A) (A) (A) (A)
                 (A) (A) (A) (A) (A) (A) (A) (A) (A) (A) (A) (A)
                 (A) (A) (A) (A) (A) (A) (A) (A) (A) (A) (A) (A)
                 (A) (A) (A) (A) (A) (A) (A) (A) (A) (A) (A) (A)
                 (A) (A) (A) (A) (A) (A) (A) (A) (A) (A) (A) (A)
                 (A) (A) (A) (A) (A) (A) (A) (A) (A) (A) (A) (A)
                 (A) (A) (A) (A) (A) (A) (A) (A) (A) (A) (A) (A)
                 (A) (A) (A) (A) (A) (A) (A) (A) (A) (A) (A) (A)
                 (A) (A) (A) (A) (A) (A) (A) (A) (A) (A) (A) (A)
                 (A) (A) (A) (A) (A) (A) (A) (A) (A) (A) (A) (A)
                 (A) (A) (A) (A) (A) (A) (A)
 The electronic state is 1-A.
 Alpha  occ. eigenvalues --  -19.25657 -19.22206 -19.20686 -14.52454 -14.52205
 Alpha  occ. eigenvalues --  -14.48964 -14.48366 -14.47921 -14.47666 -14.46948
 Alpha  occ. eigenvalues --  -14.46751 -14.45477 -14.44283 -14.44238 -14.42120
 Alpha  occ. eigenvalues --  -14.42103 -14.41171 -14.40851 -14.40822 -14.40229
 Alpha  occ. eigenvalues --  -10.45233 -10.41335 -10.40167 -10.39840 -10.38325
 Alpha  occ. eigenvalues --  -10.37971 -10.37304 -10.37160 -10.35763 -10.35274
 Alpha  occ. eigenvalues --  -10.34961 -10.34516 -10.33876 -10.33629 -10.33620
 Alpha  occ. eigenvalues --  -10.33072 -10.32973 -10.32653 -10.31054 -10.30956
 Alpha  occ. eigenvalues --  -10.30894 -10.28279 -10.28213  -1.19233  -1.15200
 Alpha  occ. eigenvalues --   -1.13290  -1.13144  -1.10932  -1.10741  -1.09339
 Alpha  occ. eigenvalues --   -1.09038  -1.08648  -1.04897  -1.04748  -1.02362
 Alpha  occ. eigenvalues --   -1.00959  -1.00260  -0.99826  -0.98653  -0.96867
 Alpha  occ. eigenvalues --   -0.96763  -0.96536  -0.92575  -0.90848  -0.87599
 Alpha  occ. eigenvalues --   -0.85875  -0.84279  -0.83666  -0.83438  -0.82651
 Alpha  occ. eigenvalues --   -0.82096  -0.78683  -0.77000  -0.74794  -0.74763
 Alpha  occ. eigenvalues --   -0.73731  -0.73218  -0.72667  -0.70843  -0.70351
 Alpha  occ. eigenvalues --   -0.67505  -0.66801  -0.66326  -0.66067  -0.64513
 Alpha  occ. eigenvalues --   -0.64197  -0.63763  -0.62721  -0.62506  -0.61897
 Alpha  occ. eigenvalues --   -0.60734  -0.60432  -0.60259  -0.59381  -0.59254
 Alpha  occ. eigenvalues --   -0.58967  -0.58464  -0.56881  -0.56385  -0.56069
 Alpha  occ. eigenvalues --   -0.55909  -0.55393  -0.55144  -0.54307  -0.53959
 Alpha  occ. eigenvalues --   -0.53744  -0.53701  -0.53577  -0.53448  -0.53080
 Alpha  occ. eigenvalues --   -0.52754  -0.52282  -0.51582  -0.50548  -0.50287
 Alpha  occ. eigenvalues --   -0.50143  -0.49807  -0.49441  -0.49007  -0.48947
 Alpha  occ. eigenvalues --   -0.48751  -0.48526  -0.48434  -0.47805  -0.47393
 Alpha  occ. eigenvalues --   -0.46742  -0.45950  -0.45316  -0.44591  -0.43015
 Alpha  occ. eigenvalues --   -0.40881  -0.40680  -0.39287  -0.37958  -0.37545
 Alpha  occ. eigenvalues --   -0.37411  -0.37357  -0.36882  -0.36081  -0.34599
 Alpha  occ. eigenvalues --   -0.34305  -0.34032  -0.33364  -0.33235  -0.33113
 Alpha  occ. eigenvalues --   -0.32812  -0.32581  -0.32312  -0.31975  -0.30670
 Alpha  occ. eigenvalues --   -0.30298  -0.29216  -0.25811  -0.25355
 Alpha virt. eigenvalues --    0.03060   0.04081   0.07062   0.08060   0.08704
 Alpha virt. eigenvalues --    0.09114   0.09610   0.10457   0.11186   0.12230
 Alpha virt. eigenvalues --    0.12881   0.13772   0.14466   0.14530   0.14979
 Alpha virt. eigenvalues --    0.15242   0.16154   0.17186   0.17881   0.18193
 Alpha virt. eigenvalues --    0.18493   0.18932   0.19489   0.20321   0.20512
 Alpha virt. eigenvalues --    0.20641   0.20661   0.21266   0.21420   0.22006
 Alpha virt. eigenvalues --    0.22251   0.22670   0.22735   0.23454   0.23703
 Alpha virt. eigenvalues --    0.23805   0.24170   0.24389   0.25171   0.25881
 Alpha virt. eigenvalues --    0.26091   0.26759   0.27559   0.27697   0.27824
 Alpha virt. eigenvalues --    0.28903   0.29035   0.29527   0.30375   0.30684
 Alpha virt. eigenvalues --    0.31377   0.31578   0.32407   0.32919   0.33162
 Alpha virt. eigenvalues --    0.33877   0.34394   0.35343   0.36065   0.36283
 Alpha virt. eigenvalues --    0.36709   0.37370   0.37779   0.38722   0.39248
 Alpha virt. eigenvalues --    0.39525   0.40172   0.40805   0.41043   0.41530
 Alpha virt. eigenvalues --    0.41936   0.42168   0.43143   0.43738   0.44262
 Alpha virt. eigenvalues --    0.44663   0.45606   0.46021   0.46455   0.46801
 Alpha virt. eigenvalues --    0.46910   0.47350   0.47926   0.48545   0.48872
 Alpha virt. eigenvalues --    0.49687   0.50386   0.50491   0.51096   0.51353
 Alpha virt. eigenvalues --    0.51697   0.51787   0.52418   0.52618   0.53034
 Alpha virt. eigenvalues --    0.53182   0.53963   0.54268   0.54936   0.55302
 Alpha virt. eigenvalues --    0.55653   0.56058   0.56410   0.56994   0.57555
 Alpha virt. eigenvalues --    0.57636   0.57882   0.58679   0.59033   0.59642
 Alpha virt. eigenvalues --    0.59882   0.60387   0.60763   0.60924   0.61056
 Alpha virt. eigenvalues --    0.61485   0.61950   0.62112   0.62639   0.63120
 Alpha virt. eigenvalues --    0.63400   0.63678   0.64824   0.64987   0.65367
 Alpha virt. eigenvalues --    0.65581   0.66201   0.66911   0.67172   0.67516
 Alpha virt. eigenvalues --    0.67852   0.68675   0.68929   0.69071   0.69988
 Alpha virt. eigenvalues --    0.70371   0.70846   0.71355   0.71773   0.72029
 Alpha virt. eigenvalues --    0.72237   0.72498   0.73063   0.73325   0.73515
 Alpha virt. eigenvalues --    0.74148   0.74616   0.75220   0.75301   0.75589
 Alpha virt. eigenvalues --    0.75897   0.76147   0.76179   0.76815   0.77045
 Alpha virt. eigenvalues --    0.77603   0.77692   0.78391   0.78871   0.79095
 Alpha virt. eigenvalues --    0.79370   0.79930   0.80496   0.80621   0.80895
 Alpha virt. eigenvalues --    0.81190   0.81936   0.82330   0.82414   0.82856
 Alpha virt. eigenvalues --    0.83307   0.83644   0.84268   0.84626   0.84779
 Alpha virt. eigenvalues --    0.85094   0.86430   0.86471   0.86733   0.87423
 Alpha virt. eigenvalues --    0.87704   0.88242   0.88788   0.89679   0.90049
 Alpha virt. eigenvalues --    0.90309   0.90767   0.90841   0.91705   0.92293
 Alpha virt. eigenvalues --    0.92636   0.92805   0.92975   0.93339   0.93760
 Alpha virt. eigenvalues --    0.94857   0.95249   0.95761   0.96024   0.96967
 Alpha virt. eigenvalues --    0.97192   0.97482   0.98434   0.98593   0.99005
 Alpha virt. eigenvalues --    0.99200   0.99287   1.00123   1.00640   1.00762
 Alpha virt. eigenvalues --    1.01678   1.01869   1.01927   1.02370   1.02754
 Alpha virt. eigenvalues --    1.03280   1.03414   1.03678   1.04544   1.05180
 Alpha virt. eigenvalues --    1.05613   1.05991   1.06489   1.06850   1.07356
 Alpha virt. eigenvalues --    1.07830   1.08149   1.09035   1.09950   1.10598
 Alpha virt. eigenvalues --    1.11045   1.11580   1.11874   1.13052   1.13139
 Alpha virt. eigenvalues --    1.13914   1.14467   1.14643   1.15288   1.15543
 Alpha virt. eigenvalues --    1.15807   1.16373   1.16612   1.17050   1.17863
 Alpha virt. eigenvalues --    1.18278   1.18505   1.18763   1.19298   1.19457
 Alpha virt. eigenvalues --    1.19697   1.20014   1.20739   1.21177   1.21446
 Alpha virt. eigenvalues --    1.21760   1.22236   1.22531   1.23127   1.23235
 Alpha virt. eigenvalues --    1.23523   1.23738   1.23959   1.24430   1.24938
 Alpha virt. eigenvalues --    1.25413   1.25991   1.26050   1.27305   1.28060
 Alpha virt. eigenvalues --    1.28714   1.28986   1.29598   1.30011   1.30564
 Alpha virt. eigenvalues --    1.31166   1.31499   1.32679   1.33428   1.34020
 Alpha virt. eigenvalues --    1.34234   1.34850   1.35336   1.36189   1.36955
 Alpha virt. eigenvalues --    1.37606   1.37856   1.38536   1.39242   1.39962
 Alpha virt. eigenvalues --    1.40691   1.41049   1.41720   1.42235   1.43566
 Alpha virt. eigenvalues --    1.44584   1.45334   1.46366   1.47115   1.47249
 Alpha virt. eigenvalues --    1.48119   1.48866   1.49036   1.50359   1.50584
 Alpha virt. eigenvalues --    1.52126   1.52784   1.53371   1.53496   1.54116
 Alpha virt. eigenvalues --    1.55567   1.55984   1.56408   1.56678   1.57289
 Alpha virt. eigenvalues --    1.58327   1.59025   1.59155   1.59936   1.60412
 Alpha virt. eigenvalues --    1.61415   1.61654   1.62307   1.62840   1.63355
 Alpha virt. eigenvalues --    1.63628   1.64348   1.64544   1.65099   1.65883
 Alpha virt. eigenvalues --    1.66886   1.67399   1.67968   1.68278   1.69253
 Alpha virt. eigenvalues --    1.69790   1.70350   1.70477   1.71035   1.71730
 Alpha virt. eigenvalues --    1.72340   1.72476   1.73037   1.73288   1.73898
 Alpha virt. eigenvalues --    1.74097   1.74796   1.74968   1.75399   1.75868
 Alpha virt. eigenvalues --    1.76000   1.76170   1.76356   1.76873   1.77375
 Alpha virt. eigenvalues --    1.77571   1.77907   1.78099   1.78849   1.79149
 Alpha virt. eigenvalues --    1.79363   1.79785   1.80179   1.80317   1.80436
 Alpha virt. eigenvalues --    1.80610   1.80911   1.81539   1.82290   1.82396
 Alpha virt. eigenvalues --    1.82845   1.83266   1.83594   1.83927   1.84425
 Alpha virt. eigenvalues --    1.84805   1.86044   1.86107   1.86334   1.87307
 Alpha virt. eigenvalues --    1.87562   1.87947   1.88228   1.88993   1.89692
 Alpha virt. eigenvalues --    1.89752   1.90115   1.90662   1.90965   1.91306
 Alpha virt. eigenvalues --    1.92170   1.92707   1.93324   1.93668   1.93889
 Alpha virt. eigenvalues --    1.95404   1.95833   1.96237   1.97091   1.97452
 Alpha virt. eigenvalues --    1.98362   1.98489   1.99831   2.00284   2.01119
 Alpha virt. eigenvalues --    2.01864   2.02815   2.03079   2.03499   2.04044
 Alpha virt. eigenvalues --    2.04377   2.05337   2.06459   2.07143   2.07589
 Alpha virt. eigenvalues --    2.07694   2.08643   2.09377   2.10166   2.10391
 Alpha virt. eigenvalues --    2.11074   2.11328   2.11702   2.12625   2.12988
 Alpha virt. eigenvalues --    2.13875   2.14626   2.15674   2.17323   2.17563
 Alpha virt. eigenvalues --    2.18007   2.18353   2.19620   2.21166   2.21387
 Alpha virt. eigenvalues --    2.22046   2.22386   2.22846   2.23985   2.24072
 Alpha virt. eigenvalues --    2.24267   2.25033   2.25506   2.26293   2.26864
 Alpha virt. eigenvalues --    2.27104   2.28290   2.28981   2.29652   2.29969
 Alpha virt. eigenvalues --    2.30124   2.30627   2.30931   2.31770   2.32050
 Alpha virt. eigenvalues --    2.32552   2.33350   2.33644   2.33841   2.34298
 Alpha virt. eigenvalues --    2.34386   2.35041   2.35764   2.36691   2.37146
 Alpha virt. eigenvalues --    2.38046   2.38686   2.40052   2.40284   2.41236
 Alpha virt. eigenvalues --    2.41443   2.42121   2.43029   2.44021   2.44245
 Alpha virt. eigenvalues --    2.44619   2.45055   2.45487   2.46482   2.46690
 Alpha virt. eigenvalues --    2.47763   2.48266   2.50007   2.50249   2.51360
 Alpha virt. eigenvalues --    2.52580   2.52896   2.54775   2.55230   2.56024
 Alpha virt. eigenvalues --    2.56579   2.57490   2.58672   2.59214   2.60560
 Alpha virt. eigenvalues --    2.60884   2.62110   2.62278   2.62616   2.64126
 Alpha virt. eigenvalues --    2.64748   2.65082   2.65209   2.65588   2.66212
 Alpha virt. eigenvalues --    2.67119   2.67497   2.68056   2.68321   2.68940
 Alpha virt. eigenvalues --    2.69533   2.70724   2.70838   2.71221   2.72134
 Alpha virt. eigenvalues --    2.72563   2.74868   2.75749   2.75977   2.76143
 Alpha virt. eigenvalues --    2.76965   2.77644   2.78599   2.79118   2.79262
 Alpha virt. eigenvalues --    2.79568   2.80108   2.80198   2.81120   2.81648
 Alpha virt. eigenvalues --    2.81849   2.82076   2.82742   2.83105   2.84120
 Alpha virt. eigenvalues --    2.84479   2.85035   2.86233   2.86419   2.86639
 Alpha virt. eigenvalues --    2.87336   2.88171   2.88817   2.91532   2.93624
 Alpha virt. eigenvalues --    2.94481   2.95126   2.96374   2.96801   2.98865
 Alpha virt. eigenvalues --    3.00115   3.01078   3.01503   3.04477   3.05623
 Alpha virt. eigenvalues --    3.06603   3.09669   3.10714   3.12658   3.14686
 Alpha virt. eigenvalues --    3.15661   3.15785   3.16223   3.17454   3.20892
 Alpha virt. eigenvalues --    3.21202   3.22450   3.23574   3.24440   3.25920
 Alpha virt. eigenvalues --    3.44902   3.47210   3.47456   3.49108   3.50607
 Alpha virt. eigenvalues --    3.53309   3.54296   3.55996   3.57594   3.59863
 Alpha virt. eigenvalues --    3.62795   3.70868   3.75082
          Condensed to atoms (all electrons):
 Mulliken charges:
               1
     1  N   -0.308663
     2  C    0.179809
     3  C    0.060925
     4  N   -0.253837
     5  C    0.141530
     6  H    0.025417
     7  N   -0.295465
     8  C    0.133814
     9  H    0.010304
    10  N   -0.288308
    11  C    0.241016
    12  C    0.089258
    13  N   -0.049068
    14  H    0.115074
    15  H    0.083659
    16  H    0.025756
    17  H    0.031025
    18  H    0.020263
    19  N   -0.307519
    20  C    0.261387
    21  C    0.182424
    22  N   -0.123600
    23  H    0.118320
    24  H    0.118345
    25  N   -0.311646
    26  C    0.248807
    27  N   -0.146032
    28  H    0.118428
    29  C    0.190322
    30  O   -0.322036
    31  C   -0.016928
    32  N   -0.221426
    33  C    0.118617
    34  H    0.020469
    35  H    0.027228
    36  H    0.030288
    37  H    0.023742
    38  H    0.058611
    39  H    0.060108
    40  H    0.074561
    41  H    0.021390
    42  C   -0.103338
    43  O   -0.271091
    44  C    0.158844
    45  H    0.129846
    46  N   -0.109873
    47  O   -0.346164
    48  C    0.338031
    49  H    0.045051
    50  C    0.166322
    51  C    0.042129
    52  N   -0.276318
    53  H    0.034433
    54  H    0.041367
    55  H    0.026190
    56  H    0.125883
    57  H    0.114418
    58  N   -0.047235
    59  C    0.080379
    60  C    0.230205
    61  N   -0.268300
    62  H    0.031561
    63  C    0.165947
    64  N   -0.305999
    65  H    0.036177
    66  C    0.123716
    67  N   -0.256965
    68  C    0.029586
    69  C    0.181938
    70  N   -0.303109
 Sum of Mulliken charges =  -0.00000
 Mulliken charges with hydrogens summed into heavy atoms:
               1
     1  N   -0.308663
     2  C    0.256853
     3  C    0.060925
     4  N   -0.253837
     5  C    0.166947
     7  N   -0.295465
     8  C    0.144118
    10  N   -0.288308
    11  C    0.241016
    12  C    0.089258
    13  N    0.149665
    19  N   -0.307519
    20  C    0.261387
    21  C    0.263682
    22  N    0.113065
    25  N   -0.311646
    26  C    0.248807
    27  N   -0.027604
    29  C    0.190322
    30  O   -0.322036
    31  C   -0.016928
    32  N   -0.221426
    33  C    0.139087
    42  C   -0.081948
    43  O   -0.271091
    44  C    0.158844
    46  N    0.019972
    47  O   -0.346164
    48  C    0.338031
    50  C    0.211373
    51  C    0.235409
    52  N   -0.276318
    58  N    0.193066
    59  C    0.080379
    60  C    0.230205
    61  N   -0.268300
    63  C    0.197508
    64  N   -0.305999
    66  C    0.159893
    67  N   -0.256965
    68  C    0.029586
    69  C    0.283929
    70  N   -0.303109
 Electronic spatial extent (au):  <R**2>=          22277.2306
 Charge=             -0.0000 electrons
 Dipole moment (field-independent basis, Debye):
    X=              6.7821    Y=              7.0072    Z=              2.4969  Tot=             10.0664
 Quadrupole moment (field-independent basis, Debye-Ang):
   XX=           -150.7774   YY=           -222.9606   ZZ=           -256.2253
   XY=              5.0467   XZ=             -4.5975   YZ=             -3.3597
 Traceless Quadrupole moment (field-independent basis, Debye-Ang):
   XX=             59.2103   YY=            -12.9728   ZZ=            -46.2376
   XY=              5.0467   XZ=             -4.5975   YZ=             -3.3597
 Octapole moment (field-independent basis, Debye-Ang**2):
  XXX=            -94.7464  YYY=             92.4070  ZZZ=             15.7882  XYY=             50.9370
  XXY=             88.6981  XXZ=             33.4217  XZZ=             77.2776  YZZ=             50.7027
  YYZ=             41.9607  XYZ=             64.5116
 Hexadecapole moment (field-independent basis, Debye-Ang**3):
 XXXX=         -15918.9783 YYYY=          -4685.6430 ZZZZ=          -4064.8921 XXXY=            578.2949
 XXXZ=            -15.0322 YYYX=            -85.3730 YYYZ=             33.1339 ZZZX=             75.3329
 ZZZY=             17.8174 XXYY=          -3533.0056 XXZZ=          -3795.7577 YYZZ=          -1566.9457
 XXYZ=            156.3665 YYXZ=             62.1135 ZZXY=            138.4629
 N-N= 5.510442367161D+03 E-N=-1.580152162604D+04  KE= 2.037721887924D+03
 No NMR shielding tensors so no spin-rotation constants.
 Leave Link  601 at Sun Jan 21 07:02:56 2018, MaxMem=  4294967296 cpu:              47.1 elap:               1.7
 (Enter /share/apps/g16/l9999.exe)
 1\1\GINC-COMPUTE-0-3\SP\RwB97XD\CC-pVDZ\C23H27N17O3\SATYA\21-Jan-2018\
 0\\#p wb97xd/cc-pvdz sp scf=(maxcycles=20)\\Base pair stacking\\0,1\N,
 0,4.33303,2.06034,-5.93394\C,0,4.86213,3.42533,-6.12063\C,0,3.02518,0.
 29214,-5.91604\N,0,4.23388,-0.11361,-5.36911\C,0,4.97344,0.9679,-5.401
 78\H,0,6.003,1.0259,-5.0474\N,0,0.80719,0.3068,-6.71805\C,0,1.00037,1.
 59822,-7.00527\H,0,0.14796,2.10764,-7.45266\N,0,2.08332,2.3513,-6.8236
 8\C,0,3.07118,1.62963,-6.26894\C,0,1.82037,-0.39163,-6.16062\N,0,1.629
 46,-1.68086,-5.87318\H,0,2.3517,-2.23652,-5.45986\H,0,0.75849,-2.13499
 ,-6.06109\H,0,5.66163,3.39521,-6.72069\H,0,4.15839,4.00285,-6.53334\H,
 0,5.12657,3.80661,-5.2348\N,0,1.23534,3.82179,-3.28802\C,0,0.31954,2.8
 0271,-3.3922\C,0,0.94557,5.25462,-3.49713\N,0,-2.92255,1.72433,-4.0148
 1\H,0,-3.41954,0.85737,-4.03985\H,0,-3.44551,2.55307,-4.21587\N,0,-0.9
 8837,2.93801,-3.7006\C,0,-1.61363,1.77436,-3.72478\N,0,-1.00633,0.5692
 7,-3.46695\H,0,-1.5628,-0.27073,-3.50809\C,0,0.33804,0.40641,-3.14755\
 O,0,0.78708,-0.72625,-2.93266\C,0,1.02285,1.64779,-3.11776\N,0,2.35341
 ,1.93601,-2.84674\C,0,2.43252,3.2342,-2.95918\H,0,3.34322,3.81586,-2.8
 1227\H,0,1.5075,5.60421,-4.24601\H,0,-0.02042,5.36717,-3.72618\H,0,1.1
 5033,5.76322,-2.66154\H,0,-4.72455,-4.12665,-4.50204\H,0,-4.91186,-4.1
 5168,-2.7502\H,0,-4.59642,-2.62789,-3.58081\H,0,-0.67088,-6.3754,-3.21
 463\C,0,-1.08053,-5.36568,-3.24401\O,0,1.02777,-4.30534,-3.00344\C,0,-
 0.19475,-4.24721,-3.13332\H,0,-0.22246,-2.20103,-3.10705\N,0,-0.81565,
 -3.0154,-3.18211\O,0,-2.61557,-1.64149,-3.35493\C,0,-2.15878,-2.77062,
 -3.32222\H,0,-3.11112,-5.97522,-3.46983\C,0,-2.39542,-5.15892,-3.38164
 \C,0,-4.3899,-3.68781,-3.57387\N,0,-2.94767,-3.89968,-3.4227\H,0,-6.24
 038,-2.76832,-8.60424\H,0,-5.63256,-1.62852,-7.6075\H,0,-6.706,-2.7197
 ,-7.04083\H,0,0.2135,-5.07139,-5.75665\H,0,-1.07357,-6.135,-6.10634\N,
 0,-0.73869,-5.19469,-6.03641\C,0,-1.52768,-4.1522,-6.30454\C,0,-3.5629
 1,-3.09849,-6.94429\N,0,-3.08617,-1.84682,-6.84198\H,0,-1.34368,-0.884
 72,-6.3534\C,0,-1.81032,-1.8629,-6.46138\N,0,-1.01835,-2.90598,-6.1923
 5\H,0,-5.72803,-5.43052,-7.5153\C,0,-4.83601,-4.85432,-7.26784\N,0,-3.
 68806,-5.37524,-6.90933\C,0,-2.87195,-4.2728,-6.70118\C,0,-5.94127,-2.
 5772,-7.66936\N,0,-4.8316,-3.48139,-7.31009\\Version=EM64L-G16RevA.03\
 State=1-A\HF=-2048.7470936\RMSD=7.615e-09\Dipole=-3.8768072,-0.0596527
 ,-0.8073378\Quadrupole=16.700471,16.3780984,-33.0785693,27.7721246,-1.
 9619114,6.5206678\PG=C01 [X(C23H27N17O3)]\\@



 IN THIS SHORT LIFE

 THAT ONLY LASTS AN HOUR

 HOW MUCH, HOW LITTLE, IS WITHIN OUR POWER....


 EMILY DICKINSON BOLTS OF MELODY NO. 521
 Job cpu time:       0 days  6 hours  3 minutes 16.9 seconds.
 Elapsed time:       0 days  0 hours 12 minutes  0.3 seconds.
 File lengths (MBytes):  RWF=    298 Int=      0 D2E=      0 Chk=     33 Scr=      1
 Normal termination of Gaussian 16 at Sun Jan 21 07:02:56 2018.
