 Entering Gaussian System, Link 0=g16
 Input=str30.-15.0.0.com
 Output=str30.-15.0.0.log
 Initial command:
 /share/apps/g16/l1.exe "/state/partition1/scr/Gau-4635.inp" -scrdir="/state/partition1/scr/"
 Entering Link 1 = /share/apps/g16/l1.exe PID=      4636.
  
 Copyright (c) 1988,1990,1992,1993,1995,1998,2003,2009,2016,
            Gaussian, Inc.  All Rights Reserved.
  
 This is part of the Gaussian(R) 16 program.  It is based on
 the Gaussian(R) 09 system (copyright 2009, Gaussian, Inc.),
 the Gaussian(R) 03 system (copyright 2003, Gaussian, Inc.),
 the Gaussian(R) 98 system (copyright 1998, Gaussian, Inc.),
 the Gaussian(R) 94 system (copyright 1995, Gaussian, Inc.),
 the Gaussian 92(TM) system (copyright 1992, Gaussian, Inc.),
 the Gaussian 90(TM) system (copyright 1990, Gaussian, Inc.),
 the Gaussian 88(TM) system (copyright 1988, Gaussian, Inc.),
 the Gaussian 86(TM) system (copyright 1986, Carnegie Mellon
 University), and the Gaussian 82(TM) system (copyright 1983,
 Carnegie Mellon University). Gaussian is a federally registered
 trademark of Gaussian, Inc.
  
 This software contains proprietary and confidential information,
 including trade secrets, belonging to Gaussian, Inc.
  
 This software is provided under written license and may be
 used, copied, transmitted, or stored only in accord with that
 written license.
  
 The following legend is applicable only to US Government
 contracts under FAR:
  
                    RESTRICTED RIGHTS LEGEND
  
 Use, reproduction and disclosure by the US Government is
 subject to restrictions as set forth in subparagraphs (a)
 and (c) of the Commercial Computer Software - Restricted
 Rights clause in FAR 52.227-19.
  
 Gaussian, Inc.
 340 Quinnipiac St., Bldg. 40, Wallingford CT 06492
  
  
 ---------------------------------------------------------------
 Warning -- This program may not be used in any manner that
 competes with the business of Gaussian, Inc. or will provide
 assistance to any competitor of Gaussian, Inc.  The licensee
 of this program is prohibited from giving any competitor of
 Gaussian, Inc. access to this program.  By using this program,
 the user acknowledges that Gaussian, Inc. is engaged in the
 business of creating and licensing software in the field of
 computational chemistry and represents and warrants to the
 licensee that it is not a competitor of Gaussian, Inc. and that
 it will not use this program in any manner prohibited above.
 ---------------------------------------------------------------
  

 Cite this work as:
 Gaussian 16, Revision A.03,
 M. J. Frisch, G. W. Trucks, H. B. Schlegel, G. E. Scuseria, 
 M. A. Robb, J. R. Cheeseman, G. Scalmani, V. Barone, 
 G. A. Petersson, H. Nakatsuji, X. Li, M. Caricato, A. V. Marenich, 
 J. Bloino, B. G. Janesko, R. Gomperts, B. Mennucci, H. P. Hratchian, 
 J. V. Ortiz, A. F. Izmaylov, J. L. Sonnenberg, D. Williams-Young, 
 F. Ding, F. Lipparini, F. Egidi, J. Goings, B. Peng, A. Petrone, 
 T. Henderson, D. Ranasinghe, V. G. Zakrzewski, J. Gao, N. Rega, 
 G. Zheng, W. Liang, M. Hada, M. Ehara, K. Toyota, R. Fukuda, 
 J. Hasegawa, M. Ishida, T. Nakajima, Y. Honda, O. Kitao, H. Nakai, 
 T. Vreven, K. Throssell, J. A. Montgomery, Jr., J. E. Peralta, 
 F. Ogliaro, M. J. Bearpark, J. J. Heyd, E. N. Brothers, K. N. Kudin, 
 V. N. Staroverov, T. A. Keith, R. Kobayashi, J. Normand, 
 K. Raghavachari, A. P. Rendell, J. C. Burant, S. S. Iyengar, 
 J. Tomasi, M. Cossi, J. M. Millam, M. Klene, C. Adamo, R. Cammi, 
 J. W. Ochterski, R. L. Martin, K. Morokuma, O. Farkas, 
 J. B. Foresman, and D. J. Fox, Gaussian, Inc., Wallingford CT, 2016.
 
 ******************************************
 Gaussian 16:  EM64L-G16RevA.03 25-Dec-2016
                21-Jan-2018 
 ******************************************
 %nprocshared=32
 Will use up to   32 processors via shared memory.
 %mem=32GB
 %chk=allatoms_t.chk
 ---------------------------------------
 #p wb97xd/cc-pvdz sp scf=(maxcycles=20)
 ---------------------------------------
 1/38=1,172=1/1;
 2/12=2,17=6,18=5,40=1/2;
 3/5=16,11=2,25=1,30=1,74=-58/1,2,3;
 4//1;
 5/5=2,7=20,38=5/2;
 6/7=2,8=2,9=2,10=2,28=1/1;
 99/5=1,9=1/99;
 Leave Link    1 at Sun Jan 21 09:24:08 2018, MaxMem=  4294967296 cpu:               2.7 elap:               0.1
 (Enter /share/apps/g16/l101.exe)
 ------------------
 Base pair stacking
 ------------------
 Symbolic Z-matrix:
 Charge =  0 Multiplicity = 1
 N                     2.60533   4.47155  -7.01607 
 C                     3.09853   5.86204  -6.98018 
 C                     1.34914   2.67635  -6.82482 
 N                     2.55718   2.24978  -7.35719 
 C                     3.26563   3.34839  -7.4511 
 H                     4.28531   3.39772  -7.83421 
 N                    -0.85078   2.71283  -5.97515 
 C                    -0.68901   4.03135  -5.8238 
 H                    -1.5461    4.56046  -5.40943 
 N                     0.36757   4.79084  -6.10612 
 C                     1.36389   4.0434   -6.60922 
 C                     0.17011   1.98891  -6.48387 
 N                     0.01054   0.67261  -6.63571 
 H                     0.73961   0.09748  -7.00842 
 H                    -0.84272   0.21672  -6.38223 
 H                     3.33329   6.15789  -7.90622 
 H                     2.3873    6.45933  -6.61072 
 H                     3.91078   5.91492  -6.39927 
 N                     0.77432   4.7924   -3.21403 
 C                    -0.13258   3.77243  -3.05515 
 C                     0.46037   6.23338  -3.13838 
 N                    -3.38209   2.70304  -2.45613 
 H                    -3.86942   1.83409  -2.37445 
 H                    -3.92167   3.53804  -2.34501 
 N                    -1.45225   3.91409  -2.80525 
 C                    -2.06425   2.74759  -2.70354 
 N                    -1.43393   1.53407  -2.83609 
 H                    -1.9816    0.69246  -2.74274 
 C                    -0.0771    1.36455  -3.0933 
 O                     0.39268   0.22449  -3.1948 
 C                     0.59369   2.6089   -3.20518 
 N                     1.92966   2.89268  -3.45325 
 C                     1.9894    4.19676  -3.44948 
 H                     2.89789   4.77723  -3.61371 
 H                     0.6891    6.67208  -4.00673 
 H                    -0.5145    6.35069  -2.95363 
 H                     0.99082   6.65363  -2.40297 
 H                    -5.37139  -3.09669  -2.80876 
 H                    -4.85203  -3.31264  -1.13895 
 H                    -4.85347  -1.70282  -1.85995 
 H                    -1.19469  -5.38978  -3.47474 
 C                    -1.55801  -4.39099  -3.23258 
 O                     0.49892  -3.32105  -3.73397 
 C                    -0.67368  -3.27351  -3.36311 
 H                    -0.63911  -1.24282  -3.11125 
 N                    -1.23328  -2.05605  -3.03162 
 O                    -2.92117  -0.70733  -2.33221 
 C                    -2.51616  -1.82425  -2.60263 
 H                    -3.5268   -5.01284  -2.70065 
 C                    -2.81489  -4.19669  -2.81653 
 C                    -4.68678  -2.75312  -2.04763 
 N                    -3.30773  -2.95143  -2.5022 
 H                    -7.8937   -0.28831  -3.95705 
 H                    -6.63563   0.4633   -3.23981 
 H                    -7.2687   -0.88509  -2.57261 
 H                    -1.50913  -2.66436  -6.89934 
 H                    -2.8735   -3.67202  -6.71712 
 N                    -2.43264  -2.79192  -6.53741 
 C                    -3.04975  -1.83174  -5.84575 
 C                    -4.85322  -0.8778   -4.62132 
 N                    -4.23685   0.29413  -4.39526 
 H                    -2.45155   1.21338  -4.80549 
 C                    -3.02289   0.29624  -4.94225 
 N                    -2.40303  -0.66444  -5.63537 
 H                    -7.21861  -3.07837  -4.50058 
 C                    -6.29385  -2.52987  -4.68196 
 N                    -5.26712  -2.99956  -5.34745 
 C                    -4.3466   -1.96205  -5.3165 
 C                    -7.05263  -0.42424  -3.43349 
 N                    -6.11198  -1.25135  -4.21392 
 
 ITRead=  0  0  0  0  0  0  0  0  0  0  0  0  0  0  0  0  0  0  0  0
 ITRead=  0  0  0  0  0  0  0  0  0  0  0  0  0  0  0  0  0  0  0  0
 ITRead=  0  0  0  0  0  0  0  0  0  0  0  0  0  0  0  0  0  0  0  0
 ITRead=  0  0  0  0  0  0  0  0  0  0
 MicOpt= -1 -1 -1 -1 -1 -1 -1 -1 -1 -1 -1 -1 -1 -1 -1 -1 -1 -1 -1 -1
 MicOpt= -1 -1 -1 -1 -1 -1 -1 -1 -1 -1 -1 -1 -1 -1 -1 -1 -1 -1 -1 -1
 MicOpt= -1 -1 -1 -1 -1 -1 -1 -1 -1 -1 -1 -1 -1 -1 -1 -1 -1 -1 -1 -1
 MicOpt= -1 -1 -1 -1 -1 -1 -1 -1 -1 -1
 NAtoms=     70 NQM=       70 NQMF=       0 NMMI=      0 NMMIF=      0
                NMic=       0 NMicF=      0.
                    Isotopes and Nuclear Properties:
 (Nuclear quadrupole moments (NQMom) in fm**2, nuclear magnetic moments (NMagM)
  in nuclear magnetons)

  Atom         1           2           3           4           5           6           7           8           9          10
 IAtWgt=          14          12          12          14          12           1          14          12           1          14
 AtmWgt=  14.0030740  12.0000000  12.0000000  14.0030740  12.0000000   1.0078250  14.0030740  12.0000000   1.0078250  14.0030740
 NucSpn=           2           0           0           2           0           1           2           0           1           2
 AtZEff=  -0.0000000  -0.0000000  -0.0000000  -0.0000000  -0.0000000  -0.0000000  -0.0000000  -0.0000000  -0.0000000  -0.0000000
 NQMom=    2.0440000   0.0000000   0.0000000   2.0440000   0.0000000   0.0000000   2.0440000   0.0000000   0.0000000   2.0440000
 NMagM=    0.4037610   0.0000000   0.0000000   0.4037610   0.0000000   2.7928460   0.4037610   0.0000000   2.7928460   0.4037610
 AtZNuc=   7.0000000   6.0000000   6.0000000   7.0000000   6.0000000   1.0000000   7.0000000   6.0000000   1.0000000   7.0000000

  Atom        11          12          13          14          15          16          17          18          19          20
 IAtWgt=          12          12          14           1           1           1           1           1          14          12
 AtmWgt=  12.0000000  12.0000000  14.0030740   1.0078250   1.0078250   1.0078250   1.0078250   1.0078250  14.0030740  12.0000000
 NucSpn=           0           0           2           1           1           1           1           1           2           0
 AtZEff=  -0.0000000  -0.0000000  -0.0000000  -0.0000000  -0.0000000  -0.0000000  -0.0000000  -0.0000000  -0.0000000  -0.0000000
 NQMom=    0.0000000   0.0000000   2.0440000   0.0000000   0.0000000   0.0000000   0.0000000   0.0000000   2.0440000   0.0000000
 NMagM=    0.0000000   0.0000000   0.4037610   2.7928460   2.7928460   2.7928460   2.7928460   2.7928460   0.4037610   0.0000000
 AtZNuc=   6.0000000   6.0000000   7.0000000   1.0000000   1.0000000   1.0000000   1.0000000   1.0000000   7.0000000   6.0000000

  Atom        21          22          23          24          25          26          27          28          29          30
 IAtWgt=          12          14           1           1          14          12          14           1          12          16
 AtmWgt=  12.0000000  14.0030740   1.0078250   1.0078250  14.0030740  12.0000000  14.0030740   1.0078250  12.0000000  15.9949146
 NucSpn=           0           2           1           1           2           0           2           1           0           0
 AtZEff=  -0.0000000  -0.0000000  -0.0000000  -0.0000000  -0.0000000  -0.0000000  -0.0000000  -0.0000000  -0.0000000  -0.0000000
 NQMom=    0.0000000   2.0440000   0.0000000   0.0000000   2.0440000   0.0000000   2.0440000   0.0000000   0.0000000   0.0000000
 NMagM=    0.0000000   0.4037610   2.7928460   2.7928460   0.4037610   0.0000000   0.4037610   2.7928460   0.0000000   0.0000000
 AtZNuc=   6.0000000   7.0000000   1.0000000   1.0000000   7.0000000   6.0000000   7.0000000   1.0000000   6.0000000   8.0000000

  Atom        31          32          33          34          35          36          37          38          39          40
 IAtWgt=          12          14          12           1           1           1           1           1           1           1
 AtmWgt=  12.0000000  14.0030740  12.0000000   1.0078250   1.0078250   1.0078250   1.0078250   1.0078250   1.0078250   1.0078250
 NucSpn=           0           2           0           1           1           1           1           1           1           1
 AtZEff=  -0.0000000  -0.0000000  -0.0000000  -0.0000000  -0.0000000  -0.0000000  -0.0000000  -0.0000000  -0.0000000  -0.0000000
 NQMom=    0.0000000   2.0440000   0.0000000   0.0000000   0.0000000   0.0000000   0.0000000   0.0000000   0.0000000   0.0000000
 NMagM=    0.0000000   0.4037610   0.0000000   2.7928460   2.7928460   2.7928460   2.7928460   2.7928460   2.7928460   2.7928460
 AtZNuc=   6.0000000   7.0000000   6.0000000   1.0000000   1.0000000   1.0000000   1.0000000   1.0000000   1.0000000   1.0000000

  Atom        41          42          43          44          45          46          47          48          49          50
 IAtWgt=           1          12          16          12           1          14          16          12           1          12
 AtmWgt=   1.0078250  12.0000000  15.9949146  12.0000000   1.0078250  14.0030740  15.9949146  12.0000000   1.0078250  12.0000000
 NucSpn=           1           0           0           0           1           2           0           0           1           0
 AtZEff=  -0.0000000  -0.0000000  -0.0000000  -0.0000000  -0.0000000  -0.0000000  -0.0000000  -0.0000000  -0.0000000  -0.0000000
 NQMom=    0.0000000   0.0000000   0.0000000   0.0000000   0.0000000   2.0440000   0.0000000   0.0000000   0.0000000   0.0000000
 NMagM=    2.7928460   0.0000000   0.0000000   0.0000000   2.7928460   0.4037610   0.0000000   0.0000000   2.7928460   0.0000000
 AtZNuc=   1.0000000   6.0000000   8.0000000   6.0000000   1.0000000   7.0000000   8.0000000   6.0000000   1.0000000   6.0000000

  Atom        51          52          53          54          55          56          57          58          59          60
 IAtWgt=          12          14           1           1           1           1           1          14          12          12
 AtmWgt=  12.0000000  14.0030740   1.0078250   1.0078250   1.0078250   1.0078250   1.0078250  14.0030740  12.0000000  12.0000000
 NucSpn=           0           2           1           1           1           1           1           2           0           0
 AtZEff=  -0.0000000  -0.0000000  -0.0000000  -0.0000000  -0.0000000  -0.0000000  -0.0000000  -0.0000000  -0.0000000  -0.0000000
 NQMom=    0.0000000   2.0440000   0.0000000   0.0000000   0.0000000   0.0000000   0.0000000   2.0440000   0.0000000   0.0000000
 NMagM=    0.0000000   0.4037610   2.7928460   2.7928460   2.7928460   2.7928460   2.7928460   0.4037610   0.0000000   0.0000000
 AtZNuc=   6.0000000   7.0000000   1.0000000   1.0000000   1.0000000   1.0000000   1.0000000   7.0000000   6.0000000   6.0000000

  Atom        61          62          63          64          65          66          67          68          69          70
 IAtWgt=          14           1          12          14           1          12          14          12          12          14
 AtmWgt=  14.0030740   1.0078250  12.0000000  14.0030740   1.0078250  12.0000000  14.0030740  12.0000000  12.0000000  14.0030740
 NucSpn=           2           1           0           2           1           0           2           0           0           2
 AtZEff=  -0.0000000  -0.0000000  -0.0000000  -0.0000000  -0.0000000  -0.0000000  -0.0000000  -0.0000000  -0.0000000  -0.0000000
 NQMom=    2.0440000   0.0000000   0.0000000   2.0440000   0.0000000   0.0000000   2.0440000   0.0000000   0.0000000   2.0440000
 NMagM=    0.4037610   2.7928460   0.0000000   0.4037610   2.7928460   0.0000000   0.4037610   0.0000000   0.0000000   0.4037610
 AtZNuc=   7.0000000   1.0000000   6.0000000   7.0000000   1.0000000   6.0000000   7.0000000   6.0000000   6.0000000   7.0000000
 Leave Link  101 at Sun Jan 21 09:24:08 2018, MaxMem=  4294967296 cpu:               7.3 elap:               0.3
 (Enter /share/apps/g16/l202.exe)
 Stoichiometry    C23H27N17O3
 Framework group  C1[X(C23H27N17O3)]
 Deg. of freedom   204
 Full point group                 C1      NOp   1
 Largest Abelian subgroup         C1      NOp   1
 Largest concise Abelian subgroup C1      NOp   1
                         Standard orientation:                         
 ---------------------------------------------------------------------
 Center     Atomic      Atomic             Coordinates (Angstroms)
 Number     Number       Type             X           Y           Z
 ---------------------------------------------------------------------
      1          7           0        5.775560   -1.334917   -1.047285
      2          6           0        7.126059   -0.739870   -1.038971
      3          6           0        3.595827   -1.611106   -1.146359
      4          7           0        4.138669   -2.873429   -0.955039
      5          6           0        5.430142   -2.656509   -0.903008
      6          1           0        6.183714   -3.431474   -0.759788
      7          7           0        2.073131    0.162268   -1.461730
      8          6           0        3.138338    0.969502   -1.497480
      9          1           0        2.916589    2.025827   -1.643316
     10          7           0        4.430266    0.669219   -1.380673
     11          6           0        4.592527   -0.652644   -1.205236
     12          6           0        2.269662   -1.162422   -1.283840
     13          7           0        1.207606   -1.969830   -1.247879
     14          1           0        1.306010   -2.957120   -1.118242
     15          1           0        0.277885   -1.615590   -1.349228
     16          1           0        7.669842   -1.133607   -1.780227
     17          1           0        7.056204    0.248978   -1.167047
     18          1           0        7.571105   -0.930325   -0.163949
     19          7           0        4.148729    1.785900    1.303240
     20          6           0        2.778718    1.771158    1.198831
     21          6           0        5.019226    2.926712    0.954679
     22          7           0       -0.192351    3.369592    0.374515
     23          1           0       -1.169042    3.156728    0.374282
     24          1           0        0.073289    4.281763    0.061308
     25          7           0        2.003839    2.788179    0.763770
     26          6           0        0.720882    2.472794    0.776583
     27          7           0        0.232100    1.255144    1.183920
     28          1           0       -0.764384    1.102109    1.160165
     29          6           0        1.010905    0.194239    1.635391
     30          8           0        0.470003   -0.863775    1.980013
     31          6           0        2.391467    0.518069    1.627299
     32          7           0        3.496122   -0.238657    1.993343
     33          6           0        4.513494    0.552344    1.784830
     34          1           0        5.555133    0.285255    1.966274
     35          1           0        5.655806    2.654370    0.233982
     36          1           0        4.456297    3.686094    0.631082
     37          1           0        5.533339    3.214664    1.761888
     38          1           0       -5.744481    0.750261    0.197084
     39          1           0       -5.890083    1.083180    1.921207
     40          1           0       -4.546258    1.763213    1.003028
     41          1           0       -4.702062   -3.577846    2.021218
     42          6           0       -4.226280   -2.608193    1.874150
     43          8           0       -2.027347   -3.428789    2.218307
     44          6           0       -2.802538   -2.504475    1.974361
     45          1           0       -1.301207   -1.120776    1.833954
     46          7           0       -2.303208   -1.233796    1.771157
     47          8           0       -2.487559    0.985653    1.327026
     48          6           0       -3.020495   -0.097718    1.491210
     49          1           0       -6.038330   -1.543466    1.515530
     50          6           0       -4.952895   -1.517917    1.602257
     51          6           0       -5.195304    0.907248    1.113495
     52          7           0       -4.387237   -0.278677    1.410734
     53          1           0       -5.014387    3.533676   -2.502394
     54          1           0       -3.787567    3.576652   -1.427612
     55          1           0       -5.326163    3.425928   -0.904072
     56          1           0       -2.212814   -3.275532   -1.579744
     57          1           0       -3.867285   -2.990897   -1.882725
     58          7           0       -2.960409   -2.619088   -1.681318
     59          6           0       -2.758102   -1.306061   -1.554058
     60          6           0       -3.410347    0.982088   -1.527856
     61          7           0       -2.181742    1.452949   -1.257199
     62          1           0       -0.284914    0.746542   -0.935266
     63          6           0       -1.310183    0.451573   -1.154576
     64          7           0       -1.510853   -0.864147   -1.281701
     65          1           0       -6.583218    1.096168   -2.137800
     66          6           0       -5.552117    0.790758   -1.957551
     67          7           0       -5.131515   -0.450512   -1.958761
     68          6           0       -3.775147   -0.343410   -1.687583
     69          6           0       -4.682335    3.178904   -1.628398
     70          7           0       -4.563394    1.709820   -1.703576
 ---------------------------------------------------------------------
 Rotational constants (GHZ):           0.1610171           0.0550051           0.0517238
 Leave Link  202 at Sun Jan 21 09:24:08 2018, MaxMem=  4294967296 cpu:               0.4 elap:               0.0
 (Enter /share/apps/g16/l301.exe)
 Standard basis: CC-pVDZ (5D, 7F)
 Ernie: Thresh=  0.10000D-02 Tol=  0.10000D-05 Strict=F.
 Ernie:  86 primitive shells out of 1081 were deleted.
 There are   780 symmetry adapted cartesian basis functions of A   symmetry.
 There are   737 symmetry adapted basis functions of A   symmetry.
   737 basis functions,  1608 primitive gaussians,   780 cartesian basis functions
   154 alpha electrons      154 beta electrons
       nuclear repulsion energy      5615.7894220436 Hartrees.
 IExCor= 4639 DFT=T Ex+Corr=wB97XD ExCW=0 ScaHFX=  1.000000
 ScaDFX=  1.000000  1.000000  1.000000  1.000000 ScalE2=  1.000000  1.000000
 IRadAn=      5 IRanWt=     -1 IRanGd=            0 ICorTp=0 IEmpDi=121
 HFx  wShort=  0.000000 wLong=  0.200000 cFull=  0.222036 cShort=  0.000000 cLong=  0.777964
 DFx  wShort=  0.000000 wLong=  0.200000 cFull=  0.000000 cShort=  0.000000 cLong=  1.000000
 NAtoms=   70 NActive=   70 NUniq=   70 SFac= 1.00D+00 NAtFMM=   60 NAOKFM=T Big=T
 Integral buffers will be    131072 words long.
 Raffenetti 2 integral format.
 Two-electron integral symmetry is turned on.
 R6Disp:  Grimme-D2 Dispersion energy=       -0.0787919007 Hartrees.
 Nuclear repulsion after empirical dispersion term =     5615.7106301429 Hartrees.
 Leave Link  301 at Sun Jan 21 09:24:08 2018, MaxMem=  4294967296 cpu:               2.8 elap:               0.1
 (Enter /share/apps/g16/l302.exe)
 NPDir=0 NMtPBC=     1 NCelOv=     1 NCel=       1 NClECP=     1 NCelD=      1
         NCelK=      1 NCelE2=     1 NClLst=     1 CellRange=     0.0.
 One-electron integrals computed using PRISM.
 One-electron integral symmetry used in STVInt
 NBasis=   737 RedAO= T EigKep=  6.71D-04  NBF=   737
 NBsUse=   737 1.00D-06 EigRej= -1.00D+00 NBFU=   737
 Precomputing XC quadrature grid using
 IXCGrd= 4 IRadAn=           5 IRanWt=          -1 IRanGd=           0 AccXCQ= 0.00D+00.
 Generated NRdTot=       0 NPtTot=           0 NUsed=           0 NTot=          32
 NSgBfM=   770   770   770   770   770 MxSgAt=    70 MxSgA2=    70.
 Leave Link  302 at Sun Jan 21 09:24:13 2018, MaxMem=  4294967296 cpu:             136.9 elap:               4.3
 (Enter /share/apps/g16/l303.exe)
 DipDrv:  MaxL=1.
 Leave Link  303 at Sun Jan 21 09:24:13 2018, MaxMem=  4294967296 cpu:              18.8 elap:               0.7
 (Enter /share/apps/g16/l401.exe)
 ExpMin= 1.22D-01 ExpMax= 1.17D+04 ExpMxC= 4.01D+02 IAcc=3 IRadAn=         5 AccDes= 0.00D+00
 Harris functional with IExCor= 4639 and IRadAn=       5 diagonalized for initial guess.
 HarFok:  IExCor= 4639 AccDes= 0.00D+00 IRadAn=         5 IDoV= 1 UseB2=F ITyADJ=14
 ICtDFT=  3500011 ScaDFX=  1.000000  1.000000  1.000000  1.000000
 FoFCou: FMM=F IPFlag=           0 FMFlag=      100000 FMFlg1=        2001
         NFxFlg=           0 DoJE=T BraDBF=F KetDBF=T FulRan=T
         wScrn=  0.000000 ICntrl=       500 IOpCl=  0 I1Cent=   200000004 NGrid=           0
         NMat0=    1 NMatS0=      1 NMatT0=    0 NMatD0=    1 NMtDS0=    0 NMtDT0=    0
 Petite list used in FoFCou.
 Harris En= -1963.86671362043    
 JPrj=0 DoOrth=F DoCkMO=F.
 Leave Link  401 at Sun Jan 21 09:24:26 2018, MaxMem=  4294967296 cpu:             414.0 elap:              13.0
 (Enter /share/apps/g16/l502.exe)
 Integral symmetry usage will be decided dynamically.
 Closed shell SCF:
 Using DIIS extrapolation, IDIIS=  1040.
 NGot=  4294967296 LenX=  4293717438 LenY=  4293108258
 Requested convergence on RMS density matrix=1.00D-08 within  20 cycles.
 Requested convergence on MAX density matrix=1.00D-06.
 Requested convergence on             energy=1.00D-06.
 No special actions if energy rises.
 Fock matrices will be formed incrementally for  20 cycles.
 Integral accuracy reduced to 1.0D-05 until final iterations.

 Cycle   1  Pass 0  IDiag  1:
 FoFJK:  IHMeth= 1 ICntrl=       0 DoSepK=T KAlg= 0 I1Cent=           0 FoldK=F
 IRaf=         1 NMat=       1 IRICut=       1 DoRegI=T DoRafI=F ISym2E= 0 IDoP0=0 IntGTp=1.
 FoFCou: FMM=T IPFlag=           0 FMFlag=      100000 FMFlg1=        2001
         NFxFlg=           0 DoJE=T BraDBF=F KetDBF=F FulRan=T
         wScrn=  0.000000 ICntrl=       500 IOpCl=  0 I1Cent=           0 NGrid=           0
         NMat0=    1 NMatS0=      1 NMatT0=    0 NMatD0=    1 NMtDS0=    0 NMtDT0=    0
 Symmetry not used in FoFCou.
 FMM levels:  10  Number of levels for PrismC:   9
 E= -2048.30721311134    
 DIIS: error= 1.88D-02 at cycle   1 NSaved=   1.
 NSaved= 1 IEnMin= 1 EnMin= -2048.30721311134     IErMin= 1 ErrMin= 1.88D-02
 ErrMax= 1.88D-02  0.00D+00 EMaxC= 1.00D-01 BMatC= 8.29D-01 BMatP= 8.29D-01
 IDIUse=3 WtCom= 8.12D-01 WtEn= 1.88D-01
 Coeff-Com:  0.100D+01
 Coeff-En:   0.100D+01
 Coeff:      0.100D+01
 Gap=     0.255 Goal=   None    Shift=    0.000
 GapD=    0.255 DampG=1.000 DampE=0.500 DampFc=0.5000 IDamp=-1.
 Damping current iteration by 5.00D-01
 RMSDP=1.57D-03 MaxDP=1.31D-01              OVMax= 1.80D-01

 Cycle   2  Pass 0  IDiag  1:
 RMSU=  7.85D-04    CP:  9.98D-01
 E= -2048.50295102528     Delta-E=       -0.195737913936 Rises=F Damp=T
 DIIS: error= 1.04D-02 at cycle   2 NSaved=   2.
 NSaved= 2 IEnMin= 2 EnMin= -2048.50295102528     IErMin= 2 ErrMin= 1.04D-02
 ErrMax= 1.04D-02  0.00D+00 EMaxC= 1.00D-01 BMatC= 1.45D-01 BMatP= 8.29D-01
 IDIUse=3 WtCom= 8.96D-01 WtEn= 1.04D-01
 Coeff-Com: -0.197D+00 0.120D+01
 Coeff-En:   0.000D+00 0.100D+01
 Coeff:     -0.177D+00 0.118D+01
 Gap=     0.312 Goal=   None    Shift=    0.000
 RMSDP=5.92D-04 MaxDP=3.60D-02 DE=-1.96D-01 OVMax= 1.22D-01

 Cycle   3  Pass 0  IDiag  1:
 RMSU=  5.82D-04    CP:  9.94D-01  1.13D+00
 E= -2048.67918602771     Delta-E=       -0.176235002429 Rises=F Damp=F
 DIIS: error= 6.30D-03 at cycle   3 NSaved=   3.
 NSaved= 3 IEnMin= 3 EnMin= -2048.67918602771     IErMin= 3 ErrMin= 6.30D-03
 ErrMax= 6.30D-03  0.00D+00 EMaxC= 1.00D-01 BMatC= 6.55D-02 BMatP= 1.45D-01
 IDIUse=3 WtCom= 9.37D-01 WtEn= 6.30D-02
 Coeff-Com: -0.235D+00 0.557D+00 0.678D+00
 Coeff-En:   0.000D+00 0.000D+00 0.100D+01
 Coeff:     -0.220D+00 0.522D+00 0.698D+00
 Gap=     0.283 Goal=   None    Shift=    0.000
 RMSDP=3.65D-04 MaxDP=3.45D-02 DE=-1.76D-01 OVMax= 6.82D-02

 Cycle   4  Pass 0  IDiag  1:
 RMSU=  2.06D-04    CP:  9.95D-01  1.42D+00  6.65D-01
 E= -2048.72886373359     Delta-E=       -0.049677705885 Rises=F Damp=F
 DIIS: error= 2.41D-03 at cycle   4 NSaved=   4.
 NSaved= 4 IEnMin= 4 EnMin= -2048.72886373359     IErMin= 4 ErrMin= 2.41D-03
 ErrMax= 2.41D-03  0.00D+00 EMaxC= 1.00D-01 BMatC= 9.11D-03 BMatP= 6.55D-02
 IDIUse=3 WtCom= 9.76D-01 WtEn= 2.41D-02
 Coeff-Com: -0.992D-01 0.192D+00 0.375D+00 0.532D+00
 Coeff-En:   0.000D+00 0.000D+00 0.569D-01 0.943D+00
 Coeff:     -0.968D-01 0.188D+00 0.367D+00 0.542D+00
 Gap=     0.285 Goal=   None    Shift=    0.000
 RMSDP=1.28D-04 MaxDP=1.14D-02 DE=-4.97D-02 OVMax= 1.53D-02

 Cycle   5  Pass 0  IDiag  1:
 RMSU=  6.26D-05    CP:  9.94D-01  1.40D+00  7.96D-01  6.19D-01
 E= -2048.73640224766     Delta-E=       -0.007538514070 Rises=F Damp=F
 DIIS: error= 4.17D-04 at cycle   5 NSaved=   5.
 NSaved= 5 IEnMin= 5 EnMin= -2048.73640224766     IErMin= 5 ErrMin= 4.17D-04
 ErrMax= 4.17D-04  0.00D+00 EMaxC= 1.00D-01 BMatC= 2.95D-04 BMatP= 9.11D-03
 IDIUse=3 WtCom= 9.96D-01 WtEn= 4.17D-03
 Coeff-Com: -0.263D-01 0.454D-01 0.122D+00 0.239D+00 0.621D+00
 Coeff-En:   0.000D+00 0.000D+00 0.000D+00 0.000D+00 0.100D+01
 Coeff:     -0.262D-01 0.452D-01 0.121D+00 0.238D+00 0.622D+00
 Gap=     0.284 Goal=   None    Shift=    0.000
 RMSDP=2.68D-05 MaxDP=1.73D-03 DE=-7.54D-03 OVMax= 3.36D-03

 Failed to achieve initial convergence to 1.0D-08 in  6 cycles.
 Switch to full accuracy anyway.
 Cycle   6  Pass 1  IDiag  1:
 E= -2048.73660007145     Delta-E=       -0.000197823791 Rises=F Damp=F
 DIIS: error= 3.09D-04 at cycle   1 NSaved=   1.
 NSaved= 1 IEnMin= 1 EnMin= -2048.73660007145     IErMin= 1 ErrMin= 3.09D-04
 ErrMax= 3.09D-04  0.00D+00 EMaxC= 1.00D-01 BMatC= 7.93D-05 BMatP= 7.93D-05
 IDIUse=3 WtCom= 9.97D-01 WtEn= 3.09D-03
 Coeff-Com:  0.100D+01
 Coeff-En:   0.100D+01
 Coeff:      0.100D+01
 Gap=     0.284 Goal=   None    Shift=    0.000
 RMSDP=2.68D-05 MaxDP=1.73D-03 DE=-1.98D-04 OVMax= 2.22D-03

 Cycle   7  Pass 1  IDiag  1:
 RMSU=  1.19D-04    CP:  1.00D+00
 E= -2048.73665823824     Delta-E=       -0.000058166781 Rises=F Damp=F
 DIIS: error= 1.68D-04 at cycle   2 NSaved=   2.
 NSaved= 2 IEnMin= 2 EnMin= -2048.73665823824     IErMin= 2 ErrMin= 1.68D-04
 ErrMax= 1.68D-04  0.00D+00 EMaxC= 1.00D-01 BMatC= 4.52D-05 BMatP= 7.93D-05
 IDIUse=3 WtCom= 9.98D-01 WtEn= 1.68D-03
 Coeff-Com:  0.405D+00 0.595D+00
 Coeff-En:   0.000D+00 0.100D+01
 Coeff:      0.405D+00 0.595D+00
 Gap=     0.285 Goal=   None    Shift=    0.000
 RMSDP=1.19D-05 MaxDP=9.89D-04 DE=-5.82D-05 OVMax= 1.65D-03

 Cycle   8  Pass 1  IDiag  1:
 RMSU=  1.16D-05    CP:  1.00D+00  1.02D+00
 E= -2048.73669136199     Delta-E=       -0.000033123752 Rises=F Damp=F
 DIIS: error= 9.42D-05 at cycle   3 NSaved=   3.
 NSaved= 3 IEnMin= 3 EnMin= -2048.73669136199     IErMin= 3 ErrMin= 9.42D-05
 ErrMax= 9.42D-05  0.00D+00 EMaxC= 1.00D-01 BMatC= 1.10D-05 BMatP= 4.52D-05
 IDIUse=1 WtCom= 1.00D+00 WtEn= 0.00D+00
 Coeff-Com: -0.197D-01 0.317D+00 0.702D+00
 Coeff:     -0.197D-01 0.317D+00 0.702D+00
 Gap=     0.285 Goal=   None    Shift=    0.000
 RMSDP=5.89D-06 MaxDP=4.38D-04 DE=-3.31D-05 OVMax= 6.35D-04

 Cycle   9  Pass 1  IDiag  1:
 RMSU=  4.01D-06    CP:  1.00D+00  1.05D+00  7.60D-01
 E= -2048.73670195504     Delta-E=       -0.000010593055 Rises=F Damp=F
 DIIS: error= 2.36D-05 at cycle   4 NSaved=   4.
 NSaved= 4 IEnMin= 4 EnMin= -2048.73670195504     IErMin= 4 ErrMin= 2.36D-05
 ErrMax= 2.36D-05  0.00D+00 EMaxC= 1.00D-01 BMatC= 5.52D-07 BMatP= 1.10D-05
 IDIUse=1 WtCom= 1.00D+00 WtEn= 0.00D+00
 Coeff-Com: -0.306D-01 0.896D-01 0.266D+00 0.675D+00
 Coeff:     -0.306D-01 0.896D-01 0.266D+00 0.675D+00
 Gap=     0.285 Goal=   None    Shift=    0.000
 RMSDP=1.50D-06 MaxDP=1.38D-04 DE=-1.06D-05 OVMax= 4.25D-04

 Cycle  10  Pass 1  IDiag  1:
 RMSU=  1.34D-06    CP:  1.00D+00  1.05D+00  7.97D-01  1.10D+00
 E= -2048.73670286150     Delta-E=       -0.000000906457 Rises=F Damp=F
 DIIS: error= 1.22D-05 at cycle   5 NSaved=   5.
 NSaved= 5 IEnMin= 5 EnMin= -2048.73670286150     IErMin= 5 ErrMin= 1.22D-05
 ErrMax= 1.22D-05  0.00D+00 EMaxC= 1.00D-01 BMatC= 1.29D-07 BMatP= 5.52D-07
 IDIUse=1 WtCom= 1.00D+00 WtEn= 0.00D+00
 Coeff-Com: -0.310D-02-0.574D-01-0.119D+00 0.205D+00 0.975D+00
 Coeff:     -0.310D-02-0.574D-01-0.119D+00 0.205D+00 0.975D+00
 Gap=     0.285 Goal=   None    Shift=    0.000
 RMSDP=1.27D-06 MaxDP=7.95D-05 DE=-9.06D-07 OVMax= 2.22D-04

 Cycle  11  Pass 1  IDiag  1:
 RMSU=  5.12D-07    CP:  1.00D+00  1.06D+00  8.11D-01  1.38D+00  1.18D+00
 E= -2048.73670314463     Delta-E=       -0.000000283135 Rises=F Damp=F
 DIIS: error= 5.40D-06 at cycle   6 NSaved=   6.
 NSaved= 6 IEnMin= 6 EnMin= -2048.73670314463     IErMin= 6 ErrMin= 5.40D-06
 ErrMax= 5.40D-06  0.00D+00 EMaxC= 1.00D-01 BMatC= 3.15D-08 BMatP= 1.29D-07
 IDIUse=1 WtCom= 1.00D+00 WtEn= 0.00D+00
 Coeff-Com:  0.469D-02-0.473D-01-0.116D+00-0.212D-02 0.525D+00 0.635D+00
 Coeff:      0.469D-02-0.473D-01-0.116D+00-0.212D-02 0.525D+00 0.635D+00
 Gap=     0.285 Goal=   None    Shift=    0.000
 RMSDP=3.97D-07 MaxDP=3.89D-05 DE=-2.83D-07 OVMax= 1.11D-04

 Cycle  12  Pass 1  IDiag  1:
 RMSU=  1.97D-07    CP:  1.00D+00  1.06D+00  8.13D-01  1.45D+00  1.31D+00
                    CP:  9.34D-01
 E= -2048.73670318999     Delta-E=       -0.000000045359 Rises=F Damp=F
 DIIS: error= 1.24D-06 at cycle   7 NSaved=   7.
 NSaved= 7 IEnMin= 7 EnMin= -2048.73670318999     IErMin= 7 ErrMin= 1.24D-06
 ErrMax= 1.24D-06  0.00D+00 EMaxC= 1.00D-01 BMatC= 8.98D-10 BMatP= 3.15D-08
 IDIUse=1 WtCom= 1.00D+00 WtEn= 0.00D+00
 Coeff-Com:  0.118D-02-0.834D-02-0.217D-01-0.863D-02 0.653D-01 0.145D+00
 Coeff-Com:  0.827D+00
 Coeff:      0.118D-02-0.834D-02-0.217D-01-0.863D-02 0.653D-01 0.145D+00
 Coeff:      0.827D+00
 Gap=     0.285 Goal=   None    Shift=    0.000
 RMSDP=8.78D-08 MaxDP=5.44D-06 DE=-4.54D-08 OVMax= 1.97D-05

 Cycle  13  Pass 1  IDiag  1:
 RMSU=  5.17D-08    CP:  1.00D+00  1.05D+00  8.13D-01  1.46D+00  1.33D+00
                    CP:  1.02D+00  1.14D+00
 E= -2048.73670319210     Delta-E=       -0.000000002104 Rises=F Damp=F
 DIIS: error= 6.85D-07 at cycle   8 NSaved=   8.
 NSaved= 8 IEnMin= 8 EnMin= -2048.73670319210     IErMin= 8 ErrMin= 6.85D-07
 ErrMax= 6.85D-07  0.00D+00 EMaxC= 1.00D-01 BMatC= 3.73D-10 BMatP= 8.98D-10
 IDIUse=1 WtCom= 1.00D+00 WtEn= 0.00D+00
 Coeff-Com: -0.717D-03 0.906D-02 0.213D-01-0.228D-02-0.114D+00-0.101D+00
 Coeff-Com:  0.423D+00 0.763D+00
 Coeff:     -0.717D-03 0.906D-02 0.213D-01-0.228D-02-0.114D+00-0.101D+00
 Coeff:      0.423D+00 0.763D+00
 Gap=     0.285 Goal=   None    Shift=    0.000
 RMSDP=5.11D-08 MaxDP=3.21D-06 DE=-2.10D-09 OVMax= 1.12D-05

 Cycle  14  Pass 1  IDiag  1:
 RMSU=  2.98D-08    CP:  1.00D+00  1.05D+00  8.13D-01  1.46D+00  1.34D+00
                    CP:  1.07D+00  1.29D+00  1.10D+00
 E= -2048.73670319252     Delta-E=       -0.000000000428 Rises=F Damp=F
 DIIS: error= 1.92D-07 at cycle   9 NSaved=   9.
 NSaved= 9 IEnMin= 9 EnMin= -2048.73670319252     IErMin= 9 ErrMin= 1.92D-07
 ErrMax= 1.92D-07  0.00D+00 EMaxC= 1.00D-01 BMatC= 3.99D-11 BMatP= 3.73D-10
 IDIUse=1 WtCom= 1.00D+00 WtEn= 0.00D+00
 Coeff-Com: -0.454D-03 0.502D-02 0.121D-01 0.260D-03-0.573D-01-0.614D-01
 Coeff-Com:  0.902D-01 0.325D+00 0.687D+00
 Coeff:     -0.454D-03 0.502D-02 0.121D-01 0.260D-03-0.573D-01-0.614D-01
 Coeff:      0.902D-01 0.325D+00 0.687D+00
 Gap=     0.285 Goal=   None    Shift=    0.000
 RMSDP=1.48D-08 MaxDP=9.21D-07 DE=-4.28D-10 OVMax= 3.22D-06

 Cycle  15  Pass 1  IDiag  1:
 RMSU=  9.98D-09    CP:  1.00D+00  1.05D+00  8.13D-01  1.46D+00  1.34D+00
                    CP:  1.07D+00  1.32D+00  1.25D+00  1.09D+00
 E= -2048.73670319267     Delta-E=       -0.000000000141 Rises=F Damp=F
 DIIS: error= 6.54D-08 at cycle  10 NSaved=  10.
 NSaved=10 IEnMin=10 EnMin= -2048.73670319267     IErMin=10 ErrMin= 6.54D-08
 ErrMax= 6.54D-08  0.00D+00 EMaxC= 1.00D-01 BMatC= 6.16D-12 BMatP= 3.99D-11
 IDIUse=1 WtCom= 1.00D+00 WtEn= 0.00D+00
 Coeff-Com: -0.621D-05-0.188D-03-0.356D-03 0.227D-03 0.397D-02-0.173D-03
 Coeff-Com: -0.536D-01-0.473D-01 0.261D+00 0.836D+00
 Coeff:     -0.621D-05-0.188D-03-0.356D-03 0.227D-03 0.397D-02-0.173D-03
 Coeff:     -0.536D-01-0.473D-01 0.261D+00 0.836D+00
 Gap=     0.285 Goal=   None    Shift=    0.000
 RMSDP=7.41D-09 MaxDP=4.14D-07 DE=-1.41D-10 OVMax= 1.47D-06

 SCF Done:  E(RwB97XD) =  -2048.73670319     A.U. after   15 cycles
            NFock= 15  Conv=0.74D-08     -V/T= 2.0053
 KE= 2.037895020612D+03 PE=-1.601212459783D+04 EE= 6.309782243879D+03
 Leave Link  502 at Sun Jan 21 09:36:33 2018, MaxMem=  4294967296 cpu:           22493.4 elap:             726.2
 (Enter /share/apps/g16/l601.exe)
 Copying SCF densities to generalized density rwf, IOpCl= 0 IROHF=0.

 **********************************************************************

            Population analysis using the SCF density.

 **********************************************************************

 Orbital symmetries:
       Occupied  (A) (A) (A) (A) (A) (A) (A) (A) (A) (A) (A) (A)
                 (A) (A) (A) (A) (A) (A) (A) (A) (A) (A) (A) (A)
                 (A) (A) (A) (A) (A) (A) (A) (A) (A) (A) (A) (A)
                 (A) (A) (A) (A) (A) (A) (A) (A) (A) (A) (A) (A)
                 (A) (A) (A) (A) (A) (A) (A) (A) (A) (A) (A) (A)
                 (A) (A) (A) (A) (A) (A) (A) (A) (A) (A) (A) (A)
                 (A) (A) (A) (A) (A) (A) (A) (A) (A) (A) (A) (A)
                 (A) (A) (A) (A) (A) (A) (A) (A) (A) (A) (A) (A)
                 (A) (A) (A) (A) (A) (A) (A) (A) (A) (A) (A) (A)
                 (A) (A) (A) (A) (A) (A) (A) (A) (A) (A) (A) (A)
                 (A) (A) (A) (A) (A) (A) (A) (A) (A) (A) (A) (A)
                 (A) (A) (A) (A) (A) (A) (A) (A) (A) (A) (A) (A)
                 (A) (A) (A) (A) (A) (A) (A) (A) (A) (A)
       Virtual   (A) (A) (A) (A) (A) (A) (A) (A) (A) (A) (A) (A)
                 (A) (A) (A) (A) (A) (A) (A) (A) (A) (A) (A) (A)
                 (A) (A) (A) (A) (A) (A) (A) (A) (A) (A) (A) (A)
                 (A) (A) (A) (A) (A) (A) (A) (A) (A) (A) (A) (A)
                 (A) (A) (A) (A) (A) (A) (A) (A) (A) (A) (A) (A)
                 (A) (A) (A) (A) (A) (A) (A) (A) (A) (A) (A) (A)
                 (A) (A) (A) (A) (A) (A) (A) (A) (A) (A) (A) (A)
                 (A) (A) (A) (A) (A) (A) (A) (A) (A) (A) (A) (A)
                 (A) (A) (A) (A) (A) (A) (A) (A) (A) (A) (A) (A)
                 (A) (A) (A) (A) (A) (A) (A) (A) (A) (A) (A) (A)
                 (A) (A) (A) (A) (A) (A) (A) (A) (A) (A) (A) (A)
                 (A) (A) (A) (A) (A) (A) (A) (A) (A) (A) (A) (A)
                 (A) (A) (A) (A) (A) (A) (A) (A) (A) (A) (A) (A)
                 (A) (A) (A) (A) (A) (A) (A) (A) (A) (A) (A) (A)
                 (A) (A) (A) (A) (A) (A) (A) (A) (A) (A) (A) (A)
                 (A) (A) (A) (A) (A) (A) (A) (A) (A) (A) (A) (A)
                 (A) (A) (A) (A) (A) (A) (A) (A) (A) (A) (A) (A)
                 (A) (A) (A) (A) (A) (A) (A) (A) (A) (A) (A) (A)
                 (A) (A) (A) (A) (A) (A) (A) (A) (A) (A) (A) (A)
                 (A) (A) (A) (A) (A) (A) (A) (A) (A) (A) (A) (A)
                 (A) (A) (A) (A) (A) (A) (A) (A) (A) (A) (A) (A)
                 (A) (A) (A) (A) (A) (A) (A) (A) (A) (A) (A) (A)
                 (A) (A) (A) (A) (A) (A) (A) (A) (A) (A) (A) (A)
                 (A) (A) (A) (A) (A) (A) (A) (A) (A) (A) (A) (A)
                 (A) (A) (A) (A) (A) (A) (A) (A) (A) (A) (A) (A)
                 (A) (A) (A) (A) (A) (A) (A) (A) (A) (A) (A) (A)
                 (A) (A) (A) (A) (A) (A) (A) (A) (A) (A) (A) (A)
                 (A) (A) (A) (A) (A) (A) (A) (A) (A) (A) (A) (A)
                 (A) (A) (A) (A) (A) (A) (A) (A) (A) (A) (A) (A)
                 (A) (A) (A) (A) (A) (A) (A) (A) (A) (A) (A) (A)
                 (A) (A) (A) (A) (A) (A) (A) (A) (A) (A) (A) (A)
                 (A) (A) (A) (A) (A) (A) (A) (A) (A) (A) (A) (A)
                 (A) (A) (A) (A) (A) (A) (A) (A) (A) (A) (A) (A)
                 (A) (A) (A) (A) (A) (A) (A) (A) (A) (A) (A) (A)
                 (A) (A) (A) (A) (A) (A) (A) (A) (A) (A) (A) (A)
                 (A) (A) (A) (A) (A) (A) (A) (A) (A) (A) (A) (A)
                 (A) (A) (A) (A) (A) (A) (A) (A) (A) (A) (A) (A)
                 (A) (A) (A) (A) (A) (A) (A) (A) (A) (A) (A) (A)
                 (A) (A) (A) (A) (A) (A) (A) (A) (A) (A) (A) (A)
                 (A) (A) (A) (A) (A) (A) (A) (A) (A) (A) (A) (A)
                 (A) (A) (A) (A) (A) (A) (A) (A) (A) (A) (A) (A)
                 (A) (A) (A) (A) (A) (A) (A) (A) (A) (A) (A) (A)
                 (A) (A) (A) (A) (A) (A) (A) (A) (A) (A) (A) (A)
                 (A) (A) (A) (A) (A) (A) (A) (A) (A) (A) (A) (A)
                 (A) (A) (A) (A) (A) (A) (A) (A) (A) (A) (A) (A)
                 (A) (A) (A) (A) (A) (A) (A) (A) (A) (A) (A) (A)
                 (A) (A) (A) (A) (A) (A) (A) (A) (A) (A) (A) (A)
                 (A) (A) (A) (A) (A) (A) (A) (A) (A) (A) (A) (A)
                 (A) (A) (A) (A) (A) (A) (A)
 The electronic state is 1-A.
 Alpha  occ. eigenvalues --  -19.25387 -19.21559 -19.20458 -14.52611 -14.51984
 Alpha  occ. eigenvalues --  -14.49091 -14.48206 -14.48163 -14.47398 -14.46611
 Alpha  occ. eigenvalues --  -14.46101 -14.45786 -14.44397 -14.44387 -14.42799
 Alpha  occ. eigenvalues --  -14.41725 -14.41640 -14.41370 -14.40628 -14.40522
 Alpha  occ. eigenvalues --  -10.44948 -10.40920 -10.40052 -10.39683 -10.38225
 Alpha  occ. eigenvalues --  -10.38005 -10.37368 -10.37341 -10.35817 -10.35697
 Alpha  occ. eigenvalues --  -10.34703 -10.34389 -10.34320 -10.33879 -10.33683
 Alpha  occ. eigenvalues --  -10.33328 -10.33012 -10.32874 -10.31513 -10.30642
 Alpha  occ. eigenvalues --  -10.30140 -10.28769 -10.27755  -1.19135  -1.15508
 Alpha  occ. eigenvalues --   -1.12970  -1.12602  -1.11639  -1.10228  -1.09408
 Alpha  occ. eigenvalues --   -1.08900  -1.08267  -1.05425  -1.04894  -1.02071
 Alpha  occ. eigenvalues --   -1.01263  -1.00909  -0.99328  -0.98314  -0.97333
 Alpha  occ. eigenvalues --   -0.96906  -0.96184  -0.93116  -0.90625  -0.87930
 Alpha  occ. eigenvalues --   -0.86276  -0.84316  -0.83701  -0.83358  -0.82713
 Alpha  occ. eigenvalues --   -0.81969  -0.78444  -0.77265  -0.75120  -0.74268
 Alpha  occ. eigenvalues --   -0.73371  -0.73233  -0.72966  -0.71427  -0.70634
 Alpha  occ. eigenvalues --   -0.67061  -0.66949  -0.66724  -0.66143  -0.64487
 Alpha  occ. eigenvalues --   -0.64163  -0.63456  -0.63138  -0.62501  -0.61490
 Alpha  occ. eigenvalues --   -0.61392  -0.60829  -0.60683  -0.59719  -0.59160
 Alpha  occ. eigenvalues --   -0.58453  -0.57952  -0.57269  -0.56949  -0.56244
 Alpha  occ. eigenvalues --   -0.55907  -0.55775  -0.55522  -0.54273  -0.54119
 Alpha  occ. eigenvalues --   -0.53980  -0.53735  -0.53377  -0.53214  -0.52805
 Alpha  occ. eigenvalues --   -0.52548  -0.52238  -0.52199  -0.51161  -0.50534
 Alpha  occ. eigenvalues --   -0.49941  -0.49761  -0.49243  -0.49089  -0.48646
 Alpha  occ. eigenvalues --   -0.48434  -0.48327  -0.48028  -0.47340  -0.47092
 Alpha  occ. eigenvalues --   -0.47032  -0.45671  -0.45052  -0.44578  -0.43216
 Alpha  occ. eigenvalues --   -0.41262  -0.40964  -0.39228  -0.37952  -0.37824
 Alpha  occ. eigenvalues --   -0.37738  -0.37084  -0.36921  -0.36056  -0.34775
 Alpha  occ. eigenvalues --   -0.34470  -0.33898  -0.33789  -0.33356  -0.32819
 Alpha  occ. eigenvalues --   -0.32408  -0.32278  -0.31871  -0.31632  -0.31043
 Alpha  occ. eigenvalues --   -0.30821  -0.29459  -0.25929  -0.25022
 Alpha virt. eigenvalues --    0.03436   0.03701   0.06895   0.07208   0.08598
 Alpha virt. eigenvalues --    0.08972   0.09974   0.10429   0.11150   0.12113
 Alpha virt. eigenvalues --    0.13064   0.13983   0.14071   0.14269   0.14874
 Alpha virt. eigenvalues --    0.15204   0.16181   0.17370   0.17863   0.18060
 Alpha virt. eigenvalues --    0.18833   0.19211   0.19498   0.20003   0.20436
 Alpha virt. eigenvalues --    0.20532   0.21116   0.21382   0.21420   0.22135
 Alpha virt. eigenvalues --    0.22471   0.23001   0.23551   0.24084   0.24154
 Alpha virt. eigenvalues --    0.24602   0.25052   0.25225   0.25330   0.25611
 Alpha virt. eigenvalues --    0.26198   0.27354   0.28017   0.28316   0.28623
 Alpha virt. eigenvalues --    0.29109   0.29588   0.29759   0.30368   0.30516
 Alpha virt. eigenvalues --    0.31291   0.31817   0.32883   0.33362   0.33392
 Alpha virt. eigenvalues --    0.34000   0.34427   0.35577   0.36344   0.36547
 Alpha virt. eigenvalues --    0.37054   0.37778   0.38334   0.38923   0.39039
 Alpha virt. eigenvalues --    0.40119   0.40391   0.40896   0.41536   0.41888
 Alpha virt. eigenvalues --    0.42277   0.42839   0.43170   0.43436   0.43886
 Alpha virt. eigenvalues --    0.44747   0.45803   0.46234   0.46801   0.47128
 Alpha virt. eigenvalues --    0.47501   0.48275   0.48964   0.49134   0.49195
 Alpha virt. eigenvalues --    0.49314   0.50234   0.51157   0.51482   0.51734
 Alpha virt. eigenvalues --    0.52016   0.52386   0.52841   0.53460   0.53720
 Alpha virt. eigenvalues --    0.53963   0.54700   0.55237   0.55481   0.55964
 Alpha virt. eigenvalues --    0.56316   0.56438   0.57152   0.57350   0.57750
 Alpha virt. eigenvalues --    0.58100   0.58374   0.58904   0.59322   0.59766
 Alpha virt. eigenvalues --    0.60285   0.60508   0.60921   0.61398   0.62058
 Alpha virt. eigenvalues --    0.62319   0.62646   0.63072   0.63713   0.64138
 Alpha virt. eigenvalues --    0.64488   0.64862   0.65090   0.65478   0.65699
 Alpha virt. eigenvalues --    0.65908   0.66309   0.66804   0.67182   0.67467
 Alpha virt. eigenvalues --    0.68663   0.68748   0.69245   0.69585   0.70188
 Alpha virt. eigenvalues --    0.70578   0.70903   0.71230   0.72116   0.73161
 Alpha virt. eigenvalues --    0.73394   0.73520   0.73696   0.74018   0.74380
 Alpha virt. eigenvalues --    0.74722   0.75401   0.75479   0.75668   0.75982
 Alpha virt. eigenvalues --    0.76191   0.76280   0.77010   0.77252   0.77766
 Alpha virt. eigenvalues --    0.78331   0.78626   0.79020   0.79220   0.79458
 Alpha virt. eigenvalues --    0.80095   0.80740   0.80834   0.80955   0.81190
 Alpha virt. eigenvalues --    0.81851   0.82083   0.82429   0.83290   0.83466
 Alpha virt. eigenvalues --    0.84091   0.84236   0.84981   0.85307   0.85379
 Alpha virt. eigenvalues --    0.85630   0.86270   0.86629   0.87205   0.87456
 Alpha virt. eigenvalues --    0.87940   0.88763   0.89206   0.89539   0.90560
 Alpha virt. eigenvalues --    0.90722   0.91275   0.91914   0.92455   0.92747
 Alpha virt. eigenvalues --    0.92989   0.93379   0.93981   0.94266   0.94742
 Alpha virt. eigenvalues --    0.95146   0.95498   0.96079   0.97391   0.97756
 Alpha virt. eigenvalues --    0.97947   0.98502   0.99236   0.99414   0.99713
 Alpha virt. eigenvalues --    1.00070   1.01078   1.01312   1.01881   1.02020
 Alpha virt. eigenvalues --    1.02371   1.03038   1.03346   1.04163   1.04452
 Alpha virt. eigenvalues --    1.04811   1.05274   1.05479   1.06159   1.06313
 Alpha virt. eigenvalues --    1.06899   1.07289   1.07921   1.08465   1.08799
 Alpha virt. eigenvalues --    1.08937   1.10230   1.10683   1.11209   1.12215
 Alpha virt. eigenvalues --    1.12390   1.13276   1.13887   1.14066   1.14616
 Alpha virt. eigenvalues --    1.14833   1.14982   1.15588   1.16769   1.16856
 Alpha virt. eigenvalues --    1.17187   1.17352   1.17877   1.18189   1.18292
 Alpha virt. eigenvalues --    1.18665   1.19097   1.19899   1.20345   1.20604
 Alpha virt. eigenvalues --    1.20800   1.21271   1.21670   1.21924   1.22228
 Alpha virt. eigenvalues --    1.22480   1.23195   1.23656   1.24083   1.24123
 Alpha virt. eigenvalues --    1.25157   1.25598   1.26156   1.26528   1.26875
 Alpha virt. eigenvalues --    1.27209   1.27888   1.28488   1.28952   1.29397
 Alpha virt. eigenvalues --    1.30157   1.31173   1.32314   1.32982   1.33527
 Alpha virt. eigenvalues --    1.33805   1.34117   1.34541   1.34983   1.35036
 Alpha virt. eigenvalues --    1.35957   1.36077   1.36627   1.37452   1.38307
 Alpha virt. eigenvalues --    1.38907   1.39578   1.40115   1.41158   1.41671
 Alpha virt. eigenvalues --    1.42727   1.43603   1.44362   1.45479   1.46374
 Alpha virt. eigenvalues --    1.47164   1.47364   1.47959   1.48967   1.49595
 Alpha virt. eigenvalues --    1.50864   1.51496   1.51659   1.52252   1.52789
 Alpha virt. eigenvalues --    1.53064   1.53697   1.54347   1.55661   1.55901
 Alpha virt. eigenvalues --    1.56656   1.57292   1.57617   1.57826   1.58299
 Alpha virt. eigenvalues --    1.59287   1.60238   1.61352   1.61703   1.61924
 Alpha virt. eigenvalues --    1.62377   1.63423   1.63711   1.64105   1.64627
 Alpha virt. eigenvalues --    1.65459   1.65766   1.66106   1.66995   1.67518
 Alpha virt. eigenvalues --    1.67574   1.68055   1.68387   1.69708   1.70175
 Alpha virt. eigenvalues --    1.70629   1.71474   1.71548   1.72109   1.72765
 Alpha virt. eigenvalues --    1.72943   1.73398   1.73540   1.74117   1.74702
 Alpha virt. eigenvalues --    1.74811   1.74899   1.75664   1.75881   1.76303
 Alpha virt. eigenvalues --    1.76798   1.77125   1.77489   1.77830   1.78074
 Alpha virt. eigenvalues --    1.78411   1.78543   1.79426   1.79739   1.79838
 Alpha virt. eigenvalues --    1.80153   1.80488   1.80781   1.81306   1.81724
 Alpha virt. eigenvalues --    1.81996   1.82367   1.82677   1.82815   1.83247
 Alpha virt. eigenvalues --    1.83900   1.83992   1.84728   1.84795   1.85399
 Alpha virt. eigenvalues --    1.86258   1.86449   1.87455   1.88242   1.88308
 Alpha virt. eigenvalues --    1.88588   1.89074   1.89637   1.90084   1.90428
 Alpha virt. eigenvalues --    1.91197   1.91798   1.92053   1.92374   1.92802
 Alpha virt. eigenvalues --    1.93386   1.94168   1.94494   1.94791   1.95809
 Alpha virt. eigenvalues --    1.96355   1.97837   1.98339   1.98374   1.99433
 Alpha virt. eigenvalues --    1.99729   2.00584   2.01130   2.02015   2.02060
 Alpha virt. eigenvalues --    2.02875   2.03328   2.03875   2.04312   2.04973
 Alpha virt. eigenvalues --    2.05803   2.06464   2.07240   2.07663   2.08493
 Alpha virt. eigenvalues --    2.08639   2.09106   2.10266   2.10821   2.11639
 Alpha virt. eigenvalues --    2.12205   2.13042   2.13628   2.14648   2.14897
 Alpha virt. eigenvalues --    2.15702   2.16050   2.17478   2.17798   2.18707
 Alpha virt. eigenvalues --    2.19243   2.19786   2.20156   2.20656   2.22163
 Alpha virt. eigenvalues --    2.22864   2.22953   2.24013   2.24704   2.25049
 Alpha virt. eigenvalues --    2.25744   2.26100   2.26802   2.27195   2.28133
 Alpha virt. eigenvalues --    2.28581   2.28730   2.29371   2.30338   2.30993
 Alpha virt. eigenvalues --    2.31167   2.31952   2.32145   2.32501   2.33907
 Alpha virt. eigenvalues --    2.33982   2.34249   2.34749   2.35293   2.35447
 Alpha virt. eigenvalues --    2.35984   2.36668   2.37158   2.37439   2.38177
 Alpha virt. eigenvalues --    2.39203   2.40017   2.40270   2.41324   2.41680
 Alpha virt. eigenvalues --    2.42381   2.43503   2.43717   2.44253   2.44562
 Alpha virt. eigenvalues --    2.45354   2.45638   2.46091   2.46674   2.46801
 Alpha virt. eigenvalues --    2.49067   2.49536   2.50103   2.52159   2.52433
 Alpha virt. eigenvalues --    2.53342   2.54497   2.55030   2.56773   2.57660
 Alpha virt. eigenvalues --    2.58073   2.59048   2.59641   2.60364   2.61400
 Alpha virt. eigenvalues --    2.61951   2.63264   2.63706   2.64384   2.64615
 Alpha virt. eigenvalues --    2.65471   2.66289   2.66380   2.66794   2.68194
 Alpha virt. eigenvalues --    2.68600   2.69166   2.69636   2.70324   2.70816
 Alpha virt. eigenvalues --    2.71386   2.72109   2.72276   2.72568   2.73092
 Alpha virt. eigenvalues --    2.73623   2.75193   2.75848   2.76636   2.77436
 Alpha virt. eigenvalues --    2.78003   2.79331   2.79809   2.79960   2.80387
 Alpha virt. eigenvalues --    2.80917   2.81215   2.81519   2.82365   2.82734
 Alpha virt. eigenvalues --    2.83168   2.83238   2.83709   2.84820   2.85931
 Alpha virt. eigenvalues --    2.86372   2.86717   2.87069   2.87542   2.87779
 Alpha virt. eigenvalues --    2.88941   2.88967   2.90533   2.93679   2.94496
 Alpha virt. eigenvalues --    2.95507   2.98413   2.98939   2.99688   3.00398
 Alpha virt. eigenvalues --    3.01910   3.02868   3.04010   3.05955   3.08129
 Alpha virt. eigenvalues --    3.09244   3.10442   3.11010   3.13642   3.15414
 Alpha virt. eigenvalues --    3.15628   3.16472   3.17073   3.19274   3.22710
 Alpha virt. eigenvalues --    3.22902   3.23525   3.23921   3.24118   3.28333
 Alpha virt. eigenvalues --    3.44790   3.47510   3.48813   3.49677   3.50960
 Alpha virt. eigenvalues --    3.53271   3.54742   3.56535   3.58253   3.60626
 Alpha virt. eigenvalues --    3.63913   3.71071   3.75318
          Condensed to atoms (all electrons):
 Mulliken charges:
               1
     1  N   -0.311625
     2  C    0.176623
     3  C    0.073539
     4  N   -0.258651
     5  C    0.135804
     6  H    0.027094
     7  N   -0.286169
     8  C    0.143865
     9  H    0.013209
    10  N   -0.284938
    11  C    0.232967
    12  C    0.092358
    13  N   -0.052438
    14  H    0.108985
    15  H    0.084531
    16  H    0.028071
    17  H    0.032094
    18  H    0.026059
    19  N   -0.273762
    20  C    0.204062
    21  C    0.182807
    22  N   -0.101548
    23  H    0.112708
    24  H    0.113409
    25  N   -0.292857
    26  C    0.213776
    27  N   -0.142482
    28  H    0.123795
    29  C    0.175717
    30  O   -0.322741
    31  C    0.003275
    32  N   -0.219669
    33  C    0.120082
    34  H    0.014343
    35  H    0.020431
    36  H    0.026284
    37  H    0.020260
    38  H    0.049061
    39  H    0.058255
    40  H    0.069951
    41  H    0.026341
    42  C   -0.111410
    43  O   -0.267542
    44  C    0.172649
    45  H    0.130873
    46  N   -0.119945
    47  O   -0.332007
    48  C    0.331771
    49  H    0.045867
    50  C    0.171599
    51  C    0.046546
    52  N   -0.278650
    53  H    0.037290
    54  H    0.036840
    55  H    0.024467
    56  H    0.124224
    57  H    0.118815
    58  N   -0.061514
    59  C    0.100000
    60  C    0.209794
    61  N   -0.259601
    62  H    0.049202
    63  C    0.137508
    64  N   -0.296912
    65  H    0.039196
    66  C    0.105971
    67  N   -0.249290
    68  C    0.040105
    69  C    0.182380
    70  N   -0.291104
 Sum of Mulliken charges =  -0.00000
 Mulliken charges with hydrogens summed into heavy atoms:
               1
     1  N   -0.311625
     2  C    0.262847
     3  C    0.073539
     4  N   -0.258651
     5  C    0.162898
     7  N   -0.286169
     8  C    0.157074
    10  N   -0.284938
    11  C    0.232967
    12  C    0.092358
    13  N    0.141078
    19  N   -0.273762
    20  C    0.204062
    21  C    0.249782
    22  N    0.124569
    25  N   -0.292857
    26  C    0.213776
    27  N   -0.018686
    29  C    0.175717
    30  O   -0.322741
    31  C    0.003275
    32  N   -0.219669
    33  C    0.134424
    42  C   -0.085069
    43  O   -0.267542
    44  C    0.172649
    46  N    0.010928
    47  O   -0.332007
    48  C    0.331771
    50  C    0.217466
    51  C    0.223813
    52  N   -0.278650
    58  N    0.181525
    59  C    0.100000
    60  C    0.209794
    61  N   -0.259601
    63  C    0.186710
    64  N   -0.296912
    66  C    0.145168
    67  N   -0.249290
    68  C    0.040105
    69  C    0.280977
    70  N   -0.291104
 Electronic spatial extent (au):  <R**2>=          21675.9406
 Charge=             -0.0000 electrons
 Dipole moment (field-independent basis, Debye):
    X=             -6.5645    Y=              6.5016    Z=             -3.7427  Tot=              9.9685
 Quadrupole moment (field-independent basis, Debye-Ang):
   XX=           -148.1576   YY=           -226.9859   ZZ=           -258.4767
   XY=             -7.9185   XZ=              0.7870   YZ=             12.2717
 Traceless Quadrupole moment (field-independent basis, Debye-Ang):
   XX=             63.0491   YY=            -15.7791   ZZ=            -47.2700
   XY=             -7.9185   XZ=              0.7870   YZ=             12.2717
 Octapole moment (field-independent basis, Debye-Ang**2):
  XXX=             80.9329  YYY=             94.8428  ZZZ=             -9.3646  XYY=            -76.7375
  XXY=             60.2717  XXZ=             13.0848  XZZ=            -34.9619  YZZ=             31.2688
  YYZ=            -69.8767  XYZ=             37.5708
 Hexadecapole moment (field-independent basis, Debye-Ang**3):
 XXXX=         -15528.8299 YYYY=          -4534.2260 ZZZZ=          -3500.8878 XXXY=           -586.3702
 XXXZ=           -155.3569 YYYX=            -25.1752 YYYZ=            112.6831 ZZZX=             -7.0063
 ZZZY=             33.8259 XXYY=          -3614.8091 XXZZ=          -3894.2028 YYZZ=          -1419.3923
 XXYZ=            -53.4796 YYXZ=            188.2278 ZZXY=            -39.6469
 N-N= 5.615710630143D+03 E-N=-1.601212459520D+04  KE= 2.037895020612D+03
 No NMR shielding tensors so no spin-rotation constants.
 Leave Link  601 at Sun Jan 21 09:36:34 2018, MaxMem=  4294967296 cpu:              45.9 elap:               1.6
 (Enter /share/apps/g16/l9999.exe)
 1\1\GINC-COMPUTE-0-3\SP\RwB97XD\CC-pVDZ\C23H27N17O3\SATYA\21-Jan-2018\
 0\\#p wb97xd/cc-pvdz sp scf=(maxcycles=20)\\Base pair stacking\\0,1\N,
 0,2.60533,4.47155,-7.01607\C,0,3.09853,5.86204,-6.98018\C,0,1.34914,2.
 67635,-6.82482\N,0,2.55718,2.24978,-7.35719\C,0,3.26563,3.34839,-7.451
 1\H,0,4.28531,3.39772,-7.83421\N,0,-0.85078,2.71283,-5.97515\C,0,-0.68
 901,4.03135,-5.8238\H,0,-1.5461,4.56046,-5.40943\N,0,0.36757,4.79084,-
 6.10612\C,0,1.36389,4.0434,-6.60922\C,0,0.17011,1.98891,-6.48387\N,0,0
 .01054,0.67261,-6.63571\H,0,0.73961,0.09748,-7.00842\H,0,-0.84272,0.21
 672,-6.38223\H,0,3.33329,6.15789,-7.90622\H,0,2.3873,6.45933,-6.61072\
 H,0,3.91078,5.91492,-6.39927\N,0,0.77432,4.7924,-3.21403\C,0,-0.13258,
 3.77243,-3.05515\C,0,0.46037,6.23338,-3.13838\N,0,-3.38209,2.70304,-2.
 45613\H,0,-3.86942,1.83409,-2.37445\H,0,-3.92167,3.53804,-2.34501\N,0,
 -1.45225,3.91409,-2.80525\C,0,-2.06425,2.74759,-2.70354\N,0,-1.43393,1
 .53407,-2.83609\H,0,-1.9816,0.69246,-2.74274\C,0,-0.0771,1.36455,-3.09
 33\O,0,0.39268,0.22449,-3.1948\C,0,0.59369,2.6089,-3.20518\N,0,1.92966
 ,2.89268,-3.45325\C,0,1.9894,4.19676,-3.44948\H,0,2.89789,4.77723,-3.6
 1371\H,0,0.6891,6.67208,-4.00673\H,0,-0.5145,6.35069,-2.95363\H,0,0.99
 082,6.65363,-2.40297\H,0,-5.37139,-3.09669,-2.80876\H,0,-4.85203,-3.31
 264,-1.13895\H,0,-4.85347,-1.70282,-1.85995\H,0,-1.19469,-5.38978,-3.4
 7474\C,0,-1.55801,-4.39099,-3.23258\O,0,0.49892,-3.32105,-3.73397\C,0,
 -0.67368,-3.27351,-3.36311\H,0,-0.63911,-1.24282,-3.11125\N,0,-1.23328
 ,-2.05605,-3.03162\O,0,-2.92117,-0.70733,-2.33221\C,0,-2.51616,-1.8242
 5,-2.60263\H,0,-3.5268,-5.01284,-2.70065\C,0,-2.81489,-4.19669,-2.8165
 3\C,0,-4.68678,-2.75312,-2.04763\N,0,-3.30773,-2.95143,-2.5022\H,0,-7.
 8937,-0.28831,-3.95705\H,0,-6.63563,0.4633,-3.23981\H,0,-7.2687,-0.885
 09,-2.57261\H,0,-1.50913,-2.66436,-6.89934\H,0,-2.8735,-3.67202,-6.717
 12\N,0,-2.43264,-2.79192,-6.53741\C,0,-3.04975,-1.83174,-5.84575\C,0,-
 4.85322,-0.8778,-4.62132\N,0,-4.23685,0.29413,-4.39526\H,0,-2.45155,1.
 21338,-4.80549\C,0,-3.02289,0.29624,-4.94225\N,0,-2.40303,-0.66444,-5.
 63537\H,0,-7.21861,-3.07837,-4.50058\C,0,-6.29385,-2.52987,-4.68196\N,
 0,-5.26712,-2.99956,-5.34745\C,0,-4.3466,-1.96205,-5.3165\C,0,-7.05263
 ,-0.42424,-3.43349\N,0,-6.11198,-1.25135,-4.21392\\Version=EM64L-G16Re
 vA.03\State=1-A\HF=-2048.7367032\RMSD=7.411e-09\Dipole=-3.8989349,-0.0
 504784,0.420939\Quadrupole=6.0992819,12.6983124,-18.7975943,34.1632619
 ,-21.4124091,-1.3211056\PG=C01 [X(C23H27N17O3)]\\@


 NOBODY LOSES ALL THE TIME
 I HAD AN UNCLE NAMED
 SOL WHO WAS A BORN FAILURE AND
 NEARLY EVERYBODY SAID HE SHOULD HAVE GONE
 INTO VAUDEVILLE PERHAPS BECAUSE MY UNCLE SOL COULD
 SING MCCANN HE WAS A DIVER ON XMAS EVE LIKE HELL ITSELF WHICH
 MAY OR MAY NOT ACCOUNT FOR THE FACT THAT MY UNCLE
 SOL INDULGED IN THAT POSSIBLY MOST INEXCUSABLE
 OF ALL TO USE A HIGHFALOOTIN PHRASE
 LUXURIES THAT IS OR TO
 WIT FARMING AND BE
 IT NEEDLESSLY
 ADDED
 MY UNCLE SOL'S FARM     
 FAILED BECAUSE THE CHICKENS
 ATE THE VEGETABLES SO
 MY UNCLE SOL HAD A
 CHICKEN FARM TILL THE
 SKUNKS ATE THE CHICKENS WHEN 
 MY UNCLE SOL
 HAD A SKUNK FARM BUT
 THE SKUNKS CAUGHT COLD AND
 DIED AND SO
 MY UNCLE SOL IMITATED THE
 SKUNKS IN A SUBTLE MANNER
 OR BY DROWNING HIMSELF IN THE WATERTANK
 BUT SOMEBODY WHO'D GIVEN MY UNCLE SOL A VICTOR     
 VICTROLA AND RECORDS WHILE HE LIVED PRESENTED TO
 HIM UPON THE AUSPICIOUS OCCASION OF HIS DECEASE A
 SCRUMPTIOUS NOT TO MENTION SPLENDIFEROUS FUNERAL WITH
 TALL BOYS IN BLACK GLOVES AND FLOWERS AND EVERYTHING AND
 I REMEMBER WE ALL CRIED LIKE THE MISSOURI
 WHEN MY UNCLE SOL'S COFFIN LURCHED BECAUSE     
 SOMEBODY PRESSED A BUTTON
 (AND DOWN WENT
 MY UNCLE
 SOL
 AND STARTED A WORM FARM)
           E. E. CUMMINGS
 Job cpu time:       0 days  6 hours 25 minutes 24.8 seconds.
 Elapsed time:       0 days  0 hours 12 minutes 26.4 seconds.
 File lengths (MBytes):  RWF=    298 Int=      0 D2E=      0 Chk=     33 Scr=      1
 Normal termination of Gaussian 16 at Sun Jan 21 09:36:35 2018.
