 Entering Gaussian System, Link 0=g16
 Input=str30.-15.2.5.com
 Output=str30.-15.2.5.log
 Initial command:
 /share/apps/g16/l1.exe "/state/partition1/scr/Gau-24858.inp" -scrdir="/state/partition1/scr/"
 Entering Link 1 = /share/apps/g16/l1.exe PID=     24859.
  
 Copyright (c) 1988,1990,1992,1993,1995,1998,2003,2009,2016,
            Gaussian, Inc.  All Rights Reserved.
  
 This is part of the Gaussian(R) 16 program.  It is based on
 the Gaussian(R) 09 system (copyright 2009, Gaussian, Inc.),
 the Gaussian(R) 03 system (copyright 2003, Gaussian, Inc.),
 the Gaussian(R) 98 system (copyright 1998, Gaussian, Inc.),
 the Gaussian(R) 94 system (copyright 1995, Gaussian, Inc.),
 the Gaussian 92(TM) system (copyright 1992, Gaussian, Inc.),
 the Gaussian 90(TM) system (copyright 1990, Gaussian, Inc.),
 the Gaussian 88(TM) system (copyright 1988, Gaussian, Inc.),
 the Gaussian 86(TM) system (copyright 1986, Carnegie Mellon
 University), and the Gaussian 82(TM) system (copyright 1983,
 Carnegie Mellon University). Gaussian is a federally registered
 trademark of Gaussian, Inc.
  
 This software contains proprietary and confidential information,
 including trade secrets, belonging to Gaussian, Inc.
  
 This software is provided under written license and may be
 used, copied, transmitted, or stored only in accord with that
 written license.
  
 The following legend is applicable only to US Government
 contracts under FAR:
  
                    RESTRICTED RIGHTS LEGEND
  
 Use, reproduction and disclosure by the US Government is
 subject to restrictions as set forth in subparagraphs (a)
 and (c) of the Commercial Computer Software - Restricted
 Rights clause in FAR 52.227-19.
  
 Gaussian, Inc.
 340 Quinnipiac St., Bldg. 40, Wallingford CT 06492
  
  
 ---------------------------------------------------------------
 Warning -- This program may not be used in any manner that
 competes with the business of Gaussian, Inc. or will provide
 assistance to any competitor of Gaussian, Inc.  The licensee
 of this program is prohibited from giving any competitor of
 Gaussian, Inc. access to this program.  By using this program,
 the user acknowledges that Gaussian, Inc. is engaged in the
 business of creating and licensing software in the field of
 computational chemistry and represents and warrants to the
 licensee that it is not a competitor of Gaussian, Inc. and that
 it will not use this program in any manner prohibited above.
 ---------------------------------------------------------------
  

 Cite this work as:
 Gaussian 16, Revision A.03,
 M. J. Frisch, G. W. Trucks, H. B. Schlegel, G. E. Scuseria, 
 M. A. Robb, J. R. Cheeseman, G. Scalmani, V. Barone, 
 G. A. Petersson, H. Nakatsuji, X. Li, M. Caricato, A. V. Marenich, 
 J. Bloino, B. G. Janesko, R. Gomperts, B. Mennucci, H. P. Hratchian, 
 J. V. Ortiz, A. F. Izmaylov, J. L. Sonnenberg, D. Williams-Young, 
 F. Ding, F. Lipparini, F. Egidi, J. Goings, B. Peng, A. Petrone, 
 T. Henderson, D. Ranasinghe, V. G. Zakrzewski, J. Gao, N. Rega, 
 G. Zheng, W. Liang, M. Hada, M. Ehara, K. Toyota, R. Fukuda, 
 J. Hasegawa, M. Ishida, T. Nakajima, Y. Honda, O. Kitao, H. Nakai, 
 T. Vreven, K. Throssell, J. A. Montgomery, Jr., J. E. Peralta, 
 F. Ogliaro, M. J. Bearpark, J. J. Heyd, E. N. Brothers, K. N. Kudin, 
 V. N. Staroverov, T. A. Keith, R. Kobayashi, J. Normand, 
 K. Raghavachari, A. P. Rendell, J. C. Burant, S. S. Iyengar, 
 J. Tomasi, M. Cossi, J. M. Millam, M. Klene, C. Adamo, R. Cammi, 
 J. W. Ochterski, R. L. Martin, K. Morokuma, O. Farkas, 
 J. B. Foresman, and D. J. Fox, Gaussian, Inc., Wallingford CT, 2016.
 
 ******************************************
 Gaussian 16:  EM64L-G16RevA.03 25-Dec-2016
                21-Jan-2018 
 ******************************************
 %nprocshared=32
 Will use up to   32 processors via shared memory.
 %mem=32GB
 %chk=allatoms_t.chk
 ---------------------------------------
 #p wb97xd/cc-pvdz sp scf=(maxcycles=20)
 ---------------------------------------
 1/38=1,172=1/1;
 2/12=2,17=6,18=5,40=1/2;
 3/5=16,11=2,25=1,30=1,74=-58/1,2,3;
 4//1;
 5/5=2,7=20,38=5/2;
 6/7=2,8=2,9=2,10=2,28=1/1;
 99/5=1,9=1/99;
 Leave Link    1 at Sun Jan 21 13:10:32 2018, MaxMem=  4294967296 cpu:               2.7 elap:               0.1
 (Enter /share/apps/g16/l101.exe)
 ------------------
 Base pair stacking
 ------------------
 Symbolic Z-matrix:
 Charge =  0 Multiplicity = 1
 N                     0.27192   0.31347  -6.54156 
 C                     0.76512   1.70396  -6.50567 
 C                    -0.98427  -1.48173  -6.35031 
 N                     0.22377  -1.9083   -6.88268 
 C                     0.93222  -0.80968  -6.97659 
 H                     1.9519   -0.76036  -7.3597 
 N                    -3.1842   -1.44525  -5.50064 
 C                    -3.02243  -0.12673  -5.34928 
 H                    -3.87951   0.40239  -4.93492 
 N                    -1.96584   0.63276  -5.63161 
 C                    -0.96952  -0.11468  -6.13471 
 C                    -2.1633   -2.16917  -6.00936 
 N                    -2.32287  -3.48547  -6.1612 
 H                    -1.5938   -4.06059  -6.53391 
 H                    -3.17613  -3.94136  -5.90772 
 H                     0.99988   1.99981  -7.43171 
 H                     0.05389   2.30126  -6.13621 
 H                     1.57737   1.75684  -5.92476 
 N                     0.13824   2.39805  -3.13048 
 C                    -0.76867   1.37808  -2.9716 
 C                    -0.17571   3.83903  -3.05483 
 N                    -4.01818   0.30869  -2.37258 
 H                    -4.50551  -0.56026  -2.2909 
 H                    -4.55775   1.14369  -2.26146 
 N                    -2.08834   1.51974  -2.7217 
 C                    -2.70034   0.35324  -2.61999 
 N                    -2.07001  -0.86028  -2.75254 
 H                    -2.61769  -1.70189  -2.65919 
 C                    -0.71319  -1.0298   -3.00975 
 O                    -0.2434   -2.16986  -3.11125 
 C                    -0.0424    0.21455  -3.12163 
 N                     1.29358   0.49833  -3.3697 
 C                     1.35332   1.80241  -3.36593 
 H                     2.26181   2.38288  -3.53016 
 H                     0.05302   4.27773  -3.92318 
 H                    -1.15058   3.95634  -2.87008 
 H                     0.35473   4.25928  -2.31942 
 H                    -6.00748  -5.49104  -2.72522 
 H                    -5.48812  -5.70699  -1.0554 
 H                    -5.48955  -4.09717  -1.77641 
 H                    -1.83078  -7.78413  -3.3912 
 C                    -2.19409  -6.78534  -3.14903 
 O                    -0.13717  -5.7154   -3.65042 
 C                    -1.30977  -5.66786  -3.27956 
 H                    -1.27519  -3.63717  -3.0277 
 N                    -1.86937  -4.4504   -2.94807 
 O                    -3.55726  -3.10168  -2.24866 
 C                    -3.15225  -4.2186   -2.51908 
 H                    -4.16289  -7.40719  -2.6171 
 C                    -3.45098  -6.59104  -2.73298 
 C                    -5.32287  -5.14747  -1.96408 
 N                    -3.94381  -5.34578  -2.41865 
 H                    -10.22711  -4.44639  -3.48253 
 H                    -8.96904  -3.69478  -2.7653 
 H                    -9.60211  -5.04316  -2.0981 
 H                    -3.84254  -6.82244  -6.42483 
 H                    -5.20691  -7.8301   -6.24261 
 N                    -4.76605  -6.95     -6.0629 
 C                    -5.38316  -5.98982  -5.37124 
 C                    -7.18663  -5.03588  -4.14681 
 N                    -6.57026  -3.86395  -3.92074 
 H                    -4.78496  -2.9447   -4.33098 
 C                    -5.3563   -3.86183  -4.46774 
 N                    -4.73644  -4.82252  -5.16086 
 H                    -9.55202  -7.23644  -4.02607 
 C                    -8.62726  -6.68794  -4.20744 
 N                    -7.60053  -7.15764  -4.87294 
 C                    -6.68002  -6.12013  -4.84199 
 C                    -9.38604  -4.58231  -2.95898 
 N                    -8.44539  -5.40943  -3.73941 
 
 ITRead=  0  0  0  0  0  0  0  0  0  0  0  0  0  0  0  0  0  0  0  0
 ITRead=  0  0  0  0  0  0  0  0  0  0  0  0  0  0  0  0  0  0  0  0
 ITRead=  0  0  0  0  0  0  0  0  0  0  0  0  0  0  0  0  0  0  0  0
 ITRead=  0  0  0  0  0  0  0  0  0  0
 MicOpt= -1 -1 -1 -1 -1 -1 -1 -1 -1 -1 -1 -1 -1 -1 -1 -1 -1 -1 -1 -1
 MicOpt= -1 -1 -1 -1 -1 -1 -1 -1 -1 -1 -1 -1 -1 -1 -1 -1 -1 -1 -1 -1
 MicOpt= -1 -1 -1 -1 -1 -1 -1 -1 -1 -1 -1 -1 -1 -1 -1 -1 -1 -1 -1 -1
 MicOpt= -1 -1 -1 -1 -1 -1 -1 -1 -1 -1
 NAtoms=     70 NQM=       70 NQMF=       0 NMMI=      0 NMMIF=      0
                NMic=       0 NMicF=      0.
                    Isotopes and Nuclear Properties:
 (Nuclear quadrupole moments (NQMom) in fm**2, nuclear magnetic moments (NMagM)
  in nuclear magnetons)

  Atom         1           2           3           4           5           6           7           8           9          10
 IAtWgt=          14          12          12          14          12           1          14          12           1          14
 AtmWgt=  14.0030740  12.0000000  12.0000000  14.0030740  12.0000000   1.0078250  14.0030740  12.0000000   1.0078250  14.0030740
 NucSpn=           2           0           0           2           0           1           2           0           1           2
 AtZEff=  -0.0000000  -0.0000000  -0.0000000  -0.0000000  -0.0000000  -0.0000000  -0.0000000  -0.0000000  -0.0000000  -0.0000000
 NQMom=    2.0440000   0.0000000   0.0000000   2.0440000   0.0000000   0.0000000   2.0440000   0.0000000   0.0000000   2.0440000
 NMagM=    0.4037610   0.0000000   0.0000000   0.4037610   0.0000000   2.7928460   0.4037610   0.0000000   2.7928460   0.4037610
 AtZNuc=   7.0000000   6.0000000   6.0000000   7.0000000   6.0000000   1.0000000   7.0000000   6.0000000   1.0000000   7.0000000

  Atom        11          12          13          14          15          16          17          18          19          20
 IAtWgt=          12          12          14           1           1           1           1           1          14          12
 AtmWgt=  12.0000000  12.0000000  14.0030740   1.0078250   1.0078250   1.0078250   1.0078250   1.0078250  14.0030740  12.0000000
 NucSpn=           0           0           2           1           1           1           1           1           2           0
 AtZEff=  -0.0000000  -0.0000000  -0.0000000  -0.0000000  -0.0000000  -0.0000000  -0.0000000  -0.0000000  -0.0000000  -0.0000000
 NQMom=    0.0000000   0.0000000   2.0440000   0.0000000   0.0000000   0.0000000   0.0000000   0.0000000   2.0440000   0.0000000
 NMagM=    0.0000000   0.0000000   0.4037610   2.7928460   2.7928460   2.7928460   2.7928460   2.7928460   0.4037610   0.0000000
 AtZNuc=   6.0000000   6.0000000   7.0000000   1.0000000   1.0000000   1.0000000   1.0000000   1.0000000   7.0000000   6.0000000

  Atom        21          22          23          24          25          26          27          28          29          30
 IAtWgt=          12          14           1           1          14          12          14           1          12          16
 AtmWgt=  12.0000000  14.0030740   1.0078250   1.0078250  14.0030740  12.0000000  14.0030740   1.0078250  12.0000000  15.9949146
 NucSpn=           0           2           1           1           2           0           2           1           0           0
 AtZEff=  -0.0000000  -0.0000000  -0.0000000  -0.0000000  -0.0000000  -0.0000000  -0.0000000  -0.0000000  -0.0000000  -0.0000000
 NQMom=    0.0000000   2.0440000   0.0000000   0.0000000   2.0440000   0.0000000   2.0440000   0.0000000   0.0000000   0.0000000
 NMagM=    0.0000000   0.4037610   2.7928460   2.7928460   0.4037610   0.0000000   0.4037610   2.7928460   0.0000000   0.0000000
 AtZNuc=   6.0000000   7.0000000   1.0000000   1.0000000   7.0000000   6.0000000   7.0000000   1.0000000   6.0000000   8.0000000

  Atom        31          32          33          34          35          36          37          38          39          40
 IAtWgt=          12          14          12           1           1           1           1           1           1           1
 AtmWgt=  12.0000000  14.0030740  12.0000000   1.0078250   1.0078250   1.0078250   1.0078250   1.0078250   1.0078250   1.0078250
 NucSpn=           0           2           0           1           1           1           1           1           1           1
 AtZEff=  -0.0000000  -0.0000000  -0.0000000  -0.0000000  -0.0000000  -0.0000000  -0.0000000  -0.0000000  -0.0000000  -0.0000000
 NQMom=    0.0000000   2.0440000   0.0000000   0.0000000   0.0000000   0.0000000   0.0000000   0.0000000   0.0000000   0.0000000
 NMagM=    0.0000000   0.4037610   0.0000000   2.7928460   2.7928460   2.7928460   2.7928460   2.7928460   2.7928460   2.7928460
 AtZNuc=   6.0000000   7.0000000   6.0000000   1.0000000   1.0000000   1.0000000   1.0000000   1.0000000   1.0000000   1.0000000

  Atom        41          42          43          44          45          46          47          48          49          50
 IAtWgt=           1          12          16          12           1          14          16          12           1          12
 AtmWgt=   1.0078250  12.0000000  15.9949146  12.0000000   1.0078250  14.0030740  15.9949146  12.0000000   1.0078250  12.0000000
 NucSpn=           1           0           0           0           1           2           0           0           1           0
 AtZEff=  -0.0000000  -0.0000000  -0.0000000  -0.0000000  -0.0000000  -0.0000000  -0.0000000  -0.0000000  -0.0000000  -0.0000000
 NQMom=    0.0000000   0.0000000   0.0000000   0.0000000   0.0000000   2.0440000   0.0000000   0.0000000   0.0000000   0.0000000
 NMagM=    2.7928460   0.0000000   0.0000000   0.0000000   2.7928460   0.4037610   0.0000000   0.0000000   2.7928460   0.0000000
 AtZNuc=   1.0000000   6.0000000   8.0000000   6.0000000   1.0000000   7.0000000   8.0000000   6.0000000   1.0000000   6.0000000

  Atom        51          52          53          54          55          56          57          58          59          60
 IAtWgt=          12          14           1           1           1           1           1          14          12          12
 AtmWgt=  12.0000000  14.0030740   1.0078250   1.0078250   1.0078250   1.0078250   1.0078250  14.0030740  12.0000000  12.0000000
 NucSpn=           0           2           1           1           1           1           1           2           0           0
 AtZEff=  -0.0000000  -0.0000000  -0.0000000  -0.0000000  -0.0000000  -0.0000000  -0.0000000  -0.0000000  -0.0000000  -0.0000000
 NQMom=    0.0000000   2.0440000   0.0000000   0.0000000   0.0000000   0.0000000   0.0000000   2.0440000   0.0000000   0.0000000
 NMagM=    0.0000000   0.4037610   2.7928460   2.7928460   2.7928460   2.7928460   2.7928460   0.4037610   0.0000000   0.0000000
 AtZNuc=   6.0000000   7.0000000   1.0000000   1.0000000   1.0000000   1.0000000   1.0000000   7.0000000   6.0000000   6.0000000

  Atom        61          62          63          64          65          66          67          68          69          70
 IAtWgt=          14           1          12          14           1          12          14          12          12          14
 AtmWgt=  14.0030740   1.0078250  12.0000000  14.0030740   1.0078250  12.0000000  14.0030740  12.0000000  12.0000000  14.0030740
 NucSpn=           2           1           0           2           1           0           2           0           0           2
 AtZEff=  -0.0000000  -0.0000000  -0.0000000  -0.0000000  -0.0000000  -0.0000000  -0.0000000  -0.0000000  -0.0000000  -0.0000000
 NQMom=    2.0440000   0.0000000   0.0000000   2.0440000   0.0000000   0.0000000   2.0440000   0.0000000   0.0000000   2.0440000
 NMagM=    0.4037610   2.7928460   0.0000000   0.4037610   2.7928460   0.0000000   0.4037610   0.0000000   0.0000000   0.4037610
 AtZNuc=   7.0000000   1.0000000   6.0000000   7.0000000   1.0000000   6.0000000   7.0000000   6.0000000   6.0000000   7.0000000
 Leave Link  101 at Sun Jan 21 13:10:33 2018, MaxMem=  4294967296 cpu:               7.7 elap:               0.3
 (Enter /share/apps/g16/l202.exe)
 Stoichiometry    C23H27N17O3
 Framework group  C1[X(C23H27N17O3)]
 Deg. of freedom   204
 Full point group                 C1      NOp   1
 Largest Abelian subgroup         C1      NOp   1
 Largest concise Abelian subgroup C1      NOp   1
                         Standard orientation:                         
 ---------------------------------------------------------------------
 Center     Atomic      Atomic             Coordinates (Angstroms)
 Number     Number       Type             X           Y           Z
 ---------------------------------------------------------------------
      1          7           0        4.304561   -1.251655   -1.883016
      2          6           0        5.661852   -0.686957   -2.012920
      3          6           0        2.124799   -1.473853   -1.691714
      4          7           0        2.646381   -2.759368   -1.703617
      5          6           0        3.938731   -2.574041   -1.818393
      6          1           0        4.678398   -3.374051   -1.861163
      7          7           0        0.633492    0.351641   -1.610864
      8          6           0        1.709453    1.137417   -1.722395
      9          1           0        1.505041    2.207169   -1.732050
     10          7           0        2.993992    0.801725   -1.823329
     11          6           0        3.134808   -0.533986   -1.801528
     12          6           0        0.808470   -0.987804   -1.591877
     13          7           0       -0.264350   -1.773832   -1.480603
     14          1           0       -0.181911   -2.770873   -1.462399
     15          1           0       -1.186542   -1.393107   -1.411676
     16          1           0        6.081176   -1.014923   -2.859557
     17          1           0        5.607944    0.310932   -2.033573
     18          1           0        6.220035   -0.972871   -1.234018
     19          7           0        5.596883    1.478384    0.739120
     20          6           0        4.226222    1.500979    0.833177
     21          6           0        6.447036    2.631165    0.379889
     22          7           0        1.223853    3.231797    0.605612
     23          1           0        0.250416    3.039163    0.726224
     24          1           0        1.472945    4.165406    0.346700
     25          7           0        3.432172    2.571456    0.614983
     26          6           0        2.154144    2.281517    0.782884
     27          7           0        1.687378    1.038936    1.137338
     28          1           0        0.693030    0.908570    1.243418
     29          6           0        2.486155   -0.076912    1.366888
     30          8           0        1.964306   -1.153383    1.682521
     31          6           0        3.861697    0.219047    1.190322
     32          7           0        4.980975   -0.592030    1.317924
     33          6           0        5.984517    0.195855    1.041613
     34          1           0        7.031750   -0.108396    1.043764
     35          1           0        6.965182    2.420083   -0.448227
     36          1           0        5.869802    3.430031    0.215936
     37          1           0        7.080056    2.826612    1.128147
     38          1           0       -4.382396    0.752501    0.981908
     39          1           0       -4.270197    0.913615    2.732943
     40          1           0       -3.048287    1.655892    1.699823
     41          1           0       -3.238091   -3.756274    2.209968
     42          6           0       -2.755561   -2.786250    2.089799
     43          8           0       -0.559021   -3.680046    2.031292
     44          6           0       -1.329352   -2.720950    1.992405
     45          1           0        0.182656   -1.359767    1.770274
     46          7           0       -0.821345   -1.446304    1.842564
     47          8           0       -0.991888    0.809675    1.645922
     48          6           0       -1.532360   -0.274074    1.780266
     49          1           0       -4.563195   -1.655700    2.101601
     50          6           0       -3.476212   -1.660202    2.032361
     51          6           0       -3.703585    0.806027    1.820011
     52          7           0       -2.901984   -0.419304    1.881393
     53          1           0       -6.412052    3.948319   -1.284660
     54          1           0       -5.044210    3.859294   -0.399697
     55          1           0       -6.496993    3.686936    0.324026
     56          1           0       -3.739338   -2.972554   -1.438246
     57          1           0       -5.409509   -2.626680   -1.469688
     58          7           0       -4.471184   -2.294744   -1.366759
     59          6           0       -4.208626   -1.005307   -1.144097
     60          6           0       -4.772889    1.280989   -0.803225
     61          7           0       -3.503100    1.698228   -0.669107
     62          1           0       -1.604720    0.926148   -0.694765
     63          6           0       -2.660110    0.674765   -0.790781
     64          7           0       -2.921128   -0.617402   -1.013804
     65          1           0       -7.994549    1.517673   -0.933623
     66          6           0       -6.959206    1.175633   -0.934809
     67          7           0       -6.585206   -0.067252   -1.116591
     68          6           0       -5.201240   -0.014415   -1.035545
     69          6           0       -5.971337    3.501262   -0.506272
     70          7           0       -5.913969    2.045075   -0.739191
 ---------------------------------------------------------------------
 Rotational constants (GHZ):           0.1646106           0.0514532           0.0484513
 Leave Link  202 at Sun Jan 21 13:10:33 2018, MaxMem=  4294967296 cpu:               0.4 elap:               0.0
 (Enter /share/apps/g16/l301.exe)
 Standard basis: CC-pVDZ (5D, 7F)
 Ernie: Thresh=  0.10000D-02 Tol=  0.10000D-05 Strict=F.
 Ernie:  86 primitive shells out of 1081 were deleted.
 There are   780 symmetry adapted cartesian basis functions of A   symmetry.
 There are   737 symmetry adapted basis functions of A   symmetry.
   737 basis functions,  1608 primitive gaussians,   780 cartesian basis functions
   154 alpha electrons      154 beta electrons
       nuclear repulsion energy      5556.1461333741 Hartrees.
 IExCor= 4639 DFT=T Ex+Corr=wB97XD ExCW=0 ScaHFX=  1.000000
 ScaDFX=  1.000000  1.000000  1.000000  1.000000 ScalE2=  1.000000  1.000000
 IRadAn=      5 IRanWt=     -1 IRanGd=            0 ICorTp=0 IEmpDi=121
 HFx  wShort=  0.000000 wLong=  0.200000 cFull=  0.222036 cShort=  0.000000 cLong=  0.777964
 DFx  wShort=  0.000000 wLong=  0.200000 cFull=  0.000000 cShort=  0.000000 cLong=  1.000000
 NAtoms=   70 NActive=   70 NUniq=   70 SFac= 1.00D+00 NAtFMM=   60 NAOKFM=T Big=T
 Integral buffers will be    131072 words long.
 Raffenetti 2 integral format.
 Two-electron integral symmetry is turned on.
 R6Disp:  Grimme-D2 Dispersion energy=       -0.0761052776 Hartrees.
 Nuclear repulsion after empirical dispersion term =     5556.0700280965 Hartrees.
 Leave Link  301 at Sun Jan 21 13:10:33 2018, MaxMem=  4294967296 cpu:               3.0 elap:               0.1
 (Enter /share/apps/g16/l302.exe)
 NPDir=0 NMtPBC=     1 NCelOv=     1 NCel=       1 NClECP=     1 NCelD=      1
         NCelK=      1 NCelE2=     1 NClLst=     1 CellRange=     0.0.
 One-electron integrals computed using PRISM.
 One-electron integral symmetry used in STVInt
 NBasis=   737 RedAO= T EigKep=  6.87D-04  NBF=   737
 NBsUse=   737 1.00D-06 EigRej= -1.00D+00 NBFU=   737
 Precomputing XC quadrature grid using
 IXCGrd= 4 IRadAn=           5 IRanWt=          -1 IRanGd=           0 AccXCQ= 0.00D+00.
 Generated NRdTot=       0 NPtTot=           0 NUsed=           0 NTot=          32
 NSgBfM=   763   763   763   763   763 MxSgAt=    70 MxSgA2=    70.
 Leave Link  302 at Sun Jan 21 13:10:37 2018, MaxMem=  4294967296 cpu:             136.9 elap:               4.3
 (Enter /share/apps/g16/l303.exe)
 DipDrv:  MaxL=1.
 Leave Link  303 at Sun Jan 21 13:10:38 2018, MaxMem=  4294967296 cpu:              13.1 elap:               0.5
 (Enter /share/apps/g16/l401.exe)
 ExpMin= 1.22D-01 ExpMax= 1.17D+04 ExpMxC= 4.01D+02 IAcc=3 IRadAn=         5 AccDes= 0.00D+00
 Harris functional with IExCor= 4639 and IRadAn=       5 diagonalized for initial guess.
 HarFok:  IExCor= 4639 AccDes= 0.00D+00 IRadAn=         5 IDoV= 1 UseB2=F ITyADJ=14
 ICtDFT=  3500011 ScaDFX=  1.000000  1.000000  1.000000  1.000000
 FoFCou: FMM=F IPFlag=           0 FMFlag=      100000 FMFlg1=        2001
         NFxFlg=           0 DoJE=T BraDBF=F KetDBF=T FulRan=T
         wScrn=  0.000000 ICntrl=       500 IOpCl=  0 I1Cent=   200000004 NGrid=           0
         NMat0=    1 NMatS0=      1 NMatT0=    0 NMatD0=    1 NMtDS0=    0 NMtDT0=    0
 Petite list used in FoFCou.
 Harris En= -1963.84755949407    
 JPrj=0 DoOrth=F DoCkMO=F.
 Leave Link  401 at Sun Jan 21 13:10:50 2018, MaxMem=  4294967296 cpu:             406.4 elap:              12.7
 (Enter /share/apps/g16/l502.exe)
 Integral symmetry usage will be decided dynamically.
 Closed shell SCF:
 Using DIIS extrapolation, IDIIS=  1040.
 NGot=  4294967296 LenX=  4293717438 LenY=  4293108258
 Requested convergence on RMS density matrix=1.00D-08 within  20 cycles.
 Requested convergence on MAX density matrix=1.00D-06.
 Requested convergence on             energy=1.00D-06.
 No special actions if energy rises.
 Fock matrices will be formed incrementally for  20 cycles.
 Integral accuracy reduced to 1.0D-05 until final iterations.

 Cycle   1  Pass 0  IDiag  1:
 FoFJK:  IHMeth= 1 ICntrl=       0 DoSepK=T KAlg= 0 I1Cent=           0 FoldK=F
 IRaf=         1 NMat=       1 IRICut=       1 DoRegI=T DoRafI=F ISym2E= 0 IDoP0=0 IntGTp=1.
 FoFCou: FMM=T IPFlag=           0 FMFlag=      100000 FMFlg1=        2001
         NFxFlg=           0 DoJE=T BraDBF=F KetDBF=F FulRan=T
         wScrn=  0.000000 ICntrl=       500 IOpCl=  0 I1Cent=           0 NGrid=           0
         NMat0=    1 NMatS0=      1 NMatT0=    0 NMatD0=    1 NMtDS0=    0 NMtDT0=    0
 Symmetry not used in FoFCou.
 FMM levels:  10  Number of levels for PrismC:   9
 E= -2048.28975215622    
 DIIS: error= 2.45D-02 at cycle   1 NSaved=   1.
 NSaved= 1 IEnMin= 1 EnMin= -2048.28975215622     IErMin= 1 ErrMin= 2.45D-02
 ErrMax= 2.45D-02  0.00D+00 EMaxC= 1.00D-01 BMatC= 8.30D-01 BMatP= 8.30D-01
 IDIUse=3 WtCom= 7.55D-01 WtEn= 2.45D-01
 Coeff-Com:  0.100D+01
 Coeff-En:   0.100D+01
 Coeff:      0.100D+01
 Gap=     0.268 Goal=   None    Shift=    0.000
 GapD=    0.268 DampG=1.000 DampE=0.500 DampFc=0.5000 IDamp=-1.
 Damping current iteration by 5.00D-01
 RMSDP=1.56D-03 MaxDP=1.29D-01              OVMax= 2.08D-01

 Cycle   2  Pass 0  IDiag  1:
 RMSU=  7.80D-04    CP:  9.98D-01
 E= -2048.48795978660     Delta-E=       -0.198207630378 Rises=F Damp=T
 DIIS: error= 1.21D-02 at cycle   2 NSaved=   2.
 NSaved= 2 IEnMin= 2 EnMin= -2048.48795978660     IErMin= 2 ErrMin= 1.21D-02
 ErrMax= 1.21D-02  0.00D+00 EMaxC= 1.00D-01 BMatC= 1.44D-01 BMatP= 8.30D-01
 IDIUse=3 WtCom= 8.79D-01 WtEn= 1.21D-01
 Coeff-Com: -0.209D+00 0.121D+01
 Coeff-En:   0.000D+00 0.100D+01
 Coeff:     -0.184D+00 0.118D+01
 Gap=     0.288 Goal=   None    Shift=    0.000
 RMSDP=5.89D-04 MaxDP=3.55D-02 DE=-1.98D-01 OVMax= 1.54D-01

 Cycle   3  Pass 0  IDiag  1:
 RMSU=  5.70D-04    CP:  9.94D-01  1.18D+00
 E= -2048.66706325614     Delta-E=       -0.179103469537 Rises=F Damp=F
 DIIS: error= 7.13D-03 at cycle   3 NSaved=   3.
 NSaved= 3 IEnMin= 3 EnMin= -2048.66706325614     IErMin= 3 ErrMin= 7.13D-03
 ErrMax= 7.13D-03  0.00D+00 EMaxC= 1.00D-01 BMatC= 6.04D-02 BMatP= 1.44D-01
 IDIUse=3 WtCom= 9.29D-01 WtEn= 7.13D-02
 Coeff-Com: -0.233D+00 0.549D+00 0.684D+00
 Coeff-En:   0.000D+00 0.000D+00 0.100D+01
 Coeff:     -0.216D+00 0.510D+00 0.706D+00
 Gap=     0.283 Goal=   None    Shift=    0.000
 RMSDP=3.47D-04 MaxDP=3.53D-02 DE=-1.79D-01 OVMax= 6.89D-02

 Cycle   4  Pass 0  IDiag  1:
 RMSU=  2.01D-04    CP:  9.94D-01  1.45D+00  6.74D-01
 E= -2048.71197419345     Delta-E=       -0.044910937316 Rises=F Damp=F
 DIIS: error= 2.89D-03 at cycle   4 NSaved=   4.
 NSaved= 4 IEnMin= 4 EnMin= -2048.71197419345     IErMin= 4 ErrMin= 2.89D-03
 ErrMax= 2.89D-03  0.00D+00 EMaxC= 1.00D-01 BMatC= 8.85D-03 BMatP= 6.04D-02
 IDIUse=3 WtCom= 9.71D-01 WtEn= 2.89D-02
 Coeff-Com: -0.965D-01 0.187D+00 0.379D+00 0.531D+00
 Coeff-En:   0.000D+00 0.000D+00 0.600D-01 0.940D+00
 Coeff:     -0.937D-01 0.181D+00 0.370D+00 0.543D+00
 Gap=     0.284 Goal=   None    Shift=    0.000
 RMSDP=1.24D-04 MaxDP=1.25D-02 DE=-4.49D-02 OVMax= 1.39D-02

 Cycle   5  Pass 0  IDiag  1:
 RMSU=  6.18D-05    CP:  9.94D-01  1.43D+00  8.05D-01  6.26D-01
 E= -2048.71905303507     Delta-E=       -0.007078841621 Rises=F Damp=F
 DIIS: error= 4.74D-04 at cycle   5 NSaved=   5.
 NSaved= 5 IEnMin= 5 EnMin= -2048.71905303507     IErMin= 5 ErrMin= 4.74D-04
 ErrMax= 4.74D-04  0.00D+00 EMaxC= 1.00D-01 BMatC= 2.94D-04 BMatP= 8.85D-03
 IDIUse=3 WtCom= 9.95D-01 WtEn= 4.74D-03
 Coeff-Com: -0.255D-01 0.439D-01 0.124D+00 0.242D+00 0.615D+00
 Coeff-En:   0.000D+00 0.000D+00 0.000D+00 0.000D+00 0.100D+01
 Coeff:     -0.253D-01 0.437D-01 0.123D+00 0.241D+00 0.617D+00
 Gap=     0.284 Goal=   None    Shift=    0.000
 RMSDP=2.57D-05 MaxDP=2.32D-03 DE=-7.08D-03 OVMax= 3.56D-03

 Failed to achieve initial convergence to 1.0D-08 in  6 cycles.
 Switch to full accuracy anyway.
 Cycle   6  Pass 1  IDiag  1:
 E= -2048.71942017285     Delta-E=       -0.000367137774 Rises=F Damp=F
 DIIS: error= 2.40D-04 at cycle   1 NSaved=   1.
 NSaved= 1 IEnMin= 1 EnMin= -2048.71942017285     IErMin= 1 ErrMin= 2.40D-04
 ErrMax= 2.40D-04  0.00D+00 EMaxC= 1.00D-01 BMatC= 7.83D-05 BMatP= 7.83D-05
 IDIUse=3 WtCom= 9.98D-01 WtEn= 2.40D-03
 Coeff-Com:  0.100D+01
 Coeff-En:   0.100D+01
 Coeff:      0.100D+01
 Gap=     0.284 Goal=   None    Shift=    0.000
 RMSDP=2.57D-05 MaxDP=2.32D-03 DE=-3.67D-04 OVMax= 2.32D-03

 Cycle   7  Pass 1  IDiag  1:
 RMSU=  1.11D-04    CP:  1.00D+00
 E= -2048.71947480077     Delta-E=       -0.000054627923 Rises=F Damp=F
 DIIS: error= 2.24D-04 at cycle   2 NSaved=   2.
 NSaved= 2 IEnMin= 2 EnMin= -2048.71947480077     IErMin= 2 ErrMin= 2.24D-04
 ErrMax= 2.24D-04  0.00D+00 EMaxC= 1.00D-01 BMatC= 4.92D-05 BMatP= 7.83D-05
 IDIUse=3 WtCom= 9.98D-01 WtEn= 2.24D-03
 Coeff-Com:  0.423D+00 0.577D+00
 Coeff-En:   0.000D+00 0.100D+01
 Coeff:      0.422D+00 0.578D+00
 Gap=     0.284 Goal=   None    Shift=    0.000
 RMSDP=1.15D-05 MaxDP=1.35D-03 DE=-5.46D-05 OVMax= 1.34D-03

 Cycle   8  Pass 1  IDiag  1:
 RMSU=  1.13D-05    CP:  1.00D+00  1.02D+00
 E= -2048.71950924993     Delta-E=       -0.000034449153 Rises=F Damp=F
 DIIS: error= 9.38D-05 at cycle   3 NSaved=   3.
 NSaved= 3 IEnMin= 3 EnMin= -2048.71950924993     IErMin= 3 ErrMin= 9.38D-05
 ErrMax= 9.38D-05  0.00D+00 EMaxC= 1.00D-01 BMatC= 1.08D-05 BMatP= 4.92D-05
 IDIUse=1 WtCom= 1.00D+00 WtEn= 0.00D+00
 Coeff-Com: -0.199D-01 0.306D+00 0.714D+00
 Coeff:     -0.199D-01 0.306D+00 0.714D+00
 Gap=     0.284 Goal=   None    Shift=    0.000
 RMSDP=5.68D-06 MaxDP=5.28D-04 DE=-3.44D-05 OVMax= 4.96D-04

 Cycle   9  Pass 1  IDiag  1:
 RMSU=  3.92D-06    CP:  1.00D+00  1.05D+00  7.73D-01
 E= -2048.71951899478     Delta-E=       -0.000009744857 Rises=F Damp=F
 DIIS: error= 3.11D-05 at cycle   4 NSaved=   4.
 NSaved= 4 IEnMin= 4 EnMin= -2048.71951899478     IErMin= 4 ErrMin= 3.11D-05
 ErrMax= 3.11D-05  0.00D+00 EMaxC= 1.00D-01 BMatC= 4.78D-07 BMatP= 1.08D-05
 IDIUse=1 WtCom= 1.00D+00 WtEn= 0.00D+00
 Coeff-Com: -0.306D-01 0.830D-01 0.253D+00 0.694D+00
 Coeff:     -0.306D-01 0.830D-01 0.253D+00 0.694D+00
 Gap=     0.284 Goal=   None    Shift=    0.000
 RMSDP=1.45D-06 MaxDP=1.34D-04 DE=-9.74D-06 OVMax= 3.83D-04

 Cycle  10  Pass 1  IDiag  1:
 RMSU=  1.28D-06    CP:  1.00D+00  1.05D+00  8.02D-01  1.12D+00
 E= -2048.71951982619     Delta-E=       -0.000000831410 Rises=F Damp=F
 DIIS: error= 1.23D-05 at cycle   5 NSaved=   5.
 NSaved= 5 IEnMin= 5 EnMin= -2048.71951982619     IErMin= 5 ErrMin= 1.23D-05
 ErrMax= 1.23D-05  0.00D+00 EMaxC= 1.00D-01 BMatC= 1.12D-07 BMatP= 4.78D-07
 IDIUse=1 WtCom= 1.00D+00 WtEn= 0.00D+00
 Coeff-Com: -0.205D-02-0.563D-01-0.132D+00 0.184D+00 0.101D+01
 Coeff:     -0.205D-02-0.563D-01-0.132D+00 0.184D+00 0.101D+01
 Gap=     0.284 Goal=   None    Shift=    0.000
 RMSDP=1.25D-06 MaxDP=8.29D-05 DE=-8.31D-07 OVMax= 2.10D-04

 Cycle  11  Pass 1  IDiag  1:
 RMSU=  4.99D-07    CP:  1.00D+00  1.05D+00  8.11D-01  1.41D+00  1.19D+00
 E= -2048.71952008284     Delta-E=       -0.000000256648 Rises=F Damp=F
 DIIS: error= 8.48D-06 at cycle   6 NSaved=   6.
 NSaved= 6 IEnMin= 6 EnMin= -2048.71952008284     IErMin= 6 ErrMin= 8.48D-06
 ErrMax= 8.48D-06  0.00D+00 EMaxC= 1.00D-01 BMatC= 3.01D-08 BMatP= 1.12D-07
 IDIUse=1 WtCom= 1.00D+00 WtEn= 0.00D+00
 Coeff-Com:  0.466D-02-0.439D-01-0.116D+00-0.531D-02 0.549D+00 0.611D+00
 Coeff:      0.466D-02-0.439D-01-0.116D+00-0.531D-02 0.549D+00 0.611D+00
 Gap=     0.284 Goal=   None    Shift=    0.000
 RMSDP=3.56D-07 MaxDP=3.69D-05 DE=-2.57D-07 OVMax= 9.65D-05

 Cycle  12  Pass 1  IDiag  1:
 RMSU=  1.87D-07    CP:  1.00D+00  1.05D+00  8.12D-01  1.47D+00  1.31D+00
                    CP:  9.06D-01
 E= -2048.71952012372     Delta-E=       -0.000000040880 Rises=F Damp=F
 DIIS: error= 8.80D-07 at cycle   7 NSaved=   7.
 NSaved= 7 IEnMin= 7 EnMin= -2048.71952012372     IErMin= 7 ErrMin= 8.80D-07
 ErrMax= 8.80D-07  0.00D+00 EMaxC= 1.00D-01 BMatC= 8.23D-10 BMatP= 3.01D-08
 IDIUse=1 WtCom= 1.00D+00 WtEn= 0.00D+00
 Coeff-Com:  0.106D-02-0.668D-02-0.194D-01-0.867D-02 0.566D-01 0.133D+00
 Coeff-Com:  0.844D+00
 Coeff:      0.106D-02-0.668D-02-0.194D-01-0.867D-02 0.566D-01 0.133D+00
 Coeff:      0.844D+00
 Gap=     0.284 Goal=   None    Shift=    0.000
 RMSDP=8.73D-08 MaxDP=5.64D-06 DE=-4.09D-08 OVMax= 1.82D-05

 Cycle  13  Pass 1  IDiag  1:
 RMSU=  5.22D-08    CP:  1.00D+00  1.05D+00  8.12D-01  1.48D+00  1.34D+00
                    CP:  9.98D-01  1.13D+00
 E= -2048.71952012521     Delta-E=       -0.000000001493 Rises=F Damp=F
 DIIS: error= 4.80D-07 at cycle   8 NSaved=   8.
 NSaved= 8 IEnMin= 8 EnMin= -2048.71952012521     IErMin= 8 ErrMin= 4.80D-07
 ErrMax= 4.80D-07  0.00D+00 EMaxC= 1.00D-01 BMatC= 3.11D-10 BMatP= 8.23D-10
 IDIUse=1 WtCom= 1.00D+00 WtEn= 0.00D+00
 Coeff-Com: -0.705D-03 0.840D-02 0.208D-01-0.103D-02-0.117D+00-0.919D-01
 Coeff-Com:  0.413D+00 0.768D+00
 Coeff:     -0.705D-03 0.840D-02 0.208D-01-0.103D-02-0.117D+00-0.919D-01
 Coeff:      0.413D+00 0.768D+00
 Gap=     0.284 Goal=   None    Shift=    0.000
 RMSDP=4.75D-08 MaxDP=2.97D-06 DE=-1.49D-09 OVMax= 9.51D-06

 Cycle  14  Pass 1  IDiag  1:
 RMSU=  2.74D-08    CP:  1.00D+00  1.05D+00  8.11D-01  1.48D+00  1.34D+00
                    CP:  1.04D+00  1.28D+00  1.07D+00
 E= -2048.71952012567     Delta-E=       -0.000000000456 Rises=F Damp=F
 DIIS: error= 1.49D-07 at cycle   9 NSaved=   9.
 NSaved= 9 IEnMin= 9 EnMin= -2048.71952012567     IErMin= 9 ErrMin= 1.49D-07
 ErrMax= 1.49D-07  0.00D+00 EMaxC= 1.00D-01 BMatC= 3.16D-11 BMatP= 3.11D-10
 IDIUse=1 WtCom= 1.00D+00 WtEn= 0.00D+00
 Coeff-Com: -0.417D-03 0.434D-02 0.110D-01 0.794D-03-0.551D-01-0.536D-01
 Coeff-Com:  0.807D-01 0.311D+00 0.701D+00
 Coeff:     -0.417D-03 0.434D-02 0.110D-01 0.794D-03-0.551D-01-0.536D-01
 Coeff:      0.807D-01 0.311D+00 0.701D+00
 Gap=     0.284 Goal=   None    Shift=    0.000
 RMSDP=1.37D-08 MaxDP=7.88D-07 DE=-4.56D-10 OVMax= 2.70D-06

 Cycle  15  Pass 1  IDiag  1:
 RMSU=  9.26D-09    CP:  1.00D+00  1.05D+00  8.11D-01  1.48D+00  1.34D+00
                    CP:  1.05D+00  1.30D+00  1.21D+00  1.11D+00
 E= -2048.71952012607     Delta-E=       -0.000000000400 Rises=F Damp=F
 DIIS: error= 6.37D-08 at cycle  10 NSaved=  10.
 NSaved=10 IEnMin=10 EnMin= -2048.71952012607     IErMin=10 ErrMin= 6.37D-08
 ErrMax= 6.37D-08  0.00D+00 EMaxC= 1.00D-01 BMatC= 5.72D-12 BMatP= 3.16D-11
 IDIUse=1 WtCom= 1.00D+00 WtEn= 0.00D+00
 Coeff-Com: -0.152D-05-0.233D-03-0.447D-03 0.198D-03 0.466D-02-0.445D-04
 Coeff-Com: -0.552D-01-0.513D-01 0.279D+00 0.824D+00
 Coeff:     -0.152D-05-0.233D-03-0.447D-03 0.198D-03 0.466D-02-0.445D-04
 Coeff:     -0.552D-01-0.513D-01 0.279D+00 0.824D+00
 Gap=     0.284 Goal=   None    Shift=    0.000
 RMSDP=6.90D-09 MaxDP=3.97D-07 DE=-4.00D-10 OVMax= 1.27D-06

 SCF Done:  E(RwB97XD) =  -2048.71952013     A.U. after   15 cycles
            NFock= 15  Conv=0.69D-08     -V/T= 2.0053
 KE= 2.037983604200D+03 PE=-1.589258410353D+04 EE= 6.249810951105D+03
 Leave Link  502 at Sun Jan 21 13:22:40 2018, MaxMem=  4294967296 cpu:           21984.4 elap:             709.2
 (Enter /share/apps/g16/l601.exe)
 Copying SCF densities to generalized density rwf, IOpCl= 0 IROHF=0.

 **********************************************************************

            Population analysis using the SCF density.

 **********************************************************************

 Orbital symmetries:
       Occupied  (A) (A) (A) (A) (A) (A) (A) (A) (A) (A) (A) (A)
                 (A) (A) (A) (A) (A) (A) (A) (A) (A) (A) (A) (A)
                 (A) (A) (A) (A) (A) (A) (A) (A) (A) (A) (A) (A)
                 (A) (A) (A) (A) (A) (A) (A) (A) (A) (A) (A) (A)
                 (A) (A) (A) (A) (A) (A) (A) (A) (A) (A) (A) (A)
                 (A) (A) (A) (A) (A) (A) (A) (A) (A) (A) (A) (A)
                 (A) (A) (A) (A) (A) (A) (A) (A) (A) (A) (A) (A)
                 (A) (A) (A) (A) (A) (A) (A) (A) (A) (A) (A) (A)
                 (A) (A) (A) (A) (A) (A) (A) (A) (A) (A) (A) (A)
                 (A) (A) (A) (A) (A) (A) (A) (A) (A) (A) (A) (A)
                 (A) (A) (A) (A) (A) (A) (A) (A) (A) (A) (A) (A)
                 (A) (A) (A) (A) (A) (A) (A) (A) (A) (A) (A) (A)
                 (A) (A) (A) (A) (A) (A) (A) (A) (A) (A)
       Virtual   (A) (A) (A) (A) (A) (A) (A) (A) (A) (A) (A) (A)
                 (A) (A) (A) (A) (A) (A) (A) (A) (A) (A) (A) (A)
                 (A) (A) (A) (A) (A) (A) (A) (A) (A) (A) (A) (A)
                 (A) (A) (A) (A) (A) (A) (A) (A) (A) (A) (A) (A)
                 (A) (A) (A) (A) (A) (A) (A) (A) (A) (A) (A) (A)
                 (A) (A) (A) (A) (A) (A) (A) (A) (A) (A) (A) (A)
                 (A) (A) (A) (A) (A) (A) (A) (A) (A) (A) (A) (A)
                 (A) (A) (A) (A) (A) (A) (A) (A) (A) (A) (A) (A)
                 (A) (A) (A) (A) (A) (A) (A) (A) (A) (A) (A) (A)
                 (A) (A) (A) (A) (A) (A) (A) (A) (A) (A) (A) (A)
                 (A) (A) (A) (A) (A) (A) (A) (A) (A) (A) (A) (A)
                 (A) (A) (A) (A) (A) (A) (A) (A) (A) (A) (A) (A)
                 (A) (A) (A) (A) (A) (A) (A) (A) (A) (A) (A) (A)
                 (A) (A) (A) (A) (A) (A) (A) (A) (A) (A) (A) (A)
                 (A) (A) (A) (A) (A) (A) (A) (A) (A) (A) (A) (A)
                 (A) (A) (A) (A) (A) (A) (A) (A) (A) (A) (A) (A)
                 (A) (A) (A) (A) (A) (A) (A) (A) (A) (A) (A) (A)
                 (A) (A) (A) (A) (A) (A) (A) (A) (A) (A) (A) (A)
                 (A) (A) (A) (A) (A) (A) (A) (A) (A) (A) (A) (A)
                 (A) (A) (A) (A) (A) (A) (A) (A) (A) (A) (A) (A)
                 (A) (A) (A) (A) (A) (A) (A) (A) (A) (A) (A) (A)
                 (A) (A) (A) (A) (A) (A) (A) (A) (A) (A) (A) (A)
                 (A) (A) (A) (A) (A) (A) (A) (A) (A) (A) (A) (A)
                 (A) (A) (A) (A) (A) (A) (A) (A) (A) (A) (A) (A)
                 (A) (A) (A) (A) (A) (A) (A) (A) (A) (A) (A) (A)
                 (A) (A) (A) (A) (A) (A) (A) (A) (A) (A) (A) (A)
                 (A) (A) (A) (A) (A) (A) (A) (A) (A) (A) (A) (A)
                 (A) (A) (A) (A) (A) (A) (A) (A) (A) (A) (A) (A)
                 (A) (A) (A) (A) (A) (A) (A) (A) (A) (A) (A) (A)
                 (A) (A) (A) (A) (A) (A) (A) (A) (A) (A) (A) (A)
                 (A) (A) (A) (A) (A) (A) (A) (A) (A) (A) (A) (A)
                 (A) (A) (A) (A) (A) (A) (A) (A) (A) (A) (A) (A)
                 (A) (A) (A) (A) (A) (A) (A) (A) (A) (A) (A) (A)
                 (A) (A) (A) (A) (A) (A) (A) (A) (A) (A) (A) (A)
                 (A) (A) (A) (A) (A) (A) (A) (A) (A) (A) (A) (A)
                 (A) (A) (A) (A) (A) (A) (A) (A) (A) (A) (A) (A)
                 (A) (A) (A) (A) (A) (A) (A) (A) (A) (A) (A) (A)
                 (A) (A) (A) (A) (A) (A) (A) (A) (A) (A) (A) (A)
                 (A) (A) (A) (A) (A) (A) (A) (A) (A) (A) (A) (A)
                 (A) (A) (A) (A) (A) (A) (A) (A) (A) (A) (A) (A)
                 (A) (A) (A) (A) (A) (A) (A) (A) (A) (A) (A) (A)
                 (A) (A) (A) (A) (A) (A) (A) (A) (A) (A) (A) (A)
                 (A) (A) (A) (A) (A) (A) (A) (A) (A) (A) (A) (A)
                 (A) (A) (A) (A) (A) (A) (A) (A) (A) (A) (A) (A)
                 (A) (A) (A) (A) (A) (A) (A) (A) (A) (A) (A) (A)
                 (A) (A) (A) (A) (A) (A) (A) (A) (A) (A) (A) (A)
                 (A) (A) (A) (A) (A) (A) (A) (A) (A) (A) (A) (A)
                 (A) (A) (A) (A) (A) (A) (A) (A) (A) (A) (A) (A)
                 (A) (A) (A) (A) (A) (A) (A)
 The electronic state is 1-A.
 Alpha  occ. eigenvalues --  -19.24944 -19.21086 -19.20549 -14.53047 -14.51226
 Alpha  occ. eigenvalues --  -14.49277 -14.48977 -14.48553 -14.46964 -14.46620
 Alpha  occ. eigenvalues --  -14.46603 -14.45873 -14.45161 -14.44809 -14.43275
 Alpha  occ. eigenvalues --  -14.41850 -14.41558 -14.41281 -14.41196 -14.40885
 Alpha  occ. eigenvalues --  -10.44478 -10.41069 -10.40822 -10.39208 -10.38425
 Alpha  occ. eigenvalues --  -10.38226 -10.37736 -10.36857 -10.36363 -10.36079
 Alpha  occ. eigenvalues --  -10.34548 -10.34277 -10.33949 -10.33939 -10.33493
 Alpha  occ. eigenvalues --  -10.33436 -10.33395 -10.32829 -10.31416 -10.30548
 Alpha  occ. eigenvalues --  -10.30231 -10.28763 -10.28360  -1.18544  -1.15863
 Alpha  occ. eigenvalues --   -1.13267  -1.12119  -1.11234  -1.10928  -1.10208
 Alpha  occ. eigenvalues --   -1.08582  -1.08204  -1.05719  -1.05595  -1.01544
 Alpha  occ. eigenvalues --   -1.01479  -1.01078  -0.99697  -0.98627  -0.97790
 Alpha  occ. eigenvalues --   -0.96977  -0.96864  -0.93306  -0.90057  -0.88381
 Alpha  occ. eigenvalues --   -0.86410  -0.84513  -0.83973  -0.82902  -0.82345
 Alpha  occ. eigenvalues --   -0.82293  -0.77977  -0.77654  -0.75599  -0.74834
 Alpha  occ. eigenvalues --   -0.73663  -0.73224  -0.72435  -0.71462  -0.71144
 Alpha  occ. eigenvalues --   -0.67488  -0.67449  -0.66646  -0.65675  -0.64892
 Alpha  occ. eigenvalues --   -0.64444  -0.63341  -0.63127  -0.62598  -0.61887
 Alpha  occ. eigenvalues --   -0.61377  -0.61068  -0.60866  -0.60101  -0.58920
 Alpha  occ. eigenvalues --   -0.58706  -0.58334  -0.57756  -0.56945  -0.56171
 Alpha  occ. eigenvalues --   -0.55857  -0.55774  -0.55545  -0.55054  -0.54250
 Alpha  occ. eigenvalues --   -0.54209  -0.54056  -0.53452  -0.53072  -0.52850
 Alpha  occ. eigenvalues --   -0.51831  -0.51737  -0.51096  -0.50720  -0.50643
 Alpha  occ. eigenvalues --   -0.50254  -0.50130  -0.49769  -0.49250  -0.49080
 Alpha  occ. eigenvalues --   -0.48583  -0.48163  -0.47914  -0.47238  -0.47045
 Alpha  occ. eigenvalues --   -0.46928  -0.45543  -0.45227  -0.45149  -0.42299
 Alpha  occ. eigenvalues --   -0.41533  -0.41198  -0.38804  -0.38375  -0.38361
 Alpha  occ. eigenvalues --   -0.38201  -0.37223  -0.36565  -0.35392  -0.35184
 Alpha  occ. eigenvalues --   -0.34922  -0.34268  -0.33843  -0.33654  -0.33026
 Alpha  occ. eigenvalues --   -0.32530  -0.32294  -0.31874  -0.30954  -0.30831
 Alpha  occ. eigenvalues --   -0.30625  -0.30589  -0.26283  -0.25609
 Alpha virt. eigenvalues --    0.02818   0.04516   0.05873   0.07268   0.08689
 Alpha virt. eigenvalues --    0.09057   0.09608   0.09888   0.10959   0.12261
 Alpha virt. eigenvalues --    0.13306   0.13819   0.14311   0.14455   0.14645
 Alpha virt. eigenvalues --    0.15023   0.16327   0.17075   0.17819   0.18227
 Alpha virt. eigenvalues --    0.18576   0.18926   0.19769   0.20239   0.20631
 Alpha virt. eigenvalues --    0.20707   0.21171   0.21514   0.22110   0.22204
 Alpha virt. eigenvalues --    0.22533   0.22883   0.23001   0.23269   0.23711
 Alpha virt. eigenvalues --    0.24258   0.24440   0.24588   0.25561   0.25768
 Alpha virt. eigenvalues --    0.26325   0.27374   0.27918   0.28051   0.28400
 Alpha virt. eigenvalues --    0.28408   0.28776   0.30148   0.30631   0.31200
 Alpha virt. eigenvalues --    0.31643   0.32300   0.32830   0.33540   0.33623
 Alpha virt. eigenvalues --    0.34005   0.34927   0.35073   0.36150   0.36828
 Alpha virt. eigenvalues --    0.37030   0.37441   0.38051   0.38495   0.38849
 Alpha virt. eigenvalues --    0.39371   0.39740   0.40594   0.41027   0.41801
 Alpha virt. eigenvalues --    0.42352   0.42561   0.43084   0.43838   0.44075
 Alpha virt. eigenvalues --    0.45738   0.46011   0.46301   0.46874   0.46945
 Alpha virt. eigenvalues --    0.47307   0.48089   0.48166   0.48695   0.49253
 Alpha virt. eigenvalues --    0.49441   0.50181   0.50925   0.51091   0.51343
 Alpha virt. eigenvalues --    0.51773   0.52152   0.52959   0.53737   0.53803
 Alpha virt. eigenvalues --    0.54266   0.54724   0.54986   0.55107   0.55782
 Alpha virt. eigenvalues --    0.56124   0.56666   0.56843   0.57118   0.57259
 Alpha virt. eigenvalues --    0.57908   0.58299   0.59041   0.59435   0.59592
 Alpha virt. eigenvalues --    0.60131   0.60328   0.60907   0.61355   0.61652
 Alpha virt. eigenvalues --    0.61979   0.62302   0.62878   0.63072   0.63654
 Alpha virt. eigenvalues --    0.63977   0.64473   0.64699   0.65154   0.65513
 Alpha virt. eigenvalues --    0.65967   0.66730   0.66812   0.67102   0.68019
 Alpha virt. eigenvalues --    0.68741   0.69275   0.69480   0.69723   0.70302
 Alpha virt. eigenvalues --    0.70721   0.71345   0.71638   0.71950   0.72275
 Alpha virt. eigenvalues --    0.72772   0.73292   0.73530   0.73982   0.74324
 Alpha virt. eigenvalues --    0.74498   0.74896   0.75151   0.76000   0.76131
 Alpha virt. eigenvalues --    0.76474   0.76728   0.76888   0.77394   0.78048
 Alpha virt. eigenvalues --    0.78511   0.78684   0.79068   0.79322   0.79644
 Alpha virt. eigenvalues --    0.79775   0.80006   0.80301   0.80638   0.81045
 Alpha virt. eigenvalues --    0.81340   0.82199   0.82493   0.82888   0.83263
 Alpha virt. eigenvalues --    0.83909   0.84384   0.84789   0.85490   0.85904
 Alpha virt. eigenvalues --    0.86179   0.86574   0.86948   0.87553   0.88037
 Alpha virt. eigenvalues --    0.88376   0.88578   0.89143   0.89663   0.90361
 Alpha virt. eigenvalues --    0.90526   0.90910   0.91455   0.91750   0.92605
 Alpha virt. eigenvalues --    0.92740   0.93786   0.94171   0.94646   0.95035
 Alpha virt. eigenvalues --    0.95365   0.95479   0.95888   0.96424   0.96996
 Alpha virt. eigenvalues --    0.97232   0.97984   0.98192   0.98478   0.98916
 Alpha virt. eigenvalues --    0.99206   0.99562   1.00722   1.01079   1.01753
 Alpha virt. eigenvalues --    1.02134   1.02331   1.02865   1.03465   1.04313
 Alpha virt. eigenvalues --    1.04754   1.05303   1.05477   1.06033   1.06214
 Alpha virt. eigenvalues --    1.06518   1.07140   1.07927   1.09339   1.09403
 Alpha virt. eigenvalues --    1.10045   1.10726   1.10789   1.12196   1.12382
 Alpha virt. eigenvalues --    1.12593   1.12962   1.13541   1.13713   1.14094
 Alpha virt. eigenvalues --    1.14673   1.15228   1.15405   1.15911   1.16159
 Alpha virt. eigenvalues --    1.16717   1.16833   1.17722   1.17908   1.18257
 Alpha virt. eigenvalues --    1.19009   1.19471   1.19693   1.19877   1.20316
 Alpha virt. eigenvalues --    1.20538   1.21351   1.21812   1.22044   1.22429
 Alpha virt. eigenvalues --    1.22702   1.22793   1.23320   1.24031   1.24316
 Alpha virt. eigenvalues --    1.24791   1.25668   1.25979   1.26421   1.27074
 Alpha virt. eigenvalues --    1.27854   1.28003   1.28579   1.29161   1.29690
 Alpha virt. eigenvalues --    1.29745   1.30503   1.30764   1.31990   1.32309
 Alpha virt. eigenvalues --    1.33054   1.33543   1.33667   1.34162   1.34939
 Alpha virt. eigenvalues --    1.35187   1.35406   1.36335   1.37670   1.38121
 Alpha virt. eigenvalues --    1.38368   1.39308   1.40298   1.40444   1.42042
 Alpha virt. eigenvalues --    1.42592   1.43219   1.44558   1.45627   1.46087
 Alpha virt. eigenvalues --    1.46601   1.47159   1.47535   1.48587   1.49080
 Alpha virt. eigenvalues --    1.50176   1.51030   1.51797   1.52241   1.52450
 Alpha virt. eigenvalues --    1.53076   1.53677   1.54013   1.54683   1.55809
 Alpha virt. eigenvalues --    1.56056   1.57574   1.57770   1.58943   1.59156
 Alpha virt. eigenvalues --    1.59810   1.60286   1.60410   1.61799   1.62146
 Alpha virt. eigenvalues --    1.63074   1.63279   1.63657   1.63911   1.64044
 Alpha virt. eigenvalues --    1.64825   1.66195   1.66675   1.67137   1.67815
 Alpha virt. eigenvalues --    1.68249   1.68306   1.69037   1.69777   1.70183
 Alpha virt. eigenvalues --    1.70931   1.71412   1.71832   1.71913   1.72296
 Alpha virt. eigenvalues --    1.72884   1.73044   1.73373   1.74127   1.74452
 Alpha virt. eigenvalues --    1.74782   1.75377   1.75760   1.76113   1.76159
 Alpha virt. eigenvalues --    1.76371   1.77025   1.77247   1.77766   1.78283
 Alpha virt. eigenvalues --    1.78550   1.78847   1.79466   1.79622   1.79856
 Alpha virt. eigenvalues --    1.80245   1.80785   1.81318   1.81979   1.82283
 Alpha virt. eigenvalues --    1.82437   1.82588   1.83193   1.83548   1.83930
 Alpha virt. eigenvalues --    1.84266   1.84486   1.85200   1.85578   1.86041
 Alpha virt. eigenvalues --    1.86448   1.86714   1.87289   1.87528   1.87766
 Alpha virt. eigenvalues --    1.88197   1.89036   1.89529   1.90432   1.90659
 Alpha virt. eigenvalues --    1.90909   1.91413   1.91986   1.92530   1.92613
 Alpha virt. eigenvalues --    1.92947   1.93401   1.93707   1.94350   1.95753
 Alpha virt. eigenvalues --    1.96227   1.96661   1.97589   1.98206   1.99198
 Alpha virt. eigenvalues --    1.99634   2.00491   2.01076   2.01293   2.02585
 Alpha virt. eigenvalues --    2.02949   2.03579   2.04102   2.05235   2.05421
 Alpha virt. eigenvalues --    2.05748   2.06092   2.07077   2.08186   2.09009
 Alpha virt. eigenvalues --    2.09386   2.10073   2.11340   2.11624   2.11974
 Alpha virt. eigenvalues --    2.13130   2.13695   2.13955   2.14366   2.14993
 Alpha virt. eigenvalues --    2.15544   2.16655   2.17308   2.18131   2.19026
 Alpha virt. eigenvalues --    2.19934   2.20070   2.20932   2.21514   2.22327
 Alpha virt. eigenvalues --    2.22558   2.23533   2.23830   2.24207   2.24953
 Alpha virt. eigenvalues --    2.25519   2.25963   2.26518   2.27288   2.27785
 Alpha virt. eigenvalues --    2.28706   2.28926   2.29256   2.29972   2.30112
 Alpha virt. eigenvalues --    2.31252   2.31698   2.32312   2.32625   2.33070
 Alpha virt. eigenvalues --    2.33316   2.33896   2.34670   2.35269   2.35643
 Alpha virt. eigenvalues --    2.35820   2.36304   2.37182   2.37807   2.38388
 Alpha virt. eigenvalues --    2.39442   2.40084   2.40852   2.41266   2.41842
 Alpha virt. eigenvalues --    2.43040   2.43121   2.43950   2.44346   2.44812
 Alpha virt. eigenvalues --    2.45330   2.45569   2.46166   2.47421   2.47999
 Alpha virt. eigenvalues --    2.48738   2.49098   2.50341   2.51499   2.52269
 Alpha virt. eigenvalues --    2.53344   2.54871   2.55541   2.56058   2.56781
 Alpha virt. eigenvalues --    2.58292   2.58887   2.59045   2.60694   2.61361
 Alpha virt. eigenvalues --    2.62483   2.62798   2.64490   2.64676   2.65172
 Alpha virt. eigenvalues --    2.65574   2.65931   2.66564   2.67041   2.67308
 Alpha virt. eigenvalues --    2.68204   2.68921   2.69339   2.70541   2.70746
 Alpha virt. eigenvalues --    2.71001   2.71898   2.72874   2.73280   2.73478
 Alpha virt. eigenvalues --    2.75900   2.76159   2.76497   2.77004   2.77430
 Alpha virt. eigenvalues --    2.77950   2.78702   2.78941   2.79597   2.79948
 Alpha virt. eigenvalues --    2.80493   2.80672   2.81563   2.81823   2.82704
 Alpha virt. eigenvalues --    2.83413   2.83747   2.84086   2.84885   2.85463
 Alpha virt. eigenvalues --    2.86066   2.86472   2.86889   2.87532   2.87790
 Alpha virt. eigenvalues --    2.88407   2.88829   2.90657   2.93064   2.95058
 Alpha virt. eigenvalues --    2.95689   2.97047   2.97857   2.99798   3.00029
 Alpha virt. eigenvalues --    3.00466   3.02293   3.03014   3.05191   3.05998
 Alpha virt. eigenvalues --    3.08481   3.09654   3.10398   3.12362   3.14924
 Alpha virt. eigenvalues --    3.15573   3.16090   3.17128   3.19576   3.21030
 Alpha virt. eigenvalues --    3.21913   3.23285   3.24301   3.25376   3.27021
 Alpha virt. eigenvalues --    3.43978   3.47324   3.48172   3.49303   3.51368
 Alpha virt. eigenvalues --    3.52826   3.54844   3.56611   3.58245   3.60620
 Alpha virt. eigenvalues --    3.64202   3.71514   3.75761
          Condensed to atoms (all electrons):
 Mulliken charges:
               1
     1  N   -0.303232
     2  C    0.191680
     3  C    0.068951
     4  N   -0.259356
     5  C    0.151042
     6  H    0.029460
     7  N   -0.283069
     8  C    0.131038
     9  H    0.003618
    10  N   -0.270168
    11  C    0.230177
    12  C    0.074985
    13  N   -0.064040
    14  H    0.113048
    15  H    0.082476
    16  H    0.022869
    17  H    0.022876
    18  H    0.026182
    19  N   -0.301218
    20  C    0.265109
    21  C    0.184094
    22  N   -0.096793
    23  H    0.123135
    24  H    0.118432
    25  N   -0.280393
    26  C    0.162764
    27  N   -0.107145
    28  H    0.119940
    29  C    0.171727
    30  O   -0.318513
    31  C   -0.013346
    32  N   -0.220569
    33  C    0.090344
    34  H    0.025157
    35  H    0.019931
    36  H    0.032791
    37  H    0.025998
    38  H    0.049691
    39  H    0.043014
    40  H    0.078225
    41  H    0.022909
    42  C   -0.111748
    43  O   -0.267407
    44  C    0.174336
    45  H    0.133497
    46  N   -0.125418
    47  O   -0.345786
    48  C    0.334706
    49  H    0.044562
    50  C    0.167402
    51  C    0.066151
    52  N   -0.276636
    53  H    0.035642
    54  H    0.041105
    55  H    0.031663
    56  H    0.120790
    57  H    0.121012
    58  N   -0.060571
    59  C    0.092621
    60  C    0.202408
    61  N   -0.258256
    62  H    0.033506
    63  C    0.147968
    64  N   -0.299193
    65  H    0.041319
    66  C    0.139146
    67  N   -0.253483
    68  C    0.030449
    69  C    0.179994
    70  N   -0.303598
 Sum of Mulliken charges =  -0.00000
 Mulliken charges with hydrogens summed into heavy atoms:
               1
     1  N   -0.303232
     2  C    0.263607
     3  C    0.068951
     4  N   -0.259356
     5  C    0.180502
     7  N   -0.283069
     8  C    0.134656
    10  N   -0.270168
    11  C    0.230177
    12  C    0.074985
    13  N    0.131483
    19  N   -0.301218
    20  C    0.265109
    21  C    0.262814
    22  N    0.144774
    25  N   -0.280393
    26  C    0.162764
    27  N    0.012795
    29  C    0.171727
    30  O   -0.318513
    31  C   -0.013346
    32  N   -0.220569
    33  C    0.115501
    42  C   -0.088840
    43  O   -0.267407
    44  C    0.174336
    46  N    0.008079
    47  O   -0.345786
    48  C    0.334706
    50  C    0.211964
    51  C    0.237081
    52  N   -0.276636
    58  N    0.181231
    59  C    0.092621
    60  C    0.202408
    61  N   -0.258256
    63  C    0.181474
    64  N   -0.299193
    66  C    0.180465
    67  N   -0.253483
    68  C    0.030449
    69  C    0.288404
    70  N   -0.303598
 Electronic spatial extent (au):  <R**2>=          22786.2304
 Charge=             -0.0000 electrons
 Dipole moment (field-independent basis, Debye):
    X=             -6.9512    Y=              7.4884    Z=             -2.1045  Tot=             10.4319
 Quadrupole moment (field-independent basis, Debye-Ang):
   XX=           -154.2336   YY=           -229.5192   ZZ=           -253.4272
   XY=              3.5878   XZ=            -16.0110   YZ=             15.8129
 Traceless Quadrupole moment (field-independent basis, Debye-Ang):
   XX=             58.1598   YY=            -17.1259   ZZ=            -41.0339
   XY=              3.5878   XZ=            -16.0110   YZ=             15.8129
 Octapole moment (field-independent basis, Debye-Ang**2):
  XXX=             67.5363  YYY=            131.6554  ZZZ=             10.1752  XYY=           -121.0729
  XXY=            150.5438  XXZ=            -43.1998  XZZ=            -23.9127  YZZ=             10.0242
  YYZ=            -51.2629  XYZ=             31.1714
 Hexadecapole moment (field-independent basis, Debye-Ang**3):
 XXXX=         -17449.0886 YYYY=          -4543.4962 ZZZZ=          -3359.2654 XXXY=           -550.0840
 XXXZ=           -367.2939 YYYX=             19.3260 YYYZ=            161.8862 ZZZX=            -83.3239
 ZZZY=             39.0311 XXYY=          -3510.1313 XXZZ=          -4146.9204 YYZZ=          -1414.7160
 XXYZ=            116.4773 YYXZ=             62.8515 ZZXY=             21.5767
 N-N= 5.556070028097D+03 E-N=-1.589258410155D+04  KE= 2.037983604200D+03
 No NMR shielding tensors so no spin-rotation constants.
 Leave Link  601 at Sun Jan 21 13:22:42 2018, MaxMem=  4294967296 cpu:              49.5 elap:               1.7
 (Enter /share/apps/g16/l9999.exe)
 1\1\GINC-COMPUTE-0-3\SP\RwB97XD\CC-pVDZ\C23H27N17O3\SATYA\21-Jan-2018\
 0\\#p wb97xd/cc-pvdz sp scf=(maxcycles=20)\\Base pair stacking\\0,1\N,
 0,0.27192,0.31347,-6.54156\C,0,0.76512,1.70396,-6.50567\C,0,-0.98427,-
 1.48173,-6.35031\N,0,0.22377,-1.9083,-6.88268\C,0,0.93222,-0.80968,-6.
 97659\H,0,1.9519,-0.76036,-7.3597\N,0,-3.1842,-1.44525,-5.50064\C,0,-3
 .02243,-0.12673,-5.34928\H,0,-3.87951,0.40239,-4.93492\N,0,-1.96584,0.
 63276,-5.63161\C,0,-0.96952,-0.11468,-6.13471\C,0,-2.1633,-2.16917,-6.
 00936\N,0,-2.32287,-3.48547,-6.1612\H,0,-1.5938,-4.06059,-6.53391\H,0,
 -3.17613,-3.94136,-5.90772\H,0,0.99988,1.99981,-7.43171\H,0,0.05389,2.
 30126,-6.13621\H,0,1.57737,1.75684,-5.92476\N,0,0.13824,2.39805,-3.130
 48\C,0,-0.76867,1.37808,-2.9716\C,0,-0.17571,3.83903,-3.05483\N,0,-4.0
 1818,0.30869,-2.37258\H,0,-4.50551,-0.56026,-2.2909\H,0,-4.55775,1.143
 69,-2.26146\N,0,-2.08834,1.51974,-2.7217\C,0,-2.70034,0.35324,-2.61999
 \N,0,-2.07001,-0.86028,-2.75254\H,0,-2.61769,-1.70189,-2.65919\C,0,-0.
 71319,-1.0298,-3.00975\O,0,-0.2434,-2.16986,-3.11125\C,0,-0.0424,0.214
 55,-3.12163\N,0,1.29358,0.49833,-3.3697\C,0,1.35332,1.80241,-3.36593\H
 ,0,2.26181,2.38288,-3.53016\H,0,0.05302,4.27773,-3.92318\H,0,-1.15058,
 3.95634,-2.87008\H,0,0.35473,4.25928,-2.31942\H,0,-6.00748,-5.49104,-2
 .72522\H,0,-5.48812,-5.70699,-1.0554\H,0,-5.48955,-4.09717,-1.77641\H,
 0,-1.83078,-7.78413,-3.3912\C,0,-2.19409,-6.78534,-3.14903\O,0,-0.1371
 7,-5.7154,-3.65042\C,0,-1.30977,-5.66786,-3.27956\H,0,-1.27519,-3.6371
 7,-3.0277\N,0,-1.86937,-4.4504,-2.94807\O,0,-3.55726,-3.10168,-2.24866
 \C,0,-3.15225,-4.2186,-2.51908\H,0,-4.16289,-7.40719,-2.6171\C,0,-3.45
 098,-6.59104,-2.73298\C,0,-5.32287,-5.14747,-1.96408\N,0,-3.94381,-5.3
 4578,-2.41865\H,0,-10.22711,-4.44639,-3.48253\H,0,-8.96904,-3.69478,-2
 .7653\H,0,-9.60211,-5.04316,-2.0981\H,0,-3.84254,-6.82244,-6.42483\H,0
 ,-5.20691,-7.8301,-6.24261\N,0,-4.76605,-6.95,-6.0629\C,0,-5.38316,-5.
 98982,-5.37124\C,0,-7.18663,-5.03588,-4.14681\N,0,-6.57026,-3.86395,-3
 .92074\H,0,-4.78496,-2.9447,-4.33098\C,0,-5.3563,-3.86183,-4.46774\N,0
 ,-4.73644,-4.82252,-5.16086\H,0,-9.55202,-7.23644,-4.02607\C,0,-8.6272
 6,-6.68794,-4.20744\N,0,-7.60053,-7.15764,-4.87294\C,0,-6.68002,-6.120
 13,-4.84199\C,0,-9.38604,-4.58231,-2.95898\N,0,-8.44539,-5.40943,-3.73
 941\\Version=EM64L-G16RevA.03\State=1-A\HF=-2048.7195201\RMSD=6.901e-0
 9\Dipole=-4.0730372,0.0359932,0.5037373\Quadrupole=-1.614166,20.007339
 2,-18.3931732,32.1128989,-19.1431597,0.109923\PG=C01 [X(C23H27N17O3)]\
 \@


 ACTORS ARE SO FORTUNATE.  THEY CAN CHOOSE WHETHER
 THEY WILL APPEAR IN A TRAGEDY OR IN COMEDY,
 WHETHER THEY WILL SUFFER OF MAKE MERRY,
 LAUGH OR SHED TEARS.  BUT IN REAL LIFE IT IS DIFFERENT.
 MOST MEN AND WOMEN ARE FORCED TO PERFORM
 PARTS FOR WHICH THEY HAVE NO QUALIFICATIONS.
 THE WORLD IS A STAGE, BUT THE PLAY IS BADLY CAST.

                                   -- OSCAR WILDE
 Job cpu time:       0 days  6 hours 16 minutes 46.5 seconds.
 Elapsed time:       0 days  0 hours 12 minutes  9.1 seconds.
 File lengths (MBytes):  RWF=    298 Int=      0 D2E=      0 Chk=     33 Scr=      1
 Normal termination of Gaussian 16 at Sun Jan 21 13:22:42 2018.
