 Entering Gaussian System, Link 0=g16
 Input=str30.-15.1.5.com
 Output=str30.-15.1.5.log
 Initial command:
 /share/apps/g16/l1.exe "/state/partition1/scr/Gau-16383.inp" -scrdir="/state/partition1/scr/"
 Entering Link 1 = /share/apps/g16/l1.exe PID=     16384.
  
 Copyright (c) 1988,1990,1992,1993,1995,1998,2003,2009,2016,
            Gaussian, Inc.  All Rights Reserved.
  
 This is part of the Gaussian(R) 16 program.  It is based on
 the Gaussian(R) 09 system (copyright 2009, Gaussian, Inc.),
 the Gaussian(R) 03 system (copyright 2003, Gaussian, Inc.),
 the Gaussian(R) 98 system (copyright 1998, Gaussian, Inc.),
 the Gaussian(R) 94 system (copyright 1995, Gaussian, Inc.),
 the Gaussian 92(TM) system (copyright 1992, Gaussian, Inc.),
 the Gaussian 90(TM) system (copyright 1990, Gaussian, Inc.),
 the Gaussian 88(TM) system (copyright 1988, Gaussian, Inc.),
 the Gaussian 86(TM) system (copyright 1986, Carnegie Mellon
 University), and the Gaussian 82(TM) system (copyright 1983,
 Carnegie Mellon University). Gaussian is a federally registered
 trademark of Gaussian, Inc.
  
 This software contains proprietary and confidential information,
 including trade secrets, belonging to Gaussian, Inc.
  
 This software is provided under written license and may be
 used, copied, transmitted, or stored only in accord with that
 written license.
  
 The following legend is applicable only to US Government
 contracts under FAR:
  
                    RESTRICTED RIGHTS LEGEND
  
 Use, reproduction and disclosure by the US Government is
 subject to restrictions as set forth in subparagraphs (a)
 and (c) of the Commercial Computer Software - Restricted
 Rights clause in FAR 52.227-19.
  
 Gaussian, Inc.
 340 Quinnipiac St., Bldg. 40, Wallingford CT 06492
  
  
 ---------------------------------------------------------------
 Warning -- This program may not be used in any manner that
 competes with the business of Gaussian, Inc. or will provide
 assistance to any competitor of Gaussian, Inc.  The licensee
 of this program is prohibited from giving any competitor of
 Gaussian, Inc. access to this program.  By using this program,
 the user acknowledges that Gaussian, Inc. is engaged in the
 business of creating and licensing software in the field of
 computational chemistry and represents and warrants to the
 licensee that it is not a competitor of Gaussian, Inc. and that
 it will not use this program in any manner prohibited above.
 ---------------------------------------------------------------
  

 Cite this work as:
 Gaussian 16, Revision A.03,
 M. J. Frisch, G. W. Trucks, H. B. Schlegel, G. E. Scuseria, 
 M. A. Robb, J. R. Cheeseman, G. Scalmani, V. Barone, 
 G. A. Petersson, H. Nakatsuji, X. Li, M. Caricato, A. V. Marenich, 
 J. Bloino, B. G. Janesko, R. Gomperts, B. Mennucci, H. P. Hratchian, 
 J. V. Ortiz, A. F. Izmaylov, J. L. Sonnenberg, D. Williams-Young, 
 F. Ding, F. Lipparini, F. Egidi, J. Goings, B. Peng, A. Petrone, 
 T. Henderson, D. Ranasinghe, V. G. Zakrzewski, J. Gao, N. Rega, 
 G. Zheng, W. Liang, M. Hada, M. Ehara, K. Toyota, R. Fukuda, 
 J. Hasegawa, M. Ishida, T. Nakajima, Y. Honda, O. Kitao, H. Nakai, 
 T. Vreven, K. Throssell, J. A. Montgomery, Jr., J. E. Peralta, 
 F. Ogliaro, M. J. Bearpark, J. J. Heyd, E. N. Brothers, K. N. Kudin, 
 V. N. Staroverov, T. A. Keith, R. Kobayashi, J. Normand, 
 K. Raghavachari, A. P. Rendell, J. C. Burant, S. S. Iyengar, 
 J. Tomasi, M. Cossi, J. M. Millam, M. Klene, C. Adamo, R. Cammi, 
 J. W. Ochterski, R. L. Martin, K. Morokuma, O. Farkas, 
 J. B. Foresman, and D. J. Fox, Gaussian, Inc., Wallingford CT, 2016.
 
 ******************************************
 Gaussian 16:  EM64L-G16RevA.03 25-Dec-2016
                21-Jan-2018 
 ******************************************
 %nprocshared=32
 Will use up to   32 processors via shared memory.
 %mem=32GB
 %chk=allatoms_t.chk
 ---------------------------------------
 #p wb97xd/cc-pvdz sp scf=(maxcycles=20)
 ---------------------------------------
 1/38=1,172=1/1;
 2/12=2,17=6,18=5,40=1/2;
 3/5=16,11=2,25=1,30=1,74=-58/1,2,3;
 4//1;
 5/5=2,7=20,38=5/2;
 6/7=2,8=2,9=2,10=2,28=1/1;
 99/5=1,9=1/99;
 Leave Link    1 at Sun Jan 21 11:36:11 2018, MaxMem=  4294967296 cpu:               2.7 elap:               0.1
 (Enter /share/apps/g16/l101.exe)
 ------------------
 Base pair stacking
 ------------------
 Symbolic Z-matrix:
 Charge =  0 Multiplicity = 1
 N                     1.20528   1.9767   -6.73136 
 C                     1.69849   3.36719  -6.69548 
 C                    -0.0509    0.1815   -6.54011 
 N                     1.15713  -0.24507  -7.07248 
 C                     1.86559   0.85355  -7.1664 
 H                     2.88526   0.90287  -7.5495 
 N                    -2.25083   0.21798  -5.69044 
 C                    -2.08906   1.5365   -5.53909 
 H                    -2.94615   2.06562  -5.12472 
 N                    -1.03247   2.29599  -5.82141 
 C                    -0.03616   1.54855  -6.32451 
 C                    -1.22994  -0.50593  -6.19916 
 N                    -1.3895   -1.82224  -6.351 
 H                    -0.66044  -2.39736  -6.72371 
 H                    -2.24277  -2.27812  -6.09753 
 H                     1.93324   3.66304  -7.62151 
 H                     0.98725   3.96449  -6.32602 
 H                     2.51073   3.42007  -6.11457 
 N                     0.39267   3.35579  -3.1639 
 C                    -0.51423   2.33582  -3.00502 
 C                     0.07872   4.79677  -3.08825 
 N                    -3.76374   1.26643  -2.406 
 H                    -4.25107   0.39748  -2.32432 
 H                    -4.30332   2.10143  -2.29488 
 N                    -1.8339    2.47748  -2.75512 
 C                    -2.4459    1.31098  -2.65341 
 N                    -1.81558   0.09746  -2.78596 
 H                    -2.36325  -0.74415  -2.69261 
 C                    -0.45876  -0.07206  -3.04317 
 O                     0.01103  -1.21212  -3.14467 
 C                     0.21204   1.17229  -3.15505 
 N                     1.54801   1.45607  -3.40312 
 C                     1.60775   2.76015  -3.39935 
 H                     2.51624   3.34062  -3.56358 
 H                     0.30745   5.23547  -3.9566 
 H                    -0.89615   4.91408  -2.9035 
 H                     0.60917   5.21702  -2.35284 
 H                    -5.75304  -4.5333   -2.75864 
 H                    -5.23368  -4.74925  -1.08882 
 H                    -5.23512  -3.13943  -1.80983 
 H                    -1.57635  -6.82639  -3.42462 
 C                    -1.93966  -5.8276   -3.18245 
 O                     0.11727  -4.75766  -3.68384 
 C                    -1.05533  -4.71012  -3.31298 
 H                    -1.02076  -2.67943  -3.06112 
 N                    -1.61493  -3.49266  -2.98149 
 O                    -3.30283  -2.14394  -2.28208 
 C                    -2.89781  -3.26086  -2.5525 
 H                    -3.90846  -6.44945  -2.65052 
 C                    -3.19654  -5.6333   -2.7664 
 C                    -5.06843  -4.18973  -1.9975 
 N                    -3.68938  -4.38804  -2.45207 
 H                    -9.29375  -2.78316  -3.67234 
 H                    -8.03568  -2.03154  -2.9551 
 H                    -8.66874  -3.37993  -2.28791 
 H                    -2.90917  -5.15921  -6.61463 
 H                    -4.27355  -6.16687  -6.43241 
 N                    -3.83269  -5.28677  -6.25271 
 C                    -4.44979  -4.32659  -5.56104 
 C                    -6.25326  -3.37265  -4.33661 
 N                    -5.6369   -2.20072  -4.11055 
 H                    -3.8516   -1.28147  -4.52079 
 C                    -4.42294  -2.1986   -4.65754 
 N                    -3.80308  -3.15929  -5.35067 
 H                    -8.61866  -5.57321  -4.21588 
 C                    -7.69389  -5.02471  -4.39725 
 N                    -6.66716  -5.49441  -5.06275 
 C                    -5.74665  -4.4569   -5.03179 
 C                    -8.45267  -2.91908  -3.14878 
 N                    -7.51203  -3.7462   -3.92922 
 
 ITRead=  0  0  0  0  0  0  0  0  0  0  0  0  0  0  0  0  0  0  0  0
 ITRead=  0  0  0  0  0  0  0  0  0  0  0  0  0  0  0  0  0  0  0  0
 ITRead=  0  0  0  0  0  0  0  0  0  0  0  0  0  0  0  0  0  0  0  0
 ITRead=  0  0  0  0  0  0  0  0  0  0
 MicOpt= -1 -1 -1 -1 -1 -1 -1 -1 -1 -1 -1 -1 -1 -1 -1 -1 -1 -1 -1 -1
 MicOpt= -1 -1 -1 -1 -1 -1 -1 -1 -1 -1 -1 -1 -1 -1 -1 -1 -1 -1 -1 -1
 MicOpt= -1 -1 -1 -1 -1 -1 -1 -1 -1 -1 -1 -1 -1 -1 -1 -1 -1 -1 -1 -1
 MicOpt= -1 -1 -1 -1 -1 -1 -1 -1 -1 -1
 NAtoms=     70 NQM=       70 NQMF=       0 NMMI=      0 NMMIF=      0
                NMic=       0 NMicF=      0.
                    Isotopes and Nuclear Properties:
 (Nuclear quadrupole moments (NQMom) in fm**2, nuclear magnetic moments (NMagM)
  in nuclear magnetons)

  Atom         1           2           3           4           5           6           7           8           9          10
 IAtWgt=          14          12          12          14          12           1          14          12           1          14
 AtmWgt=  14.0030740  12.0000000  12.0000000  14.0030740  12.0000000   1.0078250  14.0030740  12.0000000   1.0078250  14.0030740
 NucSpn=           2           0           0           2           0           1           2           0           1           2
 AtZEff=  -0.0000000  -0.0000000  -0.0000000  -0.0000000  -0.0000000  -0.0000000  -0.0000000  -0.0000000  -0.0000000  -0.0000000
 NQMom=    2.0440000   0.0000000   0.0000000   2.0440000   0.0000000   0.0000000   2.0440000   0.0000000   0.0000000   2.0440000
 NMagM=    0.4037610   0.0000000   0.0000000   0.4037610   0.0000000   2.7928460   0.4037610   0.0000000   2.7928460   0.4037610
 AtZNuc=   7.0000000   6.0000000   6.0000000   7.0000000   6.0000000   1.0000000   7.0000000   6.0000000   1.0000000   7.0000000

  Atom        11          12          13          14          15          16          17          18          19          20
 IAtWgt=          12          12          14           1           1           1           1           1          14          12
 AtmWgt=  12.0000000  12.0000000  14.0030740   1.0078250   1.0078250   1.0078250   1.0078250   1.0078250  14.0030740  12.0000000
 NucSpn=           0           0           2           1           1           1           1           1           2           0
 AtZEff=  -0.0000000  -0.0000000  -0.0000000  -0.0000000  -0.0000000  -0.0000000  -0.0000000  -0.0000000  -0.0000000  -0.0000000
 NQMom=    0.0000000   0.0000000   2.0440000   0.0000000   0.0000000   0.0000000   0.0000000   0.0000000   2.0440000   0.0000000
 NMagM=    0.0000000   0.0000000   0.4037610   2.7928460   2.7928460   2.7928460   2.7928460   2.7928460   0.4037610   0.0000000
 AtZNuc=   6.0000000   6.0000000   7.0000000   1.0000000   1.0000000   1.0000000   1.0000000   1.0000000   7.0000000   6.0000000

  Atom        21          22          23          24          25          26          27          28          29          30
 IAtWgt=          12          14           1           1          14          12          14           1          12          16
 AtmWgt=  12.0000000  14.0030740   1.0078250   1.0078250  14.0030740  12.0000000  14.0030740   1.0078250  12.0000000  15.9949146
 NucSpn=           0           2           1           1           2           0           2           1           0           0
 AtZEff=  -0.0000000  -0.0000000  -0.0000000  -0.0000000  -0.0000000  -0.0000000  -0.0000000  -0.0000000  -0.0000000  -0.0000000
 NQMom=    0.0000000   2.0440000   0.0000000   0.0000000   2.0440000   0.0000000   2.0440000   0.0000000   0.0000000   0.0000000
 NMagM=    0.0000000   0.4037610   2.7928460   2.7928460   0.4037610   0.0000000   0.4037610   2.7928460   0.0000000   0.0000000
 AtZNuc=   6.0000000   7.0000000   1.0000000   1.0000000   7.0000000   6.0000000   7.0000000   1.0000000   6.0000000   8.0000000

  Atom        31          32          33          34          35          36          37          38          39          40
 IAtWgt=          12          14          12           1           1           1           1           1           1           1
 AtmWgt=  12.0000000  14.0030740  12.0000000   1.0078250   1.0078250   1.0078250   1.0078250   1.0078250   1.0078250   1.0078250
 NucSpn=           0           2           0           1           1           1           1           1           1           1
 AtZEff=  -0.0000000  -0.0000000  -0.0000000  -0.0000000  -0.0000000  -0.0000000  -0.0000000  -0.0000000  -0.0000000  -0.0000000
 NQMom=    0.0000000   2.0440000   0.0000000   0.0000000   0.0000000   0.0000000   0.0000000   0.0000000   0.0000000   0.0000000
 NMagM=    0.0000000   0.4037610   0.0000000   2.7928460   2.7928460   2.7928460   2.7928460   2.7928460   2.7928460   2.7928460
 AtZNuc=   6.0000000   7.0000000   6.0000000   1.0000000   1.0000000   1.0000000   1.0000000   1.0000000   1.0000000   1.0000000

  Atom        41          42          43          44          45          46          47          48          49          50
 IAtWgt=           1          12          16          12           1          14          16          12           1          12
 AtmWgt=   1.0078250  12.0000000  15.9949146  12.0000000   1.0078250  14.0030740  15.9949146  12.0000000   1.0078250  12.0000000
 NucSpn=           1           0           0           0           1           2           0           0           1           0
 AtZEff=  -0.0000000  -0.0000000  -0.0000000  -0.0000000  -0.0000000  -0.0000000  -0.0000000  -0.0000000  -0.0000000  -0.0000000
 NQMom=    0.0000000   0.0000000   0.0000000   0.0000000   0.0000000   2.0440000   0.0000000   0.0000000   0.0000000   0.0000000
 NMagM=    2.7928460   0.0000000   0.0000000   0.0000000   2.7928460   0.4037610   0.0000000   0.0000000   2.7928460   0.0000000
 AtZNuc=   1.0000000   6.0000000   8.0000000   6.0000000   1.0000000   7.0000000   8.0000000   6.0000000   1.0000000   6.0000000

  Atom        51          52          53          54          55          56          57          58          59          60
 IAtWgt=          12          14           1           1           1           1           1          14          12          12
 AtmWgt=  12.0000000  14.0030740   1.0078250   1.0078250   1.0078250   1.0078250   1.0078250  14.0030740  12.0000000  12.0000000
 NucSpn=           0           2           1           1           1           1           1           2           0           0
 AtZEff=  -0.0000000  -0.0000000  -0.0000000  -0.0000000  -0.0000000  -0.0000000  -0.0000000  -0.0000000  -0.0000000  -0.0000000
 NQMom=    0.0000000   2.0440000   0.0000000   0.0000000   0.0000000   0.0000000   0.0000000   2.0440000   0.0000000   0.0000000
 NMagM=    0.0000000   0.4037610   2.7928460   2.7928460   2.7928460   2.7928460   2.7928460   0.4037610   0.0000000   0.0000000
 AtZNuc=   6.0000000   7.0000000   1.0000000   1.0000000   1.0000000   1.0000000   1.0000000   7.0000000   6.0000000   6.0000000

  Atom        61          62          63          64          65          66          67          68          69          70
 IAtWgt=          14           1          12          14           1          12          14          12          12          14
 AtmWgt=  14.0030740   1.0078250  12.0000000  14.0030740   1.0078250  12.0000000  14.0030740  12.0000000  12.0000000  14.0030740
 NucSpn=           2           1           0           2           1           0           2           0           0           2
 AtZEff=  -0.0000000  -0.0000000  -0.0000000  -0.0000000  -0.0000000  -0.0000000  -0.0000000  -0.0000000  -0.0000000  -0.0000000
 NQMom=    2.0440000   0.0000000   0.0000000   2.0440000   0.0000000   0.0000000   2.0440000   0.0000000   0.0000000   2.0440000
 NMagM=    0.4037610   2.7928460   0.0000000   0.4037610   2.7928460   0.0000000   0.4037610   0.0000000   0.0000000   0.4037610
 AtZNuc=   7.0000000   1.0000000   6.0000000   7.0000000   1.0000000   6.0000000   7.0000000   6.0000000   6.0000000   7.0000000
 Leave Link  101 at Sun Jan 21 11:36:11 2018, MaxMem=  4294967296 cpu:               7.0 elap:               0.3
 (Enter /share/apps/g16/l202.exe)
 Stoichiometry    C23H27N17O3
 Framework group  C1[X(C23H27N17O3)]
 Deg. of freedom   204
 Full point group                 C1      NOp   1
 Largest Abelian subgroup         C1      NOp   1
 Largest concise Abelian subgroup C1      NOp   1
                         Standard orientation:                         
 ---------------------------------------------------------------------
 Center     Atomic      Atomic             Coordinates (Angstroms)
 Number     Number       Type             X           Y           Z
 ---------------------------------------------------------------------
      1          7           0        4.892904   -1.339618   -1.607804
      2          6           0        6.252432   -0.771677   -1.692257
      3          6           0        2.707155   -1.568654   -1.522083
      4          7           0        3.234882   -2.849389   -1.445016
      5          6           0        4.530604   -2.660148   -1.499749
      6          1           0        5.275383   -3.455776   -1.465024
      7          7           0        1.204778    0.247528   -1.607580
      8          6           0        2.281317    1.035086   -1.699177
      9          1           0        2.072492    2.101651   -1.770630
     10          7           0        3.571032    0.704519   -1.715674
     11          6           0        3.716985   -0.627578   -1.622806
     12          6           0        1.385021   -1.088173   -1.515530
     13          7           0        0.311635   -1.875989   -1.424014
     14          1           0        0.397838   -2.870407   -1.353971
     15          1           0       -0.614764   -1.499258   -1.422363
     16          1           0        6.717926   -1.136219   -2.498849
     17          1           0        6.194834    0.223697   -1.763277
     18          1           0        6.769634   -1.016260   -0.872093
     19          7           0        5.041403    1.586122    0.981981
     20          6           0        3.667589    1.602986    1.001980
     21          6           0        5.903886    2.726873    0.613850
     22          7           0        0.673242    3.298815    0.533169
     23          1           0       -0.304294    3.104903    0.610991
     24          1           0        0.931236    4.220950    0.243642
     25          7           0        2.881107    2.656028    0.691186
     26          6           0        1.597368    2.364904    0.804648
     27          7           0        1.118407    1.137076    1.192638
     28          1           0        0.120469    1.004511    1.251890
     29          6           0        1.909225    0.039288    1.517171
     30          8           0        1.376529   -1.024874    1.855603
     31          6           0        3.290777    0.336730    1.399959
     32          7           0        4.405584   -0.459083    1.625287
     33          6           0        5.418589    0.322252    1.365395
     34          1           0        6.465686    0.026207    1.437619
     35          1           0        6.466509    2.480678   -0.174598
     36          1           0        5.332338    3.512788    0.381610
     37          1           0        6.495121    2.962189    1.384488
     38          1           0       -4.932948    0.798662    0.729116
     39          1           0       -4.915140    1.043294    2.473968
     40          1           0       -3.643477    1.744878    1.472953
     41          1           0       -3.833854   -3.638336    2.229640
     42          6           0       -3.350332   -2.671540    2.089160
     43          8           0       -1.149463   -3.550821    2.189976
     44          6           0       -1.921287   -2.600370    2.064599
     45          1           0       -0.406238   -1.240060    1.858411
     46          7           0       -1.412226   -1.330517    1.881358
     47          8           0       -1.583032    0.912309    1.568655
     48          6           0       -2.124608   -0.167847    1.725621
     49          1           0       -5.161509   -1.555115    1.951120
     50          6           0       -4.072365   -1.554846    1.939964
     51          6           0       -4.300099    0.896818    1.598560
     52          7           0       -3.496960   -0.318259    1.760718
     53          1           0       -5.865586    3.803347   -1.827545
     54          1           0       -4.546495    3.766446   -0.867993
     55          1           0       -6.034972    3.617763   -0.215005
     56          1           0       -3.154777   -3.097061   -1.509068
     57          1           0       -4.822563   -2.765433   -1.645557
     58          7           0       -3.892696   -2.422063   -1.508917
     59          6           0       -3.648677   -1.121626   -1.334322
     60          6           0       -4.241464    1.173999   -1.133218
     61          7           0       -2.982696    1.606511   -0.951947
     62          1           0       -1.081911    0.848160   -0.839994
     63          6           0       -2.129436    0.584712   -0.979789
     64          7           0       -2.371879   -0.718465   -1.154529
     65          1           0       -7.452695    1.380387   -1.445559
     66          6           0       -6.417102    1.046343   -1.375490
     67          7           0       -6.027882   -0.200949   -1.477730
     68          6           0       -4.650487   -0.134084   -1.325948
     69          6           0       -5.464859    3.396903   -1.006433
     70          7           0       -5.388051    1.931792   -1.166333
 ---------------------------------------------------------------------
 Rotational constants (GHZ):           0.1612626           0.0540321           0.0509916
 Leave Link  202 at Sun Jan 21 11:36:11 2018, MaxMem=  4294967296 cpu:               0.4 elap:               0.0
 (Enter /share/apps/g16/l301.exe)
 Standard basis: CC-pVDZ (5D, 7F)
 Ernie: Thresh=  0.10000D-02 Tol=  0.10000D-05 Strict=F.
 Ernie:  86 primitive shells out of 1081 were deleted.
 There are   780 symmetry adapted cartesian basis functions of A   symmetry.
 There are   737 symmetry adapted basis functions of A   symmetry.
   737 basis functions,  1608 primitive gaussians,   780 cartesian basis functions
   154 alpha electrons      154 beta electrons
       nuclear repulsion energy      5599.5334449600 Hartrees.
 IExCor= 4639 DFT=T Ex+Corr=wB97XD ExCW=0 ScaHFX=  1.000000
 ScaDFX=  1.000000  1.000000  1.000000  1.000000 ScalE2=  1.000000  1.000000
 IRadAn=      5 IRanWt=     -1 IRanGd=            0 ICorTp=0 IEmpDi=121
 HFx  wShort=  0.000000 wLong=  0.200000 cFull=  0.222036 cShort=  0.000000 cLong=  0.777964
 DFx  wShort=  0.000000 wLong=  0.200000 cFull=  0.000000 cShort=  0.000000 cLong=  1.000000
 NAtoms=   70 NActive=   70 NUniq=   70 SFac= 1.00D+00 NAtFMM=   60 NAOKFM=T Big=T
 Integral buffers will be    131072 words long.
 Raffenetti 2 integral format.
 Two-electron integral symmetry is turned on.
 R6Disp:  Grimme-D2 Dispersion energy=       -0.0778988163 Hartrees.
 Nuclear repulsion after empirical dispersion term =     5599.4555461437 Hartrees.
 Leave Link  301 at Sun Jan 21 11:36:11 2018, MaxMem=  4294967296 cpu:               2.8 elap:               0.1
 (Enter /share/apps/g16/l302.exe)
 NPDir=0 NMtPBC=     1 NCelOv=     1 NCel=       1 NClECP=     1 NCelD=      1
         NCelK=      1 NCelE2=     1 NClLst=     1 CellRange=     0.0.
 One-electron integrals computed using PRISM.
 One-electron integral symmetry used in STVInt
 NBasis=   737 RedAO= T EigKep=  6.51D-04  NBF=   737
 NBsUse=   737 1.00D-06 EigRej= -1.00D+00 NBFU=   737
 Precomputing XC quadrature grid using
 IXCGrd= 4 IRadAn=           5 IRanWt=          -1 IRanGd=           0 AccXCQ= 0.00D+00.
 Generated NRdTot=       0 NPtTot=           0 NUsed=           0 NTot=          32
 NSgBfM=   764   761   762   764   764 MxSgAt=    70 MxSgA2=    70.
 Leave Link  302 at Sun Jan 21 11:36:16 2018, MaxMem=  4294967296 cpu:             137.5 elap:               4.3
 (Enter /share/apps/g16/l303.exe)
 DipDrv:  MaxL=1.
 Leave Link  303 at Sun Jan 21 11:36:16 2018, MaxMem=  4294967296 cpu:              22.4 elap:               0.8
 (Enter /share/apps/g16/l401.exe)
 ExpMin= 1.22D-01 ExpMax= 1.17D+04 ExpMxC= 4.01D+02 IAcc=3 IRadAn=         5 AccDes= 0.00D+00
 Harris functional with IExCor= 4639 and IRadAn=       5 diagonalized for initial guess.
 HarFok:  IExCor= 4639 AccDes= 0.00D+00 IRadAn=         5 IDoV= 1 UseB2=F ITyADJ=14
 ICtDFT=  3500011 ScaDFX=  1.000000  1.000000  1.000000  1.000000
 FoFCou: FMM=F IPFlag=           0 FMFlag=      100000 FMFlg1=        2001
         NFxFlg=           0 DoJE=T BraDBF=F KetDBF=T FulRan=T
         wScrn=  0.000000 ICntrl=       500 IOpCl=  0 I1Cent=   200000004 NGrid=           0
         NMat0=    1 NMatS0=      1 NMatT0=    0 NMatD0=    1 NMtDS0=    0 NMtDT0=    0
 Petite list used in FoFCou.
 Harris En= -1963.85835899175    
 JPrj=0 DoOrth=F DoCkMO=F.
 Leave Link  401 at Sun Jan 21 11:36:29 2018, MaxMem=  4294967296 cpu:             410.8 elap:              12.9
 (Enter /share/apps/g16/l502.exe)
 Integral symmetry usage will be decided dynamically.
 Closed shell SCF:
 Using DIIS extrapolation, IDIIS=  1040.
 NGot=  4294967296 LenX=  4293717438 LenY=  4293108258
 Requested convergence on RMS density matrix=1.00D-08 within  20 cycles.
 Requested convergence on MAX density matrix=1.00D-06.
 Requested convergence on             energy=1.00D-06.
 No special actions if energy rises.
 Fock matrices will be formed incrementally for  20 cycles.
 Integral accuracy reduced to 1.0D-05 until final iterations.

 Cycle   1  Pass 0  IDiag  1:
 FoFJK:  IHMeth= 1 ICntrl=       0 DoSepK=T KAlg= 0 I1Cent=           0 FoldK=F
 IRaf=         1 NMat=       1 IRICut=       1 DoRegI=T DoRafI=F ISym2E= 0 IDoP0=0 IntGTp=1.
 FoFCou: FMM=T IPFlag=           0 FMFlag=      100000 FMFlg1=        2001
         NFxFlg=           0 DoJE=T BraDBF=F KetDBF=F FulRan=T
         wScrn=  0.000000 ICntrl=       500 IOpCl=  0 I1Cent=           0 NGrid=           0
         NMat0=    1 NMatS0=      1 NMatT0=    0 NMatD0=    1 NMtDS0=    0 NMtDT0=    0
 Symmetry not used in FoFCou.
 FMM levels:  10  Number of levels for PrismC:   9
 E= -2048.30103165336    
 DIIS: error= 2.14D-02 at cycle   1 NSaved=   1.
 NSaved= 1 IEnMin= 1 EnMin= -2048.30103165336     IErMin= 1 ErrMin= 2.14D-02
 ErrMax= 2.14D-02  0.00D+00 EMaxC= 1.00D-01 BMatC= 8.29D-01 BMatP= 8.29D-01
 IDIUse=3 WtCom= 7.86D-01 WtEn= 2.14D-01
 Coeff-Com:  0.100D+01
 Coeff-En:   0.100D+01
 Coeff:      0.100D+01
 Gap=     0.265 Goal=   None    Shift=    0.000
 GapD=    0.265 DampG=1.000 DampE=0.500 DampFc=0.5000 IDamp=-1.
 Damping current iteration by 5.00D-01
 RMSDP=1.57D-03 MaxDP=1.30D-01              OVMax= 1.69D-01

 Cycle   2  Pass 0  IDiag  1:
 RMSU=  7.83D-04    CP:  9.98D-01
 E= -2048.49745412587     Delta-E=       -0.196422472512 Rises=F Damp=T
 DIIS: error= 1.17D-02 at cycle   2 NSaved=   2.
 NSaved= 2 IEnMin= 2 EnMin= -2048.49745412587     IErMin= 2 ErrMin= 1.17D-02
 ErrMax= 1.17D-02  0.00D+00 EMaxC= 1.00D-01 BMatC= 1.44D-01 BMatP= 8.29D-01
 IDIUse=3 WtCom= 8.83D-01 WtEn= 1.17D-01
 Coeff-Com: -0.205D+00 0.120D+01
 Coeff-En:   0.000D+00 0.100D+01
 Coeff:     -0.181D+00 0.118D+01
 Gap=     0.302 Goal=   None    Shift=    0.000
 RMSDP=5.95D-04 MaxDP=3.59D-02 DE=-1.96D-01 OVMax= 1.11D-01

 Cycle   3  Pass 0  IDiag  1:
 RMSU=  5.78D-04    CP:  9.94D-01  1.16D+00
 E= -2048.67484204419     Delta-E=       -0.177387918318 Rises=F Damp=F
 DIIS: error= 7.00D-03 at cycle   3 NSaved=   3.
 NSaved= 3 IEnMin= 3 EnMin= -2048.67484204419     IErMin= 3 ErrMin= 7.00D-03
 ErrMax= 7.00D-03  0.00D+00 EMaxC= 1.00D-01 BMatC= 6.25D-02 BMatP= 1.44D-01
 IDIUse=3 WtCom= 9.30D-01 WtEn= 7.00D-02
 Coeff-Com: -0.234D+00 0.553D+00 0.681D+00
 Coeff-En:   0.000D+00 0.000D+00 0.100D+01
 Coeff:     -0.218D+00 0.514D+00 0.703D+00
 Gap=     0.289 Goal=   None    Shift=    0.000
 RMSDP=3.54D-04 MaxDP=3.47D-02 DE=-1.77D-01 OVMax= 7.23D-02

 Cycle   4  Pass 0  IDiag  1:
 RMSU=  2.03D-04    CP:  9.94D-01  1.45D+00  6.71D-01
 E= -2048.72152615175     Delta-E=       -0.046684107564 Rises=F Damp=F
 DIIS: error= 2.73D-03 at cycle   4 NSaved=   4.
 NSaved= 4 IEnMin= 4 EnMin= -2048.72152615175     IErMin= 4 ErrMin= 2.73D-03
 ErrMax= 2.73D-03  0.00D+00 EMaxC= 1.00D-01 BMatC= 9.04D-03 BMatP= 6.25D-02
 IDIUse=3 WtCom= 9.73D-01 WtEn= 2.73D-02
 Coeff-Com: -0.976D-01 0.189D+00 0.378D+00 0.531D+00
 Coeff-En:   0.000D+00 0.000D+00 0.609D-01 0.939D+00
 Coeff:     -0.949D-01 0.184D+00 0.369D+00 0.542D+00
 Gap=     0.289 Goal=   None    Shift=    0.000
 RMSDP=1.26D-04 MaxDP=1.22D-02 DE=-4.67D-02 OVMax= 1.36D-02

 Cycle   5  Pass 0  IDiag  1:
 RMSU=  6.21D-05    CP:  9.93D-01  1.42D+00  8.02D-01  6.21D-01
 E= -2048.72883419771     Delta-E=       -0.007308045960 Rises=F Damp=F
 DIIS: error= 5.53D-04 at cycle   5 NSaved=   5.
 NSaved= 5 IEnMin= 5 EnMin= -2048.72883419771     IErMin= 5 ErrMin= 5.53D-04
 ErrMax= 5.53D-04  0.00D+00 EMaxC= 1.00D-01 BMatC= 2.97D-04 BMatP= 9.04D-03
 IDIUse=3 WtCom= 9.94D-01 WtEn= 5.53D-03
 Coeff-Com: -0.260D-01 0.450D-01 0.124D+00 0.242D+00 0.615D+00
 Coeff-En:   0.000D+00 0.000D+00 0.000D+00 0.000D+00 0.100D+01
 Coeff:     -0.259D-01 0.448D-01 0.123D+00 0.241D+00 0.617D+00
 Gap=     0.289 Goal=   None    Shift=    0.000
 RMSDP=2.64D-05 MaxDP=2.06D-03 DE=-7.31D-03 OVMax= 3.22D-03

 Failed to achieve initial convergence to 1.0D-08 in  6 cycles.
 Switch to full accuracy anyway.
 Cycle   6  Pass 1  IDiag  1:
 E= -2048.72914173531     Delta-E=       -0.000307537598 Rises=F Damp=F
 DIIS: error= 2.49D-04 at cycle   1 NSaved=   1.
 NSaved= 1 IEnMin= 1 EnMin= -2048.72914173531     IErMin= 1 ErrMin= 2.49D-04
 ErrMax= 2.49D-04  0.00D+00 EMaxC= 1.00D-01 BMatC= 8.02D-05 BMatP= 8.02D-05
 IDIUse=3 WtCom= 9.98D-01 WtEn= 2.49D-03
 Coeff-Com:  0.100D+01
 Coeff-En:   0.100D+01
 Coeff:      0.100D+01
 Gap=     0.289 Goal=   None    Shift=    0.000
 RMSDP=2.64D-05 MaxDP=2.06D-03 DE=-3.08D-04 OVMax= 2.40D-03

 Cycle   7  Pass 1  IDiag  1:
 RMSU=  1.19D-04    CP:  1.00D+00
 E= -2048.72919799534     Delta-E=       -0.000056260029 Rises=F Damp=F
 DIIS: error= 2.11D-04 at cycle   2 NSaved=   2.
 NSaved= 2 IEnMin= 2 EnMin= -2048.72919799534     IErMin= 2 ErrMin= 2.11D-04
 ErrMax= 2.11D-04  0.00D+00 EMaxC= 1.00D-01 BMatC= 4.77D-05 BMatP= 8.02D-05
 IDIUse=3 WtCom= 9.98D-01 WtEn= 2.11D-03
 Coeff-Com:  0.413D+00 0.587D+00
 Coeff-En:   0.000D+00 0.100D+01
 Coeff:      0.412D+00 0.588D+00
 Gap=     0.289 Goal=   None    Shift=    0.000
 RMSDP=1.20D-05 MaxDP=1.18D-03 DE=-5.63D-05 OVMax= 1.52D-03

 Cycle   8  Pass 1  IDiag  1:
 RMSU=  1.16D-05    CP:  1.00D+00  1.02D+00
 E= -2048.72923186254     Delta-E=       -0.000033867200 Rises=F Damp=F
 DIIS: error= 1.19D-04 at cycle   3 NSaved=   3.
 NSaved= 3 IEnMin= 3 EnMin= -2048.72923186254     IErMin= 3 ErrMin= 1.19D-04
 ErrMax= 1.19D-04  0.00D+00 EMaxC= 1.00D-01 BMatC= 1.12D-05 BMatP= 4.77D-05
 IDIUse=3 WtCom= 9.99D-01 WtEn= 1.19D-03
 Coeff-Com: -0.187D-01 0.314D+00 0.705D+00
 Coeff-En:   0.000D+00 0.143D+00 0.857D+00
 Coeff:     -0.187D-01 0.314D+00 0.705D+00
 Gap=     0.289 Goal=   None    Shift=    0.000
 RMSDP=5.83D-06 MaxDP=4.94D-04 DE=-3.39D-05 OVMax= 5.37D-04

 Cycle   9  Pass 1  IDiag  1:
 RMSU=  3.86D-06    CP:  1.00D+00  1.05D+00  7.57D-01
 E= -2048.72924206731     Delta-E=       -0.000010204768 Rises=F Damp=F
 DIIS: error= 3.22D-05 at cycle   4 NSaved=   4.
 NSaved= 4 IEnMin= 4 EnMin= -2048.72924206731     IErMin= 4 ErrMin= 3.22D-05
 ErrMax= 3.22D-05  0.00D+00 EMaxC= 1.00D-01 BMatC= 5.11D-07 BMatP= 1.12D-05
 IDIUse=1 WtCom= 1.00D+00 WtEn= 0.00D+00
 Coeff-Com: -0.294D-01 0.895D-01 0.263D+00 0.677D+00
 Coeff:     -0.294D-01 0.895D-01 0.263D+00 0.677D+00
 Gap=     0.289 Goal=   None    Shift=    0.000
 RMSDP=1.42D-06 MaxDP=1.32D-04 DE=-1.02D-05 OVMax= 4.78D-04

 Cycle  10  Pass 1  IDiag  1:
 RMSU=  1.28D-06    CP:  1.00D+00  1.05D+00  7.88D-01  1.09D+00
 E= -2048.72924288960     Delta-E=       -0.000000822295 Rises=F Damp=F
 DIIS: error= 1.14D-05 at cycle   5 NSaved=   5.
 NSaved= 5 IEnMin= 5 EnMin= -2048.72924288960     IErMin= 5 ErrMin= 1.14D-05
 ErrMax= 1.14D-05  0.00D+00 EMaxC= 1.00D-01 BMatC= 1.14D-07 BMatP= 5.11D-07
 IDIUse=1 WtCom= 1.00D+00 WtEn= 0.00D+00
 Coeff-Com: -0.254D-02-0.544D-01-0.119D+00 0.189D+00 0.986D+00
 Coeff:     -0.254D-02-0.544D-01-0.119D+00 0.189D+00 0.986D+00
 Gap=     0.289 Goal=   None    Shift=    0.000
 RMSDP=1.20D-06 MaxDP=7.64D-05 DE=-8.22D-07 OVMax= 2.48D-04

 Cycle  11  Pass 1  IDiag  1:
 RMSU=  5.06D-07    CP:  1.00D+00  1.05D+00  7.97D-01  1.37D+00  1.18D+00
 E= -2048.72924313736     Delta-E=       -0.000000247758 Rises=F Damp=F
 DIIS: error= 7.66D-06 at cycle   6 NSaved=   6.
 NSaved= 6 IEnMin= 6 EnMin= -2048.72924313736     IErMin= 6 ErrMin= 7.66D-06
 ErrMax= 7.66D-06  0.00D+00 EMaxC= 1.00D-01 BMatC= 3.00D-08 BMatP= 1.14D-07
 IDIUse=1 WtCom= 1.00D+00 WtEn= 0.00D+00
 Coeff-Com:  0.465D-02-0.456D-01-0.115D+00-0.927D-02 0.538D+00 0.627D+00
 Coeff:      0.465D-02-0.456D-01-0.115D+00-0.927D-02 0.538D+00 0.627D+00
 Gap=     0.289 Goal=   None    Shift=    0.000
 RMSDP=3.70D-07 MaxDP=3.62D-05 DE=-2.48D-07 OVMax= 1.26D-04

 Cycle  12  Pass 1  IDiag  1:
 RMSU=  1.88D-07    CP:  1.00D+00  1.05D+00  7.98D-01  1.44D+00  1.31D+00
                    CP:  9.22D-01
 E= -2048.72924317967     Delta-E=       -0.000000042310 Rises=F Damp=F
 DIIS: error= 9.10D-07 at cycle   7 NSaved=   7.
 NSaved= 7 IEnMin= 7 EnMin= -2048.72924317967     IErMin= 7 ErrMin= 9.10D-07
 ErrMax= 9.10D-07  0.00D+00 EMaxC= 1.00D-01 BMatC= 7.69D-10 BMatP= 3.00D-08
 IDIUse=1 WtCom= 1.00D+00 WtEn= 0.00D+00
 Coeff-Com:  0.101D-02-0.662D-02-0.183D-01-0.904D-02 0.494D-01 0.125D+00
 Coeff-Com:  0.858D+00
 Coeff:      0.101D-02-0.662D-02-0.183D-01-0.904D-02 0.494D-01 0.125D+00
 Coeff:      0.858D+00
 Gap=     0.289 Goal=   None    Shift=    0.000
 RMSDP=8.63D-08 MaxDP=5.54D-06 DE=-4.23D-08 OVMax= 2.34D-05

 Cycle  13  Pass 1  IDiag  1:
 RMSU=  5.03D-08    CP:  1.00D+00  1.05D+00  7.98D-01  1.44D+00  1.33D+00
                    CP:  1.01D+00  1.14D+00
 E= -2048.72924318142     Delta-E=       -0.000000001749 Rises=F Damp=F
 DIIS: error= 5.48D-07 at cycle   8 NSaved=   8.
 NSaved= 8 IEnMin= 8 EnMin= -2048.72924318142     IErMin= 8 ErrMin= 5.48D-07
 ErrMax= 5.48D-07  0.00D+00 EMaxC= 1.00D-01 BMatC= 3.03D-10 BMatP= 7.69D-10
 IDIUse=1 WtCom= 1.00D+00 WtEn= 0.00D+00
 Coeff-Com: -0.706D-03 0.862D-02 0.206D-01-0.240D-03-0.114D+00-0.967D-01
 Coeff-Com:  0.419D+00 0.763D+00
 Coeff:     -0.706D-03 0.862D-02 0.206D-01-0.240D-03-0.114D+00-0.967D-01
 Coeff:      0.419D+00 0.763D+00
 Gap=     0.289 Goal=   None    Shift=    0.000
 RMSDP=4.62D-08 MaxDP=2.67D-06 DE=-1.75D-09 OVMax= 1.13D-05

 Cycle  14  Pass 1  IDiag  1:
 RMSU=  2.74D-08    CP:  1.00D+00  1.05D+00  7.98D-01  1.45D+00  1.34D+00
                    CP:  1.05D+00  1.29D+00  1.11D+00
 E= -2048.72924318217     Delta-E=       -0.000000000757 Rises=F Damp=F
 DIIS: error= 1.59D-07 at cycle   9 NSaved=   9.
 NSaved= 9 IEnMin= 9 EnMin= -2048.72924318217     IErMin= 9 ErrMin= 1.59D-07
 ErrMax= 1.59D-07  0.00D+00 EMaxC= 1.00D-01 BMatC= 3.05D-11 BMatP= 3.03D-10
 IDIUse=1 WtCom= 1.00D+00 WtEn= 0.00D+00
 Coeff-Com: -0.411D-03 0.441D-02 0.108D-01 0.113D-02-0.531D-01-0.550D-01
 Coeff-Com:  0.816D-01 0.305D+00 0.705D+00
 Coeff:     -0.411D-03 0.441D-02 0.108D-01 0.113D-02-0.531D-01-0.550D-01
 Coeff:      0.816D-01 0.305D+00 0.705D+00
 Gap=     0.289 Goal=   None    Shift=    0.000
 RMSDP=1.36D-08 MaxDP=8.09D-07 DE=-7.57D-10 OVMax= 3.30D-06

 Cycle  15  Pass 1  IDiag  1:
 RMSU=  9.00D-09    CP:  1.00D+00  1.05D+00  7.98D-01  1.45D+00  1.34D+00
                    CP:  1.06D+00  1.31D+00  1.25D+00  1.11D+00
 E= -2048.72924318209     Delta-E=        0.000000000084 Rises=F Damp=F
 DIIS: error= 8.54D-08 at cycle  10 NSaved=  10.
 NSaved=10 IEnMin= 9 EnMin= -2048.72924318217     IErMin=10 ErrMin= 8.54D-08
 ErrMax= 8.54D-08  0.00D+00 EMaxC= 1.00D-01 BMatC= 5.82D-12 BMatP= 3.05D-11
 IDIUse=1 WtCom= 1.00D+00 WtEn= 0.00D+00
 Coeff-Com:  0.343D-05-0.282D-03-0.571D-03 0.175D-03 0.527D-02 0.818D-03
 Coeff-Com: -0.575D-01-0.574D-01 0.285D+00 0.824D+00
 Coeff:      0.343D-05-0.282D-03-0.571D-03 0.175D-03 0.527D-02 0.818D-03
 Coeff:     -0.575D-01-0.574D-01 0.285D+00 0.824D+00
 Gap=     0.289 Goal=   None    Shift=    0.000
 RMSDP=7.03D-09 MaxDP=3.87D-07 DE= 8.37D-11 OVMax= 1.53D-06

 SCF Done:  E(RwB97XD) =  -2048.72924318     A.U. after   15 cycles
            NFock= 15  Conv=0.70D-08     -V/T= 2.0053
 KE= 2.037919392142D+03 PE=-1.597942429815D+04 EE= 6.293320116679D+03
 Leave Link  502 at Sun Jan 21 11:48:31 2018, MaxMem=  4294967296 cpu:           22356.3 elap:             722.0
 (Enter /share/apps/g16/l601.exe)
 Copying SCF densities to generalized density rwf, IOpCl= 0 IROHF=0.

 **********************************************************************

            Population analysis using the SCF density.

 **********************************************************************

 Orbital symmetries:
       Occupied  (A) (A) (A) (A) (A) (A) (A) (A) (A) (A) (A) (A)
                 (A) (A) (A) (A) (A) (A) (A) (A) (A) (A) (A) (A)
                 (A) (A) (A) (A) (A) (A) (A) (A) (A) (A) (A) (A)
                 (A) (A) (A) (A) (A) (A) (A) (A) (A) (A) (A) (A)
                 (A) (A) (A) (A) (A) (A) (A) (A) (A) (A) (A) (A)
                 (A) (A) (A) (A) (A) (A) (A) (A) (A) (A) (A) (A)
                 (A) (A) (A) (A) (A) (A) (A) (A) (A) (A) (A) (A)
                 (A) (A) (A) (A) (A) (A) (A) (A) (A) (A) (A) (A)
                 (A) (A) (A) (A) (A) (A) (A) (A) (A) (A) (A) (A)
                 (A) (A) (A) (A) (A) (A) (A) (A) (A) (A) (A) (A)
                 (A) (A) (A) (A) (A) (A) (A) (A) (A) (A) (A) (A)
                 (A) (A) (A) (A) (A) (A) (A) (A) (A) (A) (A) (A)
                 (A) (A) (A) (A) (A) (A) (A) (A) (A) (A)
       Virtual   (A) (A) (A) (A) (A) (A) (A) (A) (A) (A) (A) (A)
                 (A) (A) (A) (A) (A) (A) (A) (A) (A) (A) (A) (A)
                 (A) (A) (A) (A) (A) (A) (A) (A) (A) (A) (A) (A)
                 (A) (A) (A) (A) (A) (A) (A) (A) (A) (A) (A) (A)
                 (A) (A) (A) (A) (A) (A) (A) (A) (A) (A) (A) (A)
                 (A) (A) (A) (A) (A) (A) (A) (A) (A) (A) (A) (A)
                 (A) (A) (A) (A) (A) (A) (A) (A) (A) (A) (A) (A)
                 (A) (A) (A) (A) (A) (A) (A) (A) (A) (A) (A) (A)
                 (A) (A) (A) (A) (A) (A) (A) (A) (A) (A) (A) (A)
                 (A) (A) (A) (A) (A) (A) (A) (A) (A) (A) (A) (A)
                 (A) (A) (A) (A) (A) (A) (A) (A) (A) (A) (A) (A)
                 (A) (A) (A) (A) (A) (A) (A) (A) (A) (A) (A) (A)
                 (A) (A) (A) (A) (A) (A) (A) (A) (A) (A) (A) (A)
                 (A) (A) (A) (A) (A) (A) (A) (A) (A) (A) (A) (A)
                 (A) (A) (A) (A) (A) (A) (A) (A) (A) (A) (A) (A)
                 (A) (A) (A) (A) (A) (A) (A) (A) (A) (A) (A) (A)
                 (A) (A) (A) (A) (A) (A) (A) (A) (A) (A) (A) (A)
                 (A) (A) (A) (A) (A) (A) (A) (A) (A) (A) (A) (A)
                 (A) (A) (A) (A) (A) (A) (A) (A) (A) (A) (A) (A)
                 (A) (A) (A) (A) (A) (A) (A) (A) (A) (A) (A) (A)
                 (A) (A) (A) (A) (A) (A) (A) (A) (A) (A) (A) (A)
                 (A) (A) (A) (A) (A) (A) (A) (A) (A) (A) (A) (A)
                 (A) (A) (A) (A) (A) (A) (A) (A) (A) (A) (A) (A)
                 (A) (A) (A) (A) (A) (A) (A) (A) (A) (A) (A) (A)
                 (A) (A) (A) (A) (A) (A) (A) (A) (A) (A) (A) (A)
                 (A) (A) (A) (A) (A) (A) (A) (A) (A) (A) (A) (A)
                 (A) (A) (A) (A) (A) (A) (A) (A) (A) (A) (A) (A)
                 (A) (A) (A) (A) (A) (A) (A) (A) (A) (A) (A) (A)
                 (A) (A) (A) (A) (A) (A) (A) (A) (A) (A) (A) (A)
                 (A) (A) (A) (A) (A) (A) (A) (A) (A) (A) (A) (A)
                 (A) (A) (A) (A) (A) (A) (A) (A) (A) (A) (A) (A)
                 (A) (A) (A) (A) (A) (A) (A) (A) (A) (A) (A) (A)
                 (A) (A) (A) (A) (A) (A) (A) (A) (A) (A) (A) (A)
                 (A) (A) (A) (A) (A) (A) (A) (A) (A) (A) (A) (A)
                 (A) (A) (A) (A) (A) (A) (A) (A) (A) (A) (A) (A)
                 (A) (A) (A) (A) (A) (A) (A) (A) (A) (A) (A) (A)
                 (A) (A) (A) (A) (A) (A) (A) (A) (A) (A) (A) (A)
                 (A) (A) (A) (A) (A) (A) (A) (A) (A) (A) (A) (A)
                 (A) (A) (A) (A) (A) (A) (A) (A) (A) (A) (A) (A)
                 (A) (A) (A) (A) (A) (A) (A) (A) (A) (A) (A) (A)
                 (A) (A) (A) (A) (A) (A) (A) (A) (A) (A) (A) (A)
                 (A) (A) (A) (A) (A) (A) (A) (A) (A) (A) (A) (A)
                 (A) (A) (A) (A) (A) (A) (A) (A) (A) (A) (A) (A)
                 (A) (A) (A) (A) (A) (A) (A) (A) (A) (A) (A) (A)
                 (A) (A) (A) (A) (A) (A) (A) (A) (A) (A) (A) (A)
                 (A) (A) (A) (A) (A) (A) (A) (A) (A) (A) (A) (A)
                 (A) (A) (A) (A) (A) (A) (A) (A) (A) (A) (A) (A)
                 (A) (A) (A) (A) (A) (A) (A) (A) (A) (A) (A) (A)
                 (A) (A) (A) (A) (A) (A) (A)
 The electronic state is 1-A.
 Alpha  occ. eigenvalues --  -19.25172 -19.21432 -19.20466 -14.52857 -14.51780
 Alpha  occ. eigenvalues --  -14.48836 -14.48641 -14.48623 -14.47251 -14.46601
 Alpha  occ. eigenvalues --  -14.46515 -14.45894 -14.44751 -14.44585 -14.42934
 Alpha  occ. eigenvalues --  -14.41822 -14.41244 -14.41160 -14.41153 -14.40706
 Alpha  occ. eigenvalues --  -10.44830 -10.41031 -10.40467 -10.39540 -10.38372
 Alpha  occ. eigenvalues --  -10.38082 -10.37605 -10.37196 -10.36369 -10.35848
 Alpha  occ. eigenvalues --  -10.34301 -10.34295 -10.33976 -10.33831 -10.33609
 Alpha  occ. eigenvalues --  -10.33431 -10.33212 -10.32986 -10.31106 -10.31011
 Alpha  occ. eigenvalues --  -10.30559 -10.28630 -10.28068  -1.18949  -1.15794
 Alpha  occ. eigenvalues --   -1.13098  -1.12460  -1.11262  -1.10588  -1.09797
 Alpha  occ. eigenvalues --   -1.08710  -1.08450  -1.05435  -1.05290  -1.01871
 Alpha  occ. eigenvalues --   -1.01419  -1.00861  -0.99613  -0.98450  -0.97397
 Alpha  occ. eigenvalues --   -0.96947  -0.96638  -0.93134  -0.90458  -0.88194
 Alpha  occ. eigenvalues --   -0.86331  -0.84196  -0.83996  -0.82950  -0.82537
 Alpha  occ. eigenvalues --   -0.82463  -0.78293  -0.77518  -0.75347  -0.74603
 Alpha  occ. eigenvalues --   -0.73536  -0.73129  -0.72779  -0.71313  -0.70871
 Alpha  occ. eigenvalues --   -0.67337  -0.67245  -0.66557  -0.66040  -0.64730
 Alpha  occ. eigenvalues --   -0.64258  -0.63622  -0.63020  -0.62534  -0.61776
 Alpha  occ. eigenvalues --   -0.61640  -0.60925  -0.60766  -0.59918  -0.59065
 Alpha  occ. eigenvalues --   -0.58690  -0.58292  -0.57485  -0.56821  -0.56063
 Alpha  occ. eigenvalues --   -0.55888  -0.55726  -0.55572  -0.54711  -0.54142
 Alpha  occ. eigenvalues --   -0.54027  -0.53910  -0.53366  -0.53159  -0.52884
 Alpha  occ. eigenvalues --   -0.52233  -0.51912  -0.51859  -0.50751  -0.50478
 Alpha  occ. eigenvalues --   -0.50104  -0.50016  -0.49367  -0.49155  -0.48917
 Alpha  occ. eigenvalues --   -0.48655  -0.48196  -0.47996  -0.47963  -0.47141
 Alpha  occ. eigenvalues --   -0.47046  -0.45642  -0.45267  -0.44766  -0.42398
 Alpha  occ. eigenvalues --   -0.41312  -0.41177  -0.38979  -0.38175  -0.38072
 Alpha  occ. eigenvalues --   -0.37553  -0.37186  -0.37027  -0.35655  -0.35151
 Alpha  occ. eigenvalues --   -0.34724  -0.34378  -0.33683  -0.33316  -0.32845
 Alpha  occ. eigenvalues --   -0.32491  -0.32455  -0.31807  -0.31399  -0.30828
 Alpha  occ. eigenvalues --   -0.30558  -0.30171  -0.25972  -0.25464
 Alpha virt. eigenvalues --    0.03415   0.03686   0.06472   0.07536   0.08842
 Alpha virt. eigenvalues --    0.09297   0.09792   0.10025   0.10840   0.12524
 Alpha virt. eigenvalues --    0.12858   0.13945   0.14290   0.14309   0.14477
 Alpha virt. eigenvalues --    0.15098   0.16201   0.17456   0.17738   0.17910
 Alpha virt. eigenvalues --    0.18484   0.19017   0.19519   0.20255   0.20632
 Alpha virt. eigenvalues --    0.20744   0.21113   0.21190   0.21682   0.22075
 Alpha virt. eigenvalues --    0.22272   0.22808   0.23056   0.23159   0.23968
 Alpha virt. eigenvalues --    0.24205   0.24417   0.24562   0.25502   0.25936
 Alpha virt. eigenvalues --    0.26495   0.27810   0.28067   0.28353   0.28911
 Alpha virt. eigenvalues --    0.28933   0.29821   0.29948   0.30702   0.31188
 Alpha virt. eigenvalues --    0.31798   0.32128   0.32413   0.33219   0.33558
 Alpha virt. eigenvalues --    0.33924   0.34870   0.35357   0.36317   0.36902
 Alpha virt. eigenvalues --    0.37057   0.37674   0.38046   0.38929   0.39084
 Alpha virt. eigenvalues --    0.39572   0.40126   0.40682   0.41038   0.41107
 Alpha virt. eigenvalues --    0.42133   0.42314   0.42690   0.43843   0.44403
 Alpha virt. eigenvalues --    0.45279   0.45999   0.46243   0.46931   0.47149
 Alpha virt. eigenvalues --    0.47490   0.47594   0.48214   0.48916   0.49266
 Alpha virt. eigenvalues --    0.49418   0.49790   0.50964   0.51059   0.51707
 Alpha virt. eigenvalues --    0.52231   0.52674   0.53456   0.53811   0.54045
 Alpha virt. eigenvalues --    0.54355   0.54616   0.55024   0.55465   0.55901
 Alpha virt. eigenvalues --    0.56173   0.56568   0.56899   0.57327   0.57498
 Alpha virt. eigenvalues --    0.58266   0.58362   0.58578   0.58877   0.59795
 Alpha virt. eigenvalues --    0.60285   0.60706   0.60868   0.61023   0.61594
 Alpha virt. eigenvalues --    0.62242   0.62429   0.63050   0.63364   0.63665
 Alpha virt. eigenvalues --    0.63970   0.64307   0.64722   0.65480   0.66134
 Alpha virt. eigenvalues --    0.66286   0.66652   0.67292   0.67451   0.67831
 Alpha virt. eigenvalues --    0.68165   0.68981   0.69461   0.69842   0.70326
 Alpha virt. eigenvalues --    0.71127   0.71199   0.71478   0.72179   0.72598
 Alpha virt. eigenvalues --    0.73180   0.73356   0.73747   0.74292   0.74621
 Alpha virt. eigenvalues --    0.74781   0.75187   0.75532   0.75957   0.76170
 Alpha virt. eigenvalues --    0.76608   0.76658   0.77238   0.77476   0.77659
 Alpha virt. eigenvalues --    0.77839   0.78700   0.78754   0.79467   0.79718
 Alpha virt. eigenvalues --    0.79889   0.79989   0.80491   0.80697   0.81178
 Alpha virt. eigenvalues --    0.81444   0.82187   0.82266   0.82745   0.83809
 Alpha virt. eigenvalues --    0.84104   0.84238   0.84815   0.85072   0.85551
 Alpha virt. eigenvalues --    0.85802   0.86543   0.87313   0.87672   0.88431
 Alpha virt. eigenvalues --    0.88515   0.89067   0.89497   0.89724   0.90070
 Alpha virt. eigenvalues --    0.90587   0.90878   0.91939   0.92011   0.92507
 Alpha virt. eigenvalues --    0.93429   0.93510   0.93964   0.94513   0.95032
 Alpha virt. eigenvalues --    0.95676   0.95834   0.96147   0.96412   0.96973
 Alpha virt. eigenvalues --    0.97889   0.98131   0.98292   0.98858   0.99616
 Alpha virt. eigenvalues --    1.00122   1.00572   1.00640   1.01142   1.01552
 Alpha virt. eigenvalues --    1.01964   1.02355   1.03594   1.04000   1.04693
 Alpha virt. eigenvalues --    1.04812   1.05786   1.06019   1.06495   1.06562
 Alpha virt. eigenvalues --    1.07517   1.08019   1.08335   1.08612   1.09124
 Alpha virt. eigenvalues --    1.10037   1.10466   1.11141   1.11869   1.11928
 Alpha virt. eigenvalues --    1.12480   1.12789   1.13432   1.13912   1.14122
 Alpha virt. eigenvalues --    1.14751   1.14855   1.15158   1.15688   1.16298
 Alpha virt. eigenvalues --    1.16829   1.17155   1.17500   1.17910   1.18423
 Alpha virt. eigenvalues --    1.18727   1.19212   1.19635   1.20010   1.20103
 Alpha virt. eigenvalues --    1.20807   1.21238   1.21445   1.22151   1.22361
 Alpha virt. eigenvalues --    1.22921   1.23165   1.23619   1.23792   1.24286
 Alpha virt. eigenvalues --    1.25167   1.25419   1.25591   1.26381   1.27073
 Alpha virt. eigenvalues --    1.27847   1.28432   1.28610   1.29273   1.30035
 Alpha virt. eigenvalues --    1.30197   1.30563   1.31239   1.32364   1.33030
 Alpha virt. eigenvalues --    1.33113   1.34012   1.34367   1.34972   1.35330
 Alpha virt. eigenvalues --    1.35691   1.36306   1.36775   1.37569   1.38640
 Alpha virt. eigenvalues --    1.39246   1.39702   1.40533   1.41420   1.41505
 Alpha virt. eigenvalues --    1.42902   1.44124   1.44515   1.45244   1.46088
 Alpha virt. eigenvalues --    1.46412   1.47738   1.48079   1.48842   1.49876
 Alpha virt. eigenvalues --    1.50368   1.51092   1.51687   1.51953   1.52769
 Alpha virt. eigenvalues --    1.53025   1.54259   1.54655   1.55961   1.56148
 Alpha virt. eigenvalues --    1.56379   1.57105   1.57857   1.58507   1.59338
 Alpha virt. eigenvalues --    1.59946   1.60333   1.61412   1.61885   1.62162
 Alpha virt. eigenvalues --    1.62961   1.63273   1.64538   1.64583   1.64819
 Alpha virt. eigenvalues --    1.65346   1.65748   1.66600   1.67050   1.67805
 Alpha virt. eigenvalues --    1.67870   1.68537   1.68999   1.70094   1.70542
 Alpha virt. eigenvalues --    1.70630   1.70903   1.71594   1.71705   1.71971
 Alpha virt. eigenvalues --    1.72301   1.72954   1.73497   1.73887   1.74888
 Alpha virt. eigenvalues --    1.75368   1.75568   1.75857   1.76112   1.76394
 Alpha virt. eigenvalues --    1.76876   1.77103   1.77646   1.77805   1.78017
 Alpha virt. eigenvalues --    1.78414   1.78822   1.79203   1.79659   1.80048
 Alpha virt. eigenvalues --    1.80437   1.80680   1.81025   1.81240   1.81967
 Alpha virt. eigenvalues --    1.82168   1.82670   1.83025   1.83169   1.83660
 Alpha virt. eigenvalues --    1.84386   1.84785   1.84977   1.85422   1.85998
 Alpha virt. eigenvalues --    1.86255   1.87067   1.87311   1.88062   1.88592
 Alpha virt. eigenvalues --    1.88723   1.89362   1.89681   1.89932   1.90082
 Alpha virt. eigenvalues --    1.90885   1.91633   1.91663   1.92990   1.93227
 Alpha virt. eigenvalues --    1.93695   1.94374   1.95006   1.95108   1.96322
 Alpha virt. eigenvalues --    1.96858   1.97853   1.97954   1.98275   1.99032
 Alpha virt. eigenvalues --    2.01004   2.01463   2.01595   2.02385   2.02711
 Alpha virt. eigenvalues --    2.03260   2.03931   2.04524   2.04724   2.05179
 Alpha virt. eigenvalues --    2.05722   2.06238   2.07472   2.08052   2.08716
 Alpha virt. eigenvalues --    2.09227   2.10004   2.10790   2.11523   2.12049
 Alpha virt. eigenvalues --    2.12949   2.13954   2.14306   2.14921   2.15651
 Alpha virt. eigenvalues --    2.16492   2.17009   2.17809   2.18126   2.19916
 Alpha virt. eigenvalues --    2.20099   2.20928   2.21712   2.22325   2.22820
 Alpha virt. eigenvalues --    2.23544   2.23923   2.24134   2.24711   2.25184
 Alpha virt. eigenvalues --    2.25606   2.26455   2.27050   2.27264   2.27939
 Alpha virt. eigenvalues --    2.28663   2.29230   2.29856   2.30111   2.30957
 Alpha virt. eigenvalues --    2.31397   2.32152   2.32624   2.33068   2.33551
 Alpha virt. eigenvalues --    2.33756   2.34313   2.34791   2.35293   2.35476
 Alpha virt. eigenvalues --    2.36132   2.37411   2.37687   2.37803   2.38164
 Alpha virt. eigenvalues --    2.38982   2.39663   2.41314   2.41624   2.41892
 Alpha virt. eigenvalues --    2.42205   2.43135   2.43959   2.44516   2.44913
 Alpha virt. eigenvalues --    2.45033   2.45875   2.46152   2.46828   2.47938
 Alpha virt. eigenvalues --    2.48695   2.49730   2.50992   2.51916   2.53657
 Alpha virt. eigenvalues --    2.54168   2.54953   2.56018   2.56649   2.56944
 Alpha virt. eigenvalues --    2.57746   2.58520   2.59650   2.59787   2.61561
 Alpha virt. eigenvalues --    2.61931   2.62497   2.64466   2.64892   2.65167
 Alpha virt. eigenvalues --    2.65446   2.65806   2.66708   2.67722   2.68044
 Alpha virt. eigenvalues --    2.68348   2.69271   2.69845   2.70564   2.70931
 Alpha virt. eigenvalues --    2.71456   2.72110   2.72954   2.73493   2.74352
 Alpha virt. eigenvalues --    2.75629   2.76032   2.76591   2.76910   2.78073
 Alpha virt. eigenvalues --    2.78507   2.78897   2.79530   2.80091   2.80521
 Alpha virt. eigenvalues --    2.80660   2.80792   2.81085   2.82099   2.82603
 Alpha virt. eigenvalues --    2.83271   2.83596   2.84145   2.85146   2.85536
 Alpha virt. eigenvalues --    2.86111   2.86484   2.87047   2.87231   2.87753
 Alpha virt. eigenvalues --    2.88724   2.89108   2.89667   2.93957   2.94569
 Alpha virt. eigenvalues --    2.95670   2.97786   2.98553   2.99149   3.00378
 Alpha virt. eigenvalues --    3.01784   3.02537   3.04162   3.05371   3.07066
 Alpha virt. eigenvalues --    3.07546   3.10151   3.10979   3.12410   3.15612
 Alpha virt. eigenvalues --    3.15965   3.16841   3.17144   3.18987   3.21135
 Alpha virt. eigenvalues --    3.22275   3.23306   3.24132   3.24697   3.27338
 Alpha virt. eigenvalues --    3.44331   3.47276   3.48384   3.49118   3.51304
 Alpha virt. eigenvalues --    3.53364   3.54584   3.56828   3.58617   3.60643
 Alpha virt. eigenvalues --    3.64183   3.71708   3.75710
          Condensed to atoms (all electrons):
 Mulliken charges:
               1
     1  N   -0.306489
     2  C    0.181029
     3  C    0.067817
     4  N   -0.259917
     5  C    0.145521
     6  H    0.027350
     7  N   -0.281752
     8  C    0.125470
     9  H    0.014162
    10  N   -0.273136
    11  C    0.240733
    12  C    0.075583
    13  N   -0.056447
    14  H    0.111362
    15  H    0.082773
    16  H    0.028261
    17  H    0.027202
    18  H    0.020936
    19  N   -0.295061
    20  C    0.260773
    21  C    0.184881
    22  N   -0.110189
    23  H    0.121792
    24  H    0.117220
    25  N   -0.285683
    26  C    0.192220
    27  N   -0.107728
    28  H    0.115024
    29  C    0.166275
    30  O   -0.321320
    31  C   -0.011015
    32  N   -0.217419
    33  C    0.097625
    34  H    0.022117
    35  H    0.020080
    36  H    0.031292
    37  H    0.023355
    38  H    0.058906
    39  H    0.049132
    40  H    0.078085
    41  H    0.024843
    42  C   -0.102471
    43  O   -0.266797
    44  C    0.173553
    45  H    0.130141
    46  N   -0.119584
    47  O   -0.341987
    48  C    0.333434
    49  H    0.045408
    50  C    0.159325
    51  C    0.061486
    52  N   -0.276559
    53  H    0.036779
    54  H    0.040535
    55  H    0.028067
    56  H    0.121705
    57  H    0.119165
    58  N   -0.058986
    59  C    0.100061
    60  C    0.183707
    61  N   -0.256482
    62  H    0.007087
    63  C    0.189549
    64  N   -0.308925
    65  H    0.036785
    66  C    0.120900
    67  N   -0.245802
    68  C    0.017951
    69  C    0.181431
    70  N   -0.295142
 Sum of Mulliken charges =  -0.00000
 Mulliken charges with hydrogens summed into heavy atoms:
               1
     1  N   -0.306489
     2  C    0.257427
     3  C    0.067817
     4  N   -0.259917
     5  C    0.172871
     7  N   -0.281752
     8  C    0.139632
    10  N   -0.273136
    11  C    0.240733
    12  C    0.075583
    13  N    0.137688
    19  N   -0.295061
    20  C    0.260773
    21  C    0.259608
    22  N    0.128824
    25  N   -0.285683
    26  C    0.192220
    27  N    0.007297
    29  C    0.166275
    30  O   -0.321320
    31  C   -0.011015
    32  N   -0.217419
    33  C    0.119743
    42  C   -0.077628
    43  O   -0.266797
    44  C    0.173553
    46  N    0.010557
    47  O   -0.341987
    48  C    0.333434
    50  C    0.204733
    51  C    0.247609
    52  N   -0.276559
    58  N    0.181884
    59  C    0.100061
    60  C    0.183707
    61  N   -0.256482
    63  C    0.196636
    64  N   -0.308925
    66  C    0.157685
    67  N   -0.245802
    68  C    0.017951
    69  C    0.286813
    70  N   -0.295142
 Electronic spatial extent (au):  <R**2>=          21937.5514
 Charge=             -0.0000 electrons
 Dipole moment (field-independent basis, Debye):
    X=             -6.7018    Y=              7.1569    Z=             -2.6647  Tot=             10.1605
 Quadrupole moment (field-independent basis, Debye-Ang):
   XX=           -152.7940   YY=           -227.8092   ZZ=           -256.3214
   XY=             -1.2498   XZ=            -10.5617   YZ=             14.4742
 Traceless Quadrupole moment (field-independent basis, Debye-Ang):
   XX=             59.5142   YY=            -15.5010   ZZ=            -44.0132
   XY=             -1.2498   XZ=            -10.5617   YZ=             14.4742
 Octapole moment (field-independent basis, Debye-Ang**2):
  XXX=             93.4320  YYY=            117.5158  ZZZ=              4.3567  XYY=           -102.1242
  XXY=            107.9987  XXZ=            -23.6528  XZZ=            -33.3650  YZZ=             19.4067
  YYZ=            -60.6336  XYZ=             38.0189
 Hexadecapole moment (field-independent basis, Debye-Ang**3):
 XXXX=         -16392.9523 YYYY=          -4522.3952 ZZZZ=          -3514.8272 XXXY=           -572.3375
 XXXZ=           -290.2314 YYYX=              1.1915 YYYZ=            135.9667 ZZZX=            -64.3918
 ZZZY=             42.0083 XXYY=          -3438.0776 XXZZ=          -3944.5950 YYZZ=          -1438.3754
 XXYZ=             30.3667 YYXZ=            123.0783 ZZXY=              2.0904
 N-N= 5.599455546144D+03 E-N=-1.597942430002D+04  KE= 2.037919392142D+03
 No NMR shielding tensors so no spin-rotation constants.
 Leave Link  601 at Sun Jan 21 11:48:33 2018, MaxMem=  4294967296 cpu:              48.1 elap:               1.7
 (Enter /share/apps/g16/l9999.exe)
 1\1\GINC-COMPUTE-0-3\SP\RwB97XD\CC-pVDZ\C23H27N17O3\SATYA\21-Jan-2018\
 0\\#p wb97xd/cc-pvdz sp scf=(maxcycles=20)\\Base pair stacking\\0,1\N,
 0,1.20528,1.9767,-6.73136\C,0,1.69849,3.36719,-6.69548\C,0,-0.0509,0.1
 815,-6.54011\N,0,1.15713,-0.24507,-7.07248\C,0,1.86559,0.85355,-7.1664
 \H,0,2.88526,0.90287,-7.5495\N,0,-2.25083,0.21798,-5.69044\C,0,-2.0890
 6,1.5365,-5.53909\H,0,-2.94615,2.06562,-5.12472\N,0,-1.03247,2.29599,-
 5.82141\C,0,-0.03616,1.54855,-6.32451\C,0,-1.22994,-0.50593,-6.19916\N
 ,0,-1.3895,-1.82224,-6.351\H,0,-0.66044,-2.39736,-6.72371\H,0,-2.24277
 ,-2.27812,-6.09753\H,0,1.93324,3.66304,-7.62151\H,0,0.98725,3.96449,-6
 .32602\H,0,2.51073,3.42007,-6.11457\N,0,0.39267,3.35579,-3.1639\C,0,-0
 .51423,2.33582,-3.00502\C,0,0.07872,4.79677,-3.08825\N,0,-3.76374,1.26
 643,-2.406\H,0,-4.25107,0.39748,-2.32432\H,0,-4.30332,2.10143,-2.29488
 \N,0,-1.8339,2.47748,-2.75512\C,0,-2.4459,1.31098,-2.65341\N,0,-1.8155
 8,0.09746,-2.78596\H,0,-2.36325,-0.74415,-2.69261\C,0,-0.45876,-0.0720
 6,-3.04317\O,0,0.01103,-1.21212,-3.14467\C,0,0.21204,1.17229,-3.15505\
 N,0,1.54801,1.45607,-3.40312\C,0,1.60775,2.76015,-3.39935\H,0,2.51624,
 3.34062,-3.56358\H,0,0.30745,5.23547,-3.9566\H,0,-0.89615,4.91408,-2.9
 035\H,0,0.60917,5.21702,-2.35284\H,0,-5.75304,-4.5333,-2.75864\H,0,-5.
 23368,-4.74925,-1.08882\H,0,-5.23512,-3.13943,-1.80983\H,0,-1.57635,-6
 .82639,-3.42462\C,0,-1.93966,-5.8276,-3.18245\O,0,0.11727,-4.75766,-3.
 68384\C,0,-1.05533,-4.71012,-3.31298\H,0,-1.02076,-2.67943,-3.06112\N,
 0,-1.61493,-3.49266,-2.98149\O,0,-3.30283,-2.14394,-2.28208\C,0,-2.897
 81,-3.26086,-2.5525\H,0,-3.90846,-6.44945,-2.65052\C,0,-3.19654,-5.633
 3,-2.7664\C,0,-5.06843,-4.18973,-1.9975\N,0,-3.68938,-4.38804,-2.45207
 \H,0,-9.29375,-2.78316,-3.67234\H,0,-8.03568,-2.03154,-2.9551\H,0,-8.6
 6874,-3.37993,-2.28791\H,0,-2.90917,-5.15921,-6.61463\H,0,-4.27355,-6.
 16687,-6.43241\N,0,-3.83269,-5.28677,-6.25271\C,0,-4.44979,-4.32659,-5
 .56104\C,0,-6.25326,-3.37265,-4.33661\N,0,-5.6369,-2.20072,-4.11055\H,
 0,-3.8516,-1.28147,-4.52079\C,0,-4.42294,-2.1986,-4.65754\N,0,-3.80308
 ,-3.15929,-5.35067\H,0,-8.61866,-5.57321,-4.21588\C,0,-7.69389,-5.0247
 1,-4.39725\N,0,-6.66716,-5.49441,-5.06275\C,0,-5.74665,-4.4569,-5.0317
 9\C,0,-8.45267,-2.91908,-3.14878\N,0,-7.51203,-3.7462,-3.92922\\Versio
 n=EM64L-G16RevA.03\State=1-A\HF=-2048.7292432\RMSD=7.034e-09\Dipole=-3
 .9627251,0.0278043,0.5250135\Quadrupole=1.0205621,17.3106973,-18.33125
 94,32.2486423,-20.0109859,-0.5037794\PG=C01 [X(C23H27N17O3)]\\@


 "PERFECTION IS NOT AN ACCIDENT"
         --  EAGLE ELECTRIC MANUFACTURING CO.,INC. NY
 Job cpu time:       0 days  6 hours 23 minutes 10.6 seconds.
 Elapsed time:       0 days  0 hours 12 minutes 22.3 seconds.
 File lengths (MBytes):  RWF=    298 Int=      0 D2E=      0 Chk=     33 Scr=      1
 Normal termination of Gaussian 16 at Sun Jan 21 11:48:34 2018.
