 Entering Gaussian System, Link 0=g16
 Input=str30.5.-1.5.com
 Output=str30.5.-1.5.log
 Initial command:
 /share/apps/g16/l1.exe "/state/partition1/scr/Gau-32048.inp" -scrdir="/state/partition1/scr/"
 Entering Link 1 = /share/apps/g16/l1.exe PID=     32049.
  
 Copyright (c) 1988,1990,1992,1993,1995,1998,2003,2009,2016,
            Gaussian, Inc.  All Rights Reserved.
  
 This is part of the Gaussian(R) 16 program.  It is based on
 the Gaussian(R) 09 system (copyright 2009, Gaussian, Inc.),
 the Gaussian(R) 03 system (copyright 2003, Gaussian, Inc.),
 the Gaussian(R) 98 system (copyright 1998, Gaussian, Inc.),
 the Gaussian(R) 94 system (copyright 1995, Gaussian, Inc.),
 the Gaussian 92(TM) system (copyright 1992, Gaussian, Inc.),
 the Gaussian 90(TM) system (copyright 1990, Gaussian, Inc.),
 the Gaussian 88(TM) system (copyright 1988, Gaussian, Inc.),
 the Gaussian 86(TM) system (copyright 1986, Carnegie Mellon
 University), and the Gaussian 82(TM) system (copyright 1983,
 Carnegie Mellon University). Gaussian is a federally registered
 trademark of Gaussian, Inc.
  
 This software contains proprietary and confidential information,
 including trade secrets, belonging to Gaussian, Inc.
  
 This software is provided under written license and may be
 used, copied, transmitted, or stored only in accord with that
 written license.
  
 The following legend is applicable only to US Government
 contracts under FAR:
  
                    RESTRICTED RIGHTS LEGEND
  
 Use, reproduction and disclosure by the US Government is
 subject to restrictions as set forth in subparagraphs (a)
 and (c) of the Commercial Computer Software - Restricted
 Rights clause in FAR 52.227-19.
  
 Gaussian, Inc.
 340 Quinnipiac St., Bldg. 40, Wallingford CT 06492
  
  
 ---------------------------------------------------------------
 Warning -- This program may not be used in any manner that
 competes with the business of Gaussian, Inc. or will provide
 assistance to any competitor of Gaussian, Inc.  The licensee
 of this program is prohibited from giving any competitor of
 Gaussian, Inc. access to this program.  By using this program,
 the user acknowledges that Gaussian, Inc. is engaged in the
 business of creating and licensing software in the field of
 computational chemistry and represents and warrants to the
 licensee that it is not a competitor of Gaussian, Inc. and that
 it will not use this program in any manner prohibited above.
 ---------------------------------------------------------------
  

 Cite this work as:
 Gaussian 16, Revision A.03,
 M. J. Frisch, G. W. Trucks, H. B. Schlegel, G. E. Scuseria, 
 M. A. Robb, J. R. Cheeseman, G. Scalmani, V. Barone, 
 G. A. Petersson, H. Nakatsuji, X. Li, M. Caricato, A. V. Marenich, 
 J. Bloino, B. G. Janesko, R. Gomperts, B. Mennucci, H. P. Hratchian, 
 J. V. Ortiz, A. F. Izmaylov, J. L. Sonnenberg, D. Williams-Young, 
 F. Ding, F. Lipparini, F. Egidi, J. Goings, B. Peng, A. Petrone, 
 T. Henderson, D. Ranasinghe, V. G. Zakrzewski, J. Gao, N. Rega, 
 G. Zheng, W. Liang, M. Hada, M. Ehara, K. Toyota, R. Fukuda, 
 J. Hasegawa, M. Ishida, T. Nakajima, Y. Honda, O. Kitao, H. Nakai, 
 T. Vreven, K. Throssell, J. A. Montgomery, Jr., J. E. Peralta, 
 F. Ogliaro, M. J. Bearpark, J. J. Heyd, E. N. Brothers, K. N. Kudin, 
 V. N. Staroverov, T. A. Keith, R. Kobayashi, J. Normand, 
 K. Raghavachari, A. P. Rendell, J. C. Burant, S. S. Iyengar, 
 J. Tomasi, M. Cossi, J. M. Millam, M. Klene, C. Adamo, R. Cammi, 
 J. W. Ochterski, R. L. Martin, K. Morokuma, O. Farkas, 
 J. B. Foresman, and D. J. Fox, Gaussian, Inc., Wallingford CT, 2016.
 
 ******************************************
 Gaussian 16:  EM64L-G16RevA.03 25-Dec-2016
                21-Jan-2018 
 ******************************************
 %nprocshared=32
 Will use up to   32 processors via shared memory.
 %mem=32GB
 %chk=allatoms_t.chk
 ---------------------------------------
 #p wb97xd/cc-pvdz sp scf=(maxcycles=20)
 ---------------------------------------
 1/38=1,172=1/1;
 2/12=2,17=6,18=5,40=1/2;
 3/5=16,11=2,25=1,30=1,74=-58/1,2,3;
 4//1;
 5/5=2,7=20,38=5/2;
 6/7=2,8=2,9=2,10=2,28=1/1;
 99/5=1,9=1/99;
 Leave Link    1 at Sun Jan 21 20:31:04 2018, MaxMem=  4294967296 cpu:               2.7 elap:               0.1
 (Enter /share/apps/g16/l101.exe)
 ------------------
 Base pair stacking
 ------------------
 Symbolic Z-matrix:
 Charge =  0 Multiplicity = 1
 N                     6.22473   6.38749  -6.07304 
 C                     6.71899   7.77023  -6.22048 
 C                     4.93663   4.60569  -6.01554 
 N                     6.21139   4.17405  -5.67879 
 C                     6.9364    5.26479  -5.72691 
 H                     8.00555   5.30835  -5.51722 
 N                     2.62758   4.6541   -6.49397 
 C                     2.77526   5.96695  -6.69938 
 H                     1.86704   6.49884  -6.97954 
 N                     3.87126   6.71789  -6.61109 
 C                     4.92923   5.9677   -6.26131 
 C                     3.71095   3.92721  -6.14321 
 N                     3.56554   2.61656  -5.93773 
 H                     4.34019   2.03953  -5.67665 
 H                     2.67781   2.16701  -6.0377 
 H                     7.42582   7.79941  -6.92739 
 H                     5.96268   8.36926  -6.48178 
 H                     7.10497   8.08278  -5.35253 
 N                     1.72585   6.23598  -3.25196 
 C                     0.80511   5.21733  -3.30336 
 C                     1.41928   7.67236  -3.40534 
 N                    -2.47644   4.14538  -3.68295 
 H                    -2.97338   3.27804  -3.68632 
 H                    -3.01447   4.9771   -3.8225 
 N                    -0.52367   5.35632  -3.50105 
 C                    -1.14824   4.19206  -3.4996 
 N                    -0.52134   2.98303  -3.31858 
 H                    -1.0789    2.14286  -3.33257 
 C                     0.84468   2.81632  -3.11353 
 O                     1.31032   1.68028  -2.96081 
 C                     1.52903   4.05831  -3.11253 
 N                     2.87712   4.34359  -2.94469 
 C                     2.94616   5.6441   -3.03478 
 H                     3.86552   6.22449  -2.94994 
 H                     1.91807   8.03944  -4.18973 
 H                     0.43777   7.78767  -3.55233 
 H                     1.69128   8.16311  -2.5783 
 H                    -4.3093   -1.6977   -4.14947 
 H                    -4.35304  -1.76128  -2.38916 
 H                    -4.10717  -0.21906  -3.2092 
 H                    -0.16299  -3.96471  -3.24646 
 C                    -0.57418  -2.95552  -3.22023 
 O                     1.5462   -1.89587  -3.12926 
 C                     0.31713  -1.83771  -3.15771 
 H                     0.29065   0.20735  -3.08451 
 N                    -0.30629  -0.60655  -3.12874 
 O                    -2.11498   0.7667   -3.12409 
 C                    -1.65649  -0.36184  -3.15345 
 H                    -2.61612  -3.56462  -3.29297 
 C                    -1.89601  -2.74881  -3.24562 
 C                    -3.90025  -1.27841  -3.24232 
 N                    -2.45039  -1.49023  -3.21393 
 H                    -4.60854   1.64342  -7.61498 
 H                    -3.86872   2.7078   -6.62409 
 H                    -4.84885   1.55995  -6.00293 
 H                     2.18811  -0.79159  -5.89981 
 H                     0.86702  -1.84134  -6.15055 
 N                     1.20624  -0.90515  -6.05206 
 C                     0.38487   0.14452  -6.12085 
 C                    -1.72275   1.21802  -6.38026 
 N                    -1.23924   2.46389  -6.2444 
 H                     0.55253   3.40761  -5.92888 
 C                     0.0776    2.4349   -6.04949 
 N                     0.90204   1.38462  -5.98027 
 H                    -3.94138  -1.09028  -6.82927 
 C                    -3.02469  -0.52356  -6.66356 
 N                    -1.83641  -1.0557   -6.51356 
 C                    -1.00165   0.03762  -6.33312 
 C                    -4.18086   1.76298  -6.71899 
 N                    -3.02948   0.84825  -6.59408 
 
 ITRead=  0  0  0  0  0  0  0  0  0  0  0  0  0  0  0  0  0  0  0  0
 ITRead=  0  0  0  0  0  0  0  0  0  0  0  0  0  0  0  0  0  0  0  0
 ITRead=  0  0  0  0  0  0  0  0  0  0  0  0  0  0  0  0  0  0  0  0
 ITRead=  0  0  0  0  0  0  0  0  0  0
 MicOpt= -1 -1 -1 -1 -1 -1 -1 -1 -1 -1 -1 -1 -1 -1 -1 -1 -1 -1 -1 -1
 MicOpt= -1 -1 -1 -1 -1 -1 -1 -1 -1 -1 -1 -1 -1 -1 -1 -1 -1 -1 -1 -1
 MicOpt= -1 -1 -1 -1 -1 -1 -1 -1 -1 -1 -1 -1 -1 -1 -1 -1 -1 -1 -1 -1
 MicOpt= -1 -1 -1 -1 -1 -1 -1 -1 -1 -1
 NAtoms=     70 NQM=       70 NQMF=       0 NMMI=      0 NMMIF=      0
                NMic=       0 NMicF=      0.
                    Isotopes and Nuclear Properties:
 (Nuclear quadrupole moments (NQMom) in fm**2, nuclear magnetic moments (NMagM)
  in nuclear magnetons)

  Atom         1           2           3           4           5           6           7           8           9          10
 IAtWgt=          14          12          12          14          12           1          14          12           1          14
 AtmWgt=  14.0030740  12.0000000  12.0000000  14.0030740  12.0000000   1.0078250  14.0030740  12.0000000   1.0078250  14.0030740
 NucSpn=           2           0           0           2           0           1           2           0           1           2
 AtZEff=  -0.0000000  -0.0000000  -0.0000000  -0.0000000  -0.0000000  -0.0000000  -0.0000000  -0.0000000  -0.0000000  -0.0000000
 NQMom=    2.0440000   0.0000000   0.0000000   2.0440000   0.0000000   0.0000000   2.0440000   0.0000000   0.0000000   2.0440000
 NMagM=    0.4037610   0.0000000   0.0000000   0.4037610   0.0000000   2.7928460   0.4037610   0.0000000   2.7928460   0.4037610
 AtZNuc=   7.0000000   6.0000000   6.0000000   7.0000000   6.0000000   1.0000000   7.0000000   6.0000000   1.0000000   7.0000000

  Atom        11          12          13          14          15          16          17          18          19          20
 IAtWgt=          12          12          14           1           1           1           1           1          14          12
 AtmWgt=  12.0000000  12.0000000  14.0030740   1.0078250   1.0078250   1.0078250   1.0078250   1.0078250  14.0030740  12.0000000
 NucSpn=           0           0           2           1           1           1           1           1           2           0
 AtZEff=  -0.0000000  -0.0000000  -0.0000000  -0.0000000  -0.0000000  -0.0000000  -0.0000000  -0.0000000  -0.0000000  -0.0000000
 NQMom=    0.0000000   0.0000000   2.0440000   0.0000000   0.0000000   0.0000000   0.0000000   0.0000000   2.0440000   0.0000000
 NMagM=    0.0000000   0.0000000   0.4037610   2.7928460   2.7928460   2.7928460   2.7928460   2.7928460   0.4037610   0.0000000
 AtZNuc=   6.0000000   6.0000000   7.0000000   1.0000000   1.0000000   1.0000000   1.0000000   1.0000000   7.0000000   6.0000000

  Atom        21          22          23          24          25          26          27          28          29          30
 IAtWgt=          12          14           1           1          14          12          14           1          12          16
 AtmWgt=  12.0000000  14.0030740   1.0078250   1.0078250  14.0030740  12.0000000  14.0030740   1.0078250  12.0000000  15.9949146
 NucSpn=           0           2           1           1           2           0           2           1           0           0
 AtZEff=  -0.0000000  -0.0000000  -0.0000000  -0.0000000  -0.0000000  -0.0000000  -0.0000000  -0.0000000  -0.0000000  -0.0000000
 NQMom=    0.0000000   2.0440000   0.0000000   0.0000000   2.0440000   0.0000000   2.0440000   0.0000000   0.0000000   0.0000000
 NMagM=    0.0000000   0.4037610   2.7928460   2.7928460   0.4037610   0.0000000   0.4037610   2.7928460   0.0000000   0.0000000
 AtZNuc=   6.0000000   7.0000000   1.0000000   1.0000000   7.0000000   6.0000000   7.0000000   1.0000000   6.0000000   8.0000000

  Atom        31          32          33          34          35          36          37          38          39          40
 IAtWgt=          12          14          12           1           1           1           1           1           1           1
 AtmWgt=  12.0000000  14.0030740  12.0000000   1.0078250   1.0078250   1.0078250   1.0078250   1.0078250   1.0078250   1.0078250
 NucSpn=           0           2           0           1           1           1           1           1           1           1
 AtZEff=  -0.0000000  -0.0000000  -0.0000000  -0.0000000  -0.0000000  -0.0000000  -0.0000000  -0.0000000  -0.0000000  -0.0000000
 NQMom=    0.0000000   2.0440000   0.0000000   0.0000000   0.0000000   0.0000000   0.0000000   0.0000000   0.0000000   0.0000000
 NMagM=    0.0000000   0.4037610   0.0000000   2.7928460   2.7928460   2.7928460   2.7928460   2.7928460   2.7928460   2.7928460
 AtZNuc=   6.0000000   7.0000000   6.0000000   1.0000000   1.0000000   1.0000000   1.0000000   1.0000000   1.0000000   1.0000000

  Atom        41          42          43          44          45          46          47          48          49          50
 IAtWgt=           1          12          16          12           1          14          16          12           1          12
 AtmWgt=   1.0078250  12.0000000  15.9949146  12.0000000   1.0078250  14.0030740  15.9949146  12.0000000   1.0078250  12.0000000
 NucSpn=           1           0           0           0           1           2           0           0           1           0
 AtZEff=  -0.0000000  -0.0000000  -0.0000000  -0.0000000  -0.0000000  -0.0000000  -0.0000000  -0.0000000  -0.0000000  -0.0000000
 NQMom=    0.0000000   0.0000000   0.0000000   0.0000000   0.0000000   2.0440000   0.0000000   0.0000000   0.0000000   0.0000000
 NMagM=    2.7928460   0.0000000   0.0000000   0.0000000   2.7928460   0.4037610   0.0000000   0.0000000   2.7928460   0.0000000
 AtZNuc=   1.0000000   6.0000000   8.0000000   6.0000000   1.0000000   7.0000000   8.0000000   6.0000000   1.0000000   6.0000000

  Atom        51          52          53          54          55          56          57          58          59          60
 IAtWgt=          12          14           1           1           1           1           1          14          12          12
 AtmWgt=  12.0000000  14.0030740   1.0078250   1.0078250   1.0078250   1.0078250   1.0078250  14.0030740  12.0000000  12.0000000
 NucSpn=           0           2           1           1           1           1           1           2           0           0
 AtZEff=  -0.0000000  -0.0000000  -0.0000000  -0.0000000  -0.0000000  -0.0000000  -0.0000000  -0.0000000  -0.0000000  -0.0000000
 NQMom=    0.0000000   2.0440000   0.0000000   0.0000000   0.0000000   0.0000000   0.0000000   2.0440000   0.0000000   0.0000000
 NMagM=    0.0000000   0.4037610   2.7928460   2.7928460   2.7928460   2.7928460   2.7928460   0.4037610   0.0000000   0.0000000
 AtZNuc=   6.0000000   7.0000000   1.0000000   1.0000000   1.0000000   1.0000000   1.0000000   7.0000000   6.0000000   6.0000000

  Atom        61          62          63          64          65          66          67          68          69          70
 IAtWgt=          14           1          12          14           1          12          14          12          12          14
 AtmWgt=  14.0030740   1.0078250  12.0000000  14.0030740   1.0078250  12.0000000  14.0030740  12.0000000  12.0000000  14.0030740
 NucSpn=           2           1           0           2           1           0           2           0           0           2
 AtZEff=  -0.0000000  -0.0000000  -0.0000000  -0.0000000  -0.0000000  -0.0000000  -0.0000000  -0.0000000  -0.0000000  -0.0000000
 NQMom=    2.0440000   0.0000000   0.0000000   2.0440000   0.0000000   0.0000000   2.0440000   0.0000000   0.0000000   2.0440000
 NMagM=    0.4037610   2.7928460   0.0000000   0.4037610   2.7928460   0.0000000   0.4037610   0.0000000   0.0000000   0.4037610
 AtZNuc=   7.0000000   1.0000000   6.0000000   7.0000000   1.0000000   6.0000000   7.0000000   6.0000000   6.0000000   7.0000000
 Leave Link  101 at Sun Jan 21 20:31:04 2018, MaxMem=  4294967296 cpu:               7.7 elap:               0.3
 (Enter /share/apps/g16/l202.exe)
 Stoichiometry    C23H27N17O3
 Framework group  C1[X(C23H27N17O3)]
 Deg. of freedom   204
 Full point group                 C1      NOp   1
 Largest Abelian subgroup         C1      NOp   1
 Largest concise Abelian subgroup C1      NOp   1
                         Standard orientation:                         
 ---------------------------------------------------------------------
 Center     Atomic      Atomic             Coordinates (Angstroms)
 Number     Number       Type             X           Y           Z
 ---------------------------------------------------------------------
      1          7           0       -6.659454   -1.273848    0.420190
      2          6           0       -8.004328   -0.675725    0.527727
      3          6           0       -4.489347   -1.612733    0.534704
      4          7           0       -5.028749   -2.747160   -0.054234
      5          6           0       -6.314564   -2.497592   -0.099652
      6          1           0       -7.064126   -3.177462   -0.505711
      7          7           0       -2.974913   -0.049004    1.442552
      8          6           0       -4.035944    0.732165    1.669632
      9          1           0       -3.816027    1.690640    2.137844
     10          7           0       -5.321814    0.508164    1.406414
     11          6           0       -5.482302   -0.695799    0.832699
     12          6           0       -3.169523   -1.254210    0.864023
     13          7           0       -2.111627   -2.035411    0.636535
     14          1           0       -2.208815   -2.935532    0.210453
     15          1           0       -1.186378   -1.747713    0.884117
     16          1           0       -8.587871   -1.262900    1.088873
     17          1           0       -7.935570    0.226964    0.951454
     18          1           0       -8.404690   -0.584449   -0.384075
     19          7           0       -3.143836    2.213500   -1.503400
     20          6           0       -1.784312    2.134377   -1.320406
     21          6           0       -3.973185    3.405820   -1.236471
     22          7           0        1.213698    3.608460   -0.371326
     23          1           0        2.176745    3.347798   -0.309404
     24          1           0        0.977805    4.541634   -0.098837
     25          7           0       -0.984109    3.124586   -0.869610
     26          6           0        0.279825    2.746077   -0.800382
     27          7           0        0.727921    1.494088   -1.145723
     28          1           0        1.712434    1.292896   -1.060816
     29          6           0       -0.077508    0.459774   -1.611909
     30          8           0        0.427177   -0.633524   -1.896028
     31          6           0       -1.438081    0.851378   -1.691674
     32          7           0       -2.557711    0.139366   -2.099557
     33          6           0       -3.543521    0.985491   -1.971257
     34          1           0       -4.585669    0.764740   -2.204646
     35          1           0       -4.662020    3.187028   -0.546222
     36          1           0       -3.391240    4.145922   -0.902026
     37          1           0       -4.426128    3.694335   -2.079333
     38          1           0        6.606660    0.725070    0.194906
     39          1           0        6.864977    0.998332   -1.526502
     40          1           0        5.508409    1.771135   -0.705612
     41          1           0        5.448524   -3.599340   -1.567151
     42          6           0        5.015288   -2.603413   -1.474062
     43          8           0        2.800038   -3.324578   -1.920976
     44          6           0        3.606486   -2.432680   -1.658365
     45          1           0        2.172083   -0.973040   -1.641898
     46          7           0        3.161965   -1.133383   -1.518808
     47          8           0        3.434064    1.086641   -1.125554
     48          6           0        3.919453   -0.026147   -1.229373
     49          1           0        6.856396   -1.619016   -1.041514
     50          6           0        5.780199   -1.542601   -1.190870
     51          6           0        6.118172    0.881276   -0.755371
     52          7           0        5.268581   -0.271775   -1.065916
     53          1           0        4.068471    2.703018    3.787635
     54          1           0        2.899022    3.093390    2.718944
     55          1           0        4.461701    3.075074    2.248036
     56          1           0        1.279633   -3.451911    0.720915
     57          1           0        2.917860   -3.306502    1.173898
     58          7           0        2.024713   -2.872369    1.051268
     59          6           0        1.836695   -1.578017    1.316768
     60          6           0        2.502403    0.597597    2.013398
     61          7           0        1.292100    1.153778    1.839440
     62          1           0       -0.589561    0.617068    1.229610
     63          6           0        0.421326    0.248307    1.398108
     64          7           0        0.607698   -1.048539    1.131581
     65          1           0        5.640161    0.456099    2.779318
     66          6           0        4.618013    0.240849    2.466533
     67          7           0        4.190875   -0.934066    2.073075
     68          6           0        2.850946   -0.721827    1.782770
     69          6           0        3.779956    2.634954    2.832581
     70          7           0        3.648961    1.214255    2.455134
 ---------------------------------------------------------------------
 Rotational constants (GHZ):           0.1561529           0.0513667           0.0481029
 Leave Link  202 at Sun Jan 21 20:31:04 2018, MaxMem=  4294967296 cpu:               0.4 elap:               0.0
 (Enter /share/apps/g16/l301.exe)
 Standard basis: CC-pVDZ (5D, 7F)
 Ernie: Thresh=  0.10000D-02 Tol=  0.10000D-05 Strict=F.
 Ernie:  86 primitive shells out of 1081 were deleted.
 There are   780 symmetry adapted cartesian basis functions of A   symmetry.
 There are   737 symmetry adapted basis functions of A   symmetry.
   737 basis functions,  1608 primitive gaussians,   780 cartesian basis functions
   154 alpha electrons      154 beta electrons
       nuclear repulsion energy      5500.0371457730 Hartrees.
 IExCor= 4639 DFT=T Ex+Corr=wB97XD ExCW=0 ScaHFX=  1.000000
 ScaDFX=  1.000000  1.000000  1.000000  1.000000 ScalE2=  1.000000  1.000000
 IRadAn=      5 IRanWt=     -1 IRanGd=            0 ICorTp=0 IEmpDi=121
 HFx  wShort=  0.000000 wLong=  0.200000 cFull=  0.222036 cShort=  0.000000 cLong=  0.777964
 DFx  wShort=  0.000000 wLong=  0.200000 cFull=  0.000000 cShort=  0.000000 cLong=  1.000000
 NAtoms=   70 NActive=   70 NUniq=   70 SFac= 1.00D+00 NAtFMM=   60 NAOKFM=T Big=T
 Integral buffers will be    131072 words long.
 Raffenetti 2 integral format.
 Two-electron integral symmetry is turned on.
 R6Disp:  Grimme-D2 Dispersion energy=       -0.0715812650 Hartrees.
 Nuclear repulsion after empirical dispersion term =     5499.9655645081 Hartrees.
 Leave Link  301 at Sun Jan 21 20:31:04 2018, MaxMem=  4294967296 cpu:               3.0 elap:               0.1
 (Enter /share/apps/g16/l302.exe)
 NPDir=0 NMtPBC=     1 NCelOv=     1 NCel=       1 NClECP=     1 NCelD=      1
         NCelK=      1 NCelE2=     1 NClLst=     1 CellRange=     0.0.
 One-electron integrals computed using PRISM.
 One-electron integral symmetry used in STVInt
 NBasis=   737 RedAO= T EigKep=  7.12D-04  NBF=   737
 NBsUse=   737 1.00D-06 EigRej= -1.00D+00 NBFU=   737
 Precomputing XC quadrature grid using
 IXCGrd= 4 IRadAn=           5 IRanWt=          -1 IRanGd=           0 AccXCQ= 0.00D+00.
 Generated NRdTot=       0 NPtTot=           0 NUsed=           0 NTot=          32
 NSgBfM=   765   765   765   765   765 MxSgAt=    70 MxSgA2=    70.
 Leave Link  302 at Sun Jan 21 20:31:08 2018, MaxMem=  4294967296 cpu:             138.6 elap:               4.4
 (Enter /share/apps/g16/l303.exe)
 DipDrv:  MaxL=1.
 Leave Link  303 at Sun Jan 21 20:31:09 2018, MaxMem=  4294967296 cpu:              12.4 elap:               0.4
 (Enter /share/apps/g16/l401.exe)
 ExpMin= 1.22D-01 ExpMax= 1.17D+04 ExpMxC= 4.01D+02 IAcc=3 IRadAn=         5 AccDes= 0.00D+00
 Harris functional with IExCor= 4639 and IRadAn=       5 diagonalized for initial guess.
 HarFok:  IExCor= 4639 AccDes= 0.00D+00 IRadAn=         5 IDoV= 1 UseB2=F ITyADJ=14
 ICtDFT=  3500011 ScaDFX=  1.000000  1.000000  1.000000  1.000000
 FoFCou: FMM=F IPFlag=           0 FMFlag=      100000 FMFlg1=        2001
         NFxFlg=           0 DoJE=T BraDBF=F KetDBF=T FulRan=T
         wScrn=  0.000000 ICntrl=       500 IOpCl=  0 I1Cent=   200000004 NGrid=           0
         NMat0=    1 NMatS0=      1 NMatT0=    0 NMatD0=    1 NMtDS0=    0 NMtDT0=    0
 Petite list used in FoFCou.
 Harris En= -1963.88826548433    
 JPrj=0 DoOrth=F DoCkMO=F.
 Leave Link  401 at Sun Jan 21 20:31:21 2018, MaxMem=  4294967296 cpu:             399.9 elap:              12.5
 (Enter /share/apps/g16/l502.exe)
 Integral symmetry usage will be decided dynamically.
 Closed shell SCF:
 Using DIIS extrapolation, IDIIS=  1040.
 NGot=  4294967296 LenX=  4293717438 LenY=  4293108258
 Requested convergence on RMS density matrix=1.00D-08 within  20 cycles.
 Requested convergence on MAX density matrix=1.00D-06.
 Requested convergence on             energy=1.00D-06.
 No special actions if energy rises.
 Fock matrices will be formed incrementally for  20 cycles.
 Integral accuracy reduced to 1.0D-05 until final iterations.

 Cycle   1  Pass 0  IDiag  1:
 FoFJK:  IHMeth= 1 ICntrl=       0 DoSepK=T KAlg= 0 I1Cent=           0 FoldK=F
 IRaf=         1 NMat=       1 IRICut=       1 DoRegI=T DoRafI=F ISym2E= 0 IDoP0=0 IntGTp=1.
 FoFCou: FMM=T IPFlag=           0 FMFlag=      100000 FMFlg1=        2001
         NFxFlg=           0 DoJE=T BraDBF=F KetDBF=F FulRan=T
         wScrn=  0.000000 ICntrl=       500 IOpCl=  0 I1Cent=           0 NGrid=           0
         NMat0=    1 NMatS0=      1 NMatT0=    0 NMatD0=    1 NMtDS0=    0 NMtDT0=    0
 Symmetry not used in FoFCou.
 FMM levels:  10  Number of levels for PrismC:   9
 E= -2048.31901306832    
 DIIS: error= 2.10D-02 at cycle   1 NSaved=   1.
 NSaved= 1 IEnMin= 1 EnMin= -2048.31901306832     IErMin= 1 ErrMin= 2.10D-02
 ErrMax= 2.10D-02  0.00D+00 EMaxC= 1.00D-01 BMatC= 8.32D-01 BMatP= 8.32D-01
 IDIUse=3 WtCom= 7.90D-01 WtEn= 2.10D-01
 Coeff-Com:  0.100D+01
 Coeff-En:   0.100D+01
 Coeff:      0.100D+01
 Gap=     0.254 Goal=   None    Shift=    0.000
 GapD=    0.254 DampG=1.000 DampE=0.500 DampFc=0.5000 IDamp=-1.
 Damping current iteration by 5.00D-01
 RMSDP=1.57D-03 MaxDP=1.30D-01              OVMax= 1.65D-01

 Cycle   2  Pass 0  IDiag  1:
 RMSU=  7.86D-04    CP:  9.98D-01
 E= -2048.51559494060     Delta-E=       -0.196581872286 Rises=F Damp=T
 DIIS: error= 1.12D-02 at cycle   2 NSaved=   2.
 NSaved= 2 IEnMin= 2 EnMin= -2048.51559494060     IErMin= 2 ErrMin= 1.12D-02
 ErrMax= 1.12D-02  0.00D+00 EMaxC= 1.00D-01 BMatC= 1.45D-01 BMatP= 8.32D-01
 IDIUse=3 WtCom= 8.88D-01 WtEn= 1.12D-01
 Coeff-Com: -0.196D+00 0.120D+01
 Coeff-En:   0.000D+00 0.100D+01
 Coeff:     -0.174D+00 0.117D+01
 Gap=     0.361 Goal=   None    Shift=    0.000
 RMSDP=5.91D-04 MaxDP=3.38D-02 DE=-1.97D-01 OVMax= 1.53D-01

 Cycle   3  Pass 0  IDiag  1:
 RMSU=  5.81D-04    CP:  9.94D-01  1.13D+00
 E= -2048.69368324436     Delta-E=       -0.178088303758 Rises=F Damp=F
 DIIS: error= 7.90D-03 at cycle   3 NSaved=   3.
 NSaved= 3 IEnMin= 3 EnMin= -2048.69368324436     IErMin= 3 ErrMin= 7.90D-03
 ErrMax= 7.90D-03  0.00D+00 EMaxC= 1.00D-01 BMatC= 6.41D-02 BMatP= 1.45D-01
 IDIUse=3 WtCom= 9.21D-01 WtEn= 7.90D-02
 Coeff-Com: -0.233D+00 0.552D+00 0.681D+00
 Coeff-En:   0.000D+00 0.000D+00 0.100D+01
 Coeff:     -0.215D+00 0.509D+00 0.706D+00
 Gap=     0.279 Goal=   None    Shift=    0.000
 RMSDP=3.64D-04 MaxDP=3.31D-02 DE=-1.78D-01 OVMax= 7.40D-02

 Cycle   4  Pass 0  IDiag  1:
 RMSU=  2.05D-04    CP:  9.94D-01  1.42D+00  6.64D-01
 E= -2048.74240739044     Delta-E=       -0.048724146083 Rises=F Damp=F
 DIIS: error= 3.03D-03 at cycle   4 NSaved=   4.
 NSaved= 4 IEnMin= 4 EnMin= -2048.74240739044     IErMin= 4 ErrMin= 3.03D-03
 ErrMax= 3.03D-03  0.00D+00 EMaxC= 1.00D-01 BMatC= 9.34D-03 BMatP= 6.41D-02
 IDIUse=3 WtCom= 9.70D-01 WtEn= 3.03D-02
 Coeff-Com: -0.961D-01 0.186D+00 0.379D+00 0.531D+00
 Coeff-En:   0.000D+00 0.000D+00 0.689D-01 0.931D+00
 Coeff:     -0.932D-01 0.180D+00 0.370D+00 0.543D+00
 Gap=     0.284 Goal=   None    Shift=    0.000
 RMSDP=1.30D-04 MaxDP=1.17D-02 DE=-4.87D-02 OVMax= 1.45D-02

 Cycle   5  Pass 0  IDiag  1:
 RMSU=  6.11D-05    CP:  9.94D-01  1.39D+00  8.01D-01  6.16D-01
 E= -2048.75019623132     Delta-E=       -0.007788840876 Rises=F Damp=F
 DIIS: error= 5.89D-04 at cycle   5 NSaved=   5.
 NSaved= 5 IEnMin= 5 EnMin= -2048.75019623132     IErMin= 5 ErrMin= 5.89D-04
 ErrMax= 5.89D-04  0.00D+00 EMaxC= 1.00D-01 BMatC= 2.91D-04 BMatP= 9.34D-03
 IDIUse=3 WtCom= 9.94D-01 WtEn= 5.89D-03
 Coeff-Com: -0.244D-01 0.417D-01 0.120D+00 0.238D+00 0.624D+00
 Coeff-En:   0.000D+00 0.000D+00 0.000D+00 0.000D+00 0.100D+01
 Coeff:     -0.242D-01 0.414D-01 0.120D+00 0.237D+00 0.626D+00
 Gap=     0.284 Goal=   None    Shift=    0.000
 RMSDP=2.65D-05 MaxDP=1.89D-03 DE=-7.79D-03 OVMax= 3.20D-03

 Failed to achieve initial convergence to 1.0D-08 in  6 cycles.
 Switch to full accuracy anyway.
 Cycle   6  Pass 1  IDiag  1:
 E= -2048.75038558876     Delta-E=       -0.000189357446 Rises=F Damp=F
 DIIS: error= 2.40D-04 at cycle   1 NSaved=   1.
 NSaved= 1 IEnMin= 1 EnMin= -2048.75038558876     IErMin= 1 ErrMin= 2.40D-04
 ErrMax= 2.40D-04  0.00D+00 EMaxC= 1.00D-01 BMatC= 7.52D-05 BMatP= 7.52D-05
 IDIUse=3 WtCom= 9.98D-01 WtEn= 2.40D-03
 Coeff-Com:  0.100D+01
 Coeff-En:   0.100D+01
 Coeff:      0.100D+01
 Gap=     0.284 Goal=   None    Shift=    0.000
 RMSDP=2.65D-05 MaxDP=1.89D-03 DE=-1.89D-04 OVMax= 2.71D-03

 Cycle   7  Pass 1  IDiag  1:
 RMSU=  1.13D-04    CP:  1.00D+00
 E= -2048.75044122463     Delta-E=       -0.000055635863 Rises=F Damp=F
 DIIS: error= 2.24D-04 at cycle   2 NSaved=   2.
 NSaved= 2 IEnMin= 2 EnMin= -2048.75044122463     IErMin= 2 ErrMin= 2.24D-04
 ErrMax= 2.24D-04  0.00D+00 EMaxC= 1.00D-01 BMatC= 4.21D-05 BMatP= 7.52D-05
 IDIUse=3 WtCom= 9.98D-01 WtEn= 2.24D-03
 Coeff-Com:  0.403D+00 0.597D+00
 Coeff-En:   0.000D+00 0.100D+01
 Coeff:      0.402D+00 0.598D+00
 Gap=     0.284 Goal=   None    Shift=    0.000
 RMSDP=1.14D-05 MaxDP=1.07D-03 DE=-5.56D-05 OVMax= 1.52D-03

 Cycle   8  Pass 1  IDiag  1:
 RMSU=  1.11D-05    CP:  1.00D+00  1.02D+00
 E= -2048.75047156780     Delta-E=       -0.000030343168 Rises=F Damp=F
 DIIS: error= 9.97D-05 at cycle   3 NSaved=   3.
 NSaved= 3 IEnMin= 3 EnMin= -2048.75047156780     IErMin= 3 ErrMin= 9.97D-05
 ErrMax= 9.97D-05  0.00D+00 EMaxC= 1.00D-01 BMatC= 1.03D-05 BMatP= 4.21D-05
 IDIUse=1 WtCom= 1.00D+00 WtEn= 0.00D+00
 Coeff-Com: -0.198D-01 0.318D+00 0.702D+00
 Coeff:     -0.198D-01 0.318D+00 0.702D+00
 Gap=     0.284 Goal=   None    Shift=    0.000
 RMSDP=5.63D-06 MaxDP=4.51D-04 DE=-3.03D-05 OVMax= 5.52D-04

 Cycle   9  Pass 1  IDiag  1:
 RMSU=  3.80D-06    CP:  1.00D+00  1.05D+00  7.57D-01
 E= -2048.75048119215     Delta-E=       -0.000009624359 Rises=F Damp=F
 DIIS: error= 3.78D-05 at cycle   4 NSaved=   4.
 NSaved= 4 IEnMin= 4 EnMin= -2048.75048119215     IErMin= 4 ErrMin= 3.78D-05
 ErrMax= 3.78D-05  0.00D+00 EMaxC= 1.00D-01 BMatC= 4.82D-07 BMatP= 1.03D-05
 IDIUse=1 WtCom= 1.00D+00 WtEn= 0.00D+00
 Coeff-Com: -0.298D-01 0.865D-01 0.256D+00 0.688D+00
 Coeff:     -0.298D-01 0.865D-01 0.256D+00 0.688D+00
 Gap=     0.284 Goal=   None    Shift=    0.000
 RMSDP=1.43D-06 MaxDP=1.35D-04 DE=-9.62D-06 OVMax= 5.14D-04

 Cycle  10  Pass 1  IDiag  1:
 RMSU=  1.27D-06    CP:  1.00D+00  1.06D+00  7.91D-01  1.10D+00
 E= -2048.75048201028     Delta-E=       -0.000000818126 Rises=F Damp=F
 DIIS: error= 1.44D-05 at cycle   5 NSaved=   5.
 NSaved= 5 IEnMin= 5 EnMin= -2048.75048201028     IErMin= 5 ErrMin= 1.44D-05
 ErrMax= 1.44D-05  0.00D+00 EMaxC= 1.00D-01 BMatC= 1.20D-07 BMatP= 4.82D-07
 IDIUse=1 WtCom= 1.00D+00 WtEn= 0.00D+00
 Coeff-Com: -0.267D-02-0.584D-01-0.124D+00 0.209D+00 0.975D+00
 Coeff:     -0.267D-02-0.584D-01-0.124D+00 0.209D+00 0.975D+00
 Gap=     0.284 Goal=   None    Shift=    0.000
 RMSDP=1.21D-06 MaxDP=7.69D-05 DE=-8.18D-07 OVMax= 2.50D-04

 Cycle  11  Pass 1  IDiag  1:
 RMSU=  4.94D-07    CP:  1.00D+00  1.06D+00  8.01D-01  1.39D+00  1.17D+00
 E= -2048.75048226824     Delta-E=       -0.000000257957 Rises=F Damp=F
 DIIS: error= 9.86D-06 at cycle   6 NSaved=   6.
 NSaved= 6 IEnMin= 6 EnMin= -2048.75048226824     IErMin= 6 ErrMin= 9.86D-06
 ErrMax= 9.86D-06  0.00D+00 EMaxC= 1.00D-01 BMatC= 2.77D-08 BMatP= 1.20D-07
 IDIUse=1 WtCom= 1.00D+00 WtEn= 0.00D+00
 Coeff-Com:  0.460D-02-0.464D-01-0.114D+00 0.187D-02 0.520D+00 0.634D+00
 Coeff:      0.460D-02-0.464D-01-0.114D+00 0.187D-02 0.520D+00 0.634D+00
 Gap=     0.284 Goal=   None    Shift=    0.000
 RMSDP=3.59D-07 MaxDP=3.69D-05 DE=-2.58D-07 OVMax= 1.31D-04

 Cycle  12  Pass 1  IDiag  1:
 RMSU=  1.79D-07    CP:  1.00D+00  1.06D+00  8.02D-01  1.45D+00  1.29D+00
                    CP:  9.36D-01
 E= -2048.75048230853     Delta-E=       -0.000000040289 Rises=F Damp=F
 DIIS: error= 1.23D-06 at cycle   7 NSaved=   7.
 NSaved= 7 IEnMin= 7 EnMin= -2048.75048230853     IErMin= 7 ErrMin= 1.23D-06
 ErrMax= 1.23D-06  0.00D+00 EMaxC= 1.00D-01 BMatC= 7.90D-10 BMatP= 2.77D-08
 IDIUse=1 WtCom= 1.00D+00 WtEn= 0.00D+00
 Coeff-Com:  0.109D-02-0.757D-02-0.200D-01-0.764D-02 0.567D-01 0.139D+00
 Coeff-Com:  0.838D+00
 Coeff:      0.109D-02-0.757D-02-0.200D-01-0.764D-02 0.567D-01 0.139D+00
 Coeff:      0.838D+00
 Gap=     0.284 Goal=   None    Shift=    0.000
 RMSDP=8.51D-08 MaxDP=5.04D-06 DE=-4.03D-08 OVMax= 2.28D-05

 Cycle  13  Pass 1  IDiag  1:
 RMSU=  4.98D-08    CP:  1.00D+00  1.06D+00  8.02D-01  1.46D+00  1.31D+00
                    CP:  1.03D+00  1.14D+00
 E= -2048.75048231057     Delta-E=       -0.000000002046 Rises=F Damp=F
 DIIS: error= 7.41D-07 at cycle   8 NSaved=   8.
 NSaved= 8 IEnMin= 8 EnMin= -2048.75048231057     IErMin= 8 ErrMin= 7.41D-07
 ErrMax= 7.41D-07  0.00D+00 EMaxC= 1.00D-01 BMatC= 3.13D-10 BMatP= 7.90D-10
 IDIUse=1 WtCom= 1.00D+00 WtEn= 0.00D+00
 Coeff-Com: -0.694D-03 0.878D-02 0.207D-01-0.250D-02-0.111D+00-0.961D-01
 Coeff-Com:  0.422D+00 0.759D+00
 Coeff:     -0.694D-03 0.878D-02 0.207D-01-0.250D-02-0.111D+00-0.961D-01
 Coeff:      0.422D+00 0.759D+00
 Gap=     0.284 Goal=   None    Shift=    0.000
 RMSDP=4.48D-08 MaxDP=2.79D-06 DE=-2.05D-09 OVMax= 1.12D-05

 Cycle  14  Pass 1  IDiag  1:
 RMSU=  2.65D-08    CP:  1.00D+00  1.06D+00  8.02D-01  1.47D+00  1.32D+00
                    CP:  1.07D+00  1.28D+00  1.08D+00
 E= -2048.75048231070     Delta-E=       -0.000000000126 Rises=F Damp=F
 DIIS: error= 2.43D-07 at cycle   9 NSaved=   9.
 NSaved= 9 IEnMin= 9 EnMin= -2048.75048231070     IErMin= 9 ErrMin= 2.43D-07
 ErrMax= 2.43D-07  0.00D+00 EMaxC= 1.00D-01 BMatC= 3.04D-11 BMatP= 3.13D-10
 IDIUse=1 WtCom= 1.00D+00 WtEn= 0.00D+00
 Coeff-Com: -0.416D-03 0.461D-02 0.111D-01-0.458D-04-0.532D-01-0.566D-01
 Coeff-Com:  0.835D-01 0.304D+00 0.707D+00
 Coeff:     -0.416D-03 0.461D-02 0.111D-01-0.458D-04-0.532D-01-0.566D-01
 Coeff:      0.835D-01 0.304D+00 0.707D+00
 Gap=     0.284 Goal=   None    Shift=    0.000
 RMSDP=1.34D-08 MaxDP=8.99D-07 DE=-1.26D-10 OVMax= 3.49D-06

 Cycle  15  Pass 1  IDiag  1:
 RMSU=  9.09D-09    CP:  1.00D+00  1.06D+00  8.02D-01  1.47D+00  1.32D+00
                    CP:  1.07D+00  1.31D+00  1.22D+00  1.12D+00
 E= -2048.75048231096     Delta-E=       -0.000000000261 Rises=F Damp=F
 DIIS: error= 7.51D-08 at cycle  10 NSaved=  10.
 NSaved=10 IEnMin=10 EnMin= -2048.75048231096     IErMin=10 ErrMin= 7.51D-08
 ErrMax= 7.51D-08  0.00D+00 EMaxC= 1.00D-01 BMatC= 5.36D-12 BMatP= 3.04D-11
 IDIUse=1 WtCom= 1.00D+00 WtEn= 0.00D+00
 Coeff-Com:  0.332D-05-0.288D-03-0.577D-03 0.204D-03 0.509D-02 0.813D-03
 Coeff-Com: -0.545D-01-0.563D-01 0.276D+00 0.829D+00
 Coeff:      0.332D-05-0.288D-03-0.577D-03 0.204D-03 0.509D-02 0.813D-03
 Coeff:     -0.545D-01-0.563D-01 0.276D+00 0.829D+00
 Gap=     0.284 Goal=   None    Shift=    0.000
 RMSDP=6.61D-09 MaxDP=4.00D-07 DE=-2.61D-10 OVMax= 1.43D-06

 SCF Done:  E(RwB97XD) =  -2048.75048231     A.U. after   15 cycles
            NFock= 15  Conv=0.66D-08     -V/T= 2.0054
 KE= 2.037702397596D+03 PE=-1.578084205150D+04 EE= 6.194423607086D+03
 Leave Link  502 at Sun Jan 21 20:42:43 2018, MaxMem=  4294967296 cpu:           21131.1 elap:             681.7
 (Enter /share/apps/g16/l601.exe)
 Copying SCF densities to generalized density rwf, IOpCl= 0 IROHF=0.

 **********************************************************************

            Population analysis using the SCF density.

 **********************************************************************

 Orbital symmetries:
       Occupied  (A) (A) (A) (A) (A) (A) (A) (A) (A) (A) (A) (A)
                 (A) (A) (A) (A) (A) (A) (A) (A) (A) (A) (A) (A)
                 (A) (A) (A) (A) (A) (A) (A) (A) (A) (A) (A) (A)
                 (A) (A) (A) (A) (A) (A) (A) (A) (A) (A) (A) (A)
                 (A) (A) (A) (A) (A) (A) (A) (A) (A) (A) (A) (A)
                 (A) (A) (A) (A) (A) (A) (A) (A) (A) (A) (A) (A)
                 (A) (A) (A) (A) (A) (A) (A) (A) (A) (A) (A) (A)
                 (A) (A) (A) (A) (A) (A) (A) (A) (A) (A) (A) (A)
                 (A) (A) (A) (A) (A) (A) (A) (A) (A) (A) (A) (A)
                 (A) (A) (A) (A) (A) (A) (A) (A) (A) (A) (A) (A)
                 (A) (A) (A) (A) (A) (A) (A) (A) (A) (A) (A) (A)
                 (A) (A) (A) (A) (A) (A) (A) (A) (A) (A) (A) (A)
                 (A) (A) (A) (A) (A) (A) (A) (A) (A) (A)
       Virtual   (A) (A) (A) (A) (A) (A) (A) (A) (A) (A) (A) (A)
                 (A) (A) (A) (A) (A) (A) (A) (A) (A) (A) (A) (A)
                 (A) (A) (A) (A) (A) (A) (A) (A) (A) (A) (A) (A)
                 (A) (A) (A) (A) (A) (A) (A) (A) (A) (A) (A) (A)
                 (A) (A) (A) (A) (A) (A) (A) (A) (A) (A) (A) (A)
                 (A) (A) (A) (A) (A) (A) (A) (A) (A) (A) (A) (A)
                 (A) (A) (A) (A) (A) (A) (A) (A) (A) (A) (A) (A)
                 (A) (A) (A) (A) (A) (A) (A) (A) (A) (A) (A) (A)
                 (A) (A) (A) (A) (A) (A) (A) (A) (A) (A) (A) (A)
                 (A) (A) (A) (A) (A) (A) (A) (A) (A) (A) (A) (A)
                 (A) (A) (A) (A) (A) (A) (A) (A) (A) (A) (A) (A)
                 (A) (A) (A) (A) (A) (A) (A) (A) (A) (A) (A) (A)
                 (A) (A) (A) (A) (A) (A) (A) (A) (A) (A) (A) (A)
                 (A) (A) (A) (A) (A) (A) (A) (A) (A) (A) (A) (A)
                 (A) (A) (A) (A) (A) (A) (A) (A) (A) (A) (A) (A)
                 (A) (A) (A) (A) (A) (A) (A) (A) (A) (A) (A) (A)
                 (A) (A) (A) (A) (A) (A) (A) (A) (A) (A) (A) (A)
                 (A) (A) (A) (A) (A) (A) (A) (A) (A) (A) (A) (A)
                 (A) (A) (A) (A) (A) (A) (A) (A) (A) (A) (A) (A)
                 (A) (A) (A) (A) (A) (A) (A) (A) (A) (A) (A) (A)
                 (A) (A) (A) (A) (A) (A) (A) (A) (A) (A) (A) (A)
                 (A) (A) (A) (A) (A) (A) (A) (A) (A) (A) (A) (A)
                 (A) (A) (A) (A) (A) (A) (A) (A) (A) (A) (A) (A)
                 (A) (A) (A) (A) (A) (A) (A) (A) (A) (A) (A) (A)
                 (A) (A) (A) (A) (A) (A) (A) (A) (A) (A) (A) (A)
                 (A) (A) (A) (A) (A) (A) (A) (A) (A) (A) (A) (A)
                 (A) (A) (A) (A) (A) (A) (A) (A) (A) (A) (A) (A)
                 (A) (A) (A) (A) (A) (A) (A) (A) (A) (A) (A) (A)
                 (A) (A) (A) (A) (A) (A) (A) (A) (A) (A) (A) (A)
                 (A) (A) (A) (A) (A) (A) (A) (A) (A) (A) (A) (A)
                 (A) (A) (A) (A) (A) (A) (A) (A) (A) (A) (A) (A)
                 (A) (A) (A) (A) (A) (A) (A) (A) (A) (A) (A) (A)
                 (A) (A) (A) (A) (A) (A) (A) (A) (A) (A) (A) (A)
                 (A) (A) (A) (A) (A) (A) (A) (A) (A) (A) (A) (A)
                 (A) (A) (A) (A) (A) (A) (A) (A) (A) (A) (A) (A)
                 (A) (A) (A) (A) (A) (A) (A) (A) (A) (A) (A) (A)
                 (A) (A) (A) (A) (A) (A) (A) (A) (A) (A) (A) (A)
                 (A) (A) (A) (A) (A) (A) (A) (A) (A) (A) (A) (A)
                 (A) (A) (A) (A) (A) (A) (A) (A) (A) (A) (A) (A)
                 (A) (A) (A) (A) (A) (A) (A) (A) (A) (A) (A) (A)
                 (A) (A) (A) (A) (A) (A) (A) (A) (A) (A) (A) (A)
                 (A) (A) (A) (A) (A) (A) (A) (A) (A) (A) (A) (A)
                 (A) (A) (A) (A) (A) (A) (A) (A) (A) (A) (A) (A)
                 (A) (A) (A) (A) (A) (A) (A) (A) (A) (A) (A) (A)
                 (A) (A) (A) (A) (A) (A) (A) (A) (A) (A) (A) (A)
                 (A) (A) (A) (A) (A) (A) (A) (A) (A) (A) (A) (A)
                 (A) (A) (A) (A) (A) (A) (A) (A) (A) (A) (A) (A)
                 (A) (A) (A) (A) (A) (A) (A) (A) (A) (A) (A) (A)
                 (A) (A) (A) (A) (A) (A) (A)
 The electronic state is 1-A.
 Alpha  occ. eigenvalues --  -19.26004 -19.22099 -19.20649 -14.52474 -14.51603
 Alpha  occ. eigenvalues --  -14.49246 -14.48625 -14.47950 -14.46858 -14.46679
 Alpha  occ. eigenvalues --  -14.46651 -14.44644 -14.43076 -14.43050 -14.42462
 Alpha  occ. eigenvalues --  -14.42029 -14.41849 -14.41437 -14.40749 -14.40564
 Alpha  occ. eigenvalues --  -10.45589 -10.41176 -10.40213 -10.38681 -10.38216
 Alpha  occ. eigenvalues --  -10.37768 -10.37193 -10.36168 -10.35793 -10.35583
 Alpha  occ. eigenvalues --  -10.34745 -10.34507 -10.34296 -10.33821 -10.33541
 Alpha  occ. eigenvalues --  -10.33512 -10.33201 -10.31552 -10.31426 -10.31026
 Alpha  occ. eigenvalues --  -10.30529 -10.28961 -10.28062  -1.19549  -1.14278
 Alpha  occ. eigenvalues --   -1.13209  -1.13140  -1.11815  -1.10506  -1.09363
 Alpha  occ. eigenvalues --   -1.08547  -1.08023  -1.05397  -1.03571  -1.02591
 Alpha  occ. eigenvalues --   -1.00812  -1.00073  -0.99738  -0.98512  -0.97382
 Alpha  occ. eigenvalues --   -0.96448  -0.95621  -0.93040  -0.91041  -0.86725
 Alpha  occ. eigenvalues --   -0.85186  -0.84390  -0.84004  -0.83833  -0.82748
 Alpha  occ. eigenvalues --   -0.82297  -0.78898  -0.75998  -0.74552  -0.73748
 Alpha  occ. eigenvalues --   -0.73649  -0.73429  -0.73296  -0.71483  -0.69371
 Alpha  occ. eigenvalues --   -0.67353  -0.66699  -0.66602  -0.65712  -0.64492
 Alpha  occ. eigenvalues --   -0.63723  -0.63296  -0.63009  -0.62662  -0.61702
 Alpha  occ. eigenvalues --   -0.60581  -0.60217  -0.59564  -0.59502  -0.58717
 Alpha  occ. eigenvalues --   -0.58606  -0.58350  -0.56934  -0.56896  -0.56441
 Alpha  occ. eigenvalues --   -0.56049  -0.55729  -0.54644  -0.54505  -0.54414
 Alpha  occ. eigenvalues --   -0.53606  -0.53591  -0.52882  -0.52803  -0.52658
 Alpha  occ. eigenvalues --   -0.52502  -0.52158  -0.51876  -0.51223  -0.50604
 Alpha  occ. eigenvalues --   -0.50113  -0.49547  -0.49490  -0.49030  -0.48790
 Alpha  occ. eigenvalues --   -0.48723  -0.48260  -0.47885  -0.47570  -0.47412
 Alpha  occ. eigenvalues --   -0.47370  -0.45445  -0.45353  -0.44009  -0.43576
 Alpha  occ. eigenvalues --   -0.41627  -0.39828  -0.39546  -0.37616  -0.37261
 Alpha  occ. eigenvalues --   -0.37206  -0.36802  -0.36527  -0.35820  -0.34211
 Alpha  occ. eigenvalues --   -0.34029  -0.33892  -0.33557  -0.33308  -0.33103
 Alpha  occ. eigenvalues --   -0.32687  -0.32225  -0.32033  -0.31829  -0.31399
 Alpha  occ. eigenvalues --   -0.30793  -0.28687  -0.26209  -0.25377
 Alpha virt. eigenvalues --    0.03031   0.04954   0.07581   0.07960   0.08759
 Alpha virt. eigenvalues --    0.09078   0.09704   0.10501   0.10815   0.11508
 Alpha virt. eigenvalues --    0.12963   0.13732   0.14501   0.14657   0.15307
 Alpha virt. eigenvalues --    0.15739   0.16285   0.16932   0.17258   0.18318
 Alpha virt. eigenvalues --    0.18717   0.19214   0.19847   0.20039   0.20364
 Alpha virt. eigenvalues --    0.20730   0.21338   0.21541   0.21603   0.22184
 Alpha virt. eigenvalues --    0.22748   0.23205   0.23343   0.23638   0.23853
 Alpha virt. eigenvalues --    0.24059   0.24145   0.24209   0.24852   0.25405
 Alpha virt. eigenvalues --    0.26128   0.26398   0.26708   0.27194   0.28072
 Alpha virt. eigenvalues --    0.28569   0.29214   0.29796   0.30372   0.30782
 Alpha virt. eigenvalues --    0.31232   0.32157   0.32668   0.33029   0.33672
 Alpha virt. eigenvalues --    0.33756   0.34623   0.34863   0.35898   0.36469
 Alpha virt. eigenvalues --    0.36667   0.37601   0.37886   0.39125   0.39552
 Alpha virt. eigenvalues --    0.40082   0.40644   0.41373   0.41515   0.41749
 Alpha virt. eigenvalues --    0.42018   0.42593   0.42997   0.43966   0.44526
 Alpha virt. eigenvalues --    0.44915   0.45479   0.45947   0.46298   0.46855
 Alpha virt. eigenvalues --    0.47321   0.48066   0.48667   0.49244   0.49545
 Alpha virt. eigenvalues --    0.49928   0.50236   0.50364   0.50627   0.51245
 Alpha virt. eigenvalues --    0.51408   0.51932   0.52062   0.52963   0.53533
 Alpha virt. eigenvalues --    0.53963   0.54425   0.54439   0.54681   0.55511
 Alpha virt. eigenvalues --    0.55879   0.56230   0.56312   0.56937   0.57251
 Alpha virt. eigenvalues --    0.57432   0.58015   0.58824   0.59168   0.59927
 Alpha virt. eigenvalues --    0.60179   0.60533   0.60782   0.61133   0.61326
 Alpha virt. eigenvalues --    0.62038   0.62107   0.62677   0.63447   0.63569
 Alpha virt. eigenvalues --    0.64074   0.64479   0.64775   0.65140   0.65227
 Alpha virt. eigenvalues --    0.65791   0.66180   0.66551   0.66716   0.67440
 Alpha virt. eigenvalues --    0.67594   0.68350   0.68677   0.69001   0.69664
 Alpha virt. eigenvalues --    0.70037   0.70850   0.71550   0.71622   0.71966
 Alpha virt. eigenvalues --    0.72179   0.72734   0.73036   0.73434   0.73591
 Alpha virt. eigenvalues --    0.73784   0.74018   0.74801   0.74884   0.75210
 Alpha virt. eigenvalues --    0.75765   0.76229   0.76568   0.76683   0.76832
 Alpha virt. eigenvalues --    0.77315   0.77782   0.78248   0.78743   0.78984
 Alpha virt. eigenvalues --    0.79209   0.79522   0.79846   0.80235   0.80856
 Alpha virt. eigenvalues --    0.81388   0.81965   0.82267   0.83102   0.83351
 Alpha virt. eigenvalues --    0.83786   0.83839   0.84512   0.84991   0.85590
 Alpha virt. eigenvalues --    0.85931   0.86073   0.86660   0.87032   0.87731
 Alpha virt. eigenvalues --    0.88012   0.88527   0.88804   0.89280   0.89815
 Alpha virt. eigenvalues --    0.90473   0.90667   0.90915   0.91494   0.92120
 Alpha virt. eigenvalues --    0.92675   0.93292   0.93729   0.94110   0.94789
 Alpha virt. eigenvalues --    0.94891   0.95598   0.96003   0.96267   0.96441
 Alpha virt. eigenvalues --    0.96811   0.97305   0.98060   0.98267   0.98727
 Alpha virt. eigenvalues --    0.98792   0.99701   1.00519   1.01010   1.01255
 Alpha virt. eigenvalues --    1.01666   1.02204   1.02619   1.02862   1.03412
 Alpha virt. eigenvalues --    1.04017   1.04078   1.04623   1.05246   1.05571
 Alpha virt. eigenvalues --    1.06229   1.06607   1.06778   1.07493   1.07703
 Alpha virt. eigenvalues --    1.08309   1.08606   1.10043   1.10955   1.11291
 Alpha virt. eigenvalues --    1.11863   1.12237   1.12867   1.13561   1.13682
 Alpha virt. eigenvalues --    1.14149   1.14345   1.14642   1.14894   1.15707
 Alpha virt. eigenvalues --    1.15984   1.16508   1.17195   1.18016   1.18313
 Alpha virt. eigenvalues --    1.18627   1.19023   1.19508   1.19902   1.20154
 Alpha virt. eigenvalues --    1.20431   1.20876   1.20929   1.21442   1.21757
 Alpha virt. eigenvalues --    1.21805   1.21962   1.22447   1.23270   1.23492
 Alpha virt. eigenvalues --    1.23765   1.23912   1.24212   1.24528   1.24595
 Alpha virt. eigenvalues --    1.25084   1.25990   1.26299   1.26826   1.28418
 Alpha virt. eigenvalues --    1.28897   1.29216   1.30069   1.30309   1.30570
 Alpha virt. eigenvalues --    1.31677   1.32709   1.32903   1.33485   1.34084
 Alpha virt. eigenvalues --    1.34257   1.35233   1.36190   1.36705   1.37501
 Alpha virt. eigenvalues --    1.37958   1.38408   1.39342   1.39665   1.40269
 Alpha virt. eigenvalues --    1.40876   1.42202   1.42697   1.43726   1.44496
 Alpha virt. eigenvalues --    1.44768   1.45197   1.46208   1.47958   1.48259
 Alpha virt. eigenvalues --    1.48560   1.48808   1.49446   1.50159   1.50719
 Alpha virt. eigenvalues --    1.51370   1.52445   1.52855   1.53655   1.54197
 Alpha virt. eigenvalues --    1.54803   1.55644   1.56008   1.56564   1.57852
 Alpha virt. eigenvalues --    1.58245   1.58573   1.59609   1.60443   1.61777
 Alpha virt. eigenvalues --    1.62108   1.62232   1.62777   1.63375   1.63998
 Alpha virt. eigenvalues --    1.64466   1.64809   1.66122   1.66639   1.67050
 Alpha virt. eigenvalues --    1.67911   1.68226   1.68359   1.68474   1.69458
 Alpha virt. eigenvalues --    1.69927   1.70484   1.70835   1.71470   1.71736
 Alpha virt. eigenvalues --    1.72145   1.72377   1.72663   1.73555   1.73839
 Alpha virt. eigenvalues --    1.74552   1.74690   1.74799   1.75231   1.75641
 Alpha virt. eigenvalues --    1.75742   1.76133   1.76361   1.76494   1.77268
 Alpha virt. eigenvalues --    1.77936   1.78030   1.78223   1.78780   1.79490
 Alpha virt. eigenvalues --    1.79608   1.79794   1.79933   1.80158   1.80387
 Alpha virt. eigenvalues --    1.81037   1.81438   1.81646   1.81731   1.82150
 Alpha virt. eigenvalues --    1.82844   1.83538   1.83874   1.84399   1.84659
 Alpha virt. eigenvalues --    1.85654   1.85850   1.86103   1.86733   1.87101
 Alpha virt. eigenvalues --    1.87320   1.88016   1.88397   1.88505   1.89104
 Alpha virt. eigenvalues --    1.89774   1.90369   1.91119   1.91346   1.91447
 Alpha virt. eigenvalues --    1.91673   1.92354   1.92868   1.93673   1.94092
 Alpha virt. eigenvalues --    1.94258   1.95452   1.95854   1.96796   1.97583
 Alpha virt. eigenvalues --    1.98101   1.99295   2.00193   2.00534   2.01005
 Alpha virt. eigenvalues --    2.01911   2.02321   2.02413   2.03091   2.04054
 Alpha virt. eigenvalues --    2.04753   2.05027   2.06479   2.06904   2.07182
 Alpha virt. eigenvalues --    2.07670   2.08734   2.08832   2.09042   2.10078
 Alpha virt. eigenvalues --    2.10545   2.11082   2.12039   2.12194   2.12605
 Alpha virt. eigenvalues --    2.13860   2.15073   2.16024   2.17033   2.17816
 Alpha virt. eigenvalues --    2.18987   2.19692   2.20530   2.20909   2.21458
 Alpha virt. eigenvalues --    2.21726   2.22130   2.22860   2.23398   2.23649
 Alpha virt. eigenvalues --    2.24323   2.25110   2.26070   2.26541   2.26769
 Alpha virt. eigenvalues --    2.27460   2.27595   2.28704   2.29487   2.29737
 Alpha virt. eigenvalues --    2.29965   2.30632   2.31530   2.31812   2.32650
 Alpha virt. eigenvalues --    2.33404   2.33623   2.33982   2.34678   2.34777
 Alpha virt. eigenvalues --    2.35141   2.35716   2.36228   2.37301   2.37637
 Alpha virt. eigenvalues --    2.37933   2.39213   2.39889   2.40763   2.41342
 Alpha virt. eigenvalues --    2.41518   2.42241   2.42817   2.43195   2.43939
 Alpha virt. eigenvalues --    2.45267   2.45822   2.46080   2.46398   2.46700
 Alpha virt. eigenvalues --    2.46955   2.48774   2.49133   2.50047   2.51722
 Alpha virt. eigenvalues --    2.51929   2.54170   2.54853   2.55296   2.55661
 Alpha virt. eigenvalues --    2.56537   2.57422   2.57573   2.59049   2.59657
 Alpha virt. eigenvalues --    2.61121   2.61862   2.61983   2.62345   2.63315
 Alpha virt. eigenvalues --    2.64257   2.64868   2.65478   2.65673   2.66299
 Alpha virt. eigenvalues --    2.66858   2.67764   2.68629   2.68795   2.69124
 Alpha virt. eigenvalues --    2.69754   2.70831   2.71242   2.71723   2.72127
 Alpha virt. eigenvalues --    2.73509   2.74296   2.75114   2.75314   2.76202
 Alpha virt. eigenvalues --    2.77519   2.77927   2.79125   2.79584   2.79805
 Alpha virt. eigenvalues --    2.80014   2.80250   2.80425   2.81623   2.81775
 Alpha virt. eigenvalues --    2.82408   2.82651   2.82855   2.83485   2.84094
 Alpha virt. eigenvalues --    2.84614   2.84989   2.86270   2.86904   2.87044
 Alpha virt. eigenvalues --    2.87834   2.88473   2.89042   2.91766   2.93013
 Alpha virt. eigenvalues --    2.94357   2.96296   2.96745   2.97799   2.98991
 Alpha virt. eigenvalues --    3.00124   3.01272   3.01920   3.04796   3.05904
 Alpha virt. eigenvalues --    3.07024   3.09717   3.11265   3.13482   3.14849
 Alpha virt. eigenvalues --    3.15278   3.15779   3.16700   3.17944   3.20145
 Alpha virt. eigenvalues --    3.22366   3.23482   3.23736   3.24063   3.26662
 Alpha virt. eigenvalues --    3.45652   3.47063   3.47879   3.49989   3.50226
 Alpha virt. eigenvalues --    3.53049   3.54441   3.56340   3.58052   3.59994
 Alpha virt. eigenvalues --    3.62943   3.70742   3.74707
          Condensed to atoms (all electrons):
 Mulliken charges:
               1
     1  N   -0.311370
     2  C    0.180361
     3  C    0.047891
     4  N   -0.256038
     5  C    0.131621
     6  H    0.027564
     7  N   -0.283841
     8  C    0.130381
     9  H    0.014005
    10  N   -0.291376
    11  C    0.229448
    12  C    0.108347
    13  N   -0.046085
    14  H    0.109413
    15  H    0.089634
    16  H    0.027185
    17  H    0.033974
    18  H    0.024947
    19  N   -0.305422
    20  C    0.251916
    21  C    0.179938
    22  N   -0.112337
    23  H    0.111345
    24  H    0.115977
    25  N   -0.303768
    26  C    0.235293
    27  N   -0.131657
    28  H    0.116335
    29  C    0.156101
    30  O   -0.321941
    31  C    0.004735
    32  N   -0.224370
    33  C    0.124986
    34  H    0.025713
    35  H    0.030446
    36  H    0.027018
    37  H    0.022407
    38  H    0.052550
    39  H    0.063320
    40  H    0.071991
    41  H    0.028940
    42  C   -0.108806
    43  O   -0.274781
    44  C    0.166860
    45  H    0.136919
    46  N   -0.128882
    47  O   -0.348580
    48  C    0.352196
    49  H    0.046943
    50  C    0.184492
    51  C    0.039707
    52  N   -0.285551
    53  H    0.033506
    54  H    0.038118
    55  H    0.020938
    56  H    0.124426
    57  H    0.117616
    58  N   -0.049472
    59  C    0.109215
    60  C    0.241627
    61  N   -0.273212
    62  H    0.038778
    63  C    0.166610
    64  N   -0.301560
    65  H    0.031378
    66  C    0.119985
    67  N   -0.254898
    68  C    0.000730
    69  C    0.178259
    70  N   -0.308136
 Sum of Mulliken charges =  -0.00000
 Mulliken charges with hydrogens summed into heavy atoms:
               1
     1  N   -0.311370
     2  C    0.266468
     3  C    0.047891
     4  N   -0.256038
     5  C    0.159185
     7  N   -0.283841
     8  C    0.144386
    10  N   -0.291376
    11  C    0.229448
    12  C    0.108347
    13  N    0.152961
    19  N   -0.305422
    20  C    0.251916
    21  C    0.259809
    22  N    0.114985
    25  N   -0.303768
    26  C    0.235293
    27  N   -0.015322
    29  C    0.156101
    30  O   -0.321941
    31  C    0.004735
    32  N   -0.224370
    33  C    0.150700
    42  C   -0.079866
    43  O   -0.274781
    44  C    0.166860
    46  N    0.008038
    47  O   -0.348580
    48  C    0.352196
    50  C    0.231435
    51  C    0.227568
    52  N   -0.285551
    58  N    0.192570
    59  C    0.109215
    60  C    0.241627
    61  N   -0.273212
    63  C    0.205388
    64  N   -0.301560
    66  C    0.151364
    67  N   -0.254898
    68  C    0.000730
    69  C    0.270820
    70  N   -0.308136
 Electronic spatial extent (au):  <R**2>=          23090.6394
 Charge=             -0.0000 electrons
 Dipole moment (field-independent basis, Debye):
    X=              6.6092    Y=              6.1364    Z=              2.9702  Tot=              9.4952
 Quadrupole moment (field-independent basis, Debye-Ang):
   XX=           -142.9172   YY=           -224.8517   ZZ=           -255.0140
   XY=              9.9323   XZ=             12.6513   YZ=             -5.5283
 Traceless Quadrupole moment (field-independent basis, Debye-Ang):
   XX=             64.6771   YY=            -17.2574   ZZ=            -47.4197
   XY=              9.9323   XZ=             12.6513   YZ=             -5.5283
 Octapole moment (field-independent basis, Debye-Ang**2):
  XXX=            -11.3338  YYY=             81.4701  ZZZ=             23.0567  XYY=             43.8314
  XXY=             31.2902  XXZ=            -49.0626  XZZ=             41.5694  YZZ=             50.1812
  YYZ=             44.8978  XYZ=             46.7421
 Hexadecapole moment (field-independent basis, Debye-Ang**3):
 XXXX=         -15770.0608 YYYY=          -4670.4595 ZZZZ=          -3456.3180 XXXY=            495.4431
 XXXZ=            128.2053 YYYX=             12.7879 YYYZ=            -48.6136 ZZZX=            114.5033
 ZZZY=             50.5142 XXYY=          -4106.7696 XXZZ=          -4128.8662 YYZZ=          -1450.3134
 XXYZ=             90.1589 YYXZ=            169.5376 ZZXY=            113.5290
 N-N= 5.499965564508D+03 E-N=-1.578084205091D+04  KE= 2.037702397596D+03
 No NMR shielding tensors so no spin-rotation constants.
 Leave Link  601 at Sun Jan 21 20:42:45 2018, MaxMem=  4294967296 cpu:              48.1 elap:               1.7
 (Enter /share/apps/g16/l9999.exe)
 1\1\GINC-COMPUTE-0-3\SP\RwB97XD\CC-pVDZ\C23H27N17O3\SATYA\21-Jan-2018\
 0\\#p wb97xd/cc-pvdz sp scf=(maxcycles=20)\\Base pair stacking\\0,1\N,
 0,6.22473,6.38749,-6.07304\C,0,6.71899,7.77023,-6.22048\C,0,4.93663,4.
 60569,-6.01554\N,0,6.21139,4.17405,-5.67879\C,0,6.9364,5.26479,-5.7269
 1\H,0,8.00555,5.30835,-5.51722\N,0,2.62758,4.6541,-6.49397\C,0,2.77526
 ,5.96695,-6.69938\H,0,1.86704,6.49884,-6.97954\N,0,3.87126,6.71789,-6.
 61109\C,0,4.92923,5.9677,-6.26131\C,0,3.71095,3.92721,-6.14321\N,0,3.5
 6554,2.61656,-5.93773\H,0,4.34019,2.03953,-5.67665\H,0,2.67781,2.16701
 ,-6.0377\H,0,7.42582,7.79941,-6.92739\H,0,5.96268,8.36926,-6.48178\H,0
 ,7.10497,8.08278,-5.35253\N,0,1.72585,6.23598,-3.25196\C,0,0.80511,5.2
 1733,-3.30336\C,0,1.41928,7.67236,-3.40534\N,0,-2.47644,4.14538,-3.682
 95\H,0,-2.97338,3.27804,-3.68632\H,0,-3.01447,4.9771,-3.8225\N,0,-0.52
 367,5.35632,-3.50105\C,0,-1.14824,4.19206,-3.4996\N,0,-0.52134,2.98303
 ,-3.31858\H,0,-1.0789,2.14286,-3.33257\C,0,0.84468,2.81632,-3.11353\O,
 0,1.31032,1.68028,-2.96081\C,0,1.52903,4.05831,-3.11253\N,0,2.87712,4.
 34359,-2.94469\C,0,2.94616,5.6441,-3.03478\H,0,3.86552,6.22449,-2.9499
 4\H,0,1.91807,8.03944,-4.18973\H,0,0.43777,7.78767,-3.55233\H,0,1.6912
 8,8.16311,-2.5783\H,0,-4.3093,-1.6977,-4.14947\H,0,-4.35304,-1.76128,-
 2.38916\H,0,-4.10717,-0.21906,-3.2092\H,0,-0.16299,-3.96471,-3.24646\C
 ,0,-0.57418,-2.95552,-3.22023\O,0,1.5462,-1.89587,-3.12926\C,0,0.31713
 ,-1.83771,-3.15771\H,0,0.29065,0.20735,-3.08451\N,0,-0.30629,-0.60655,
 -3.12874\O,0,-2.11498,0.7667,-3.12409\C,0,-1.65649,-0.36184,-3.15345\H
 ,0,-2.61612,-3.56462,-3.29297\C,0,-1.89601,-2.74881,-3.24562\C,0,-3.90
 025,-1.27841,-3.24232\N,0,-2.45039,-1.49023,-3.21393\H,0,-4.60854,1.64
 342,-7.61498\H,0,-3.86872,2.7078,-6.62409\H,0,-4.84885,1.55995,-6.0029
 3\H,0,2.18811,-0.79159,-5.89981\H,0,0.86702,-1.84134,-6.15055\N,0,1.20
 624,-0.90515,-6.05206\C,0,0.38487,0.14452,-6.12085\C,0,-1.72275,1.2180
 2,-6.38026\N,0,-1.23924,2.46389,-6.2444\H,0,0.55253,3.40761,-5.92888\C
 ,0,0.0776,2.4349,-6.04949\N,0,0.90204,1.38462,-5.98027\H,0,-3.94138,-1
 .09028,-6.82927\C,0,-3.02469,-0.52356,-6.66356\N,0,-1.83641,-1.0557,-6
 .51356\C,0,-1.00165,0.03762,-6.33312\C,0,-4.18086,1.76298,-6.71899\N,0
 ,-3.02948,0.84825,-6.59408\\Version=EM64L-G16RevA.03\State=1-A\HF=-204
 8.7504823\RMSD=6.605e-09\Dipole=-3.7023482,-0.1219298,-0.4827901\Quadr
 upole=24.0675858,10.0424658,-34.1100516,32.0514576,-6.3790242,5.478465
 7\PG=C01 [X(C23H27N17O3)]\\@


 Boundary, n.  In political geography, an imaginary
 line between two nations, separating the imaginary
 rights of one from the imaginary rights of another.
                               -- Ambrose Bierce
 Job cpu time:       0 days  6 hours  2 minutes 26.2 seconds.
 Elapsed time:       0 days  0 hours 11 minutes 41.4 seconds.
 File lengths (MBytes):  RWF=    298 Int=      0 D2E=      0 Chk=     33 Scr=      1
 Normal termination of Gaussian 16 at Sun Jan 21 20:42:45 2018.
