 Entering Gaussian System, Link 0=g16
 Input=str30.-20.-2.5.com
 Output=str30.-20.-2.5.log
 Initial command:
 /share/apps/g16/l1.exe "/state/partition1/scr/Gau-15099.inp" -scrdir="/state/partition1/scr/"
 Entering Link 1 = /share/apps/g16/l1.exe PID=     15100.
  
 Copyright (c) 1988,1990,1992,1993,1995,1998,2003,2009,2016,
            Gaussian, Inc.  All Rights Reserved.
  
 This is part of the Gaussian(R) 16 program.  It is based on
 the Gaussian(R) 09 system (copyright 2009, Gaussian, Inc.),
 the Gaussian(R) 03 system (copyright 2003, Gaussian, Inc.),
 the Gaussian(R) 98 system (copyright 1998, Gaussian, Inc.),
 the Gaussian(R) 94 system (copyright 1995, Gaussian, Inc.),
 the Gaussian 92(TM) system (copyright 1992, Gaussian, Inc.),
 the Gaussian 90(TM) system (copyright 1990, Gaussian, Inc.),
 the Gaussian 88(TM) system (copyright 1988, Gaussian, Inc.),
 the Gaussian 86(TM) system (copyright 1986, Carnegie Mellon
 University), and the Gaussian 82(TM) system (copyright 1983,
 Carnegie Mellon University). Gaussian is a federally registered
 trademark of Gaussian, Inc.
  
 This software contains proprietary and confidential information,
 including trade secrets, belonging to Gaussian, Inc.
  
 This software is provided under written license and may be
 used, copied, transmitted, or stored only in accord with that
 written license.
  
 The following legend is applicable only to US Government
 contracts under FAR:
  
                    RESTRICTED RIGHTS LEGEND
  
 Use, reproduction and disclosure by the US Government is
 subject to restrictions as set forth in subparagraphs (a)
 and (c) of the Commercial Computer Software - Restricted
 Rights clause in FAR 52.227-19.
  
 Gaussian, Inc.
 340 Quinnipiac St., Bldg. 40, Wallingford CT 06492
  
  
 ---------------------------------------------------------------
 Warning -- This program may not be used in any manner that
 competes with the business of Gaussian, Inc. or will provide
 assistance to any competitor of Gaussian, Inc.  The licensee
 of this program is prohibited from giving any competitor of
 Gaussian, Inc. access to this program.  By using this program,
 the user acknowledges that Gaussian, Inc. is engaged in the
 business of creating and licensing software in the field of
 computational chemistry and represents and warrants to the
 licensee that it is not a competitor of Gaussian, Inc. and that
 it will not use this program in any manner prohibited above.
 ---------------------------------------------------------------
  

 Cite this work as:
 Gaussian 16, Revision A.03,
 M. J. Frisch, G. W. Trucks, H. B. Schlegel, G. E. Scuseria, 
 M. A. Robb, J. R. Cheeseman, G. Scalmani, V. Barone, 
 G. A. Petersson, H. Nakatsuji, X. Li, M. Caricato, A. V. Marenich, 
 J. Bloino, B. G. Janesko, R. Gomperts, B. Mennucci, H. P. Hratchian, 
 J. V. Ortiz, A. F. Izmaylov, J. L. Sonnenberg, D. Williams-Young, 
 F. Ding, F. Lipparini, F. Egidi, J. Goings, B. Peng, A. Petrone, 
 T. Henderson, D. Ranasinghe, V. G. Zakrzewski, J. Gao, N. Rega, 
 G. Zheng, W. Liang, M. Hada, M. Ehara, K. Toyota, R. Fukuda, 
 J. Hasegawa, M. Ishida, T. Nakajima, Y. Honda, O. Kitao, H. Nakai, 
 T. Vreven, K. Throssell, J. A. Montgomery, Jr., J. E. Peralta, 
 F. Ogliaro, M. J. Bearpark, J. J. Heyd, E. N. Brothers, K. N. Kudin, 
 V. N. Staroverov, T. A. Keith, R. Kobayashi, J. Normand, 
 K. Raghavachari, A. P. Rendell, J. C. Burant, S. S. Iyengar, 
 J. Tomasi, M. Cossi, J. M. Millam, M. Klene, C. Adamo, R. Cammi, 
 J. W. Ochterski, R. L. Martin, K. Morokuma, O. Farkas, 
 J. B. Foresman, and D. J. Fox, Gaussian, Inc., Wallingford CT, 2016.
 
 ******************************************
 Gaussian 16:  EM64L-G16RevA.03 25-Dec-2016
                21-Jan-2018 
 ******************************************
 %nprocshared=32
 Will use up to   32 processors via shared memory.
 %mem=32GB
 %chk=allatoms_t.chk
 ---------------------------------------
 #p wb97xd/cc-pvdz sp scf=(maxcycles=20)
 ---------------------------------------
 1/38=1,172=1/1;
 2/12=2,17=6,18=5,40=1/2;
 3/5=16,11=2,25=1,30=1,74=-58/1,2,3;
 4//1;
 5/5=2,7=20,38=5/2;
 6/7=2,8=2,9=2,10=2,28=1/1;
 99/5=1,9=1/99;
 Leave Link    1 at Sun Jan 21 17:20:47 2018, MaxMem=  4294967296 cpu:               2.7 elap:               0.1
 (Enter /share/apps/g16/l101.exe)
 ------------------
 Base pair stacking
 ------------------
 Symbolic Z-matrix:
 Charge =  0 Multiplicity = 1
 N                     4.33182   8.74751  -7.70308 
 C                     4.85908   10.12402  -7.63078 
 C                     3.0711    6.95987  -7.47452 
 N                     4.18216   6.56062  -8.20315 
 C                     4.89723   7.65359  -8.31168 
 H                     5.85431   7.7194   -8.82994 
 N                     1.01294   6.95848  -6.32262 
 C                     1.22647   8.25856  -6.09507 
 H                     0.44885   8.76465  -5.5246 
 N                     2.25155   9.02375  -6.46468 
 C                     3.14926   8.3052   -7.15911 
 C                     1.93477   6.26349  -7.02426 
 N                     1.7234    4.96564  -7.25242 
 H                     2.37899   4.41211  -7.76724 
 H                     0.903     4.50261  -6.91673 
 H                     4.96939   10.48915  -8.55527 
 H                     4.22123   10.69966  -7.11999 
 H                     5.74553   10.11975  -7.16798 
 N                     1.27685   7.16823  -3.29741 
 C                     0.38135   6.14745  -3.0873 
 C                     0.97635   8.60806  -3.16589 
 N                    -2.8136    5.0739   -2.24974 
 H                    -3.29651   4.20467  -2.14735 
 H                    -3.33876   5.90772  -2.07749 
 N                    -0.91312   6.28714  -2.72828 
 C                    -1.51995   5.12032  -2.60216 
 N                    -0.90773   3.9083   -2.81118 
 H                    -1.44971   3.06631  -2.69169 
 C                     0.42305   3.74081  -3.18109 
 O                     0.8781    2.60198  -3.34459 
 C                     1.088     4.98552  -3.32045 
 N                     2.40072   5.27109  -3.6699 
 C                     2.46626   6.57462  -3.64321 
 H                     3.36099   7.15612  -3.86816 
 H                     1.13591   9.06479  -4.04038 
 H                     0.02016   8.72391  -2.90027 
 H                     1.56644   9.01094  -2.46712 
 H                    -4.85021  -0.71164  -2.56339 
 H                    -4.19827  -0.96493  -0.94615 
 H                    -4.25107   0.66007  -1.63021 
 H                    -0.75121  -3.00076  -3.61444 
 C                    -1.08936  -2.00648  -3.3224 
 O                     0.92485  -0.93137  -3.96599 
 C                    -0.21364  -0.88876  -3.50036 
 H                    -0.14993   1.13592  -3.20894 
 N                    -0.73924   0.32272  -3.09874 
 O                    -2.35905   1.66046  -2.23625 
 C                    -1.98214   0.54858  -2.56233 
 H                    -3.0113   -2.6345   -2.64599 
 C                    -2.30756  -1.81791  -2.80179 
 C                    -4.10471  -0.38636  -1.85311 
 N                    -2.76788  -0.57843  -2.42209 
 H                    -5.75047   3.90186  -3.5666 
 H                    -4.38656   4.57725  -2.97866 
 H                    -4.95306   3.18886  -2.33404 
 H                     0.10062   1.68082  -7.55373 
 H                    -1.24919   0.68033  -7.2585 
 N                    -0.76615   1.5374   -7.07594 
 C                    -1.25694   2.44796  -6.23262 
 C                    -2.84788   3.32602  -4.6965 
 N                    -2.1775    4.46794  -4.4706 
 H                    -0.44502   5.39271  -5.05707 
 C                    -1.05213   4.49707  -5.18165 
 N                    -0.55882   3.58609  -6.02684 
 H                    -5.22637   1.15483  -4.41204 
 C                    -4.32285   1.70349  -4.67956 
 N                    -3.41091   1.27425  -5.5173 
 C                    -2.46999   2.29357  -5.53719 
 C                    -4.84811   3.71355  -3.17895 
 N                    -4.04618   2.93832  -4.14535 
 
 ITRead=  0  0  0  0  0  0  0  0  0  0  0  0  0  0  0  0  0  0  0  0
 ITRead=  0  0  0  0  0  0  0  0  0  0  0  0  0  0  0  0  0  0  0  0
 ITRead=  0  0  0  0  0  0  0  0  0  0  0  0  0  0  0  0  0  0  0  0
 ITRead=  0  0  0  0  0  0  0  0  0  0
 MicOpt= -1 -1 -1 -1 -1 -1 -1 -1 -1 -1 -1 -1 -1 -1 -1 -1 -1 -1 -1 -1
 MicOpt= -1 -1 -1 -1 -1 -1 -1 -1 -1 -1 -1 -1 -1 -1 -1 -1 -1 -1 -1 -1
 MicOpt= -1 -1 -1 -1 -1 -1 -1 -1 -1 -1 -1 -1 -1 -1 -1 -1 -1 -1 -1 -1
 MicOpt= -1 -1 -1 -1 -1 -1 -1 -1 -1 -1
 NAtoms=     70 NQM=       70 NQMF=       0 NMMI=      0 NMMIF=      0
                NMic=       0 NMicF=      0.
                    Isotopes and Nuclear Properties:
 (Nuclear quadrupole moments (NQMom) in fm**2, nuclear magnetic moments (NMagM)
  in nuclear magnetons)

  Atom         1           2           3           4           5           6           7           8           9          10
 IAtWgt=          14          12          12          14          12           1          14          12           1          14
 AtmWgt=  14.0030740  12.0000000  12.0000000  14.0030740  12.0000000   1.0078250  14.0030740  12.0000000   1.0078250  14.0030740
 NucSpn=           2           0           0           2           0           1           2           0           1           2
 AtZEff=  -0.0000000  -0.0000000  -0.0000000  -0.0000000  -0.0000000  -0.0000000  -0.0000000  -0.0000000  -0.0000000  -0.0000000
 NQMom=    2.0440000   0.0000000   0.0000000   2.0440000   0.0000000   0.0000000   2.0440000   0.0000000   0.0000000   2.0440000
 NMagM=    0.4037610   0.0000000   0.0000000   0.4037610   0.0000000   2.7928460   0.4037610   0.0000000   2.7928460   0.4037610
 AtZNuc=   7.0000000   6.0000000   6.0000000   7.0000000   6.0000000   1.0000000   7.0000000   6.0000000   1.0000000   7.0000000

  Atom        11          12          13          14          15          16          17          18          19          20
 IAtWgt=          12          12          14           1           1           1           1           1          14          12
 AtmWgt=  12.0000000  12.0000000  14.0030740   1.0078250   1.0078250   1.0078250   1.0078250   1.0078250  14.0030740  12.0000000
 NucSpn=           0           0           2           1           1           1           1           1           2           0
 AtZEff=  -0.0000000  -0.0000000  -0.0000000  -0.0000000  -0.0000000  -0.0000000  -0.0000000  -0.0000000  -0.0000000  -0.0000000
 NQMom=    0.0000000   0.0000000   2.0440000   0.0000000   0.0000000   0.0000000   0.0000000   0.0000000   2.0440000   0.0000000
 NMagM=    0.0000000   0.0000000   0.4037610   2.7928460   2.7928460   2.7928460   2.7928460   2.7928460   0.4037610   0.0000000
 AtZNuc=   6.0000000   6.0000000   7.0000000   1.0000000   1.0000000   1.0000000   1.0000000   1.0000000   7.0000000   6.0000000

  Atom        21          22          23          24          25          26          27          28          29          30
 IAtWgt=          12          14           1           1          14          12          14           1          12          16
 AtmWgt=  12.0000000  14.0030740   1.0078250   1.0078250  14.0030740  12.0000000  14.0030740   1.0078250  12.0000000  15.9949146
 NucSpn=           0           2           1           1           2           0           2           1           0           0
 AtZEff=  -0.0000000  -0.0000000  -0.0000000  -0.0000000  -0.0000000  -0.0000000  -0.0000000  -0.0000000  -0.0000000  -0.0000000
 NQMom=    0.0000000   2.0440000   0.0000000   0.0000000   2.0440000   0.0000000   2.0440000   0.0000000   0.0000000   0.0000000
 NMagM=    0.0000000   0.4037610   2.7928460   2.7928460   0.4037610   0.0000000   0.4037610   2.7928460   0.0000000   0.0000000
 AtZNuc=   6.0000000   7.0000000   1.0000000   1.0000000   7.0000000   6.0000000   7.0000000   1.0000000   6.0000000   8.0000000

  Atom        31          32          33          34          35          36          37          38          39          40
 IAtWgt=          12          14          12           1           1           1           1           1           1           1
 AtmWgt=  12.0000000  14.0030740  12.0000000   1.0078250   1.0078250   1.0078250   1.0078250   1.0078250   1.0078250   1.0078250
 NucSpn=           0           2           0           1           1           1           1           1           1           1
 AtZEff=  -0.0000000  -0.0000000  -0.0000000  -0.0000000  -0.0000000  -0.0000000  -0.0000000  -0.0000000  -0.0000000  -0.0000000
 NQMom=    0.0000000   2.0440000   0.0000000   0.0000000   0.0000000   0.0000000   0.0000000   0.0000000   0.0000000   0.0000000
 NMagM=    0.0000000   0.4037610   0.0000000   2.7928460   2.7928460   2.7928460   2.7928460   2.7928460   2.7928460   2.7928460
 AtZNuc=   6.0000000   7.0000000   6.0000000   1.0000000   1.0000000   1.0000000   1.0000000   1.0000000   1.0000000   1.0000000

  Atom        41          42          43          44          45          46          47          48          49          50
 IAtWgt=           1          12          16          12           1          14          16          12           1          12
 AtmWgt=   1.0078250  12.0000000  15.9949146  12.0000000   1.0078250  14.0030740  15.9949146  12.0000000   1.0078250  12.0000000
 NucSpn=           1           0           0           0           1           2           0           0           1           0
 AtZEff=  -0.0000000  -0.0000000  -0.0000000  -0.0000000  -0.0000000  -0.0000000  -0.0000000  -0.0000000  -0.0000000  -0.0000000
 NQMom=    0.0000000   0.0000000   0.0000000   0.0000000   0.0000000   2.0440000   0.0000000   0.0000000   0.0000000   0.0000000
 NMagM=    2.7928460   0.0000000   0.0000000   0.0000000   2.7928460   0.4037610   0.0000000   0.0000000   2.7928460   0.0000000
 AtZNuc=   1.0000000   6.0000000   8.0000000   6.0000000   1.0000000   7.0000000   8.0000000   6.0000000   1.0000000   6.0000000

  Atom        51          52          53          54          55          56          57          58          59          60
 IAtWgt=          12          14           1           1           1           1           1          14          12          12
 AtmWgt=  12.0000000  14.0030740   1.0078250   1.0078250   1.0078250   1.0078250   1.0078250  14.0030740  12.0000000  12.0000000
 NucSpn=           0           2           1           1           1           1           1           2           0           0
 AtZEff=  -0.0000000  -0.0000000  -0.0000000  -0.0000000  -0.0000000  -0.0000000  -0.0000000  -0.0000000  -0.0000000  -0.0000000
 NQMom=    0.0000000   2.0440000   0.0000000   0.0000000   0.0000000   0.0000000   0.0000000   2.0440000   0.0000000   0.0000000
 NMagM=    0.0000000   0.4037610   2.7928460   2.7928460   2.7928460   2.7928460   2.7928460   0.4037610   0.0000000   0.0000000
 AtZNuc=   6.0000000   7.0000000   1.0000000   1.0000000   1.0000000   1.0000000   1.0000000   7.0000000   6.0000000   6.0000000

  Atom        61          62          63          64          65          66          67          68          69          70
 IAtWgt=          14           1          12          14           1          12          14          12          12          14
 AtmWgt=  14.0030740   1.0078250  12.0000000  14.0030740   1.0078250  12.0000000  14.0030740  12.0000000  12.0000000  14.0030740
 NucSpn=           2           1           0           2           1           0           2           0           0           2
 AtZEff=  -0.0000000  -0.0000000  -0.0000000  -0.0000000  -0.0000000  -0.0000000  -0.0000000  -0.0000000  -0.0000000  -0.0000000
 NQMom=    2.0440000   0.0000000   0.0000000   2.0440000   0.0000000   0.0000000   2.0440000   0.0000000   0.0000000   2.0440000
 NMagM=    0.4037610   2.7928460   0.0000000   0.4037610   2.7928460   0.0000000   0.4037610   0.0000000   0.0000000   0.4037610
 AtZNuc=   7.0000000   1.0000000   6.0000000   7.0000000   1.0000000   6.0000000   7.0000000   6.0000000   6.0000000   7.0000000
 Leave Link  101 at Sun Jan 21 17:20:48 2018, MaxMem=  4294967296 cpu:               8.1 elap:               0.3
 (Enter /share/apps/g16/l202.exe)
 Stoichiometry    C23H27N17O3
 Framework group  C1[X(C23H27N17O3)]
 Deg. of freedom   204
 Full point group                 C1      NOp   1
 Largest Abelian subgroup         C1      NOp   1
 Largest concise Abelian subgroup C1      NOp   1
                         Standard orientation:                         
 ---------------------------------------------------------------------
 Center     Atomic      Atomic             Coordinates (Angstroms)
 Number     Number       Type             X           Y           Z
 ---------------------------------------------------------------------
      1          7           0       -7.091322   -1.084499    0.194372
      2          6           0       -8.400590   -0.438779   -0.022131
      3          6           0       -4.954823   -1.438410    0.578334
      4          7           0       -5.532297   -2.689325    0.415572
      5          6           0       -6.796348   -2.426036    0.190757
      6          1           0       -7.564650   -3.179318    0.014112
      7          7           0       -3.395261    0.292392    0.945747
      8          6           0       -4.416412    1.141627    0.792019
      9          1           0       -4.162082    2.196512    0.885781
     10          7           0       -5.698550    0.884631    0.541040
     11          6           0       -5.903374   -0.439456    0.444746
     12          6           0       -3.633925   -1.033343    0.843051
     13          7           0       -2.615882   -1.882630    0.996192
     14          1           0       -2.746439   -2.872375    0.928429
     15          1           0       -1.688497   -1.558730    1.183773
     16          1           0       -9.046952   -0.750936    0.674249
     17          1           0       -8.298085    0.553537    0.040501
     18          1           0       -8.747625   -0.679778   -0.928487
     19          7           0       -2.690326    1.886336   -1.549839
     20          6           0       -1.343622    1.822104   -1.284662
     21          6           0       -3.555565    3.055790   -1.295977
     22          7           0        1.563141    3.309176   -0.100993
     23          1           0        2.524928    3.061536    0.012522
     24          1           0        1.294344    4.228693    0.187028
     25          7           0       -0.590573    2.808600   -0.751929
     26          6           0        0.673103    2.447610   -0.616185
     27          7           0        1.163796    1.215305   -0.974153
     28          1           0        2.144528    1.026625   -0.834400
     29          6           0        0.407271    0.185179   -1.524037
     30          8           0        0.947845   -0.889774   -1.812124
     31          6           0       -0.952411    0.558114   -1.675913
     32          7           0       -2.031791   -0.156805   -2.176642
     33          6           0       -3.038435    0.669016   -2.082380
     34          1           0       -4.060013    0.440238   -2.387873
     35          1           0       -4.281996    2.802804   -0.657940
     36          1           0       -3.008671    3.792945   -0.901280
     37          1           0       -3.960260    3.365942   -2.155527
     38          1           0        6.960501    0.492169    0.706228
     39          1           0        7.320451    0.828240   -0.985558
     40          1           0        5.902065    1.551307   -0.226147
     41          1           0        5.990574   -3.786781   -1.267705
     42          6           0        5.534890   -2.801479   -1.168931
     43          8           0        3.364770   -3.541220   -1.777597
     44          6           0        4.137472   -2.646426   -1.435453
     45          1           0        2.679308   -1.210652   -1.460483
     46          7           0        3.662298   -1.359734   -1.280954
     47          8           0        3.870223    0.849476   -0.797857
     48          6           0        4.380676   -0.251426   -0.907945
     49          1           0        7.327897   -1.804010   -0.589297
     50          6           0        6.261887   -1.739241   -0.803237
     51          6           0        6.529328    0.673250   -0.267104
     52          7           0        5.721161   -0.481535   -0.668453
     53          1           0        3.675514    3.451058    2.591729
     54          1           0        2.588229    3.457879    1.375242
     55          1           0        4.168774    3.205340    1.055580
     56          1           0        0.673119   -3.292982    1.837394
     57          1           0        2.291994   -3.051314    2.317985
     58          7           0        1.434649   -2.660806    1.980807
     59          6           0        1.313328   -1.354894    1.733707
     60          6           0        2.075275    0.896340    1.619133
     61          7           0        0.911913    1.392848    1.166927
     62          1           0       -0.965711    0.739184    0.669047
     63          6           0        0.010693    0.421927    1.032719
     64          7           0        0.130267   -0.886622    1.279677
     65          1           0        5.155315    0.931986    2.601110
     66          6           0        4.139122    0.654532    2.319484
     67          7           0        3.661101   -0.565096    2.360641
     68          6           0        2.353287   -0.425877    1.919076
     69          6           0        3.432367    3.041961    1.712237
     70          7           0        3.233615    1.589266    1.880097
 ---------------------------------------------------------------------
 Rotational constants (GHZ):           0.1753033           0.0489361           0.0453639
 Leave Link  202 at Sun Jan 21 17:20:48 2018, MaxMem=  4294967296 cpu:               0.3 elap:               0.0
 (Enter /share/apps/g16/l301.exe)
 Standard basis: CC-pVDZ (5D, 7F)
 Ernie: Thresh=  0.10000D-02 Tol=  0.10000D-05 Strict=F.
 Ernie:  86 primitive shells out of 1081 were deleted.
 There are   780 symmetry adapted cartesian basis functions of A   symmetry.
 There are   737 symmetry adapted basis functions of A   symmetry.
   737 basis functions,  1608 primitive gaussians,   780 cartesian basis functions
   154 alpha electrons      154 beta electrons
       nuclear repulsion energy      5551.1725991293 Hartrees.
 IExCor= 4639 DFT=T Ex+Corr=wB97XD ExCW=0 ScaHFX=  1.000000
 ScaDFX=  1.000000  1.000000  1.000000  1.000000 ScalE2=  1.000000  1.000000
 IRadAn=      5 IRanWt=     -1 IRanGd=            0 ICorTp=0 IEmpDi=121
 HFx  wShort=  0.000000 wLong=  0.200000 cFull=  0.222036 cShort=  0.000000 cLong=  0.777964
 DFx  wShort=  0.000000 wLong=  0.200000 cFull=  0.000000 cShort=  0.000000 cLong=  1.000000
 NAtoms=   70 NActive=   70 NUniq=   70 SFac= 1.00D+00 NAtFMM=   60 NAOKFM=T Big=T
 Integral buffers will be    131072 words long.
 Raffenetti 2 integral format.
 Two-electron integral symmetry is turned on.
 R6Disp:  Grimme-D2 Dispersion energy=       -0.0747235895 Hartrees.
 Nuclear repulsion after empirical dispersion term =     5551.0978755398 Hartrees.
 Leave Link  301 at Sun Jan 21 17:20:48 2018, MaxMem=  4294967296 cpu:               2.2 elap:               0.1
 (Enter /share/apps/g16/l302.exe)
 NPDir=0 NMtPBC=     1 NCelOv=     1 NCel=       1 NClECP=     1 NCelD=      1
         NCelK=      1 NCelE2=     1 NClLst=     1 CellRange=     0.0.
 One-electron integrals computed using PRISM.
 One-electron integral symmetry used in STVInt
 NBasis=   737 RedAO= T EigKep=  6.79D-04  NBF=   737
 NBsUse=   737 1.00D-06 EigRej= -1.00D+00 NBFU=   737
 Precomputing XC quadrature grid using
 IXCGrd= 4 IRadAn=           5 IRanWt=          -1 IRanGd=           0 AccXCQ= 0.00D+00.
 Generated NRdTot=       0 NPtTot=           0 NUsed=           0 NTot=          32
 NSgBfM=   757   757   757   757   757 MxSgAt=    70 MxSgA2=    70.
 Leave Link  302 at Sun Jan 21 17:20:52 2018, MaxMem=  4294967296 cpu:             134.0 elap:               4.2
 (Enter /share/apps/g16/l303.exe)
 DipDrv:  MaxL=1.
 Leave Link  303 at Sun Jan 21 17:20:52 2018, MaxMem=  4294967296 cpu:              12.4 elap:               0.4
 (Enter /share/apps/g16/l401.exe)
 ExpMin= 1.22D-01 ExpMax= 1.17D+04 ExpMxC= 4.01D+02 IAcc=3 IRadAn=         5 AccDes= 0.00D+00
 Harris functional with IExCor= 4639 and IRadAn=       5 diagonalized for initial guess.
 HarFok:  IExCor= 4639 AccDes= 0.00D+00 IRadAn=         5 IDoV= 1 UseB2=F ITyADJ=14
 ICtDFT=  3500011 ScaDFX=  1.000000  1.000000  1.000000  1.000000
 FoFCou: FMM=F IPFlag=           0 FMFlag=      100000 FMFlg1=        2001
         NFxFlg=           0 DoJE=T BraDBF=F KetDBF=T FulRan=T
         wScrn=  0.000000 ICntrl=       500 IOpCl=  0 I1Cent=   200000004 NGrid=           0
         NMat0=    1 NMatS0=      1 NMatT0=    0 NMatD0=    1 NMtDS0=    0 NMtDT0=    0
 Petite list used in FoFCou.
 Harris En= -1963.71833742739    
 JPrj=0 DoOrth=F DoCkMO=F.
 Leave Link  401 at Sun Jan 21 17:21:05 2018, MaxMem=  4294967296 cpu:             403.7 elap:              12.7
 (Enter /share/apps/g16/l502.exe)
 Integral symmetry usage will be decided dynamically.
 Closed shell SCF:
 Using DIIS extrapolation, IDIIS=  1040.
 NGot=  4294967296 LenX=  4293717438 LenY=  4293108258
 Requested convergence on RMS density matrix=1.00D-08 within  20 cycles.
 Requested convergence on MAX density matrix=1.00D-06.
 Requested convergence on             energy=1.00D-06.
 No special actions if energy rises.
 Fock matrices will be formed incrementally for  20 cycles.
 Integral accuracy reduced to 1.0D-05 until final iterations.

 Cycle   1  Pass 0  IDiag  1:
 FoFJK:  IHMeth= 1 ICntrl=       0 DoSepK=T KAlg= 0 I1Cent=           0 FoldK=F
 IRaf=         1 NMat=       1 IRICut=       1 DoRegI=T DoRafI=F ISym2E= 0 IDoP0=0 IntGTp=1.
 FoFCou: FMM=T IPFlag=           0 FMFlag=      100000 FMFlg1=        2001
         NFxFlg=           0 DoJE=T BraDBF=F KetDBF=F FulRan=T
         wScrn=  0.000000 ICntrl=       500 IOpCl=  0 I1Cent=           0 NGrid=           0
         NMat0=    1 NMatS0=      1 NMatT0=    0 NMatD0=    1 NMtDS0=    0 NMtDT0=    0
 Symmetry not used in FoFCou.
 FMM levels:  10  Number of levels for PrismC:   9
 E= -2048.18250720461    
 DIIS: error= 2.18D-02 at cycle   1 NSaved=   1.
 NSaved= 1 IEnMin= 1 EnMin= -2048.18250720461     IErMin= 1 ErrMin= 2.18D-02
 ErrMax= 2.18D-02  0.00D+00 EMaxC= 1.00D-01 BMatC= 8.33D-01 BMatP= 8.33D-01
 IDIUse=3 WtCom= 7.82D-01 WtEn= 2.18D-01
 Coeff-Com:  0.100D+01
 Coeff-En:   0.100D+01
 Coeff:      0.100D+01
 Gap=     0.305 Goal=   None    Shift=    0.000
 GapD=    0.305 DampG=1.000 DampE=0.500 DampFc=0.5000 IDamp=-1.
 Damping current iteration by 5.00D-01
 RMSDP=1.62D-03 MaxDP=1.29D-01              OVMax= 2.10D-01

 Cycle   2  Pass 0  IDiag  1:
 RMSU=  8.10D-04    CP:  9.97D-01
 E= -2048.37929433086     Delta-E=       -0.196787126246 Rises=F Damp=T
 DIIS: error= 1.20D-02 at cycle   2 NSaved=   2.
 NSaved= 2 IEnMin= 2 EnMin= -2048.37929433086     IErMin= 2 ErrMin= 1.20D-02
 ErrMax= 1.20D-02  0.00D+00 EMaxC= 1.00D-01 BMatC= 1.46D-01 BMatP= 8.33D-01
 IDIUse=3 WtCom= 8.80D-01 WtEn= 1.20D-01
 Coeff-Com: -0.190D+00 0.119D+01
 Coeff-En:   0.000D+00 0.100D+01
 Coeff:     -0.167D+00 0.117D+01
 Gap=     0.365 Goal=   None    Shift=    0.000
 RMSDP=6.15D-04 MaxDP=3.29D-02 DE=-1.97D-01 OVMax= 1.61D-01

 Cycle   3  Pass 0  IDiag  1:
 RMSU=  6.06D-04    CP:  9.93D-01  1.11D+00
 E= -2048.55905056138     Delta-E=       -0.179756230526 Rises=F Damp=F
 DIIS: error= 6.32D-03 at cycle   3 NSaved=   3.
 NSaved= 3 IEnMin= 3 EnMin= -2048.55905056138     IErMin= 3 ErrMin= 6.32D-03
 ErrMax= 6.32D-03  0.00D+00 EMaxC= 1.00D-01 BMatC= 6.52D-02 BMatP= 1.46D-01
 IDIUse=3 WtCom= 9.37D-01 WtEn= 6.32D-02
 Coeff-Com: -0.232D+00 0.551D+00 0.681D+00
 Coeff-En:   0.000D+00 0.000D+00 0.100D+01
 Coeff:     -0.217D+00 0.516D+00 0.701D+00
 Gap=     0.280 Goal=   None    Shift=    0.000
 RMSDP=3.78D-04 MaxDP=3.28D-02 DE=-1.80D-01 OVMax= 5.86D-02

 Cycle   4  Pass 0  IDiag  1:
 RMSU=  2.11D-04    CP:  9.93D-01  1.41D+00  6.65D-01
 E= -2048.60893351573     Delta-E=       -0.049882954352 Rises=F Damp=F
 DIIS: error= 2.95D-03 at cycle   4 NSaved=   4.
 NSaved= 4 IEnMin= 4 EnMin= -2048.60893351573     IErMin= 4 ErrMin= 2.95D-03
 ErrMax= 2.95D-03  0.00D+00 EMaxC= 1.00D-01 BMatC= 9.30D-03 BMatP= 6.52D-02
 IDIUse=3 WtCom= 9.70D-01 WtEn= 2.95D-02
 Coeff-Com: -0.989D-01 0.192D+00 0.378D+00 0.529D+00
 Coeff-En:   0.000D+00 0.000D+00 0.625D-01 0.937D+00
 Coeff:     -0.960D-01 0.186D+00 0.369D+00 0.541D+00
 Gap=     0.283 Goal=   None    Shift=    0.000
 RMSDP=1.35D-04 MaxDP=1.15D-02 DE=-4.99D-02 OVMax= 1.61D-02

 Cycle   5  Pass 0  IDiag  1:
 RMSU=  6.42D-05    CP:  9.93D-01  1.38D+00  8.01D-01  6.09D-01
 E= -2048.61673890271     Delta-E=       -0.007805386972 Rises=F Damp=F
 DIIS: error= 5.45D-04 at cycle   5 NSaved=   5.
 NSaved= 5 IEnMin= 5 EnMin= -2048.61673890271     IErMin= 5 ErrMin= 5.45D-04
 ErrMax= 5.45D-04  0.00D+00 EMaxC= 1.00D-01 BMatC= 3.20D-04 BMatP= 9.30D-03
 IDIUse=3 WtCom= 9.95D-01 WtEn= 5.45D-03
 Coeff-Com: -0.266D-01 0.459D-01 0.123D+00 0.242D+00 0.615D+00
 Coeff-En:   0.000D+00 0.000D+00 0.000D+00 0.000D+00 0.100D+01
 Coeff:     -0.264D-01 0.457D-01 0.123D+00 0.241D+00 0.617D+00
 Gap=     0.284 Goal=   None    Shift=    0.000
 RMSDP=2.87D-05 MaxDP=2.13D-03 DE=-7.81D-03 OVMax= 3.72D-03

 Failed to achieve initial convergence to 1.0D-08 in  6 cycles.
 Switch to full accuracy anyway.
 Cycle   6  Pass 1  IDiag  1:
 E= -2048.61686140373     Delta-E=       -0.000122501020 Rises=F Damp=F
 DIIS: error= 2.23D-04 at cycle   1 NSaved=   1.
 NSaved= 1 IEnMin= 1 EnMin= -2048.61686140373     IErMin= 1 ErrMin= 2.23D-04
 ErrMax= 2.23D-04  0.00D+00 EMaxC= 1.00D-01 BMatC= 8.28D-05 BMatP= 8.28D-05
 IDIUse=3 WtCom= 9.98D-01 WtEn= 2.23D-03
 Coeff-Com:  0.100D+01
 Coeff-En:   0.100D+01
 Coeff:      0.100D+01
 Gap=     0.283 Goal=   None    Shift=    0.000
 RMSDP=2.87D-05 MaxDP=2.13D-03 DE=-1.23D-04 OVMax= 2.85D-03

 Cycle   7  Pass 1  IDiag  1:
 RMSU=  1.17D-04    CP:  1.00D+00
 E= -2048.61691174226     Delta-E=       -0.000050338530 Rises=F Damp=F
 DIIS: error= 2.01D-04 at cycle   2 NSaved=   2.
 NSaved= 2 IEnMin= 2 EnMin= -2048.61691174226     IErMin= 2 ErrMin= 2.01D-04
 ErrMax= 2.01D-04  0.00D+00 EMaxC= 1.00D-01 BMatC= 5.82D-05 BMatP= 8.28D-05
 IDIUse=3 WtCom= 9.98D-01 WtEn= 2.01D-03
 Coeff-Com:  0.442D+00 0.558D+00
 Coeff-En:   0.135D+00 0.865D+00
 Coeff:      0.441D+00 0.559D+00
 Gap=     0.284 Goal=   None    Shift=    0.000
 RMSDP=1.36D-05 MaxDP=1.24D-03 DE=-5.03D-05 OVMax= 2.07D-03

 Cycle   8  Pass 1  IDiag  1:
 RMSU=  1.34D-05    CP:  1.00D+00  1.02D+00
 E= -2048.61695537054     Delta-E=       -0.000043628282 Rises=F Damp=F
 DIIS: error= 7.19D-05 at cycle   3 NSaved=   3.
 NSaved= 3 IEnMin= 3 EnMin= -2048.61695537054     IErMin= 3 ErrMin= 7.19D-05
 ErrMax= 7.19D-05  0.00D+00 EMaxC= 1.00D-01 BMatC= 1.10D-05 BMatP= 5.82D-05
 IDIUse=1 WtCom= 1.00D+00 WtEn= 0.00D+00
 Coeff-Com: -0.161D-01 0.289D+00 0.727D+00
 Coeff:     -0.161D-01 0.289D+00 0.727D+00
 Gap=     0.284 Goal=   None    Shift=    0.000
 RMSDP=6.21D-06 MaxDP=3.79D-04 DE=-4.36D-05 OVMax= 7.57D-04

 Cycle   9  Pass 1  IDiag  1:
 RMSU=  4.10D-06    CP:  1.00D+00  1.05D+00  7.74D-01
 E= -2048.61696613702     Delta-E=       -0.000010766480 Rises=F Damp=F
 DIIS: error= 2.70D-05 at cycle   4 NSaved=   4.
 NSaved= 4 IEnMin= 4 EnMin= -2048.61696613702     IErMin= 4 ErrMin= 2.70D-05
 ErrMax= 2.70D-05  0.00D+00 EMaxC= 1.00D-01 BMatC= 6.67D-07 BMatP= 1.10D-05
 IDIUse=1 WtCom= 1.00D+00 WtEn= 0.00D+00
 Coeff-Com: -0.329D-01 0.833D-01 0.288D+00 0.661D+00
 Coeff:     -0.329D-01 0.833D-01 0.288D+00 0.661D+00
 Gap=     0.284 Goal=   None    Shift=    0.000
 RMSDP=1.60D-06 MaxDP=1.16D-04 DE=-1.08D-05 OVMax= 3.82D-04

 Cycle  10  Pass 1  IDiag  1:
 RMSU=  1.44D-06    CP:  1.00D+00  1.05D+00  8.08D-01  1.09D+00
 E= -2048.61696717631     Delta-E=       -0.000001039291 Rises=F Damp=F
 DIIS: error= 1.38D-05 at cycle   5 NSaved=   5.
 NSaved= 5 IEnMin= 5 EnMin= -2048.61696717631     IErMin= 5 ErrMin= 1.38D-05
 ErrMax= 1.38D-05  0.00D+00 EMaxC= 1.00D-01 BMatC= 1.29D-07 BMatP= 6.67D-07
 IDIUse=1 WtCom= 1.00D+00 WtEn= 0.00D+00
 Coeff-Com: -0.431D-02-0.494D-01-0.111D+00 0.186D+00 0.978D+00
 Coeff:     -0.431D-02-0.494D-01-0.111D+00 0.186D+00 0.978D+00
 Gap=     0.284 Goal=   None    Shift=    0.000
 RMSDP=1.27D-06 MaxDP=7.61D-05 DE=-1.04D-06 OVMax= 2.33D-04

 Cycle  11  Pass 1  IDiag  1:
 RMSU=  5.30D-07    CP:  1.00D+00  1.05D+00  8.14D-01  1.36D+00  1.19D+00
 E= -2048.61696748026     Delta-E=       -0.000000303947 Rises=F Damp=F
 DIIS: error= 8.38D-06 at cycle   6 NSaved=   6.
 NSaved= 6 IEnMin= 6 EnMin= -2048.61696748026     IErMin= 6 ErrMin= 8.38D-06
 ErrMax= 8.38D-06  0.00D+00 EMaxC= 1.00D-01 BMatC= 3.78D-08 BMatP= 1.29D-07
 IDIUse=1 WtCom= 1.00D+00 WtEn= 0.00D+00
 Coeff-Com:  0.475D-02-0.442D-01-0.121D+00-0.190D-01 0.542D+00 0.638D+00
 Coeff:      0.475D-02-0.442D-01-0.121D+00-0.190D-01 0.542D+00 0.638D+00
 Gap=     0.284 Goal=   None    Shift=    0.000
 RMSDP=4.54D-07 MaxDP=3.40D-05 DE=-3.04D-07 OVMax= 1.05D-04

 Cycle  12  Pass 1  IDiag  1:
 RMSU=  2.13D-07    CP:  1.00D+00  1.05D+00  8.18D-01  1.44D+00  1.34D+00
                    CP:  9.10D-01
 E= -2048.61696753327     Delta-E=       -0.000000053014 Rises=F Damp=F
 DIIS: error= 1.43D-06 at cycle   7 NSaved=   7.
 NSaved= 7 IEnMin= 7 EnMin= -2048.61696753327     IErMin= 7 ErrMin= 1.43D-06
 ErrMax= 1.43D-06  0.00D+00 EMaxC= 1.00D-01 BMatC= 1.00D-09 BMatP= 3.78D-08
 IDIUse=1 WtCom= 1.00D+00 WtEn= 0.00D+00
 Coeff-Com:  0.147D-02-0.104D-01-0.294D-01-0.118D-01 0.107D+00 0.174D+00
 Coeff-Com:  0.769D+00
 Coeff:      0.147D-02-0.104D-01-0.294D-01-0.118D-01 0.107D+00 0.174D+00
 Coeff:      0.769D+00
 Gap=     0.284 Goal=   None    Shift=    0.000
 RMSDP=8.60D-08 MaxDP=7.22D-06 DE=-5.30D-08 OVMax= 2.07D-05

 Cycle  13  Pass 1  IDiag  1:
 RMSU=  6.17D-08    CP:  1.00D+00  1.05D+00  8.17D-01  1.45D+00  1.36D+00
                    CP:  9.84D-01  1.09D+00
 E= -2048.61696753518     Delta-E=       -0.000000001909 Rises=F Damp=F
 DIIS: error= 9.31D-07 at cycle   8 NSaved=   8.
 NSaved= 8 IEnMin= 8 EnMin= -2048.61696753518     IErMin= 8 ErrMin= 9.31D-07
 ErrMax= 9.31D-07  0.00D+00 EMaxC= 1.00D-01 BMatC= 4.92D-10 BMatP= 1.00D-09
 IDIUse=1 WtCom= 1.00D+00 WtEn= 0.00D+00
 Coeff-Com: -0.651D-03 0.781D-02 0.209D-01-0.500D-03-0.109D+00-0.105D+00
 Coeff-Com:  0.411D+00 0.776D+00
 Coeff:     -0.651D-03 0.781D-02 0.209D-01-0.500D-03-0.109D+00-0.105D+00
 Coeff:      0.411D+00 0.776D+00
 Gap=     0.284 Goal=   None    Shift=    0.000
 RMSDP=6.14D-08 MaxDP=4.24D-06 DE=-1.91D-09 OVMax= 9.41D-06

 Cycle  14  Pass 1  IDiag  1:
 RMSU=  3.31D-08    CP:  1.00D+00  1.05D+00  8.17D-01  1.46D+00  1.37D+00
                    CP:  1.03D+00  1.26D+00  1.02D+00
 E= -2048.61696753631     Delta-E=       -0.000000001137 Rises=F Damp=F
 DIIS: error= 2.61D-07 at cycle   9 NSaved=   9.
 NSaved= 9 IEnMin= 9 EnMin= -2048.61696753631     IErMin= 9 ErrMin= 2.61D-07
 ErrMax= 2.61D-07  0.00D+00 EMaxC= 1.00D-01 BMatC= 5.32D-11 BMatP= 4.92D-10
 IDIUse=1 WtCom= 1.00D+00 WtEn= 0.00D+00
 Coeff-Com: -0.486D-03 0.497D-02 0.135D-01 0.184D-02-0.619D-01-0.696D-01
 Coeff-Com:  0.107D+00 0.349D+00 0.656D+00
 Coeff:     -0.486D-03 0.497D-02 0.135D-01 0.184D-02-0.619D-01-0.696D-01
 Coeff:      0.107D+00 0.349D+00 0.656D+00
 Gap=     0.284 Goal=   None    Shift=    0.000
 RMSDP=1.55D-08 MaxDP=9.21D-07 DE=-1.14D-09 OVMax= 2.76D-06

 Cycle  15  Pass 1  IDiag  1:
 RMSU=  1.07D-08    CP:  1.00D+00  1.05D+00  8.17D-01  1.45D+00  1.37D+00
                    CP:  1.04D+00  1.29D+00  1.15D+00  1.10D+00
 E= -2048.61696753617     Delta-E=        0.000000000148 Rises=F Damp=F
 DIIS: error= 1.21D-07 at cycle  10 NSaved=  10.
 NSaved=10 IEnMin= 9 EnMin= -2048.61696753631     IErMin=10 ErrMin= 1.21D-07
 ErrMax= 1.21D-07  0.00D+00 EMaxC= 1.00D-01 BMatC= 6.24D-12 BMatP= 5.32D-11
 IDIUse=1 WtCom= 1.00D+00 WtEn= 0.00D+00
 Coeff-Com: -0.176D-04-0.761D-04-0.122D-03 0.256D-03 0.251D-02-0.934D-03
 Coeff-Com: -0.518D-01-0.531D-01 0.198D+00 0.905D+00
 Coeff:     -0.176D-04-0.761D-04-0.122D-03 0.256D-03 0.251D-02-0.934D-03
 Coeff:     -0.518D-01-0.531D-01 0.198D+00 0.905D+00
 Gap=     0.284 Goal=   None    Shift=    0.000
 RMSDP=9.28D-09 MaxDP=5.03D-07 DE= 1.48D-10 OVMax= 2.20D-06

 SCF Done:  E(RwB97XD) =  -2048.61696754     A.U. after   15 cycles
            NFock= 15  Conv=0.93D-08     -V/T= 2.0050
 KE= 2.038504456318D+03 PE=-1.588296257035D+04 EE= 6.244743270961D+03
 Leave Link  502 at Sun Jan 21 17:32:57 2018, MaxMem=  4294967296 cpu:           22068.6 elap:             711.7
 (Enter /share/apps/g16/l601.exe)
 Copying SCF densities to generalized density rwf, IOpCl= 0 IROHF=0.

 **********************************************************************

            Population analysis using the SCF density.

 **********************************************************************

 Orbital symmetries:
       Occupied  (A) (A) (A) (A) (A) (A) (A) (A) (A) (A) (A) (A)
                 (A) (A) (A) (A) (A) (A) (A) (A) (A) (A) (A) (A)
                 (A) (A) (A) (A) (A) (A) (A) (A) (A) (A) (A) (A)
                 (A) (A) (A) (A) (A) (A) (A) (A) (A) (A) (A) (A)
                 (A) (A) (A) (A) (A) (A) (A) (A) (A) (A) (A) (A)
                 (A) (A) (A) (A) (A) (A) (A) (A) (A) (A) (A) (A)
                 (A) (A) (A) (A) (A) (A) (A) (A) (A) (A) (A) (A)
                 (A) (A) (A) (A) (A) (A) (A) (A) (A) (A) (A) (A)
                 (A) (A) (A) (A) (A) (A) (A) (A) (A) (A) (A) (A)
                 (A) (A) (A) (A) (A) (A) (A) (A) (A) (A) (A) (A)
                 (A) (A) (A) (A) (A) (A) (A) (A) (A) (A) (A) (A)
                 (A) (A) (A) (A) (A) (A) (A) (A) (A) (A) (A) (A)
                 (A) (A) (A) (A) (A) (A) (A) (A) (A) (A)
       Virtual   (A) (A) (A) (A) (A) (A) (A) (A) (A) (A) (A) (A)
                 (A) (A) (A) (A) (A) (A) (A) (A) (A) (A) (A) (A)
                 (A) (A) (A) (A) (A) (A) (A) (A) (A) (A) (A) (A)
                 (A) (A) (A) (A) (A) (A) (A) (A) (A) (A) (A) (A)
                 (A) (A) (A) (A) (A) (A) (A) (A) (A) (A) (A) (A)
                 (A) (A) (A) (A) (A) (A) (A) (A) (A) (A) (A) (A)
                 (A) (A) (A) (A) (A) (A) (A) (A) (A) (A) (A) (A)
                 (A) (A) (A) (A) (A) (A) (A) (A) (A) (A) (A) (A)
                 (A) (A) (A) (A) (A) (A) (A) (A) (A) (A) (A) (A)
                 (A) (A) (A) (A) (A) (A) (A) (A) (A) (A) (A) (A)
                 (A) (A) (A) (A) (A) (A) (A) (A) (A) (A) (A) (A)
                 (A) (A) (A) (A) (A) (A) (A) (A) (A) (A) (A) (A)
                 (A) (A) (A) (A) (A) (A) (A) (A) (A) (A) (A) (A)
                 (A) (A) (A) (A) (A) (A) (A) (A) (A) (A) (A) (A)
                 (A) (A) (A) (A) (A) (A) (A) (A) (A) (A) (A) (A)
                 (A) (A) (A) (A) (A) (A) (A) (A) (A) (A) (A) (A)
                 (A) (A) (A) (A) (A) (A) (A) (A) (A) (A) (A) (A)
                 (A) (A) (A) (A) (A) (A) (A) (A) (A) (A) (A) (A)
                 (A) (A) (A) (A) (A) (A) (A) (A) (A) (A) (A) (A)
                 (A) (A) (A) (A) (A) (A) (A) (A) (A) (A) (A) (A)
                 (A) (A) (A) (A) (A) (A) (A) (A) (A) (A) (A) (A)
                 (A) (A) (A) (A) (A) (A) (A) (A) (A) (A) (A) (A)
                 (A) (A) (A) (A) (A) (A) (A) (A) (A) (A) (A) (A)
                 (A) (A) (A) (A) (A) (A) (A) (A) (A) (A) (A) (A)
                 (A) (A) (A) (A) (A) (A) (A) (A) (A) (A) (A) (A)
                 (A) (A) (A) (A) (A) (A) (A) (A) (A) (A) (A) (A)
                 (A) (A) (A) (A) (A) (A) (A) (A) (A) (A) (A) (A)
                 (A) (A) (A) (A) (A) (A) (A) (A) (A) (A) (A) (A)
                 (A) (A) (A) (A) (A) (A) (A) (A) (A) (A) (A) (A)
                 (A) (A) (A) (A) (A) (A) (A) (A) (A) (A) (A) (A)
                 (A) (A) (A) (A) (A) (A) (A) (A) (A) (A) (A) (A)
                 (A) (A) (A) (A) (A) (A) (A) (A) (A) (A) (A) (A)
                 (A) (A) (A) (A) (A) (A) (A) (A) (A) (A) (A) (A)
                 (A) (A) (A) (A) (A) (A) (A) (A) (A) (A) (A) (A)
                 (A) (A) (A) (A) (A) (A) (A) (A) (A) (A) (A) (A)
                 (A) (A) (A) (A) (A) (A) (A) (A) (A) (A) (A) (A)
                 (A) (A) (A) (A) (A) (A) (A) (A) (A) (A) (A) (A)
                 (A) (A) (A) (A) (A) (A) (A) (A) (A) (A) (A) (A)
                 (A) (A) (A) (A) (A) (A) (A) (A) (A) (A) (A) (A)
                 (A) (A) (A) (A) (A) (A) (A) (A) (A) (A) (A) (A)
                 (A) (A) (A) (A) (A) (A) (A) (A) (A) (A) (A) (A)
                 (A) (A) (A) (A) (A) (A) (A) (A) (A) (A) (A) (A)
                 (A) (A) (A) (A) (A) (A) (A) (A) (A) (A) (A) (A)
                 (A) (A) (A) (A) (A) (A) (A) (A) (A) (A) (A) (A)
                 (A) (A) (A) (A) (A) (A) (A) (A) (A) (A) (A) (A)
                 (A) (A) (A) (A) (A) (A) (A) (A) (A) (A) (A) (A)
                 (A) (A) (A) (A) (A) (A) (A) (A) (A) (A) (A) (A)
                 (A) (A) (A) (A) (A) (A) (A) (A) (A) (A) (A) (A)
                 (A) (A) (A) (A) (A) (A) (A)
 The electronic state is 1-A.
 Alpha  occ. eigenvalues --  -19.26057 -19.21873 -19.20351 -14.52534 -14.51726
 Alpha  occ. eigenvalues --  -14.49902 -14.48352 -14.47844 -14.47019 -14.45608
 Alpha  occ. eigenvalues --  -14.45302 -14.44716 -14.43341 -14.43290 -14.42567
 Alpha  occ. eigenvalues --  -14.42309 -14.42307 -14.41806 -14.41295 -14.40587
 Alpha  occ. eigenvalues --  -10.45616 -10.41289 -10.39997 -10.38775 -10.37885
 Alpha  occ. eigenvalues --  -10.37719 -10.37321 -10.36611 -10.36211 -10.35869
 Alpha  occ. eigenvalues --  -10.35204 -10.34633 -10.34337 -10.34256 -10.34112
 Alpha  occ. eigenvalues --  -10.33365 -10.32972 -10.31861 -10.31732 -10.31020
 Alpha  occ. eigenvalues --  -10.29974 -10.29771 -10.27887  -1.19639  -1.14806
 Alpha  occ. eigenvalues --   -1.13300  -1.12926  -1.12525  -1.10365  -1.09422
 Alpha  occ. eigenvalues --   -1.09035  -1.08059  -1.06229  -1.03834  -1.02493
 Alpha  occ. eigenvalues --   -1.01668  -1.01086  -0.99503  -0.98453  -0.98077
 Alpha  occ. eigenvalues --   -0.96476  -0.95762  -0.93873  -0.91058  -0.87328
 Alpha  occ. eigenvalues --   -0.85979  -0.85159  -0.84027  -0.83871  -0.83410
 Alpha  occ. eigenvalues --   -0.82204  -0.78898  -0.76415  -0.75092  -0.74176
 Alpha  occ. eigenvalues --   -0.74070  -0.73513  -0.73351  -0.72419  -0.69813
 Alpha  occ. eigenvalues --   -0.67930  -0.67501  -0.66617  -0.66258  -0.64483
 Alpha  occ. eigenvalues --   -0.64001  -0.63848  -0.63482  -0.62880  -0.62211
 Alpha  occ. eigenvalues --   -0.61460  -0.60584  -0.59917  -0.59688  -0.59535
 Alpha  occ. eigenvalues --   -0.58953  -0.58436  -0.58085  -0.57427  -0.57352
 Alpha  occ. eigenvalues --   -0.56728  -0.55998  -0.55608  -0.54464  -0.54281
 Alpha  occ. eigenvalues --   -0.54007  -0.53493  -0.53226  -0.52827  -0.52764
 Alpha  occ. eigenvalues --   -0.52462  -0.52373  -0.51846  -0.51410  -0.51015
 Alpha  occ. eigenvalues --   -0.50176  -0.49870  -0.49662  -0.49418  -0.48796
 Alpha  occ. eigenvalues --   -0.48590  -0.48394  -0.48066  -0.47704  -0.47215
 Alpha  occ. eigenvalues --   -0.47030  -0.46039  -0.45582  -0.44008  -0.42581
 Alpha  occ. eigenvalues --   -0.42326  -0.39707  -0.39606  -0.38412  -0.37435
 Alpha  occ. eigenvalues --   -0.37186  -0.37047  -0.36052  -0.35655  -0.35192
 Alpha  occ. eigenvalues --   -0.34684  -0.34629  -0.33067  -0.32905  -0.32508
 Alpha  occ. eigenvalues --   -0.32425  -0.31950  -0.31846  -0.31683  -0.31602
 Alpha  occ. eigenvalues --   -0.30943  -0.27327  -0.26998  -0.25186
 Alpha virt. eigenvalues --    0.03208   0.04155   0.06779   0.07806   0.08436
 Alpha virt. eigenvalues --    0.08931   0.09546   0.09694   0.11540   0.12401
 Alpha virt. eigenvalues --    0.13110   0.13145   0.14384   0.14445   0.14776
 Alpha virt. eigenvalues --    0.15957   0.16126   0.17371   0.17829   0.18090
 Alpha virt. eigenvalues --    0.18654   0.18928   0.19300   0.19785   0.19969
 Alpha virt. eigenvalues --    0.20593   0.20895   0.21576   0.22078   0.22930
 Alpha virt. eigenvalues --    0.23015   0.23170   0.23519   0.23604   0.23708
 Alpha virt. eigenvalues --    0.24304   0.25181   0.25587   0.26144   0.26442
 Alpha virt. eigenvalues --    0.27047   0.27368   0.27555   0.28057   0.28142
 Alpha virt. eigenvalues --    0.28856   0.29130   0.29604   0.30422   0.31025
 Alpha virt. eigenvalues --    0.31702   0.32773   0.33263   0.33503   0.33950
 Alpha virt. eigenvalues --    0.34109   0.35424   0.35712   0.36141   0.36510
 Alpha virt. eigenvalues --    0.37337   0.37702   0.38493   0.39427   0.39872
 Alpha virt. eigenvalues --    0.40616   0.41164   0.41258   0.41565   0.41972
 Alpha virt. eigenvalues --    0.42333   0.42640   0.43405   0.43958   0.44633
 Alpha virt. eigenvalues --    0.45272   0.45436   0.46125   0.46454   0.47404
 Alpha virt. eigenvalues --    0.48020   0.48785   0.49023   0.49298   0.49424
 Alpha virt. eigenvalues --    0.50171   0.50391   0.50677   0.51125   0.51589
 Alpha virt. eigenvalues --    0.52278   0.52515   0.53361   0.53647   0.53951
 Alpha virt. eigenvalues --    0.54055   0.54864   0.54960   0.55229   0.56011
 Alpha virt. eigenvalues --    0.56497   0.56583   0.56984   0.57718   0.58140
 Alpha virt. eigenvalues --    0.58610   0.58731   0.59078   0.59527   0.59924
 Alpha virt. eigenvalues --    0.60390   0.60803   0.61015   0.61488   0.61713
 Alpha virt. eigenvalues --    0.62518   0.62798   0.63182   0.63297   0.63746
 Alpha virt. eigenvalues --    0.64382   0.64692   0.64858   0.65502   0.65819
 Alpha virt. eigenvalues --    0.66191   0.66825   0.66912   0.67311   0.68107
 Alpha virt. eigenvalues --    0.68220   0.68477   0.68909   0.69638   0.70170
 Alpha virt. eigenvalues --    0.70401   0.70766   0.71391   0.71835   0.72063
 Alpha virt. eigenvalues --    0.72637   0.73194   0.73671   0.73968   0.74273
 Alpha virt. eigenvalues --    0.74463   0.74717   0.74970   0.75493   0.75751
 Alpha virt. eigenvalues --    0.75841   0.76535   0.76922   0.77188   0.77412
 Alpha virt. eigenvalues --    0.77608   0.78149   0.78571   0.78760   0.78984
 Alpha virt. eigenvalues --    0.79134   0.79500   0.80010   0.80283   0.80906
 Alpha virt. eigenvalues --    0.81176   0.82124   0.82488   0.82691   0.82936
 Alpha virt. eigenvalues --    0.83514   0.84079   0.84533   0.85104   0.85505
 Alpha virt. eigenvalues --    0.86430   0.86492   0.86849   0.86987   0.88089
 Alpha virt. eigenvalues --    0.88467   0.88557   0.89191   0.89351   0.90230
 Alpha virt. eigenvalues --    0.90957   0.91606   0.92010   0.92129   0.92496
 Alpha virt. eigenvalues --    0.92941   0.93468   0.93946   0.94421   0.94876
 Alpha virt. eigenvalues --    0.95536   0.95615   0.96245   0.96555   0.96735
 Alpha virt. eigenvalues --    0.97559   0.98215   0.98739   0.99215   0.99814
 Alpha virt. eigenvalues --    1.00236   1.00896   1.01622   1.01897   1.02268
 Alpha virt. eigenvalues --    1.02868   1.03278   1.04118   1.04428   1.04873
 Alpha virt. eigenvalues --    1.05335   1.05892   1.05981   1.06505   1.06785
 Alpha virt. eigenvalues --    1.07271   1.07645   1.08384   1.08864   1.09507
 Alpha virt. eigenvalues --    1.10445   1.10887   1.11667   1.11749   1.12302
 Alpha virt. eigenvalues --    1.12788   1.13076   1.13740   1.14114   1.14731
 Alpha virt. eigenvalues --    1.15219   1.15478   1.15736   1.16441   1.16907
 Alpha virt. eigenvalues --    1.17156   1.17911   1.18103   1.18156   1.18759
 Alpha virt. eigenvalues --    1.19545   1.19604   1.20040   1.20722   1.20905
 Alpha virt. eigenvalues --    1.21393   1.21568   1.21570   1.22023   1.22731
 Alpha virt. eigenvalues --    1.23307   1.24090   1.24595   1.24857   1.25128
 Alpha virt. eigenvalues --    1.26363   1.26553   1.27007   1.27152   1.27695
 Alpha virt. eigenvalues --    1.28324   1.29212   1.29562   1.30377   1.31216
 Alpha virt. eigenvalues --    1.31557   1.32113   1.32897   1.33086   1.33429
 Alpha virt. eigenvalues --    1.33659   1.34931   1.35291   1.35467   1.36341
 Alpha virt. eigenvalues --    1.36831   1.37699   1.38224   1.38856   1.39883
 Alpha virt. eigenvalues --    1.40206   1.41030   1.41463   1.41737   1.43015
 Alpha virt. eigenvalues --    1.43975   1.45053   1.45491   1.46039   1.46706
 Alpha virt. eigenvalues --    1.47737   1.47820   1.48320   1.48466   1.49294
 Alpha virt. eigenvalues --    1.49860   1.50080   1.50463   1.52056   1.52462
 Alpha virt. eigenvalues --    1.52977   1.53755   1.54223   1.54794   1.55272
 Alpha virt. eigenvalues --    1.55817   1.57863   1.58150   1.58826   1.58925
 Alpha virt. eigenvalues --    1.59833   1.60675   1.60845   1.61843   1.62346
 Alpha virt. eigenvalues --    1.62991   1.63424   1.63808   1.64221   1.64775
 Alpha virt. eigenvalues --    1.66063   1.66696   1.67123   1.67460   1.67604
 Alpha virt. eigenvalues --    1.67812   1.68412   1.68565   1.69454   1.70063
 Alpha virt. eigenvalues --    1.70665   1.70938   1.71442   1.72072   1.72725
 Alpha virt. eigenvalues --    1.73180   1.73515   1.73602   1.74204   1.74360
 Alpha virt. eigenvalues --    1.74696   1.75182   1.75519   1.76101   1.76537
 Alpha virt. eigenvalues --    1.76704   1.77252   1.77639   1.78054   1.78440
 Alpha virt. eigenvalues --    1.78896   1.79223   1.79388   1.79524   1.80179
 Alpha virt. eigenvalues --    1.80406   1.80801   1.81698   1.81844   1.82306
 Alpha virt. eigenvalues --    1.82870   1.83360   1.83524   1.84459   1.84872
 Alpha virt. eigenvalues --    1.85299   1.85487   1.86605   1.86986   1.87406
 Alpha virt. eigenvalues --    1.87644   1.88210   1.88400   1.88522   1.88961
 Alpha virt. eigenvalues --    1.89289   1.89516   1.89942   1.90217   1.90621
 Alpha virt. eigenvalues --    1.91314   1.92135   1.92565   1.92626   1.93402
 Alpha virt. eigenvalues --    1.94117   1.94463   1.94832   1.95669   1.96405
 Alpha virt. eigenvalues --    1.96700   1.97385   1.98068   1.98357   1.98845
 Alpha virt. eigenvalues --    2.00376   2.00837   2.01966   2.02215   2.02419
 Alpha virt. eigenvalues --    2.03386   2.03899   2.05156   2.05434   2.05966
 Alpha virt. eigenvalues --    2.06528   2.06980   2.07126   2.07930   2.08563
 Alpha virt. eigenvalues --    2.09056   2.09889   2.10472   2.10784   2.11067
 Alpha virt. eigenvalues --    2.11212   2.12722   2.13371   2.13867   2.14325
 Alpha virt. eigenvalues --    2.15369   2.16025   2.18148   2.18969   2.19648
 Alpha virt. eigenvalues --    2.20216   2.20490   2.21263   2.21638   2.21971
 Alpha virt. eigenvalues --    2.22639   2.23478   2.23566   2.24776   2.25928
 Alpha virt. eigenvalues --    2.26909   2.27028   2.27471   2.28437   2.28614
 Alpha virt. eigenvalues --    2.28985   2.29559   2.29891   2.30178   2.30726
 Alpha virt. eigenvalues --    2.31901   2.32629   2.32763   2.33317   2.34072
 Alpha virt. eigenvalues --    2.34875   2.35417   2.36172   2.36604   2.36978
 Alpha virt. eigenvalues --    2.37141   2.37855   2.38871   2.39361   2.40142
 Alpha virt. eigenvalues --    2.40573   2.40981   2.41534   2.42846   2.42892
 Alpha virt. eigenvalues --    2.43510   2.43709   2.44690   2.45055   2.45960
 Alpha virt. eigenvalues --    2.46994   2.47678   2.48715   2.49308   2.49796
 Alpha virt. eigenvalues --    2.50556   2.52028   2.52503   2.53244   2.53794
 Alpha virt. eigenvalues --    2.54338   2.55225   2.55844   2.56901   2.57496
 Alpha virt. eigenvalues --    2.57902   2.59235   2.59434   2.60662   2.60794
 Alpha virt. eigenvalues --    2.61341   2.62226   2.62382   2.63104   2.64128
 Alpha virt. eigenvalues --    2.64904   2.65146   2.66025   2.67067   2.67511
 Alpha virt. eigenvalues --    2.67891   2.67944   2.69013   2.70303   2.70944
 Alpha virt. eigenvalues --    2.71492   2.72109   2.73137   2.73752   2.74518
 Alpha virt. eigenvalues --    2.74768   2.75147   2.75745   2.77716   2.78605
 Alpha virt. eigenvalues --    2.78991   2.79267   2.79807   2.80288   2.80812
 Alpha virt. eigenvalues --    2.81151   2.81926   2.82153   2.82675   2.82844
 Alpha virt. eigenvalues --    2.83892   2.84042   2.84397   2.85490   2.86504
 Alpha virt. eigenvalues --    2.86646   2.88020   2.88177   2.89126   2.89487
 Alpha virt. eigenvalues --    2.90218   2.91966   2.93830   2.94363   2.95427
 Alpha virt. eigenvalues --    2.95839   2.96965   2.98318   2.99598   2.99903
 Alpha virt. eigenvalues --    3.01827   3.04408   3.05060   3.05801   3.07966
 Alpha virt. eigenvalues --    3.10205   3.11716   3.13157   3.14212   3.14593
 Alpha virt. eigenvalues --    3.15479   3.16207   3.16777   3.20029   3.22237
 Alpha virt. eigenvalues --    3.22851   3.23101   3.24267   3.27931   3.29647
 Alpha virt. eigenvalues --    3.46176   3.46786   3.49408   3.50024   3.51220
 Alpha virt. eigenvalues --    3.52790   3.53995   3.56932   3.59282   3.60603
 Alpha virt. eigenvalues --    3.63356   3.71785   3.74898
          Condensed to atoms (all electrons):
 Mulliken charges:
               1
     1  N   -0.312425
     2  C    0.180474
     3  C    0.041447
     4  N   -0.258291
     5  C    0.134975
     6  H    0.030440
     7  N   -0.270007
     8  C    0.115327
     9  H    0.022785
    10  N   -0.289857
    11  C    0.236197
    12  C    0.105720
    13  N   -0.049184
    14  H    0.107189
    15  H    0.087767
    16  H    0.028097
    17  H    0.035055
    18  H    0.027990
    19  N   -0.290251
    20  C    0.213353
    21  C    0.179289
    22  N   -0.070416
    23  H    0.071498
    24  H    0.115924
    25  N   -0.268244
    26  C    0.200209
    27  N   -0.105160
    28  H    0.124247
    29  C    0.124236
    30  O   -0.320526
    31  C    0.014726
    32  N   -0.219182
    33  C    0.117050
    34  H    0.027217
    35  H    0.023122
    36  H    0.025125
    37  H    0.020799
    38  H    0.058154
    39  H    0.066001
    40  H    0.070990
    41  H    0.031776
    42  C   -0.108666
    43  O   -0.265207
    44  C    0.182934
    45  H    0.134313
    46  N   -0.135235
    47  O   -0.351783
    48  C    0.361743
    49  H    0.046881
    50  C    0.174490
    51  C    0.032237
    52  N   -0.292431
    53  H    0.030199
    54  H    0.000920
    55  H    0.028351
    56  H    0.118373
    57  H    0.118791
    58  N   -0.069622
    59  C    0.129179
    60  C    0.223856
    61  N   -0.276955
    62  H    0.081265
    63  C    0.149584
    64  N   -0.301102
    65  H    0.025225
    66  C    0.120246
    67  N   -0.255649
    68  C    0.018696
    69  C    0.193924
    70  N   -0.298193
 Sum of Mulliken charges =  -0.00000
 Mulliken charges with hydrogens summed into heavy atoms:
               1
     1  N   -0.312425
     2  C    0.271616
     3  C    0.041447
     4  N   -0.258291
     5  C    0.165415
     7  N   -0.270007
     8  C    0.138112
    10  N   -0.289857
    11  C    0.236197
    12  C    0.105720
    13  N    0.145773
    19  N   -0.290251
    20  C    0.213353
    21  C    0.248335
    22  N    0.117007
    25  N   -0.268244
    26  C    0.200209
    27  N    0.019087
    29  C    0.124236
    30  O   -0.320526
    31  C    0.014726
    32  N   -0.219182
    33  C    0.144267
    42  C   -0.076890
    43  O   -0.265207
    44  C    0.182934
    46  N   -0.000922
    47  O   -0.351783
    48  C    0.361743
    50  C    0.221371
    51  C    0.227383
    52  N   -0.292431
    58  N    0.167542
    59  C    0.129179
    60  C    0.223856
    61  N   -0.276955
    63  C    0.230848
    64  N   -0.301102
    66  C    0.145472
    67  N   -0.255649
    68  C    0.018696
    69  C    0.253394
    70  N   -0.298193
 Electronic spatial extent (au):  <R**2>=          23804.9358
 Charge=              0.0000 electrons
 Dipole moment (field-independent basis, Debye):
    X=              5.5035    Y=              5.6638    Z=              4.4160  Tot=              9.0481
 Quadrupole moment (field-independent basis, Debye-Ang):
   XX=           -138.7192   YY=           -229.7238   ZZ=           -256.4654
   XY=             14.6371   XZ=             15.4981   YZ=            -11.0378
 Traceless Quadrupole moment (field-independent basis, Debye-Ang):
   XX=             69.5836   YY=            -21.4210   ZZ=            -48.1626
   XY=             14.6371   XZ=             15.4981   YZ=            -11.0378
 Octapole moment (field-independent basis, Debye-Ang**2):
  XXX=              6.1885  YYY=             77.5155  ZZZ=             10.1695  XYY=             42.9260
  XXY=             -1.8677  XXZ=            -51.5839  XZZ=              5.2030  YZZ=             26.2869
  YYZ=             73.8474  XYZ=             21.9486
 Hexadecapole moment (field-independent basis, Debye-Ang**3):
 XXXX=         -16338.6527 YYYY=          -4563.0613 ZZZZ=          -2889.8082 XXXY=            505.0814
 XXXZ=            247.2017 YYYX=            123.7758 YYYZ=           -120.4116 ZZZX=             33.2079
 ZZZY=            -30.6298 XXYY=          -4469.4911 XXZZ=          -4449.1877 YYZZ=          -1271.2054
 XXYZ=             77.0890 YYXZ=            209.8042 ZZXY=             53.4070
 N-N= 5.551097875540D+03 E-N=-1.588296255838D+04  KE= 2.038504456318D+03
 No NMR shielding tensors so no spin-rotation constants.
 Leave Link  601 at Sun Jan 21 17:32:58 2018, MaxMem=  4294967296 cpu:              47.4 elap:               1.7
 (Enter /share/apps/g16/l9999.exe)
 1\1\GINC-COMPUTE-0-3\SP\RwB97XD\CC-pVDZ\C23H27N17O3\SATYA\21-Jan-2018\
 0\\#p wb97xd/cc-pvdz sp scf=(maxcycles=20)\\Base pair stacking\\0,1\N,
 0,4.33182,8.74751,-7.70308\C,0,4.85908,10.12402,-7.63078\C,0,3.0711,6.
 95987,-7.47452\N,0,4.18216,6.56062,-8.20315\C,0,4.89723,7.65359,-8.311
 68\H,0,5.85431,7.7194,-8.82994\N,0,1.01294,6.95848,-6.32262\C,0,1.2264
 7,8.25856,-6.09507\H,0,0.44885,8.76465,-5.5246\N,0,2.25155,9.02375,-6.
 46468\C,0,3.14926,8.3052,-7.15911\C,0,1.93477,6.26349,-7.02426\N,0,1.7
 234,4.96564,-7.25242\H,0,2.37899,4.41211,-7.76724\H,0,0.903,4.50261,-6
 .91673\H,0,4.96939,10.48915,-8.55527\H,0,4.22123,10.69966,-7.11999\H,0
 ,5.74553,10.11975,-7.16798\N,0,1.27685,7.16823,-3.29741\C,0,0.38135,6.
 14745,-3.0873\C,0,0.97635,8.60806,-3.16589\N,0,-2.8136,5.0739,-2.24974
 \H,0,-3.29651,4.20467,-2.14735\H,0,-3.33876,5.90772,-2.07749\N,0,-0.91
 312,6.28714,-2.72828\C,0,-1.51995,5.12032,-2.60216\N,0,-0.90773,3.9083
 ,-2.81118\H,0,-1.44971,3.06631,-2.69169\C,0,0.42305,3.74081,-3.18109\O
 ,0,0.8781,2.60198,-3.34459\C,0,1.088,4.98552,-3.32045\N,0,2.40072,5.27
 109,-3.6699\C,0,2.46626,6.57462,-3.64321\H,0,3.36099,7.15612,-3.86816\
 H,0,1.13591,9.06479,-4.04038\H,0,0.02016,8.72391,-2.90027\H,0,1.56644,
 9.01094,-2.46712\H,0,-4.85021,-0.71164,-2.56339\H,0,-4.19827,-0.96493,
 -0.94615\H,0,-4.25107,0.66007,-1.63021\H,0,-0.75121,-3.00076,-3.61444\
 C,0,-1.08936,-2.00648,-3.3224\O,0,0.92485,-0.93137,-3.96599\C,0,-0.213
 64,-0.88876,-3.50036\H,0,-0.14993,1.13592,-3.20894\N,0,-0.73924,0.3227
 2,-3.09874\O,0,-2.35905,1.66046,-2.23625\C,0,-1.98214,0.54858,-2.56233
 \H,0,-3.0113,-2.6345,-2.64599\C,0,-2.30756,-1.81791,-2.80179\C,0,-4.10
 471,-0.38636,-1.85311\N,0,-2.76788,-0.57843,-2.42209\H,0,-5.75047,3.90
 186,-3.5666\H,0,-4.38656,4.57725,-2.97866\H,0,-4.95306,3.18886,-2.3340
 4\H,0,0.10062,1.68082,-7.55373\H,0,-1.24919,0.68033,-7.2585\N,0,-0.766
 15,1.5374,-7.07594\C,0,-1.25694,2.44796,-6.23262\C,0,-2.84788,3.32602,
 -4.6965\N,0,-2.1775,4.46794,-4.4706\H,0,-0.44502,5.39271,-5.05707\C,0,
 -1.05213,4.49707,-5.18165\N,0,-0.55882,3.58609,-6.02684\H,0,-5.22637,1
 .15483,-4.41204\C,0,-4.32285,1.70349,-4.67956\N,0,-3.41091,1.27425,-5.
 5173\C,0,-2.46999,2.29357,-5.53719\C,0,-4.84811,3.71355,-3.17895\N,0,-
 4.04618,2.93832,-4.14535\\Version=EM64L-G16RevA.03\State=1-A\HF=-2048.
 6169675\RMSD=9.279e-09\Dipole=-3.516924,0.0307845,0.5500497\Quadrupole
 =7.8652795,7.9443645,-15.809644,39.160669,-25.775743,-6.2636481\PG=C01
  [X(C23H27N17O3)]\\@


 "PERFECTION IS NOT AN ACCIDENT"
         --  EAGLE ELECTRIC MANUFACTURING CO.,INC. NY
 Job cpu time:       0 days  6 hours 18 minutes  1.8 seconds.
 Elapsed time:       0 days  0 hours 12 minutes 11.3 seconds.
 File lengths (MBytes):  RWF=    298 Int=      0 D2E=      0 Chk=     33 Scr=      1
 Normal termination of Gaussian 16 at Sun Jan 21 17:32:59 2018.
