 Entering Gaussian System, Link 0=g16
 Input=str30.15.-1.5.com
 Output=str30.15.-1.5.log
 Initial command:
 /share/apps/g16/l1.exe "/state/partition1/scr/Gau-17477.inp" -scrdir="/state/partition1/scr/"
 Entering Link 1 = /share/apps/g16/l1.exe PID=     17478.
  
 Copyright (c) 1988,1990,1992,1993,1995,1998,2003,2009,2016,
            Gaussian, Inc.  All Rights Reserved.
  
 This is part of the Gaussian(R) 16 program.  It is based on
 the Gaussian(R) 09 system (copyright 2009, Gaussian, Inc.),
 the Gaussian(R) 03 system (copyright 2003, Gaussian, Inc.),
 the Gaussian(R) 98 system (copyright 1998, Gaussian, Inc.),
 the Gaussian(R) 94 system (copyright 1995, Gaussian, Inc.),
 the Gaussian 92(TM) system (copyright 1992, Gaussian, Inc.),
 the Gaussian 90(TM) system (copyright 1990, Gaussian, Inc.),
 the Gaussian 88(TM) system (copyright 1988, Gaussian, Inc.),
 the Gaussian 86(TM) system (copyright 1986, Carnegie Mellon
 University), and the Gaussian 82(TM) system (copyright 1983,
 Carnegie Mellon University). Gaussian is a federally registered
 trademark of Gaussian, Inc.
  
 This software contains proprietary and confidential information,
 including trade secrets, belonging to Gaussian, Inc.
  
 This software is provided under written license and may be
 used, copied, transmitted, or stored only in accord with that
 written license.
  
 The following legend is applicable only to US Government
 contracts under FAR:
  
                    RESTRICTED RIGHTS LEGEND
  
 Use, reproduction and disclosure by the US Government is
 subject to restrictions as set forth in subparagraphs (a)
 and (c) of the Commercial Computer Software - Restricted
 Rights clause in FAR 52.227-19.
  
 Gaussian, Inc.
 340 Quinnipiac St., Bldg. 40, Wallingford CT 06492
  
  
 ---------------------------------------------------------------
 Warning -- This program may not be used in any manner that
 competes with the business of Gaussian, Inc. or will provide
 assistance to any competitor of Gaussian, Inc.  The licensee
 of this program is prohibited from giving any competitor of
 Gaussian, Inc. access to this program.  By using this program,
 the user acknowledges that Gaussian, Inc. is engaged in the
 business of creating and licensing software in the field of
 computational chemistry and represents and warrants to the
 licensee that it is not a competitor of Gaussian, Inc. and that
 it will not use this program in any manner prohibited above.
 ---------------------------------------------------------------
  

 Cite this work as:
 Gaussian 16, Revision A.03,
 M. J. Frisch, G. W. Trucks, H. B. Schlegel, G. E. Scuseria, 
 M. A. Robb, J. R. Cheeseman, G. Scalmani, V. Barone, 
 G. A. Petersson, H. Nakatsuji, X. Li, M. Caricato, A. V. Marenich, 
 J. Bloino, B. G. Janesko, R. Gomperts, B. Mennucci, H. P. Hratchian, 
 J. V. Ortiz, A. F. Izmaylov, J. L. Sonnenberg, D. Williams-Young, 
 F. Ding, F. Lipparini, F. Egidi, J. Goings, B. Peng, A. Petrone, 
 T. Henderson, D. Ranasinghe, V. G. Zakrzewski, J. Gao, N. Rega, 
 G. Zheng, W. Liang, M. Hada, M. Ehara, K. Toyota, R. Fukuda, 
 J. Hasegawa, M. Ishida, T. Nakajima, Y. Honda, O. Kitao, H. Nakai, 
 T. Vreven, K. Throssell, J. A. Montgomery, Jr., J. E. Peralta, 
 F. Ogliaro, M. J. Bearpark, J. J. Heyd, E. N. Brothers, K. N. Kudin, 
 V. N. Staroverov, T. A. Keith, R. Kobayashi, J. Normand, 
 K. Raghavachari, A. P. Rendell, J. C. Burant, S. S. Iyengar, 
 J. Tomasi, M. Cossi, J. M. Millam, M. Klene, C. Adamo, R. Cammi, 
 J. W. Ochterski, R. L. Martin, K. Morokuma, O. Farkas, 
 J. B. Foresman, and D. J. Fox, Gaussian, Inc., Wallingford CT, 2016.
 
 ******************************************
 Gaussian 16:  EM64L-G16RevA.03 25-Dec-2016
                21-Jan-2018 
 ******************************************
 %nprocshared=32
 Will use up to   32 processors via shared memory.
 %mem=32GB
 %chk=allatoms_t.chk
 ---------------------------------------
 #p wb97xd/cc-pvdz sp scf=(maxcycles=20)
 ---------------------------------------
 1/38=1,172=1/1;
 2/12=2,17=6,18=5,40=1/2;
 3/5=16,11=2,25=1,30=1,74=-58/1,2,3;
 4//1;
 5/5=2,7=20,38=5/2;
 6/7=2,8=2,9=2,10=2,28=1/1;
 99/5=1,9=1/99;
 Leave Link    1 at Sun Jan 21 11:48:34 2018, MaxMem=  4294967296 cpu:               2.7 elap:               0.1
 (Enter /share/apps/g16/l101.exe)
 ------------------
 Base pair stacking
 ------------------
 Symbolic Z-matrix:
 Charge =  0 Multiplicity = 1
 N                     7.15537   6.07548  -5.09914 
 C                     7.7313    7.41682  -5.31623 
 C                     5.82457   4.32462  -5.12691 
 N                     6.93664   3.95508  -4.3843 
 C                     7.69389   5.0247   -4.39729 
 H                     8.66445   5.10321  -3.90659 
 N                     3.74173   4.29152  -6.23309 
 C                     3.99782   5.55399  -6.59108 
 H                     3.22646   6.03216  -7.19326 
 N                     5.05871   6.31093  -6.31817 
 C                     5.94505   5.62884  -5.57415 
 C                     4.65321   3.63262  -5.48467 
 N                     4.39938   2.37233  -5.12632 
 H                     5.04578   1.84633  -4.5725 
 H                     3.55491   1.91122  -5.39907 
 H                     8.60636   7.33217  -5.79297 
 H                     7.10353   7.96451  -5.86855 
 H                     7.87602   7.86636  -4.43478 
 N                     2.03199   6.21528  -3.20433 
 C                     1.12447   5.19548  -3.36073 
 C                     1.76479   7.64362  -3.46728 
 N                    -2.05959   4.1084   -4.22199 
 H                    -2.55565   3.24181  -4.26869 
 H                    -2.56179   4.9333   -4.48286 
 N                    -0.15354   5.32588  -3.77753 
 C                    -0.77847   4.16287  -3.82741 
 N                    -0.19805   2.96283  -3.49497 
 H                    -0.752     2.12292  -3.56315 
 C                     1.11532   2.80506  -3.06365 
 O                     1.54176   1.67672  -2.78845 
 C                     1.7994    4.04582  -3.00499 
 N                     3.10438   4.33798  -2.63276 
 C                     3.19654   5.6333   -2.76641 
 H                     4.0941    6.21672  -2.55839 
 H                     2.38696   7.976    -4.17527 
 H                     0.82103   7.75253  -3.77666 
 H                     1.90245   8.17002  -2.62897 
 H                    -3.83462  -1.74925  -4.72784 
 H                    -4.16403  -1.7358   -2.99696 
 H                    -3.77713  -0.23094  -3.83185 
 H                     0.09355  -3.97516  -3.06611 
 C                    -0.30912  -2.96573  -3.15058 
 O                     1.77597  -1.90341  -2.762 
 C                     0.56828  -1.84638  -2.99229 
 H                     0.54506   0.19992  -3.0126 
 N                    -0.04265  -0.61505  -3.11813 
 O                    -1.81811   0.75733  -3.46669 
 C                    -1.36912  -0.37147  -3.37247 
 H                    -2.31651  -3.57716  -3.52788 
 C                    -1.60776  -2.76016  -3.39934 
 C                    -3.57525  -1.29075  -3.7852 
 N                    -2.15081  -1.50132  -3.51246 
 H                    -3.02865   1.12842  -8.84825 
 H                    -2.54513   2.3403   -7.86862 
 H                    -3.70801   1.30674  -7.37513 
 H                     2.91687  -0.98671  -4.94408 
 H                     1.6716   -2.06515  -5.38722 
 N                     2.01117  -1.12487  -5.34505 
 C                     1.28758  -0.10141  -5.80342 
 C                    -0.61734   0.91282  -6.80559 
 N                    -0.13596   2.16495  -6.73596 
 H                     1.53871   3.14994  -6.08336 
 C                     1.07333   2.16985  -6.17873 
 N                     1.79973   1.14585  -5.719 
 H                    -2.72487  -1.44098  -7.49124 
 C                    -1.86561  -0.85356  -7.16638 
 N                    -0.78943  -1.35264  -6.6092 
 C                     0.01022  -0.2433   -6.37537 
 C                    -2.86009   1.39213  -7.89849 
 N                    -1.8292    0.51139  -7.31574 
 
 ITRead=  0  0  0  0  0  0  0  0  0  0  0  0  0  0  0  0  0  0  0  0
 ITRead=  0  0  0  0  0  0  0  0  0  0  0  0  0  0  0  0  0  0  0  0
 ITRead=  0  0  0  0  0  0  0  0  0  0  0  0  0  0  0  0  0  0  0  0
 ITRead=  0  0  0  0  0  0  0  0  0  0
 MicOpt= -1 -1 -1 -1 -1 -1 -1 -1 -1 -1 -1 -1 -1 -1 -1 -1 -1 -1 -1 -1
 MicOpt= -1 -1 -1 -1 -1 -1 -1 -1 -1 -1 -1 -1 -1 -1 -1 -1 -1 -1 -1 -1
 MicOpt= -1 -1 -1 -1 -1 -1 -1 -1 -1 -1 -1 -1 -1 -1 -1 -1 -1 -1 -1 -1
 MicOpt= -1 -1 -1 -1 -1 -1 -1 -1 -1 -1
 NAtoms=     70 NQM=       70 NQMF=       0 NMMI=      0 NMMIF=      0
                NMic=       0 NMicF=      0.
                    Isotopes and Nuclear Properties:
 (Nuclear quadrupole moments (NQMom) in fm**2, nuclear magnetic moments (NMagM)
  in nuclear magnetons)

  Atom         1           2           3           4           5           6           7           8           9          10
 IAtWgt=          14          12          12          14          12           1          14          12           1          14
 AtmWgt=  14.0030740  12.0000000  12.0000000  14.0030740  12.0000000   1.0078250  14.0030740  12.0000000   1.0078250  14.0030740
 NucSpn=           2           0           0           2           0           1           2           0           1           2
 AtZEff=  -0.0000000  -0.0000000  -0.0000000  -0.0000000  -0.0000000  -0.0000000  -0.0000000  -0.0000000  -0.0000000  -0.0000000
 NQMom=    2.0440000   0.0000000   0.0000000   2.0440000   0.0000000   0.0000000   2.0440000   0.0000000   0.0000000   2.0440000
 NMagM=    0.4037610   0.0000000   0.0000000   0.4037610   0.0000000   2.7928460   0.4037610   0.0000000   2.7928460   0.4037610
 AtZNuc=   7.0000000   6.0000000   6.0000000   7.0000000   6.0000000   1.0000000   7.0000000   6.0000000   1.0000000   7.0000000

  Atom        11          12          13          14          15          16          17          18          19          20
 IAtWgt=          12          12          14           1           1           1           1           1          14          12
 AtmWgt=  12.0000000  12.0000000  14.0030740   1.0078250   1.0078250   1.0078250   1.0078250   1.0078250  14.0030740  12.0000000
 NucSpn=           0           0           2           1           1           1           1           1           2           0
 AtZEff=  -0.0000000  -0.0000000  -0.0000000  -0.0000000  -0.0000000  -0.0000000  -0.0000000  -0.0000000  -0.0000000  -0.0000000
 NQMom=    0.0000000   0.0000000   2.0440000   0.0000000   0.0000000   0.0000000   0.0000000   0.0000000   2.0440000   0.0000000
 NMagM=    0.0000000   0.0000000   0.4037610   2.7928460   2.7928460   2.7928460   2.7928460   2.7928460   0.4037610   0.0000000
 AtZNuc=   6.0000000   6.0000000   7.0000000   1.0000000   1.0000000   1.0000000   1.0000000   1.0000000   7.0000000   6.0000000

  Atom        21          22          23          24          25          26          27          28          29          30
 IAtWgt=          12          14           1           1          14          12          14           1          12          16
 AtmWgt=  12.0000000  14.0030740   1.0078250   1.0078250  14.0030740  12.0000000  14.0030740   1.0078250  12.0000000  15.9949146
 NucSpn=           0           2           1           1           2           0           2           1           0           0
 AtZEff=  -0.0000000  -0.0000000  -0.0000000  -0.0000000  -0.0000000  -0.0000000  -0.0000000  -0.0000000  -0.0000000  -0.0000000
 NQMom=    0.0000000   2.0440000   0.0000000   0.0000000   2.0440000   0.0000000   2.0440000   0.0000000   0.0000000   0.0000000
 NMagM=    0.0000000   0.4037610   2.7928460   2.7928460   0.4037610   0.0000000   0.4037610   2.7928460   0.0000000   0.0000000
 AtZNuc=   6.0000000   7.0000000   1.0000000   1.0000000   7.0000000   6.0000000   7.0000000   1.0000000   6.0000000   8.0000000

  Atom        31          32          33          34          35          36          37          38          39          40
 IAtWgt=          12          14          12           1           1           1           1           1           1           1
 AtmWgt=  12.0000000  14.0030740  12.0000000   1.0078250   1.0078250   1.0078250   1.0078250   1.0078250   1.0078250   1.0078250
 NucSpn=           0           2           0           1           1           1           1           1           1           1
 AtZEff=  -0.0000000  -0.0000000  -0.0000000  -0.0000000  -0.0000000  -0.0000000  -0.0000000  -0.0000000  -0.0000000  -0.0000000
 NQMom=    0.0000000   2.0440000   0.0000000   0.0000000   0.0000000   0.0000000   0.0000000   0.0000000   0.0000000   0.0000000
 NMagM=    0.0000000   0.4037610   0.0000000   2.7928460   2.7928460   2.7928460   2.7928460   2.7928460   2.7928460   2.7928460
 AtZNuc=   6.0000000   7.0000000   6.0000000   1.0000000   1.0000000   1.0000000   1.0000000   1.0000000   1.0000000   1.0000000

  Atom        41          42          43          44          45          46          47          48          49          50
 IAtWgt=           1          12          16          12           1          14          16          12           1          12
 AtmWgt=   1.0078250  12.0000000  15.9949146  12.0000000   1.0078250  14.0030740  15.9949146  12.0000000   1.0078250  12.0000000
 NucSpn=           1           0           0           0           1           2           0           0           1           0
 AtZEff=  -0.0000000  -0.0000000  -0.0000000  -0.0000000  -0.0000000  -0.0000000  -0.0000000  -0.0000000  -0.0000000  -0.0000000
 NQMom=    0.0000000   0.0000000   0.0000000   0.0000000   0.0000000   2.0440000   0.0000000   0.0000000   0.0000000   0.0000000
 NMagM=    2.7928460   0.0000000   0.0000000   0.0000000   2.7928460   0.4037610   0.0000000   0.0000000   2.7928460   0.0000000
 AtZNuc=   1.0000000   6.0000000   8.0000000   6.0000000   1.0000000   7.0000000   8.0000000   6.0000000   1.0000000   6.0000000

  Atom        51          52          53          54          55          56          57          58          59          60
 IAtWgt=          12          14           1           1           1           1           1          14          12          12
 AtmWgt=  12.0000000  14.0030740   1.0078250   1.0078250   1.0078250   1.0078250   1.0078250  14.0030740  12.0000000  12.0000000
 NucSpn=           0           2           1           1           1           1           1           2           0           0
 AtZEff=  -0.0000000  -0.0000000  -0.0000000  -0.0000000  -0.0000000  -0.0000000  -0.0000000  -0.0000000  -0.0000000  -0.0000000
 NQMom=    0.0000000   2.0440000   0.0000000   0.0000000   0.0000000   0.0000000   0.0000000   2.0440000   0.0000000   0.0000000
 NMagM=    0.0000000   0.4037610   2.7928460   2.7928460   2.7928460   2.7928460   2.7928460   0.4037610   0.0000000   0.0000000
 AtZNuc=   6.0000000   7.0000000   1.0000000   1.0000000   1.0000000   1.0000000   1.0000000   7.0000000   6.0000000   6.0000000

  Atom        61          62          63          64          65          66          67          68          69          70
 IAtWgt=          14           1          12          14           1          12          14          12          12          14
 AtmWgt=  14.0030740   1.0078250  12.0000000  14.0030740   1.0078250  12.0000000  14.0030740  12.0000000  12.0000000  14.0030740
 NucSpn=           2           1           0           2           1           0           2           0           0           2
 AtZEff=  -0.0000000  -0.0000000  -0.0000000  -0.0000000  -0.0000000  -0.0000000  -0.0000000  -0.0000000  -0.0000000  -0.0000000
 NQMom=    2.0440000   0.0000000   0.0000000   2.0440000   0.0000000   0.0000000   2.0440000   0.0000000   0.0000000   2.0440000
 NMagM=    0.4037610   2.7928460   0.0000000   0.4037610   2.7928460   0.0000000   0.4037610   0.0000000   0.0000000   0.4037610
 AtZNuc=   7.0000000   1.0000000   6.0000000   7.0000000   1.0000000   6.0000000   7.0000000   6.0000000   6.0000000   7.0000000
 Leave Link  101 at Sun Jan 21 11:48:34 2018, MaxMem=  4294967296 cpu:               6.6 elap:               0.2
 (Enter /share/apps/g16/l202.exe)
 Stoichiometry    C23H27N17O3
 Framework group  C1[X(C23H27N17O3)]
 Deg. of freedom   204
 Full point group                 C1      NOp   1
 Largest Abelian subgroup         C1      NOp   1
 Largest concise Abelian subgroup C1      NOp   1
                         Standard orientation:                         
 ---------------------------------------------------------------------
 Center     Atomic      Atomic             Coordinates (Angstroms)
 Number     Number       Type             X           Y           Z
 ---------------------------------------------------------------------
      1          7           0       -6.680329   -1.326597    0.330268
      2          6           0       -8.031605   -0.779161    0.559141
      3          6           0       -4.504927   -1.649025    0.361552
      4          7           0       -5.035877   -2.660436   -0.425766
      5          6           0       -6.325228   -2.425704   -0.413103
      6          1           0       -7.070222   -3.028132   -0.933681
      7          7           0       -3.001224   -0.261582    1.534936
      8          6           0       -4.069777    0.447338    1.913346
      9          1           0       -3.857282    1.303930    2.551594
     10          7           0       -5.355382    0.257898    1.623075
     11          6           0       -5.506408   -0.819085    0.834588
     12          6           0       -3.186403   -1.339383    0.741758
     13          7           0       -2.120987   -2.048310    0.362963
     14          1           0       -2.211075   -2.853703   -0.223937
     15          1           0       -1.196947   -1.798679    0.652756
     16          1           0       -8.601476   -1.469804    1.004602
     17          1           0       -7.969990    0.028775    1.144427
     18          1           0       -8.442814   -0.524125   -0.315987
     19          7           0       -3.101684    2.427283   -1.390361
     20          6           0       -1.741025    2.326401   -1.227651
     21          6           0       -3.911465    3.624019   -1.085777
     22          7           0        1.288699    3.739757   -0.286936
     23          1           0        2.248927    3.465267   -0.243901
     24          1           0        1.068888    4.669590    0.009393
     25          7           0       -0.921797    3.295784   -0.765919
     26          6           0        0.337806    2.899405   -0.722297
     27          7           0        0.764568    1.649742   -1.101394
     28          1           0        1.747359    1.433901   -1.034366
     29          6           0       -0.060688    0.636678   -1.579437
     30          8           0        0.425574   -0.456465   -1.894593
     31          6           0       -1.416875    1.047637   -1.631991
     32          7           0       -2.551203    0.359555   -2.040315
     33          6           0       -3.523871    1.215351   -1.879882
     34          1           0       -4.571873    1.013455   -2.103926
     35          1           0       -4.593919    3.398819   -0.391253
     36          1           0       -3.315331    4.348820   -0.742925
     37          1           0       -4.371697    3.937190   -1.915789
     38          1           0        6.649864    0.774496    0.141806
     39          1           0        6.888869    1.082829   -1.576462
     40          1           0        5.553746    1.854649   -0.720263
     41          1           0        5.410941   -3.493959   -1.699905
     42          6           0        4.992266   -2.494817   -1.578859
     43          8           0        2.761873   -3.176929   -2.011513
     44          6           0        3.583537   -2.301694   -1.740160
     45          1           0        2.169045   -0.824252   -1.671802
     46          7           0        3.158248   -1.000172   -1.565762
     47          8           0        3.465075    1.206767   -1.127059
     48          6           0        3.934187    0.090367   -1.262139
     49          1           0        6.851904   -1.544385   -1.149623
     50          6           0        5.774933   -1.450654   -1.282610
     51          6           0        6.150894    0.958272   -0.798045
     52          7           0        5.281980   -0.176389   -1.122530
     53          1           0        4.030634    2.104166    4.298724
     54          1           0        2.844892    2.671100    3.331914
     55          1           0        4.402568    2.764530    2.853388
     56          1           0        1.288999   -3.405439    0.152254
     57          1           0        2.929946   -3.323654    0.611282
     58          7           0        2.030014   -2.887380    0.579651
     59          6           0        1.828128   -1.668861    1.085229
     60          6           0        2.473053    0.346710    2.173012
     61          7           0        1.253889    0.907821    2.116463
     62          1           0       -0.627083    0.467620    1.431786
     63          6           0        0.390220    0.088677    1.519814
     64          7           0        0.590485   -1.132137    1.012772
     65          1           0        5.620371    0.109993    2.873387
     66          6           0        4.597823   -0.057659    2.533957
     67          7           0        4.181725   -1.143903    1.930111
     68          6           0        2.836138   -0.900626    1.695671
     69          6           0        3.732842    2.212486    3.350259
     70          7           0        3.616197    0.886206    2.713540
 ---------------------------------------------------------------------
 Rotational constants (GHZ):           0.1509286           0.0509331           0.0479371
 Leave Link  202 at Sun Jan 21 11:48:34 2018, MaxMem=  4294967296 cpu:               0.3 elap:               0.0
 (Enter /share/apps/g16/l301.exe)
 Standard basis: CC-pVDZ (5D, 7F)
 Ernie: Thresh=  0.10000D-02 Tol=  0.10000D-05 Strict=F.
 Ernie:  86 primitive shells out of 1081 were deleted.
 There are   780 symmetry adapted cartesian basis functions of A   symmetry.
 There are   737 symmetry adapted basis functions of A   symmetry.
   737 basis functions,  1608 primitive gaussians,   780 cartesian basis functions
   154 alpha electrons      154 beta electrons
       nuclear repulsion energy      5470.4496427603 Hartrees.
 IExCor= 4639 DFT=T Ex+Corr=wB97XD ExCW=0 ScaHFX=  1.000000
 ScaDFX=  1.000000  1.000000  1.000000  1.000000 ScalE2=  1.000000  1.000000
 IRadAn=      5 IRanWt=     -1 IRanGd=            0 ICorTp=0 IEmpDi=121
 HFx  wShort=  0.000000 wLong=  0.200000 cFull=  0.222036 cShort=  0.000000 cLong=  0.777964
 DFx  wShort=  0.000000 wLong=  0.200000 cFull=  0.000000 cShort=  0.000000 cLong=  1.000000
 NAtoms=   70 NActive=   70 NUniq=   70 SFac= 1.00D+00 NAtFMM=   60 NAOKFM=T Big=T
 Integral buffers will be    131072 words long.
 Raffenetti 2 integral format.
 Two-electron integral symmetry is turned on.
 R6Disp:  Grimme-D2 Dispersion energy=       -0.0688540848 Hartrees.
 Nuclear repulsion after empirical dispersion term =     5470.3807886755 Hartrees.
 Leave Link  301 at Sun Jan 21 11:48:34 2018, MaxMem=  4294967296 cpu:               2.5 elap:               0.1
 (Enter /share/apps/g16/l302.exe)
 NPDir=0 NMtPBC=     1 NCelOv=     1 NCel=       1 NClECP=     1 NCelD=      1
         NCelK=      1 NCelE2=     1 NClLst=     1 CellRange=     0.0.
 One-electron integrals computed using PRISM.
 One-electron integral symmetry used in STVInt
 NBasis=   737 RedAO= T EigKep=  7.15D-04  NBF=   737
 NBsUse=   737 1.00D-06 EigRej= -1.00D+00 NBFU=   737
 Precomputing XC quadrature grid using
 IXCGrd= 4 IRadAn=           5 IRanWt=          -1 IRanGd=           0 AccXCQ= 0.00D+00.
 Generated NRdTot=       0 NPtTot=           0 NUsed=           0 NTot=          32
 NSgBfM=   767   767   767   767   767 MxSgAt=    70 MxSgA2=    70.
 Leave Link  302 at Sun Jan 21 11:48:38 2018, MaxMem=  4294967296 cpu:             135.4 elap:               4.3
 (Enter /share/apps/g16/l303.exe)
 DipDrv:  MaxL=1.
 Leave Link  303 at Sun Jan 21 11:48:39 2018, MaxMem=  4294967296 cpu:              12.6 elap:               0.4
 (Enter /share/apps/g16/l401.exe)
 ExpMin= 1.22D-01 ExpMax= 1.17D+04 ExpMxC= 4.01D+02 IAcc=3 IRadAn=         5 AccDes= 0.00D+00
 Harris functional with IExCor= 4639 and IRadAn=       5 diagonalized for initial guess.
 HarFok:  IExCor= 4639 AccDes= 0.00D+00 IRadAn=         5 IDoV= 1 UseB2=F ITyADJ=14
 ICtDFT=  3500011 ScaDFX=  1.000000  1.000000  1.000000  1.000000
 FoFCou: FMM=F IPFlag=           0 FMFlag=      100000 FMFlg1=        2001
         NFxFlg=           0 DoJE=T BraDBF=F KetDBF=T FulRan=T
         wScrn=  0.000000 ICntrl=       500 IOpCl=  0 I1Cent=   200000004 NGrid=           0
         NMat0=    1 NMatS0=      1 NMatT0=    0 NMatD0=    1 NMtDS0=    0 NMtDT0=    0
 Petite list used in FoFCou.
 Harris En= -1963.88287751713    
 JPrj=0 DoOrth=F DoCkMO=F.
 Leave Link  401 at Sun Jan 21 11:48:51 2018, MaxMem=  4294967296 cpu:             395.3 elap:              12.4
 (Enter /share/apps/g16/l502.exe)
 Integral symmetry usage will be decided dynamically.
 Closed shell SCF:
 Using DIIS extrapolation, IDIIS=  1040.
 NGot=  4294967296 LenX=  4293717438 LenY=  4293108258
 Requested convergence on RMS density matrix=1.00D-08 within  20 cycles.
 Requested convergence on MAX density matrix=1.00D-06.
 Requested convergence on             energy=1.00D-06.
 No special actions if energy rises.
 Fock matrices will be formed incrementally for  20 cycles.
 Integral accuracy reduced to 1.0D-05 until final iterations.

 Cycle   1  Pass 0  IDiag  1:
 FoFJK:  IHMeth= 1 ICntrl=       0 DoSepK=T KAlg= 0 I1Cent=           0 FoldK=F
 IRaf=         1 NMat=       1 IRICut=       1 DoRegI=T DoRafI=F ISym2E= 0 IDoP0=0 IntGTp=1.
 FoFCou: FMM=T IPFlag=           0 FMFlag=      100000 FMFlg1=        2001
         NFxFlg=           0 DoJE=T BraDBF=F KetDBF=F FulRan=T
         wScrn=  0.000000 ICntrl=       500 IOpCl=  0 I1Cent=           0 NGrid=           0
         NMat0=    1 NMatS0=      1 NMatT0=    0 NMatD0=    1 NMtDS0=    0 NMtDT0=    0
 Symmetry not used in FoFCou.
 FMM levels:  10  Number of levels for PrismC:   9
 E= -2048.31537388578    
 DIIS: error= 2.49D-02 at cycle   1 NSaved=   1.
 NSaved= 1 IEnMin= 1 EnMin= -2048.31537388578     IErMin= 1 ErrMin= 2.49D-02
 ErrMax= 2.49D-02  0.00D+00 EMaxC= 1.00D-01 BMatC= 8.32D-01 BMatP= 8.32D-01
 IDIUse=3 WtCom= 7.51D-01 WtEn= 2.49D-01
 Coeff-Com:  0.100D+01
 Coeff-En:   0.100D+01
 Coeff:      0.100D+01
 Gap=     0.254 Goal=   None    Shift=    0.000
 GapD=    0.254 DampG=1.000 DampE=0.500 DampFc=0.5000 IDamp=-1.
 Damping current iteration by 5.00D-01
 RMSDP=1.57D-03 MaxDP=1.30D-01              OVMax= 1.87D-01

 Cycle   2  Pass 0  IDiag  1:
 RMSU=  7.84D-04    CP:  9.98D-01
 E= -2048.51172990948     Delta-E=       -0.196356023701 Rises=F Damp=T
 DIIS: error= 1.37D-02 at cycle   2 NSaved=   2.
 NSaved= 2 IEnMin= 2 EnMin= -2048.51172990948     IErMin= 2 ErrMin= 1.37D-02
 ErrMax= 1.37D-02  0.00D+00 EMaxC= 1.00D-01 BMatC= 1.45D-01 BMatP= 8.32D-01
 IDIUse=3 WtCom= 8.63D-01 WtEn= 1.37D-01
 Coeff-Com: -0.196D+00 0.120D+01
 Coeff-En:   0.000D+00 0.100D+01
 Coeff:     -0.169D+00 0.117D+01
 Gap=     0.367 Goal=   None    Shift=    0.000
 RMSDP=5.87D-04 MaxDP=3.33D-02 DE=-1.96D-01 OVMax= 1.53D-01

 Cycle   3  Pass 0  IDiag  1:
 RMSU=  5.77D-04    CP:  9.94D-01  1.13D+00
 E= -2048.69104960116     Delta-E=       -0.179319691681 Rises=F Damp=F
 DIIS: error= 6.40D-03 at cycle   3 NSaved=   3.
 NSaved= 3 IEnMin= 3 EnMin= -2048.69104960116     IErMin= 3 ErrMin= 6.40D-03
 ErrMax= 6.40D-03  0.00D+00 EMaxC= 1.00D-01 BMatC= 6.25D-02 BMatP= 1.45D-01
 IDIUse=3 WtCom= 9.36D-01 WtEn= 6.40D-02
 Coeff-Com: -0.230D+00 0.547D+00 0.684D+00
 Coeff-En:   0.000D+00 0.000D+00 0.100D+01
 Coeff:     -0.216D+00 0.512D+00 0.704D+00
 Gap=     0.278 Goal=   None    Shift=    0.000
 RMSDP=3.55D-04 MaxDP=3.19D-02 DE=-1.79D-01 OVMax= 6.56D-02

 Cycle   4  Pass 0  IDiag  1:
 RMSU=  2.04D-04    CP:  9.94D-01  1.41D+00  6.72D-01
 E= -2048.73889513533     Delta-E=       -0.047845534174 Rises=F Damp=F
 DIIS: error= 2.57D-03 at cycle   4 NSaved=   4.
 NSaved= 4 IEnMin= 4 EnMin= -2048.73889513533     IErMin= 4 ErrMin= 2.57D-03
 ErrMax= 2.57D-03  0.00D+00 EMaxC= 1.00D-01 BMatC= 8.72D-03 BMatP= 6.25D-02
 IDIUse=3 WtCom= 9.74D-01 WtEn= 2.57D-02
 Coeff-Com: -0.965D-01 0.187D+00 0.375D+00 0.534D+00
 Coeff-En:   0.000D+00 0.000D+00 0.562D-01 0.944D+00
 Coeff:     -0.941D-01 0.182D+00 0.367D+00 0.545D+00
 Gap=     0.283 Goal=   None    Shift=    0.000
 RMSDP=1.25D-04 MaxDP=1.10D-02 DE=-4.78D-02 OVMax= 1.37D-02

 Cycle   5  Pass 0  IDiag  1:
 RMSU=  6.04D-05    CP:  9.94D-01  1.39D+00  8.04D-01  6.22D-01
 E= -2048.74616305855     Delta-E=       -0.007267923218 Rises=F Damp=F
 DIIS: error= 4.99D-04 at cycle   5 NSaved=   5.
 NSaved= 5 IEnMin= 5 EnMin= -2048.74616305855     IErMin= 5 ErrMin= 4.99D-04
 ErrMax= 4.99D-04  0.00D+00 EMaxC= 1.00D-01 BMatC= 2.86D-04 BMatP= 8.72D-03
 IDIUse=3 WtCom= 9.95D-01 WtEn= 4.99D-03
 Coeff-Com: -0.250D-01 0.430D-01 0.120D+00 0.239D+00 0.624D+00
 Coeff-En:   0.000D+00 0.000D+00 0.000D+00 0.000D+00 0.100D+01
 Coeff:     -0.249D-01 0.427D-01 0.119D+00 0.238D+00 0.626D+00
 Gap=     0.283 Goal=   None    Shift=    0.000
 RMSDP=2.64D-05 MaxDP=1.81D-03 DE=-7.27D-03 OVMax= 3.03D-03

 Failed to achieve initial convergence to 1.0D-08 in  6 cycles.
 Switch to full accuracy anyway.
 Cycle   6  Pass 1  IDiag  1:
 E= -2048.74640990832     Delta-E=       -0.000246849773 Rises=F Damp=F
 DIIS: error= 2.78D-04 at cycle   1 NSaved=   1.
 NSaved= 1 IEnMin= 1 EnMin= -2048.74640990832     IErMin= 1 ErrMin= 2.78D-04
 ErrMax= 2.78D-04  0.00D+00 EMaxC= 1.00D-01 BMatC= 7.35D-05 BMatP= 7.35D-05
 IDIUse=3 WtCom= 9.97D-01 WtEn= 2.78D-03
 Coeff-Com:  0.100D+01
 Coeff-En:   0.100D+01
 Coeff:      0.100D+01
 Gap=     0.283 Goal=   None    Shift=    0.000
 RMSDP=2.64D-05 MaxDP=1.81D-03 DE=-2.47D-04 OVMax= 2.64D-03

 Cycle   7  Pass 1  IDiag  1:
 RMSU=  1.11D-04    CP:  1.00D+00
 E= -2048.74646535375     Delta-E=       -0.000055445429 Rises=F Damp=F
 DIIS: error= 1.98D-04 at cycle   2 NSaved=   2.
 NSaved= 2 IEnMin= 2 EnMin= -2048.74646535375     IErMin= 2 ErrMin= 1.98D-04
 ErrMax= 1.98D-04  0.00D+00 EMaxC= 1.00D-01 BMatC= 4.13D-05 BMatP= 7.35D-05
 IDIUse=3 WtCom= 9.98D-01 WtEn= 1.98D-03
 Coeff-Com:  0.403D+00 0.597D+00
 Coeff-En:   0.000D+00 0.100D+01
 Coeff:      0.402D+00 0.598D+00
 Gap=     0.283 Goal=   None    Shift=    0.000
 RMSDP=1.13D-05 MaxDP=1.05D-03 DE=-5.54D-05 OVMax= 1.45D-03

 Cycle   8  Pass 1  IDiag  1:
 RMSU=  1.10D-05    CP:  1.00D+00  1.03D+00
 E= -2048.74649509677     Delta-E=       -0.000029743018 Rises=F Damp=F
 DIIS: error= 9.47D-05 at cycle   3 NSaved=   3.
 NSaved= 3 IEnMin= 3 EnMin= -2048.74649509677     IErMin= 3 ErrMin= 9.47D-05
 ErrMax= 9.47D-05  0.00D+00 EMaxC= 1.00D-01 BMatC= 1.01D-05 BMatP= 4.13D-05
 IDIUse=1 WtCom= 1.00D+00 WtEn= 0.00D+00
 Coeff-Com: -0.201D-01 0.318D+00 0.702D+00
 Coeff:     -0.201D-01 0.318D+00 0.702D+00
 Gap=     0.283 Goal=   None    Shift=    0.000
 RMSDP=5.60D-06 MaxDP=4.36D-04 DE=-2.97D-05 OVMax= 5.42D-04

 Cycle   9  Pass 1  IDiag  1:
 RMSU=  3.80D-06    CP:  1.00D+00  1.05D+00  7.60D-01
 E= -2048.74650457582     Delta-E=       -0.000009479054 Rises=F Damp=F
 DIIS: error= 2.33D-05 at cycle   4 NSaved=   4.
 NSaved= 4 IEnMin= 4 EnMin= -2048.74650457582     IErMin= 4 ErrMin= 2.33D-05
 ErrMax= 2.33D-05  0.00D+00 EMaxC= 1.00D-01 BMatC= 4.78D-07 BMatP= 1.01D-05
 IDIUse=1 WtCom= 1.00D+00 WtEn= 0.00D+00
 Coeff-Com: -0.304D-01 0.858D-01 0.254D+00 0.690D+00
 Coeff:     -0.304D-01 0.858D-01 0.254D+00 0.690D+00
 Gap=     0.283 Goal=   None    Shift=    0.000
 RMSDP=1.44D-06 MaxDP=1.35D-04 DE=-9.48D-06 OVMax= 5.02D-04

 Cycle  10  Pass 1  IDiag  1:
 RMSU=  1.28D-06    CP:  1.00D+00  1.06D+00  7.95D-01  1.11D+00
 E= -2048.74650539853     Delta-E=       -0.000000822703 Rises=F Damp=F
 DIIS: error= 1.10D-05 at cycle   5 NSaved=   5.
 NSaved= 5 IEnMin= 5 EnMin= -2048.74650539853     IErMin= 5 ErrMin= 1.10D-05
 ErrMax= 1.10D-05  0.00D+00 EMaxC= 1.00D-01 BMatC= 1.21D-07 BMatP= 4.78D-07
 IDIUse=1 WtCom= 1.00D+00 WtEn= 0.00D+00
 Coeff-Com: -0.265D-02-0.591D-01-0.126D+00 0.210D+00 0.978D+00
 Coeff:     -0.265D-02-0.591D-01-0.126D+00 0.210D+00 0.978D+00
 Gap=     0.283 Goal=   None    Shift=    0.000
 RMSDP=1.22D-06 MaxDP=7.82D-05 DE=-8.23D-07 OVMax= 2.49D-04

 Cycle  11  Pass 1  IDiag  1:
 RMSU=  4.96D-07    CP:  1.00D+00  1.06D+00  8.05D-01  1.39D+00  1.17D+00
 E= -2048.74650565927     Delta-E=       -0.000000260739 Rises=F Damp=F
 DIIS: error= 7.32D-06 at cycle   6 NSaved=   6.
 NSaved= 6 IEnMin= 6 EnMin= -2048.74650565927     IErMin= 6 ErrMin= 7.32D-06
 ErrMax= 7.32D-06  0.00D+00 EMaxC= 1.00D-01 BMatC= 2.79D-08 BMatP= 1.21D-07
 IDIUse=1 WtCom= 1.00D+00 WtEn= 0.00D+00
 Coeff-Com:  0.467D-02-0.466D-01-0.115D+00 0.281D-02 0.522D+00 0.632D+00
 Coeff:      0.467D-02-0.466D-01-0.115D+00 0.281D-02 0.522D+00 0.632D+00
 Gap=     0.283 Goal=   None    Shift=    0.000
 RMSDP=3.59D-07 MaxDP=3.68D-05 DE=-2.61D-07 OVMax= 1.28D-04

 Cycle  12  Pass 1  IDiag  1:
 RMSU=  1.81D-07    CP:  1.00D+00  1.06D+00  8.07D-01  1.46D+00  1.30D+00
                    CP:  9.37D-01
 E= -2048.74650569946     Delta-E=       -0.000000040197 Rises=F Damp=F
 DIIS: error= 1.44D-06 at cycle   7 NSaved=   7.
 NSaved= 7 IEnMin= 7 EnMin= -2048.74650569946     IErMin= 7 ErrMin= 1.44D-06
 ErrMax= 1.44D-06  0.00D+00 EMaxC= 1.00D-01 BMatC= 8.18D-10 BMatP= 2.79D-08
 IDIUse=1 WtCom= 1.00D+00 WtEn= 0.00D+00
 Coeff-Com:  0.112D-02-0.769D-02-0.203D-01-0.743D-02 0.578D-01 0.142D+00
 Coeff-Com:  0.835D+00
 Coeff:      0.112D-02-0.769D-02-0.203D-01-0.743D-02 0.578D-01 0.142D+00
 Coeff:      0.835D+00
 Gap=     0.283 Goal=   None    Shift=    0.000
 RMSDP=8.64D-08 MaxDP=5.01D-06 DE=-4.02D-08 OVMax= 2.25D-05

 Cycle  13  Pass 1  IDiag  1:
 RMSU=  5.06D-08    CP:  1.00D+00  1.06D+00  8.07D-01  1.47D+00  1.32D+00
                    CP:  1.03D+00  1.14D+00
 E= -2048.74650570115     Delta-E=       -0.000000001686 Rises=F Damp=F
 DIIS: error= 6.09D-07 at cycle   8 NSaved=   8.
 NSaved= 8 IEnMin= 8 EnMin= -2048.74650570115     IErMin= 8 ErrMin= 6.09D-07
 ErrMax= 6.09D-07  0.00D+00 EMaxC= 1.00D-01 BMatC= 3.17D-10 BMatP= 8.18D-10
 IDIUse=1 WtCom= 1.00D+00 WtEn= 0.00D+00
 Coeff-Com: -0.708D-03 0.887D-02 0.209D-01-0.249D-02-0.112D+00-0.955D-01
 Coeff-Com:  0.417D+00 0.764D+00
 Coeff:     -0.708D-03 0.887D-02 0.209D-01-0.249D-02-0.112D+00-0.955D-01
 Coeff:      0.417D+00 0.764D+00
 Gap=     0.283 Goal=   None    Shift=    0.000
 RMSDP=4.57D-08 MaxDP=2.61D-06 DE=-1.69D-09 OVMax= 1.12D-05

 Cycle  14  Pass 1  IDiag  1:
 RMSU=  2.65D-08    CP:  1.00D+00  1.06D+00  8.06D-01  1.48D+00  1.32D+00
                    CP:  1.07D+00  1.28D+00  1.08D+00
 E= -2048.74650570151     Delta-E=       -0.000000000357 Rises=F Damp=F
 DIIS: error= 2.28D-07 at cycle   9 NSaved=   9.
 NSaved= 9 IEnMin= 9 EnMin= -2048.74650570151     IErMin= 9 ErrMin= 2.28D-07
 ErrMax= 2.28D-07  0.00D+00 EMaxC= 1.00D-01 BMatC= 3.04D-11 BMatP= 3.17D-10
 IDIUse=1 WtCom= 1.00D+00 WtEn= 0.00D+00
 Coeff-Com: -0.424D-03 0.466D-02 0.112D-01-0.729D-04-0.541D-01-0.564D-01
 Coeff-Com:  0.848D-01 0.306D+00 0.704D+00
 Coeff:     -0.424D-03 0.466D-02 0.112D-01-0.729D-04-0.541D-01-0.564D-01
 Coeff:      0.848D-01 0.306D+00 0.704D+00
 Gap=     0.283 Goal=   None    Shift=    0.000
 RMSDP=1.34D-08 MaxDP=8.95D-07 DE=-3.57D-10 OVMax= 3.43D-06

 Cycle  15  Pass 1  IDiag  1:
 RMSU=  9.06D-09    CP:  1.00D+00  1.06D+00  8.06D-01  1.48D+00  1.32D+00
                    CP:  1.08D+00  1.31D+00  1.22D+00  1.12D+00
 E= -2048.74650570166     Delta-E=       -0.000000000156 Rises=F Damp=F
 DIIS: error= 7.25D-08 at cycle  10 NSaved=  10.
 NSaved=10 IEnMin=10 EnMin= -2048.74650570166     IErMin=10 ErrMin= 7.25D-08
 ErrMax= 7.25D-08  0.00D+00 EMaxC= 1.00D-01 BMatC= 5.38D-12 BMatP= 3.04D-11
 IDIUse=1 WtCom= 1.00D+00 WtEn= 0.00D+00
 Coeff-Com:  0.313D-05-0.282D-03-0.577D-03 0.208D-03 0.499D-02 0.812D-03
 Coeff-Com: -0.523D-01-0.569D-01 0.275D+00 0.829D+00
 Coeff:      0.313D-05-0.282D-03-0.577D-03 0.208D-03 0.499D-02 0.812D-03
 Coeff:     -0.523D-01-0.569D-01 0.275D+00 0.829D+00
 Gap=     0.283 Goal=   None    Shift=    0.000
 RMSDP=6.58D-09 MaxDP=4.00D-07 DE=-1.56D-10 OVMax= 1.43D-06

 SCF Done:  E(RwB97XD) =  -2048.74650570     A.U. after   15 cycles
            NFock= 15  Conv=0.66D-08     -V/T= 2.0054
 KE= 2.037719187072D+03 PE=-1.572184700422D+04 EE= 6.165000522766D+03
 Leave Link  502 at Sun Jan 21 11:59:53 2018, MaxMem=  4294967296 cpu:           20457.3 elap:             661.8
 (Enter /share/apps/g16/l601.exe)
 Copying SCF densities to generalized density rwf, IOpCl= 0 IROHF=0.

 **********************************************************************

            Population analysis using the SCF density.

 **********************************************************************

 Orbital symmetries:
       Occupied  (A) (A) (A) (A) (A) (A) (A) (A) (A) (A) (A) (A)
                 (A) (A) (A) (A) (A) (A) (A) (A) (A) (A) (A) (A)
                 (A) (A) (A) (A) (A) (A) (A) (A) (A) (A) (A) (A)
                 (A) (A) (A) (A) (A) (A) (A) (A) (A) (A) (A) (A)
                 (A) (A) (A) (A) (A) (A) (A) (A) (A) (A) (A) (A)
                 (A) (A) (A) (A) (A) (A) (A) (A) (A) (A) (A) (A)
                 (A) (A) (A) (A) (A) (A) (A) (A) (A) (A) (A) (A)
                 (A) (A) (A) (A) (A) (A) (A) (A) (A) (A) (A) (A)
                 (A) (A) (A) (A) (A) (A) (A) (A) (A) (A) (A) (A)
                 (A) (A) (A) (A) (A) (A) (A) (A) (A) (A) (A) (A)
                 (A) (A) (A) (A) (A) (A) (A) (A) (A) (A) (A) (A)
                 (A) (A) (A) (A) (A) (A) (A) (A) (A) (A) (A) (A)
                 (A) (A) (A) (A) (A) (A) (A) (A) (A) (A)
       Virtual   (A) (A) (A) (A) (A) (A) (A) (A) (A) (A) (A) (A)
                 (A) (A) (A) (A) (A) (A) (A) (A) (A) (A) (A) (A)
                 (A) (A) (A) (A) (A) (A) (A) (A) (A) (A) (A) (A)
                 (A) (A) (A) (A) (A) (A) (A) (A) (A) (A) (A) (A)
                 (A) (A) (A) (A) (A) (A) (A) (A) (A) (A) (A) (A)
                 (A) (A) (A) (A) (A) (A) (A) (A) (A) (A) (A) (A)
                 (A) (A) (A) (A) (A) (A) (A) (A) (A) (A) (A) (A)
                 (A) (A) (A) (A) (A) (A) (A) (A) (A) (A) (A) (A)
                 (A) (A) (A) (A) (A) (A) (A) (A) (A) (A) (A) (A)
                 (A) (A) (A) (A) (A) (A) (A) (A) (A) (A) (A) (A)
                 (A) (A) (A) (A) (A) (A) (A) (A) (A) (A) (A) (A)
                 (A) (A) (A) (A) (A) (A) (A) (A) (A) (A) (A) (A)
                 (A) (A) (A) (A) (A) (A) (A) (A) (A) (A) (A) (A)
                 (A) (A) (A) (A) (A) (A) (A) (A) (A) (A) (A) (A)
                 (A) (A) (A) (A) (A) (A) (A) (A) (A) (A) (A) (A)
                 (A) (A) (A) (A) (A) (A) (A) (A) (A) (A) (A) (A)
                 (A) (A) (A) (A) (A) (A) (A) (A) (A) (A) (A) (A)
                 (A) (A) (A) (A) (A) (A) (A) (A) (A) (A) (A) (A)
                 (A) (A) (A) (A) (A) (A) (A) (A) (A) (A) (A) (A)
                 (A) (A) (A) (A) (A) (A) (A) (A) (A) (A) (A) (A)
                 (A) (A) (A) (A) (A) (A) (A) (A) (A) (A) (A) (A)
                 (A) (A) (A) (A) (A) (A) (A) (A) (A) (A) (A) (A)
                 (A) (A) (A) (A) (A) (A) (A) (A) (A) (A) (A) (A)
                 (A) (A) (A) (A) (A) (A) (A) (A) (A) (A) (A) (A)
                 (A) (A) (A) (A) (A) (A) (A) (A) (A) (A) (A) (A)
                 (A) (A) (A) (A) (A) (A) (A) (A) (A) (A) (A) (A)
                 (A) (A) (A) (A) (A) (A) (A) (A) (A) (A) (A) (A)
                 (A) (A) (A) (A) (A) (A) (A) (A) (A) (A) (A) (A)
                 (A) (A) (A) (A) (A) (A) (A) (A) (A) (A) (A) (A)
                 (A) (A) (A) (A) (A) (A) (A) (A) (A) (A) (A) (A)
                 (A) (A) (A) (A) (A) (A) (A) (A) (A) (A) (A) (A)
                 (A) (A) (A) (A) (A) (A) (A) (A) (A) (A) (A) (A)
                 (A) (A) (A) (A) (A) (A) (A) (A) (A) (A) (A) (A)
                 (A) (A) (A) (A) (A) (A) (A) (A) (A) (A) (A) (A)
                 (A) (A) (A) (A) (A) (A) (A) (A) (A) (A) (A) (A)
                 (A) (A) (A) (A) (A) (A) (A) (A) (A) (A) (A) (A)
                 (A) (A) (A) (A) (A) (A) (A) (A) (A) (A) (A) (A)
                 (A) (A) (A) (A) (A) (A) (A) (A) (A) (A) (A) (A)
                 (A) (A) (A) (A) (A) (A) (A) (A) (A) (A) (A) (A)
                 (A) (A) (A) (A) (A) (A) (A) (A) (A) (A) (A) (A)
                 (A) (A) (A) (A) (A) (A) (A) (A) (A) (A) (A) (A)
                 (A) (A) (A) (A) (A) (A) (A) (A) (A) (A) (A) (A)
                 (A) (A) (A) (A) (A) (A) (A) (A) (A) (A) (A) (A)
                 (A) (A) (A) (A) (A) (A) (A) (A) (A) (A) (A) (A)
                 (A) (A) (A) (A) (A) (A) (A) (A) (A) (A) (A) (A)
                 (A) (A) (A) (A) (A) (A) (A) (A) (A) (A) (A) (A)
                 (A) (A) (A) (A) (A) (A) (A) (A) (A) (A) (A) (A)
                 (A) (A) (A) (A) (A) (A) (A) (A) (A) (A) (A) (A)
                 (A) (A) (A) (A) (A) (A) (A)
 The electronic state is 1-A.
 Alpha  occ. eigenvalues --  -19.26107 -19.22289 -19.20787 -14.52595 -14.51385
 Alpha  occ. eigenvalues --  -14.49079 -14.48761 -14.48117 -14.47076 -14.46876
 Alpha  occ. eigenvalues --  -14.46057 -14.44453 -14.42845 -14.42695 -14.42169
 Alpha  occ. eigenvalues --  -14.42152 -14.41683 -14.41177 -14.40867 -14.40345
 Alpha  occ. eigenvalues --  -10.45707 -10.41368 -10.40411 -10.38369 -10.38287
 Alpha  occ. eigenvalues --  -10.37907 -10.36977 -10.35899 -10.35607 -10.35552
 Alpha  occ. eigenvalues --  -10.34439 -10.34431 -10.34344 -10.33627 -10.33316
 Alpha  occ. eigenvalues --  -10.33311 -10.33228 -10.31303 -10.31294 -10.31139
 Alpha  occ. eigenvalues --  -10.30729 -10.28762 -10.28196  -1.19655  -1.14049
 Alpha  occ. eigenvalues --   -1.13438  -1.13345  -1.11641  -1.10641  -1.09487
 Alpha  occ. eigenvalues --   -1.08714  -1.07675  -1.05173  -1.03224  -1.02773
 Alpha  occ. eigenvalues --   -1.00566  -0.99924  -0.99806  -0.98650  -0.97198
 Alpha  occ. eigenvalues --   -0.96591  -0.95286  -0.92804  -0.91161  -0.86453
 Alpha  occ. eigenvalues --   -0.84905  -0.84218  -0.84141  -0.83915  -0.82577
 Alpha  occ. eigenvalues --   -0.82459  -0.79037  -0.75693  -0.74691  -0.73805
 Alpha  occ. eigenvalues --   -0.73586  -0.73446  -0.73095  -0.71269  -0.69051
 Alpha  occ. eigenvalues --   -0.67511  -0.66749  -0.66487  -0.65408  -0.64637
 Alpha  occ. eigenvalues --   -0.63871  -0.63004  -0.62799  -0.62719  -0.61857
 Alpha  occ. eigenvalues --   -0.60366  -0.60111  -0.59669  -0.59209  -0.58626
 Alpha  occ. eigenvalues --   -0.58519  -0.58307  -0.56782  -0.56692  -0.56520
 Alpha  occ. eigenvalues --   -0.56172  -0.55495  -0.54589  -0.54556  -0.54242
 Alpha  occ. eigenvalues --   -0.53759  -0.53564  -0.53019  -0.52724  -0.52659
 Alpha  occ. eigenvalues --   -0.52383  -0.51985  -0.51618  -0.51054  -0.50413
 Alpha  occ. eigenvalues --   -0.50292  -0.49676  -0.49322  -0.49277  -0.49005
 Alpha  occ. eigenvalues --   -0.48511  -0.48389  -0.47837  -0.47645  -0.47454
 Alpha  occ. eigenvalues --   -0.47175  -0.45433  -0.45238  -0.44165  -0.43197
 Alpha  occ. eigenvalues --   -0.41405  -0.39659  -0.39531  -0.37400  -0.37379
 Alpha  occ. eigenvalues --   -0.37300  -0.36715  -0.36314  -0.35823  -0.34387
 Alpha  occ. eigenvalues --   -0.33813  -0.33716  -0.33567  -0.33350  -0.32818
 Alpha  occ. eigenvalues --   -0.32813  -0.32350  -0.32208  -0.31934  -0.31204
 Alpha  occ. eigenvalues --   -0.30565  -0.28282  -0.26017  -0.25486
 Alpha virt. eigenvalues --    0.02826   0.05224   0.07790   0.08050   0.08696
 Alpha virt. eigenvalues --    0.09051   0.09630   0.10748   0.10928   0.11925
 Alpha virt. eigenvalues --    0.12947   0.13800   0.14559   0.14617   0.15881
 Alpha virt. eigenvalues --    0.15945   0.16378   0.16754   0.17213   0.18281
 Alpha virt. eigenvalues --    0.18925   0.19394   0.19822   0.20076   0.20430
 Alpha virt. eigenvalues --    0.20700   0.21111   0.21560   0.21679   0.22357
 Alpha virt. eigenvalues --    0.22763   0.23116   0.23482   0.23612   0.23686
 Alpha virt. eigenvalues --    0.23873   0.23961   0.24206   0.24609   0.25091
 Alpha virt. eigenvalues --    0.26070   0.26345   0.26745   0.27281   0.27931
 Alpha virt. eigenvalues --    0.28775   0.29248   0.29898   0.30431   0.30901
 Alpha virt. eigenvalues --    0.31268   0.31982   0.32686   0.32871   0.33790
 Alpha virt. eigenvalues --    0.33913   0.34644   0.34898   0.35980   0.36340
 Alpha virt. eigenvalues --    0.36575   0.37500   0.38042   0.39032   0.39607
 Alpha virt. eigenvalues --    0.40128   0.40795   0.41485   0.41687   0.41781
 Alpha virt. eigenvalues --    0.42255   0.42638   0.43067   0.44033   0.44496
 Alpha virt. eigenvalues --    0.45000   0.45639   0.46036   0.46316   0.46820
 Alpha virt. eigenvalues --    0.47028   0.48075   0.48565   0.49082   0.49732
 Alpha virt. eigenvalues --    0.49910   0.50278   0.50589   0.50707   0.51032
 Alpha virt. eigenvalues --    0.51546   0.51838   0.52030   0.52654   0.53507
 Alpha virt. eigenvalues --    0.53647   0.54035   0.54390   0.54663   0.55254
 Alpha virt. eigenvalues --    0.55515   0.56130   0.56383   0.56983   0.57252
 Alpha virt. eigenvalues --    0.57385   0.58163   0.58745   0.59215   0.60102
 Alpha virt. eigenvalues --    0.60195   0.60647   0.61142   0.61176   0.61534
 Alpha virt. eigenvalues --    0.61649   0.62394   0.63161   0.63257   0.63730
 Alpha virt. eigenvalues --    0.63802   0.64516   0.64593   0.64862   0.65320
 Alpha virt. eigenvalues --    0.65849   0.66190   0.66469   0.66931   0.67052
 Alpha virt. eigenvalues --    0.67511   0.68419   0.68506   0.68613   0.69400
 Alpha virt. eigenvalues --    0.69893   0.70616   0.70944   0.71336   0.71626
 Alpha virt. eigenvalues --    0.71925   0.72600   0.72760   0.73100   0.73468
 Alpha virt. eigenvalues --    0.73595   0.73640   0.74644   0.74824   0.75070
 Alpha virt. eigenvalues --    0.75661   0.76100   0.76358   0.76627   0.76767
 Alpha virt. eigenvalues --    0.77331   0.77822   0.78091   0.78682   0.78964
 Alpha virt. eigenvalues --    0.79171   0.79333   0.79803   0.80291   0.80700
 Alpha virt. eigenvalues --    0.81307   0.81793   0.82160   0.82970   0.83094
 Alpha virt. eigenvalues --    0.83371   0.83643   0.84496   0.85143   0.85228
 Alpha virt. eigenvalues --    0.85716   0.86066   0.86703   0.86912   0.87490
 Alpha virt. eigenvalues --    0.88064   0.88536   0.88749   0.89230   0.89599
 Alpha virt. eigenvalues --    0.90088   0.90225   0.90689   0.91219   0.92016
 Alpha virt. eigenvalues --    0.92697   0.93056   0.93661   0.94239   0.94344
 Alpha virt. eigenvalues --    0.94511   0.95182   0.95569   0.96038   0.96216
 Alpha virt. eigenvalues --    0.96535   0.97126   0.97479   0.97931   0.98391
 Alpha virt. eigenvalues --    0.98662   0.98954   0.99853   1.00293   1.00832
 Alpha virt. eigenvalues --    1.01371   1.01943   1.02250   1.02599   1.02986
 Alpha virt. eigenvalues --    1.03309   1.04197   1.04259   1.04657   1.04986
 Alpha virt. eigenvalues --    1.05552   1.05966   1.06365   1.06874   1.07144
 Alpha virt. eigenvalues --    1.08017   1.08613   1.09314   1.10333   1.10643
 Alpha virt. eigenvalues --    1.11580   1.11766   1.12024   1.13177   1.13648
 Alpha virt. eigenvalues --    1.13982   1.14338   1.14581   1.14930   1.15193
 Alpha virt. eigenvalues --    1.15924   1.16334   1.17134   1.17907   1.18070
 Alpha virt. eigenvalues --    1.18525   1.18733   1.19023   1.19511   1.19862
 Alpha virt. eigenvalues --    1.19907   1.20312   1.21028   1.21411   1.21680
 Alpha virt. eigenvalues --    1.22096   1.22545   1.22999   1.23245   1.23312
 Alpha virt. eigenvalues --    1.23540   1.23772   1.24291   1.24662   1.24899
 Alpha virt. eigenvalues --    1.25264   1.26146   1.27129   1.28304   1.29114
 Alpha virt. eigenvalues --    1.29385   1.29660   1.29907   1.30327   1.30736
 Alpha virt. eigenvalues --    1.32120   1.32588   1.32734   1.33428   1.33959
 Alpha virt. eigenvalues --    1.34245   1.34873   1.35791   1.36353   1.37012
 Alpha virt. eigenvalues --    1.37988   1.38288   1.38629   1.39849   1.40182
 Alpha virt. eigenvalues --    1.40605   1.41842   1.42504   1.43359   1.43982
 Alpha virt. eigenvalues --    1.44734   1.45727   1.45934   1.47660   1.47935
 Alpha virt. eigenvalues --    1.48708   1.49098   1.49351   1.49673   1.50588
 Alpha virt. eigenvalues --    1.51059   1.51783   1.52762   1.53338   1.53953
 Alpha virt. eigenvalues --    1.54120   1.55489   1.55778   1.56323   1.57648
 Alpha virt. eigenvalues --    1.57830   1.58938   1.59364   1.60250   1.60971
 Alpha virt. eigenvalues --    1.61695   1.62140   1.62592   1.62984   1.63626
 Alpha virt. eigenvalues --    1.63904   1.64744   1.65760   1.66348   1.67008
 Alpha virt. eigenvalues --    1.67446   1.67893   1.68174   1.68744   1.69028
 Alpha virt. eigenvalues --    1.69578   1.69832   1.69885   1.70895   1.71358
 Alpha virt. eigenvalues --    1.71707   1.72198   1.72639   1.73228   1.73873
 Alpha virt. eigenvalues --    1.73896   1.74390   1.74753   1.74793   1.75270
 Alpha virt. eigenvalues --    1.75582   1.75887   1.76196   1.76477   1.76948
 Alpha virt. eigenvalues --    1.77598   1.78145   1.78272   1.78700   1.78955
 Alpha virt. eigenvalues --    1.79658   1.79743   1.79874   1.80052   1.80359
 Alpha virt. eigenvalues --    1.80661   1.80940   1.81526   1.81799   1.81918
 Alpha virt. eigenvalues --    1.82189   1.82972   1.83401   1.84291   1.84352
 Alpha virt. eigenvalues --    1.85187   1.85757   1.86315   1.86413   1.86776
 Alpha virt. eigenvalues --    1.87088   1.87747   1.88385   1.88863   1.89164
 Alpha virt. eigenvalues --    1.89708   1.90290   1.90550   1.90912   1.91303
 Alpha virt. eigenvalues --    1.92213   1.92384   1.92993   1.93559   1.93924
 Alpha virt. eigenvalues --    1.94288   1.95443   1.96044   1.96679   1.97514
 Alpha virt. eigenvalues --    1.98138   1.98518   1.99663   2.00331   2.00949
 Alpha virt. eigenvalues --    2.01784   2.02237   2.02544   2.02700   2.03232
 Alpha virt. eigenvalues --    2.04250   2.05189   2.06380   2.06648   2.07245
 Alpha virt. eigenvalues --    2.07745   2.08489   2.08597   2.08851   2.09877
 Alpha virt. eigenvalues --    2.10339   2.10750   2.11207   2.12092   2.12245
 Alpha virt. eigenvalues --    2.13787   2.14782   2.15931   2.16842   2.17515
 Alpha virt. eigenvalues --    2.19158   2.19962   2.20359   2.20672   2.21489
 Alpha virt. eigenvalues --    2.21813   2.22366   2.22716   2.23134   2.24011
 Alpha virt. eigenvalues --    2.24389   2.24900   2.25381   2.26566   2.26770
 Alpha virt. eigenvalues --    2.27392   2.27806   2.28515   2.29471   2.29630
 Alpha virt. eigenvalues --    2.29905   2.30808   2.31171   2.31666   2.32184
 Alpha virt. eigenvalues --    2.32815   2.33681   2.33875   2.34397   2.34617
 Alpha virt. eigenvalues --    2.35000   2.35758   2.36031   2.36652   2.37585
 Alpha virt. eigenvalues --    2.37907   2.38627   2.39966   2.40840   2.41554
 Alpha virt. eigenvalues --    2.41750   2.42469   2.42962   2.43341   2.44058
 Alpha virt. eigenvalues --    2.44809   2.45705   2.46225   2.46449   2.46698
 Alpha virt. eigenvalues --    2.46948   2.48972   2.50141   2.50964   2.51517
 Alpha virt. eigenvalues --    2.52666   2.54039   2.54660   2.54897   2.55590
 Alpha virt. eigenvalues --    2.56379   2.57159   2.57615   2.58758   2.59739
 Alpha virt. eigenvalues --    2.61124   2.61331   2.61977   2.62216   2.62769
 Alpha virt. eigenvalues --    2.64070   2.64961   2.65237   2.65474   2.66032
 Alpha virt. eigenvalues --    2.66695   2.67619   2.68202   2.68665   2.68899
 Alpha virt. eigenvalues --    2.69517   2.70668   2.70990   2.71352   2.72278
 Alpha virt. eigenvalues --    2.73716   2.74280   2.75021   2.75380   2.76385
 Alpha virt. eigenvalues --    2.77380   2.77899   2.78992   2.79562   2.79682
 Alpha virt. eigenvalues --    2.79809   2.79979   2.80421   2.81686   2.81804
 Alpha virt. eigenvalues --    2.82355   2.82656   2.82868   2.83101   2.84106
 Alpha virt. eigenvalues --    2.84517   2.84791   2.86131   2.86736   2.87016
 Alpha virt. eigenvalues --    2.87308   2.88335   2.88708   2.91151   2.92567
 Alpha virt. eigenvalues --    2.94146   2.96091   2.96534   2.97343   2.99135
 Alpha virt. eigenvalues --    3.00157   3.00886   3.00983   3.04666   3.05673
 Alpha virt. eigenvalues --    3.07140   3.09823   3.11601   3.13523   3.14974
 Alpha virt. eigenvalues --    3.15109   3.15924   3.16328   3.17606   3.20008
 Alpha virt. eigenvalues --    3.22590   3.23420   3.23630   3.23755   3.26144
 Alpha virt. eigenvalues --    3.46015   3.46913   3.47812   3.50100   3.50614
 Alpha virt. eigenvalues --    3.53183   3.54583   3.56075   3.57798   3.59820
 Alpha virt. eigenvalues --    3.62523   3.70624   3.74556
          Condensed to atoms (all electrons):
 Mulliken charges:
               1
     1  N   -0.311012
     2  C    0.180502
     3  C    0.043922
     4  N   -0.254996
     5  C    0.130184
     6  H    0.026764
     7  N   -0.287501
     8  C    0.130575
     9  H    0.013258
    10  N   -0.291129
    11  C    0.230160
    12  C    0.109291
    13  N   -0.044480
    14  H    0.109886
    15  H    0.090503
    16  H    0.026862
    17  H    0.034328
    18  H    0.024055
    19  N   -0.309116
    20  C    0.254375
    21  C    0.180001
    22  N   -0.120203
    23  H    0.112387
    24  H    0.117595
    25  N   -0.307827
    26  C    0.244754
    27  N   -0.137755
    28  H    0.116489
    29  C    0.169333
    30  O   -0.323375
    31  C   -0.002625
    32  N   -0.225268
    33  C    0.128886
    34  H    0.026968
    35  H    0.032670
    36  H    0.027935
    37  H    0.023099
    38  H    0.054370
    39  H    0.062481
    40  H    0.072559
    41  H    0.028775
    42  C   -0.103027
    43  O   -0.281983
    44  C    0.153480
    45  H    0.138367
    46  N   -0.123893
    47  O   -0.349370
    48  C    0.353579
    49  H    0.047528
    50  C    0.188072
    51  C    0.040964
    52  N   -0.285898
    53  H    0.032150
    54  H    0.040806
    55  H    0.020736
    56  H    0.126007
    57  H    0.116010
    58  N   -0.033572
    59  C    0.098856
    60  C    0.245200
    61  N   -0.274706
    62  H    0.036264
    63  C    0.164415
    64  N   -0.301956
    65  H    0.029261
    66  C    0.123066
    67  N   -0.257466
    68  C   -0.000313
    69  C    0.179934
    70  N   -0.310187
 Sum of Mulliken charges =  -0.00000
 Mulliken charges with hydrogens summed into heavy atoms:
               1
     1  N   -0.311012
     2  C    0.265746
     3  C    0.043922
     4  N   -0.254996
     5  C    0.156948
     7  N   -0.287501
     8  C    0.143833
    10  N   -0.291129
    11  C    0.230160
    12  C    0.109291
    13  N    0.155909
    19  N   -0.309116
    20  C    0.254375
    21  C    0.263705
    22  N    0.109778
    25  N   -0.307827
    26  C    0.244754
    27  N   -0.021267
    29  C    0.169333
    30  O   -0.323375
    31  C   -0.002625
    32  N   -0.225268
    33  C    0.155854
    42  C   -0.074252
    43  O   -0.281983
    44  C    0.153480
    46  N    0.014474
    47  O   -0.349370
    48  C    0.353579
    50  C    0.235600
    51  C    0.230373
    52  N   -0.285898
    58  N    0.208444
    59  C    0.098856
    60  C    0.245200
    61  N   -0.274706
    63  C    0.200679
    64  N   -0.301956
    66  C    0.152328
    67  N   -0.257466
    68  C   -0.000313
    69  C    0.273626
    70  N   -0.310187
 Electronic spatial extent (au):  <R**2>=          23314.0846
 Charge=              0.0000 electrons
 Dipole moment (field-independent basis, Debye):
    X=              6.9269    Y=              6.1995    Z=              2.6555  Tot=              9.6678
 Quadrupole moment (field-independent basis, Debye-Ang):
   XX=           -142.7136   YY=           -224.3997   ZZ=           -253.3941
   XY=              7.8470   XZ=             13.5966   YZ=             -2.0415
 Traceless Quadrupole moment (field-independent basis, Debye-Ang):
   XX=             64.1222   YY=            -17.5639   ZZ=            -46.5583
   XY=              7.8470   XZ=             13.5966   YZ=             -2.0415
 Octapole moment (field-independent basis, Debye-Ang**2):
  XXX=              0.5556  YYY=             84.3511  ZZZ=             38.8548  XYY=             31.2112
  XXY=             37.2738  XXZ=            -49.6555  XZZ=             59.6923  YZZ=             53.7541
  YYZ=             29.2044  XYZ=             49.0858
 Hexadecapole moment (field-independent basis, Debye-Ang**3):
 XXXX=         -15766.6348 YYYY=          -4723.9547 ZZZZ=          -3603.8508 XXXY=            456.2622
 XXXZ=            174.6220 YYYX=            -19.4767 YYYZ=              1.8458 ZZZX=            186.8274
 ZZZY=             70.7453 XXYY=          -4124.5406 XXZZ=          -4121.6138 YYZZ=          -1507.1586
 XXYZ=             99.1482 YYXZ=            126.7337 ZZXY=            125.7869
 N-N= 5.470380788675D+03 E-N=-1.572184700583D+04  KE= 2.037719187072D+03
 No NMR shielding tensors so no spin-rotation constants.
 Leave Link  601 at Sun Jan 21 11:59:55 2018, MaxMem=  4294967296 cpu:              46.4 elap:               1.6
 (Enter /share/apps/g16/l9999.exe)
 1\1\GINC-COMPUTE-0-3\SP\RwB97XD\CC-pVDZ\C23H27N17O3\SATYA\21-Jan-2018\
 0\\#p wb97xd/cc-pvdz sp scf=(maxcycles=20)\\Base pair stacking\\0,1\N,
 0,7.15537,6.07548,-5.09914\C,0,7.7313,7.41682,-5.31623\C,0,5.82457,4.3
 2462,-5.12691\N,0,6.93664,3.95508,-4.3843\C,0,7.69389,5.0247,-4.39729\
 H,0,8.66445,5.10321,-3.90659\N,0,3.74173,4.29152,-6.23309\C,0,3.99782,
 5.55399,-6.59108\H,0,3.22646,6.03216,-7.19326\N,0,5.05871,6.31093,-6.3
 1817\C,0,5.94505,5.62884,-5.57415\C,0,4.65321,3.63262,-5.48467\N,0,4.3
 9938,2.37233,-5.12632\H,0,5.04578,1.84633,-4.5725\H,0,3.55491,1.91122,
 -5.39907\H,0,8.60636,7.33217,-5.79297\H,0,7.10353,7.96451,-5.86855\H,0
 ,7.87602,7.86636,-4.43478\N,0,2.03199,6.21528,-3.20433\C,0,1.12447,5.1
 9548,-3.36073\C,0,1.76479,7.64362,-3.46728\N,0,-2.05959,4.1084,-4.2219
 9\H,0,-2.55565,3.24181,-4.26869\H,0,-2.56179,4.9333,-4.48286\N,0,-0.15
 354,5.32588,-3.77753\C,0,-0.77847,4.16287,-3.82741\N,0,-0.19805,2.9628
 3,-3.49497\H,0,-0.752,2.12292,-3.56315\C,0,1.11532,2.80506,-3.06365\O,
 0,1.54176,1.67672,-2.78845\C,0,1.7994,4.04582,-3.00499\N,0,3.10438,4.3
 3798,-2.63276\C,0,3.19654,5.6333,-2.76641\H,0,4.0941,6.21672,-2.55839\
 H,0,2.38696,7.976,-4.17527\H,0,0.82103,7.75253,-3.77666\H,0,1.90245,8.
 17002,-2.62897\H,0,-3.83462,-1.74925,-4.72784\H,0,-4.16403,-1.7358,-2.
 99696\H,0,-3.77713,-0.23094,-3.83185\H,0,0.09355,-3.97516,-3.06611\C,0
 ,-0.30912,-2.96573,-3.15058\O,0,1.77597,-1.90341,-2.762\C,0,0.56828,-1
 .84638,-2.99229\H,0,0.54506,0.19992,-3.0126\N,0,-0.04265,-0.61505,-3.1
 1813\O,0,-1.81811,0.75733,-3.46669\C,0,-1.36912,-0.37147,-3.37247\H,0,
 -2.31651,-3.57716,-3.52788\C,0,-1.60776,-2.76016,-3.39934\C,0,-3.57525
 ,-1.29075,-3.7852\N,0,-2.15081,-1.50132,-3.51246\H,0,-3.02865,1.12842,
 -8.84825\H,0,-2.54513,2.3403,-7.86862\H,0,-3.70801,1.30674,-7.37513\H,
 0,2.91687,-0.98671,-4.94408\H,0,1.6716,-2.06515,-5.38722\N,0,2.01117,-
 1.12487,-5.34505\C,0,1.28758,-0.10141,-5.80342\C,0,-0.61734,0.91282,-6
 .80559\N,0,-0.13596,2.16495,-6.73596\H,0,1.53871,3.14994,-6.08336\C,0,
 1.07333,2.16985,-6.17873\N,0,1.79973,1.14585,-5.719\H,0,-2.72487,-1.44
 098,-7.49124\C,0,-1.86561,-0.85356,-7.16638\N,0,-0.78943,-1.35264,-6.6
 092\C,0,0.01022,-0.2433,-6.37537\C,0,-2.86009,1.39213,-7.89849\N,0,-1.
 8292,0.51139,-7.31574\\Version=EM64L-G16RevA.03\State=1-A\HF=-2048.746
 5057\RMSD=6.575e-09\Dipole=-3.6863559,-0.1389341,-0.9268384\Quadrupole
 =24.1828014,10.4210307,-34.6038321,30.3706089,4.9273268,8.1966459\PG=C
 01 [X(C23H27N17O3)]\\@


 The impersonal hand of government can
 never replace the helping hand of a neighbor.
                        -- Hubert H. Humphrey
 Job cpu time:       0 days  5 hours 51 minutes  1.8 seconds.
 Elapsed time:       0 days  0 hours 11 minutes 21.1 seconds.
 File lengths (MBytes):  RWF=    298 Int=      0 D2E=      0 Chk=     33 Scr=      1
 Normal termination of Gaussian 16 at Sun Jan 21 11:59:55 2018.
