 Entering Gaussian System, Link 0=g16
 Input=str30.-5.-2.0.com
 Output=str30.-5.-2.0.log
 Initial command:
 /share/apps/g16/l1.exe "/state/partition1/scr/Gau-1991.inp" -scrdir="/state/partition1/scr/"
 Entering Link 1 = /share/apps/g16/l1.exe PID=      1992.
  
 Copyright (c) 1988,1990,1992,1993,1995,1998,2003,2009,2016,
            Gaussian, Inc.  All Rights Reserved.
  
 This is part of the Gaussian(R) 16 program.  It is based on
 the Gaussian(R) 09 system (copyright 2009, Gaussian, Inc.),
 the Gaussian(R) 03 system (copyright 2003, Gaussian, Inc.),
 the Gaussian(R) 98 system (copyright 1998, Gaussian, Inc.),
 the Gaussian(R) 94 system (copyright 1995, Gaussian, Inc.),
 the Gaussian 92(TM) system (copyright 1992, Gaussian, Inc.),
 the Gaussian 90(TM) system (copyright 1990, Gaussian, Inc.),
 the Gaussian 88(TM) system (copyright 1988, Gaussian, Inc.),
 the Gaussian 86(TM) system (copyright 1986, Carnegie Mellon
 University), and the Gaussian 82(TM) system (copyright 1983,
 Carnegie Mellon University). Gaussian is a federally registered
 trademark of Gaussian, Inc.
  
 This software contains proprietary and confidential information,
 including trade secrets, belonging to Gaussian, Inc.
  
 This software is provided under written license and may be
 used, copied, transmitted, or stored only in accord with that
 written license.
  
 The following legend is applicable only to US Government
 contracts under FAR:
  
                    RESTRICTED RIGHTS LEGEND
  
 Use, reproduction and disclosure by the US Government is
 subject to restrictions as set forth in subparagraphs (a)
 and (c) of the Commercial Computer Software - Restricted
 Rights clause in FAR 52.227-19.
  
 Gaussian, Inc.
 340 Quinnipiac St., Bldg. 40, Wallingford CT 06492
  
  
 ---------------------------------------------------------------
 Warning -- This program may not be used in any manner that
 competes with the business of Gaussian, Inc. or will provide
 assistance to any competitor of Gaussian, Inc.  The licensee
 of this program is prohibited from giving any competitor of
 Gaussian, Inc. access to this program.  By using this program,
 the user acknowledges that Gaussian, Inc. is engaged in the
 business of creating and licensing software in the field of
 computational chemistry and represents and warrants to the
 licensee that it is not a competitor of Gaussian, Inc. and that
 it will not use this program in any manner prohibited above.
 ---------------------------------------------------------------
  

 Cite this work as:
 Gaussian 16, Revision A.03,
 M. J. Frisch, G. W. Trucks, H. B. Schlegel, G. E. Scuseria, 
 M. A. Robb, J. R. Cheeseman, G. Scalmani, V. Barone, 
 G. A. Petersson, H. Nakatsuji, X. Li, M. Caricato, A. V. Marenich, 
 J. Bloino, B. G. Janesko, R. Gomperts, B. Mennucci, H. P. Hratchian, 
 J. V. Ortiz, A. F. Izmaylov, J. L. Sonnenberg, D. Williams-Young, 
 F. Ding, F. Lipparini, F. Egidi, J. Goings, B. Peng, A. Petrone, 
 T. Henderson, D. Ranasinghe, V. G. Zakrzewski, J. Gao, N. Rega, 
 G. Zheng, W. Liang, M. Hada, M. Ehara, K. Toyota, R. Fukuda, 
 J. Hasegawa, M. Ishida, T. Nakajima, Y. Honda, O. Kitao, H. Nakai, 
 T. Vreven, K. Throssell, J. A. Montgomery, Jr., J. E. Peralta, 
 F. Ogliaro, M. J. Bearpark, J. J. Heyd, E. N. Brothers, K. N. Kudin, 
 V. N. Staroverov, T. A. Keith, R. Kobayashi, J. Normand, 
 K. Raghavachari, A. P. Rendell, J. C. Burant, S. S. Iyengar, 
 J. Tomasi, M. Cossi, J. M. Millam, M. Klene, C. Adamo, R. Cammi, 
 J. W. Ochterski, R. L. Martin, K. Morokuma, O. Farkas, 
 J. B. Foresman, and D. J. Fox, Gaussian, Inc., Wallingford CT, 2016.
 
 ******************************************
 Gaussian 16:  EM64L-G16RevA.03 25-Dec-2016
                21-Jan-2018 
 ******************************************
 %nprocshared=32
 Will use up to   32 processors via shared memory.
 %mem=32GB
 %chk=allatoms_t.chk
 ---------------------------------------
 #p wb97xd/cc-pvdz sp scf=(maxcycles=20)
 ---------------------------------------
 1/38=1,172=1/1;
 2/12=2,17=6,18=5,40=1/2;
 3/5=16,11=2,25=1,30=1,74=-58/1,2,3;
 4//1;
 5/5=2,7=20,38=5/2;
 6/7=2,8=2,9=2,10=2,28=1/1;
 99/5=1,9=1/99;
 Leave Link    1 at Sun Jan 21 20:54:24 2018, MaxMem=  4294967296 cpu:               2.7 elap:               0.1
 (Enter /share/apps/g16/l101.exe)
 ------------------
 Base pair stacking
 ------------------
 Symbolic Z-matrix:
 Charge =  0 Multiplicity = 1
 N                     5.63963   7.52272  -6.84077 
 C                     6.1052    8.92208  -6.89581 
 C                     4.37742   5.72592  -6.71561 
 N                     5.68548   5.27499  -6.81745 
 C                     6.39356   6.37554  -6.88878 
 H                     7.47975   6.40922  -6.97826 
 N                     2.02775   5.79786  -6.52379 
 C                     2.1427    7.12967  -6.54926 
 H                     1.20474   7.6788   -6.47895 
 N                     3.23721   7.88147  -6.64807 
 C                     4.33333   7.10918  -6.72866 
 C                     3.14908   5.04899  -6.60673 
 N                     3.03637   3.71939  -6.58147 
 H                     3.83971   3.12574  -6.6402 
 H                     2.1456    3.2716   -6.50302 
 H                     6.58985   9.07997  -7.75625 
 H                     5.31992   9.53789  -6.83883 
 H                     6.72279   9.10046  -6.12981 
 N                     1.56316   6.72309  -3.2761 
 C                     0.64263   5.70439  -3.22213 
 C                     1.2409    8.16368  -3.31549 
 N                    -2.66089   4.63833  -3.11246 
 H                    -3.1549    3.7702   -3.07308 
 H                    -3.21146   5.47342  -3.12702 
 N                    -0.70013   5.84713  -3.19624 
 C                    -1.32036   4.6817   -3.14434 
 N                    -0.67672   3.46819  -3.11962 
 H                    -1.23217   2.62744  -3.07972 
 C                     0.70389   3.29756  -3.14547 
 O                     1.18408   2.15761  -3.11941 
 C                     1.38378   4.54075  -3.20124 
 N                     2.74227   4.82323  -3.24129 
 C                     2.80043   6.12666  -3.28488 
 H                     3.72346   6.70607  -3.32466 
 H                     1.60765   8.56618  -4.15352 
 H                     0.24895   8.28179  -3.29677 
 H                     1.64472   8.61907  -2.5228 
 H                    -4.56566  -1.18546  -3.52951 
 H                    -4.32455  -1.32545  -1.78971 
 H                    -4.209     0.25173  -2.57105 
 H                    -0.33595  -3.47484  -3.40766 
 C                    -0.73392  -2.46919  -3.27159 
 O                     1.377    -1.40701  -3.47867 
 C                     0.15971  -1.35201  -3.30554 
 H                     0.15263   0.68784  -3.14043 
 N                    -0.44648  -0.12547  -3.12284 
 O                    -2.22578   1.23989  -2.76639 
 C                    -1.78206   0.11532  -2.91837 
 H                    -2.76291  -3.08177  -3.03969 
 C                    -2.04174  -2.26624  -3.07402 
 C                    -4.01389  -0.80445  -2.68308 
 N                    -2.57927  -1.01219  -2.89861 
 H                    -5.30294   2.84197  -6.06989 
 H                    -4.29436   3.75067  -5.16482 
 H                    -5.09066   2.49631  -4.48911 
 H                     1.64605   0.3187   -6.71033 
 H                     0.28364  -0.7071   -6.75112 
 N                     0.658     0.20873  -6.6017 
 C                    -0.12642   1.23699  -6.27224 
 C                    -2.19883   2.2901   -5.7645 
 N                    -1.66849   3.50884  -5.56997 
 H                     0.16166   4.43032  -5.61469 
 C                    -0.35003   3.47891  -5.75344 
 N                     0.43744   2.45004  -6.08344 
 H                    -4.50694   0.03363  -5.94668 
 C                    -3.56753   0.58719  -5.95207 
 N                    -2.3964    0.06499  -6.2231 
 C                    -1.51971   1.13401  -6.10769 
 C                    -4.64191   2.82635  -5.31969 
 N                    -3.52184   1.92976  -5.66549 
 
 ITRead=  0  0  0  0  0  0  0  0  0  0  0  0  0  0  0  0  0  0  0  0
 ITRead=  0  0  0  0  0  0  0  0  0  0  0  0  0  0  0  0  0  0  0  0
 ITRead=  0  0  0  0  0  0  0  0  0  0  0  0  0  0  0  0  0  0  0  0
 ITRead=  0  0  0  0  0  0  0  0  0  0
 MicOpt= -1 -1 -1 -1 -1 -1 -1 -1 -1 -1 -1 -1 -1 -1 -1 -1 -1 -1 -1 -1
 MicOpt= -1 -1 -1 -1 -1 -1 -1 -1 -1 -1 -1 -1 -1 -1 -1 -1 -1 -1 -1 -1
 MicOpt= -1 -1 -1 -1 -1 -1 -1 -1 -1 -1 -1 -1 -1 -1 -1 -1 -1 -1 -1 -1
 MicOpt= -1 -1 -1 -1 -1 -1 -1 -1 -1 -1
 NAtoms=     70 NQM=       70 NQMF=       0 NMMI=      0 NMMIF=      0
                NMic=       0 NMicF=      0.
                    Isotopes and Nuclear Properties:
 (Nuclear quadrupole moments (NQMom) in fm**2, nuclear magnetic moments (NMagM)
  in nuclear magnetons)

  Atom         1           2           3           4           5           6           7           8           9          10
 IAtWgt=          14          12          12          14          12           1          14          12           1          14
 AtmWgt=  14.0030740  12.0000000  12.0000000  14.0030740  12.0000000   1.0078250  14.0030740  12.0000000   1.0078250  14.0030740
 NucSpn=           2           0           0           2           0           1           2           0           1           2
 AtZEff=  -0.0000000  -0.0000000  -0.0000000  -0.0000000  -0.0000000  -0.0000000  -0.0000000  -0.0000000  -0.0000000  -0.0000000
 NQMom=    2.0440000   0.0000000   0.0000000   2.0440000   0.0000000   0.0000000   2.0440000   0.0000000   0.0000000   2.0440000
 NMagM=    0.4037610   0.0000000   0.0000000   0.4037610   0.0000000   2.7928460   0.4037610   0.0000000   2.7928460   0.4037610
 AtZNuc=   7.0000000   6.0000000   6.0000000   7.0000000   6.0000000   1.0000000   7.0000000   6.0000000   1.0000000   7.0000000

  Atom        11          12          13          14          15          16          17          18          19          20
 IAtWgt=          12          12          14           1           1           1           1           1          14          12
 AtmWgt=  12.0000000  12.0000000  14.0030740   1.0078250   1.0078250   1.0078250   1.0078250   1.0078250  14.0030740  12.0000000
 NucSpn=           0           0           2           1           1           1           1           1           2           0
 AtZEff=  -0.0000000  -0.0000000  -0.0000000  -0.0000000  -0.0000000  -0.0000000  -0.0000000  -0.0000000  -0.0000000  -0.0000000
 NQMom=    0.0000000   0.0000000   2.0440000   0.0000000   0.0000000   0.0000000   0.0000000   0.0000000   2.0440000   0.0000000
 NMagM=    0.0000000   0.0000000   0.4037610   2.7928460   2.7928460   2.7928460   2.7928460   2.7928460   0.4037610   0.0000000
 AtZNuc=   6.0000000   6.0000000   7.0000000   1.0000000   1.0000000   1.0000000   1.0000000   1.0000000   7.0000000   6.0000000

  Atom        21          22          23          24          25          26          27          28          29          30
 IAtWgt=          12          14           1           1          14          12          14           1          12          16
 AtmWgt=  12.0000000  14.0030740   1.0078250   1.0078250  14.0030740  12.0000000  14.0030740   1.0078250  12.0000000  15.9949146
 NucSpn=           0           2           1           1           2           0           2           1           0           0
 AtZEff=  -0.0000000  -0.0000000  -0.0000000  -0.0000000  -0.0000000  -0.0000000  -0.0000000  -0.0000000  -0.0000000  -0.0000000
 NQMom=    0.0000000   2.0440000   0.0000000   0.0000000   2.0440000   0.0000000   2.0440000   0.0000000   0.0000000   0.0000000
 NMagM=    0.0000000   0.4037610   2.7928460   2.7928460   0.4037610   0.0000000   0.4037610   2.7928460   0.0000000   0.0000000
 AtZNuc=   6.0000000   7.0000000   1.0000000   1.0000000   7.0000000   6.0000000   7.0000000   1.0000000   6.0000000   8.0000000

  Atom        31          32          33          34          35          36          37          38          39          40
 IAtWgt=          12          14          12           1           1           1           1           1           1           1
 AtmWgt=  12.0000000  14.0030740  12.0000000   1.0078250   1.0078250   1.0078250   1.0078250   1.0078250   1.0078250   1.0078250
 NucSpn=           0           2           0           1           1           1           1           1           1           1
 AtZEff=  -0.0000000  -0.0000000  -0.0000000  -0.0000000  -0.0000000  -0.0000000  -0.0000000  -0.0000000  -0.0000000  -0.0000000
 NQMom=    0.0000000   2.0440000   0.0000000   0.0000000   0.0000000   0.0000000   0.0000000   0.0000000   0.0000000   0.0000000
 NMagM=    0.0000000   0.4037610   0.0000000   2.7928460   2.7928460   2.7928460   2.7928460   2.7928460   2.7928460   2.7928460
 AtZNuc=   6.0000000   7.0000000   6.0000000   1.0000000   1.0000000   1.0000000   1.0000000   1.0000000   1.0000000   1.0000000

  Atom        41          42          43          44          45          46          47          48          49          50
 IAtWgt=           1          12          16          12           1          14          16          12           1          12
 AtmWgt=   1.0078250  12.0000000  15.9949146  12.0000000   1.0078250  14.0030740  15.9949146  12.0000000   1.0078250  12.0000000
 NucSpn=           1           0           0           0           1           2           0           0           1           0
 AtZEff=  -0.0000000  -0.0000000  -0.0000000  -0.0000000  -0.0000000  -0.0000000  -0.0000000  -0.0000000  -0.0000000  -0.0000000
 NQMom=    0.0000000   0.0000000   0.0000000   0.0000000   0.0000000   2.0440000   0.0000000   0.0000000   0.0000000   0.0000000
 NMagM=    2.7928460   0.0000000   0.0000000   0.0000000   2.7928460   0.4037610   0.0000000   0.0000000   2.7928460   0.0000000
 AtZNuc=   1.0000000   6.0000000   8.0000000   6.0000000   1.0000000   7.0000000   8.0000000   6.0000000   1.0000000   6.0000000

  Atom        51          52          53          54          55          56          57          58          59          60
 IAtWgt=          12          14           1           1           1           1           1          14          12          12
 AtmWgt=  12.0000000  14.0030740   1.0078250   1.0078250   1.0078250   1.0078250   1.0078250  14.0030740  12.0000000  12.0000000
 NucSpn=           0           2           1           1           1           1           1           2           0           0
 AtZEff=  -0.0000000  -0.0000000  -0.0000000  -0.0000000  -0.0000000  -0.0000000  -0.0000000  -0.0000000  -0.0000000  -0.0000000
 NQMom=    0.0000000   2.0440000   0.0000000   0.0000000   0.0000000   0.0000000   0.0000000   2.0440000   0.0000000   0.0000000
 NMagM=    0.0000000   0.4037610   2.7928460   2.7928460   2.7928460   2.7928460   2.7928460   0.4037610   0.0000000   0.0000000
 AtZNuc=   6.0000000   7.0000000   1.0000000   1.0000000   1.0000000   1.0000000   1.0000000   7.0000000   6.0000000   6.0000000

  Atom        61          62          63          64          65          66          67          68          69          70
 IAtWgt=          14           1          12          14           1          12          14          12          12          14
 AtmWgt=  14.0030740   1.0078250  12.0000000  14.0030740   1.0078250  12.0000000  14.0030740  12.0000000  12.0000000  14.0030740
 NucSpn=           2           1           0           2           1           0           2           0           0           2
 AtZEff=  -0.0000000  -0.0000000  -0.0000000  -0.0000000  -0.0000000  -0.0000000  -0.0000000  -0.0000000  -0.0000000  -0.0000000
 NQMom=    2.0440000   0.0000000   0.0000000   2.0440000   0.0000000   0.0000000   2.0440000   0.0000000   0.0000000   2.0440000
 NMagM=    0.4037610   2.7928460   0.0000000   0.4037610   2.7928460   0.0000000   0.4037610   0.0000000   0.0000000   0.4037610
 AtZNuc=   7.0000000   1.0000000   6.0000000   7.0000000   1.0000000   6.0000000   7.0000000   6.0000000   6.0000000   7.0000000
 Leave Link  101 at Sun Jan 21 20:54:25 2018, MaxMem=  4294967296 cpu:               7.2 elap:               0.3
 (Enter /share/apps/g16/l202.exe)
 Stoichiometry    C23H27N17O3
 Framework group  C1[X(C23H27N17O3)]
 Deg. of freedom   204
 Full point group                 C1      NOp   1
 Largest Abelian subgroup         C1      NOp   1
 Largest concise Abelian subgroup C1      NOp   1
                         Standard orientation:                         
 ---------------------------------------------------------------------
 Center     Atomic      Atomic             Coordinates (Angstroms)
 Number     Number       Type             X           Y           Z
 ---------------------------------------------------------------------
      1          7           0       -6.895382   -1.161356    0.309169
      2          6           0       -8.226606   -0.525517    0.269846
      3          6           0       -4.738934   -1.521119    0.549237
      4          7           0       -5.291224   -2.728183    0.145874
      5          6           0       -6.568296   -2.463130    0.017388
      6          1           0       -7.323780   -3.186684   -0.290286
      7          7           0       -3.209982    0.142994    1.224481
      8          6           0       -4.256108    0.973681    1.280684
      9          1           0       -4.024319    1.993445    1.585004
     10          7           0       -5.539556    0.734922    1.018623
     11          6           0       -5.715455   -0.545978    0.654259
     12          6           0       -3.419883   -1.139236    0.854490
     13          7           0       -2.376872   -1.969954    0.797796
     14          1           0       -2.485680   -2.927599    0.528907
     15          1           0       -1.451674   -1.663571    1.022029
     16          1           0       -8.840760   -0.995280    0.904124
     17          1           0       -8.146072    0.434851    0.535064
     18          1           0       -8.598841   -0.583655   -0.656466
     19          7           0       -2.889274    2.056041   -1.578514
     20          6           0       -1.535912    1.982824   -1.352487
     21          6           0       -3.730542    3.247061   -1.345189
     22          7           0        1.425940    3.473242   -0.319120
     23          1           0        2.387431    3.216346   -0.225392
     24          1           0        1.178514    4.407242   -0.060010
     25          7           0       -0.753537    2.978591   -0.883032
     26          6           0        0.508857    2.604956   -0.771843
     27          7           0        0.971713    1.352458   -1.095113
     28          1           0        1.953750    1.155243   -0.978126
     29          6           0        0.184747    0.312465   -1.579845
     30          8           0        0.701730   -0.780784   -1.841159
     31          6           0       -1.173946    0.698793   -1.704684
     32          7           0       -2.277853   -0.019652   -2.143000
     33          6           0       -3.270005    0.823780   -2.050974
     34          1           0       -4.303583    0.597938   -2.315543
     35          1           0       -4.439966    3.030099   -0.675524
     36          1           0       -3.161835    3.991247   -0.997302
     37          1           0       -4.157771    3.528795   -2.203624
     38          1           0        6.808018    0.612351    0.433973
     39          1           0        7.119313    0.875935   -1.280160
     40          1           0        5.735096    1.648997   -0.507076
     41          1           0        5.720099   -3.726847   -1.336434
     42          6           0        5.280843   -2.731900   -1.263211
     43          8           0        3.083121   -3.463577   -1.774834
     44          6           0        3.877967   -2.567254   -1.492664
     45          1           0        2.438920   -1.112598   -1.530315
     46          7           0        3.424975   -1.268695   -1.375249
     47          8           0        3.677236    0.954644   -0.987558
     48          6           0        4.169332   -0.157035   -1.069134
     49          1           0        7.104201   -1.738401   -0.779312
     50          6           0        6.032970   -1.666684   -0.962818
     51          6           0        6.349066    0.760994   -0.532117
     52          7           0        5.513479   -0.396922   -0.861920
     53          1           0        3.834892    3.107888    3.288815
     54          1           0        2.706337    3.333591    2.132293
     55          1           0        4.280544    3.201873    1.721662
     56          1           0        0.972448   -3.421963    1.231396
     57          1           0        2.600632   -3.235459    1.705024
     58          7           0        1.722936   -2.810125    1.481513
     59          6           0        1.561558   -1.485753    1.515775
     60          6           0        2.264323    0.762638    1.851305
     61          7           0        1.074332    1.306047    1.546249
     62          1           0       -0.802986    0.712345    0.977241
     63          6           0        0.192796    0.356792    1.238508
     64          7           0        0.352503   -0.970181    1.203612
     65          1           0        5.374709    0.688724    2.730085
     66          6           0        4.356402    0.444545    2.426150
     67          7           0        3.909772   -0.771217    2.225801
     68          6           0        2.584496   -0.583811    1.860793
     69          6           0        3.571457    2.883029    2.350708
     70          7           0        3.413873    1.421710    2.217588
 ---------------------------------------------------------------------
 Rotational constants (GHZ):           0.1645428           0.0501782           0.0466474
 Leave Link  202 at Sun Jan 21 20:54:25 2018, MaxMem=  4294967296 cpu:               0.3 elap:               0.0
 (Enter /share/apps/g16/l301.exe)
 Standard basis: CC-pVDZ (5D, 7F)
 Ernie: Thresh=  0.10000D-02 Tol=  0.10000D-05 Strict=F.
 Ernie:  86 primitive shells out of 1081 were deleted.
 There are   780 symmetry adapted cartesian basis functions of A   symmetry.
 There are   737 symmetry adapted basis functions of A   symmetry.
   737 basis functions,  1608 primitive gaussians,   780 cartesian basis functions
   154 alpha electrons      154 beta electrons
       nuclear repulsion energy      5512.8321221108 Hartrees.
 IExCor= 4639 DFT=T Ex+Corr=wB97XD ExCW=0 ScaHFX=  1.000000
 ScaDFX=  1.000000  1.000000  1.000000  1.000000 ScalE2=  1.000000  1.000000
 IRadAn=      5 IRanWt=     -1 IRanGd=            0 ICorTp=0 IEmpDi=121
 HFx  wShort=  0.000000 wLong=  0.200000 cFull=  0.222036 cShort=  0.000000 cLong=  0.777964
 DFx  wShort=  0.000000 wLong=  0.200000 cFull=  0.000000 cShort=  0.000000 cLong=  1.000000
 NAtoms=   70 NActive=   70 NUniq=   70 SFac= 1.00D+00 NAtFMM=   60 NAOKFM=T Big=T
 Integral buffers will be    131072 words long.
 Raffenetti 2 integral format.
 Two-electron integral symmetry is turned on.
 R6Disp:  Grimme-D2 Dispersion energy=       -0.0736319336 Hartrees.
 Nuclear repulsion after empirical dispersion term =     5512.7584901771 Hartrees.
 Leave Link  301 at Sun Jan 21 20:54:25 2018, MaxMem=  4294967296 cpu:               2.1 elap:               0.1
 (Enter /share/apps/g16/l302.exe)
 NPDir=0 NMtPBC=     1 NCelOv=     1 NCel=       1 NClECP=     1 NCelD=      1
         NCelK=      1 NCelE2=     1 NClLst=     1 CellRange=     0.0.
 One-electron integrals computed using PRISM.
 One-electron integral symmetry used in STVInt
 NBasis=   737 RedAO= T EigKep=  7.05D-04  NBF=   737
 NBsUse=   737 1.00D-06 EigRej= -1.00D+00 NBFU=   737
 Precomputing XC quadrature grid using
 IXCGrd= 4 IRadAn=           5 IRanWt=          -1 IRanGd=           0 AccXCQ= 0.00D+00.
 Generated NRdTot=       0 NPtTot=           0 NUsed=           0 NTot=          32
 NSgBfM=   763   763   763   763   763 MxSgAt=    70 MxSgA2=    70.
 Leave Link  302 at Sun Jan 21 20:54:29 2018, MaxMem=  4294967296 cpu:             134.2 elap:               4.2
 (Enter /share/apps/g16/l303.exe)
 DipDrv:  MaxL=1.
 Leave Link  303 at Sun Jan 21 20:54:29 2018, MaxMem=  4294967296 cpu:              12.9 elap:               0.5
 (Enter /share/apps/g16/l401.exe)
 ExpMin= 1.22D-01 ExpMax= 1.17D+04 ExpMxC= 4.01D+02 IAcc=3 IRadAn=         5 AccDes= 0.00D+00
 Harris functional with IExCor= 4639 and IRadAn=       5 diagonalized for initial guess.
 HarFok:  IExCor= 4639 AccDes= 0.00D+00 IRadAn=         5 IDoV= 1 UseB2=F ITyADJ=14
 ICtDFT=  3500011 ScaDFX=  1.000000  1.000000  1.000000  1.000000
 FoFCou: FMM=F IPFlag=           0 FMFlag=      100000 FMFlg1=        2001
         NFxFlg=           0 DoJE=T BraDBF=F KetDBF=T FulRan=T
         wScrn=  0.000000 ICntrl=       500 IOpCl=  0 I1Cent=   200000004 NGrid=           0
         NMat0=    1 NMatS0=      1 NMatT0=    0 NMatD0=    1 NMtDS0=    0 NMtDT0=    0
 Petite list used in FoFCou.
 Harris En= -1963.87069046928    
 JPrj=0 DoOrth=F DoCkMO=F.
 Leave Link  401 at Sun Jan 21 20:54:42 2018, MaxMem=  4294967296 cpu:             402.5 elap:              12.8
 (Enter /share/apps/g16/l502.exe)
 Integral symmetry usage will be decided dynamically.
 Closed shell SCF:
 Using DIIS extrapolation, IDIIS=  1040.
 NGot=  4294967296 LenX=  4293717438 LenY=  4293108258
 Requested convergence on RMS density matrix=1.00D-08 within  20 cycles.
 Requested convergence on MAX density matrix=1.00D-06.
 Requested convergence on             energy=1.00D-06.
 No special actions if energy rises.
 Fock matrices will be formed incrementally for  20 cycles.
 Integral accuracy reduced to 1.0D-05 until final iterations.

 Cycle   1  Pass 0  IDiag  1:
 FoFJK:  IHMeth= 1 ICntrl=       0 DoSepK=T KAlg= 0 I1Cent=           0 FoldK=F
 IRaf=         1 NMat=       1 IRICut=       1 DoRegI=T DoRafI=F ISym2E= 0 IDoP0=0 IntGTp=1.
 FoFCou: FMM=T IPFlag=           0 FMFlag=      100000 FMFlg1=        2001
         NFxFlg=           0 DoJE=T BraDBF=F KetDBF=F FulRan=T
         wScrn=  0.000000 ICntrl=       500 IOpCl=  0 I1Cent=           0 NGrid=           0
         NMat0=    1 NMatS0=      1 NMatT0=    0 NMatD0=    1 NMtDS0=    0 NMtDT0=    0
 Symmetry not used in FoFCou.
 FMM levels:  10  Number of levels for PrismC:   9
 E= -2048.30669192324    
 DIIS: error= 2.47D-02 at cycle   1 NSaved=   1.
 NSaved= 1 IEnMin= 1 EnMin= -2048.30669192324     IErMin= 1 ErrMin= 2.47D-02
 ErrMax= 2.47D-02  0.00D+00 EMaxC= 1.00D-01 BMatC= 8.30D-01 BMatP= 8.30D-01
 IDIUse=3 WtCom= 7.53D-01 WtEn= 2.47D-01
 Coeff-Com:  0.100D+01
 Coeff-En:   0.100D+01
 Coeff:      0.100D+01
 Gap=     0.255 Goal=   None    Shift=    0.000
 GapD=    0.255 DampG=1.000 DampE=0.500 DampFc=0.5000 IDamp=-1.
 Damping current iteration by 5.00D-01
 RMSDP=1.58D-03 MaxDP=1.30D-01              OVMax= 1.98D-01

 Cycle   2  Pass 0  IDiag  1:
 RMSU=  7.87D-04    CP:  9.97D-01
 E= -2048.50271651730     Delta-E=       -0.196024594065 Rises=F Damp=T
 DIIS: error= 1.35D-02 at cycle   2 NSaved=   2.
 NSaved= 2 IEnMin= 2 EnMin= -2048.50271651730     IErMin= 2 ErrMin= 1.35D-02
 ErrMax= 1.35D-02  0.00D+00 EMaxC= 1.00D-01 BMatC= 1.45D-01 BMatP= 8.30D-01
 IDIUse=3 WtCom= 8.65D-01 WtEn= 1.35D-01
 Coeff-Com: -0.197D+00 0.120D+01
 Coeff-En:   0.000D+00 0.100D+01
 Coeff:     -0.170D+00 0.117D+01
 Gap=     0.364 Goal=   None    Shift=    0.000
 RMSDP=5.93D-04 MaxDP=3.34D-02 DE=-1.96D-01 OVMax= 1.57D-01

 Cycle   3  Pass 0  IDiag  1:
 RMSU=  5.82D-04    CP:  9.94D-01  1.13D+00
 E= -2048.68182313474     Delta-E=       -0.179106617445 Rises=F Damp=F
 DIIS: error= 6.74D-03 at cycle   3 NSaved=   3.
 NSaved= 3 IEnMin= 3 EnMin= -2048.68182313474     IErMin= 3 ErrMin= 6.74D-03
 ErrMax= 6.74D-03  0.00D+00 EMaxC= 1.00D-01 BMatC= 6.23D-02 BMatP= 1.45D-01
 IDIUse=3 WtCom= 9.33D-01 WtEn= 6.74D-02
 Coeff-Com: -0.231D+00 0.547D+00 0.684D+00
 Coeff-En:   0.000D+00 0.000D+00 0.100D+01
 Coeff:     -0.216D+00 0.510D+00 0.705D+00
 Gap=     0.280 Goal=   None    Shift=    0.000
 RMSDP=3.58D-04 MaxDP=3.27D-02 DE=-1.79D-01 OVMax= 5.91D-02

 Cycle   4  Pass 0  IDiag  1:
 RMSU=  2.03D-04    CP:  9.94D-01  1.41D+00  6.71D-01
 E= -2048.72955990117     Delta-E=       -0.047736766430 Rises=F Damp=F
 DIIS: error= 2.54D-03 at cycle   4 NSaved=   4.
 NSaved= 4 IEnMin= 4 EnMin= -2048.72955990117     IErMin= 4 ErrMin= 2.54D-03
 ErrMax= 2.54D-03  0.00D+00 EMaxC= 1.00D-01 BMatC= 8.71D-03 BMatP= 6.23D-02
 IDIUse=3 WtCom= 9.75D-01 WtEn= 2.54D-02
 Coeff-Com: -0.965D-01 0.187D+00 0.376D+00 0.533D+00
 Coeff-En:   0.000D+00 0.000D+00 0.572D-01 0.943D+00
 Coeff:     -0.940D-01 0.182D+00 0.368D+00 0.544D+00
 Gap=     0.285 Goal=   None    Shift=    0.000
 RMSDP=1.27D-04 MaxDP=1.18D-02 DE=-4.77D-02 OVMax= 1.33D-02

 Cycle   5  Pass 0  IDiag  1:
 RMSU=  6.13D-05    CP:  9.93D-01  1.39D+00  8.04D-01  6.18D-01
 E= -2048.73683945491     Delta-E=       -0.007279553736 Rises=F Damp=F
 DIIS: error= 6.20D-04 at cycle   5 NSaved=   5.
 NSaved= 5 IEnMin= 5 EnMin= -2048.73683945491     IErMin= 5 ErrMin= 6.20D-04
 ErrMax= 6.20D-04  0.00D+00 EMaxC= 1.00D-01 BMatC= 2.82D-04 BMatP= 8.71D-03
 IDIUse=3 WtCom= 9.94D-01 WtEn= 6.20D-03
 Coeff-Com: -0.247D-01 0.423D-01 0.119D+00 0.237D+00 0.626D+00
 Coeff-En:   0.000D+00 0.000D+00 0.000D+00 0.000D+00 0.100D+01
 Coeff:     -0.245D-01 0.420D-01 0.118D+00 0.236D+00 0.628D+00
 Gap=     0.286 Goal=   None    Shift=    0.000
 RMSDP=2.63D-05 MaxDP=1.90D-03 DE=-7.28D-03 OVMax= 3.14D-03

 Failed to achieve initial convergence to 1.0D-08 in  6 cycles.
 Switch to full accuracy anyway.
 Cycle   6  Pass 1  IDiag  1:
 E= -2048.73708870378     Delta-E=       -0.000249248872 Rises=F Damp=F
 DIIS: error= 2.24D-04 at cycle   1 NSaved=   1.
 NSaved= 1 IEnMin= 1 EnMin= -2048.73708870378     IErMin= 1 ErrMin= 2.24D-04
 ErrMax= 2.24D-04  0.00D+00 EMaxC= 1.00D-01 BMatC= 7.08D-05 BMatP= 7.08D-05
 IDIUse=3 WtCom= 9.98D-01 WtEn= 2.24D-03
 Coeff-Com:  0.100D+01
 Coeff-En:   0.100D+01
 Coeff:      0.100D+01
 Gap=     0.285 Goal=   None    Shift=    0.000
 RMSDP=2.63D-05 MaxDP=1.90D-03 DE=-2.49D-04 OVMax= 2.66D-03

 Cycle   7  Pass 1  IDiag  1:
 RMSU=  1.05D-04    CP:  1.00D+00
 E= -2048.73713904692     Delta-E=       -0.000050343139 Rises=F Damp=F
 DIIS: error= 2.49D-04 at cycle   2 NSaved=   2.
 NSaved= 2 IEnMin= 2 EnMin= -2048.73713904692     IErMin= 1 ErrMin= 2.24D-04
 ErrMax= 2.49D-04  0.00D+00 EMaxC= 1.00D-01 BMatC= 4.34D-05 BMatP= 7.08D-05
 IDIUse=3 WtCom= 9.98D-01 WtEn= 2.49D-03
 Coeff-Com:  0.418D+00 0.582D+00
 Coeff-En:   0.000D+00 0.100D+01
 Coeff:      0.417D+00 0.583D+00
 Gap=     0.286 Goal=   None    Shift=    0.000
 RMSDP=1.13D-05 MaxDP=1.06D-03 DE=-5.03D-05 OVMax= 1.47D-03

 Cycle   8  Pass 1  IDiag  1:
 RMSU=  1.11D-05    CP:  1.00D+00  1.02D+00
 E= -2048.73717124101     Delta-E=       -0.000032194087 Rises=F Damp=F
 DIIS: error= 8.59D-05 at cycle   3 NSaved=   3.
 NSaved= 3 IEnMin= 3 EnMin= -2048.73717124101     IErMin= 3 ErrMin= 8.59D-05
 ErrMax= 8.59D-05  0.00D+00 EMaxC= 1.00D-01 BMatC= 9.17D-06 BMatP= 4.34D-05
 IDIUse=1 WtCom= 1.00D+00 WtEn= 0.00D+00
 Coeff-Com: -0.189D-01 0.300D+00 0.719D+00
 Coeff:     -0.189D-01 0.300D+00 0.719D+00
 Gap=     0.286 Goal=   None    Shift=    0.000
 RMSDP=5.54D-06 MaxDP=4.34D-04 DE=-3.22D-05 OVMax= 5.54D-04

 Cycle   9  Pass 1  IDiag  1:
 RMSU=  3.82D-06    CP:  1.00D+00  1.05D+00  7.72D-01
 E= -2048.73718003589     Delta-E=       -0.000008794885 Rises=F Damp=F
 DIIS: error= 3.69D-05 at cycle   4 NSaved=   4.
 NSaved= 4 IEnMin= 4 EnMin= -2048.73718003589     IErMin= 4 ErrMin= 3.69D-05
 ErrMax= 3.69D-05  0.00D+00 EMaxC= 1.00D-01 BMatC= 4.92D-07 BMatP= 9.17D-06
 IDIUse=1 WtCom= 1.00D+00 WtEn= 0.00D+00
 Coeff-Com: -0.323D-01 0.791D-01 0.265D+00 0.689D+00
 Coeff:     -0.323D-01 0.791D-01 0.265D+00 0.689D+00
 Gap=     0.286 Goal=   None    Shift=    0.000
 RMSDP=1.44D-06 MaxDP=1.28D-04 DE=-8.79D-06 OVMax= 5.10D-04

 Cycle  10  Pass 1  IDiag  1:
 RMSU=  1.29D-06    CP:  1.00D+00  1.06D+00  8.06D-01  1.10D+00
 E= -2048.73718087155     Delta-E=       -0.000000835656 Rises=F Damp=F
 DIIS: error= 1.60D-05 at cycle   5 NSaved=   5.
 NSaved= 5 IEnMin= 5 EnMin= -2048.73718087155     IErMin= 5 ErrMin= 1.60D-05
 ErrMax= 1.60D-05  0.00D+00 EMaxC= 1.00D-01 BMatC= 1.17D-07 BMatP= 4.92D-07
 IDIUse=1 WtCom= 1.00D+00 WtEn= 0.00D+00
 Coeff-Com: -0.360D-02-0.543D-01-0.122D+00 0.204D+00 0.975D+00
 Coeff:     -0.360D-02-0.543D-01-0.122D+00 0.204D+00 0.975D+00
 Gap=     0.286 Goal=   None    Shift=    0.000
 RMSDP=1.20D-06 MaxDP=7.49D-05 DE=-8.36D-07 OVMax= 2.47D-04

 Cycle  11  Pass 1  IDiag  1:
 RMSU=  4.90D-07    CP:  1.00D+00  1.06D+00  8.15D-01  1.38D+00  1.17D+00
 E= -2048.73718112352     Delta-E=       -0.000000251975 Rises=F Damp=F
 DIIS: error= 8.73D-06 at cycle   6 NSaved=   6.
 NSaved= 6 IEnMin= 6 EnMin= -2048.73718112352     IErMin= 6 ErrMin= 8.73D-06
 ErrMax= 8.73D-06  0.00D+00 EMaxC= 1.00D-01 BMatC= 2.77D-08 BMatP= 1.17D-07
 IDIUse=1 WtCom= 1.00D+00 WtEn= 0.00D+00
 Coeff-Com:  0.460D-02-0.428D-01-0.115D+00-0.153D-02 0.521D+00 0.633D+00
 Coeff:      0.460D-02-0.428D-01-0.115D+00-0.153D-02 0.521D+00 0.633D+00
 Gap=     0.286 Goal=   None    Shift=    0.000
 RMSDP=3.56D-07 MaxDP=3.57D-05 DE=-2.52D-07 OVMax= 1.28D-04

 Cycle  12  Pass 1  IDiag  1:
 RMSU=  1.78D-07    CP:  1.00D+00  1.06D+00  8.17D-01  1.45D+00  1.30D+00
                    CP:  9.30D-01
 E= -2048.73718116347     Delta-E=       -0.000000039947 Rises=F Damp=F
 DIIS: error= 1.39D-06 at cycle   7 NSaved=   7.
 NSaved= 7 IEnMin= 7 EnMin= -2048.73718116347     IErMin= 7 ErrMin= 1.39D-06
 ErrMax= 1.39D-06  0.00D+00 EMaxC= 1.00D-01 BMatC= 7.04D-10 BMatP= 2.77D-08
 IDIUse=1 WtCom= 1.00D+00 WtEn= 0.00D+00
 Coeff-Com:  0.103D-02-0.608D-02-0.178D-01-0.830D-02 0.470D-01 0.124D+00
 Coeff-Com:  0.860D+00
 Coeff:      0.103D-02-0.608D-02-0.178D-01-0.830D-02 0.470D-01 0.124D+00
 Coeff:      0.860D+00
 Gap=     0.286 Goal=   None    Shift=    0.000
 RMSDP=8.40D-08 MaxDP=5.09D-06 DE=-3.99D-08 OVMax= 2.29D-05

 Cycle  13  Pass 1  IDiag  1:
 RMSU=  4.89D-08    CP:  1.00D+00  1.06D+00  8.16D-01  1.46D+00  1.32D+00
                    CP:  1.02D+00  1.15D+00
 E= -2048.73718116517     Delta-E=       -0.000000001699 Rises=F Damp=F
 DIIS: error= 5.08D-07 at cycle   8 NSaved=   8.
 NSaved= 8 IEnMin= 8 EnMin= -2048.73718116517     IErMin= 8 ErrMin= 5.08D-07
 ErrMax= 5.08D-07  0.00D+00 EMaxC= 1.00D-01 BMatC= 2.80D-10 BMatP= 7.04D-10
 IDIUse=1 WtCom= 1.00D+00 WtEn= 0.00D+00
 Coeff-Com: -0.707D-03 0.831D-02 0.213D-01-0.188D-02-0.112D+00-0.101D+00
 Coeff-Com:  0.417D+00 0.769D+00
 Coeff:     -0.707D-03 0.831D-02 0.213D-01-0.188D-02-0.112D+00-0.101D+00
 Coeff:      0.417D+00 0.769D+00
 Gap=     0.286 Goal=   None    Shift=    0.000
 RMSDP=4.35D-08 MaxDP=2.48D-06 DE=-1.70D-09 OVMax= 1.05D-05

 Cycle  14  Pass 1  IDiag  1:
 RMSU=  2.57D-08    CP:  1.00D+00  1.06D+00  8.16D-01  1.46D+00  1.32D+00
                    CP:  1.06D+00  1.29D+00  1.09D+00
 E= -2048.73718116587     Delta-E=       -0.000000000698 Rises=F Damp=F
 DIIS: error= 1.77D-07 at cycle   9 NSaved=   9.
 NSaved= 9 IEnMin= 9 EnMin= -2048.73718116587     IErMin= 9 ErrMin= 1.77D-07
 ErrMax= 1.77D-07  0.00D+00 EMaxC= 1.00D-01 BMatC= 2.31D-11 BMatP= 2.80D-10
 IDIUse=1 WtCom= 1.00D+00 WtEn= 0.00D+00
 Coeff-Com: -0.378D-03 0.385D-02 0.101D-01 0.230D-03-0.477D-01-0.521D-01
 Coeff-Com:  0.716D-01 0.278D+00 0.736D+00
 Coeff:     -0.378D-03 0.385D-02 0.101D-01 0.230D-03-0.477D-01-0.521D-01
 Coeff:      0.716D-01 0.278D+00 0.736D+00
 Gap=     0.286 Goal=   None    Shift=    0.000
 RMSDP=1.25D-08 MaxDP=7.58D-07 DE=-6.98D-10 OVMax= 3.30D-06

 Cycle  15  Pass 1  IDiag  1:
 RMSU=  8.37D-09    CP:  1.00D+00  1.06D+00  8.16D-01  1.46D+00  1.32D+00
                    CP:  1.07D+00  1.32D+00  1.22D+00  1.12D+00
 E= -2048.73718116561     Delta-E=        0.000000000262 Rises=F Damp=F
 DIIS: error= 7.48D-08 at cycle  10 NSaved=  10.
 NSaved=10 IEnMin= 9 EnMin= -2048.73718116587     IErMin=10 ErrMin= 7.48D-08
 ErrMax= 7.48D-08  0.00D+00 EMaxC= 1.00D-01 BMatC= 4.43D-12 BMatP= 2.31D-11
 IDIUse=1 WtCom= 1.00D+00 WtEn= 0.00D+00
 Coeff-Com:  0.235D-04-0.490D-03-0.116D-02 0.151D-03 0.775D-02 0.397D-02
 Coeff-Com: -0.589D-01-0.735D-01 0.272D+00 0.850D+00
 Coeff:      0.235D-04-0.490D-03-0.116D-02 0.151D-03 0.775D-02 0.397D-02
 Coeff:     -0.589D-01-0.735D-01 0.272D+00 0.850D+00
 Gap=     0.286 Goal=   None    Shift=    0.000
 RMSDP=6.23D-09 MaxDP=3.64D-07 DE= 2.62D-10 OVMax= 1.27D-06

 SCF Done:  E(RwB97XD) =  -2048.73718117     A.U. after   15 cycles
            NFock= 15  Conv=0.62D-08     -V/T= 2.0054
 KE= 2.037799683463D+03 PE=-1.580631793467D+04 EE= 6.207022579861D+03
 Leave Link  502 at Sun Jan 21 21:06:14 2018, MaxMem=  4294967296 cpu:           21433.2 elap:             692.1
 (Enter /share/apps/g16/l601.exe)
 Copying SCF densities to generalized density rwf, IOpCl= 0 IROHF=0.

 **********************************************************************

            Population analysis using the SCF density.

 **********************************************************************

 Orbital symmetries:
       Occupied  (A) (A) (A) (A) (A) (A) (A) (A) (A) (A) (A) (A)
                 (A) (A) (A) (A) (A) (A) (A) (A) (A) (A) (A) (A)
                 (A) (A) (A) (A) (A) (A) (A) (A) (A) (A) (A) (A)
                 (A) (A) (A) (A) (A) (A) (A) (A) (A) (A) (A) (A)
                 (A) (A) (A) (A) (A) (A) (A) (A) (A) (A) (A) (A)
                 (A) (A) (A) (A) (A) (A) (A) (A) (A) (A) (A) (A)
                 (A) (A) (A) (A) (A) (A) (A) (A) (A) (A) (A) (A)
                 (A) (A) (A) (A) (A) (A) (A) (A) (A) (A) (A) (A)
                 (A) (A) (A) (A) (A) (A) (A) (A) (A) (A) (A) (A)
                 (A) (A) (A) (A) (A) (A) (A) (A) (A) (A) (A) (A)
                 (A) (A) (A) (A) (A) (A) (A) (A) (A) (A) (A) (A)
                 (A) (A) (A) (A) (A) (A) (A) (A) (A) (A) (A) (A)
                 (A) (A) (A) (A) (A) (A) (A) (A) (A) (A)
       Virtual   (A) (A) (A) (A) (A) (A) (A) (A) (A) (A) (A) (A)
                 (A) (A) (A) (A) (A) (A) (A) (A) (A) (A) (A) (A)
                 (A) (A) (A) (A) (A) (A) (A) (A) (A) (A) (A) (A)
                 (A) (A) (A) (A) (A) (A) (A) (A) (A) (A) (A) (A)
                 (A) (A) (A) (A) (A) (A) (A) (A) (A) (A) (A) (A)
                 (A) (A) (A) (A) (A) (A) (A) (A) (A) (A) (A) (A)
                 (A) (A) (A) (A) (A) (A) (A) (A) (A) (A) (A) (A)
                 (A) (A) (A) (A) (A) (A) (A) (A) (A) (A) (A) (A)
                 (A) (A) (A) (A) (A) (A) (A) (A) (A) (A) (A) (A)
                 (A) (A) (A) (A) (A) (A) (A) (A) (A) (A) (A) (A)
                 (A) (A) (A) (A) (A) (A) (A) (A) (A) (A) (A) (A)
                 (A) (A) (A) (A) (A) (A) (A) (A) (A) (A) (A) (A)
                 (A) (A) (A) (A) (A) (A) (A) (A) (A) (A) (A) (A)
                 (A) (A) (A) (A) (A) (A) (A) (A) (A) (A) (A) (A)
                 (A) (A) (A) (A) (A) (A) (A) (A) (A) (A) (A) (A)
                 (A) (A) (A) (A) (A) (A) (A) (A) (A) (A) (A) (A)
                 (A) (A) (A) (A) (A) (A) (A) (A) (A) (A) (A) (A)
                 (A) (A) (A) (A) (A) (A) (A) (A) (A) (A) (A) (A)
                 (A) (A) (A) (A) (A) (A) (A) (A) (A) (A) (A) (A)
                 (A) (A) (A) (A) (A) (A) (A) (A) (A) (A) (A) (A)
                 (A) (A) (A) (A) (A) (A) (A) (A) (A) (A) (A) (A)
                 (A) (A) (A) (A) (A) (A) (A) (A) (A) (A) (A) (A)
                 (A) (A) (A) (A) (A) (A) (A) (A) (A) (A) (A) (A)
                 (A) (A) (A) (A) (A) (A) (A) (A) (A) (A) (A) (A)
                 (A) (A) (A) (A) (A) (A) (A) (A) (A) (A) (A) (A)
                 (A) (A) (A) (A) (A) (A) (A) (A) (A) (A) (A) (A)
                 (A) (A) (A) (A) (A) (A) (A) (A) (A) (A) (A) (A)
                 (A) (A) (A) (A) (A) (A) (A) (A) (A) (A) (A) (A)
                 (A) (A) (A) (A) (A) (A) (A) (A) (A) (A) (A) (A)
                 (A) (A) (A) (A) (A) (A) (A) (A) (A) (A) (A) (A)
                 (A) (A) (A) (A) (A) (A) (A) (A) (A) (A) (A) (A)
                 (A) (A) (A) (A) (A) (A) (A) (A) (A) (A) (A) (A)
                 (A) (A) (A) (A) (A) (A) (A) (A) (A) (A) (A) (A)
                 (A) (A) (A) (A) (A) (A) (A) (A) (A) (A) (A) (A)
                 (A) (A) (A) (A) (A) (A) (A) (A) (A) (A) (A) (A)
                 (A) (A) (A) (A) (A) (A) (A) (A) (A) (A) (A) (A)
                 (A) (A) (A) (A) (A) (A) (A) (A) (A) (A) (A) (A)
                 (A) (A) (A) (A) (A) (A) (A) (A) (A) (A) (A) (A)
                 (A) (A) (A) (A) (A) (A) (A) (A) (A) (A) (A) (A)
                 (A) (A) (A) (A) (A) (A) (A) (A) (A) (A) (A) (A)
                 (A) (A) (A) (A) (A) (A) (A) (A) (A) (A) (A) (A)
                 (A) (A) (A) (A) (A) (A) (A) (A) (A) (A) (A) (A)
                 (A) (A) (A) (A) (A) (A) (A) (A) (A) (A) (A) (A)
                 (A) (A) (A) (A) (A) (A) (A) (A) (A) (A) (A) (A)
                 (A) (A) (A) (A) (A) (A) (A) (A) (A) (A) (A) (A)
                 (A) (A) (A) (A) (A) (A) (A) (A) (A) (A) (A) (A)
                 (A) (A) (A) (A) (A) (A) (A) (A) (A) (A) (A) (A)
                 (A) (A) (A) (A) (A) (A) (A) (A) (A) (A) (A) (A)
                 (A) (A) (A) (A) (A) (A) (A)
 The electronic state is 1-A.
 Alpha  occ. eigenvalues --  -19.26012 -19.21970 -19.20554 -14.52452 -14.51546
 Alpha  occ. eigenvalues --  -14.49562 -14.48509 -14.47881 -14.46779 -14.46553
 Alpha  occ. eigenvalues --  -14.46548 -14.44570 -14.43076 -14.42817 -14.42687
 Alpha  occ. eigenvalues --  -14.42201 -14.42024 -14.41835 -14.40896 -14.40668
 Alpha  occ. eigenvalues --  -10.45570 -10.41052 -10.40083 -10.38671 -10.38131
 Alpha  occ. eigenvalues --  -10.37699 -10.37175 -10.36166 -10.36085 -10.35691
 Alpha  occ. eigenvalues --  -10.34849 -10.34606 -10.34237 -10.34203 -10.33919
 Alpha  occ. eigenvalues --  -10.33683 -10.33099 -10.31630 -10.31510 -10.30988
 Alpha  occ. eigenvalues --  -10.30360 -10.29357 -10.28025  -1.19544  -1.14251
 Alpha  occ. eigenvalues --   -1.13166  -1.13004  -1.12157  -1.10429  -1.09349
 Alpha  occ. eigenvalues --   -1.08506  -1.07995  -1.05765  -1.03575  -1.02511
 Alpha  occ. eigenvalues --   -1.01191  -1.00111  -0.99665  -0.98447  -0.97711
 Alpha  occ. eigenvalues --   -0.96371  -0.95610  -0.93406  -0.91007  -0.86759
 Alpha  occ. eigenvalues --   -0.85273  -0.84721  -0.83965  -0.83852  -0.83053
 Alpha  occ. eigenvalues --   -0.82201  -0.78856  -0.76021  -0.74538  -0.73754
 Alpha  occ. eigenvalues --   -0.73662  -0.73543  -0.73372  -0.71865  -0.69431
 Alpha  occ. eigenvalues --   -0.67312  -0.67050  -0.66558  -0.65765  -0.64442
 Alpha  occ. eigenvalues --   -0.63658  -0.63535  -0.63204  -0.62654  -0.61655
 Alpha  occ. eigenvalues --   -0.60908  -0.60254  -0.59614  -0.59486  -0.58932
 Alpha  occ. eigenvalues --   -0.58663  -0.58244  -0.57266  -0.57152  -0.56625
 Alpha  occ. eigenvalues --   -0.56049  -0.55964  -0.54988  -0.54569  -0.54372
 Alpha  occ. eigenvalues --   -0.53692  -0.53523  -0.52934  -0.52764  -0.52675
 Alpha  occ. eigenvalues --   -0.52444  -0.52295  -0.51851  -0.51500  -0.50902
 Alpha  occ. eigenvalues --   -0.50016  -0.49802  -0.49446  -0.48971  -0.48663
 Alpha  occ. eigenvalues --   -0.48625  -0.48163  -0.47913  -0.47678  -0.47629
 Alpha  occ. eigenvalues --   -0.47339  -0.45672  -0.45470  -0.43967  -0.43227
 Alpha  occ. eigenvalues --   -0.41984  -0.39878  -0.39554  -0.37993  -0.37293
 Alpha  occ. eigenvalues --   -0.37189  -0.36844  -0.36299  -0.35669  -0.34442
 Alpha  occ. eigenvalues --   -0.34317  -0.34233  -0.33299  -0.33164  -0.32882
 Alpha  occ. eigenvalues --   -0.32591  -0.32189  -0.31936  -0.31789  -0.31633
 Alpha  occ. eigenvalues --   -0.31129  -0.28448  -0.26583  -0.25368
 Alpha virt. eigenvalues --    0.03192   0.04777   0.07204   0.08052   0.08689
 Alpha virt. eigenvalues --    0.09137   0.09612   0.10099   0.10965   0.11689
 Alpha virt. eigenvalues --    0.12911   0.13442   0.14387   0.14664   0.14883
 Alpha virt. eigenvalues --    0.15910   0.16158   0.17153   0.17309   0.18297
 Alpha virt. eigenvalues --    0.18697   0.19074   0.19549   0.19885   0.20352
 Alpha virt. eigenvalues --    0.20672   0.21212   0.21712   0.22036   0.22079
 Alpha virt. eigenvalues --    0.23195   0.23340   0.23456   0.23563   0.23789
 Alpha virt. eigenvalues --    0.23924   0.24261   0.25008   0.25495   0.25798
 Alpha virt. eigenvalues --    0.26305   0.26635   0.26862   0.27133   0.28131
 Alpha virt. eigenvalues --    0.28292   0.29242   0.29627   0.30617   0.30665
 Alpha virt. eigenvalues --    0.31321   0.32584   0.32846   0.33387   0.33601
 Alpha virt. eigenvalues --    0.33683   0.35000   0.35182   0.35833   0.36563
 Alpha virt. eigenvalues --    0.36848   0.37614   0.38145   0.39289   0.39685
 Alpha virt. eigenvalues --    0.40079   0.40933   0.41318   0.41405   0.41878
 Alpha virt. eigenvalues --    0.42301   0.42622   0.43260   0.43736   0.44560
 Alpha virt. eigenvalues --    0.45155   0.45487   0.45902   0.46091   0.47209
 Alpha virt. eigenvalues --    0.47729   0.48264   0.49074   0.49210   0.49636
 Alpha virt. eigenvalues --    0.49979   0.50289   0.50500   0.51034   0.51174
 Alpha virt. eigenvalues --    0.51567   0.52277   0.52788   0.53172   0.53967
 Alpha virt. eigenvalues --    0.54186   0.54608   0.54721   0.55086   0.55553
 Alpha virt. eigenvalues --    0.55916   0.56390   0.56784   0.57148   0.57400
 Alpha virt. eigenvalues --    0.57952   0.58361   0.59039   0.59565   0.59745
 Alpha virt. eigenvalues --    0.60372   0.60764   0.60866   0.61273   0.61584
 Alpha virt. eigenvalues --    0.61954   0.62116   0.62837   0.63392   0.63683
 Alpha virt. eigenvalues --    0.64072   0.64824   0.64877   0.65196   0.65351
 Alpha virt. eigenvalues --    0.65751   0.65937   0.66598   0.66919   0.67717
 Alpha virt. eigenvalues --    0.67817   0.68567   0.68679   0.68894   0.70043
 Alpha virt. eigenvalues --    0.70548   0.70914   0.71553   0.71749   0.72158
 Alpha virt. eigenvalues --    0.72432   0.73178   0.73586   0.73728   0.74082
 Alpha virt. eigenvalues --    0.74307   0.74454   0.74736   0.75176   0.75339
 Alpha virt. eigenvalues --    0.75803   0.76187   0.76455   0.76738   0.77109
 Alpha virt. eigenvalues --    0.77421   0.77770   0.78249   0.78641   0.78837
 Alpha virt. eigenvalues --    0.79304   0.79615   0.79897   0.80718   0.81086
 Alpha virt. eigenvalues --    0.81343   0.81862   0.82782   0.82959   0.83061
 Alpha virt. eigenvalues --    0.83390   0.84258   0.84745   0.84914   0.85225
 Alpha virt. eigenvalues --    0.85876   0.86116   0.86925   0.87051   0.87655
 Alpha virt. eigenvalues --    0.88313   0.88444   0.88588   0.89045   0.89198
 Alpha virt. eigenvalues --    0.90553   0.90672   0.91583   0.91750   0.92467
 Alpha virt. eigenvalues --    0.92996   0.93032   0.93684   0.94248   0.95019
 Alpha virt. eigenvalues --    0.95241   0.95361   0.95869   0.96655   0.96918
 Alpha virt. eigenvalues --    0.97083   0.97736   0.98100   0.98600   0.98917
 Alpha virt. eigenvalues --    0.99787   1.00344   1.00823   1.01287   1.01706
 Alpha virt. eigenvalues --    1.02078   1.02414   1.02784   1.03518   1.03580
 Alpha virt. eigenvalues --    1.03947   1.04360   1.04827   1.05535   1.05841
 Alpha virt. eigenvalues --    1.06239   1.06649   1.07086   1.07436   1.08408
 Alpha virt. eigenvalues --    1.08840   1.09353   1.10126   1.11109   1.11354
 Alpha virt. eigenvalues --    1.12311   1.12806   1.13374   1.13689   1.13911
 Alpha virt. eigenvalues --    1.14071   1.14457   1.14514   1.15018   1.15757
 Alpha virt. eigenvalues --    1.15999   1.16400   1.17203   1.17657   1.18100
 Alpha virt. eigenvalues --    1.18697   1.19260   1.19503   1.20027   1.20115
 Alpha virt. eigenvalues --    1.20918   1.20963   1.21308   1.21749   1.21986
 Alpha virt. eigenvalues --    1.22233   1.22582   1.22701   1.23119   1.23560
 Alpha virt. eigenvalues --    1.24348   1.24969   1.25077   1.25804   1.26269
 Alpha virt. eigenvalues --    1.26735   1.27022   1.28094   1.28186   1.29069
 Alpha virt. eigenvalues --    1.29655   1.30036   1.30682   1.31316   1.31850
 Alpha virt. eigenvalues --    1.32285   1.33494   1.33707   1.34705   1.34948
 Alpha virt. eigenvalues --    1.35387   1.35674   1.36709   1.37174   1.37760
 Alpha virt. eigenvalues --    1.38140   1.38877   1.39839   1.40145   1.40861
 Alpha virt. eigenvalues --    1.41347   1.42895   1.43737   1.44882   1.45252
 Alpha virt. eigenvalues --    1.45741   1.47328   1.47858   1.48229   1.48497
 Alpha virt. eigenvalues --    1.48776   1.49741   1.50065   1.50559   1.50918
 Alpha virt. eigenvalues --    1.52436   1.52528   1.53700   1.53836   1.54664
 Alpha virt. eigenvalues --    1.55030   1.55468   1.56879   1.57172   1.57970
 Alpha virt. eigenvalues --    1.58829   1.59269   1.59804   1.60392   1.61808
 Alpha virt. eigenvalues --    1.62513   1.62835   1.63054   1.63909   1.64363
 Alpha virt. eigenvalues --    1.65046   1.66022   1.66497   1.66833   1.67374
 Alpha virt. eigenvalues --    1.67564   1.68086   1.68373   1.69143   1.69795
 Alpha virt. eigenvalues --    1.70065   1.70879   1.71078   1.71433   1.72062
 Alpha virt. eigenvalues --    1.72433   1.72618   1.73209   1.73341   1.73700
 Alpha virt. eigenvalues --    1.74337   1.74545   1.74770   1.75287   1.75755
 Alpha virt. eigenvalues --    1.76122   1.76511   1.76756   1.77428   1.77596
 Alpha virt. eigenvalues --    1.78034   1.78401   1.79049   1.79249   1.79484
 Alpha virt. eigenvalues --    1.79668   1.79850   1.80212   1.80532   1.80637
 Alpha virt. eigenvalues --    1.80844   1.81452   1.81761   1.82389   1.82811
 Alpha virt. eigenvalues --    1.83573   1.83949   1.84389   1.84692   1.85197
 Alpha virt. eigenvalues --    1.85353   1.85856   1.86700   1.86966   1.87613
 Alpha virt. eigenvalues --    1.88203   1.88383   1.88647   1.88967   1.89664
 Alpha virt. eigenvalues --    1.90271   1.90531   1.90932   1.91008   1.91670
 Alpha virt. eigenvalues --    1.92033   1.92383   1.92778   1.93280   1.94033
 Alpha virt. eigenvalues --    1.94448   1.95512   1.96444   1.96940   1.97250
 Alpha virt. eigenvalues --    1.98596   1.99723   2.00520   2.01151   2.01307
 Alpha virt. eigenvalues --    2.02352   2.02503   2.03013   2.03639   2.04484
 Alpha virt. eigenvalues --    2.04808   2.05560   2.06646   2.06905   2.07409
 Alpha virt. eigenvalues --    2.07825   2.08399   2.08907   2.09615   2.10148
 Alpha virt. eigenvalues --    2.10637   2.11442   2.11888   2.12328   2.13272
 Alpha virt. eigenvalues --    2.14101   2.15090   2.15767   2.18496   2.18966
 Alpha virt. eigenvalues --    2.19267   2.19749   2.20522   2.21152   2.21681
 Alpha virt. eigenvalues --    2.21815   2.22362   2.22895   2.23450   2.23914
 Alpha virt. eigenvalues --    2.24768   2.25503   2.26017   2.26495   2.26791
 Alpha virt. eigenvalues --    2.27658   2.28703   2.29075   2.29197   2.29972
 Alpha virt. eigenvalues --    2.30271   2.30692   2.31621   2.32349   2.33179
 Alpha virt. eigenvalues --    2.34024   2.34305   2.34393   2.34696   2.34960
 Alpha virt. eigenvalues --    2.35841   2.36513   2.37037   2.37532   2.37761
 Alpha virt. eigenvalues --    2.38196   2.40059   2.40580   2.40922   2.41074
 Alpha virt. eigenvalues --    2.41554   2.42257   2.42886   2.43352   2.44295
 Alpha virt. eigenvalues --    2.45363   2.45595   2.46155   2.46628   2.47603
 Alpha virt. eigenvalues --    2.48593   2.49172   2.49307   2.49996   2.51978
 Alpha virt. eigenvalues --    2.53078   2.54073   2.55051   2.55199   2.56542
 Alpha virt. eigenvalues --    2.56887   2.57492   2.57878   2.58484   2.59847
 Alpha virt. eigenvalues --    2.60783   2.61349   2.61622   2.62322   2.64230
 Alpha virt. eigenvalues --    2.64501   2.64955   2.65625   2.65803   2.67017
 Alpha virt. eigenvalues --    2.67310   2.67639   2.68233   2.68527   2.69324
 Alpha virt. eigenvalues --    2.70401   2.71085   2.71698   2.72247   2.73245
 Alpha virt. eigenvalues --    2.73995   2.74496   2.75007   2.75184   2.76105
 Alpha virt. eigenvalues --    2.78062   2.79021   2.79370   2.79767   2.80103
 Alpha virt. eigenvalues --    2.80570   2.80610   2.81116   2.81598   2.82193
 Alpha virt. eigenvalues --    2.82446   2.83049   2.83317   2.83573   2.84061
 Alpha virt. eigenvalues --    2.85569   2.86181   2.86599   2.87170   2.87305
 Alpha virt. eigenvalues --    2.88078   2.88814   2.89577   2.92040   2.93412
 Alpha virt. eigenvalues --    2.94638   2.96150   2.96913   2.98725   2.99152
 Alpha virt. eigenvalues --    2.99811   3.01781   3.04256   3.04903   3.06407
 Alpha virt. eigenvalues --    3.07316   3.09498   3.10989   3.14026   3.14587
 Alpha virt. eigenvalues --    3.15264   3.15994   3.16547   3.17999   3.20752
 Alpha virt. eigenvalues --    3.22299   3.23204   3.23747   3.24331   3.27421
 Alpha virt. eigenvalues --    3.45831   3.46944   3.48212   3.49956   3.50387
 Alpha virt. eigenvalues --    3.52791   3.54105   3.56633   3.58398   3.60123
 Alpha virt. eigenvalues --    3.63157   3.71281   3.74708
          Condensed to atoms (all electrons):
 Mulliken charges:
               1
     1  N   -0.311589
     2  C    0.180428
     3  C    0.043653
     4  N   -0.257120
     5  C    0.133257
     6  H    0.029008
     7  N   -0.276360
     8  C    0.123511
     9  H    0.018184
    10  N   -0.289996
    11  C    0.230987
    12  C    0.107925
    13  N   -0.047417
    14  H    0.108161
    15  H    0.088301
    16  H    0.027641
    17  H    0.034555
    18  H    0.026426
    19  N   -0.299113
    20  C    0.236973
    21  C    0.179912
    22  N   -0.096030
    23  H    0.106481
    24  H    0.115790
    25  N   -0.292405
    26  C    0.216018
    27  N   -0.116232
    28  H    0.119551
    29  C    0.135504
    30  O   -0.320325
    31  C    0.014200
    32  N   -0.222381
    33  C    0.121073
    34  H    0.027220
    35  H    0.025893
    36  H    0.026195
    37  H    0.022488
    38  H    0.054030
    39  H    0.064569
    40  H    0.071959
    41  H    0.030401
    42  C   -0.108955
    43  O   -0.269737
    44  C    0.176369
    45  H    0.136737
    46  N   -0.133239
    47  O   -0.350422
    48  C    0.355377
    49  H    0.046826
    50  C    0.179088
    51  C    0.036337
    52  N   -0.288919
    53  H    0.034859
    54  H    0.029412
    55  H    0.023381
    56  H    0.121460
    57  H    0.118756
    58  N   -0.060228
    59  C    0.121672
    60  C    0.232124
    61  N   -0.268885
    62  H    0.053240
    63  C    0.156662
    64  N   -0.300717
    65  H    0.028565
    66  C    0.118183
    67  N   -0.255643
    68  C    0.007289
    69  C    0.171695
    70  N   -0.302616
 Sum of Mulliken charges =  -0.00000
 Mulliken charges with hydrogens summed into heavy atoms:
               1
     1  N   -0.311589
     2  C    0.269050
     3  C    0.043653
     4  N   -0.257120
     5  C    0.162266
     7  N   -0.276360
     8  C    0.141696
    10  N   -0.289996
    11  C    0.230987
    12  C    0.107925
    13  N    0.149044
    19  N   -0.299113
    20  C    0.236973
    21  C    0.254488
    22  N    0.126242
    25  N   -0.292405
    26  C    0.216018
    27  N    0.003319
    29  C    0.135504
    30  O   -0.320325
    31  C    0.014200
    32  N   -0.222381
    33  C    0.148293
    42  C   -0.078554
    43  O   -0.269737
    44  C    0.176369
    46  N    0.003498
    47  O   -0.350422
    48  C    0.355377
    50  C    0.225915
    51  C    0.226895
    52  N   -0.288919
    58  N    0.179988
    59  C    0.121672
    60  C    0.232124
    61  N   -0.268885
    63  C    0.209902
    64  N   -0.300717
    66  C    0.146748
    67  N   -0.255643
    68  C    0.007289
    69  C    0.259347
    70  N   -0.302616
 Electronic spatial extent (au):  <R**2>=          23459.2612
 Charge=             -0.0000 electrons
 Dipole moment (field-independent basis, Debye):
    X=              6.1564    Y=              5.9531    Z=              3.4262  Tot=              9.2238
 Quadrupole moment (field-independent basis, Debye-Ang):
   XX=           -140.9195   YY=           -226.4782   ZZ=           -255.4045
   XY=             12.6692   XZ=             14.4374   YZ=             -8.3587
 Traceless Quadrupole moment (field-independent basis, Debye-Ang):
   XX=             66.6812   YY=            -18.8775   ZZ=            -47.8037
   XY=             12.6692   XZ=             14.4374   YZ=             -8.3587
 Octapole moment (field-independent basis, Debye-Ang**2):
  XXX=              0.0325  YYY=             80.4023  ZZZ=             13.1495  XYY=             47.3911
  XXY=             15.2874  XXZ=            -52.7285  XZZ=             22.1474  YZZ=             41.4399
  YYZ=             57.8790  XYZ=             36.9010
 Hexadecapole moment (field-independent basis, Debye-Ang**3):
 XXXX=         -16053.7910 YYYY=          -4634.2135 ZZZZ=          -3162.7694 XXXY=            504.0902
 XXXZ=            182.5267 YYYX=             74.9034 YYYZ=            -91.6057 ZZZX=             68.1493
 ZZZY=             23.2745 XXYY=          -4290.1417 XXZZ=          -4283.1700 YYZZ=          -1364.9856
 XXYZ=             78.8249 YYXZ=            199.3281 ZZXY=             85.5436
 N-N= 5.512758490177D+03 E-N=-1.580631793322D+04  KE= 2.037799683463D+03
 No NMR shielding tensors so no spin-rotation constants.
 Leave Link  601 at Sun Jan 21 21:06:16 2018, MaxMem=  4294967296 cpu:              46.6 elap:               1.6
 (Enter /share/apps/g16/l9999.exe)
 1\1\GINC-COMPUTE-0-3\SP\RwB97XD\CC-pVDZ\C23H27N17O3\SATYA\21-Jan-2018\
 0\\#p wb97xd/cc-pvdz sp scf=(maxcycles=20)\\Base pair stacking\\0,1\N,
 0,5.63963,7.52272,-6.84077\C,0,6.1052,8.92208,-6.89581\C,0,4.37742,5.7
 2592,-6.71561\N,0,5.68548,5.27499,-6.81745\C,0,6.39356,6.37554,-6.8887
 8\H,0,7.47975,6.40922,-6.97826\N,0,2.02775,5.79786,-6.52379\C,0,2.1427
 ,7.12967,-6.54926\H,0,1.20474,7.6788,-6.47895\N,0,3.23721,7.88147,-6.6
 4807\C,0,4.33333,7.10918,-6.72866\C,0,3.14908,5.04899,-6.60673\N,0,3.0
 3637,3.71939,-6.58147\H,0,3.83971,3.12574,-6.6402\H,0,2.1456,3.2716,-6
 .50302\H,0,6.58985,9.07997,-7.75625\H,0,5.31992,9.53789,-6.83883\H,0,6
 .72279,9.10046,-6.12981\N,0,1.56316,6.72309,-3.2761\C,0,0.64263,5.7043
 9,-3.22213\C,0,1.2409,8.16368,-3.31549\N,0,-2.66089,4.63833,-3.11246\H
 ,0,-3.1549,3.7702,-3.07308\H,0,-3.21146,5.47342,-3.12702\N,0,-0.70013,
 5.84713,-3.19624\C,0,-1.32036,4.6817,-3.14434\N,0,-0.67672,3.46819,-3.
 11962\H,0,-1.23217,2.62744,-3.07972\C,0,0.70389,3.29756,-3.14547\O,0,1
 .18408,2.15761,-3.11941\C,0,1.38378,4.54075,-3.20124\N,0,2.74227,4.823
 23,-3.24129\C,0,2.80043,6.12666,-3.28488\H,0,3.72346,6.70607,-3.32466\
 H,0,1.60765,8.56618,-4.15352\H,0,0.24895,8.28179,-3.29677\H,0,1.64472,
 8.61907,-2.5228\H,0,-4.56566,-1.18546,-3.52951\H,0,-4.32455,-1.32545,-
 1.78971\H,0,-4.209,0.25173,-2.57105\H,0,-0.33595,-3.47484,-3.40766\C,0
 ,-0.73392,-2.46919,-3.27159\O,0,1.377,-1.40701,-3.47867\C,0,0.15971,-1
 .35201,-3.30554\H,0,0.15263,0.68784,-3.14043\N,0,-0.44648,-0.12547,-3.
 12284\O,0,-2.22578,1.23989,-2.76639\C,0,-1.78206,0.11532,-2.91837\H,0,
 -2.76291,-3.08177,-3.03969\C,0,-2.04174,-2.26624,-3.07402\C,0,-4.01389
 ,-0.80445,-2.68308\N,0,-2.57927,-1.01219,-2.89861\H,0,-5.30294,2.84197
 ,-6.06989\H,0,-4.29436,3.75067,-5.16482\H,0,-5.09066,2.49631,-4.48911\
 H,0,1.64605,0.3187,-6.71033\H,0,0.28364,-0.7071,-6.75112\N,0,0.658,0.2
 0873,-6.6017\C,0,-0.12642,1.23699,-6.27224\C,0,-2.19883,2.2901,-5.7645
 \N,0,-1.66849,3.50884,-5.56997\H,0,0.16166,4.43032,-5.61469\C,0,-0.350
 03,3.47891,-5.75344\N,0,0.43744,2.45004,-6.08344\H,0,-4.50694,0.03363,
 -5.94668\C,0,-3.56753,0.58719,-5.95207\N,0,-2.3964,0.06499,-6.2231\C,0
 ,-1.51971,1.13401,-6.10769\C,0,-4.64191,2.82635,-5.31969\N,0,-3.52184,
 1.92976,-5.66549\\Version=EM64L-G16RevA.03\State=1-A\HF=-2048.7371812\
 RMSD=6.228e-09\Dipole=-3.6279559,-0.0725005,-0.0429354\Quadrupole=20.7
 937905,8.6045184,-29.3983089,35.1431812,-16.6556543,1.9269611\PG=C01 [
 X(C23H27N17O3)]\\@


 YOU CAN WIPE THE SLATE CLEAN, BUT YOU'LL STILL
 HAVE TO EAT A LITTLE CHALK DUST.
 Job cpu time:       0 days  6 hours  7 minutes 24.2 seconds.
 Elapsed time:       0 days  0 hours 11 minutes 51.7 seconds.
 File lengths (MBytes):  RWF=    298 Int=      0 D2E=      0 Chk=     33 Scr=      1
 Normal termination of Gaussian 16 at Sun Jan 21 21:06:17 2018.
