 Entering Gaussian System, Link 0=g16
 Input=str5.10.-0.5.com
 Output=str5.10.-0.5.log
 Initial command:
 /share/apps/g16/l1.exe "/state/partition1/scr/Gau-25730.inp" -scrdir="/state/partition1/scr/"
 Entering Link 1 = /share/apps/g16/l1.exe PID=     25731.
  
 Copyright (c) 1988,1990,1992,1993,1995,1998,2003,2009,2016,
            Gaussian, Inc.  All Rights Reserved.
  
 This is part of the Gaussian(R) 16 program.  It is based on
 the Gaussian(R) 09 system (copyright 2009, Gaussian, Inc.),
 the Gaussian(R) 03 system (copyright 2003, Gaussian, Inc.),
 the Gaussian(R) 98 system (copyright 1998, Gaussian, Inc.),
 the Gaussian(R) 94 system (copyright 1995, Gaussian, Inc.),
 the Gaussian 92(TM) system (copyright 1992, Gaussian, Inc.),
 the Gaussian 90(TM) system (copyright 1990, Gaussian, Inc.),
 the Gaussian 88(TM) system (copyright 1988, Gaussian, Inc.),
 the Gaussian 86(TM) system (copyright 1986, Carnegie Mellon
 University), and the Gaussian 82(TM) system (copyright 1983,
 Carnegie Mellon University). Gaussian is a federally registered
 trademark of Gaussian, Inc.
  
 This software contains proprietary and confidential information,
 including trade secrets, belonging to Gaussian, Inc.
  
 This software is provided under written license and may be
 used, copied, transmitted, or stored only in accord with that
 written license.
  
 The following legend is applicable only to US Government
 contracts under FAR:
  
                    RESTRICTED RIGHTS LEGEND
  
 Use, reproduction and disclosure by the US Government is
 subject to restrictions as set forth in subparagraphs (a)
 and (c) of the Commercial Computer Software - Restricted
 Rights clause in FAR 52.227-19.
  
 Gaussian, Inc.
 340 Quinnipiac St., Bldg. 40, Wallingford CT 06492
  
  
 ---------------------------------------------------------------
 Warning -- This program may not be used in any manner that
 competes with the business of Gaussian, Inc. or will provide
 assistance to any competitor of Gaussian, Inc.  The licensee
 of this program is prohibited from giving any competitor of
 Gaussian, Inc. access to this program.  By using this program,
 the user acknowledges that Gaussian, Inc. is engaged in the
 business of creating and licensing software in the field of
 computational chemistry and represents and warrants to the
 licensee that it is not a competitor of Gaussian, Inc. and that
 it will not use this program in any manner prohibited above.
 ---------------------------------------------------------------
  

 Cite this work as:
 Gaussian 16, Revision A.03,
 M. J. Frisch, G. W. Trucks, H. B. Schlegel, G. E. Scuseria, 
 M. A. Robb, J. R. Cheeseman, G. Scalmani, V. Barone, 
 G. A. Petersson, H. Nakatsuji, X. Li, M. Caricato, A. V. Marenich, 
 J. Bloino, B. G. Janesko, R. Gomperts, B. Mennucci, H. P. Hratchian, 
 J. V. Ortiz, A. F. Izmaylov, J. L. Sonnenberg, D. Williams-Young, 
 F. Ding, F. Lipparini, F. Egidi, J. Goings, B. Peng, A. Petrone, 
 T. Henderson, D. Ranasinghe, V. G. Zakrzewski, J. Gao, N. Rega, 
 G. Zheng, W. Liang, M. Hada, M. Ehara, K. Toyota, R. Fukuda, 
 J. Hasegawa, M. Ishida, T. Nakajima, Y. Honda, O. Kitao, H. Nakai, 
 T. Vreven, K. Throssell, J. A. Montgomery, Jr., J. E. Peralta, 
 F. Ogliaro, M. J. Bearpark, J. J. Heyd, E. N. Brothers, K. N. Kudin, 
 V. N. Staroverov, T. A. Keith, R. Kobayashi, J. Normand, 
 K. Raghavachari, A. P. Rendell, J. C. Burant, S. S. Iyengar, 
 J. Tomasi, M. Cossi, J. M. Millam, M. Klene, C. Adamo, R. Cammi, 
 J. W. Ochterski, R. L. Martin, K. Morokuma, O. Farkas, 
 J. B. Foresman, and D. J. Fox, Gaussian, Inc., Wallingford CT, 2016.
 
 ******************************************
 Gaussian 16:  EM64L-G16RevA.03 25-Dec-2016
                25-Jan-2018 
 ******************************************
 %nprocshared=32
 Will use up to   32 processors via shared memory.
 %mem=32GB
 %chk=allatoms_t.chk
 ---------------------------------------
 #p wb97xd/cc-pvdz sp scf=(maxcycles=20)
 ---------------------------------------
 1/38=1,172=1/1;
 2/12=2,17=6,18=5,40=1/2;
 3/5=16,11=2,25=1,30=1,74=-58/1,2,3;
 4//1;
 5/5=2,7=20,38=5/2;
 6/7=2,8=2,9=2,10=2,28=1/1;
 99/5=1,9=1/99;
 Leave Link    1 at Thu Jan 25 05:59:07 2018, MaxMem=  4294967296 cpu:               2.7 elap:               0.1
 (Enter /share/apps/g16/l101.exe)
 ------------------
 Base pair stacking
 ------------------
 Symbolic Z-matrix:
 Charge =  0 Multiplicity = 1
 N                     0.93908   6.78513  -6.62385 
 C                     0.26424   8.03725  -7.01728 
 C                     1.41393   4.66441  -6.28565 
 N                     2.49088   5.38668  -5.79245 
 C                     2.16169   6.63543  -6.01595 
 H                     2.7791    7.49554  -5.75528 
 N                    -0.01991   2.89616  -6.90236 
 C                    -0.8556    3.83449  -7.35926 
 H                    -1.78099   3.46059  -7.79527 
 N                    -0.72042   5.15911  -7.35844 
 C                     0.4496    5.51276  -6.80128 
 C                     1.14908   3.2842   -6.34741 
 N                     1.98459   2.34903  -5.89075 
 H                     2.86083   2.59057  -5.47234 
 H                     1.76327   1.37563  -5.95127 
 H                     0.83487   8.53367  -7.6716 
 H                    -0.61639   7.82377  -7.43924 
 H                     0.11524   8.60635  -6.20863 
 N                    -0.61274   5.34119  -3.45014 
 C                    -1.01342   4.02817  -3.50923 
 C                    -1.47717   6.51002  -3.70952 
 N                    -3.49487   1.66279  -4.06527 
 H                    -3.58039   0.6669   -4.0543 
 H                    -4.31651   2.18626  -4.29245 
 N                    -2.25415   3.58871  -3.81175 
 C                    -2.3311    2.26995  -3.78794 
 N                    -1.27497   1.44301  -3.49085 
 H                    -1.42566   0.4459   -3.49648 
 C                     0.01035   1.87324  -3.17664 
 O                     0.8928    1.04372  -2.92383 
 C                     0.10853   3.28773  -3.19817 
 N                     1.19178   4.11916  -2.94881 
 C                     0.71784   5.32487  -3.10964 
 H                     1.29773   6.24088  -2.99168 
 H                    -1.10861   7.03586  -4.47533 
 H                    -2.39885   6.19684  -3.93469 
 H                    -1.5124    7.08796  -2.89493 
 H                    -2.6617   -4.41656  -4.32191 
 H                    -2.83529  -4.45357  -2.56887 
 H                    -3.18404  -2.97036  -3.4576 
 H                     1.95136  -4.7003   -2.9856 
 C                     1.15489  -3.95877  -3.04882 
 O                     2.61869  -2.10122  -2.86466 
 C                     1.48645  -2.56808  -2.98663 
 H                     0.59954  -0.72435  -3.03554 
 N                     0.40502  -1.71494  -3.07571 
 O                    -1.80459  -1.23402  -3.28436 
 C                    -0.91512  -2.0638   -3.2138 
 H                    -0.42835  -5.37451  -3.23548 
 C                    -0.12364  -4.33011  -3.18326 
 C                    -2.55049  -3.84374  -3.4133 
 N                    -1.15442  -3.42292  -3.26618 
 H                    -2.24834  -4.64451  -7.82685 
 H                    -2.74844  -3.31239  -7.02844 
 H                    -2.65196  -4.743    -6.24862 
 H                     3.60784  -0.88628  -5.24879 
 H                     3.57956  -2.58821  -5.36168 
 N                     3.08744  -1.71998  -5.43392 
 C                     1.79465  -1.67697  -5.76258 
 C                    -0.30915  -2.61447  -6.35995 
 N                    -0.94427  -1.43421  -6.44947 
 H                    -0.54633   0.56358  -6.22347 
 C                    -0.11054  -0.43335  -6.17367 
 N                     1.1846   -0.47437  -5.84428 
 H                     0.05189  -5.82546  -6.46673 
 C                     0.19262  -4.7491   -6.36385 
 N                     1.32399  -4.17324  -6.03815 
 C                     1.01973  -2.81968  -6.03211 
 C                    -2.23316  -4.16524  -6.94932 
 N                    -0.83795  -3.86544  -6.57313 
 
 ITRead=  0  0  0  0  0  0  0  0  0  0  0  0  0  0  0  0  0  0  0  0
 ITRead=  0  0  0  0  0  0  0  0  0  0  0  0  0  0  0  0  0  0  0  0
 ITRead=  0  0  0  0  0  0  0  0  0  0  0  0  0  0  0  0  0  0  0  0
 ITRead=  0  0  0  0  0  0  0  0  0  0
 MicOpt= -1 -1 -1 -1 -1 -1 -1 -1 -1 -1 -1 -1 -1 -1 -1 -1 -1 -1 -1 -1
 MicOpt= -1 -1 -1 -1 -1 -1 -1 -1 -1 -1 -1 -1 -1 -1 -1 -1 -1 -1 -1 -1
 MicOpt= -1 -1 -1 -1 -1 -1 -1 -1 -1 -1 -1 -1 -1 -1 -1 -1 -1 -1 -1 -1
 MicOpt= -1 -1 -1 -1 -1 -1 -1 -1 -1 -1
 NAtoms=     70 NQM=       70 NQMF=       0 NMMI=      0 NMMIF=      0
                NMic=       0 NMicF=      0.
                    Isotopes and Nuclear Properties:
 (Nuclear quadrupole moments (NQMom) in fm**2, nuclear magnetic moments (NMagM)
  in nuclear magnetons)

  Atom         1           2           3           4           5           6           7           8           9          10
 IAtWgt=          14          12          12          14          12           1          14          12           1          14
 AtmWgt=  14.0030740  12.0000000  12.0000000  14.0030740  12.0000000   1.0078250  14.0030740  12.0000000   1.0078250  14.0030740
 NucSpn=           2           0           0           2           0           1           2           0           1           2
 AtZEff=  -0.0000000  -0.0000000  -0.0000000  -0.0000000  -0.0000000  -0.0000000  -0.0000000  -0.0000000  -0.0000000  -0.0000000
 NQMom=    2.0440000   0.0000000   0.0000000   2.0440000   0.0000000   0.0000000   2.0440000   0.0000000   0.0000000   2.0440000
 NMagM=    0.4037610   0.0000000   0.0000000   0.4037610   0.0000000   2.7928460   0.4037610   0.0000000   2.7928460   0.4037610
 AtZNuc=   7.0000000   6.0000000   6.0000000   7.0000000   6.0000000   1.0000000   7.0000000   6.0000000   1.0000000   7.0000000

  Atom        11          12          13          14          15          16          17          18          19          20
 IAtWgt=          12          12          14           1           1           1           1           1          14          12
 AtmWgt=  12.0000000  12.0000000  14.0030740   1.0078250   1.0078250   1.0078250   1.0078250   1.0078250  14.0030740  12.0000000
 NucSpn=           0           0           2           1           1           1           1           1           2           0
 AtZEff=  -0.0000000  -0.0000000  -0.0000000  -0.0000000  -0.0000000  -0.0000000  -0.0000000  -0.0000000  -0.0000000  -0.0000000
 NQMom=    0.0000000   0.0000000   2.0440000   0.0000000   0.0000000   0.0000000   0.0000000   0.0000000   2.0440000   0.0000000
 NMagM=    0.0000000   0.0000000   0.4037610   2.7928460   2.7928460   2.7928460   2.7928460   2.7928460   0.4037610   0.0000000
 AtZNuc=   6.0000000   6.0000000   7.0000000   1.0000000   1.0000000   1.0000000   1.0000000   1.0000000   7.0000000   6.0000000

  Atom        21          22          23          24          25          26          27          28          29          30
 IAtWgt=          12          14           1           1          14          12          14           1          12          16
 AtmWgt=  12.0000000  14.0030740   1.0078250   1.0078250  14.0030740  12.0000000  14.0030740   1.0078250  12.0000000  15.9949146
 NucSpn=           0           2           1           1           2           0           2           1           0           0
 AtZEff=  -0.0000000  -0.0000000  -0.0000000  -0.0000000  -0.0000000  -0.0000000  -0.0000000  -0.0000000  -0.0000000  -0.0000000
 NQMom=    0.0000000   2.0440000   0.0000000   0.0000000   2.0440000   0.0000000   2.0440000   0.0000000   0.0000000   0.0000000
 NMagM=    0.0000000   0.4037610   2.7928460   2.7928460   0.4037610   0.0000000   0.4037610   2.7928460   0.0000000   0.0000000
 AtZNuc=   6.0000000   7.0000000   1.0000000   1.0000000   7.0000000   6.0000000   7.0000000   1.0000000   6.0000000   8.0000000

  Atom        31          32          33          34          35          36          37          38          39          40
 IAtWgt=          12          14          12           1           1           1           1           1           1           1
 AtmWgt=  12.0000000  14.0030740  12.0000000   1.0078250   1.0078250   1.0078250   1.0078250   1.0078250   1.0078250   1.0078250
 NucSpn=           0           2           0           1           1           1           1           1           1           1
 AtZEff=  -0.0000000  -0.0000000  -0.0000000  -0.0000000  -0.0000000  -0.0000000  -0.0000000  -0.0000000  -0.0000000  -0.0000000
 NQMom=    0.0000000   2.0440000   0.0000000   0.0000000   0.0000000   0.0000000   0.0000000   0.0000000   0.0000000   0.0000000
 NMagM=    0.0000000   0.4037610   0.0000000   2.7928460   2.7928460   2.7928460   2.7928460   2.7928460   2.7928460   2.7928460
 AtZNuc=   6.0000000   7.0000000   6.0000000   1.0000000   1.0000000   1.0000000   1.0000000   1.0000000   1.0000000   1.0000000

  Atom        41          42          43          44          45          46          47          48          49          50
 IAtWgt=           1          12          16          12           1          14          16          12           1          12
 AtmWgt=   1.0078250  12.0000000  15.9949146  12.0000000   1.0078250  14.0030740  15.9949146  12.0000000   1.0078250  12.0000000
 NucSpn=           1           0           0           0           1           2           0           0           1           0
 AtZEff=  -0.0000000  -0.0000000  -0.0000000  -0.0000000  -0.0000000  -0.0000000  -0.0000000  -0.0000000  -0.0000000  -0.0000000
 NQMom=    0.0000000   0.0000000   0.0000000   0.0000000   0.0000000   2.0440000   0.0000000   0.0000000   0.0000000   0.0000000
 NMagM=    2.7928460   0.0000000   0.0000000   0.0000000   2.7928460   0.4037610   0.0000000   0.0000000   2.7928460   0.0000000
 AtZNuc=   1.0000000   6.0000000   8.0000000   6.0000000   1.0000000   7.0000000   8.0000000   6.0000000   1.0000000   6.0000000

  Atom        51          52          53          54          55          56          57          58          59          60
 IAtWgt=          12          14           1           1           1           1           1          14          12          12
 AtmWgt=  12.0000000  14.0030740   1.0078250   1.0078250   1.0078250   1.0078250   1.0078250  14.0030740  12.0000000  12.0000000
 NucSpn=           0           2           1           1           1           1           1           2           0           0
 AtZEff=  -0.0000000  -0.0000000  -0.0000000  -0.0000000  -0.0000000  -0.0000000  -0.0000000  -0.0000000  -0.0000000  -0.0000000
 NQMom=    0.0000000   2.0440000   0.0000000   0.0000000   0.0000000   0.0000000   0.0000000   2.0440000   0.0000000   0.0000000
 NMagM=    0.0000000   0.4037610   2.7928460   2.7928460   2.7928460   2.7928460   2.7928460   0.4037610   0.0000000   0.0000000
 AtZNuc=   6.0000000   7.0000000   1.0000000   1.0000000   1.0000000   1.0000000   1.0000000   7.0000000   6.0000000   6.0000000

  Atom        61          62          63          64          65          66          67          68          69          70
 IAtWgt=          14           1          12          14           1          12          14          12          12          14
 AtmWgt=  14.0030740   1.0078250  12.0000000  14.0030740   1.0078250  12.0000000  14.0030740  12.0000000  12.0000000  14.0030740
 NucSpn=           2           1           0           2           1           0           2           0           0           2
 AtZEff=  -0.0000000  -0.0000000  -0.0000000  -0.0000000  -0.0000000  -0.0000000  -0.0000000  -0.0000000  -0.0000000  -0.0000000
 NQMom=    2.0440000   0.0000000   0.0000000   2.0440000   0.0000000   0.0000000   2.0440000   0.0000000   0.0000000   2.0440000
 NMagM=    0.4037610   2.7928460   0.0000000   0.4037610   2.7928460   0.0000000   0.4037610   0.0000000   0.0000000   0.4037610
 AtZNuc=   7.0000000   1.0000000   6.0000000   7.0000000   1.0000000   6.0000000   7.0000000   6.0000000   6.0000000   7.0000000
 Leave Link  101 at Thu Jan 25 05:59:07 2018, MaxMem=  4294967296 cpu:               7.8 elap:               0.3
 (Enter /share/apps/g16/l202.exe)
 Stoichiometry    C23H27N17O3
 Framework group  C1[X(C23H27N17O3)]
 Deg. of freedom   204
 Full point group                 C1      NOp   1
 Largest Abelian subgroup         C1      NOp   1
 Largest concise Abelian subgroup C1      NOp   1
                         Standard orientation:                         
 ---------------------------------------------------------------------
 Center     Atomic      Atomic             Coordinates (Angstroms)
 Number     Number       Type             X           Y           Z
 ---------------------------------------------------------------------
      1          7           0       -5.983530   -1.362664    0.519174
      2          6           0       -7.234654   -1.015476    1.220708
      3          6           0       -3.863466   -1.667088    0.019203
      4          7           0       -4.587422   -2.089200   -1.086441
      5          6           0       -5.835710   -1.888900   -0.740966
      6          1           0       -6.696802   -2.109262   -1.372546
      7          7           0       -2.092942   -1.144213    1.487121
      8          6           0       -3.030017   -0.743967    2.352738
      9          1           0       -2.654677   -0.369297    3.304050
     10          7           0       -4.354893   -0.737106    2.220269
     11          6           0       -4.710359   -1.216602    1.016870
     12          6           0       -2.482798   -1.621605    0.284960
     13          7           0       -1.548882   -2.021618   -0.580459
     14          1           0       -1.791782   -2.381853   -1.481811
     15          1           0       -0.575106   -1.974884   -0.357459
     16          1           0       -7.802607   -1.833058    1.316494
     17          1           0       -7.019808   -0.652020    2.126729
     18          1           0       -7.732910   -0.325197    0.696069
     19          7           0       -4.237189    1.771559   -0.781781
     20          6           0       -2.917860    1.925853   -0.430180
     21          6           0       -5.387415    2.342107   -0.052304
     22          7           0       -0.506216    3.223883    1.705443
     23          1           0        0.490127    3.214304    1.785691
     24          1           0       -1.012736    3.731290    2.403081
     25          7           0       -2.454341    2.619015    0.632237
     26          6           0       -1.135700    2.585296    0.707509
     27          7           0       -0.330739    1.923925   -0.188108
     28          1           0        0.668116    1.952060   -0.052222
     29          6           0       -0.785925    1.204360   -1.288519
     30          8           0        0.025058    0.643526   -2.035852
     31          6           0       -2.200597    1.231465   -1.382619
     32          7           0       -3.052474    0.652874   -2.313438
     33          6           0       -4.247280    0.999239   -1.917592
     34          1           0       -5.173648    0.717472   -2.419299
     35          1           0       -5.985315    1.604622    0.259851
     36          1           0       -5.056346    2.857811    0.736822
     37          1           0       -5.898530    2.951915   -0.657043
     38          1           0        5.497026    1.938527    1.539661
     39          1           0        5.676851    3.220120    0.343905
     40          1           0        4.144137    3.015873    1.192697
     41          1           0        5.700431   -0.654863   -2.507500
     42          6           0        4.988409   -0.040594   -1.956205
     43          8           0        3.094162   -0.863562   -3.123110
     44          6           0        3.594688   -0.134843   -2.266813
     45          1           0        1.789359    0.645899   -1.701507
     46          7           0        2.780776    0.684596   -1.510943
     47          8           0        2.373136    2.238975    0.093717
     48          6           0        3.169954    1.552819   -0.521866
     49          1           0        6.447071    0.905903   -0.722407
     50          6           0        5.398614    0.797084   -0.996708
     51          6           0        4.992501    2.500313    0.767706
     52          7           0        4.529327    1.587079   -0.280730
     53          1           0        5.435659   -0.697904    3.896119
     54          1           0        4.190418    0.310143    3.587383
     55          1           0        5.672286    0.635618    2.985545
     56          1           0        1.659555   -3.075370   -2.032981
     57          1           0        3.347366   -3.266619   -1.875414
     58          7           0        2.496354   -2.875672   -1.523046
     59          6           0        2.479276   -2.121655   -0.421983
     60          6           0        3.450288   -1.017523    1.448782
     61          7           0        2.292764   -0.505686    1.898855
     62          1           0        0.304336   -0.492443    1.402291
     63          6           0        1.284051   -0.866474    1.108145
     64          7           0        1.299110   -1.621607    0.004916
     65          1           0        6.626447   -1.618359    1.392040
     66          6           0        5.556587   -1.568557    1.187442
     67          7           0        4.963323   -2.153585    0.175773
     68          6           0        3.627453   -1.812232    0.329602
     69          6           0        5.025725   -0.092347    3.214032
     70          7           0        4.700924   -0.863863    1.998598
 ---------------------------------------------------------------------
 Rotational constants (GHZ):           0.1740011           0.0519865           0.0500208
 Leave Link  202 at Thu Jan 25 05:59:07 2018, MaxMem=  4294967296 cpu:               0.3 elap:               0.0
 (Enter /share/apps/g16/l301.exe)
 Standard basis: CC-pVDZ (5D, 7F)
 Ernie: Thresh=  0.10000D-02 Tol=  0.10000D-05 Strict=F.
 Ernie:  86 primitive shells out of 1081 were deleted.
 There are   780 symmetry adapted cartesian basis functions of A   symmetry.
 There are   737 symmetry adapted basis functions of A   symmetry.
   737 basis functions,  1608 primitive gaussians,   780 cartesian basis functions
   154 alpha electrons      154 beta electrons
       nuclear repulsion energy      5580.0697178928 Hartrees.
 IExCor= 4639 DFT=T Ex+Corr=wB97XD ExCW=0 ScaHFX=  1.000000
 ScaDFX=  1.000000  1.000000  1.000000  1.000000 ScalE2=  1.000000  1.000000
 IRadAn=      5 IRanWt=     -1 IRanGd=            0 ICorTp=0 IEmpDi=121
 HFx  wShort=  0.000000 wLong=  0.200000 cFull=  0.222036 cShort=  0.000000 cLong=  0.777964
 DFx  wShort=  0.000000 wLong=  0.200000 cFull=  0.000000 cShort=  0.000000 cLong=  1.000000
 NAtoms=   70 NActive=   70 NUniq=   70 SFac= 1.00D+00 NAtFMM=   60 NAOKFM=T Big=T
 Integral buffers will be    131072 words long.
 Raffenetti 2 integral format.
 Two-electron integral symmetry is turned on.
 R6Disp:  Grimme-D2 Dispersion energy=       -0.0771756463 Hartrees.
 Nuclear repulsion after empirical dispersion term =     5579.9925422465 Hartrees.
 Leave Link  301 at Thu Jan 25 05:59:07 2018, MaxMem=  4294967296 cpu:               2.2 elap:               0.1
 (Enter /share/apps/g16/l302.exe)
 NPDir=0 NMtPBC=     1 NCelOv=     1 NCel=       1 NClECP=     1 NCelD=      1
         NCelK=      1 NCelE2=     1 NClLst=     1 CellRange=     0.0.
 One-electron integrals computed using PRISM.
 One-electron integral symmetry used in STVInt
 NBasis=   737 RedAO= T EigKep=  6.74D-04  NBF=   737
 NBsUse=   737 1.00D-06 EigRej= -1.00D+00 NBFU=   737
 Precomputing XC quadrature grid using
 IXCGrd= 4 IRadAn=           5 IRanWt=          -1 IRanGd=           0 AccXCQ= 0.00D+00.
 Generated NRdTot=       0 NPtTot=           0 NUsed=           0 NTot=          32
 NSgBfM=   766   763   764   765   766 MxSgAt=    70 MxSgA2=    70.
 Leave Link  302 at Thu Jan 25 05:59:11 2018, MaxMem=  4294967296 cpu:             134.8 elap:               4.2
 (Enter /share/apps/g16/l303.exe)
 DipDrv:  MaxL=1.
 Leave Link  303 at Thu Jan 25 05:59:12 2018, MaxMem=  4294967296 cpu:              12.7 elap:               0.4
 (Enter /share/apps/g16/l401.exe)
 ExpMin= 1.22D-01 ExpMax= 1.17D+04 ExpMxC= 4.01D+02 IAcc=3 IRadAn=         5 AccDes= 0.00D+00
 Harris functional with IExCor= 4639 and IRadAn=       5 diagonalized for initial guess.
 HarFok:  IExCor= 4639 AccDes= 0.00D+00 IRadAn=         5 IDoV= 1 UseB2=F ITyADJ=14
 ICtDFT=  3500011 ScaDFX=  1.000000  1.000000  1.000000  1.000000
 FoFCou: FMM=F IPFlag=           0 FMFlag=      100000 FMFlg1=        2001
         NFxFlg=           0 DoJE=T BraDBF=F KetDBF=T FulRan=T
         wScrn=  0.000000 ICntrl=       500 IOpCl=  0 I1Cent=   200000004 NGrid=           0
         NMat0=    1 NMatS0=      1 NMatT0=    0 NMatD0=    1 NMtDS0=    0 NMtDT0=    0
 Petite list used in FoFCou.
 Harris En= -1963.88133312951    
 JPrj=0 DoOrth=F DoCkMO=F.
 Leave Link  401 at Thu Jan 25 05:59:25 2018, MaxMem=  4294967296 cpu:             408.4 elap:              12.8
 (Enter /share/apps/g16/l502.exe)
 Integral symmetry usage will be decided dynamically.
 Closed shell SCF:
 Using DIIS extrapolation, IDIIS=  1040.
 NGot=  4294967296 LenX=  4293717438 LenY=  4293108258
 Requested convergence on RMS density matrix=1.00D-08 within  20 cycles.
 Requested convergence on MAX density matrix=1.00D-06.
 Requested convergence on             energy=1.00D-06.
 No special actions if energy rises.
 Fock matrices will be formed incrementally for  20 cycles.
 Integral accuracy reduced to 1.0D-05 until final iterations.

 Cycle   1  Pass 0  IDiag  1:
 FoFJK:  IHMeth= 1 ICntrl=       0 DoSepK=T KAlg= 0 I1Cent=           0 FoldK=F
 IRaf=         1 NMat=       1 IRICut=       1 DoRegI=T DoRafI=F ISym2E= 0 IDoP0=0 IntGTp=1.
 FoFCou: FMM=T IPFlag=           0 FMFlag=      100000 FMFlg1=        2001
         NFxFlg=           0 DoJE=T BraDBF=F KetDBF=F FulRan=T
         wScrn=  0.000000 ICntrl=       500 IOpCl=  0 I1Cent=           0 NGrid=           0
         NMat0=    1 NMatS0=      1 NMatT0=    0 NMatD0=    1 NMtDS0=    0 NMtDT0=    0
 Symmetry not used in FoFCou.
 FMM levels:  10  Number of levels for PrismC:   9
 E= -2048.30706896986    
 DIIS: error= 2.32D-02 at cycle   1 NSaved=   1.
 NSaved= 1 IEnMin= 1 EnMin= -2048.30706896986     IErMin= 1 ErrMin= 2.32D-02
 ErrMax= 2.32D-02  0.00D+00 EMaxC= 1.00D-01 BMatC= 8.40D-01 BMatP= 8.40D-01
 IDIUse=3 WtCom= 7.68D-01 WtEn= 2.32D-01
 Coeff-Com:  0.100D+01
 Coeff-En:   0.100D+01
 Coeff:      0.100D+01
 Gap=     0.254 Goal=   None    Shift=    0.000
 GapD=    0.254 DampG=1.000 DampE=0.500 DampFc=0.5000 IDamp=-1.
 Damping current iteration by 5.00D-01
 RMSDP=1.62D-03 MaxDP=1.16D-01              OVMax= 1.72D-01

 Cycle   2  Pass 0  IDiag  1:
 RMSU=  8.08D-04    CP:  9.97D-01
 E= -2048.50206748994     Delta-E=       -0.194998520076 Rises=F Damp=T
 DIIS: error= 1.12D-02 at cycle   2 NSaved=   2.
 NSaved= 2 IEnMin= 2 EnMin= -2048.50206748994     IErMin= 2 ErrMin= 1.12D-02
 ErrMax= 1.12D-02  0.00D+00 EMaxC= 1.00D-01 BMatC= 1.48D-01 BMatP= 8.40D-01
 IDIUse=3 WtCom= 8.88D-01 WtEn= 1.12D-01
 Coeff-Com: -0.170D+00 0.117D+01
 Coeff-En:   0.000D+00 0.100D+01
 Coeff:     -0.151D+00 0.115D+01
 Gap=     0.361 Goal=   None    Shift=    0.000
 RMSDP=6.13D-04 MaxDP=3.26D-02 DE=-1.95D-01 OVMax= 1.71D-01

 Cycle   3  Pass 0  IDiag  1:
 RMSU=  6.08D-04    CP:  9.94D-01  1.07D+00
 E= -2048.67924380810     Delta-E=       -0.177176318157 Rises=F Damp=F
 DIIS: error= 7.54D-03 at cycle   3 NSaved=   3.
 NSaved= 3 IEnMin= 3 EnMin= -2048.67924380810     IErMin= 3 ErrMin= 7.54D-03
 ErrMax= 7.54D-03  0.00D+00 EMaxC= 1.00D-01 BMatC= 7.49D-02 BMatP= 1.48D-01
 IDIUse=3 WtCom= 9.25D-01 WtEn= 7.54D-02
 Coeff-Com: -0.233D+00 0.564D+00 0.668D+00
 Coeff-En:   0.000D+00 0.000D+00 0.100D+01
 Coeff:     -0.215D+00 0.522D+00 0.693D+00
 Gap=     0.279 Goal=   None    Shift=    0.000
 RMSDP=4.03D-04 MaxDP=2.67D-02 DE=-1.77D-01 OVMax= 7.88D-02

 Cycle   4  Pass 0  IDiag  1:
 RMSU=  2.20D-04    CP:  9.94D-01  1.39D+00  6.38D-01
 E= -2048.73601784629     Delta-E=       -0.056774038188 Rises=F Damp=F
 DIIS: error= 3.31D-03 at cycle   4 NSaved=   4.
 NSaved= 4 IEnMin= 4 EnMin= -2048.73601784629     IErMin= 4 ErrMin= 3.31D-03
 ErrMax= 3.31D-03  0.00D+00 EMaxC= 1.00D-01 BMatC= 1.10D-02 BMatP= 7.49D-02
 IDIUse=3 WtCom= 9.67D-01 WtEn= 3.31D-02
 Coeff-Com: -0.964D-01 0.187D+00 0.375D+00 0.535D+00
 Coeff-En:   0.000D+00 0.000D+00 0.820D-01 0.918D+00
 Coeff:     -0.932D-01 0.181D+00 0.365D+00 0.547D+00
 Gap=     0.284 Goal=   None    Shift=    0.000
 RMSDP=1.40D-04 MaxDP=1.16D-02 DE=-5.68D-02 OVMax= 1.78D-02

 Cycle   5  Pass 0  IDiag  1:
 RMSU=  6.20D-05    CP:  9.94D-01  1.35D+00  7.84D-01  6.20D-01
 E= -2048.74529254953     Delta-E=       -0.009274703245 Rises=F Damp=F
 DIIS: error= 5.59D-04 at cycle   5 NSaved=   5.
 NSaved= 5 IEnMin= 5 EnMin= -2048.74529254953     IErMin= 5 ErrMin= 5.59D-04
 ErrMax= 5.59D-04  0.00D+00 EMaxC= 1.00D-01 BMatC= 3.11D-04 BMatP= 1.10D-02
 IDIUse=3 WtCom= 9.94D-01 WtEn= 5.59D-03
 Coeff-Com: -0.243D-01 0.414D-01 0.117D+00 0.236D+00 0.630D+00
 Coeff-En:   0.000D+00 0.000D+00 0.000D+00 0.000D+00 0.100D+01
 Coeff:     -0.242D-01 0.411D-01 0.116D+00 0.235D+00 0.632D+00
 Gap=     0.284 Goal=   None    Shift=    0.000
 RMSDP=2.77D-05 MaxDP=1.67D-03 DE=-9.27D-03 OVMax= 3.90D-03

 Failed to achieve initial convergence to 1.0D-08 in  6 cycles.
 Switch to full accuracy anyway.
 Cycle   6  Pass 1  IDiag  1:
 E= -2048.74560995215     Delta-E=       -0.000317402614 Rises=F Damp=F
 DIIS: error= 2.06D-04 at cycle   1 NSaved=   1.
 NSaved= 1 IEnMin= 1 EnMin= -2048.74560995215     IErMin= 1 ErrMin= 2.06D-04
 ErrMax= 2.06D-04  0.00D+00 EMaxC= 1.00D-01 BMatC= 7.79D-05 BMatP= 7.79D-05
 IDIUse=3 WtCom= 9.98D-01 WtEn= 2.06D-03
 Coeff-Com:  0.100D+01
 Coeff-En:   0.100D+01
 Coeff:      0.100D+01
 Gap=     0.284 Goal=   None    Shift=    0.000
 RMSDP=2.77D-05 MaxDP=1.67D-03 DE=-3.17D-04 OVMax= 2.27D-03

 Cycle   7  Pass 1  IDiag  1:
 RMSU=  1.11D-04    CP:  1.00D+00
 E= -2048.74566445514     Delta-E=       -0.000054502997 Rises=F Damp=F
 DIIS: error= 2.43D-04 at cycle   2 NSaved=   2.
 NSaved= 2 IEnMin= 2 EnMin= -2048.74566445514     IErMin= 1 ErrMin= 2.06D-04
 ErrMax= 2.43D-04  0.00D+00 EMaxC= 1.00D-01 BMatC= 4.61D-05 BMatP= 7.79D-05
 IDIUse=3 WtCom= 9.98D-01 WtEn= 2.43D-03
 Coeff-Com:  0.413D+00 0.587D+00
 Coeff-En:   0.000D+00 0.100D+01
 Coeff:      0.412D+00 0.588D+00
 Gap=     0.284 Goal=   None    Shift=    0.000
 RMSDP=1.19D-05 MaxDP=1.09D-03 DE=-5.45D-05 OVMax= 1.56D-03

 Cycle   8  Pass 1  IDiag  1:
 RMSU=  1.16D-05    CP:  1.00D+00  1.02D+00
 E= -2048.74569796251     Delta-E=       -0.000033507367 Rises=F Damp=F
 DIIS: error= 1.13D-04 at cycle   3 NSaved=   3.
 NSaved= 3 IEnMin= 3 EnMin= -2048.74569796251     IErMin= 3 ErrMin= 1.13D-04
 ErrMax= 1.13D-04  0.00D+00 EMaxC= 1.00D-01 BMatC= 1.04D-05 BMatP= 4.61D-05
 IDIUse=3 WtCom= 9.99D-01 WtEn= 1.13D-03
 Coeff-Com: -0.165D-01 0.309D+00 0.708D+00
 Coeff-En:   0.000D+00 0.126D+00 0.874D+00
 Coeff:     -0.165D-01 0.309D+00 0.708D+00
 Gap=     0.284 Goal=   None    Shift=    0.000
 RMSDP=5.73D-06 MaxDP=5.02D-04 DE=-3.35D-05 OVMax= 5.84D-04

 Cycle   9  Pass 1  IDiag  1:
 RMSU=  3.91D-06    CP:  1.00D+00  1.05D+00  7.60D-01
 E= -2048.74570762517     Delta-E=       -0.000009662656 Rises=F Damp=F
 DIIS: error= 3.40D-05 at cycle   4 NSaved=   4.
 NSaved= 4 IEnMin= 4 EnMin= -2048.74570762517     IErMin= 4 ErrMin= 3.40D-05
 ErrMax= 3.40D-05  0.00D+00 EMaxC= 1.00D-01 BMatC= 5.68D-07 BMatP= 1.04D-05
 IDIUse=1 WtCom= 1.00D+00 WtEn= 0.00D+00
 Coeff-Com: -0.307D-01 0.891D-01 0.272D+00 0.669D+00
 Coeff:     -0.307D-01 0.891D-01 0.272D+00 0.669D+00
 Gap=     0.284 Goal=   None    Shift=    0.000
 RMSDP=1.52D-06 MaxDP=1.07D-04 DE=-9.66D-06 OVMax= 5.42D-04

 Cycle  10  Pass 1  IDiag  1:
 RMSU=  1.37D-06    CP:  1.00D+00  1.05D+00  7.94D-01  1.09D+00
 E= -2048.74570852683     Delta-E=       -0.000000901659 Rises=F Damp=F
 DIIS: error= 1.13D-05 at cycle   5 NSaved=   5.
 NSaved= 5 IEnMin= 5 EnMin= -2048.74570852683     IErMin= 5 ErrMin= 1.13D-05
 ErrMax= 1.13D-05  0.00D+00 EMaxC= 1.00D-01 BMatC= 1.43D-07 BMatP= 5.68D-07
 IDIUse=1 WtCom= 1.00D+00 WtEn= 0.00D+00
 Coeff-Com: -0.490D-02-0.493D-01-0.107D+00 0.230D+00 0.932D+00
 Coeff:     -0.490D-02-0.493D-01-0.107D+00 0.230D+00 0.932D+00
 Gap=     0.284 Goal=   None    Shift=    0.000
 RMSDP=1.22D-06 MaxDP=7.14D-05 DE=-9.02D-07 OVMax= 2.67D-04

 Cycle  11  Pass 1  IDiag  1:
 RMSU=  5.13D-07    CP:  1.00D+00  1.05D+00  8.02D-01  1.37D+00  1.16D+00
 E= -2048.74570880962     Delta-E=       -0.000000282792 Rises=F Damp=F
 DIIS: error= 7.80D-06 at cycle   6 NSaved=   6.
 NSaved= 6 IEnMin= 6 EnMin= -2048.74570880962     IErMin= 6 ErrMin= 7.80D-06
 ErrMax= 7.80D-06  0.00D+00 EMaxC= 1.00D-01 BMatC= 3.22D-08 BMatP= 1.43D-07
 IDIUse=1 WtCom= 1.00D+00 WtEn= 0.00D+00
 Coeff-Com:  0.462D-02-0.456D-01-0.120D+00-0.139D-02 0.501D+00 0.661D+00
 Coeff:      0.462D-02-0.456D-01-0.120D+00-0.139D-02 0.501D+00 0.661D+00
 Gap=     0.284 Goal=   None    Shift=    0.000
 RMSDP=4.35D-07 MaxDP=2.25D-05 DE=-2.83D-07 OVMax= 1.47D-04

 Cycle  12  Pass 1  IDiag  1:
 RMSU=  1.99D-07    CP:  1.00D+00  1.05D+00  8.03D-01  1.45D+00  1.30D+00
                    CP:  9.47D-01
 E= -2048.74570885927     Delta-E=       -0.000000049647 Rises=F Damp=F
 DIIS: error= 1.12D-06 at cycle   7 NSaved=   7.
 NSaved= 7 IEnMin= 7 EnMin= -2048.74570885927     IErMin= 7 ErrMin= 1.12D-06
 ErrMax= 1.12D-06  0.00D+00 EMaxC= 1.00D-01 BMatC= 9.43D-10 BMatP= 3.22D-08
 IDIUse=1 WtCom= 1.00D+00 WtEn= 0.00D+00
 Coeff-Com:  0.128D-02-0.889D-02-0.254D-01-0.740D-02 0.714D-01 0.158D+00
 Coeff-Com:  0.811D+00
 Coeff:      0.128D-02-0.889D-02-0.254D-01-0.740D-02 0.714D-01 0.158D+00
 Coeff:      0.811D+00
 Gap=     0.284 Goal=   None    Shift=    0.000
 RMSDP=8.85D-08 MaxDP=4.12D-06 DE=-4.96D-08 OVMax= 2.59D-05

 Cycle  13  Pass 1  IDiag  1:
 RMSU=  5.54D-08    CP:  1.00D+00  1.05D+00  8.03D-01  1.46D+00  1.32D+00
                    CP:  1.03D+00  1.13D+00
 E= -2048.74570886126     Delta-E=       -0.000000001995 Rises=F Damp=F
 DIIS: error= 5.79D-07 at cycle   8 NSaved=   8.
 NSaved= 8 IEnMin= 8 EnMin= -2048.74570886126     IErMin= 8 ErrMin= 5.79D-07
 ErrMax= 5.79D-07  0.00D+00 EMaxC= 1.00D-01 BMatC= 3.74D-10 BMatP= 9.43D-10
 IDIUse=1 WtCom= 1.00D+00 WtEn= 0.00D+00
 Coeff-Com: -0.708D-03 0.892D-02 0.220D-01-0.116D-02-0.110D+00-0.112D+00
 Coeff-Com:  0.403D+00 0.790D+00
 Coeff:     -0.708D-03 0.892D-02 0.220D-01-0.116D-02-0.110D+00-0.112D+00
 Coeff:      0.403D+00 0.790D+00
 Gap=     0.284 Goal=   None    Shift=    0.000
 RMSDP=5.37D-08 MaxDP=2.70D-06 DE=-1.99D-09 OVMax= 1.34D-05

 Cycle  14  Pass 1  IDiag  1:
 RMSU=  2.89D-08    CP:  1.00D+00  1.05D+00  8.02D-01  1.47D+00  1.32D+00
                    CP:  1.08D+00  1.29D+00  1.08D+00
 E= -2048.74570886167     Delta-E=       -0.000000000413 Rises=F Damp=F
 DIIS: error= 1.71D-07 at cycle   9 NSaved=   9.
 NSaved= 9 IEnMin= 9 EnMin= -2048.74570886167     IErMin= 9 ErrMin= 1.71D-07
 ErrMax= 1.71D-07  0.00D+00 EMaxC= 1.00D-01 BMatC= 2.95D-11 BMatP= 3.74D-10
 IDIUse=1 WtCom= 1.00D+00 WtEn= 0.00D+00
 Coeff-Com: -0.411D-03 0.447D-02 0.113D-01 0.485D-03-0.504D-01-0.606D-01
 Coeff-Com:  0.781D-01 0.293D+00 0.724D+00
 Coeff:     -0.411D-03 0.447D-02 0.113D-01 0.485D-03-0.504D-01-0.606D-01
 Coeff:      0.781D-01 0.293D+00 0.724D+00
 Gap=     0.284 Goal=   None    Shift=    0.000
 RMSDP=1.42D-08 MaxDP=5.67D-07 DE=-4.13D-10 OVMax= 3.71D-06

 Cycle  15  Pass 1  IDiag  1:
 RMSU=  9.35D-09    CP:  1.00D+00  1.05D+00  8.02D-01  1.47D+00  1.32D+00
                    CP:  1.08D+00  1.32D+00  1.20D+00  1.13D+00
 E= -2048.74570886203     Delta-E=       -0.000000000361 Rises=F Damp=F
 DIIS: error= 6.40D-08 at cycle  10 NSaved=  10.
 NSaved=10 IEnMin=10 EnMin= -2048.74570886203     IErMin=10 ErrMin= 6.40D-08
 ErrMax= 6.40D-08  0.00D+00 EMaxC= 1.00D-01 BMatC= 4.70D-12 BMatP= 2.95D-11
 IDIUse=1 WtCom= 1.00D+00 WtEn= 0.00D+00
 Coeff-Com:  0.130D-04-0.390D-03-0.879D-03 0.123D-03 0.623D-02 0.307D-02
 Coeff-Com: -0.507D-01-0.698D-01 0.239D+00 0.873D+00
 Coeff:      0.130D-04-0.390D-03-0.879D-03 0.123D-03 0.623D-02 0.307D-02
 Coeff:     -0.507D-01-0.698D-01 0.239D+00 0.873D+00
 Gap=     0.284 Goal=   None    Shift=    0.000
 RMSDP=6.82D-09 MaxDP=3.11D-07 DE=-3.61D-10 OVMax= 1.69D-06

 SCF Done:  E(RwB97XD) =  -2048.74570886     A.U. after   15 cycles
            NFock= 15  Conv=0.68D-08     -V/T= 2.0054
 KE= 2.037786167120D+03 PE=-1.594094386963D+04 EE= 6.274419451403D+03
 Leave Link  502 at Thu Jan 25 06:11:16 2018, MaxMem=  4294967296 cpu:           21957.1 elap:             711.7
 (Enter /share/apps/g16/l601.exe)
 Copying SCF densities to generalized density rwf, IOpCl= 0 IROHF=0.

 **********************************************************************

            Population analysis using the SCF density.

 **********************************************************************

 Orbital symmetries:
       Occupied  (A) (A) (A) (A) (A) (A) (A) (A) (A) (A) (A) (A)
                 (A) (A) (A) (A) (A) (A) (A) (A) (A) (A) (A) (A)
                 (A) (A) (A) (A) (A) (A) (A) (A) (A) (A) (A) (A)
                 (A) (A) (A) (A) (A) (A) (A) (A) (A) (A) (A) (A)
                 (A) (A) (A) (A) (A) (A) (A) (A) (A) (A) (A) (A)
                 (A) (A) (A) (A) (A) (A) (A) (A) (A) (A) (A) (A)
                 (A) (A) (A) (A) (A) (A) (A) (A) (A) (A) (A) (A)
                 (A) (A) (A) (A) (A) (A) (A) (A) (A) (A) (A) (A)
                 (A) (A) (A) (A) (A) (A) (A) (A) (A) (A) (A) (A)
                 (A) (A) (A) (A) (A) (A) (A) (A) (A) (A) (A) (A)
                 (A) (A) (A) (A) (A) (A) (A) (A) (A) (A) (A) (A)
                 (A) (A) (A) (A) (A) (A) (A) (A) (A) (A) (A) (A)
                 (A) (A) (A) (A) (A) (A) (A) (A) (A) (A)
       Virtual   (A) (A) (A) (A) (A) (A) (A) (A) (A) (A) (A) (A)
                 (A) (A) (A) (A) (A) (A) (A) (A) (A) (A) (A) (A)
                 (A) (A) (A) (A) (A) (A) (A) (A) (A) (A) (A) (A)
                 (A) (A) (A) (A) (A) (A) (A) (A) (A) (A) (A) (A)
                 (A) (A) (A) (A) (A) (A) (A) (A) (A) (A) (A) (A)
                 (A) (A) (A) (A) (A) (A) (A) (A) (A) (A) (A) (A)
                 (A) (A) (A) (A) (A) (A) (A) (A) (A) (A) (A) (A)
                 (A) (A) (A) (A) (A) (A) (A) (A) (A) (A) (A) (A)
                 (A) (A) (A) (A) (A) (A) (A) (A) (A) (A) (A) (A)
                 (A) (A) (A) (A) (A) (A) (A) (A) (A) (A) (A) (A)
                 (A) (A) (A) (A) (A) (A) (A) (A) (A) (A) (A) (A)
                 (A) (A) (A) (A) (A) (A) (A) (A) (A) (A) (A) (A)
                 (A) (A) (A) (A) (A) (A) (A) (A) (A) (A) (A) (A)
                 (A) (A) (A) (A) (A) (A) (A) (A) (A) (A) (A) (A)
                 (A) (A) (A) (A) (A) (A) (A) (A) (A) (A) (A) (A)
                 (A) (A) (A) (A) (A) (A) (A) (A) (A) (A) (A) (A)
                 (A) (A) (A) (A) (A) (A) (A) (A) (A) (A) (A) (A)
                 (A) (A) (A) (A) (A) (A) (A) (A) (A) (A) (A) (A)
                 (A) (A) (A) (A) (A) (A) (A) (A) (A) (A) (A) (A)
                 (A) (A) (A) (A) (A) (A) (A) (A) (A) (A) (A) (A)
                 (A) (A) (A) (A) (A) (A) (A) (A) (A) (A) (A) (A)
                 (A) (A) (A) (A) (A) (A) (A) (A) (A) (A) (A) (A)
                 (A) (A) (A) (A) (A) (A) (A) (A) (A) (A) (A) (A)
                 (A) (A) (A) (A) (A) (A) (A) (A) (A) (A) (A) (A)
                 (A) (A) (A) (A) (A) (A) (A) (A) (A) (A) (A) (A)
                 (A) (A) (A) (A) (A) (A) (A) (A) (A) (A) (A) (A)
                 (A) (A) (A) (A) (A) (A) (A) (A) (A) (A) (A) (A)
                 (A) (A) (A) (A) (A) (A) (A) (A) (A) (A) (A) (A)
                 (A) (A) (A) (A) (A) (A) (A) (A) (A) (A) (A) (A)
                 (A) (A) (A) (A) (A) (A) (A) (A) (A) (A) (A) (A)
                 (A) (A) (A) (A) (A) (A) (A) (A) (A) (A) (A) (A)
                 (A) (A) (A) (A) (A) (A) (A) (A) (A) (A) (A) (A)
                 (A) (A) (A) (A) (A) (A) (A) (A) (A) (A) (A) (A)
                 (A) (A) (A) (A) (A) (A) (A) (A) (A) (A) (A) (A)
                 (A) (A) (A) (A) (A) (A) (A) (A) (A) (A) (A) (A)
                 (A) (A) (A) (A) (A) (A) (A) (A) (A) (A) (A) (A)
                 (A) (A) (A) (A) (A) (A) (A) (A) (A) (A) (A) (A)
                 (A) (A) (A) (A) (A) (A) (A) (A) (A) (A) (A) (A)
                 (A) (A) (A) (A) (A) (A) (A) (A) (A) (A) (A) (A)
                 (A) (A) (A) (A) (A) (A) (A) (A) (A) (A) (A) (A)
                 (A) (A) (A) (A) (A) (A) (A) (A) (A) (A) (A) (A)
                 (A) (A) (A) (A) (A) (A) (A) (A) (A) (A) (A) (A)
                 (A) (A) (A) (A) (A) (A) (A) (A) (A) (A) (A) (A)
                 (A) (A) (A) (A) (A) (A) (A) (A) (A) (A) (A) (A)
                 (A) (A) (A) (A) (A) (A) (A) (A) (A) (A) (A) (A)
                 (A) (A) (A) (A) (A) (A) (A) (A) (A) (A) (A) (A)
                 (A) (A) (A) (A) (A) (A) (A) (A) (A) (A) (A) (A)
                 (A) (A) (A) (A) (A) (A) (A) (A) (A) (A) (A) (A)
                 (A) (A) (A) (A) (A) (A) (A)
 The electronic state is 1-A.
 Alpha  occ. eigenvalues --  -19.25390 -19.21825 -19.20664 -14.52166 -14.51730
 Alpha  occ. eigenvalues --  -14.49656 -14.48778 -14.47437 -14.46891 -14.46610
 Alpha  occ. eigenvalues --  -14.46149 -14.44411 -14.43375 -14.43112 -14.42656
 Alpha  occ. eigenvalues --  -14.42159 -14.41942 -14.41536 -14.40823 -14.40748
 Alpha  occ. eigenvalues --  -10.45094 -10.41166 -10.39735 -10.38514 -10.38249
 Alpha  occ. eigenvalues --  -10.37112 -10.37039 -10.36331 -10.36051 -10.35411
 Alpha  occ. eigenvalues --  -10.34935 -10.34841 -10.34301 -10.34148 -10.33709
 Alpha  occ. eigenvalues --  -10.33698 -10.33268 -10.31930 -10.31611 -10.30948
 Alpha  occ. eigenvalues --  -10.30486 -10.29245 -10.28076  -1.19045  -1.14364
 Alpha  occ. eigenvalues --   -1.13184  -1.12887  -1.12187  -1.10567  -1.09027
 Alpha  occ. eigenvalues --   -1.08538  -1.07982  -1.05647  -1.03478  -1.02233
 Alpha  occ. eigenvalues --   -1.01031  -1.00025  -0.99692  -0.98479  -0.97737
 Alpha  occ. eigenvalues --   -0.96546  -0.95654  -0.93263  -0.90561  -0.86826
 Alpha  occ. eigenvalues --   -0.85332  -0.84746  -0.84066  -0.83579  -0.83129
 Alpha  occ. eigenvalues --   -0.82497  -0.78496  -0.75975  -0.74578  -0.73810
 Alpha  occ. eigenvalues --   -0.73603  -0.73551  -0.73038  -0.71724  -0.69338
 Alpha  occ. eigenvalues --   -0.67317  -0.66987  -0.66214  -0.65658  -0.64304
 Alpha  occ. eigenvalues --   -0.63662  -0.63421  -0.63057  -0.62550  -0.61680
 Alpha  occ. eigenvalues --   -0.61120  -0.60865  -0.59517  -0.59165  -0.58518
 Alpha  occ. eigenvalues --   -0.58315  -0.57949  -0.57921  -0.57172  -0.56202
 Alpha  occ. eigenvalues --   -0.55924  -0.55687  -0.55339  -0.54582  -0.54165
 Alpha  occ. eigenvalues --   -0.53631  -0.53545  -0.52899  -0.52873  -0.52524
 Alpha  occ. eigenvalues --   -0.52344  -0.51924  -0.51558  -0.51474  -0.50908
 Alpha  occ. eigenvalues --   -0.50179  -0.49812  -0.49481  -0.49171  -0.49021
 Alpha  occ. eigenvalues --   -0.48722  -0.48315  -0.47968  -0.47670  -0.47530
 Alpha  occ. eigenvalues --   -0.47340  -0.46013  -0.45407  -0.43035  -0.42849
 Alpha  occ. eigenvalues --   -0.41747  -0.39792  -0.39106  -0.37806  -0.37401
 Alpha  occ. eigenvalues --   -0.37171  -0.37082  -0.36579  -0.35826  -0.34408
 Alpha  occ. eigenvalues --   -0.34246  -0.33874  -0.33786  -0.33308  -0.33116
 Alpha  occ. eigenvalues --   -0.32654  -0.32376  -0.31869  -0.31638  -0.31014
 Alpha  occ. eigenvalues --   -0.30720  -0.28436  -0.26528  -0.25289
 Alpha virt. eigenvalues --    0.03156   0.04998   0.07216   0.07500   0.09030
 Alpha virt. eigenvalues --    0.09655   0.09853   0.10356   0.11084   0.12020
 Alpha virt. eigenvalues --    0.13239   0.13877   0.13935   0.14754   0.14831
 Alpha virt. eigenvalues --    0.15721   0.16366   0.17721   0.18048   0.18341
 Alpha virt. eigenvalues --    0.18900   0.19174   0.19196   0.19910   0.20177
 Alpha virt. eigenvalues --    0.21014   0.21142   0.21698   0.22117   0.22267
 Alpha virt. eigenvalues --    0.22508   0.22775   0.22969   0.23371   0.23414
 Alpha virt. eigenvalues --    0.24012   0.24093   0.24735   0.25681   0.26281
 Alpha virt. eigenvalues --    0.26758   0.27435   0.27625   0.27960   0.28207
 Alpha virt. eigenvalues --    0.29010   0.29491   0.29859   0.30334   0.30937
 Alpha virt. eigenvalues --    0.31518   0.32099   0.32526   0.33159   0.33618
 Alpha virt. eigenvalues --    0.33987   0.34608   0.34875   0.35818   0.36287
 Alpha virt. eigenvalues --    0.36715   0.37207   0.37861   0.37972   0.39231
 Alpha virt. eigenvalues --    0.40023   0.40541   0.41118   0.41780   0.42295
 Alpha virt. eigenvalues --    0.42566   0.42812   0.43076   0.43316   0.43750
 Alpha virt. eigenvalues --    0.44387   0.45746   0.45901   0.46455   0.46836
 Alpha virt. eigenvalues --    0.47425   0.47736   0.48194   0.48811   0.49603
 Alpha virt. eigenvalues --    0.50023   0.50075   0.50645   0.51106   0.51318
 Alpha virt. eigenvalues --    0.51730   0.52330   0.52751   0.53196   0.53752
 Alpha virt. eigenvalues --    0.54116   0.54365   0.54961   0.55144   0.55465
 Alpha virt. eigenvalues --    0.55600   0.56173   0.56631   0.57350   0.57595
 Alpha virt. eigenvalues --    0.58090   0.58508   0.59372   0.59979   0.60260
 Alpha virt. eigenvalues --    0.60812   0.61186   0.61341   0.61468   0.61736
 Alpha virt. eigenvalues --    0.62079   0.62602   0.62861   0.63762   0.63815
 Alpha virt. eigenvalues --    0.64236   0.64785   0.65194   0.65545   0.65873
 Alpha virt. eigenvalues --    0.66101   0.66338   0.67040   0.67083   0.67779
 Alpha virt. eigenvalues --    0.68683   0.69066   0.69258   0.69657   0.70447
 Alpha virt. eigenvalues --    0.70960   0.71297   0.71841   0.72212   0.72570
 Alpha virt. eigenvalues --    0.72794   0.72948   0.73659   0.74125   0.74525
 Alpha virt. eigenvalues --    0.75010   0.75176   0.75660   0.75849   0.76091
 Alpha virt. eigenvalues --    0.76212   0.76362   0.77071   0.77295   0.77440
 Alpha virt. eigenvalues --    0.78001   0.78329   0.78799   0.79116   0.79209
 Alpha virt. eigenvalues --    0.79824   0.80481   0.80605   0.81027   0.81799
 Alpha virt. eigenvalues --    0.81976   0.82507   0.83177   0.83495   0.83541
 Alpha virt. eigenvalues --    0.83944   0.84479   0.84832   0.85525   0.85656
 Alpha virt. eigenvalues --    0.86143   0.86598   0.87015   0.87475   0.88000
 Alpha virt. eigenvalues --    0.88172   0.88821   0.89245   0.89975   0.90361
 Alpha virt. eigenvalues --    0.90873   0.91197   0.91348   0.91958   0.92690
 Alpha virt. eigenvalues --    0.93496   0.93817   0.94457   0.94521   0.94961
 Alpha virt. eigenvalues --    0.95599   0.95686   0.95950   0.96402   0.97170
 Alpha virt. eigenvalues --    0.97504   0.97993   0.98499   0.98812   0.99359
 Alpha virt. eigenvalues --    1.00011   1.00588   1.00900   1.01338   1.01839
 Alpha virt. eigenvalues --    1.02068   1.02530   1.03086   1.03259   1.03313
 Alpha virt. eigenvalues --    1.04423   1.04850   1.05256   1.05776   1.06191
 Alpha virt. eigenvalues --    1.06664   1.06832   1.07319   1.08591   1.09188
 Alpha virt. eigenvalues --    1.09228   1.09927   1.10745   1.11017   1.12024
 Alpha virt. eigenvalues --    1.12153   1.12424   1.12689   1.13032   1.13926
 Alpha virt. eigenvalues --    1.14106   1.14391   1.14727   1.15522   1.16121
 Alpha virt. eigenvalues --    1.16282   1.17084   1.17340   1.18168   1.18332
 Alpha virt. eigenvalues --    1.18929   1.19415   1.19712   1.20306   1.20623
 Alpha virt. eigenvalues --    1.21124   1.21181   1.21521   1.21921   1.22313
 Alpha virt. eigenvalues --    1.22556   1.22742   1.23192   1.23821   1.24245
 Alpha virt. eigenvalues --    1.24372   1.24808   1.25010   1.25663   1.26254
 Alpha virt. eigenvalues --    1.26556   1.27572   1.27759   1.28314   1.28851
 Alpha virt. eigenvalues --    1.29733   1.30042   1.30691   1.30997   1.32072
 Alpha virt. eigenvalues --    1.32917   1.33141   1.33464   1.33619   1.34759
 Alpha virt. eigenvalues --    1.35411   1.35840   1.37089   1.37276   1.37990
 Alpha virt. eigenvalues --    1.38785   1.38877   1.39550   1.40194   1.40692
 Alpha virt. eigenvalues --    1.41293   1.42000   1.42633   1.43859   1.45241
 Alpha virt. eigenvalues --    1.46047   1.46556   1.47272   1.48032   1.48471
 Alpha virt. eigenvalues --    1.49426   1.49659   1.49840   1.50880   1.51984
 Alpha virt. eigenvalues --    1.52623   1.53091   1.53885   1.54636   1.55683
 Alpha virt. eigenvalues --    1.55893   1.56405   1.56739   1.57365   1.58189
 Alpha virt. eigenvalues --    1.58388   1.59318   1.60473   1.61316   1.62117
 Alpha virt. eigenvalues --    1.62785   1.63122   1.63184   1.64132   1.64787
 Alpha virt. eigenvalues --    1.65055   1.65731   1.66268   1.66734   1.67873
 Alpha virt. eigenvalues --    1.68182   1.68738   1.69000   1.69333   1.69828
 Alpha virt. eigenvalues --    1.70270   1.71180   1.71394   1.71717   1.71904
 Alpha virt. eigenvalues --    1.72587   1.72635   1.73573   1.74002   1.74420
 Alpha virt. eigenvalues --    1.74667   1.74931   1.75448   1.76253   1.76348
 Alpha virt. eigenvalues --    1.76689   1.76820   1.77396   1.77647   1.78047
 Alpha virt. eigenvalues --    1.78141   1.78249   1.78935   1.79305   1.79478
 Alpha virt. eigenvalues --    1.79983   1.80382   1.80840   1.81218   1.81466
 Alpha virt. eigenvalues --    1.81853   1.82594   1.82927   1.83149   1.83458
 Alpha virt. eigenvalues --    1.83918   1.84442   1.84696   1.85036   1.85860
 Alpha virt. eigenvalues --    1.86466   1.86555   1.86990   1.87409   1.87967
 Alpha virt. eigenvalues --    1.88182   1.88766   1.89331   1.89429   1.90304
 Alpha virt. eigenvalues --    1.90374   1.90894   1.91352   1.91957   1.92163
 Alpha virt. eigenvalues --    1.92570   1.93621   1.93960   1.94745   1.95002
 Alpha virt. eigenvalues --    1.95522   1.96108   1.96887   1.97777   1.98051
 Alpha virt. eigenvalues --    1.99198   2.00348   2.00693   2.00882   2.01729
 Alpha virt. eigenvalues --    2.02109   2.02861   2.03888   2.04064   2.05054
 Alpha virt. eigenvalues --    2.05859   2.06049   2.07083   2.07899   2.08242
 Alpha virt. eigenvalues --    2.08661   2.09011   2.10140   2.10625   2.10701
 Alpha virt. eigenvalues --    2.11569   2.11816   2.12623   2.13807   2.15008
 Alpha virt. eigenvalues --    2.16280   2.17027   2.18742   2.19102   2.19380
 Alpha virt. eigenvalues --    2.19673   2.20051   2.21018   2.21360   2.22181
 Alpha virt. eigenvalues --    2.22597   2.22751   2.23540   2.23965   2.24335
 Alpha virt. eigenvalues --    2.24859   2.25358   2.25743   2.26528   2.27110
 Alpha virt. eigenvalues --    2.28169   2.29131   2.29326   2.29480   2.29812
 Alpha virt. eigenvalues --    2.30066   2.31022   2.31328   2.32243   2.32943
 Alpha virt. eigenvalues --    2.33576   2.33921   2.34198   2.34499   2.34898
 Alpha virt. eigenvalues --    2.34940   2.35186   2.36127   2.37243   2.37856
 Alpha virt. eigenvalues --    2.38631   2.39169   2.40013   2.41077   2.41535
 Alpha virt. eigenvalues --    2.42180   2.42919   2.43774   2.44434   2.44642
 Alpha virt. eigenvalues --    2.45669   2.46155   2.46731   2.47184   2.47700
 Alpha virt. eigenvalues --    2.48362   2.49755   2.49878   2.50754   2.51955
 Alpha virt. eigenvalues --    2.53251   2.54296   2.54753   2.55879   2.56431
 Alpha virt. eigenvalues --    2.56551   2.57952   2.58968   2.59854   2.60726
 Alpha virt. eigenvalues --    2.61083   2.61418   2.62793   2.63657   2.64152
 Alpha virt. eigenvalues --    2.65328   2.66036   2.66248   2.67006   2.67410
 Alpha virt. eigenvalues --    2.67788   2.68038   2.68504   2.69158   2.69673
 Alpha virt. eigenvalues --    2.70877   2.71288   2.72028   2.72475   2.73198
 Alpha virt. eigenvalues --    2.73716   2.74581   2.75311   2.76757   2.77241
 Alpha virt. eigenvalues --    2.78060   2.78659   2.78959   2.79290   2.80653
 Alpha virt. eigenvalues --    2.80908   2.81037   2.81393   2.81969   2.82558
 Alpha virt. eigenvalues --    2.82899   2.83111   2.83870   2.83920   2.84781
 Alpha virt. eigenvalues --    2.85194   2.86141   2.86780   2.86995   2.87222
 Alpha virt. eigenvalues --    2.88077   2.88865   2.90084   2.91609   2.93834
 Alpha virt. eigenvalues --    2.95192   2.96128   2.97568   2.97867   2.99088
 Alpha virt. eigenvalues --    3.00023   3.01007   3.02635   3.05153   3.06663
 Alpha virt. eigenvalues --    3.08232   3.09975   3.11477   3.13657   3.14612
 Alpha virt. eigenvalues --    3.15487   3.16351   3.17140   3.18443   3.20070
 Alpha virt. eigenvalues --    3.22703   3.22943   3.23849   3.25433   3.27116
 Alpha virt. eigenvalues --    3.46317   3.47111   3.47700   3.50160   3.50694
 Alpha virt. eigenvalues --    3.52852   3.55681   3.56296   3.57875   3.60394
 Alpha virt. eigenvalues --    3.63362   3.70671   3.75756
          Condensed to atoms (all electrons):
 Mulliken charges:
               1
     1  N   -0.307942
     2  C    0.177815
     3  C    0.042013
     4  N   -0.239206
     5  C    0.114895
     6  H    0.026296
     7  N   -0.288404
     8  C    0.141187
     9  H    0.013286
    10  N   -0.287841
    11  C    0.234889
    12  C    0.086847
    13  N   -0.038986
    14  H    0.113274
    15  H    0.093284
    16  H    0.029907
    17  H    0.036069
    18  H    0.023527
    19  N   -0.301328
    20  C    0.252683
    21  C    0.189545
    22  N   -0.122775
    23  H    0.117161
    24  H    0.118589
    25  N   -0.307496
    26  C    0.243175
    27  N   -0.145947
    28  H    0.120301
    29  C    0.183311
    30  O   -0.326605
    31  C   -0.023093
    32  N   -0.221315
    33  C    0.133940
    34  H    0.020913
    35  H    0.008448
    36  H    0.032783
    37  H    0.023642
    38  H    0.034430
    39  H    0.062093
    40  H    0.078513
    41  H    0.022742
    42  C   -0.057556
    43  O   -0.274705
    44  C    0.148752
    45  H    0.135235
    46  N   -0.119201
    47  O   -0.346373
    48  C    0.341448
    49  H    0.038613
    50  C    0.156664
    51  C    0.046464
    52  N   -0.279732
    53  H    0.033771
    54  H    0.041038
    55  H    0.018159
    56  H    0.120111
    57  H    0.115940
    58  N   -0.020534
    59  C    0.092189
    60  C    0.232224
    61  N   -0.268112
    62  H    0.028157
    63  C    0.154997
    64  N   -0.299692
    65  H    0.029978
    66  C    0.116138
    67  N   -0.242533
    68  C    0.015235
    69  C    0.180868
    70  N   -0.302164
 Sum of Mulliken charges =  -0.00000
 Mulliken charges with hydrogens summed into heavy atoms:
               1
     1  N   -0.307942
     2  C    0.267318
     3  C    0.042013
     4  N   -0.239206
     5  C    0.141191
     7  N   -0.288404
     8  C    0.154474
    10  N   -0.287841
    11  C    0.234889
    12  C    0.086847
    13  N    0.167572
    19  N   -0.301328
    20  C    0.252683
    21  C    0.254418
    22  N    0.112975
    25  N   -0.307496
    26  C    0.243175
    27  N   -0.025646
    29  C    0.183311
    30  O   -0.326605
    31  C   -0.023093
    32  N   -0.221315
    33  C    0.154853
    42  C   -0.034815
    43  O   -0.274705
    44  C    0.148752
    46  N    0.016034
    47  O   -0.346373
    48  C    0.341448
    50  C    0.195277
    51  C    0.221500
    52  N   -0.279732
    58  N    0.215517
    59  C    0.092189
    60  C    0.232224
    61  N   -0.268112
    63  C    0.183153
    64  N   -0.299692
    66  C    0.146116
    67  N   -0.242533
    68  C    0.015235
    69  C    0.273835
    70  N   -0.302164
 Electronic spatial extent (au):  <R**2>=          22280.9891
 Charge=              0.0000 electrons
 Dipole moment (field-independent basis, Debye):
    X=              4.0824    Y=              3.8684    Z=              6.2356  Tot=              8.3972
 Quadrupole moment (field-independent basis, Debye-Ang):
   XX=           -145.4278   YY=           -229.9428   ZZ=           -253.9744
   XY=              6.7354   XZ=             17.5063   YZ=             12.9241
 Traceless Quadrupole moment (field-independent basis, Debye-Ang):
   XX=             64.3539   YY=            -20.1611   ZZ=            -44.1927
   XY=              6.7354   XZ=             17.5063   YZ=             12.9241
 Octapole moment (field-independent basis, Debye-Ang**2):
  XXX=            -86.6108  YYY=             36.1561  ZZZ=             88.6927  XYY=             17.5278
  XXY=             81.7786  XXZ=             87.1130  XZZ=             65.4983  YZZ=             17.8391
  YYZ=              0.6053  XYZ=             13.9241
 Hexadecapole moment (field-independent basis, Debye-Ang**3):
 XXXX=         -16189.0399 YYYY=          -4148.1470 ZZZZ=          -3471.1665 XXXY=            451.0117
 XXXZ=            504.5435 YYYX=             -5.3649 YYYZ=            261.4781 ZZZX=            234.7585
 ZZZY=            124.8348 XXYY=          -4174.7479 XXZZ=          -4009.7855 YYZZ=          -1138.6342
 XXYZ=            -33.1007 YYXZ=            -45.8551 ZZXY=            -40.8121
 N-N= 5.579992542246D+03 E-N=-1.594094386838D+04  KE= 2.037786167120D+03
 No NMR shielding tensors so no spin-rotation constants.
 Leave Link  601 at Thu Jan 25 06:11:18 2018, MaxMem=  4294967296 cpu:              47.9 elap:               1.7
 (Enter /share/apps/g16/l9999.exe)
 1\1\GINC-COMPUTE-0-3\SP\RwB97XD\CC-pVDZ\C23H27N17O3\SATYA\25-Jan-2018\
 0\\#p wb97xd/cc-pvdz sp scf=(maxcycles=20)\\Base pair stacking\\0,1\N,
 0,0.93908,6.78513,-6.62385\C,0,0.26424,8.03725,-7.01728\C,0,1.41393,4.
 66441,-6.28565\N,0,2.49088,5.38668,-5.79245\C,0,2.16169,6.63543,-6.015
 95\H,0,2.7791,7.49554,-5.75528\N,0,-0.01991,2.89616,-6.90236\C,0,-0.85
 56,3.83449,-7.35926\H,0,-1.78099,3.46059,-7.79527\N,0,-0.72042,5.15911
 ,-7.35844\C,0,0.4496,5.51276,-6.80128\C,0,1.14908,3.2842,-6.34741\N,0,
 1.98459,2.34903,-5.89075\H,0,2.86083,2.59057,-5.47234\H,0,1.76327,1.37
 563,-5.95127\H,0,0.83487,8.53367,-7.6716\H,0,-0.61639,7.82377,-7.43924
 \H,0,0.11524,8.60635,-6.20863\N,0,-0.61274,5.34119,-3.45014\C,0,-1.013
 42,4.02817,-3.50923\C,0,-1.47717,6.51002,-3.70952\N,0,-3.49487,1.66279
 ,-4.06527\H,0,-3.58039,0.6669,-4.0543\H,0,-4.31651,2.18626,-4.29245\N,
 0,-2.25415,3.58871,-3.81175\C,0,-2.3311,2.26995,-3.78794\N,0,-1.27497,
 1.44301,-3.49085\H,0,-1.42566,0.4459,-3.49648\C,0,0.01035,1.87324,-3.1
 7664\O,0,0.8928,1.04372,-2.92383\C,0,0.10853,3.28773,-3.19817\N,0,1.19
 178,4.11916,-2.94881\C,0,0.71784,5.32487,-3.10964\H,0,1.29773,6.24088,
 -2.99168\H,0,-1.10861,7.03586,-4.47533\H,0,-2.39885,6.19684,-3.93469\H
 ,0,-1.5124,7.08796,-2.89493\H,0,-2.6617,-4.41656,-4.32191\H,0,-2.83529
 ,-4.45357,-2.56887\H,0,-3.18404,-2.97036,-3.4576\H,0,1.95136,-4.7003,-
 2.9856\C,0,1.15489,-3.95877,-3.04882\O,0,2.61869,-2.10122,-2.86466\C,0
 ,1.48645,-2.56808,-2.98663\H,0,0.59954,-0.72435,-3.03554\N,0,0.40502,-
 1.71494,-3.07571\O,0,-1.80459,-1.23402,-3.28436\C,0,-0.91512,-2.0638,-
 3.2138\H,0,-0.42835,-5.37451,-3.23548\C,0,-0.12364,-4.33011,-3.18326\C
 ,0,-2.55049,-3.84374,-3.4133\N,0,-1.15442,-3.42292,-3.26618\H,0,-2.248
 34,-4.64451,-7.82685\H,0,-2.74844,-3.31239,-7.02844\H,0,-2.65196,-4.74
 3,-6.24862\H,0,3.60784,-0.88628,-5.24879\H,0,3.57956,-2.58821,-5.36168
 \N,0,3.08744,-1.71998,-5.43392\C,0,1.79465,-1.67697,-5.76258\C,0,-0.30
 915,-2.61447,-6.35995\N,0,-0.94427,-1.43421,-6.44947\H,0,-0.54633,0.56
 358,-6.22347\C,0,-0.11054,-0.43335,-6.17367\N,0,1.1846,-0.47437,-5.844
 28\H,0,0.05189,-5.82546,-6.46673\C,0,0.19262,-4.7491,-6.36385\N,0,1.32
 399,-4.17324,-6.03815\C,0,1.01973,-2.81968,-6.03211\C,0,-2.23316,-4.16
 524,-6.94932\N,0,-0.83795,-3.86544,-6.57313\\Version=EM64L-G16RevA.03\
 State=1-A\HF=-2048.7457089\RMSD=6.818e-09\Dipole=-2.8274458,-1.5549218
 ,-0.7087879\Quadrupole=-12.2277454,47.3189392,-35.0911938,14.1398867,-
 8.5707074,0.3456962\PG=C01 [X(C23H27N17O3)]\\@


 SUCCESS IS NEVER CERTAIN,
 FAILURE IS NEVER FINAL.
 Job cpu time:       0 days  6 hours 16 minutes 16.4 seconds.
 Elapsed time:       0 days  0 hours 12 minutes 11.5 seconds.
 File lengths (MBytes):  RWF=    298 Int=      0 D2E=      0 Chk=     33 Scr=      1
 Normal termination of Gaussian 16 at Thu Jan 25 06:11:19 2018.
