 Entering Gaussian System, Link 0=g16
 Input=str5.10.1.0.com
 Output=str5.10.1.0.log
 Initial command:
 /share/apps/g16/l1.exe "/state/partition1/scr/Gau-31279.inp" -scrdir="/state/partition1/scr/"
 Entering Link 1 = /share/apps/g16/l1.exe PID=     31280.
  
 Copyright (c) 1988,1990,1992,1993,1995,1998,2003,2009,2016,
            Gaussian, Inc.  All Rights Reserved.
  
 This is part of the Gaussian(R) 16 program.  It is based on
 the Gaussian(R) 09 system (copyright 2009, Gaussian, Inc.),
 the Gaussian(R) 03 system (copyright 2003, Gaussian, Inc.),
 the Gaussian(R) 98 system (copyright 1998, Gaussian, Inc.),
 the Gaussian(R) 94 system (copyright 1995, Gaussian, Inc.),
 the Gaussian 92(TM) system (copyright 1992, Gaussian, Inc.),
 the Gaussian 90(TM) system (copyright 1990, Gaussian, Inc.),
 the Gaussian 88(TM) system (copyright 1988, Gaussian, Inc.),
 the Gaussian 86(TM) system (copyright 1986, Carnegie Mellon
 University), and the Gaussian 82(TM) system (copyright 1983,
 Carnegie Mellon University). Gaussian is a federally registered
 trademark of Gaussian, Inc.
  
 This software contains proprietary and confidential information,
 including trade secrets, belonging to Gaussian, Inc.
  
 This software is provided under written license and may be
 used, copied, transmitted, or stored only in accord with that
 written license.
  
 The following legend is applicable only to US Government
 contracts under FAR:
  
                    RESTRICTED RIGHTS LEGEND
  
 Use, reproduction and disclosure by the US Government is
 subject to restrictions as set forth in subparagraphs (a)
 and (c) of the Commercial Computer Software - Restricted
 Rights clause in FAR 52.227-19.
  
 Gaussian, Inc.
 340 Quinnipiac St., Bldg. 40, Wallingford CT 06492
  
  
 ---------------------------------------------------------------
 Warning -- This program may not be used in any manner that
 competes with the business of Gaussian, Inc. or will provide
 assistance to any competitor of Gaussian, Inc.  The licensee
 of this program is prohibited from giving any competitor of
 Gaussian, Inc. access to this program.  By using this program,
 the user acknowledges that Gaussian, Inc. is engaged in the
 business of creating and licensing software in the field of
 computational chemistry and represents and warrants to the
 licensee that it is not a competitor of Gaussian, Inc. and that
 it will not use this program in any manner prohibited above.
 ---------------------------------------------------------------
  

 Cite this work as:
 Gaussian 16, Revision A.03,
 M. J. Frisch, G. W. Trucks, H. B. Schlegel, G. E. Scuseria, 
 M. A. Robb, J. R. Cheeseman, G. Scalmani, V. Barone, 
 G. A. Petersson, H. Nakatsuji, X. Li, M. Caricato, A. V. Marenich, 
 J. Bloino, B. G. Janesko, R. Gomperts, B. Mennucci, H. P. Hratchian, 
 J. V. Ortiz, A. F. Izmaylov, J. L. Sonnenberg, D. Williams-Young, 
 F. Ding, F. Lipparini, F. Egidi, J. Goings, B. Peng, A. Petrone, 
 T. Henderson, D. Ranasinghe, V. G. Zakrzewski, J. Gao, N. Rega, 
 G. Zheng, W. Liang, M. Hada, M. Ehara, K. Toyota, R. Fukuda, 
 J. Hasegawa, M. Ishida, T. Nakajima, Y. Honda, O. Kitao, H. Nakai, 
 T. Vreven, K. Throssell, J. A. Montgomery, Jr., J. E. Peralta, 
 F. Ogliaro, M. J. Bearpark, J. J. Heyd, E. N. Brothers, K. N. Kudin, 
 V. N. Staroverov, T. A. Keith, R. Kobayashi, J. Normand, 
 K. Raghavachari, A. P. Rendell, J. C. Burant, S. S. Iyengar, 
 J. Tomasi, M. Cossi, J. M. Millam, M. Klene, C. Adamo, R. Cammi, 
 J. W. Ochterski, R. L. Martin, K. Morokuma, O. Farkas, 
 J. B. Foresman, and D. J. Fox, Gaussian, Inc., Wallingford CT, 2016.
 
 ******************************************
 Gaussian 16:  EM64L-G16RevA.03 25-Dec-2016
                25-Jan-2018 
 ******************************************
 %nprocshared=32
 Will use up to   32 processors via shared memory.
 %mem=32GB
 %chk=allatoms_t.chk
 ---------------------------------------
 #p wb97xd/cc-pvdz sp scf=(maxcycles=20)
 ---------------------------------------
 1/38=1,172=1/1;
 2/12=2,17=6,18=5,40=1/2;
 3/5=16,11=2,25=1,30=1,74=-58/1,2,3;
 4//1;
 5/5=2,7=20,38=5/2;
 6/7=2,8=2,9=2,10=2,28=1/1;
 99/5=1,9=1/99;
 Leave Link    1 at Thu Jan 25 07:01:57 2018, MaxMem=  4294967296 cpu:               2.7 elap:               0.1
 (Enter /share/apps/g16/l101.exe)
 ------------------
 Base pair stacking
 ------------------
 Symbolic Z-matrix:
 Charge =  0 Multiplicity = 1
 N                     0.68175   3.8106   -6.65722 
 C                     0.00691   5.06272  -7.05065 
 C                     1.1566    1.68988  -6.31901 
 N                     2.23354   2.41215  -5.82582 
 C                     1.90436   3.6609   -6.04931 
 H                     2.52177   4.52101  -5.78864 
 N                    -0.27724  -0.07837  -6.93573 
 C                    -1.11293   0.85996  -7.39263 
 H                    -2.03832   0.48606  -7.82863 
 N                    -0.97775   2.18458  -7.3918 
 C                     0.19226   2.53823  -6.83465 
 C                     0.89174   0.30967  -6.38078 
 N                     1.72725  -0.6255   -5.92412 
 H                     2.6035   -0.38396  -5.5057 
 H                     1.50594  -1.5989   -5.98464 
 H                     0.57753   5.55914  -7.70497 
 H                    -0.87372   4.84925  -7.47261 
 H                    -0.1421    5.63181  -6.242 
 N                    -0.67769   3.84828  -3.45556 
 C                    -1.07837   2.53526  -3.51466 
 C                    -1.54212   5.01712  -3.71495 
 N                    -3.55981   0.16989  -4.07069 
 H                    -3.64533  -0.82601  -4.05972 
 H                    -4.38145   0.69335  -4.29788 
 N                    -2.3191    2.09581  -3.81718 
 C                    -2.39605   0.77705  -3.79337 
 N                    -1.33991  -0.04989  -3.49627 
 H                    -1.4906   -1.047    -3.50191 
 C                    -0.0546    0.38033  -3.18206 
 O                     0.82786  -0.44918  -2.92925 
 C                     0.04359   1.79482  -3.2036 
 N                     1.12684   2.62626  -2.95423 
 C                     0.65289   3.83196  -3.11506 
 H                     1.23278   4.74798  -2.9971 
 H                    -1.17355   5.54296  -4.48075 
 H                    -2.46379   4.70394  -3.94011 
 H                    -1.57734   5.59505  -2.90035 
 H                    -2.72664  -5.90947  -4.32734 
 H                    -2.90023  -5.94647  -2.5743 
 H                    -3.24898  -4.46327  -3.46303 
 H                     1.88642  -6.1932   -2.99103 
 C                     1.08995  -5.45167  -3.05424 
 O                     2.55374  -3.59412  -2.87009 
 C                     1.42151  -4.06098  -2.99206 
 H                     0.53459  -2.21726  -3.04096 
 N                     0.34008  -3.20785  -3.08113 
 O                    -1.86953  -2.72693  -3.28978 
 C                    -0.98006  -3.55671  -3.21922 
 H                    -0.4933   -6.86741  -3.24091 
 C                    -0.18859  -5.82301  -3.18869 
 C                    -2.61543  -5.33664  -3.41873 
 N                    -1.21936  -4.91582  -3.27161 
 H                    -2.50568  -7.61904  -7.86022 
 H                    -3.00577  -6.28692  -7.06181 
 H                    -2.90929  -7.71754  -6.28199 
 H                     3.3505   -3.86081  -5.28216 
 H                     3.32223  -5.56274  -5.39505 
 N                     2.83011  -4.69451  -5.46728 
 C                     1.53732  -4.6515   -5.79594 
 C                    -0.56648  -5.589    -6.39332 
 N                    -1.20161  -4.40874  -6.48283 
 H                    -0.80366  -2.41095  -6.25684 
 C                    -0.36787  -3.40788  -6.20703 
 N                     0.92727  -3.4489   -5.87764 
 H                    -0.20545  -8.79999  -6.5001 
 C                    -0.06471  -7.72363  -6.39722 
 N                     1.06666  -7.14777  -6.07152 
 C                     0.7624   -5.79421  -6.06548 
 C                    -2.49049  -7.13977  -6.98268 
 N                    -1.09529  -6.83997  -6.6065 
 
 ITRead=  0  0  0  0  0  0  0  0  0  0  0  0  0  0  0  0  0  0  0  0
 ITRead=  0  0  0  0  0  0  0  0  0  0  0  0  0  0  0  0  0  0  0  0
 ITRead=  0  0  0  0  0  0  0  0  0  0  0  0  0  0  0  0  0  0  0  0
 ITRead=  0  0  0  0  0  0  0  0  0  0
 MicOpt= -1 -1 -1 -1 -1 -1 -1 -1 -1 -1 -1 -1 -1 -1 -1 -1 -1 -1 -1 -1
 MicOpt= -1 -1 -1 -1 -1 -1 -1 -1 -1 -1 -1 -1 -1 -1 -1 -1 -1 -1 -1 -1
 MicOpt= -1 -1 -1 -1 -1 -1 -1 -1 -1 -1 -1 -1 -1 -1 -1 -1 -1 -1 -1 -1
 MicOpt= -1 -1 -1 -1 -1 -1 -1 -1 -1 -1
 NAtoms=     70 NQM=       70 NQMF=       0 NMMI=      0 NMMIF=      0
                NMic=       0 NMicF=      0.
                    Isotopes and Nuclear Properties:
 (Nuclear quadrupole moments (NQMom) in fm**2, nuclear magnetic moments (NMagM)
  in nuclear magnetons)

  Atom         1           2           3           4           5           6           7           8           9          10
 IAtWgt=          14          12          12          14          12           1          14          12           1          14
 AtmWgt=  14.0030740  12.0000000  12.0000000  14.0030740  12.0000000   1.0078250  14.0030740  12.0000000   1.0078250  14.0030740
 NucSpn=           2           0           0           2           0           1           2           0           1           2
 AtZEff=  -0.0000000  -0.0000000  -0.0000000  -0.0000000  -0.0000000  -0.0000000  -0.0000000  -0.0000000  -0.0000000  -0.0000000
 NQMom=    2.0440000   0.0000000   0.0000000   2.0440000   0.0000000   0.0000000   2.0440000   0.0000000   0.0000000   2.0440000
 NMagM=    0.4037610   0.0000000   0.0000000   0.4037610   0.0000000   2.7928460   0.4037610   0.0000000   2.7928460   0.4037610
 AtZNuc=   7.0000000   6.0000000   6.0000000   7.0000000   6.0000000   1.0000000   7.0000000   6.0000000   1.0000000   7.0000000

  Atom        11          12          13          14          15          16          17          18          19          20
 IAtWgt=          12          12          14           1           1           1           1           1          14          12
 AtmWgt=  12.0000000  12.0000000  14.0030740   1.0078250   1.0078250   1.0078250   1.0078250   1.0078250  14.0030740  12.0000000
 NucSpn=           0           0           2           1           1           1           1           1           2           0
 AtZEff=  -0.0000000  -0.0000000  -0.0000000  -0.0000000  -0.0000000  -0.0000000  -0.0000000  -0.0000000  -0.0000000  -0.0000000
 NQMom=    0.0000000   0.0000000   2.0440000   0.0000000   0.0000000   0.0000000   0.0000000   0.0000000   2.0440000   0.0000000
 NMagM=    0.0000000   0.0000000   0.4037610   2.7928460   2.7928460   2.7928460   2.7928460   2.7928460   0.4037610   0.0000000
 AtZNuc=   6.0000000   6.0000000   7.0000000   1.0000000   1.0000000   1.0000000   1.0000000   1.0000000   7.0000000   6.0000000

  Atom        21          22          23          24          25          26          27          28          29          30
 IAtWgt=          12          14           1           1          14          12          14           1          12          16
 AtmWgt=  12.0000000  14.0030740   1.0078250   1.0078250  14.0030740  12.0000000  14.0030740   1.0078250  12.0000000  15.9949146
 NucSpn=           0           2           1           1           2           0           2           1           0           0
 AtZEff=  -0.0000000  -0.0000000  -0.0000000  -0.0000000  -0.0000000  -0.0000000  -0.0000000  -0.0000000  -0.0000000  -0.0000000
 NQMom=    0.0000000   2.0440000   0.0000000   0.0000000   2.0440000   0.0000000   2.0440000   0.0000000   0.0000000   0.0000000
 NMagM=    0.0000000   0.4037610   2.7928460   2.7928460   0.4037610   0.0000000   0.4037610   2.7928460   0.0000000   0.0000000
 AtZNuc=   6.0000000   7.0000000   1.0000000   1.0000000   7.0000000   6.0000000   7.0000000   1.0000000   6.0000000   8.0000000

  Atom        31          32          33          34          35          36          37          38          39          40
 IAtWgt=          12          14          12           1           1           1           1           1           1           1
 AtmWgt=  12.0000000  14.0030740  12.0000000   1.0078250   1.0078250   1.0078250   1.0078250   1.0078250   1.0078250   1.0078250
 NucSpn=           0           2           0           1           1           1           1           1           1           1
 AtZEff=  -0.0000000  -0.0000000  -0.0000000  -0.0000000  -0.0000000  -0.0000000  -0.0000000  -0.0000000  -0.0000000  -0.0000000
 NQMom=    0.0000000   2.0440000   0.0000000   0.0000000   0.0000000   0.0000000   0.0000000   0.0000000   0.0000000   0.0000000
 NMagM=    0.0000000   0.4037610   0.0000000   2.7928460   2.7928460   2.7928460   2.7928460   2.7928460   2.7928460   2.7928460
 AtZNuc=   6.0000000   7.0000000   6.0000000   1.0000000   1.0000000   1.0000000   1.0000000   1.0000000   1.0000000   1.0000000

  Atom        41          42          43          44          45          46          47          48          49          50
 IAtWgt=           1          12          16          12           1          14          16          12           1          12
 AtmWgt=   1.0078250  12.0000000  15.9949146  12.0000000   1.0078250  14.0030740  15.9949146  12.0000000   1.0078250  12.0000000
 NucSpn=           1           0           0           0           1           2           0           0           1           0
 AtZEff=  -0.0000000  -0.0000000  -0.0000000  -0.0000000  -0.0000000  -0.0000000  -0.0000000  -0.0000000  -0.0000000  -0.0000000
 NQMom=    0.0000000   0.0000000   0.0000000   0.0000000   0.0000000   2.0440000   0.0000000   0.0000000   0.0000000   0.0000000
 NMagM=    2.7928460   0.0000000   0.0000000   0.0000000   2.7928460   0.4037610   0.0000000   0.0000000   2.7928460   0.0000000
 AtZNuc=   1.0000000   6.0000000   8.0000000   6.0000000   1.0000000   7.0000000   8.0000000   6.0000000   1.0000000   6.0000000

  Atom        51          52          53          54          55          56          57          58          59          60
 IAtWgt=          12          14           1           1           1           1           1          14          12          12
 AtmWgt=  12.0000000  14.0030740   1.0078250   1.0078250   1.0078250   1.0078250   1.0078250  14.0030740  12.0000000  12.0000000
 NucSpn=           0           2           1           1           1           1           1           2           0           0
 AtZEff=  -0.0000000  -0.0000000  -0.0000000  -0.0000000  -0.0000000  -0.0000000  -0.0000000  -0.0000000  -0.0000000  -0.0000000
 NQMom=    0.0000000   2.0440000   0.0000000   0.0000000   0.0000000   0.0000000   0.0000000   2.0440000   0.0000000   0.0000000
 NMagM=    0.0000000   0.4037610   2.7928460   2.7928460   2.7928460   2.7928460   2.7928460   0.4037610   0.0000000   0.0000000
 AtZNuc=   6.0000000   7.0000000   1.0000000   1.0000000   1.0000000   1.0000000   1.0000000   7.0000000   6.0000000   6.0000000

  Atom        61          62          63          64          65          66          67          68          69          70
 IAtWgt=          14           1          12          14           1          12          14          12          12          14
 AtmWgt=  14.0030740   1.0078250  12.0000000  14.0030740   1.0078250  12.0000000  14.0030740  12.0000000  12.0000000  14.0030740
 NucSpn=           2           1           0           2           1           0           2           0           0           2
 AtZEff=  -0.0000000  -0.0000000  -0.0000000  -0.0000000  -0.0000000  -0.0000000  -0.0000000  -0.0000000  -0.0000000  -0.0000000
 NQMom=    2.0440000   0.0000000   0.0000000   2.0440000   0.0000000   0.0000000   2.0440000   0.0000000   0.0000000   2.0440000
 NMagM=    0.4037610   2.7928460   0.0000000   0.4037610   2.7928460   0.0000000   0.4037610   0.0000000   0.0000000   0.4037610
 AtZNuc=   7.0000000   1.0000000   6.0000000   7.0000000   1.0000000   6.0000000   7.0000000   6.0000000   6.0000000   7.0000000
 Leave Link  101 at Thu Jan 25 07:01:57 2018, MaxMem=  4294967296 cpu:               7.7 elap:               0.3
 (Enter /share/apps/g16/l202.exe)
 Stoichiometry    C23H27N17O3
 Framework group  C1[X(C23H27N17O3)]
 Deg. of freedom   204
 Full point group                 C1      NOp   1
 Largest Abelian subgroup         C1      NOp   1
 Largest concise Abelian subgroup C1      NOp   1
                         Standard orientation:                         
 ---------------------------------------------------------------------
 Center     Atomic      Atomic             Coordinates (Angstroms)
 Number     Number       Type             X           Y           Z
 ---------------------------------------------------------------------
      1          7           0        5.077093   -1.950091   -0.486910
      2          6           0        6.318810   -1.868350   -1.280294
      3          6           0        2.964894   -1.946528    0.126215
      4          7           0        3.701133   -2.211000    1.271953
      5          6           0        4.944191   -2.202557    0.856719
      6          1           0        5.811877   -2.376151    1.493835
      7          7           0        1.178826   -1.554681   -1.363539
      8          6           0        2.104865   -1.423294   -2.318938
      9          1           0        1.718723   -1.208194   -3.314362
     10          7           0        3.430045   -1.517279   -2.229722
     11          6           0        3.799288   -1.783371   -0.965893
     12          6           0        1.582412   -1.822241   -0.102354
     13          7           0        0.659527   -1.953742    0.852711
     14          1           0        0.912768   -2.151874    1.800257
     15          1           0       -0.315945   -1.858755    0.653765
     16          1           0        6.807509   -2.739318   -1.227732
     17          1           0        6.093552   -1.670669   -2.233872
     18          1           0        6.900332   -1.139484   -0.918951
     19          7           0        5.160085    1.422160    0.362300
     20          6           0        3.844078    1.629945    0.026132
     21          6           0        6.319699    1.726048   -0.500055
     22          7           0        1.456201    2.708732   -2.253332
     23          1           0        0.460161    2.778901   -2.300565
     24          1           0        1.971301    3.018773   -3.052872
     25          7           0        3.392858    2.142519   -1.139078
     26          6           0        2.074266    2.220915   -1.167091
     27          7           0        1.258179    1.827938   -0.134085
     28          1           0        0.260296    1.924243   -0.243270
     29          6           0        1.700610    1.297846    1.073846
     30          8           0        0.880265    0.974494    1.941724
     31          6           0        3.115072    1.207492    1.118783
     32          7           0        3.956477    0.743823    2.120760
     33          6           0        5.156726    0.890062    1.628598
     34          1           0        6.077753    0.624846    2.148838
     35          1           0        6.834860    0.887977   -0.676261
     36          1           0        5.997767    2.106334   -1.366078
     37          1           0        6.910786    2.390843   -0.044555
     38          1           0       -4.621876    2.060668   -1.656965
     39          1           0       -4.630908    3.562963   -0.736269
     40          1           0       -3.164518    3.050759   -1.572151
     41          1           0       -4.858065    0.342314    2.830575
     42          6           0       -4.122084    0.765697    2.146978
     43          8           0       -2.253701    0.010147    3.398126
     44          6           0       -2.728749    0.601350    2.428803
     45          1           0       -0.891009    1.079947    1.665929
     46          7           0       -1.883185    1.175134    1.500876
     47          8           0       -1.417971    2.338650   -0.393062
     48          6           0       -2.241554    1.865822    0.370362
     49          1           0       -5.549425    1.587051    0.792754
     50          6           0       -4.502640    1.434382    1.052139
     51          6           0       -4.033529    2.711997   -1.027924
     52          7           0       -3.602643    1.981940    0.167525
     53          1           0       -6.388250   -0.871538   -3.589523
     54          1           0       -5.045920    0.053715   -3.525129
     55          1           0       -6.462926    0.630968   -2.956821
     56          1           0       -2.555746   -2.390753    2.580520
     57          1           0       -4.259437   -2.446940    2.514265
     58          7           0       -3.395245   -2.215805    2.065966
     59          6           0       -3.364797   -1.697357    0.836553
     60          6           0       -4.323618   -0.893621   -1.187407
     61          7           0       -3.148518   -0.592947   -1.764599
     62          1           0       -1.145106   -0.672802   -1.339669
     63          6           0       -2.138659   -0.886520   -0.947954
     64          7           0       -2.167093   -1.405826    0.283744
     65          1           0       -7.533892   -1.165247   -0.918032
     66          6           0       -6.455221   -1.178825   -0.759200
     67          7           0       -5.867832   -1.608215    0.330888
     68          6           0       -4.516056   -1.432927    0.072604
     69          6           0       -5.894492   -0.186060   -3.054426
     70          7           0       -5.580833   -0.731854   -1.719622
 ---------------------------------------------------------------------
 Rotational constants (GHZ):           0.1730725           0.0514028           0.0499409
 Leave Link  202 at Thu Jan 25 07:01:57 2018, MaxMem=  4294967296 cpu:               0.4 elap:               0.0
 (Enter /share/apps/g16/l301.exe)
 Standard basis: CC-pVDZ (5D, 7F)
 Ernie: Thresh=  0.10000D-02 Tol=  0.10000D-05 Strict=F.
 Ernie:  86 primitive shells out of 1081 were deleted.
 There are   780 symmetry adapted cartesian basis functions of A   symmetry.
 There are   737 symmetry adapted basis functions of A   symmetry.
   737 basis functions,  1608 primitive gaussians,   780 cartesian basis functions
   154 alpha electrons      154 beta electrons
       nuclear repulsion energy      5568.5972772404 Hartrees.
 IExCor= 4639 DFT=T Ex+Corr=wB97XD ExCW=0 ScaHFX=  1.000000
 ScaDFX=  1.000000  1.000000  1.000000  1.000000 ScalE2=  1.000000  1.000000
 IRadAn=      5 IRanWt=     -1 IRanGd=            0 ICorTp=0 IEmpDi=121
 HFx  wShort=  0.000000 wLong=  0.200000 cFull=  0.222036 cShort=  0.000000 cLong=  0.777964
 DFx  wShort=  0.000000 wLong=  0.200000 cFull=  0.000000 cShort=  0.000000 cLong=  1.000000
 NAtoms=   70 NActive=   70 NUniq=   70 SFac= 1.00D+00 NAtFMM=   60 NAOKFM=T Big=T
 Integral buffers will be    131072 words long.
 Raffenetti 2 integral format.
 Two-electron integral symmetry is turned on.
 R6Disp:  Grimme-D2 Dispersion energy=       -0.0764856712 Hartrees.
 Nuclear repulsion after empirical dispersion term =     5568.5207915693 Hartrees.
 Leave Link  301 at Thu Jan 25 07:01:57 2018, MaxMem=  4294967296 cpu:               3.0 elap:               0.1
 (Enter /share/apps/g16/l302.exe)
 NPDir=0 NMtPBC=     1 NCelOv=     1 NCel=       1 NClECP=     1 NCelD=      1
         NCelK=      1 NCelE2=     1 NClLst=     1 CellRange=     0.0.
 One-electron integrals computed using PRISM.
 One-electron integral symmetry used in STVInt
 NBasis=   737 RedAO= T EigKep=  6.12D-04  NBF=   737
 NBsUse=   737 1.00D-06 EigRej= -1.00D+00 NBFU=   737
 Precomputing XC quadrature grid using
 IXCGrd= 4 IRadAn=           5 IRanWt=          -1 IRanGd=           0 AccXCQ= 0.00D+00.
 Generated NRdTot=       0 NPtTot=           0 NUsed=           0 NTot=          32
 NSgBfM=   765   764   765   765   765 MxSgAt=    70 MxSgA2=    70.
 Leave Link  302 at Thu Jan 25 07:02:02 2018, MaxMem=  4294967296 cpu:             135.4 elap:               4.3
 (Enter /share/apps/g16/l303.exe)
 DipDrv:  MaxL=1.
 Leave Link  303 at Thu Jan 25 07:02:02 2018, MaxMem=  4294967296 cpu:              12.5 elap:               0.4
 (Enter /share/apps/g16/l401.exe)
 ExpMin= 1.22D-01 ExpMax= 1.17D+04 ExpMxC= 4.01D+02 IAcc=3 IRadAn=         5 AccDes= 0.00D+00
 Harris functional with IExCor= 4639 and IRadAn=       5 diagonalized for initial guess.
 HarFok:  IExCor= 4639 AccDes= 0.00D+00 IRadAn=         5 IDoV= 1 UseB2=F ITyADJ=14
 ICtDFT=  3500011 ScaDFX=  1.000000  1.000000  1.000000  1.000000
 FoFCou: FMM=F IPFlag=           0 FMFlag=      100000 FMFlg1=        2001
         NFxFlg=           0 DoJE=T BraDBF=F KetDBF=T FulRan=T
         wScrn=  0.000000 ICntrl=       500 IOpCl=  0 I1Cent=   200000004 NGrid=           0
         NMat0=    1 NMatS0=      1 NMatT0=    0 NMatD0=    1 NMtDS0=    0 NMtDT0=    0
 Petite list used in FoFCou.
 Harris En= -1963.87368129564    
 JPrj=0 DoOrth=F DoCkMO=F.
 Leave Link  401 at Thu Jan 25 07:02:15 2018, MaxMem=  4294967296 cpu:             405.9 elap:              12.7
 (Enter /share/apps/g16/l502.exe)
 Integral symmetry usage will be decided dynamically.
 Closed shell SCF:
 Using DIIS extrapolation, IDIIS=  1040.
 NGot=  4294967296 LenX=  4293717438 LenY=  4293108258
 Requested convergence on RMS density matrix=1.00D-08 within  20 cycles.
 Requested convergence on MAX density matrix=1.00D-06.
 Requested convergence on             energy=1.00D-06.
 No special actions if energy rises.
 Fock matrices will be formed incrementally for  20 cycles.
 Integral accuracy reduced to 1.0D-05 until final iterations.

 Cycle   1  Pass 0  IDiag  1:
 FoFJK:  IHMeth= 1 ICntrl=       0 DoSepK=T KAlg= 0 I1Cent=           0 FoldK=F
 IRaf=         1 NMat=       1 IRICut=       1 DoRegI=T DoRafI=F ISym2E= 0 IDoP0=0 IntGTp=1.
 FoFCou: FMM=T IPFlag=           0 FMFlag=      100000 FMFlg1=        2001
         NFxFlg=           0 DoJE=T BraDBF=F KetDBF=F FulRan=T
         wScrn=  0.000000 ICntrl=       500 IOpCl=  0 I1Cent=           0 NGrid=           0
         NMat0=    1 NMatS0=      1 NMatT0=    0 NMatD0=    1 NMtDS0=    0 NMtDT0=    0
 Symmetry not used in FoFCou.
 FMM levels:  10  Number of levels for PrismC:   9
 E= -2048.30483536051    
 DIIS: error= 2.37D-02 at cycle   1 NSaved=   1.
 NSaved= 1 IEnMin= 1 EnMin= -2048.30483536051     IErMin= 1 ErrMin= 2.37D-02
 ErrMax= 2.37D-02  0.00D+00 EMaxC= 1.00D-01 BMatC= 8.37D-01 BMatP= 8.37D-01
 IDIUse=3 WtCom= 7.63D-01 WtEn= 2.37D-01
 Coeff-Com:  0.100D+01
 Coeff-En:   0.100D+01
 Coeff:      0.100D+01
 Gap=     0.247 Goal=   None    Shift=    0.000
 GapD=    0.247 DampG=1.000 DampE=0.500 DampFc=0.5000 IDamp=-1.
 Damping current iteration by 5.00D-01
 RMSDP=1.60D-03 MaxDP=1.20D-01              OVMax= 1.62D-01

 Cycle   2  Pass 0  IDiag  1:
 RMSU=  8.01D-04    CP:  9.98D-01
 E= -2048.49948171667     Delta-E=       -0.194646356167 Rises=F Damp=T
 DIIS: error= 1.30D-02 at cycle   2 NSaved=   2.
 NSaved= 2 IEnMin= 2 EnMin= -2048.49948171667     IErMin= 2 ErrMin= 1.30D-02
 ErrMax= 1.30D-02  0.00D+00 EMaxC= 1.00D-01 BMatC= 1.47D-01 BMatP= 8.37D-01
 IDIUse=3 WtCom= 8.70D-01 WtEn= 1.30D-01
 Coeff-Com: -0.179D+00 0.118D+01
 Coeff-En:   0.000D+00 0.100D+01
 Coeff:     -0.155D+00 0.116D+01
 Gap=     0.336 Goal=   None    Shift=    0.000
 RMSDP=6.10D-04 MaxDP=3.31D-02 DE=-1.95D-01 OVMax= 1.43D-01

 Cycle   3  Pass 0  IDiag  1:
 RMSU=  6.03D-04    CP:  9.94D-01  1.10D+00
 E= -2048.67618922474     Delta-E=       -0.176707508065 Rises=F Damp=F
 DIIS: error= 7.56D-03 at cycle   3 NSaved=   3.
 NSaved= 3 IEnMin= 3 EnMin= -2048.67618922474     IErMin= 3 ErrMin= 7.56D-03
 ErrMax= 7.56D-03  0.00D+00 EMaxC= 1.00D-01 BMatC= 7.16D-02 BMatP= 1.47D-01
 IDIUse=3 WtCom= 9.24D-01 WtEn= 7.56D-02
 Coeff-Com: -0.232D+00 0.561D+00 0.671D+00
 Coeff-En:   0.000D+00 0.000D+00 0.100D+01
 Coeff:     -0.215D+00 0.519D+00 0.696D+00
 Gap=     0.271 Goal=   None    Shift=    0.000
 RMSDP=3.97D-04 MaxDP=2.85D-02 DE=-1.77D-01 OVMax= 5.07D-02

 Cycle   4  Pass 0  IDiag  1:
 RMSU=  2.20D-04    CP:  9.94D-01  1.41D+00  6.38D-01
 E= -2048.73017821489     Delta-E=       -0.053988990149 Rises=F Damp=F
 DIIS: error= 2.63D-03 at cycle   4 NSaved=   4.
 NSaved= 4 IEnMin= 4 EnMin= -2048.73017821489     IErMin= 4 ErrMin= 2.63D-03
 ErrMax= 2.63D-03  0.00D+00 EMaxC= 1.00D-01 BMatC= 1.07D-02 BMatP= 7.16D-02
 IDIUse=3 WtCom= 9.74D-01 WtEn= 2.63D-02
 Coeff-Com: -0.959D-01 0.186D+00 0.376D+00 0.534D+00
 Coeff-En:   0.000D+00 0.000D+00 0.860D-01 0.914D+00
 Coeff:     -0.934D-01 0.181D+00 0.369D+00 0.544D+00
 Gap=     0.273 Goal=   None    Shift=    0.000
 RMSDP=1.38D-04 MaxDP=9.81D-03 DE=-5.40D-02 OVMax= 1.56D-02

 Cycle   5  Pass 0  IDiag  1:
 RMSU=  6.20D-05    CP:  9.94D-01  1.37D+00  7.83D-01  6.23D-01
 E= -2048.73930492516     Delta-E=       -0.009126710274 Rises=F Damp=F
 DIIS: error= 4.35D-04 at cycle   5 NSaved=   5.
 NSaved= 5 IEnMin= 5 EnMin= -2048.73930492516     IErMin= 5 ErrMin= 4.35D-04
 ErrMax= 4.35D-04  0.00D+00 EMaxC= 1.00D-01 BMatC= 2.86D-04 BMatP= 1.07D-02
 IDIUse=3 WtCom= 9.96D-01 WtEn= 4.35D-03
 Coeff-Com: -0.241D-01 0.410D-01 0.118D+00 0.231D+00 0.635D+00
 Coeff-En:   0.000D+00 0.000D+00 0.000D+00 0.000D+00 0.100D+01
 Coeff:     -0.240D-01 0.408D-01 0.117D+00 0.230D+00 0.636D+00
 Gap=     0.273 Goal=   None    Shift=    0.000
 RMSDP=2.74D-05 MaxDP=1.50D-03 DE=-9.13D-03 OVMax= 3.11D-03

 Failed to achieve initial convergence to 1.0D-08 in  6 cycles.
 Switch to full accuracy anyway.
 Cycle   6  Pass 1  IDiag  1:
 E= -2048.73950564426     Delta-E=       -0.000200719095 Rises=F Damp=F
 DIIS: error= 2.18D-04 at cycle   1 NSaved=   1.
 NSaved= 1 IEnMin= 1 EnMin= -2048.73950564426     IErMin= 1 ErrMin= 2.18D-04
 ErrMax= 2.18D-04  0.00D+00 EMaxC= 1.00D-01 BMatC= 7.44D-05 BMatP= 7.44D-05
 IDIUse=3 WtCom= 9.98D-01 WtEn= 2.18D-03
 Coeff-Com:  0.100D+01
 Coeff-En:   0.100D+01
 Coeff:      0.100D+01
 Gap=     0.273 Goal=   None    Shift=    0.000
 RMSDP=2.74D-05 MaxDP=1.50D-03 DE=-2.01D-04 OVMax= 2.42D-03

 Cycle   7  Pass 1  IDiag  1:
 RMSU=  1.11D-04    CP:  1.00D+00
 E= -2048.73956020071     Delta-E=       -0.000054556451 Rises=F Damp=F
 DIIS: error= 1.84D-04 at cycle   2 NSaved=   2.
 NSaved= 2 IEnMin= 2 EnMin= -2048.73956020071     IErMin= 2 ErrMin= 1.84D-04
 ErrMax= 1.84D-04  0.00D+00 EMaxC= 1.00D-01 BMatC= 4.30D-05 BMatP= 7.44D-05
 IDIUse=3 WtCom= 9.98D-01 WtEn= 1.84D-03
 Coeff-Com:  0.408D+00 0.592D+00
 Coeff-En:   0.000D+00 0.100D+01
 Coeff:      0.408D+00 0.592D+00
 Gap=     0.274 Goal=   None    Shift=    0.000
 RMSDP=1.19D-05 MaxDP=7.80D-04 DE=-5.46D-05 OVMax= 1.64D-03

 Cycle   8  Pass 1  IDiag  1:
 RMSU=  1.16D-05    CP:  1.00D+00  1.02D+00
 E= -2048.73959263287     Delta-E=       -0.000032432156 Rises=F Damp=F
 DIIS: error= 9.18D-05 at cycle   3 NSaved=   3.
 NSaved= 3 IEnMin= 3 EnMin= -2048.73959263287     IErMin= 3 ErrMin= 9.18D-05
 ErrMax= 9.18D-05  0.00D+00 EMaxC= 1.00D-01 BMatC= 9.83D-06 BMatP= 4.30D-05
 IDIUse=1 WtCom= 1.00D+00 WtEn= 0.00D+00
 Coeff-Com: -0.179D-01 0.309D+00 0.709D+00
 Coeff:     -0.179D-01 0.309D+00 0.709D+00
 Gap=     0.274 Goal=   None    Shift=    0.000
 RMSDP=5.78D-06 MaxDP=3.55D-04 DE=-3.24D-05 OVMax= 6.03D-04

 Cycle   9  Pass 1  IDiag  1:
 RMSU=  3.99D-06    CP:  1.00D+00  1.05D+00  7.61D-01
 E= -2048.73960240785     Delta-E=       -0.000009774982 Rises=F Damp=F
 DIIS: error= 3.30D-05 at cycle   4 NSaved=   4.
 NSaved= 4 IEnMin= 4 EnMin= -2048.73960240785     IErMin= 4 ErrMin= 3.30D-05
 ErrMax= 3.30D-05  0.00D+00 EMaxC= 1.00D-01 BMatC= 5.71D-07 BMatP= 9.83D-06
 IDIUse=1 WtCom= 1.00D+00 WtEn= 0.00D+00
 Coeff-Com: -0.318D-01 0.870D-01 0.275D+00 0.670D+00
 Coeff:     -0.318D-01 0.870D-01 0.275D+00 0.670D+00
 Gap=     0.274 Goal=   None    Shift=    0.000
 RMSDP=1.56D-06 MaxDP=9.05D-05 DE=-9.77D-06 OVMax= 4.25D-04

 Cycle  10  Pass 1  IDiag  1:
 RMSU=  1.38D-06    CP:  1.00D+00  1.05D+00  8.04D-01  1.11D+00
 E= -2048.73960335168     Delta-E=       -0.000000943831 Rises=F Damp=F
 DIIS: error= 1.39D-05 at cycle   5 NSaved=   5.
 NSaved= 5 IEnMin= 5 EnMin= -2048.73960335168     IErMin= 5 ErrMin= 1.39D-05
 ErrMax= 1.39D-05  0.00D+00 EMaxC= 1.00D-01 BMatC= 1.34D-07 BMatP= 5.71D-07
 IDIUse=1 WtCom= 1.00D+00 WtEn= 0.00D+00
 Coeff-Com: -0.439D-02-0.540D-01-0.113D+00 0.213D+00 0.958D+00
 Coeff:     -0.439D-02-0.540D-01-0.113D+00 0.213D+00 0.958D+00
 Gap=     0.274 Goal=   None    Shift=    0.000
 RMSDP=1.28D-06 MaxDP=6.03D-05 DE=-9.44D-07 OVMax= 2.58D-04

 Cycle  11  Pass 1  IDiag  1:
 RMSU=  5.20D-07    CP:  1.00D+00  1.05D+00  8.16D-01  1.39D+00  1.19D+00
 E= -2048.73960365096     Delta-E=       -0.000000299284 Rises=F Damp=F
 DIIS: error= 8.87D-06 at cycle   6 NSaved=   6.
 NSaved= 6 IEnMin= 6 EnMin= -2048.73960365096     IErMin= 6 ErrMin= 8.87D-06
 ErrMax= 8.87D-06  0.00D+00 EMaxC= 1.00D-01 BMatC= 3.37D-08 BMatP= 1.34D-07
 IDIUse=1 WtCom= 1.00D+00 WtEn= 0.00D+00
 Coeff-Com:  0.496D-02-0.475D-01-0.122D+00-0.846D-02 0.524D+00 0.649D+00
 Coeff:      0.496D-02-0.475D-01-0.122D+00-0.846D-02 0.524D+00 0.649D+00
 Gap=     0.274 Goal=   None    Shift=    0.000
 RMSDP=4.54D-07 MaxDP=2.81D-05 DE=-2.99D-07 OVMax= 1.21D-04

 Cycle  12  Pass 1  IDiag  1:
 RMSU=  2.10D-07    CP:  1.00D+00  1.05D+00  8.20D-01  1.48D+00  1.33D+00
                    CP:  9.58D-01
 E= -2048.73960370258     Delta-E=       -0.000000051616 Rises=F Damp=F
 DIIS: error= 1.16D-06 at cycle   7 NSaved=   7.
 NSaved= 7 IEnMin= 7 EnMin= -2048.73960370258     IErMin= 7 ErrMin= 1.16D-06
 ErrMax= 1.16D-06  0.00D+00 EMaxC= 1.00D-01 BMatC= 8.84D-10 BMatP= 3.37D-08
 IDIUse=1 WtCom= 1.00D+00 WtEn= 0.00D+00
 Coeff-Com:  0.122D-02-0.791D-02-0.218D-01-0.101D-01 0.634D-01 0.135D+00
 Coeff-Com:  0.840D+00
 Coeff:      0.122D-02-0.791D-02-0.218D-01-0.101D-01 0.634D-01 0.135D+00
 Coeff:      0.840D+00
 Gap=     0.274 Goal=   None    Shift=    0.000
 RMSDP=9.65D-08 MaxDP=4.47D-06 DE=-5.16D-08 OVMax= 2.56D-05

 Cycle  13  Pass 1  IDiag  1:
 RMSU=  6.16D-08    CP:  1.00D+00  1.05D+00  8.20D-01  1.49D+00  1.36D+00
                    CP:  1.05D+00  1.13D+00
 E= -2048.73960370498     Delta-E=       -0.000000002402 Rises=F Damp=F
 DIIS: error= 6.87D-07 at cycle   8 NSaved=   8.
 NSaved= 8 IEnMin= 8 EnMin= -2048.73960370498     IErMin= 8 ErrMin= 6.87D-07
 ErrMax= 6.87D-07  0.00D+00 EMaxC= 1.00D-01 BMatC= 4.40D-10 BMatP= 8.84D-10
 IDIUse=1 WtCom= 1.00D+00 WtEn= 0.00D+00
 Coeff-Com: -0.843D-03 0.101D-01 0.251D-01-0.159D-02-0.122D+00-0.126D+00
 Coeff-Com:  0.436D+00 0.779D+00
 Coeff:     -0.843D-03 0.101D-01 0.251D-01-0.159D-02-0.122D+00-0.126D+00
 Coeff:      0.436D+00 0.779D+00
 Gap=     0.274 Goal=   None    Shift=    0.000
 RMSDP=6.09D-08 MaxDP=3.43D-06 DE=-2.40D-09 OVMax= 1.19D-05

 Cycle  14  Pass 1  IDiag  1:
 RMSU=  3.26D-08    CP:  1.00D+00  1.05D+00  8.20D-01  1.49D+00  1.37D+00
                    CP:  1.10D+00  1.31D+00  1.06D+00
 E= -2048.73960370565     Delta-E=       -0.000000000670 Rises=F Damp=F
 DIIS: error= 1.95D-07 at cycle   9 NSaved=   9.
 NSaved= 9 IEnMin= 9 EnMin= -2048.73960370565     IErMin= 9 ErrMin= 1.95D-07
 ErrMax= 1.95D-07  0.00D+00 EMaxC= 1.00D-01 BMatC= 3.07D-11 BMatP= 4.40D-10
 IDIUse=1 WtCom= 1.00D+00 WtEn= 0.00D+00
 Coeff-Com: -0.440D-03 0.459D-02 0.116D-01 0.477D-03-0.512D-01-0.609D-01
 Coeff-Com:  0.860D-01 0.273D+00 0.737D+00
 Coeff:     -0.440D-03 0.459D-02 0.116D-01 0.477D-03-0.512D-01-0.609D-01
 Coeff:      0.860D-01 0.273D+00 0.737D+00
 Gap=     0.274 Goal=   None    Shift=    0.000
 RMSDP=1.50D-08 MaxDP=6.94D-07 DE=-6.70D-10 OVMax= 3.73D-06

 Cycle  15  Pass 1  IDiag  1:
 RMSU=  1.00D-08    CP:  1.00D+00  1.05D+00  8.20D-01  1.49D+00  1.37D+00
                    CP:  1.10D+00  1.33D+00  1.19D+00  1.12D+00
 E= -2048.73960370572     Delta-E=       -0.000000000066 Rises=F Damp=F
 DIIS: error= 7.19D-08 at cycle  10 NSaved=  10.
 NSaved=10 IEnMin=10 EnMin= -2048.73960370572     IErMin=10 ErrMin= 7.19D-08
 ErrMax= 7.19D-08  0.00D+00 EMaxC= 1.00D-01 BMatC= 6.02D-12 BMatP= 3.07D-11
 IDIUse=1 WtCom= 1.00D+00 WtEn= 0.00D+00
 Coeff-Com:  0.198D-04-0.481D-03-0.108D-02 0.217D-03 0.726D-02 0.406D-02
 Coeff-Com: -0.575D-01-0.751D-01 0.261D+00 0.862D+00
 Coeff:      0.198D-04-0.481D-03-0.108D-02 0.217D-03 0.726D-02 0.406D-02
 Coeff:     -0.575D-01-0.751D-01 0.261D+00 0.862D+00
 Gap=     0.274 Goal=   None    Shift=    0.000
 RMSDP=7.85D-09 MaxDP=3.57D-07 DE=-6.64D-11 OVMax= 1.58D-06

 SCF Done:  E(RwB97XD) =  -2048.73960371     A.U. after   15 cycles
            NFock= 15  Conv=0.79D-08     -V/T= 2.0054
 KE= 2.037827344159D+03 PE=-1.591768866242D+04 EE= 6.262600922988D+03
 Leave Link  502 at Thu Jan 25 07:13:53 2018, MaxMem=  4294967296 cpu:           21660.8 elap:             698.2
 (Enter /share/apps/g16/l601.exe)
 Copying SCF densities to generalized density rwf, IOpCl= 0 IROHF=0.

 **********************************************************************

            Population analysis using the SCF density.

 **********************************************************************

 Orbital symmetries:
       Occupied  (A) (A) (A) (A) (A) (A) (A) (A) (A) (A) (A) (A)
                 (A) (A) (A) (A) (A) (A) (A) (A) (A) (A) (A) (A)
                 (A) (A) (A) (A) (A) (A) (A) (A) (A) (A) (A) (A)
                 (A) (A) (A) (A) (A) (A) (A) (A) (A) (A) (A) (A)
                 (A) (A) (A) (A) (A) (A) (A) (A) (A) (A) (A) (A)
                 (A) (A) (A) (A) (A) (A) (A) (A) (A) (A) (A) (A)
                 (A) (A) (A) (A) (A) (A) (A) (A) (A) (A) (A) (A)
                 (A) (A) (A) (A) (A) (A) (A) (A) (A) (A) (A) (A)
                 (A) (A) (A) (A) (A) (A) (A) (A) (A) (A) (A) (A)
                 (A) (A) (A) (A) (A) (A) (A) (A) (A) (A) (A) (A)
                 (A) (A) (A) (A) (A) (A) (A) (A) (A) (A) (A) (A)
                 (A) (A) (A) (A) (A) (A) (A) (A) (A) (A) (A) (A)
                 (A) (A) (A) (A) (A) (A) (A) (A) (A) (A)
       Virtual   (A) (A) (A) (A) (A) (A) (A) (A) (A) (A) (A) (A)
                 (A) (A) (A) (A) (A) (A) (A) (A) (A) (A) (A) (A)
                 (A) (A) (A) (A) (A) (A) (A) (A) (A) (A) (A) (A)
                 (A) (A) (A) (A) (A) (A) (A) (A) (A) (A) (A) (A)
                 (A) (A) (A) (A) (A) (A) (A) (A) (A) (A) (A) (A)
                 (A) (A) (A) (A) (A) (A) (A) (A) (A) (A) (A) (A)
                 (A) (A) (A) (A) (A) (A) (A) (A) (A) (A) (A) (A)
                 (A) (A) (A) (A) (A) (A) (A) (A) (A) (A) (A) (A)
                 (A) (A) (A) (A) (A) (A) (A) (A) (A) (A) (A) (A)
                 (A) (A) (A) (A) (A) (A) (A) (A) (A) (A) (A) (A)
                 (A) (A) (A) (A) (A) (A) (A) (A) (A) (A) (A) (A)
                 (A) (A) (A) (A) (A) (A) (A) (A) (A) (A) (A) (A)
                 (A) (A) (A) (A) (A) (A) (A) (A) (A) (A) (A) (A)
                 (A) (A) (A) (A) (A) (A) (A) (A) (A) (A) (A) (A)
                 (A) (A) (A) (A) (A) (A) (A) (A) (A) (A) (A) (A)
                 (A) (A) (A) (A) (A) (A) (A) (A) (A) (A) (A) (A)
                 (A) (A) (A) (A) (A) (A) (A) (A) (A) (A) (A) (A)
                 (A) (A) (A) (A) (A) (A) (A) (A) (A) (A) (A) (A)
                 (A) (A) (A) (A) (A) (A) (A) (A) (A) (A) (A) (A)
                 (A) (A) (A) (A) (A) (A) (A) (A) (A) (A) (A) (A)
                 (A) (A) (A) (A) (A) (A) (A) (A) (A) (A) (A) (A)
                 (A) (A) (A) (A) (A) (A) (A) (A) (A) (A) (A) (A)
                 (A) (A) (A) (A) (A) (A) (A) (A) (A) (A) (A) (A)
                 (A) (A) (A) (A) (A) (A) (A) (A) (A) (A) (A) (A)
                 (A) (A) (A) (A) (A) (A) (A) (A) (A) (A) (A) (A)
                 (A) (A) (A) (A) (A) (A) (A) (A) (A) (A) (A) (A)
                 (A) (A) (A) (A) (A) (A) (A) (A) (A) (A) (A) (A)
                 (A) (A) (A) (A) (A) (A) (A) (A) (A) (A) (A) (A)
                 (A) (A) (A) (A) (A) (A) (A) (A) (A) (A) (A) (A)
                 (A) (A) (A) (A) (A) (A) (A) (A) (A) (A) (A) (A)
                 (A) (A) (A) (A) (A) (A) (A) (A) (A) (A) (A) (A)
                 (A) (A) (A) (A) (A) (A) (A) (A) (A) (A) (A) (A)
                 (A) (A) (A) (A) (A) (A) (A) (A) (A) (A) (A) (A)
                 (A) (A) (A) (A) (A) (A) (A) (A) (A) (A) (A) (A)
                 (A) (A) (A) (A) (A) (A) (A) (A) (A) (A) (A) (A)
                 (A) (A) (A) (A) (A) (A) (A) (A) (A) (A) (A) (A)
                 (A) (A) (A) (A) (A) (A) (A) (A) (A) (A) (A) (A)
                 (A) (A) (A) (A) (A) (A) (A) (A) (A) (A) (A) (A)
                 (A) (A) (A) (A) (A) (A) (A) (A) (A) (A) (A) (A)
                 (A) (A) (A) (A) (A) (A) (A) (A) (A) (A) (A) (A)
                 (A) (A) (A) (A) (A) (A) (A) (A) (A) (A) (A) (A)
                 (A) (A) (A) (A) (A) (A) (A) (A) (A) (A) (A) (A)
                 (A) (A) (A) (A) (A) (A) (A) (A) (A) (A) (A) (A)
                 (A) (A) (A) (A) (A) (A) (A) (A) (A) (A) (A) (A)
                 (A) (A) (A) (A) (A) (A) (A) (A) (A) (A) (A) (A)
                 (A) (A) (A) (A) (A) (A) (A) (A) (A) (A) (A) (A)
                 (A) (A) (A) (A) (A) (A) (A) (A) (A) (A) (A) (A)
                 (A) (A) (A) (A) (A) (A) (A) (A) (A) (A) (A) (A)
                 (A) (A) (A) (A) (A) (A) (A)
 The electronic state is 1-A.
 Alpha  occ. eigenvalues --  -19.25482 -19.21702 -19.20744 -14.52203 -14.52030
 Alpha  occ. eigenvalues --  -14.49158 -14.49136 -14.47341 -14.47085 -14.46955
 Alpha  occ. eigenvalues --  -14.46729 -14.44941 -14.43986 -14.43794 -14.42548
 Alpha  occ. eigenvalues --  -14.42099 -14.41444 -14.41320 -14.41068 -14.40754
 Alpha  occ. eigenvalues --  -10.45027 -10.41313 -10.39787 -10.39227 -10.38380
 Alpha  occ. eigenvalues --  -10.37565 -10.37224 -10.36681 -10.35827 -10.35431
 Alpha  occ. eigenvalues --  -10.34939 -10.34567 -10.34276 -10.33895 -10.33724
 Alpha  occ. eigenvalues --  -10.33590 -10.33509 -10.32078 -10.31680 -10.31561
 Alpha  occ. eigenvalues --  -10.30393 -10.28860 -10.28293  -1.19040  -1.14834
 Alpha  occ. eigenvalues --   -1.13346  -1.12812  -1.11681  -1.10852  -1.08957
 Alpha  occ. eigenvalues --   -1.08724  -1.08655  -1.05465  -1.04201  -1.02120
 Alpha  occ. eigenvalues --   -1.00792  -1.00526  -0.99819  -0.98677  -0.97324
 Alpha  occ. eigenvalues --   -0.96845  -0.96346  -0.93110  -0.90589  -0.87231
 Alpha  occ. eigenvalues --   -0.85651  -0.84597  -0.84209  -0.83314  -0.83067
 Alpha  occ. eigenvalues --   -0.82645  -0.78483  -0.76515  -0.74860  -0.74426
 Alpha  occ. eigenvalues --   -0.73730  -0.73284  -0.72916  -0.71430  -0.69855
 Alpha  occ. eigenvalues --   -0.67541  -0.66691  -0.66286  -0.66115  -0.64544
 Alpha  occ. eigenvalues --   -0.63753  -0.63602  -0.63067  -0.62722  -0.61897
 Alpha  occ. eigenvalues --   -0.60726  -0.60661  -0.59976  -0.59178  -0.59074
 Alpha  occ. eigenvalues --   -0.58653  -0.58463  -0.58395  -0.56949  -0.55867
 Alpha  occ. eigenvalues --   -0.55819  -0.55728  -0.54986  -0.54735  -0.54264
 Alpha  occ. eigenvalues --   -0.54128  -0.53685  -0.53326  -0.53166  -0.52621
 Alpha  occ. eigenvalues --   -0.52390  -0.52198  -0.52023  -0.51077  -0.50691
 Alpha  occ. eigenvalues --   -0.50379  -0.49853  -0.49513  -0.49171  -0.49135
 Alpha  occ. eigenvalues --   -0.48975  -0.48454  -0.48194  -0.47384  -0.47354
 Alpha  occ. eigenvalues --   -0.47276  -0.46261  -0.44830  -0.44008  -0.43508
 Alpha  occ. eigenvalues --   -0.41364  -0.40313  -0.39149  -0.37741  -0.37584
 Alpha  occ. eigenvalues --   -0.37408  -0.37158  -0.37041  -0.35770  -0.34695
 Alpha  occ. eigenvalues --   -0.34161  -0.33998  -0.33658  -0.33470  -0.33113
 Alpha  occ. eigenvalues --   -0.32767  -0.32329  -0.31933  -0.31759  -0.31048
 Alpha  occ. eigenvalues --   -0.30713  -0.28955  -0.27024  -0.24686
 Alpha virt. eigenvalues --    0.02672   0.04803   0.06829   0.07052   0.08738
 Alpha virt. eigenvalues --    0.09634   0.09878   0.10941   0.11076   0.11671
 Alpha virt. eigenvalues --    0.12644   0.13940   0.14284   0.14396   0.15397
 Alpha virt. eigenvalues --    0.15783   0.16090   0.17314   0.17619   0.18544
 Alpha virt. eigenvalues --    0.18786   0.19442   0.19574   0.20179   0.20650
 Alpha virt. eigenvalues --    0.20973   0.21284   0.21472   0.21974   0.22165
 Alpha virt. eigenvalues --    0.22196   0.22323   0.22824   0.23206   0.23623
 Alpha virt. eigenvalues --    0.24114   0.24132   0.24487   0.24868   0.25455
 Alpha virt. eigenvalues --    0.26480   0.26953   0.27512   0.27817   0.28977
 Alpha virt. eigenvalues --    0.29070   0.29203   0.29418   0.30172   0.30417
 Alpha virt. eigenvalues --    0.31835   0.32192   0.32793   0.33277   0.33530
 Alpha virt. eigenvalues --    0.34469   0.35146   0.35430   0.35895   0.36286
 Alpha virt. eigenvalues --    0.36711   0.37152   0.37461   0.37926   0.39715
 Alpha virt. eigenvalues --    0.40077   0.40111   0.40516   0.41245   0.41858
 Alpha virt. eigenvalues --    0.42282   0.43015   0.43634   0.44092   0.44254
 Alpha virt. eigenvalues --    0.44667   0.45203   0.45955   0.46457   0.46660
 Alpha virt. eigenvalues --    0.47259   0.47489   0.47818   0.48403   0.49262
 Alpha virt. eigenvalues --    0.49967   0.50298   0.50447   0.51177   0.51546
 Alpha virt. eigenvalues --    0.52087   0.52325   0.52473   0.52582   0.53187
 Alpha virt. eigenvalues --    0.53615   0.53833   0.54449   0.54791   0.55410
 Alpha virt. eigenvalues --    0.55584   0.56091   0.56410   0.56978   0.57652
 Alpha virt. eigenvalues --    0.57988   0.58265   0.59246   0.59526   0.59986
 Alpha virt. eigenvalues --    0.60055   0.60352   0.60966   0.61548   0.61826
 Alpha virt. eigenvalues --    0.62037   0.62503   0.63200   0.63430   0.63864
 Alpha virt. eigenvalues --    0.64293   0.64838   0.65092   0.65326   0.66124
 Alpha virt. eigenvalues --    0.66496   0.66762   0.66952   0.67165   0.67738
 Alpha virt. eigenvalues --    0.68118   0.68299   0.68977   0.69799   0.70239
 Alpha virt. eigenvalues --    0.70902   0.71330   0.71735   0.72344   0.72559
 Alpha virt. eigenvalues --    0.72744   0.73320   0.73894   0.74143   0.74402
 Alpha virt. eigenvalues --    0.74506   0.74693   0.75371   0.75590   0.76215
 Alpha virt. eigenvalues --    0.76329   0.76909   0.77195   0.77247   0.77465
 Alpha virt. eigenvalues --    0.78326   0.78549   0.79034   0.79916   0.80487
 Alpha virt. eigenvalues --    0.80570   0.80896   0.81146   0.81528   0.81801
 Alpha virt. eigenvalues --    0.82057   0.82294   0.83262   0.83511   0.84224
 Alpha virt. eigenvalues --    0.84370   0.84890   0.85043   0.85313   0.85677
 Alpha virt. eigenvalues --    0.85873   0.86334   0.86708   0.87257   0.87644
 Alpha virt. eigenvalues --    0.87903   0.88639   0.88994   0.89842   0.90226
 Alpha virt. eigenvalues --    0.90632   0.91389   0.91642   0.92194   0.92291
 Alpha virt. eigenvalues --    0.92980   0.93506   0.94109   0.94586   0.94838
 Alpha virt. eigenvalues --    0.95181   0.95413   0.95483   0.95817   0.96659
 Alpha virt. eigenvalues --    0.96944   0.97596   0.97770   0.98240   0.98566
 Alpha virt. eigenvalues --    0.99020   0.99214   1.00083   1.00844   1.01144
 Alpha virt. eigenvalues --    1.01318   1.02093   1.02431   1.03259   1.03778
 Alpha virt. eigenvalues --    1.04335   1.04691   1.05244   1.06055   1.06189
 Alpha virt. eigenvalues --    1.06662   1.07818   1.07943   1.08200   1.08541
 Alpha virt. eigenvalues --    1.09121   1.09777   1.10312   1.10786   1.11269
 Alpha virt. eigenvalues --    1.11964   1.12776   1.13189   1.13797   1.13939
 Alpha virt. eigenvalues --    1.14161   1.14702   1.15088   1.15727   1.15886
 Alpha virt. eigenvalues --    1.16915   1.17816   1.17850   1.18093   1.18823
 Alpha virt. eigenvalues --    1.18960   1.19526   1.19800   1.20071   1.20378
 Alpha virt. eigenvalues --    1.20851   1.20948   1.21283   1.22040   1.22246
 Alpha virt. eigenvalues --    1.22758   1.23022   1.23529   1.23758   1.24270
 Alpha virt. eigenvalues --    1.24800   1.25439   1.26265   1.26414   1.26708
 Alpha virt. eigenvalues --    1.27321   1.28115   1.28217   1.29010   1.29419
 Alpha virt. eigenvalues --    1.30060   1.30152   1.30657   1.31225   1.32118
 Alpha virt. eigenvalues --    1.32326   1.33275   1.33960   1.34253   1.34730
 Alpha virt. eigenvalues --    1.35375   1.35818   1.36378   1.36944   1.37487
 Alpha virt. eigenvalues --    1.38461   1.38944   1.39496   1.39685   1.40652
 Alpha virt. eigenvalues --    1.41223   1.41389   1.42717   1.43995   1.44947
 Alpha virt. eigenvalues --    1.45628   1.45912   1.46587   1.47002   1.47324
 Alpha virt. eigenvalues --    1.48952   1.49569   1.50658   1.51832   1.51965
 Alpha virt. eigenvalues --    1.52769   1.53111   1.53962   1.54112   1.54373
 Alpha virt. eigenvalues --    1.55074   1.56407   1.56785   1.57326   1.58493
 Alpha virt. eigenvalues --    1.58845   1.59205   1.59633   1.60648   1.60903
 Alpha virt. eigenvalues --    1.61472   1.62231   1.63024   1.64490   1.64970
 Alpha virt. eigenvalues --    1.65482   1.65881   1.66519   1.67015   1.67415
 Alpha virt. eigenvalues --    1.67953   1.68479   1.69347   1.69559   1.70024
 Alpha virt. eigenvalues --    1.70139   1.70871   1.71476   1.72231   1.72342
 Alpha virt. eigenvalues --    1.72488   1.72952   1.73188   1.73543   1.74066
 Alpha virt. eigenvalues --    1.74440   1.74908   1.75653   1.75734   1.75953
 Alpha virt. eigenvalues --    1.76756   1.76953   1.77155   1.77706   1.77992
 Alpha virt. eigenvalues --    1.78310   1.78504   1.78593   1.78962   1.79318
 Alpha virt. eigenvalues --    1.79650   1.79865   1.80891   1.81540   1.81884
 Alpha virt. eigenvalues --    1.82157   1.82930   1.83207   1.83699   1.83914
 Alpha virt. eigenvalues --    1.84575   1.85083   1.85220   1.85752   1.86434
 Alpha virt. eigenvalues --    1.86658   1.86786   1.87380   1.87672   1.88072
 Alpha virt. eigenvalues --    1.88458   1.88934   1.89270   1.90010   1.90519
 Alpha virt. eigenvalues --    1.90690   1.90874   1.91770   1.92318   1.92520
 Alpha virt. eigenvalues --    1.93240   1.93977   1.94934   1.95460   1.95749
 Alpha virt. eigenvalues --    1.97090   1.97435   1.98189   1.98668   1.99072
 Alpha virt. eigenvalues --    1.99283   2.00045   2.01308   2.02013   2.02463
 Alpha virt. eigenvalues --    2.03071   2.03279   2.04224   2.04337   2.04761
 Alpha virt. eigenvalues --    2.05090   2.06878   2.07016   2.07475   2.07972
 Alpha virt. eigenvalues --    2.08635   2.09360   2.10357   2.10834   2.11302
 Alpha virt. eigenvalues --    2.12206   2.12664   2.12881   2.13875   2.14833
 Alpha virt. eigenvalues --    2.14921   2.16409   2.17991   2.18288   2.19202
 Alpha virt. eigenvalues --    2.20288   2.20741   2.21046   2.21605   2.22215
 Alpha virt. eigenvalues --    2.22742   2.23282   2.23769   2.24371   2.24626
 Alpha virt. eigenvalues --    2.25511   2.25818   2.26478   2.27056   2.27687
 Alpha virt. eigenvalues --    2.28504   2.28711   2.29036   2.29887   2.30299
 Alpha virt. eigenvalues --    2.31117   2.31876   2.32068   2.32507   2.32685
 Alpha virt. eigenvalues --    2.33103   2.33785   2.34015   2.34395   2.34753
 Alpha virt. eigenvalues --    2.35414   2.36192   2.36968   2.37330   2.38239
 Alpha virt. eigenvalues --    2.38969   2.39918   2.40084   2.41250   2.41734
 Alpha virt. eigenvalues --    2.42660   2.43215   2.43660   2.44475   2.45028
 Alpha virt. eigenvalues --    2.45382   2.45576   2.46525   2.46809   2.48417
 Alpha virt. eigenvalues --    2.49310   2.50112   2.50581   2.51621   2.52228
 Alpha virt. eigenvalues --    2.52252   2.54072   2.55074   2.55851   2.56502
 Alpha virt. eigenvalues --    2.57739   2.58550   2.58833   2.61272   2.61557
 Alpha virt. eigenvalues --    2.62166   2.62511   2.63199   2.63892   2.64557
 Alpha virt. eigenvalues --    2.65158   2.65577   2.65645   2.66092   2.66393
 Alpha virt. eigenvalues --    2.67241   2.68609   2.68913   2.69728   2.70156
 Alpha virt. eigenvalues --    2.70807   2.71194   2.71371   2.72922   2.74107
 Alpha virt. eigenvalues --    2.75080   2.75207   2.75919   2.77527   2.77847
 Alpha virt. eigenvalues --    2.78421   2.78696   2.78840   2.79490   2.79661
 Alpha virt. eigenvalues --    2.80475   2.81204   2.81379   2.81795   2.81951
 Alpha virt. eigenvalues --    2.82685   2.82878   2.83173   2.84465   2.84834
 Alpha virt. eigenvalues --    2.85201   2.86406   2.86716   2.86897   2.87228
 Alpha virt. eigenvalues --    2.88307   2.88455   2.90840   2.92622   2.94185
 Alpha virt. eigenvalues --    2.95722   2.96876   2.97453   2.98765   2.99965
 Alpha virt. eigenvalues --    3.01947   3.02668   3.03399   3.05449   3.07049
 Alpha virt. eigenvalues --    3.08158   3.10658   3.11633   3.13559   3.14682
 Alpha virt. eigenvalues --    3.15928   3.16592   3.17187   3.18767   3.20752
 Alpha virt. eigenvalues --    3.21797   3.23701   3.24897   3.25110   3.30326
 Alpha virt. eigenvalues --    3.45480   3.46972   3.47828   3.49739   3.50897
 Alpha virt. eigenvalues --    3.52977   3.55458   3.56326   3.58105   3.60297
 Alpha virt. eigenvalues --    3.63540   3.71379   3.75533
          Condensed to atoms (all electrons):
 Mulliken charges:
               1
     1  N   -0.304135
     2  C    0.185524
     3  C    0.043355
     4  N   -0.231961
     5  C    0.127488
     6  H    0.023807
     7  N   -0.291363
     8  C    0.131031
     9  H    0.009858
    10  N   -0.283539
    11  C    0.242507
    12  C    0.076083
    13  N   -0.040927
    14  H    0.116069
    15  H    0.086618
    16  H    0.027550
    17  H    0.035854
    18  H    0.011117
    19  N   -0.302230
    20  C    0.253647
    21  C    0.188891
    22  N   -0.123906
    23  H    0.117839
    24  H    0.119579
    25  N   -0.306798
    26  C    0.245940
    27  N   -0.141488
    28  H    0.121792
    29  C    0.183119
    30  O   -0.324770
    31  C   -0.014200
    32  N   -0.208500
    33  C    0.112010
    34  H    0.019661
    35  H    0.000223
    36  H    0.035129
    37  H    0.028048
    38  H    0.041498
    39  H    0.056944
    40  H    0.077279
    41  H    0.020733
    42  C   -0.099752
    43  O   -0.280550
    44  C    0.168831
    45  H    0.126800
    46  N   -0.103665
    47  O   -0.349896
    48  C    0.332604
    49  H    0.043625
    50  C    0.174479
    51  C    0.048977
    52  N   -0.272517
    53  H    0.037024
    54  H    0.042240
    55  H    0.028003
    56  H    0.126115
    57  H    0.115425
    58  N   -0.023939
    59  C    0.053908
    60  C    0.222029
    61  N   -0.267729
    62  H    0.027937
    63  C    0.156623
    64  N   -0.293315
    65  H    0.035985
    66  C    0.123708
    67  N   -0.251777
    68  C    0.047127
    69  C    0.175748
    70  N   -0.309425
 Sum of Mulliken charges =  -0.00000
 Mulliken charges with hydrogens summed into heavy atoms:
               1
     1  N   -0.304135
     2  C    0.260045
     3  C    0.043355
     4  N   -0.231961
     5  C    0.151295
     7  N   -0.291363
     8  C    0.140889
    10  N   -0.283539
    11  C    0.242507
    12  C    0.076083
    13  N    0.161760
    19  N   -0.302230
    20  C    0.253647
    21  C    0.252291
    22  N    0.113513
    25  N   -0.306798
    26  C    0.245940
    27  N   -0.019696
    29  C    0.183119
    30  O   -0.324770
    31  C   -0.014200
    32  N   -0.208500
    33  C    0.131672
    42  C   -0.079019
    43  O   -0.280550
    44  C    0.168831
    46  N    0.023135
    47  O   -0.349896
    48  C    0.332604
    50  C    0.218104
    51  C    0.224698
    52  N   -0.272517
    58  N    0.217601
    59  C    0.053908
    60  C    0.222029
    61  N   -0.267729
    63  C    0.184560
    64  N   -0.293315
    66  C    0.159693
    67  N   -0.251777
    68  C    0.047127
    69  C    0.283016
    70  N   -0.309425
 Electronic spatial extent (au):  <R**2>=          22402.9340
 Charge=             -0.0000 electrons
 Dipole moment (field-independent basis, Debye):
    X=             -4.2705    Y=              3.1794    Z=             -7.0109  Tot=              8.8033
 Quadrupole moment (field-independent basis, Debye-Ang):
   XX=           -146.0187   YY=           -234.7726   ZZ=           -251.1383
   XY=             -9.2709   XZ=              8.0166   YZ=            -17.1171
 Traceless Quadrupole moment (field-independent basis, Debye-Ang):
   XX=             64.6245   YY=            -24.1294   ZZ=            -40.4951
   XY=             -9.2709   XZ=              8.0166   YZ=            -17.1171
 Octapole moment (field-independent basis, Debye-Ang**2):
  XXX=             95.3960  YYY=             39.2318  ZZZ=            -96.5416  XYY=            -14.2372
  XXY=             42.5985  XXZ=           -126.8701  XZZ=            -83.2737  YZZ=              8.3783
  YYZ=             -4.3822  XYZ=              9.0003
 Hexadecapole moment (field-independent basis, Debye-Ang**3):
 XXXX=         -16664.6155 YYYY=          -4192.7117 ZZZZ=          -3559.8626 XXXY=           -442.4242
 XXXZ=            692.7133 YYYX=            -55.3369 YYYZ=           -162.6743 ZZZX=             96.1768
 ZZZY=           -233.6210 XXYY=          -4114.8947 XXZZ=          -3922.1047 YYZZ=          -1153.9961
 XXYZ=            -21.2569 YYXZ=            -71.8891 ZZXY=            112.2286
 N-N= 5.568520791569D+03 E-N=-1.591768865076D+04  KE= 2.037827344159D+03
 No NMR shielding tensors so no spin-rotation constants.
 Leave Link  601 at Thu Jan 25 07:13:55 2018, MaxMem=  4294967296 cpu:              47.5 elap:               1.7
 (Enter /share/apps/g16/l9999.exe)
 1\1\GINC-COMPUTE-0-3\SP\RwB97XD\CC-pVDZ\C23H27N17O3\SATYA\25-Jan-2018\
 0\\#p wb97xd/cc-pvdz sp scf=(maxcycles=20)\\Base pair stacking\\0,1\N,
 0,0.68175,3.8106,-6.65722\C,0,0.00691,5.06272,-7.05065\C,0,1.1566,1.68
 988,-6.31901\N,0,2.23354,2.41215,-5.82582\C,0,1.90436,3.6609,-6.04931\
 H,0,2.52177,4.52101,-5.78864\N,0,-0.27724,-0.07837,-6.93573\C,0,-1.112
 93,0.85996,-7.39263\H,0,-2.03832,0.48606,-7.82863\N,0,-0.97775,2.18458
 ,-7.3918\C,0,0.19226,2.53823,-6.83465\C,0,0.89174,0.30967,-6.38078\N,0
 ,1.72725,-0.6255,-5.92412\H,0,2.6035,-0.38396,-5.5057\H,0,1.50594,-1.5
 989,-5.98464\H,0,0.57753,5.55914,-7.70497\H,0,-0.87372,4.84925,-7.4726
 1\H,0,-0.1421,5.63181,-6.242\N,0,-0.67769,3.84828,-3.45556\C,0,-1.0783
 7,2.53526,-3.51466\C,0,-1.54212,5.01712,-3.71495\N,0,-3.55981,0.16989,
 -4.07069\H,0,-3.64533,-0.82601,-4.05972\H,0,-4.38145,0.69335,-4.29788\
 N,0,-2.3191,2.09581,-3.81718\C,0,-2.39605,0.77705,-3.79337\N,0,-1.3399
 1,-0.04989,-3.49627\H,0,-1.4906,-1.047,-3.50191\C,0,-0.0546,0.38033,-3
 .18206\O,0,0.82786,-0.44918,-2.92925\C,0,0.04359,1.79482,-3.2036\N,0,1
 .12684,2.62626,-2.95423\C,0,0.65289,3.83196,-3.11506\H,0,1.23278,4.747
 98,-2.9971\H,0,-1.17355,5.54296,-4.48075\H,0,-2.46379,4.70394,-3.94011
 \H,0,-1.57734,5.59505,-2.90035\H,0,-2.72664,-5.90947,-4.32734\H,0,-2.9
 0023,-5.94647,-2.5743\H,0,-3.24898,-4.46327,-3.46303\H,0,1.88642,-6.19
 32,-2.99103\C,0,1.08995,-5.45167,-3.05424\O,0,2.55374,-3.59412,-2.8700
 9\C,0,1.42151,-4.06098,-2.99206\H,0,0.53459,-2.21726,-3.04096\N,0,0.34
 008,-3.20785,-3.08113\O,0,-1.86953,-2.72693,-3.28978\C,0,-0.98006,-3.5
 5671,-3.21922\H,0,-0.4933,-6.86741,-3.24091\C,0,-0.18859,-5.82301,-3.1
 8869\C,0,-2.61543,-5.33664,-3.41873\N,0,-1.21936,-4.91582,-3.27161\H,0
 ,-2.50568,-7.61904,-7.86022\H,0,-3.00577,-6.28692,-7.06181\H,0,-2.9092
 9,-7.71754,-6.28199\H,0,3.3505,-3.86081,-5.28216\H,0,3.32223,-5.56274,
 -5.39505\N,0,2.83011,-4.69451,-5.46728\C,0,1.53732,-4.6515,-5.79594\C,
 0,-0.56648,-5.589,-6.39332\N,0,-1.20161,-4.40874,-6.48283\H,0,-0.80366
 ,-2.41095,-6.25684\C,0,-0.36787,-3.40788,-6.20703\N,0,0.92727,-3.4489,
 -5.87764\H,0,-0.20545,-8.79999,-6.5001\C,0,-0.06471,-7.72363,-6.39722\
 N,0,1.06666,-7.14777,-6.07152\C,0,0.7624,-5.79421,-6.06548\C,0,-2.4904
 9,-7.13977,-6.98268\N,0,-1.09529,-6.83997,-6.6065\\Version=EM64L-G16Re
 vA.03\State=1-A\HF=-2048.7396037\RMSD=7.855e-09\Dipole=-2.9630815,-1.6
 525473,-0.696338\Quadrupole=-13.3164423,47.9847977,-34.6683554,9.40419
 95,-9.155103,-0.4793122\PG=C01 [X(C23H27N17O3)]\\@


 AS FAR AS THE LAWS OF MATHEMATICS REFER TO REALITY,
 THEY ARE NOT CERTAIN; AND AS FAR AS THEY ARE CERTAIN,
 THEY DO NOT REFER TO REALITY.

                                         -- ALBERT EINSTEIN
 Job cpu time:       0 days  6 hours 11 minutes 19.7 seconds.
 Elapsed time:       0 days  0 hours 11 minutes 58.0 seconds.
 File lengths (MBytes):  RWF=    298 Int=      0 D2E=      0 Chk=     33 Scr=      1
 Normal termination of Gaussian 16 at Thu Jan 25 07:13:56 2018.
