 Entering Gaussian System, Link 0=g16
 Input=str5.15.-2.0.com
 Output=str5.15.-2.0.log
 Initial command:
 /share/apps/g16/l1.exe "/state/partition1/scr/Gau-31038.inp" -scrdir="/state/partition1/scr/"
 Entering Link 1 = /share/apps/g16/l1.exe PID=     31039.
  
 Copyright (c) 1988,1990,1992,1993,1995,1998,2003,2009,2016,
            Gaussian, Inc.  All Rights Reserved.
  
 This is part of the Gaussian(R) 16 program.  It is based on
 the Gaussian(R) 09 system (copyright 2009, Gaussian, Inc.),
 the Gaussian(R) 03 system (copyright 2003, Gaussian, Inc.),
 the Gaussian(R) 98 system (copyright 1998, Gaussian, Inc.),
 the Gaussian(R) 94 system (copyright 1995, Gaussian, Inc.),
 the Gaussian 92(TM) system (copyright 1992, Gaussian, Inc.),
 the Gaussian 90(TM) system (copyright 1990, Gaussian, Inc.),
 the Gaussian 88(TM) system (copyright 1988, Gaussian, Inc.),
 the Gaussian 86(TM) system (copyright 1986, Carnegie Mellon
 University), and the Gaussian 82(TM) system (copyright 1983,
 Carnegie Mellon University). Gaussian is a federally registered
 trademark of Gaussian, Inc.
  
 This software contains proprietary and confidential information,
 including trade secrets, belonging to Gaussian, Inc.
  
 This software is provided under written license and may be
 used, copied, transmitted, or stored only in accord with that
 written license.
  
 The following legend is applicable only to US Government
 contracts under FAR:
  
                    RESTRICTED RIGHTS LEGEND
  
 Use, reproduction and disclosure by the US Government is
 subject to restrictions as set forth in subparagraphs (a)
 and (c) of the Commercial Computer Software - Restricted
 Rights clause in FAR 52.227-19.
  
 Gaussian, Inc.
 340 Quinnipiac St., Bldg. 40, Wallingford CT 06492
  
  
 ---------------------------------------------------------------
 Warning -- This program may not be used in any manner that
 competes with the business of Gaussian, Inc. or will provide
 assistance to any competitor of Gaussian, Inc.  The licensee
 of this program is prohibited from giving any competitor of
 Gaussian, Inc. access to this program.  By using this program,
 the user acknowledges that Gaussian, Inc. is engaged in the
 business of creating and licensing software in the field of
 computational chemistry and represents and warrants to the
 licensee that it is not a competitor of Gaussian, Inc. and that
 it will not use this program in any manner prohibited above.
 ---------------------------------------------------------------
  

 Cite this work as:
 Gaussian 16, Revision A.03,
 M. J. Frisch, G. W. Trucks, H. B. Schlegel, G. E. Scuseria, 
 M. A. Robb, J. R. Cheeseman, G. Scalmani, V. Barone, 
 G. A. Petersson, H. Nakatsuji, X. Li, M. Caricato, A. V. Marenich, 
 J. Bloino, B. G. Janesko, R. Gomperts, B. Mennucci, H. P. Hratchian, 
 J. V. Ortiz, A. F. Izmaylov, J. L. Sonnenberg, D. Williams-Young, 
 F. Ding, F. Lipparini, F. Egidi, J. Goings, B. Peng, A. Petrone, 
 T. Henderson, D. Ranasinghe, V. G. Zakrzewski, J. Gao, N. Rega, 
 G. Zheng, W. Liang, M. Hada, M. Ehara, K. Toyota, R. Fukuda, 
 J. Hasegawa, M. Ishida, T. Nakajima, Y. Honda, O. Kitao, H. Nakai, 
 T. Vreven, K. Throssell, J. A. Montgomery, Jr., J. E. Peralta, 
 F. Ogliaro, M. J. Bearpark, J. J. Heyd, E. N. Brothers, K. N. Kudin, 
 V. N. Staroverov, T. A. Keith, R. Kobayashi, J. Normand, 
 K. Raghavachari, A. P. Rendell, J. C. Burant, S. S. Iyengar, 
 J. Tomasi, M. Cossi, J. M. Millam, M. Klene, C. Adamo, R. Cammi, 
 J. W. Ochterski, R. L. Martin, K. Morokuma, O. Farkas, 
 J. B. Foresman, and D. J. Fox, Gaussian, Inc., Wallingford CT, 2016.
 
 ******************************************
 Gaussian 16:  EM64L-G16RevA.03 25-Dec-2016
                25-Jan-2018 
 ******************************************
 %nprocshared=32
 Will use up to   32 processors via shared memory.
 %mem=32GB
 %chk=allatoms_t.chk
 ---------------------------------------
 #p wb97xd/cc-pvdz sp scf=(maxcycles=20)
 ---------------------------------------
 1/38=1,172=1/1;
 2/12=2,17=6,18=5,40=1/2;
 3/5=16,11=2,25=1,30=1,74=-58/1,2,3;
 4//1;
 5/5=2,7=20,38=5/2;
 6/7=2,8=2,9=2,10=2,28=1/1;
 99/5=1,9=1/99;
 Leave Link    1 at Thu Jan 25 13:03:49 2018, MaxMem=  4294967296 cpu:               2.7 elap:               0.1
 (Enter /share/apps/g16/l101.exe)
 ------------------
 Base pair stacking
 ------------------
 Symbolic Z-matrix:
 Charge =  0 Multiplicity = 1
 N                     1.81299   9.71047  -6.54252 
 C                     1.22011   10.95675  -7.06529 
 C                     2.21584   7.59494  -6.09582 
 N                     3.19343   8.32418  -5.43459 
 C                     2.91161   9.56953  -5.73017 
 H                     3.47722   10.43325  -5.37946 
 N                     0.90493   5.8181   -6.92488 
 C                     0.16367   6.74972  -7.53331 
 H                    -0.67351   6.36962  -8.11718 
 N                     0.30064   8.07415  -7.5288 
 C                     1.35774   8.43575  -6.78301 
 C                     1.96151   6.21406  -6.18194 
 N                     2.70265   5.28558  -5.57382 
 H                     3.49407   5.5331   -5.0138 
 H                     2.49221   4.31147  -5.65723 
 H                     1.89678   11.44298  -7.61836 
 H                     0.42508   10.73725  -7.62998 
 H                     0.93523   11.53809  -6.30314 
 N                    -0.38086   6.82317  -3.52264 
 C                    -0.77512   5.50988  -3.61141 
 C                    -1.21918   7.99088  -3.86081 
 N                    -3.19914   3.14205  -4.3725 
 H                    -3.28547   2.14619  -4.36522 
 H                    -3.99776   3.66452  -4.6724 
 N                    -1.98486   5.06909  -4.0192 
 C                    -2.06384   3.75042  -3.99716 
 N                    -1.03777   2.92477  -3.60602 
 H                    -1.18759   1.92763  -3.62096 
 C                     0.21537   3.35638  -3.18266 
 O                     1.07228   2.52796  -2.85076 
 C                     0.31533   4.77079  -3.20095 
 N                     1.37289   5.60332  -2.86133 
 C                     0.91499   6.80833  -3.06744 
 H                     1.48257   7.72488  -2.9029 
 H                    -0.78519   8.51385  -4.59359 
 H                    -2.11779   7.67672  -4.16422 
 H                    -1.32513   8.57192  -3.05459 
 H                    -2.34794  -2.93813  -4.53239 
 H                    -2.67362  -2.96846  -2.80101 
 H                    -2.94332  -1.48871  -3.7224 
 H                     2.13109  -3.21611  -2.79816 
 C                     1.3433   -2.47494  -2.93336 
 O                     2.78584  -0.61649  -2.62945 
 C                     1.66845  -1.08397  -2.84783 
 H                     0.78952   0.75943  -2.98085 
 N                     0.59906  -0.23134  -3.03404 
 O                    -1.58388   0.24847  -3.43624 
 C                    -0.7041   -0.58091  -3.28529 
 H                    -0.21793  -3.8916   -3.25185 
 C                     0.08127  -2.84697  -3.17727 
 C                    -2.31621  -2.36182  -3.61973 
 N                    -0.93819  -1.94025  -3.35314 
 H                    -1.15269  -1.73485  -8.1087 
 H                    -1.77932  -0.39059  -7.42869 
 H                    -1.82344  -1.80926  -6.62277 
 H                     4.18072   2.05975  -4.6128 
 H                     4.16728   0.35632  -4.70358 
 N                     3.69767   1.22354  -4.87273 
 C                     2.48133   1.26206  -5.42062 
 C                     0.50971   0.31643  -6.35885 
 N                    -0.09682   1.49545  -6.57439 
 H                     0.26205   3.49629  -6.31268 
 C                     0.67966   2.50005  -6.17345 
 N                     1.89821   2.46352  -5.62446 
 H                     0.87413  -2.89594  -6.35387 
 C                     0.99819  -1.8182   -6.2442 
 N                     2.05791  -1.23792  -5.73633 
 C                     1.76127   0.1157   -5.80311 
 C                    -1.28805  -1.24234  -7.24898 
 N                     0.02199  -0.93742  -6.64166 
 
 ITRead=  0  0  0  0  0  0  0  0  0  0  0  0  0  0  0  0  0  0  0  0
 ITRead=  0  0  0  0  0  0  0  0  0  0  0  0  0  0  0  0  0  0  0  0
 ITRead=  0  0  0  0  0  0  0  0  0  0  0  0  0  0  0  0  0  0  0  0
 ITRead=  0  0  0  0  0  0  0  0  0  0
 MicOpt= -1 -1 -1 -1 -1 -1 -1 -1 -1 -1 -1 -1 -1 -1 -1 -1 -1 -1 -1 -1
 MicOpt= -1 -1 -1 -1 -1 -1 -1 -1 -1 -1 -1 -1 -1 -1 -1 -1 -1 -1 -1 -1
 MicOpt= -1 -1 -1 -1 -1 -1 -1 -1 -1 -1 -1 -1 -1 -1 -1 -1 -1 -1 -1 -1
 MicOpt= -1 -1 -1 -1 -1 -1 -1 -1 -1 -1
 NAtoms=     70 NQM=       70 NQMF=       0 NMMI=      0 NMMIF=      0
                NMic=       0 NMicF=      0.
                    Isotopes and Nuclear Properties:
 (Nuclear quadrupole moments (NQMom) in fm**2, nuclear magnetic moments (NMagM)
  in nuclear magnetons)

  Atom         1           2           3           4           5           6           7           8           9          10
 IAtWgt=          14          12          12          14          12           1          14          12           1          14
 AtmWgt=  14.0030740  12.0000000  12.0000000  14.0030740  12.0000000   1.0078250  14.0030740  12.0000000   1.0078250  14.0030740
 NucSpn=           2           0           0           2           0           1           2           0           1           2
 AtZEff=  -0.0000000  -0.0000000  -0.0000000  -0.0000000  -0.0000000  -0.0000000  -0.0000000  -0.0000000  -0.0000000  -0.0000000
 NQMom=    2.0440000   0.0000000   0.0000000   2.0440000   0.0000000   0.0000000   2.0440000   0.0000000   0.0000000   2.0440000
 NMagM=    0.4037610   0.0000000   0.0000000   0.4037610   0.0000000   2.7928460   0.4037610   0.0000000   2.7928460   0.4037610
 AtZNuc=   7.0000000   6.0000000   6.0000000   7.0000000   6.0000000   1.0000000   7.0000000   6.0000000   1.0000000   7.0000000

  Atom        11          12          13          14          15          16          17          18          19          20
 IAtWgt=          12          12          14           1           1           1           1           1          14          12
 AtmWgt=  12.0000000  12.0000000  14.0030740   1.0078250   1.0078250   1.0078250   1.0078250   1.0078250  14.0030740  12.0000000
 NucSpn=           0           0           2           1           1           1           1           1           2           0
 AtZEff=  -0.0000000  -0.0000000  -0.0000000  -0.0000000  -0.0000000  -0.0000000  -0.0000000  -0.0000000  -0.0000000  -0.0000000
 NQMom=    0.0000000   0.0000000   2.0440000   0.0000000   0.0000000   0.0000000   0.0000000   0.0000000   2.0440000   0.0000000
 NMagM=    0.0000000   0.0000000   0.4037610   2.7928460   2.7928460   2.7928460   2.7928460   2.7928460   0.4037610   0.0000000
 AtZNuc=   6.0000000   6.0000000   7.0000000   1.0000000   1.0000000   1.0000000   1.0000000   1.0000000   7.0000000   6.0000000

  Atom        21          22          23          24          25          26          27          28          29          30
 IAtWgt=          12          14           1           1          14          12          14           1          12          16
 AtmWgt=  12.0000000  14.0030740   1.0078250   1.0078250  14.0030740  12.0000000  14.0030740   1.0078250  12.0000000  15.9949146
 NucSpn=           0           2           1           1           2           0           2           1           0           0
 AtZEff=  -0.0000000  -0.0000000  -0.0000000  -0.0000000  -0.0000000  -0.0000000  -0.0000000  -0.0000000  -0.0000000  -0.0000000
 NQMom=    0.0000000   2.0440000   0.0000000   0.0000000   2.0440000   0.0000000   2.0440000   0.0000000   0.0000000   0.0000000
 NMagM=    0.0000000   0.4037610   2.7928460   2.7928460   0.4037610   0.0000000   0.4037610   2.7928460   0.0000000   0.0000000
 AtZNuc=   6.0000000   7.0000000   1.0000000   1.0000000   7.0000000   6.0000000   7.0000000   1.0000000   6.0000000   8.0000000

  Atom        31          32          33          34          35          36          37          38          39          40
 IAtWgt=          12          14          12           1           1           1           1           1           1           1
 AtmWgt=  12.0000000  14.0030740  12.0000000   1.0078250   1.0078250   1.0078250   1.0078250   1.0078250   1.0078250   1.0078250
 NucSpn=           0           2           0           1           1           1           1           1           1           1
 AtZEff=  -0.0000000  -0.0000000  -0.0000000  -0.0000000  -0.0000000  -0.0000000  -0.0000000  -0.0000000  -0.0000000  -0.0000000
 NQMom=    0.0000000   2.0440000   0.0000000   0.0000000   0.0000000   0.0000000   0.0000000   0.0000000   0.0000000   0.0000000
 NMagM=    0.0000000   0.4037610   0.0000000   2.7928460   2.7928460   2.7928460   2.7928460   2.7928460   2.7928460   2.7928460
 AtZNuc=   6.0000000   7.0000000   6.0000000   1.0000000   1.0000000   1.0000000   1.0000000   1.0000000   1.0000000   1.0000000

  Atom        41          42          43          44          45          46          47          48          49          50
 IAtWgt=           1          12          16          12           1          14          16          12           1          12
 AtmWgt=   1.0078250  12.0000000  15.9949146  12.0000000   1.0078250  14.0030740  15.9949146  12.0000000   1.0078250  12.0000000
 NucSpn=           1           0           0           0           1           2           0           0           1           0
 AtZEff=  -0.0000000  -0.0000000  -0.0000000  -0.0000000  -0.0000000  -0.0000000  -0.0000000  -0.0000000  -0.0000000  -0.0000000
 NQMom=    0.0000000   0.0000000   0.0000000   0.0000000   0.0000000   2.0440000   0.0000000   0.0000000   0.0000000   0.0000000
 NMagM=    2.7928460   0.0000000   0.0000000   0.0000000   2.7928460   0.4037610   0.0000000   0.0000000   2.7928460   0.0000000
 AtZNuc=   1.0000000   6.0000000   8.0000000   6.0000000   1.0000000   7.0000000   8.0000000   6.0000000   1.0000000   6.0000000

  Atom        51          52          53          54          55          56          57          58          59          60
 IAtWgt=          12          14           1           1           1           1           1          14          12          12
 AtmWgt=  12.0000000  14.0030740   1.0078250   1.0078250   1.0078250   1.0078250   1.0078250  14.0030740  12.0000000  12.0000000
 NucSpn=           0           2           1           1           1           1           1           2           0           0
 AtZEff=  -0.0000000  -0.0000000  -0.0000000  -0.0000000  -0.0000000  -0.0000000  -0.0000000  -0.0000000  -0.0000000  -0.0000000
 NQMom=    0.0000000   2.0440000   0.0000000   0.0000000   0.0000000   0.0000000   0.0000000   2.0440000   0.0000000   0.0000000
 NMagM=    0.0000000   0.4037610   2.7928460   2.7928460   2.7928460   2.7928460   2.7928460   0.4037610   0.0000000   0.0000000
 AtZNuc=   6.0000000   7.0000000   1.0000000   1.0000000   1.0000000   1.0000000   1.0000000   7.0000000   6.0000000   6.0000000

  Atom        61          62          63          64          65          66          67          68          69          70
 IAtWgt=          14           1          12          14           1          12          14          12          12          14
 AtmWgt=  14.0030740   1.0078250  12.0000000  14.0030740   1.0078250  12.0000000  14.0030740  12.0000000  12.0000000  14.0030740
 NucSpn=           2           1           0           2           1           0           2           0           0           2
 AtZEff=  -0.0000000  -0.0000000  -0.0000000  -0.0000000  -0.0000000  -0.0000000  -0.0000000  -0.0000000  -0.0000000  -0.0000000
 NQMom=    2.0440000   0.0000000   0.0000000   2.0440000   0.0000000   0.0000000   2.0440000   0.0000000   0.0000000   2.0440000
 NMagM=    0.4037610   2.7928460   0.0000000   0.4037610   2.7928460   0.0000000   0.4037610   0.0000000   0.0000000   0.4037610
 AtZNuc=   7.0000000   1.0000000   6.0000000   7.0000000   1.0000000   6.0000000   7.0000000   6.0000000   6.0000000   7.0000000
 Leave Link  101 at Thu Jan 25 13:03:49 2018, MaxMem=  4294967296 cpu:               7.7 elap:               0.3
 (Enter /share/apps/g16/l202.exe)
 Stoichiometry    C23H27N17O3
 Framework group  C1[X(C23H27N17O3)]
 Deg. of freedom   204
 Full point group                 C1      NOp   1
 Largest Abelian subgroup         C1      NOp   1
 Largest concise Abelian subgroup C1      NOp   1
                         Standard orientation:                         
 ---------------------------------------------------------------------
 Center     Atomic      Atomic             Coordinates (Angstroms)
 Number     Number       Type             X           Y           Z
 ---------------------------------------------------------------------
      1          7           0       -6.819012   -0.815761    0.350031
      2          6           0       -8.063624   -0.314363    0.964483
      3          6           0       -4.712054   -1.317555   -0.032363
      4          7           0       -5.427720   -1.790749   -1.122596
      5          6           0       -6.668449   -1.469502   -0.848592
      6          1           0       -7.521726   -1.687181   -1.491599
      7          7           0       -2.958098   -0.784470    1.451701
      8          6           0       -3.891306   -0.237154    2.237281
      9          1           0       -3.521396    0.199115    3.164150
     10          7           0       -5.206669   -0.148246    2.050697
     11          6           0       -5.556095   -0.714145    0.883616
     12          6           0       -3.341687   -1.345702    0.284232
     13          7           0       -2.411600   -1.892548   -0.501308
     14          1           0       -2.650143   -2.319167   -1.374421
     15          1           0       -1.445202   -1.894446   -0.244008
     16          1           0       -8.694283   -1.076278    1.112614
     17          1           0       -7.852973    0.117898    1.840784
     18          1           0       -8.490551    0.356354    0.357971
     19          7           0       -3.299176    1.971307   -1.103297
     20          6           0       -1.981478    2.077293   -0.728477
     21          6           0       -4.413618    2.757660   -0.537297
     22          7           0        0.476708    3.537323    1.243167
     23          1           0        1.465682    3.460192    1.366559
     24          1           0       -0.001555    4.202865    1.816775
     25          7           0       -1.487383    2.910895    0.212287
     26          6           0       -0.179531    2.782592    0.348946
     27          7           0        0.587612    1.905633   -0.379026
     28          1           0        1.580906    1.875350   -0.207541
     29          6           0        0.100506    1.038583   -1.352079
     30          8           0        0.878526    0.286528   -1.951939
     31          6           0       -1.303033    1.164910   -1.510194
     32          7           0       -2.177207    0.499520   -2.358697
     33          6           0       -3.346833    1.009384   -2.082627
     34          1           0       -4.280527    0.718816   -2.565401
     35          1           0       -5.083089    2.140925   -0.124675
     36          1           0       -4.059714    3.378750    0.160738
     37          1           0       -4.851698    3.287814   -1.262450
     38          1           0        6.344068    1.751887    1.567223
     39          1           0        6.669868    2.776162    0.171021
     40          1           0        5.102403    2.856462    0.975984
     41          1           0        6.426650   -1.540044   -1.940327
     42          6           0        5.757280   -0.779338   -1.538461
     43          8           0        3.829982   -1.640924   -2.620270
     44          6           0        4.369723   -0.812914   -1.886876
     45          1           0        2.626229    0.203771   -1.547884
     46          7           0        3.611571    0.194353   -1.324857
     47          8           0        3.300065    2.042165   -0.041983
     48          6           0        4.049227    1.192353   -0.490588
     49          1           0        7.260037    0.251409   -0.431626
     50          6           0        6.213964    0.181627   -0.726917
     51          6           0        5.912845    2.204133    0.686536
     52          7           0        5.399139    1.157381   -0.201241
     53          1           0        4.496671   -0.649174    4.114482
     54          1           0        3.341826    0.411154    3.662651
     55          1           0        4.863517    0.570641    3.094234
     56          1           0        0.756090   -3.307393   -1.717112
     57          1           0        2.418452   -3.602916   -1.473570
     58          7           0        1.587737   -3.120139   -1.194190
     59          6           0        1.589973   -2.264845   -0.169681
     60          6           0        2.577102   -1.058897    1.628385
     61          7           0        1.446665   -0.424811    1.981191
     62          1           0       -0.517168   -0.316992    1.404671
     63          6           0        0.441126   -0.786592    1.186898
     64          7           0        0.436877   -1.643070    0.160245
     65          1           0        5.699266   -1.888066    1.757689
     66          6           0        4.643726   -1.781692    1.505772
     67          7           0        4.042896   -2.416983    0.529517
     68          6           0        2.731970   -1.967793    0.596170
     69          6           0        4.156739   -0.083962    3.362825
     70          7           0        3.816364   -0.943140    2.212183
 ---------------------------------------------------------------------
 Rotational constants (GHZ):           0.1788765           0.0488183           0.0466334
 Leave Link  202 at Thu Jan 25 13:03:49 2018, MaxMem=  4294967296 cpu:               0.4 elap:               0.0
 (Enter /share/apps/g16/l301.exe)
 Standard basis: CC-pVDZ (5D, 7F)
 Ernie: Thresh=  0.10000D-02 Tol=  0.10000D-05 Strict=F.
 Ernie:  86 primitive shells out of 1081 were deleted.
 There are   780 symmetry adapted cartesian basis functions of A   symmetry.
 There are   737 symmetry adapted basis functions of A   symmetry.
   737 basis functions,  1608 primitive gaussians,   780 cartesian basis functions
   154 alpha electrons      154 beta electrons
       nuclear repulsion energy      5510.8635911954 Hartrees.
 IExCor= 4639 DFT=T Ex+Corr=wB97XD ExCW=0 ScaHFX=  1.000000
 ScaDFX=  1.000000  1.000000  1.000000  1.000000 ScalE2=  1.000000  1.000000
 IRadAn=      5 IRanWt=     -1 IRanGd=            0 ICorTp=0 IEmpDi=121
 HFx  wShort=  0.000000 wLong=  0.200000 cFull=  0.222036 cShort=  0.000000 cLong=  0.777964
 DFx  wShort=  0.000000 wLong=  0.200000 cFull=  0.000000 cShort=  0.000000 cLong=  1.000000
 NAtoms=   70 NActive=   70 NUniq=   70 SFac= 1.00D+00 NAtFMM=   60 NAOKFM=T Big=T
 Integral buffers will be    131072 words long.
 Raffenetti 2 integral format.
 Two-electron integral symmetry is turned on.
 R6Disp:  Grimme-D2 Dispersion energy=       -0.0730478983 Hartrees.
 Nuclear repulsion after empirical dispersion term =     5510.7905432971 Hartrees.
 Leave Link  301 at Thu Jan 25 13:03:50 2018, MaxMem=  4294967296 cpu:               3.0 elap:               0.1
 (Enter /share/apps/g16/l302.exe)
 NPDir=0 NMtPBC=     1 NCelOv=     1 NCel=       1 NClECP=     1 NCelD=      1
         NCelK=      1 NCelE2=     1 NClLst=     1 CellRange=     0.0.
 One-electron integrals computed using PRISM.
 One-electron integral symmetry used in STVInt
 NBasis=   737 RedAO= T EigKep=  6.93D-04  NBF=   737
 NBsUse=   737 1.00D-06 EigRej= -1.00D+00 NBFU=   737
 Precomputing XC quadrature grid using
 IXCGrd= 4 IRadAn=           5 IRanWt=          -1 IRanGd=           0 AccXCQ= 0.00D+00.
 Generated NRdTot=       0 NPtTot=           0 NUsed=           0 NTot=          32
 NSgBfM=   764   752   758   760   764 MxSgAt=    70 MxSgA2=    70.
 Leave Link  302 at Thu Jan 25 13:03:54 2018, MaxMem=  4294967296 cpu:             136.1 elap:               4.3
 (Enter /share/apps/g16/l303.exe)
 DipDrv:  MaxL=1.
 Leave Link  303 at Thu Jan 25 13:03:54 2018, MaxMem=  4294967296 cpu:              12.5 elap:               0.4
 (Enter /share/apps/g16/l401.exe)
 ExpMin= 1.22D-01 ExpMax= 1.17D+04 ExpMxC= 4.01D+02 IAcc=3 IRadAn=         5 AccDes= 0.00D+00
 Harris functional with IExCor= 4639 and IRadAn=       5 diagonalized for initial guess.
 HarFok:  IExCor= 4639 AccDes= 0.00D+00 IRadAn=         5 IDoV= 1 UseB2=F ITyADJ=14
 ICtDFT=  3500011 ScaDFX=  1.000000  1.000000  1.000000  1.000000
 FoFCou: FMM=F IPFlag=           0 FMFlag=      100000 FMFlg1=        2001
         NFxFlg=           0 DoJE=T BraDBF=F KetDBF=T FulRan=T
         wScrn=  0.000000 ICntrl=       500 IOpCl=  0 I1Cent=   200000004 NGrid=           0
         NMat0=    1 NMatS0=      1 NMatT0=    0 NMatD0=    1 NMtDS0=    0 NMtDT0=    0
 Petite list used in FoFCou.
 Harris En= -1963.88632319087    
 JPrj=0 DoOrth=F DoCkMO=F.
 Leave Link  401 at Thu Jan 25 13:04:07 2018, MaxMem=  4294967296 cpu:             400.7 elap:              12.6
 (Enter /share/apps/g16/l502.exe)
 Integral symmetry usage will be decided dynamically.
 Closed shell SCF:
 Using DIIS extrapolation, IDIIS=  1040.
 NGot=  4294967296 LenX=  4293717438 LenY=  4293108258
 Requested convergence on RMS density matrix=1.00D-08 within  20 cycles.
 Requested convergence on MAX density matrix=1.00D-06.
 Requested convergence on             energy=1.00D-06.
 No special actions if energy rises.
 Fock matrices will be formed incrementally for  20 cycles.
 Integral accuracy reduced to 1.0D-05 until final iterations.

 Cycle   1  Pass 0  IDiag  1:
 FoFJK:  IHMeth= 1 ICntrl=       0 DoSepK=T KAlg= 0 I1Cent=           0 FoldK=F
 IRaf=         1 NMat=       1 IRICut=       1 DoRegI=T DoRafI=F ISym2E= 0 IDoP0=0 IntGTp=1.
 FoFCou: FMM=T IPFlag=           0 FMFlag=      100000 FMFlg1=        2001
         NFxFlg=           0 DoJE=T BraDBF=F KetDBF=F FulRan=T
         wScrn=  0.000000 ICntrl=       500 IOpCl=  0 I1Cent=           0 NGrid=           0
         NMat0=    1 NMatS0=      1 NMatT0=    0 NMatD0=    1 NMtDS0=    0 NMtDT0=    0
 Symmetry not used in FoFCou.
 FMM levels:  10  Number of levels for PrismC:   9
 E= -2048.31135479631    
 DIIS: error= 1.93D-02 at cycle   1 NSaved=   1.
 NSaved= 1 IEnMin= 1 EnMin= -2048.31135479631     IErMin= 1 ErrMin= 1.93D-02
 ErrMax= 1.93D-02  0.00D+00 EMaxC= 1.00D-01 BMatC= 8.40D-01 BMatP= 8.40D-01
 IDIUse=3 WtCom= 8.07D-01 WtEn= 1.93D-01
 Coeff-Com:  0.100D+01
 Coeff-En:   0.100D+01
 Coeff:      0.100D+01
 Gap=     0.252 Goal=   None    Shift=    0.000
 GapD=    0.252 DampG=1.000 DampE=0.500 DampFc=0.5000 IDamp=-1.
 Damping current iteration by 5.00D-01
 RMSDP=1.61D-03 MaxDP=1.16D-01              OVMax= 2.15D-01

 Cycle   2  Pass 0  IDiag  1:
 RMSU=  8.06D-04    CP:  9.97D-01
 E= -2048.50802285142     Delta-E=       -0.196668055110 Rises=F Damp=T
 DIIS: error= 1.07D-02 at cycle   2 NSaved=   2.
 NSaved= 2 IEnMin= 2 EnMin= -2048.50802285142     IErMin= 2 ErrMin= 1.07D-02
 ErrMax= 1.07D-02  0.00D+00 EMaxC= 1.00D-01 BMatC= 1.47D-01 BMatP= 8.40D-01
 IDIUse=3 WtCom= 8.93D-01 WtEn= 1.07D-01
 Coeff-Com: -0.175D+00 0.118D+01
 Coeff-En:   0.000D+00 0.100D+01
 Coeff:     -0.157D+00 0.116D+01
 Gap=     0.370 Goal=   None    Shift=    0.000
 RMSDP=6.03D-04 MaxDP=3.34D-02 DE=-1.97D-01 OVMax= 1.67D-01

 Cycle   3  Pass 0  IDiag  1:
 RMSU=  5.97D-04    CP:  9.94D-01  1.09D+00
 E= -2048.68725506118     Delta-E=       -0.179232209758 Rises=F Damp=F
 DIIS: error= 1.20D-02 at cycle   3 NSaved=   3.
 NSaved= 3 IEnMin= 3 EnMin= -2048.68725506118     IErMin= 2 ErrMin= 1.07D-02
 ErrMax= 1.20D-02  0.00D+00 EMaxC= 1.00D-01 BMatC= 7.16D-02 BMatP= 1.47D-01
 IDIUse=3 WtCom= 8.80D-01 WtEn= 1.20D-01
 Coeff-Com: -0.232D+00 0.559D+00 0.673D+00
 Coeff-En:   0.000D+00 0.000D+00 0.100D+01
 Coeff:     -0.204D+00 0.492D+00 0.712D+00
 Gap=     0.278 Goal=   None    Shift=    0.000
 RMSDP=4.05D-04 MaxDP=2.92D-02 DE=-1.79D-01 OVMax= 8.24D-02

 Cycle   4  Pass 0  IDiag  1:
 RMSU=  2.20D-04    CP:  9.94D-01  1.41D+00  6.31D-01
 E= -2048.73953486365     Delta-E=       -0.052279802467 Rises=F Damp=F
 DIIS: error= 5.24D-03 at cycle   4 NSaved=   4.
 NSaved= 4 IEnMin= 4 EnMin= -2048.73953486365     IErMin= 4 ErrMin= 5.24D-03
 ErrMax= 5.24D-03  0.00D+00 EMaxC= 1.00D-01 BMatC= 1.31D-02 BMatP= 7.16D-02
 IDIUse=3 WtCom= 9.48D-01 WtEn= 5.24D-02
 Coeff-Com: -0.914D-01 0.177D+00 0.393D+00 0.522D+00
 Coeff-En:   0.000D+00 0.000D+00 0.127D+00 0.873D+00
 Coeff:     -0.866D-01 0.168D+00 0.379D+00 0.540D+00
 Gap=     0.284 Goal=   None    Shift=    0.000
 RMSDP=1.51D-04 MaxDP=1.28D-02 DE=-5.23D-02 OVMax= 2.01D-02

 Cycle   5  Pass 0  IDiag  1:
 RMSU=  6.27D-05    CP:  9.94D-01  1.36D+00  7.94D-01  5.99D-01
 E= -2048.75045296149     Delta-E=       -0.010918097848 Rises=F Damp=F
 DIIS: error= 8.55D-04 at cycle   5 NSaved=   5.
 NSaved= 5 IEnMin= 5 EnMin= -2048.75045296149     IErMin= 5 ErrMin= 8.55D-04
 ErrMax= 8.55D-04  0.00D+00 EMaxC= 1.00D-01 BMatC= 3.58D-04 BMatP= 1.31D-02
 IDIUse=3 WtCom= 9.91D-01 WtEn= 8.55D-03
 Coeff-Com: -0.221D-01 0.369D-01 0.125D+00 0.242D+00 0.618D+00
 Coeff-En:   0.000D+00 0.000D+00 0.000D+00 0.000D+00 0.100D+01
 Coeff:     -0.220D-01 0.366D-01 0.124D+00 0.240D+00 0.621D+00
 Gap=     0.284 Goal=   None    Shift=    0.000
 RMSDP=2.86D-05 MaxDP=2.11D-03 DE=-1.09D-02 OVMax= 4.11D-03

 Failed to achieve initial convergence to 1.0D-08 in  6 cycles.
 Switch to full accuracy anyway.
 Cycle   6  Pass 1  IDiag  1:
 E= -2048.75070680629     Delta-E=       -0.000253844794 Rises=F Damp=F
 DIIS: error= 2.76D-04 at cycle   1 NSaved=   1.
 NSaved= 1 IEnMin= 1 EnMin= -2048.75070680629     IErMin= 1 ErrMin= 2.76D-04
 ErrMax= 2.76D-04  0.00D+00 EMaxC= 1.00D-01 BMatC= 7.88D-05 BMatP= 7.88D-05
 IDIUse=3 WtCom= 9.97D-01 WtEn= 2.76D-03
 Coeff-Com:  0.100D+01
 Coeff-En:   0.100D+01
 Coeff:      0.100D+01
 Gap=     0.284 Goal=   None    Shift=    0.000
 RMSDP=2.86D-05 MaxDP=2.11D-03 DE=-2.54D-04 OVMax= 2.30D-03

 Cycle   7  Pass 1  IDiag  1:
 RMSU=  1.17D-04    CP:  1.00D+00
 E= -2048.75076140203     Delta-E=       -0.000054595741 Rises=F Damp=F
 DIIS: error= 3.44D-04 at cycle   2 NSaved=   2.
 NSaved= 2 IEnMin= 2 EnMin= -2048.75076140203     IErMin= 1 ErrMin= 2.76D-04
 ErrMax= 3.44D-04  0.00D+00 EMaxC= 1.00D-01 BMatC= 5.03D-05 BMatP= 7.88D-05
 IDIUse=3 WtCom= 9.97D-01 WtEn= 3.44D-03
 Coeff-Com:  0.426D+00 0.574D+00
 Coeff-En:   0.249D-01 0.975D+00
 Coeff:      0.424D+00 0.576D+00
 Gap=     0.284 Goal=   None    Shift=    0.000
 RMSDP=1.21D-05 MaxDP=1.21D-03 DE=-5.46D-05 OVMax= 1.60D-03

 Cycle   8  Pass 1  IDiag  1:
 RMSU=  1.18D-05    CP:  1.00D+00  1.02D+00
 E= -2048.75079782709     Delta-E=       -0.000036425065 Rises=F Damp=F
 DIIS: error= 1.31D-04 at cycle   3 NSaved=   3.
 NSaved= 3 IEnMin= 3 EnMin= -2048.75079782709     IErMin= 3 ErrMin= 1.31D-04
 ErrMax= 1.31D-04  0.00D+00 EMaxC= 1.00D-01 BMatC= 1.05D-05 BMatP= 5.03D-05
 IDIUse=3 WtCom= 9.99D-01 WtEn= 1.31D-03
 Coeff-Com: -0.179D-01 0.300D+00 0.718D+00
 Coeff-En:   0.000D+00 0.116D+00 0.884D+00
 Coeff:     -0.179D-01 0.299D+00 0.719D+00
 Gap=     0.284 Goal=   None    Shift=    0.000
 RMSDP=5.86D-06 MaxDP=4.58D-04 DE=-3.64D-05 OVMax= 6.06D-04

 Cycle   9  Pass 1  IDiag  1:
 RMSU=  3.90D-06    CP:  1.00D+00  1.05D+00  7.69D-01
 E= -2048.75080749411     Delta-E=       -0.000009667017 Rises=F Damp=F
 DIIS: error= 4.23D-05 at cycle   4 NSaved=   4.
 NSaved= 4 IEnMin= 4 EnMin= -2048.75080749411     IErMin= 4 ErrMin= 4.23D-05
 ErrMax= 4.23D-05  0.00D+00 EMaxC= 1.00D-01 BMatC= 5.47D-07 BMatP= 1.05D-05
 IDIUse=1 WtCom= 1.00D+00 WtEn= 0.00D+00
 Coeff-Com: -0.314D-01 0.842D-01 0.270D+00 0.677D+00
 Coeff:     -0.314D-01 0.842D-01 0.270D+00 0.677D+00
 Gap=     0.284 Goal=   None    Shift=    0.000
 RMSDP=1.48D-06 MaxDP=1.06D-04 DE=-9.67D-06 OVMax= 5.33D-04

 Cycle  10  Pass 1  IDiag  1:
 RMSU=  1.33D-06    CP:  1.00D+00  1.06D+00  8.00D-01  1.10D+00
 E= -2048.75080837844     Delta-E=       -0.000000884333 Rises=F Damp=F
 DIIS: error= 1.45D-05 at cycle   5 NSaved=   5.
 NSaved= 5 IEnMin= 5 EnMin= -2048.75080837844     IErMin= 5 ErrMin= 1.45D-05
 ErrMax= 1.45D-05  0.00D+00 EMaxC= 1.00D-01 BMatC= 1.30D-07 BMatP= 5.47D-07
 IDIUse=1 WtCom= 1.00D+00 WtEn= 0.00D+00
 Coeff-Com: -0.417D-02-0.488D-01-0.112D+00 0.213D+00 0.952D+00
 Coeff:     -0.417D-02-0.488D-01-0.112D+00 0.213D+00 0.952D+00
 Gap=     0.284 Goal=   None    Shift=    0.000
 RMSDP=1.20D-06 MaxDP=6.04D-05 DE=-8.84D-07 OVMax= 2.67D-04

 Cycle  11  Pass 1  IDiag  1:
 RMSU=  5.04D-07    CP:  1.00D+00  1.06D+00  8.06D-01  1.37D+00  1.17D+00
 E= -2048.75080864630     Delta-E=       -0.000000267853 Rises=F Damp=F
 DIIS: error= 9.86D-06 at cycle   6 NSaved=   6.
 NSaved= 6 IEnMin= 6 EnMin= -2048.75080864630     IErMin= 6 ErrMin= 9.86D-06
 ErrMax= 9.86D-06  0.00D+00 EMaxC= 1.00D-01 BMatC= 3.16D-08 BMatP= 1.30D-07
 IDIUse=1 WtCom= 1.00D+00 WtEn= 0.00D+00
 Coeff-Com:  0.478D-02-0.430D-01-0.118D+00-0.593D-02 0.515D+00 0.648D+00
 Coeff:      0.478D-02-0.430D-01-0.118D+00-0.593D-02 0.515D+00 0.648D+00
 Gap=     0.284 Goal=   None    Shift=    0.000
 RMSDP=4.05D-07 MaxDP=2.68D-05 DE=-2.68D-07 OVMax= 1.42D-04

 Cycle  12  Pass 1  IDiag  1:
 RMSU=  1.97D-07    CP:  1.00D+00  1.06D+00  8.07D-01  1.45D+00  1.30D+00
                    CP:  9.49D-01
 E= -2048.75080869293     Delta-E=       -0.000000046636 Rises=F Damp=F
 DIIS: error= 1.39D-06 at cycle   7 NSaved=   7.
 NSaved= 7 IEnMin= 7 EnMin= -2048.75080869293     IErMin= 7 ErrMin= 1.39D-06
 ErrMax= 1.39D-06  0.00D+00 EMaxC= 1.00D-01 BMatC= 9.33D-10 BMatP= 3.16D-08
 IDIUse=1 WtCom= 1.00D+00 WtEn= 0.00D+00
 Coeff-Com:  0.136D-02-0.895D-02-0.264D-01-0.916D-02 0.800D-01 0.165D+00
 Coeff-Com:  0.798D+00
 Coeff:      0.136D-02-0.895D-02-0.264D-01-0.916D-02 0.800D-01 0.165D+00
 Coeff:      0.798D+00
 Gap=     0.284 Goal=   None    Shift=    0.000
 RMSDP=8.61D-08 MaxDP=3.69D-06 DE=-4.66D-08 OVMax= 2.46D-05

 Cycle  13  Pass 1  IDiag  1:
 RMSU=  5.35D-08    CP:  1.00D+00  1.06D+00  8.06D-01  1.46D+00  1.32D+00
                    CP:  1.03D+00  1.12D+00
 E= -2048.75080869506     Delta-E=       -0.000000002125 Rises=F Damp=F
 DIIS: error= 6.07D-07 at cycle   8 NSaved=   8.
 NSaved= 8 IEnMin= 8 EnMin= -2048.75080869506     IErMin= 8 ErrMin= 6.07D-07
 ErrMax= 6.07D-07  0.00D+00 EMaxC= 1.00D-01 BMatC= 3.43D-10 BMatP= 9.33D-10
 IDIUse=1 WtCom= 1.00D+00 WtEn= 0.00D+00
 Coeff-Com: -0.722D-03 0.820D-02 0.212D-01-0.615D-03-0.109D+00-0.105D+00
 Coeff-Com:  0.385D+00 0.801D+00
 Coeff:     -0.722D-03 0.820D-02 0.212D-01-0.615D-03-0.109D+00-0.105D+00
 Coeff:      0.385D+00 0.801D+00
 Gap=     0.284 Goal=   None    Shift=    0.000
 RMSDP=5.13D-08 MaxDP=2.35D-06 DE=-2.12D-09 OVMax= 1.31D-05

 Cycle  14  Pass 1  IDiag  1:
 RMSU=  2.86D-08    CP:  1.00D+00  1.06D+00  8.06D-01  1.46D+00  1.33D+00
                    CP:  1.08D+00  1.27D+00  1.06D+00
 E= -2048.75080869548     Delta-E=       -0.000000000420 Rises=F Damp=F
 DIIS: error= 1.90D-07 at cycle   9 NSaved=   9.
 NSaved= 9 IEnMin= 9 EnMin= -2048.75080869548     IErMin= 9 ErrMin= 1.90D-07
 ErrMax= 1.90D-07  0.00D+00 EMaxC= 1.00D-01 BMatC= 2.90D-11 BMatP= 3.43D-10
 IDIUse=1 WtCom= 1.00D+00 WtEn= 0.00D+00
 Coeff-Com: -0.432D-03 0.426D-02 0.113D-01 0.769D-03-0.520D-01-0.593D-01
 Coeff-Com:  0.795D-01 0.307D+00 0.709D+00
 Coeff:     -0.432D-03 0.426D-02 0.113D-01 0.769D-03-0.520D-01-0.593D-01
 Coeff:      0.795D-01 0.307D+00 0.709D+00
 Gap=     0.284 Goal=   None    Shift=    0.000
 RMSDP=1.34D-08 MaxDP=5.14D-07 DE=-4.20D-10 OVMax= 3.47D-06

 Cycle  15  Pass 1  IDiag  1:
 RMSU=  9.45D-09    CP:  1.00D+00  1.06D+00  8.06D-01  1.46D+00  1.33D+00
                    CP:  1.08D+00  1.30D+00  1.19D+00  1.11D+00
 E= -2048.75080869537     Delta-E=        0.000000000111 Rises=F Damp=F
 DIIS: error= 6.30D-08 at cycle  10 NSaved=  10.
 NSaved=10 IEnMin= 9 EnMin= -2048.75080869548     IErMin=10 ErrMin= 6.30D-08
 ErrMax= 6.30D-08  0.00D+00 EMaxC= 1.00D-01 BMatC= 4.44D-12 BMatP= 2.90D-11
 IDIUse=1 WtCom= 1.00D+00 WtEn= 0.00D+00
 Coeff-Com:  0.121D-04-0.342D-03-0.767D-03 0.101D-03 0.596D-02 0.247D-02
 Coeff-Com: -0.482D-01-0.709D-01 0.231D+00 0.881D+00
 Coeff:      0.121D-04-0.342D-03-0.767D-03 0.101D-03 0.596D-02 0.247D-02
 Coeff:     -0.482D-01-0.709D-01 0.231D+00 0.881D+00
 Gap=     0.284 Goal=   None    Shift=    0.000
 RMSDP=6.62D-09 MaxDP=2.65D-07 DE= 1.11D-10 OVMax= 1.55D-06

 SCF Done:  E(RwB97XD) =  -2048.75080870     A.U. after   15 cycles
            NFock= 15  Conv=0.66D-08     -V/T= 2.0054
 KE= 2.037732794864D+03 PE=-1.580271152088D+04 EE= 6.205437374026D+03
 Leave Link  502 at Thu Jan 25 13:15:30 2018, MaxMem=  4294967296 cpu:           21180.2 elap:             683.2
 (Enter /share/apps/g16/l601.exe)
 Copying SCF densities to generalized density rwf, IOpCl= 0 IROHF=0.

 **********************************************************************

            Population analysis using the SCF density.

 **********************************************************************

 Orbital symmetries:
       Occupied  (A) (A) (A) (A) (A) (A) (A) (A) (A) (A) (A) (A)
                 (A) (A) (A) (A) (A) (A) (A) (A) (A) (A) (A) (A)
                 (A) (A) (A) (A) (A) (A) (A) (A) (A) (A) (A) (A)
                 (A) (A) (A) (A) (A) (A) (A) (A) (A) (A) (A) (A)
                 (A) (A) (A) (A) (A) (A) (A) (A) (A) (A) (A) (A)
                 (A) (A) (A) (A) (A) (A) (A) (A) (A) (A) (A) (A)
                 (A) (A) (A) (A) (A) (A) (A) (A) (A) (A) (A) (A)
                 (A) (A) (A) (A) (A) (A) (A) (A) (A) (A) (A) (A)
                 (A) (A) (A) (A) (A) (A) (A) (A) (A) (A) (A) (A)
                 (A) (A) (A) (A) (A) (A) (A) (A) (A) (A) (A) (A)
                 (A) (A) (A) (A) (A) (A) (A) (A) (A) (A) (A) (A)
                 (A) (A) (A) (A) (A) (A) (A) (A) (A) (A) (A) (A)
                 (A) (A) (A) (A) (A) (A) (A) (A) (A) (A)
       Virtual   (A) (A) (A) (A) (A) (A) (A) (A) (A) (A) (A) (A)
                 (A) (A) (A) (A) (A) (A) (A) (A) (A) (A) (A) (A)
                 (A) (A) (A) (A) (A) (A) (A) (A) (A) (A) (A) (A)
                 (A) (A) (A) (A) (A) (A) (A) (A) (A) (A) (A) (A)
                 (A) (A) (A) (A) (A) (A) (A) (A) (A) (A) (A) (A)
                 (A) (A) (A) (A) (A) (A) (A) (A) (A) (A) (A) (A)
                 (A) (A) (A) (A) (A) (A) (A) (A) (A) (A) (A) (A)
                 (A) (A) (A) (A) (A) (A) (A) (A) (A) (A) (A) (A)
                 (A) (A) (A) (A) (A) (A) (A) (A) (A) (A) (A) (A)
                 (A) (A) (A) (A) (A) (A) (A) (A) (A) (A) (A) (A)
                 (A) (A) (A) (A) (A) (A) (A) (A) (A) (A) (A) (A)
                 (A) (A) (A) (A) (A) (A) (A) (A) (A) (A) (A) (A)
                 (A) (A) (A) (A) (A) (A) (A) (A) (A) (A) (A) (A)
                 (A) (A) (A) (A) (A) (A) (A) (A) (A) (A) (A) (A)
                 (A) (A) (A) (A) (A) (A) (A) (A) (A) (A) (A) (A)
                 (A) (A) (A) (A) (A) (A) (A) (A) (A) (A) (A) (A)
                 (A) (A) (A) (A) (A) (A) (A) (A) (A) (A) (A) (A)
                 (A) (A) (A) (A) (A) (A) (A) (A) (A) (A) (A) (A)
                 (A) (A) (A) (A) (A) (A) (A) (A) (A) (A) (A) (A)
                 (A) (A) (A) (A) (A) (A) (A) (A) (A) (A) (A) (A)
                 (A) (A) (A) (A) (A) (A) (A) (A) (A) (A) (A) (A)
                 (A) (A) (A) (A) (A) (A) (A) (A) (A) (A) (A) (A)
                 (A) (A) (A) (A) (A) (A) (A) (A) (A) (A) (A) (A)
                 (A) (A) (A) (A) (A) (A) (A) (A) (A) (A) (A) (A)
                 (A) (A) (A) (A) (A) (A) (A) (A) (A) (A) (A) (A)
                 (A) (A) (A) (A) (A) (A) (A) (A) (A) (A) (A) (A)
                 (A) (A) (A) (A) (A) (A) (A) (A) (A) (A) (A) (A)
                 (A) (A) (A) (A) (A) (A) (A) (A) (A) (A) (A) (A)
                 (A) (A) (A) (A) (A) (A) (A) (A) (A) (A) (A) (A)
                 (A) (A) (A) (A) (A) (A) (A) (A) (A) (A) (A) (A)
                 (A) (A) (A) (A) (A) (A) (A) (A) (A) (A) (A) (A)
                 (A) (A) (A) (A) (A) (A) (A) (A) (A) (A) (A) (A)
                 (A) (A) (A) (A) (A) (A) (A) (A) (A) (A) (A) (A)
                 (A) (A) (A) (A) (A) (A) (A) (A) (A) (A) (A) (A)
                 (A) (A) (A) (A) (A) (A) (A) (A) (A) (A) (A) (A)
                 (A) (A) (A) (A) (A) (A) (A) (A) (A) (A) (A) (A)
                 (A) (A) (A) (A) (A) (A) (A) (A) (A) (A) (A) (A)
                 (A) (A) (A) (A) (A) (A) (A) (A) (A) (A) (A) (A)
                 (A) (A) (A) (A) (A) (A) (A) (A) (A) (A) (A) (A)
                 (A) (A) (A) (A) (A) (A) (A) (A) (A) (A) (A) (A)
                 (A) (A) (A) (A) (A) (A) (A) (A) (A) (A) (A) (A)
                 (A) (A) (A) (A) (A) (A) (A) (A) (A) (A) (A) (A)
                 (A) (A) (A) (A) (A) (A) (A) (A) (A) (A) (A) (A)
                 (A) (A) (A) (A) (A) (A) (A) (A) (A) (A) (A) (A)
                 (A) (A) (A) (A) (A) (A) (A) (A) (A) (A) (A) (A)
                 (A) (A) (A) (A) (A) (A) (A) (A) (A) (A) (A) (A)
                 (A) (A) (A) (A) (A) (A) (A) (A) (A) (A) (A) (A)
                 (A) (A) (A) (A) (A) (A) (A) (A) (A) (A) (A) (A)
                 (A) (A) (A) (A) (A) (A) (A)
 The electronic state is 1-A.
 Alpha  occ. eigenvalues --  -19.25941 -19.21996 -19.20727 -14.52503 -14.50968
 Alpha  occ. eigenvalues --  -14.49937 -14.48659 -14.47822 -14.46994 -14.46720
 Alpha  occ. eigenvalues --  -14.45391 -14.43615 -14.42704 -14.42667 -14.42469
 Alpha  occ. eigenvalues --  -14.42246 -14.42049 -14.41813 -14.40971 -14.40845
 Alpha  occ. eigenvalues --  -10.45539 -10.41267 -10.40078 -10.38320 -10.37667
 Alpha  occ. eigenvalues --  -10.37458 -10.36358 -10.36236 -10.35817 -10.35368
 Alpha  occ. eigenvalues --  -10.35277 -10.34459 -10.34378 -10.34052 -10.33909
 Alpha  occ. eigenvalues --  -10.33192 -10.33047 -10.31945 -10.30913 -10.30668
 Alpha  occ. eigenvalues --  -10.30569 -10.29649 -10.28140  -1.19515  -1.13583
 Alpha  occ. eigenvalues --   -1.13286  -1.12956  -1.12525  -1.10588  -1.09390
 Alpha  occ. eigenvalues --   -1.08650  -1.07084  -1.05864  -1.02581  -1.02522
 Alpha  occ. eigenvalues --   -1.01274  -0.99804  -0.99241  -0.98572  -0.98024
 Alpha  occ. eigenvalues --   -0.96516  -0.94763  -0.93443  -0.90935  -0.85998
 Alpha  occ. eigenvalues --   -0.84997  -0.84518  -0.84064  -0.83920  -0.83333
 Alpha  occ. eigenvalues --   -0.82344  -0.78837  -0.75170  -0.74584  -0.73830
 Alpha  occ. eigenvalues --   -0.73691  -0.73359  -0.72906  -0.71993  -0.68506
 Alpha  occ. eigenvalues --   -0.67397  -0.67216  -0.66558  -0.64801  -0.64445
 Alpha  occ. eigenvalues --   -0.63760  -0.63594  -0.62666  -0.62339  -0.61737
 Alpha  occ. eigenvalues --   -0.61018  -0.60550  -0.59525  -0.58746  -0.58393
 Alpha  occ. eigenvalues --   -0.57951  -0.57854  -0.57604  -0.57173  -0.56455
 Alpha  occ. eigenvalues --   -0.56038  -0.56011  -0.54718  -0.54394  -0.53826
 Alpha  occ. eigenvalues --   -0.53636  -0.53565  -0.52896  -0.52784  -0.52700
 Alpha  occ. eigenvalues --   -0.52046  -0.51877  -0.51714  -0.51169  -0.51035
 Alpha  occ. eigenvalues --   -0.50153  -0.49935  -0.49449  -0.48838  -0.48594
 Alpha  occ. eigenvalues --   -0.48244  -0.48170  -0.47945  -0.47809  -0.47768
 Alpha  occ. eigenvalues --   -0.47388  -0.45903  -0.45133  -0.43986  -0.42747
 Alpha  occ. eigenvalues --   -0.42015  -0.39519  -0.38997  -0.38152  -0.37343
 Alpha  occ. eigenvalues --   -0.37246  -0.36205  -0.35771  -0.35695  -0.34680
 Alpha  occ. eigenvalues --   -0.34489  -0.34303  -0.33240  -0.32911  -0.32673
 Alpha  occ. eigenvalues --   -0.32381  -0.32297  -0.31993  -0.31927  -0.31709
 Alpha  occ. eigenvalues --   -0.31158  -0.27748  -0.26565  -0.25491
 Alpha virt. eigenvalues --    0.02952   0.06028   0.06982   0.08086   0.08919
 Alpha virt. eigenvalues --    0.09347   0.09736   0.10236   0.10870   0.12526
 Alpha virt. eigenvalues --    0.13006   0.13514   0.14289   0.14760   0.15111
 Alpha virt. eigenvalues --    0.16253   0.16581   0.17640   0.17949   0.18185
 Alpha virt. eigenvalues --    0.18658   0.18764   0.19718   0.20026   0.20344
 Alpha virt. eigenvalues --    0.20619   0.21085   0.21807   0.22056   0.22520
 Alpha virt. eigenvalues --    0.22825   0.23035   0.23112   0.23328   0.23623
 Alpha virt. eigenvalues --    0.23803   0.24102   0.24709   0.25421   0.25857
 Alpha virt. eigenvalues --    0.25969   0.26886   0.27072   0.27787   0.27947
 Alpha virt. eigenvalues --    0.28087   0.29160   0.29803   0.30322   0.30856
 Alpha virt. eigenvalues --    0.31479   0.32261   0.33057   0.33233   0.33880
 Alpha virt. eigenvalues --    0.34189   0.34935   0.35011   0.35919   0.36352
 Alpha virt. eigenvalues --    0.36834   0.37559   0.38174   0.38714   0.39396
 Alpha virt. eigenvalues --    0.39873   0.40960   0.41351   0.41418   0.42160
 Alpha virt. eigenvalues --    0.42218   0.42654   0.43142   0.43977   0.44321
 Alpha virt. eigenvalues --    0.45088   0.45622   0.45968   0.46291   0.46551
 Alpha virt. eigenvalues --    0.46833   0.48048   0.48452   0.49753   0.50025
 Alpha virt. eigenvalues --    0.50117   0.50433   0.50868   0.50951   0.50984
 Alpha virt. eigenvalues --    0.51396   0.51732   0.52747   0.53469   0.53927
 Alpha virt. eigenvalues --    0.54163   0.54395   0.54866   0.55116   0.55472
 Alpha virt. eigenvalues --    0.56127   0.56605   0.56796   0.57639   0.57699
 Alpha virt. eigenvalues --    0.57847   0.58549   0.58588   0.59703   0.60390
 Alpha virt. eigenvalues --    0.60575   0.60691   0.60839   0.61142   0.61566
 Alpha virt. eigenvalues --    0.61753   0.62106   0.62694   0.63057   0.63563
 Alpha virt. eigenvalues --    0.64050   0.64681   0.64914   0.64968   0.65548
 Alpha virt. eigenvalues --    0.65754   0.65889   0.66764   0.67108   0.67488
 Alpha virt. eigenvalues --    0.68381   0.68682   0.68900   0.69531   0.70051
 Alpha virt. eigenvalues --    0.70372   0.70494   0.70855   0.71376   0.71473
 Alpha virt. eigenvalues --    0.72211   0.73122   0.73551   0.73765   0.74261
 Alpha virt. eigenvalues --    0.74399   0.74967   0.75178   0.75715   0.75919
 Alpha virt. eigenvalues --    0.76279   0.76609   0.76959   0.77103   0.77514
 Alpha virt. eigenvalues --    0.77723   0.78179   0.78276   0.79047   0.79329
 Alpha virt. eigenvalues --    0.79687   0.80261   0.80450   0.80643   0.81421
 Alpha virt. eigenvalues --    0.81646   0.81912   0.82538   0.83022   0.83074
 Alpha virt. eigenvalues --    0.83581   0.83960   0.84738   0.84853   0.85816
 Alpha virt. eigenvalues --    0.86207   0.86549   0.86901   0.87443   0.88044
 Alpha virt. eigenvalues --    0.88557   0.88699   0.89498   0.89988   0.90235
 Alpha virt. eigenvalues --    0.90651   0.90830   0.91376   0.91686   0.91940
 Alpha virt. eigenvalues --    0.92550   0.92731   0.92829   0.93350   0.93661
 Alpha virt. eigenvalues --    0.94138   0.95343   0.96028   0.96158   0.97262
 Alpha virt. eigenvalues --    0.97409   0.97483   0.98298   0.98471   0.99197
 Alpha virt. eigenvalues --    0.99327   0.99702   0.99978   1.00546   1.00942
 Alpha virt. eigenvalues --    1.01397   1.01959   1.02564   1.02975   1.04096
 Alpha virt. eigenvalues --    1.04254   1.04705   1.05018   1.05350   1.05701
 Alpha virt. eigenvalues --    1.06319   1.06666   1.07380   1.08379   1.08896
 Alpha virt. eigenvalues --    1.09234   1.09906   1.10589   1.11358   1.11643
 Alpha virt. eigenvalues --    1.11981   1.12733   1.13089   1.13575   1.13989
 Alpha virt. eigenvalues --    1.14691   1.14915   1.15144   1.15544   1.15999
 Alpha virt. eigenvalues --    1.16542   1.16830   1.17618   1.17917   1.18039
 Alpha virt. eigenvalues --    1.18540   1.18741   1.19128   1.19666   1.20006
 Alpha virt. eigenvalues --    1.20281   1.20704   1.21321   1.21396   1.21637
 Alpha virt. eigenvalues --    1.22158   1.22513   1.22934   1.23172   1.23406
 Alpha virt. eigenvalues --    1.23604   1.24513   1.24760   1.25256   1.25821
 Alpha virt. eigenvalues --    1.26608   1.27232   1.27530   1.27713   1.28732
 Alpha virt. eigenvalues --    1.29111   1.29861   1.30788   1.31238   1.31917
 Alpha virt. eigenvalues --    1.32246   1.32941   1.33487   1.34344   1.35036
 Alpha virt. eigenvalues --    1.35648   1.36085   1.36619   1.37314   1.37460
 Alpha virt. eigenvalues --    1.38047   1.38627   1.39262   1.40293   1.40985
 Alpha virt. eigenvalues --    1.42295   1.42755   1.43330   1.43752   1.44396
 Alpha virt. eigenvalues --    1.44584   1.45758   1.46346   1.47086   1.47840
 Alpha virt. eigenvalues --    1.48462   1.49266   1.49860   1.50321   1.51412
 Alpha virt. eigenvalues --    1.51919   1.52690   1.52988   1.53977   1.54607
 Alpha virt. eigenvalues --    1.55154   1.55189   1.56470   1.57090   1.58668
 Alpha virt. eigenvalues --    1.58840   1.59455   1.60046   1.60662   1.60901
 Alpha virt. eigenvalues --    1.61239   1.62041   1.62835   1.63046   1.63930
 Alpha virt. eigenvalues --    1.65078   1.65626   1.65842   1.66317   1.67243
 Alpha virt. eigenvalues --    1.67740   1.67817   1.68478   1.69137   1.69572
 Alpha virt. eigenvalues --    1.69941   1.70200   1.70570   1.71338   1.71649
 Alpha virt. eigenvalues --    1.72225   1.72266   1.72728   1.73270   1.73727
 Alpha virt. eigenvalues --    1.74130   1.74410   1.75063   1.75172   1.75543
 Alpha virt. eigenvalues --    1.75692   1.75797   1.76711   1.77274   1.77356
 Alpha virt. eigenvalues --    1.77889   1.78149   1.78433   1.79026   1.79312
 Alpha virt. eigenvalues --    1.79422   1.79751   1.80183   1.80276   1.80763
 Alpha virt. eigenvalues --    1.81043   1.81236   1.81461   1.82419   1.82785
 Alpha virt. eigenvalues --    1.82918   1.83498   1.83680   1.84159   1.84795
 Alpha virt. eigenvalues --    1.85433   1.86342   1.86730   1.87024   1.87240
 Alpha virt. eigenvalues --    1.87703   1.88584   1.88726   1.89201   1.90231
 Alpha virt. eigenvalues --    1.90550   1.90890   1.91339   1.91583   1.91824
 Alpha virt. eigenvalues --    1.92534   1.92714   1.93414   1.93460   1.94245
 Alpha virt. eigenvalues --    1.95211   1.95851   1.96433   1.96754   1.97546
 Alpha virt. eigenvalues --    1.98599   1.98733   2.00001   2.00641   2.01027
 Alpha virt. eigenvalues --    2.01621   2.02053   2.02650   2.03636   2.04043
 Alpha virt. eigenvalues --    2.05098   2.06301   2.06823   2.07019   2.07645
 Alpha virt. eigenvalues --    2.07925   2.08811   2.09017   2.09391   2.10481
 Alpha virt. eigenvalues --    2.10938   2.11814   2.12372   2.12700   2.12726
 Alpha virt. eigenvalues --    2.13345   2.15855   2.16392   2.17584   2.18567
 Alpha virt. eigenvalues --    2.19686   2.20164   2.21003   2.21181   2.21390
 Alpha virt. eigenvalues --    2.22010   2.22240   2.22743   2.23341   2.23894
 Alpha virt. eigenvalues --    2.24712   2.25093   2.26055   2.26574   2.27362
 Alpha virt. eigenvalues --    2.27810   2.28064   2.28653   2.29178   2.29461
 Alpha virt. eigenvalues --    2.30350   2.30566   2.31126   2.32267   2.32610
 Alpha virt. eigenvalues --    2.33109   2.33515   2.33678   2.33944   2.34652
 Alpha virt. eigenvalues --    2.35223   2.35449   2.36110   2.37149   2.37440
 Alpha virt. eigenvalues --    2.37811   2.39576   2.40426   2.40974   2.41310
 Alpha virt. eigenvalues --    2.41954   2.42612   2.43360   2.43795   2.44359
 Alpha virt. eigenvalues --    2.44785   2.45516   2.46703   2.46998   2.47113
 Alpha virt. eigenvalues --    2.47573   2.49014   2.49115   2.49779   2.51699
 Alpha virt. eigenvalues --    2.52545   2.54202   2.54818   2.55267   2.56013
 Alpha virt. eigenvalues --    2.57016   2.57465   2.57911   2.58576   2.60006
 Alpha virt. eigenvalues --    2.60364   2.60612   2.61986   2.62818   2.64003
 Alpha virt. eigenvalues --    2.64462   2.65237   2.65354   2.66041   2.66902
 Alpha virt. eigenvalues --    2.67707   2.67851   2.68278   2.68871   2.69519
 Alpha virt. eigenvalues --    2.69976   2.71290   2.71659   2.72163   2.72922
 Alpha virt. eigenvalues --    2.74306   2.74483   2.75008   2.75168   2.75863
 Alpha virt. eigenvalues --    2.77654   2.78752   2.79100   2.79209   2.79622
 Alpha virt. eigenvalues --    2.80310   2.80947   2.81461   2.81687   2.81951
 Alpha virt. eigenvalues --    2.82321   2.82703   2.83156   2.83599   2.84564
 Alpha virt. eigenvalues --    2.85571   2.85858   2.86300   2.87013   2.87474
 Alpha virt. eigenvalues --    2.88271   2.88728   2.89245   2.91039   2.92376
 Alpha virt. eigenvalues --    2.94053   2.96480   2.97242   2.97964   2.99025
 Alpha virt. eigenvalues --    2.99947   3.00817   3.01470   3.05198   3.06081
 Alpha virt. eigenvalues --    3.06315   3.09910   3.11127   3.14247   3.14461
 Alpha virt. eigenvalues --    3.15377   3.15854   3.16026   3.17783   3.20072
 Alpha virt. eigenvalues --    3.22821   3.23077   3.24046   3.24535   3.27084
 Alpha virt. eigenvalues --    3.46281   3.46895   3.47774   3.50124   3.51501
 Alpha virt. eigenvalues --    3.52847   3.55077   3.56301   3.58173   3.60146
 Alpha virt. eigenvalues --    3.62770   3.71037   3.74650
          Condensed to atoms (all electrons):
 Mulliken charges:
               1
     1  N   -0.310319
     2  C    0.180128
     3  C    0.029393
     4  N   -0.252932
     5  C    0.126479
     6  H    0.029096
     7  N   -0.281914
     8  C    0.134238
     9  H    0.017543
    10  N   -0.288829
    11  C    0.234028
    12  C    0.090752
    13  N   -0.031767
    14  H    0.108791
    15  H    0.090204
    16  H    0.028914
    17  H    0.036913
    18  H    0.024411
    19  N   -0.304373
    20  C    0.256264
    21  C    0.184734
    22  N   -0.121834
    23  H    0.114838
    24  H    0.118703
    25  N   -0.307240
    26  C    0.243074
    27  N   -0.136824
    28  H    0.118105
    29  C    0.176104
    30  O   -0.327075
    31  C   -0.010769
    32  N   -0.231438
    33  C    0.124904
    34  H    0.027528
    35  H    0.026671
    36  H    0.029292
    37  H    0.021723
    38  H    0.054889
    39  H    0.064498
    40  H    0.075587
    41  H    0.028022
    42  C   -0.066670
    43  O   -0.273639
    44  C    0.180644
    45  H    0.134118
    46  N   -0.126707
    47  O   -0.349429
    48  C    0.344257
    49  H    0.041587
    50  C    0.146801
    51  C    0.036893
    52  N   -0.287049
    53  H    0.032077
    54  H    0.040120
    55  H    0.005774
    56  H    0.115452
    57  H    0.121225
    58  N   -0.042767
    59  C    0.124145
    60  C    0.234828
    61  N   -0.277447
    62  H    0.029771
    63  C    0.157274
    64  N   -0.307076
    65  H    0.023314
    66  C    0.122332
    67  N   -0.244746
    68  C    0.010919
    69  C    0.185913
    70  N   -0.302423
 Sum of Mulliken charges =  -0.00000
 Mulliken charges with hydrogens summed into heavy atoms:
               1
     1  N   -0.310319
     2  C    0.270367
     3  C    0.029393
     4  N   -0.252932
     5  C    0.155574
     7  N   -0.281914
     8  C    0.151781
    10  N   -0.288829
    11  C    0.234028
    12  C    0.090752
    13  N    0.167227
    19  N   -0.304373
    20  C    0.256264
    21  C    0.262420
    22  N    0.111707
    25  N   -0.307240
    26  C    0.243074
    27  N   -0.018719
    29  C    0.176104
    30  O   -0.327075
    31  C   -0.010769
    32  N   -0.231438
    33  C    0.152432
    42  C   -0.038649
    43  O   -0.273639
    44  C    0.180644
    46  N    0.007410
    47  O   -0.349429
    48  C    0.344257
    50  C    0.188388
    51  C    0.231866
    52  N   -0.287049
    58  N    0.193909
    59  C    0.124145
    60  C    0.234828
    61  N   -0.277447
    63  C    0.187045
    64  N   -0.307076
    66  C    0.145646
    67  N   -0.244746
    68  C    0.010919
    69  C    0.263884
    70  N   -0.302423
 Electronic spatial extent (au):  <R**2>=          23493.2062
 Charge=             -0.0000 electrons
 Dipole moment (field-independent basis, Debye):
    X=              4.1015    Y=              4.8641    Z=              5.2867  Tot=              8.2723
 Quadrupole moment (field-independent basis, Debye-Ang):
   XX=           -142.1156   YY=           -228.5579   ZZ=           -252.4871
   XY=              7.7823   XZ=             26.3967   YZ=              7.8710
 Traceless Quadrupole moment (field-independent basis, Debye-Ang):
   XX=             65.6045   YY=            -20.8377   ZZ=            -44.7669
   XY=              7.7823   XZ=             26.3967   YZ=              7.8710
 Octapole moment (field-independent basis, Debye-Ang**2):
  XXX=            -43.7157  YYY=             45.1350  ZZZ=             70.5808  XYY=             13.4760
  XXY=            111.3422  XXZ=             62.0587  XZZ=             53.5845  YZZ=             22.1061
  YYZ=              3.5871  XYZ=             12.1962
 Hexadecapole moment (field-independent basis, Debye-Ang**3):
 XXXX=         -16638.9894 YYYY=          -4043.9396 ZZZZ=          -3195.1163 XXXY=            354.5517
 XXXZ=            492.6691 YYYX=             34.8101 YYYZ=            280.7225 ZZZX=            266.1419
 ZZZY=             51.7657 XXYY=          -4543.7522 XXZZ=          -4381.5624 YYZZ=          -1151.3968
 XXYZ=            -69.2060 YYXZ=             39.3523 ZZXY=             17.8794
 N-N= 5.510790543297D+03 E-N=-1.580271150606D+04  KE= 2.037732794864D+03
 No NMR shielding tensors so no spin-rotation constants.
 Leave Link  601 at Thu Jan 25 13:15:32 2018, MaxMem=  4294967296 cpu:              49.3 elap:               1.7
 (Enter /share/apps/g16/l9999.exe)
 1\1\GINC-COMPUTE-0-3\SP\RwB97XD\CC-pVDZ\C23H27N17O3\SATYA\25-Jan-2018\
 0\\#p wb97xd/cc-pvdz sp scf=(maxcycles=20)\\Base pair stacking\\0,1\N,
 0,1.81299,9.71047,-6.54252\C,0,1.22011,10.95675,-7.06529\C,0,2.21584,7
 .59494,-6.09582\N,0,3.19343,8.32418,-5.43459\C,0,2.91161,9.56953,-5.73
 017\H,0,3.47722,10.43325,-5.37946\N,0,0.90493,5.8181,-6.92488\C,0,0.16
 367,6.74972,-7.53331\H,0,-0.67351,6.36962,-8.11718\N,0,0.30064,8.07415
 ,-7.5288\C,0,1.35774,8.43575,-6.78301\C,0,1.96151,6.21406,-6.18194\N,0
 ,2.70265,5.28558,-5.57382\H,0,3.49407,5.5331,-5.0138\H,0,2.49221,4.311
 47,-5.65723\H,0,1.89678,11.44298,-7.61836\H,0,0.42508,10.73725,-7.6299
 8\H,0,0.93523,11.53809,-6.30314\N,0,-0.38086,6.82317,-3.52264\C,0,-0.7
 7512,5.50988,-3.61141\C,0,-1.21918,7.99088,-3.86081\N,0,-3.19914,3.142
 05,-4.3725\H,0,-3.28547,2.14619,-4.36522\H,0,-3.99776,3.66452,-4.6724\
 N,0,-1.98486,5.06909,-4.0192\C,0,-2.06384,3.75042,-3.99716\N,0,-1.0377
 7,2.92477,-3.60602\H,0,-1.18759,1.92763,-3.62096\C,0,0.21537,3.35638,-
 3.18266\O,0,1.07228,2.52796,-2.85076\C,0,0.31533,4.77079,-3.20095\N,0,
 1.37289,5.60332,-2.86133\C,0,0.91499,6.80833,-3.06744\H,0,1.48257,7.72
 488,-2.9029\H,0,-0.78519,8.51385,-4.59359\H,0,-2.11779,7.67672,-4.1642
 2\H,0,-1.32513,8.57192,-3.05459\H,0,-2.34794,-2.93813,-4.53239\H,0,-2.
 67362,-2.96846,-2.80101\H,0,-2.94332,-1.48871,-3.7224\H,0,2.13109,-3.2
 1611,-2.79816\C,0,1.3433,-2.47494,-2.93336\O,0,2.78584,-0.61649,-2.629
 45\C,0,1.66845,-1.08397,-2.84783\H,0,0.78952,0.75943,-2.98085\N,0,0.59
 906,-0.23134,-3.03404\O,0,-1.58388,0.24847,-3.43624\C,0,-0.7041,-0.580
 91,-3.28529\H,0,-0.21793,-3.8916,-3.25185\C,0,0.08127,-2.84697,-3.1772
 7\C,0,-2.31621,-2.36182,-3.61973\N,0,-0.93819,-1.94025,-3.35314\H,0,-1
 .15269,-1.73485,-8.1087\H,0,-1.77932,-0.39059,-7.42869\H,0,-1.82344,-1
 .80926,-6.62277\H,0,4.18072,2.05975,-4.6128\H,0,4.16728,0.35632,-4.703
 58\N,0,3.69767,1.22354,-4.87273\C,0,2.48133,1.26206,-5.42062\C,0,0.509
 71,0.31643,-6.35885\N,0,-0.09682,1.49545,-6.57439\H,0,0.26205,3.49629,
 -6.31268\C,0,0.67966,2.50005,-6.17345\N,0,1.89821,2.46352,-5.62446\H,0
 ,0.87413,-2.89594,-6.35387\C,0,0.99819,-1.8182,-6.2442\N,0,2.05791,-1.
 23792,-5.73633\C,0,1.76127,0.1157,-5.80311\C,0,-1.28805,-1.24234,-7.24
 898\N,0,0.02199,-0.93742,-6.64166\\Version=EM64L-G16RevA.03\State=1-A\
 HF=-2048.7508087\RMSD=6.620e-09\Dipole=-2.7903796,-1.4758933,-0.792247
 9\Quadrupole=-10.8995321,48.0659592,-37.166427,19.4662928,-5.0701522,2
 .5294833\PG=C01 [X(C23H27N17O3)]\\@


 UNDER MOST GREENE GRASSE LY MOST GREATE SNAKES.
 -- PROVERBS AND REASONS OF THE YEAR 1585
           AS REPRINTED IN PAISLEY MAGAZINE 1828.
 Job cpu time:       0 days  6 hours  3 minutes 15.5 seconds.
 Elapsed time:       0 days  0 hours 11 minutes 42.9 seconds.
 File lengths (MBytes):  RWF=    298 Int=      0 D2E=      0 Chk=     33 Scr=      1
 Normal termination of Gaussian 16 at Thu Jan 25 13:15:32 2018.
