 Entering Gaussian System, Link 0=g16
 Input=str5.0.-1.0.com
 Output=str5.0.-1.0.log
 Initial command:
 /share/apps/g16/l1.exe "/state/partition1/scr/Gau-7728.inp" -scrdir="/state/partition1/scr/"
 Entering Link 1 = /share/apps/g16/l1.exe PID=      7729.
  
 Copyright (c) 1988,1990,1992,1993,1995,1998,2003,2009,2016,
            Gaussian, Inc.  All Rights Reserved.
  
 This is part of the Gaussian(R) 16 program.  It is based on
 the Gaussian(R) 09 system (copyright 2009, Gaussian, Inc.),
 the Gaussian(R) 03 system (copyright 2003, Gaussian, Inc.),
 the Gaussian(R) 98 system (copyright 1998, Gaussian, Inc.),
 the Gaussian(R) 94 system (copyright 1995, Gaussian, Inc.),
 the Gaussian 92(TM) system (copyright 1992, Gaussian, Inc.),
 the Gaussian 90(TM) system (copyright 1990, Gaussian, Inc.),
 the Gaussian 88(TM) system (copyright 1988, Gaussian, Inc.),
 the Gaussian 86(TM) system (copyright 1986, Carnegie Mellon
 University), and the Gaussian 82(TM) system (copyright 1983,
 Carnegie Mellon University). Gaussian is a federally registered
 trademark of Gaussian, Inc.
  
 This software contains proprietary and confidential information,
 including trade secrets, belonging to Gaussian, Inc.
  
 This software is provided under written license and may be
 used, copied, transmitted, or stored only in accord with that
 written license.
  
 The following legend is applicable only to US Government
 contracts under FAR:
  
                    RESTRICTED RIGHTS LEGEND
  
 Use, reproduction and disclosure by the US Government is
 subject to restrictions as set forth in subparagraphs (a)
 and (c) of the Commercial Computer Software - Restricted
 Rights clause in FAR 52.227-19.
  
 Gaussian, Inc.
 340 Quinnipiac St., Bldg. 40, Wallingford CT 06492
  
  
 ---------------------------------------------------------------
 Warning -- This program may not be used in any manner that
 competes with the business of Gaussian, Inc. or will provide
 assistance to any competitor of Gaussian, Inc.  The licensee
 of this program is prohibited from giving any competitor of
 Gaussian, Inc. access to this program.  By using this program,
 the user acknowledges that Gaussian, Inc. is engaged in the
 business of creating and licensing software in the field of
 computational chemistry and represents and warrants to the
 licensee that it is not a competitor of Gaussian, Inc. and that
 it will not use this program in any manner prohibited above.
 ---------------------------------------------------------------
  

 Cite this work as:
 Gaussian 16, Revision A.03,
 M. J. Frisch, G. W. Trucks, H. B. Schlegel, G. E. Scuseria, 
 M. A. Robb, J. R. Cheeseman, G. Scalmani, V. Barone, 
 G. A. Petersson, H. Nakatsuji, X. Li, M. Caricato, A. V. Marenich, 
 J. Bloino, B. G. Janesko, R. Gomperts, B. Mennucci, H. P. Hratchian, 
 J. V. Ortiz, A. F. Izmaylov, J. L. Sonnenberg, D. Williams-Young, 
 F. Ding, F. Lipparini, F. Egidi, J. Goings, B. Peng, A. Petrone, 
 T. Henderson, D. Ranasinghe, V. G. Zakrzewski, J. Gao, N. Rega, 
 G. Zheng, W. Liang, M. Hada, M. Ehara, K. Toyota, R. Fukuda, 
 J. Hasegawa, M. Ishida, T. Nakajima, Y. Honda, O. Kitao, H. Nakai, 
 T. Vreven, K. Throssell, J. A. Montgomery, Jr., J. E. Peralta, 
 F. Ogliaro, M. J. Bearpark, J. J. Heyd, E. N. Brothers, K. N. Kudin, 
 V. N. Staroverov, T. A. Keith, R. Kobayashi, J. Normand, 
 K. Raghavachari, A. P. Rendell, J. C. Burant, S. S. Iyengar, 
 J. Tomasi, M. Cossi, J. M. Millam, M. Klene, C. Adamo, R. Cammi, 
 J. W. Ochterski, R. L. Martin, K. Morokuma, O. Farkas, 
 J. B. Foresman, and D. J. Fox, Gaussian, Inc., Wallingford CT, 2016.
 
 ******************************************
 Gaussian 16:  EM64L-G16RevA.03 25-Dec-2016
                24-Jan-2018 
 ******************************************
 %nprocshared=32
 Will use up to   32 processors via shared memory.
 %mem=32GB
 %chk=allatoms_t.chk
 ---------------------------------------
 #p wb97xd/cc-pvdz sp scf=(maxcycles=20)
 ---------------------------------------
 1/38=1,172=1/1;
 2/12=2,17=6,18=5,40=1/2;
 3/5=16,11=2,25=1,30=1,74=-58/1,2,3;
 4//1;
 5/5=2,7=20,38=5/2;
 6/7=2,8=2,9=2,10=2,28=1/1;
 99/5=1,9=1/99;
 Leave Link    1 at Wed Jan 24 14:50:36 2018, MaxMem=  4294967296 cpu:               2.7 elap:               0.1
 (Enter /share/apps/g16/l101.exe)
 ------------------
 Base pair stacking
 ------------------
 Symbolic Z-matrix:
 Charge =  0 Multiplicity = 1
 N                    -0.17811   7.84107  -6.47105 
 C                    -0.94242   9.09936  -6.57363 
 C                     0.3765    5.71476  -6.37851 
 N                     1.55935   6.4299   -6.25948 
 C                     1.17788   7.68229  -6.32 
 H                     1.84997   8.53876  -6.25909 
 N                    -1.18743   3.95522  -6.52372 
 C                    -2.12561   4.90058  -6.6407 
 H                    -3.14536   4.53307  -6.74702 
 N                    -1.99386   6.22554  -6.64603 
 C                    -0.70294   6.571    -6.50964 
 C                     0.10189   4.33511  -6.38803 
 N                     1.03984   3.3929   -6.27112 
 H                     2.00695   3.62829  -6.1686 
 H                     0.80794   2.42015  -6.28203 
 H                    -0.62677   9.61889  -7.36775 
 H                    -1.91476   8.89211  -6.67715 
 H                    -0.80559   9.64334  -5.74576 
 N                    -0.90343   5.84423  -3.26456 
 C                    -1.30873   4.5313   -3.26328 
 C                    -1.79933   7.01414  -3.36129 
 N                    -3.84981   2.16775  -3.39872 
 H                    -3.93246   1.17172  -3.38065 
 H                    -4.69821   2.69211  -3.47605 
 N                    -2.58327   4.09292  -3.34948 
 C                    -2.65538   2.77394  -3.32272 
 N                    -1.56402   1.94582  -3.21948 
 H                    -1.71374   0.94864  -3.20649 
 C                    -0.24354   2.37493  -3.12957 
 O                     0.66909   1.54439  -3.03986 
 C                    -0.15009   3.78963  -3.15705 
 N                     0.96027   4.62023  -3.09292 
 C                     0.46603   5.82664  -3.16 
 H                     1.0579    6.74231  -3.13738 
 H                    -1.56892   7.5461   -4.17537 
 H                    -2.74619   6.70176  -3.42565 
 H                    -1.69262   7.58587  -2.54855 
 H                    -3.07581  -3.90868  -3.84208 
 H                    -2.94291  -3.95907  -2.08582 
 H                    -3.43993  -2.46955  -2.88935 
 H                     1.69896  -4.19796  -3.32784 
 C                     0.90384  -3.45675  -3.2464 
 O                     2.37803  -1.59921  -3.30466 
 C                     1.24163  -2.06624  -3.23206 
 H                     0.3603   -0.22307  -3.11248 
 N                     0.16143  -1.21353  -3.12585 
 O                    -2.05073  -0.73321  -2.94466 
 C                    -1.16278  -1.56263  -3.03565 
 H                    -0.68828  -4.87259  -3.16654 
 C                    -0.37877  -3.82832  -3.16 
 C                    -2.80859  -3.34261  -2.96218 
 N                    -1.40801  -2.92155  -3.05609 
 H                    -3.62221  -3.57073  -6.86174 
 H                    -3.81652  -2.26629  -5.90113 
 H                    -3.46522  -3.7185   -5.24405 
 H                     2.77402   0.1518   -6.31721 
 H                     2.70344  -1.54623  -6.46493 
 N                     2.21895  -0.67979  -6.33931 
 C                     0.8916   -0.63638  -6.20724 
 C                    -1.29301  -1.57092  -6.08142 
 N                    -1.91683  -0.3931   -5.91402 
 H                    -1.45918   1.59997  -5.77681 
 C                    -1.03571   0.60515  -5.90822 
 N                     0.2941    0.56371  -6.04035 
 H                    -1.00039  -4.7747   -6.40123 
 C                    -0.82951  -3.70086  -6.32 
 N                     0.34707  -3.12676  -6.38132 
 C                     0.06746  -1.77618  -6.23142 
 C                    -3.30785  -3.11739  -6.02768 
 N                    -1.86691  -2.81882  -6.1396 
 
 ITRead=  0  0  0  0  0  0  0  0  0  0  0  0  0  0  0  0  0  0  0  0
 ITRead=  0  0  0  0  0  0  0  0  0  0  0  0  0  0  0  0  0  0  0  0
 ITRead=  0  0  0  0  0  0  0  0  0  0  0  0  0  0  0  0  0  0  0  0
 ITRead=  0  0  0  0  0  0  0  0  0  0
 MicOpt= -1 -1 -1 -1 -1 -1 -1 -1 -1 -1 -1 -1 -1 -1 -1 -1 -1 -1 -1 -1
 MicOpt= -1 -1 -1 -1 -1 -1 -1 -1 -1 -1 -1 -1 -1 -1 -1 -1 -1 -1 -1 -1
 MicOpt= -1 -1 -1 -1 -1 -1 -1 -1 -1 -1 -1 -1 -1 -1 -1 -1 -1 -1 -1 -1
 MicOpt= -1 -1 -1 -1 -1 -1 -1 -1 -1 -1
 NAtoms=     70 NQM=       70 NQMF=       0 NMMI=      0 NMMIF=      0
                NMic=       0 NMicF=      0.
                    Isotopes and Nuclear Properties:
 (Nuclear quadrupole moments (NQMom) in fm**2, nuclear magnetic moments (NMagM)
  in nuclear magnetons)

  Atom         1           2           3           4           5           6           7           8           9          10
 IAtWgt=          14          12          12          14          12           1          14          12           1          14
 AtmWgt=  14.0030740  12.0000000  12.0000000  14.0030740  12.0000000   1.0078250  14.0030740  12.0000000   1.0078250  14.0030740
 NucSpn=           2           0           0           2           0           1           2           0           1           2
 AtZEff=  -0.0000000  -0.0000000  -0.0000000  -0.0000000  -0.0000000  -0.0000000  -0.0000000  -0.0000000  -0.0000000  -0.0000000
 NQMom=    2.0440000   0.0000000   0.0000000   2.0440000   0.0000000   0.0000000   2.0440000   0.0000000   0.0000000   2.0440000
 NMagM=    0.4037610   0.0000000   0.0000000   0.4037610   0.0000000   2.7928460   0.4037610   0.0000000   2.7928460   0.4037610
 AtZNuc=   7.0000000   6.0000000   6.0000000   7.0000000   6.0000000   1.0000000   7.0000000   6.0000000   1.0000000   7.0000000

  Atom        11          12          13          14          15          16          17          18          19          20
 IAtWgt=          12          12          14           1           1           1           1           1          14          12
 AtmWgt=  12.0000000  12.0000000  14.0030740   1.0078250   1.0078250   1.0078250   1.0078250   1.0078250  14.0030740  12.0000000
 NucSpn=           0           0           2           1           1           1           1           1           2           0
 AtZEff=  -0.0000000  -0.0000000  -0.0000000  -0.0000000  -0.0000000  -0.0000000  -0.0000000  -0.0000000  -0.0000000  -0.0000000
 NQMom=    0.0000000   0.0000000   2.0440000   0.0000000   0.0000000   0.0000000   0.0000000   0.0000000   2.0440000   0.0000000
 NMagM=    0.0000000   0.0000000   0.4037610   2.7928460   2.7928460   2.7928460   2.7928460   2.7928460   0.4037610   0.0000000
 AtZNuc=   6.0000000   6.0000000   7.0000000   1.0000000   1.0000000   1.0000000   1.0000000   1.0000000   7.0000000   6.0000000

  Atom        21          22          23          24          25          26          27          28          29          30
 IAtWgt=          12          14           1           1          14          12          14           1          12          16
 AtmWgt=  12.0000000  14.0030740   1.0078250   1.0078250  14.0030740  12.0000000  14.0030740   1.0078250  12.0000000  15.9949146
 NucSpn=           0           2           1           1           2           0           2           1           0           0
 AtZEff=  -0.0000000  -0.0000000  -0.0000000  -0.0000000  -0.0000000  -0.0000000  -0.0000000  -0.0000000  -0.0000000  -0.0000000
 NQMom=    0.0000000   2.0440000   0.0000000   0.0000000   2.0440000   0.0000000   2.0440000   0.0000000   0.0000000   0.0000000
 NMagM=    0.0000000   0.4037610   2.7928460   2.7928460   0.4037610   0.0000000   0.4037610   2.7928460   0.0000000   0.0000000
 AtZNuc=   6.0000000   7.0000000   1.0000000   1.0000000   7.0000000   6.0000000   7.0000000   1.0000000   6.0000000   8.0000000

  Atom        31          32          33          34          35          36          37          38          39          40
 IAtWgt=          12          14          12           1           1           1           1           1           1           1
 AtmWgt=  12.0000000  14.0030740  12.0000000   1.0078250   1.0078250   1.0078250   1.0078250   1.0078250   1.0078250   1.0078250
 NucSpn=           0           2           0           1           1           1           1           1           1           1
 AtZEff=  -0.0000000  -0.0000000  -0.0000000  -0.0000000  -0.0000000  -0.0000000  -0.0000000  -0.0000000  -0.0000000  -0.0000000
 NQMom=    0.0000000   2.0440000   0.0000000   0.0000000   0.0000000   0.0000000   0.0000000   0.0000000   0.0000000   0.0000000
 NMagM=    0.0000000   0.4037610   0.0000000   2.7928460   2.7928460   2.7928460   2.7928460   2.7928460   2.7928460   2.7928460
 AtZNuc=   6.0000000   7.0000000   6.0000000   1.0000000   1.0000000   1.0000000   1.0000000   1.0000000   1.0000000   1.0000000

  Atom        41          42          43          44          45          46          47          48          49          50
 IAtWgt=           1          12          16          12           1          14          16          12           1          12
 AtmWgt=   1.0078250  12.0000000  15.9949146  12.0000000   1.0078250  14.0030740  15.9949146  12.0000000   1.0078250  12.0000000
 NucSpn=           1           0           0           0           1           2           0           0           1           0
 AtZEff=  -0.0000000  -0.0000000  -0.0000000  -0.0000000  -0.0000000  -0.0000000  -0.0000000  -0.0000000  -0.0000000  -0.0000000
 NQMom=    0.0000000   0.0000000   0.0000000   0.0000000   0.0000000   2.0440000   0.0000000   0.0000000   0.0000000   0.0000000
 NMagM=    2.7928460   0.0000000   0.0000000   0.0000000   2.7928460   0.4037610   0.0000000   0.0000000   2.7928460   0.0000000
 AtZNuc=   1.0000000   6.0000000   8.0000000   6.0000000   1.0000000   7.0000000   8.0000000   6.0000000   1.0000000   6.0000000

  Atom        51          52          53          54          55          56          57          58          59          60
 IAtWgt=          12          14           1           1           1           1           1          14          12          12
 AtmWgt=  12.0000000  14.0030740   1.0078250   1.0078250   1.0078250   1.0078250   1.0078250  14.0030740  12.0000000  12.0000000
 NucSpn=           0           2           1           1           1           1           1           2           0           0
 AtZEff=  -0.0000000  -0.0000000  -0.0000000  -0.0000000  -0.0000000  -0.0000000  -0.0000000  -0.0000000  -0.0000000  -0.0000000
 NQMom=    0.0000000   2.0440000   0.0000000   0.0000000   0.0000000   0.0000000   0.0000000   2.0440000   0.0000000   0.0000000
 NMagM=    0.0000000   0.4037610   2.7928460   2.7928460   2.7928460   2.7928460   2.7928460   0.4037610   0.0000000   0.0000000
 AtZNuc=   6.0000000   7.0000000   1.0000000   1.0000000   1.0000000   1.0000000   1.0000000   7.0000000   6.0000000   6.0000000

  Atom        61          62          63          64          65          66          67          68          69          70
 IAtWgt=          14           1          12          14           1          12          14          12          12          14
 AtmWgt=  14.0030740   1.0078250  12.0000000  14.0030740   1.0078250  12.0000000  14.0030740  12.0000000  12.0000000  14.0030740
 NucSpn=           2           1           0           2           1           0           2           0           0           2
 AtZEff=  -0.0000000  -0.0000000  -0.0000000  -0.0000000  -0.0000000  -0.0000000  -0.0000000  -0.0000000  -0.0000000  -0.0000000
 NQMom=    2.0440000   0.0000000   0.0000000   2.0440000   0.0000000   0.0000000   2.0440000   0.0000000   0.0000000   2.0440000
 NMagM=    0.4037610   2.7928460   0.0000000   0.4037610   2.7928460   0.0000000   0.4037610   0.0000000   0.0000000   0.4037610
 AtZNuc=   7.0000000   1.0000000   6.0000000   7.0000000   1.0000000   6.0000000   7.0000000   6.0000000   6.0000000   7.0000000
 Leave Link  101 at Wed Jan 24 14:50:36 2018, MaxMem=  4294967296 cpu:               7.8 elap:               0.3
 (Enter /share/apps/g16/l202.exe)
 Stoichiometry    C23H27N17O3
 Framework group  C1[X(C23H27N17O3)]
 Deg. of freedom   204
 Full point group                 C1      NOp   1
 Largest Abelian subgroup         C1      NOp   1
 Largest concise Abelian subgroup C1      NOp   1
                         Standard orientation:                         
 ---------------------------------------------------------------------
 Center     Atomic      Atomic             Coordinates (Angstroms)
 Number     Number       Type             X           Y           Z
 ---------------------------------------------------------------------
      1          7           0        6.255156   -0.972549   -0.626676
      2          6           0        7.499735   -0.367517   -1.139458
      3          6           0        4.142987   -1.497696   -0.309954
      4          7           0        4.870147   -2.245063    0.605147
      5          6           0        6.113537   -1.898775    0.377707
      6          1           0        6.975281   -2.291480    0.918202
      7          7           0        2.370365   -0.567312   -1.557007
      8          6           0        3.300966    0.132824   -2.213790
      9          1           0        2.922232    0.794822   -2.991335
     10          7           0        4.622962    0.137966   -2.055033
     11          6           0        4.983044   -0.708564   -1.076183
     12          6           0        2.764739   -1.410327   -0.577788
     13          7           0        1.837275   -2.110083    0.078969
     14          1           0        2.083700   -2.745939    0.811213
     15          1           0        0.865044   -2.022651   -0.138432
     16          1           0        8.100231   -1.085296   -1.492120
     17          1           0        7.281289    0.273862   -1.874324
     18          1           0        7.964616    0.120441   -0.400684
     19          7           0        3.943411    1.523535    1.167883
     20          6           0        2.627541    1.721061    0.825064
     21          6           0        5.096481    2.223594    0.567025
     22          7           0        0.230657    3.339096   -1.098138
     23          1           0       -0.764124    3.332263   -1.196112
     24          1           0        0.740551    3.964292   -1.689623
     25          7           0        2.170544    2.580958   -0.110772
     26          6           0        0.853798    2.545882   -0.213598
     27          7           0        0.044675    1.731716    0.541360
     28          1           0       -0.952290    1.771545    0.394979
     29          6           0        0.493138    0.839195    1.509955
     30          8           0       -0.321166    0.149435    2.135957
     31          6           0        1.905692    0.865590    1.631853
     32          7           0        2.751371    0.145490    2.464434
     33          6           0        3.947066    0.567983    2.154579
     34          1           0        4.869573    0.214733    2.616606
     35          1           0        5.709323    1.557333    0.143565
     36          1           0        4.770237    2.863277   -0.127696
     37          1           0        5.589745    2.726314    1.276089
     38          1           0       -5.755821    1.977200   -1.259275
     39          1           0       -5.971710    3.032592    0.135068
     40          1           0       -4.423581    2.994146   -0.709430
     41          1           0       -5.984298   -1.274101    2.279566
     42          6           0       -5.272657   -0.566430    1.854114
     43          8           0       -3.385006   -1.556095    2.895470
     44          6           0       -3.882626   -0.696943    2.168129
     45          1           0       -2.080042    0.189364    1.776377
     46          7           0       -3.068907    0.249064    1.578080
     47          8           0       -2.658758    2.060126    0.270785
     48          6           0       -3.455144    1.269672    0.745782
     49          1           0       -6.725530    0.561292    0.775583
     50          6           0       -5.679941    0.418775    1.045345
     51          6           0       -5.270987    2.403858   -0.393848
     52          7           0       -4.811044    1.329563    0.490504
     53          1           0       -5.141790    0.420401   -3.853586
     54          1           0       -3.940469    1.304796   -3.192704
     55          1           0       -5.440718    1.358499   -2.552042
     56          1           0       -1.344032   -3.698049    1.012716
     57          1           0       -3.021173   -3.880024    0.759355
     58          7           0       -2.182081   -3.365152    0.580297
     59          6           0       -2.181823   -2.282849   -0.200603
     60          6           0       -3.173668   -0.643257   -1.611169
     61          7           0       -2.031908    0.028441   -1.833976
     62          1           0       -0.051339   -0.061850   -1.314560
     63          6           0       -1.019017   -0.545331   -1.187641
     64          7           0       -1.017254   -1.629352   -0.405040
     65          1           0       -6.324383   -1.331820   -1.836968
     66          6           0       -5.259705   -1.319097   -1.601958
     67          7           0       -4.655707   -2.192172   -0.833440
     68          6           0       -3.332507   -1.775215   -0.830816
     69          6           0       -4.763655    0.772485   -2.997405
     70          7           0       -4.422953   -0.353745   -2.106617
 ---------------------------------------------------------------------
 Rotational constants (GHZ):           0.1837966           0.0514003           0.0497809
 Leave Link  202 at Wed Jan 24 14:50:36 2018, MaxMem=  4294967296 cpu:               0.4 elap:               0.0
 (Enter /share/apps/g16/l301.exe)
 Standard basis: CC-pVDZ (5D, 7F)
 Ernie: Thresh=  0.10000D-02 Tol=  0.10000D-05 Strict=F.
 Ernie:  86 primitive shells out of 1081 were deleted.
 There are   780 symmetry adapted cartesian basis functions of A   symmetry.
 There are   737 symmetry adapted basis functions of A   symmetry.
   737 basis functions,  1608 primitive gaussians,   780 cartesian basis functions
   154 alpha electrons      154 beta electrons
       nuclear repulsion energy      5606.1573517661 Hartrees.
 IExCor= 4639 DFT=T Ex+Corr=wB97XD ExCW=0 ScaHFX=  1.000000
 ScaDFX=  1.000000  1.000000  1.000000  1.000000 ScalE2=  1.000000  1.000000
 IRadAn=      5 IRanWt=     -1 IRanGd=            0 ICorTp=0 IEmpDi=121
 HFx  wShort=  0.000000 wLong=  0.200000 cFull=  0.222036 cShort=  0.000000 cLong=  0.777964
 DFx  wShort=  0.000000 wLong=  0.200000 cFull=  0.000000 cShort=  0.000000 cLong=  1.000000
 NAtoms=   70 NActive=   70 NUniq=   70 SFac= 1.00D+00 NAtFMM=   60 NAOKFM=T Big=T
 Integral buffers will be    131072 words long.
 Raffenetti 2 integral format.
 Two-electron integral symmetry is turned on.
 R6Disp:  Grimme-D2 Dispersion energy=       -0.0802628054 Hartrees.
 Nuclear repulsion after empirical dispersion term =     5606.0770889608 Hartrees.
 Leave Link  301 at Wed Jan 24 14:50:36 2018, MaxMem=  4294967296 cpu:               3.0 elap:               0.1
 (Enter /share/apps/g16/l302.exe)
 NPDir=0 NMtPBC=     1 NCelOv=     1 NCel=       1 NClECP=     1 NCelD=      1
         NCelK=      1 NCelE2=     1 NClLst=     1 CellRange=     0.0.
 One-electron integrals computed using PRISM.
 One-electron integral symmetry used in STVInt
 NBasis=   737 RedAO= T EigKep=  6.91D-04  NBF=   737
 NBsUse=   737 1.00D-06 EigRej= -1.00D+00 NBFU=   737
 Precomputing XC quadrature grid using
 IXCGrd= 4 IRadAn=           5 IRanWt=          -1 IRanGd=           0 AccXCQ= 0.00D+00.
 Generated NRdTot=       0 NPtTot=           0 NUsed=           0 NTot=          32
 NSgBfM=   767   767   767   767   767 MxSgAt=    70 MxSgA2=    70.
 Leave Link  302 at Wed Jan 24 14:50:40 2018, MaxMem=  4294967296 cpu:             139.1 elap:               4.4
 (Enter /share/apps/g16/l303.exe)
 DipDrv:  MaxL=1.
 Leave Link  303 at Wed Jan 24 14:50:41 2018, MaxMem=  4294967296 cpu:              12.5 elap:               0.4
 (Enter /share/apps/g16/l401.exe)
 ExpMin= 1.22D-01 ExpMax= 1.17D+04 ExpMxC= 4.01D+02 IAcc=3 IRadAn=         5 AccDes= 0.00D+00
 Harris functional with IExCor= 4639 and IRadAn=       5 diagonalized for initial guess.
 HarFok:  IExCor= 4639 AccDes= 0.00D+00 IRadAn=         5 IDoV= 1 UseB2=F ITyADJ=14
 ICtDFT=  3500011 ScaDFX=  1.000000  1.000000  1.000000  1.000000
 FoFCou: FMM=F IPFlag=           0 FMFlag=      100000 FMFlg1=        2001
         NFxFlg=           0 DoJE=T BraDBF=F KetDBF=T FulRan=T
         wScrn=  0.000000 ICntrl=       500 IOpCl=  0 I1Cent=   200000004 NGrid=           0
         NMat0=    1 NMatS0=      1 NMatT0=    0 NMatD0=    1 NMtDS0=    0 NMtDT0=    0
 Petite list used in FoFCou.
 Harris En= -1963.87609101688    
 JPrj=0 DoOrth=F DoCkMO=F.
 Leave Link  401 at Wed Jan 24 14:50:56 2018, MaxMem=  4294967296 cpu:             468.3 elap:              15.2
 (Enter /share/apps/g16/l502.exe)
 Integral symmetry usage will be decided dynamically.
 Closed shell SCF:
 Using DIIS extrapolation, IDIIS=  1040.
 NGot=  4294967296 LenX=  4293717438 LenY=  4293108258
 Requested convergence on RMS density matrix=1.00D-08 within  20 cycles.
 Requested convergence on MAX density matrix=1.00D-06.
 Requested convergence on             energy=1.00D-06.
 No special actions if energy rises.
 Fock matrices will be formed incrementally for  20 cycles.
 Integral accuracy reduced to 1.0D-05 until final iterations.

 Cycle   1  Pass 0  IDiag  1:
 FoFJK:  IHMeth= 1 ICntrl=       0 DoSepK=T KAlg= 0 I1Cent=           0 FoldK=F
 IRaf=         1 NMat=       1 IRICut=       1 DoRegI=T DoRafI=F ISym2E= 0 IDoP0=0 IntGTp=1.
 FoFCou: FMM=T IPFlag=           0 FMFlag=      100000 FMFlg1=        2001
         NFxFlg=           0 DoJE=T BraDBF=F KetDBF=F FulRan=T
         wScrn=  0.000000 ICntrl=       500 IOpCl=  0 I1Cent=           0 NGrid=           0
         NMat0=    1 NMatS0=      1 NMatT0=    0 NMatD0=    1 NMtDS0=    0 NMtDT0=    0
 Symmetry not used in FoFCou.
 FMM levels:  10  Number of levels for PrismC:   9
 E= -2048.30151342195    
 DIIS: error= 2.56D-02 at cycle   1 NSaved=   1.
 NSaved= 1 IEnMin= 1 EnMin= -2048.30151342195     IErMin= 1 ErrMin= 2.56D-02
 ErrMax= 2.56D-02  0.00D+00 EMaxC= 1.00D-01 BMatC= 8.41D-01 BMatP= 8.41D-01
 IDIUse=3 WtCom= 7.44D-01 WtEn= 2.56D-01
 Coeff-Com:  0.100D+01
 Coeff-En:   0.100D+01
 Coeff:      0.100D+01
 Gap=     0.247 Goal=   None    Shift=    0.000
 GapD=    0.247 DampG=1.000 DampE=0.500 DampFc=0.5000 IDamp=-1.
 Damping current iteration by 5.00D-01
 RMSDP=1.63D-03 MaxDP=1.16D-01              OVMax= 2.14D-01

 Cycle   2  Pass 0  IDiag  1:
 RMSU=  8.15D-04    CP:  9.97D-01
 E= -2048.49749666945     Delta-E=       -0.195983247498 Rises=F Damp=T
 DIIS: error= 1.22D-02 at cycle   2 NSaved=   2.
 NSaved= 2 IEnMin= 2 EnMin= -2048.49749666945     IErMin= 2 ErrMin= 1.22D-02
 ErrMax= 1.22D-02  0.00D+00 EMaxC= 1.00D-01 BMatC= 1.48D-01 BMatP= 8.41D-01
 IDIUse=3 WtCom= 8.78D-01 WtEn= 1.22D-01
 Coeff-Com: -0.171D+00 0.117D+01
 Coeff-En:   0.000D+00 0.100D+01
 Coeff:     -0.150D+00 0.115D+01
 Gap=     0.362 Goal=   None    Shift=    0.000
 RMSDP=6.12D-04 MaxDP=3.37D-02 DE=-1.96D-01 OVMax= 1.47D-01

 Cycle   3  Pass 0  IDiag  1:
 RMSU=  6.06D-04    CP:  9.94D-01  1.08D+00
 E= -2048.67667027759     Delta-E=       -0.179173608136 Rises=F Damp=F
 DIIS: error= 5.87D-03 at cycle   3 NSaved=   3.
 NSaved= 3 IEnMin= 3 EnMin= -2048.67667027759     IErMin= 3 ErrMin= 5.87D-03
 ErrMax= 5.87D-03  0.00D+00 EMaxC= 1.00D-01 BMatC= 7.32D-02 BMatP= 1.48D-01
 IDIUse=3 WtCom= 9.41D-01 WtEn= 5.87D-02
 Coeff-Com: -0.231D+00 0.560D+00 0.671D+00
 Coeff-En:   0.000D+00 0.000D+00 0.100D+01
 Coeff:     -0.218D+00 0.527D+00 0.690D+00
 Gap=     0.275 Goal=   None    Shift=    0.000
 RMSDP=3.91D-04 MaxDP=2.76D-02 DE=-1.79D-01 OVMax= 7.70D-02

 Cycle   4  Pass 0  IDiag  1:
 RMSU=  2.17D-04    CP:  9.94D-01  1.39D+00  6.52D-01
 E= -2048.73281412640     Delta-E=       -0.056143848809 Rises=F Damp=F
 DIIS: error= 2.27D-03 at cycle   4 NSaved=   4.
 NSaved= 4 IEnMin= 4 EnMin= -2048.73281412640     IErMin= 4 ErrMin= 2.27D-03
 ErrMax= 2.27D-03  0.00D+00 EMaxC= 1.00D-01 BMatC= 9.87D-03 BMatP= 7.32D-02
 IDIUse=3 WtCom= 9.77D-01 WtEn= 2.27D-02
 Coeff-Com: -0.976D-01 0.189D+00 0.369D+00 0.539D+00
 Coeff-En:   0.000D+00 0.000D+00 0.603D-01 0.940D+00
 Coeff:     -0.954D-01 0.185D+00 0.362D+00 0.548D+00
 Gap=     0.279 Goal=   None    Shift=    0.000
 RMSDP=1.33D-04 MaxDP=1.16D-02 DE=-5.61D-02 OVMax= 1.68D-02

 Cycle   5  Pass 0  IDiag  1:
 RMSU=  6.22D-05    CP:  9.93D-01  1.36D+00  7.88D-01  6.28D-01
 E= -2048.74112299396     Delta-E=       -0.008308867566 Rises=F Damp=F
 DIIS: error= 4.67D-04 at cycle   5 NSaved=   5.
 NSaved= 5 IEnMin= 5 EnMin= -2048.74112299396     IErMin= 5 ErrMin= 4.67D-04
 ErrMax= 4.67D-04  0.00D+00 EMaxC= 1.00D-01 BMatC= 2.97D-04 BMatP= 9.87D-03
 IDIUse=3 WtCom= 9.95D-01 WtEn= 4.67D-03
 Coeff-Com: -0.254D-01 0.435D-01 0.117D+00 0.236D+00 0.629D+00
 Coeff-En:   0.000D+00 0.000D+00 0.000D+00 0.000D+00 0.100D+01
 Coeff:     -0.252D-01 0.433D-01 0.116D+00 0.235D+00 0.631D+00
 Gap=     0.280 Goal=   None    Shift=    0.000
 RMSDP=2.70D-05 MaxDP=1.78D-03 DE=-8.31D-03 OVMax= 3.47D-03

 Failed to achieve initial convergence to 1.0D-08 in  6 cycles.
 Switch to full accuracy anyway.
 Cycle   6  Pass 1  IDiag  1:
 E= -2048.74135470363     Delta-E=       -0.000231709666 Rises=F Damp=F
 DIIS: error= 2.24D-04 at cycle   1 NSaved=   1.
 NSaved= 1 IEnMin= 1 EnMin= -2048.74135470363     IErMin= 1 ErrMin= 2.24D-04
 ErrMax= 2.24D-04  0.00D+00 EMaxC= 1.00D-01 BMatC= 7.44D-05 BMatP= 7.44D-05
 IDIUse=3 WtCom= 9.98D-01 WtEn= 2.24D-03
 Coeff-Com:  0.100D+01
 Coeff-En:   0.100D+01
 Coeff:      0.100D+01
 Gap=     0.280 Goal=   None    Shift=    0.000
 RMSDP=2.70D-05 MaxDP=1.78D-03 DE=-2.32D-04 OVMax= 1.98D-03

 Cycle   7  Pass 1  IDiag  1:
 RMSU=  1.07D-04    CP:  1.00D+00
 E= -2048.74140818993     Delta-E=       -0.000053486305 Rises=F Damp=F
 DIIS: error= 2.20D-04 at cycle   2 NSaved=   2.
 NSaved= 2 IEnMin= 2 EnMin= -2048.74140818993     IErMin= 2 ErrMin= 2.20D-04
 ErrMax= 2.20D-04  0.00D+00 EMaxC= 1.00D-01 BMatC= 4.42D-05 BMatP= 7.44D-05
 IDIUse=3 WtCom= 9.98D-01 WtEn= 2.20D-03
 Coeff-Com:  0.413D+00 0.587D+00
 Coeff-En:   0.000D+00 0.100D+01
 Coeff:      0.412D+00 0.588D+00
 Gap=     0.280 Goal=   None    Shift=    0.000
 RMSDP=1.15D-05 MaxDP=1.16D-03 DE=-5.35D-05 OVMax= 1.46D-03

 Cycle   8  Pass 1  IDiag  1:
 RMSU=  1.12D-05    CP:  1.00D+00  1.02D+00
 E= -2048.74144031753     Delta-E=       -0.000032127597 Rises=F Damp=F
 DIIS: error= 1.26D-04 at cycle   3 NSaved=   3.
 NSaved= 3 IEnMin= 3 EnMin= -2048.74144031753     IErMin= 3 ErrMin= 1.26D-04
 ErrMax= 1.26D-04  0.00D+00 EMaxC= 1.00D-01 BMatC= 9.93D-06 BMatP= 4.42D-05
 IDIUse=3 WtCom= 9.99D-01 WtEn= 1.26D-03
 Coeff-Com: -0.177D-01 0.307D+00 0.710D+00
 Coeff-En:   0.000D+00 0.122D+00 0.878D+00
 Coeff:     -0.177D-01 0.307D+00 0.711D+00
 Gap=     0.280 Goal=   None    Shift=    0.000
 RMSDP=5.65D-06 MaxDP=5.08D-04 DE=-3.21D-05 OVMax= 5.82D-04

 Cycle   9  Pass 1  IDiag  1:
 RMSU=  3.94D-06    CP:  1.00D+00  1.05D+00  7.65D-01
 E= -2048.74144954883     Delta-E=       -0.000009231298 Rises=F Damp=F
 DIIS: error= 2.77D-05 at cycle   4 NSaved=   4.
 NSaved= 4 IEnMin= 4 EnMin= -2048.74144954883     IErMin= 4 ErrMin= 2.77D-05
 ErrMax= 2.77D-05  0.00D+00 EMaxC= 1.00D-01 BMatC= 5.47D-07 BMatP= 9.93D-06
 IDIUse=1 WtCom= 1.00D+00 WtEn= 0.00D+00
 Coeff-Com: -0.318D-01 0.863D-01 0.271D+00 0.675D+00
 Coeff:     -0.318D-01 0.863D-01 0.271D+00 0.675D+00
 Gap=     0.280 Goal=   None    Shift=    0.000
 RMSDP=1.50D-06 MaxDP=1.17D-04 DE=-9.23D-06 OVMax= 4.72D-04

 Cycle  10  Pass 1  IDiag  1:
 RMSU=  1.35D-06    CP:  1.00D+00  1.05D+00  8.01D-01  1.10D+00
 E= -2048.74145042817     Delta-E=       -0.000000879339 Rises=F Damp=F
 DIIS: error= 9.92D-06 at cycle   5 NSaved=   5.
 NSaved= 5 IEnMin= 5 EnMin= -2048.74145042817     IErMin= 5 ErrMin= 9.92D-06
 ErrMax= 9.92D-06  0.00D+00 EMaxC= 1.00D-01 BMatC= 1.35D-07 BMatP= 5.47D-07
 IDIUse=1 WtCom= 1.00D+00 WtEn= 0.00D+00
 Coeff-Com: -0.489D-02-0.500D-01-0.108D+00 0.226D+00 0.937D+00
 Coeff:     -0.489D-02-0.500D-01-0.108D+00 0.226D+00 0.937D+00
 Gap=     0.280 Goal=   None    Shift=    0.000
 RMSDP=1.22D-06 MaxDP=7.02D-05 DE=-8.79D-07 OVMax= 2.29D-04

 Cycle  11  Pass 1  IDiag  1:
 RMSU=  5.06D-07    CP:  1.00D+00  1.05D+00  8.10D-01  1.37D+00  1.16D+00
 E= -2048.74145069946     Delta-E=       -0.000000271289 Rises=F Damp=F
 DIIS: error= 5.52D-06 at cycle   6 NSaved=   6.
 NSaved= 6 IEnMin= 6 EnMin= -2048.74145069946     IErMin= 6 ErrMin= 5.52D-06
 ErrMax= 5.52D-06  0.00D+00 EMaxC= 1.00D-01 BMatC= 3.14D-08 BMatP= 1.35D-07
 IDIUse=1 WtCom= 1.00D+00 WtEn= 0.00D+00
 Coeff-Com:  0.464D-02-0.446D-01-0.118D+00-0.131D-02 0.505D+00 0.653D+00
 Coeff:      0.464D-02-0.446D-01-0.118D+00-0.131D-02 0.505D+00 0.653D+00
 Gap=     0.280 Goal=   None    Shift=    0.000
 RMSDP=4.19D-07 MaxDP=2.60D-05 DE=-2.71D-07 OVMax= 1.25D-04

 Cycle  12  Pass 1  IDiag  1:
 RMSU=  1.94D-07    CP:  1.00D+00  1.05D+00  8.12D-01  1.45D+00  1.29D+00
                    CP:  9.37D-01
 E= -2048.74145074671     Delta-E=       -0.000000047252 Rises=F Damp=F
 DIIS: error= 1.01D-06 at cycle   7 NSaved=   7.
 NSaved= 7 IEnMin= 7 EnMin= -2048.74145074671     IErMin= 7 ErrMin= 1.01D-06
 ErrMax= 1.01D-06  0.00D+00 EMaxC= 1.00D-01 BMatC= 9.03D-10 BMatP= 3.14D-08
 IDIUse=1 WtCom= 1.00D+00 WtEn= 0.00D+00
 Coeff-Com:  0.126D-02-0.837D-02-0.239D-01-0.818D-02 0.678D-01 0.152D+00
 Coeff-Com:  0.819D+00
 Coeff:      0.126D-02-0.837D-02-0.239D-01-0.818D-02 0.678D-01 0.152D+00
 Coeff:      0.819D+00
 Gap=     0.280 Goal=   None    Shift=    0.000
 RMSDP=8.83D-08 MaxDP=4.23D-06 DE=-4.73D-08 OVMax= 2.28D-05

 Cycle  13  Pass 1  IDiag  1:
 RMSU=  5.37D-08    CP:  1.00D+00  1.05D+00  8.11D-01  1.46D+00  1.31D+00
                    CP:  1.02D+00  1.14D+00
 E= -2048.74145074870     Delta-E=       -0.000000001994 Rises=F Damp=F
 DIIS: error= 4.64D-07 at cycle   8 NSaved=   8.
 NSaved= 8 IEnMin= 8 EnMin= -2048.74145074870     IErMin= 8 ErrMin= 4.64D-07
 ErrMax= 4.64D-07  0.00D+00 EMaxC= 1.00D-01 BMatC= 3.67D-10 BMatP= 9.03D-10
 IDIUse=1 WtCom= 1.00D+00 WtEn= 0.00D+00
 Coeff-Com: -0.739D-03 0.904D-02 0.225D-01-0.165D-02-0.114D+00-0.114D+00
 Coeff-Com:  0.407D+00 0.792D+00
 Coeff:     -0.739D-03 0.904D-02 0.225D-01-0.165D-02-0.114D+00-0.114D+00
 Coeff:      0.407D+00 0.792D+00
 Gap=     0.280 Goal=   None    Shift=    0.000
 RMSDP=5.37D-08 MaxDP=2.50D-06 DE=-1.99D-09 OVMax= 1.19D-05

 Cycle  14  Pass 1  IDiag  1:
 RMSU=  2.88D-08    CP:  1.00D+00  1.05D+00  8.11D-01  1.47D+00  1.32D+00
                    CP:  1.07D+00  1.31D+00  1.09D+00
 E= -2048.74145074965     Delta-E=       -0.000000000954 Rises=F Damp=F
 DIIS: error= 1.43D-07 at cycle   9 NSaved=   9.
 NSaved= 9 IEnMin= 9 EnMin= -2048.74145074965     IErMin= 9 ErrMin= 1.43D-07
 ErrMax= 1.43D-07  0.00D+00 EMaxC= 1.00D-01 BMatC= 2.84D-11 BMatP= 3.67D-10
 IDIUse=1 WtCom= 1.00D+00 WtEn= 0.00D+00
 Coeff-Com: -0.419D-03 0.443D-02 0.113D-01 0.337D-03-0.512D-01-0.604D-01
 Coeff-Com:  0.784D-01 0.291D+00 0.727D+00
 Coeff:     -0.419D-03 0.443D-02 0.113D-01 0.337D-03-0.512D-01-0.604D-01
 Coeff:      0.784D-01 0.291D+00 0.727D+00
 Gap=     0.280 Goal=   None    Shift=    0.000
 RMSDP=1.39D-08 MaxDP=6.62D-07 DE=-9.54D-10 OVMax= 3.22D-06

 Cycle  15  Pass 1  IDiag  1:
 RMSU=  9.30D-09    CP:  1.00D+00  1.05D+00  8.11D-01  1.47D+00  1.32D+00
                    CP:  1.08D+00  1.34D+00  1.21D+00  1.13D+00
 E= -2048.74145074962     Delta-E=        0.000000000032 Rises=F Damp=F
 DIIS: error= 5.41D-08 at cycle  10 NSaved=  10.
 NSaved=10 IEnMin= 9 EnMin= -2048.74145074965     IErMin=10 ErrMin= 5.41D-08
 ErrMax= 5.41D-08  0.00D+00 EMaxC= 1.00D-01 BMatC= 4.61D-12 BMatP= 2.84D-11
 IDIUse=1 WtCom= 1.00D+00 WtEn= 0.00D+00
 Coeff-Com:  0.162D-04-0.424D-03-0.953D-03 0.121D-03 0.674D-02 0.340D-02
 Coeff-Com: -0.512D-01-0.713D-01 0.241D+00 0.873D+00
 Coeff:      0.162D-04-0.424D-03-0.953D-03 0.121D-03 0.674D-02 0.340D-02
 Coeff:     -0.512D-01-0.713D-01 0.241D+00 0.873D+00
 Gap=     0.280 Goal=   None    Shift=    0.000
 RMSDP=6.71D-09 MaxDP=2.73D-07 DE= 3.18D-11 OVMax= 1.40D-06

 SCF Done:  E(RwB97XD) =  -2048.74145075     A.U. after   15 cycles
            NFock= 15  Conv=0.67D-08     -V/T= 2.0054
 KE= 2.037829759143D+03 PE=-1.599293062664D+04 EE= 6.300282327784D+03
 Leave Link  502 at Wed Jan 24 15:03:05 2018, MaxMem=  4294967296 cpu:           22607.0 elap:             729.1
 (Enter /share/apps/g16/l601.exe)
 Copying SCF densities to generalized density rwf, IOpCl= 0 IROHF=0.

 **********************************************************************

            Population analysis using the SCF density.

 **********************************************************************

 Orbital symmetries:
       Occupied  (A) (A) (A) (A) (A) (A) (A) (A) (A) (A) (A) (A)
                 (A) (A) (A) (A) (A) (A) (A) (A) (A) (A) (A) (A)
                 (A) (A) (A) (A) (A) (A) (A) (A) (A) (A) (A) (A)
                 (A) (A) (A) (A) (A) (A) (A) (A) (A) (A) (A) (A)
                 (A) (A) (A) (A) (A) (A) (A) (A) (A) (A) (A) (A)
                 (A) (A) (A) (A) (A) (A) (A) (A) (A) (A) (A) (A)
                 (A) (A) (A) (A) (A) (A) (A) (A) (A) (A) (A) (A)
                 (A) (A) (A) (A) (A) (A) (A) (A) (A) (A) (A) (A)
                 (A) (A) (A) (A) (A) (A) (A) (A) (A) (A) (A) (A)
                 (A) (A) (A) (A) (A) (A) (A) (A) (A) (A) (A) (A)
                 (A) (A) (A) (A) (A) (A) (A) (A) (A) (A) (A) (A)
                 (A) (A) (A) (A) (A) (A) (A) (A) (A) (A) (A) (A)
                 (A) (A) (A) (A) (A) (A) (A) (A) (A) (A)
       Virtual   (A) (A) (A) (A) (A) (A) (A) (A) (A) (A) (A) (A)
                 (A) (A) (A) (A) (A) (A) (A) (A) (A) (A) (A) (A)
                 (A) (A) (A) (A) (A) (A) (A) (A) (A) (A) (A) (A)
                 (A) (A) (A) (A) (A) (A) (A) (A) (A) (A) (A) (A)
                 (A) (A) (A) (A) (A) (A) (A) (A) (A) (A) (A) (A)
                 (A) (A) (A) (A) (A) (A) (A) (A) (A) (A) (A) (A)
                 (A) (A) (A) (A) (A) (A) (A) (A) (A) (A) (A) (A)
                 (A) (A) (A) (A) (A) (A) (A) (A) (A) (A) (A) (A)
                 (A) (A) (A) (A) (A) (A) (A) (A) (A) (A) (A) (A)
                 (A) (A) (A) (A) (A) (A) (A) (A) (A) (A) (A) (A)
                 (A) (A) (A) (A) (A) (A) (A) (A) (A) (A) (A) (A)
                 (A) (A) (A) (A) (A) (A) (A) (A) (A) (A) (A) (A)
                 (A) (A) (A) (A) (A) (A) (A) (A) (A) (A) (A) (A)
                 (A) (A) (A) (A) (A) (A) (A) (A) (A) (A) (A) (A)
                 (A) (A) (A) (A) (A) (A) (A) (A) (A) (A) (A) (A)
                 (A) (A) (A) (A) (A) (A) (A) (A) (A) (A) (A) (A)
                 (A) (A) (A) (A) (A) (A) (A) (A) (A) (A) (A) (A)
                 (A) (A) (A) (A) (A) (A) (A) (A) (A) (A) (A) (A)
                 (A) (A) (A) (A) (A) (A) (A) (A) (A) (A) (A) (A)
                 (A) (A) (A) (A) (A) (A) (A) (A) (A) (A) (A) (A)
                 (A) (A) (A) (A) (A) (A) (A) (A) (A) (A) (A) (A)
                 (A) (A) (A) (A) (A) (A) (A) (A) (A) (A) (A) (A)
                 (A) (A) (A) (A) (A) (A) (A) (A) (A) (A) (A) (A)
                 (A) (A) (A) (A) (A) (A) (A) (A) (A) (A) (A) (A)
                 (A) (A) (A) (A) (A) (A) (A) (A) (A) (A) (A) (A)
                 (A) (A) (A) (A) (A) (A) (A) (A) (A) (A) (A) (A)
                 (A) (A) (A) (A) (A) (A) (A) (A) (A) (A) (A) (A)
                 (A) (A) (A) (A) (A) (A) (A) (A) (A) (A) (A) (A)
                 (A) (A) (A) (A) (A) (A) (A) (A) (A) (A) (A) (A)
                 (A) (A) (A) (A) (A) (A) (A) (A) (A) (A) (A) (A)
                 (A) (A) (A) (A) (A) (A) (A) (A) (A) (A) (A) (A)
                 (A) (A) (A) (A) (A) (A) (A) (A) (A) (A) (A) (A)
                 (A) (A) (A) (A) (A) (A) (A) (A) (A) (A) (A) (A)
                 (A) (A) (A) (A) (A) (A) (A) (A) (A) (A) (A) (A)
                 (A) (A) (A) (A) (A) (A) (A) (A) (A) (A) (A) (A)
                 (A) (A) (A) (A) (A) (A) (A) (A) (A) (A) (A) (A)
                 (A) (A) (A) (A) (A) (A) (A) (A) (A) (A) (A) (A)
                 (A) (A) (A) (A) (A) (A) (A) (A) (A) (A) (A) (A)
                 (A) (A) (A) (A) (A) (A) (A) (A) (A) (A) (A) (A)
                 (A) (A) (A) (A) (A) (A) (A) (A) (A) (A) (A) (A)
                 (A) (A) (A) (A) (A) (A) (A) (A) (A) (A) (A) (A)
                 (A) (A) (A) (A) (A) (A) (A) (A) (A) (A) (A) (A)
                 (A) (A) (A) (A) (A) (A) (A) (A) (A) (A) (A) (A)
                 (A) (A) (A) (A) (A) (A) (A) (A) (A) (A) (A) (A)
                 (A) (A) (A) (A) (A) (A) (A) (A) (A) (A) (A) (A)
                 (A) (A) (A) (A) (A) (A) (A) (A) (A) (A) (A) (A)
                 (A) (A) (A) (A) (A) (A) (A) (A) (A) (A) (A) (A)
                 (A) (A) (A) (A) (A) (A) (A) (A) (A) (A) (A) (A)
                 (A) (A) (A) (A) (A) (A) (A)
 The electronic state is 1-A.
 Alpha  occ. eigenvalues --  -19.25458 -19.21860 -19.20604 -14.52269 -14.51704
 Alpha  occ. eigenvalues --  -14.49987 -14.48560 -14.47489 -14.46791 -14.46558
 Alpha  occ. eigenvalues --  -14.46512 -14.44393 -14.43364 -14.43200 -14.42945
 Alpha  occ. eigenvalues --  -14.42535 -14.41833 -14.41816 -14.41041 -14.40681
 Alpha  occ. eigenvalues --  -10.45162 -10.41060 -10.39842 -10.38671 -10.38145
 Alpha  occ. eigenvalues --  -10.37362 -10.37016 -10.36325 -10.36219 -10.35461
 Alpha  occ. eigenvalues --  -10.35193 -10.34858 -10.34424 -10.34159 -10.33938
 Alpha  occ. eigenvalues --  -10.33550 -10.33151 -10.32147 -10.31607 -10.30659
 Alpha  occ. eigenvalues --  -10.30488 -10.29563 -10.27951  -1.19149  -1.14339
 Alpha  occ. eigenvalues --   -1.13111  -1.12797  -1.12529  -1.10443  -1.09154
 Alpha  occ. eigenvalues --   -1.08451  -1.08056  -1.05915  -1.03572  -1.02286
 Alpha  occ. eigenvalues --   -1.01345  -1.00070  -0.99593  -0.98379  -0.98063
 Alpha  occ. eigenvalues --   -0.96377  -0.95727  -0.93535  -0.90755  -0.86955
 Alpha  occ. eigenvalues --   -0.85531  -0.85028  -0.83910  -0.83666  -0.83400
 Alpha  occ. eigenvalues --   -0.82236  -0.78644  -0.76017  -0.74457  -0.73886
 Alpha  occ. eigenvalues --   -0.73843  -0.73457  -0.73150  -0.72014  -0.69455
 Alpha  occ. eigenvalues --   -0.67288  -0.67209  -0.66432  -0.65718  -0.64349
 Alpha  occ. eigenvalues --   -0.63729  -0.63676  -0.63170  -0.62481  -0.62172
 Alpha  occ. eigenvalues --   -0.61571  -0.61135  -0.59679  -0.59292  -0.58684
 Alpha  occ. eigenvalues --   -0.58320  -0.58175  -0.57444  -0.57389  -0.56310
 Alpha  occ. eigenvalues --   -0.56041  -0.55744  -0.55627  -0.54629  -0.54184
 Alpha  occ. eigenvalues --   -0.53701  -0.53441  -0.52972  -0.52823  -0.52653
 Alpha  occ. eigenvalues --   -0.52409  -0.51947  -0.51586  -0.51161  -0.50762
 Alpha  occ. eigenvalues --   -0.50026  -0.49973  -0.49259  -0.49116  -0.48978
 Alpha  occ. eigenvalues --   -0.48563  -0.48369  -0.48105  -0.47900  -0.47615
 Alpha  occ. eigenvalues --   -0.47284  -0.45994  -0.45376  -0.43613  -0.42828
 Alpha  occ. eigenvalues --   -0.41993  -0.39777  -0.39149  -0.38109  -0.37099
 Alpha  occ. eigenvalues --   -0.37079  -0.37038  -0.36642  -0.35902  -0.34610
 Alpha  occ. eigenvalues --   -0.34492  -0.33998  -0.33746  -0.33303  -0.33038
 Alpha  occ. eigenvalues --   -0.32575  -0.32387  -0.31768  -0.31624  -0.31297
 Alpha  occ. eigenvalues --   -0.31185  -0.28539  -0.26728  -0.25304
 Alpha virt. eigenvalues --    0.02684   0.05578   0.06892   0.07113   0.09172
 Alpha virt. eigenvalues --    0.09594   0.09880   0.10296   0.11300   0.12177
 Alpha virt. eigenvalues --    0.12966   0.13601   0.14240   0.14905   0.15045
 Alpha virt. eigenvalues --    0.15333   0.16435   0.17688   0.18092   0.18221
 Alpha virt. eigenvalues --    0.18652   0.18806   0.19182   0.19589   0.20338
 Alpha virt. eigenvalues --    0.20792   0.21138   0.21914   0.22177   0.22306
 Alpha virt. eigenvalues --    0.22573   0.22914   0.22987   0.23246   0.23274
 Alpha virt. eigenvalues --    0.24041   0.24422   0.25243   0.25776   0.26213
 Alpha virt. eigenvalues --    0.26579   0.27255   0.27578   0.27845   0.28380
 Alpha virt. eigenvalues --    0.29086   0.29385   0.29768   0.30350   0.31320
 Alpha virt. eigenvalues --    0.31873   0.32422   0.33345   0.33430   0.33885
 Alpha virt. eigenvalues --    0.34263   0.34433   0.35489   0.35978   0.36574
 Alpha virt. eigenvalues --    0.36690   0.37081   0.37963   0.38235   0.39020
 Alpha virt. eigenvalues --    0.39836   0.40411   0.41174   0.41682   0.42062
 Alpha virt. eigenvalues --    0.42292   0.42581   0.43057   0.43504   0.43698
 Alpha virt. eigenvalues --    0.44657   0.45843   0.45947   0.46036   0.46912
 Alpha virt. eigenvalues --    0.47557   0.47945   0.48509   0.48809   0.49598
 Alpha virt. eigenvalues --    0.49804   0.50141   0.50720   0.51052   0.51300
 Alpha virt. eigenvalues --    0.51941   0.52307   0.52714   0.53085   0.53533
 Alpha virt. eigenvalues --    0.54250   0.54668   0.55275   0.55383   0.55616
 Alpha virt. eigenvalues --    0.55788   0.56272   0.56706   0.57061   0.57385
 Alpha virt. eigenvalues --    0.57948   0.58452   0.59101   0.59560   0.60174
 Alpha virt. eigenvalues --    0.60563   0.60799   0.61131   0.61345   0.61662
 Alpha virt. eigenvalues --    0.62158   0.62701   0.63404   0.63613   0.63659
 Alpha virt. eigenvalues --    0.64127   0.64342   0.65193   0.65258   0.65597
 Alpha virt. eigenvalues --    0.65874   0.66501   0.66950   0.67450   0.67939
 Alpha virt. eigenvalues --    0.68659   0.69125   0.69392   0.69684   0.70819
 Alpha virt. eigenvalues --    0.71078   0.71099   0.71615   0.72451   0.72895
 Alpha virt. eigenvalues --    0.73254   0.73591   0.73975   0.74218   0.74675
 Alpha virt. eigenvalues --    0.75267   0.75500   0.75618   0.75822   0.76105
 Alpha virt. eigenvalues --    0.76174   0.76520   0.76971   0.77181   0.77719
 Alpha virt. eigenvalues --    0.78327   0.78757   0.79066   0.79300   0.79851
 Alpha virt. eigenvalues --    0.80003   0.80611   0.80963   0.81380   0.81712
 Alpha virt. eigenvalues --    0.82106   0.82503   0.83121   0.83477   0.83634
 Alpha virt. eigenvalues --    0.83791   0.84622   0.84959   0.85266   0.85616
 Alpha virt. eigenvalues --    0.85962   0.86390   0.87143   0.88190   0.88545
 Alpha virt. eigenvalues --    0.88783   0.89122   0.89692   0.89940   0.90643
 Alpha virt. eigenvalues --    0.91042   0.91756   0.92203   0.92733   0.93234
 Alpha virt. eigenvalues --    0.93612   0.94250   0.94809   0.95294   0.95533
 Alpha virt. eigenvalues --    0.96065   0.96234   0.96940   0.97202   0.97512
 Alpha virt. eigenvalues --    0.98046   0.98238   0.98812   0.99083   0.99945
 Alpha virt. eigenvalues --    1.00336   1.00490   1.01013   1.01481   1.02072
 Alpha virt. eigenvalues --    1.02696   1.02915   1.03027   1.03729   1.04116
 Alpha virt. eigenvalues --    1.04525   1.04929   1.05334   1.05805   1.06271
 Alpha virt. eigenvalues --    1.06851   1.07324   1.08020   1.09066   1.09316
 Alpha virt. eigenvalues --    1.09987   1.10189   1.10715   1.10883   1.11264
 Alpha virt. eigenvalues --    1.11985   1.12602   1.12900   1.12986   1.14089
 Alpha virt. eigenvalues --    1.14816   1.15028   1.15604   1.16224   1.16695
 Alpha virt. eigenvalues --    1.16845   1.17513   1.17978   1.18111   1.18338
 Alpha virt. eigenvalues --    1.18762   1.19515   1.20043   1.20173   1.20572
 Alpha virt. eigenvalues --    1.21187   1.21256   1.21636   1.21993   1.22408
 Alpha virt. eigenvalues --    1.23172   1.23449   1.23765   1.24289   1.24519
 Alpha virt. eigenvalues --    1.24624   1.25443   1.25733   1.26597   1.26661
 Alpha virt. eigenvalues --    1.27082   1.27556   1.28401   1.28601   1.29553
 Alpha virt. eigenvalues --    1.30171   1.30347   1.31349   1.31400   1.32486
 Alpha virt. eigenvalues --    1.32744   1.33019   1.33653   1.34112   1.34653
 Alpha virt. eigenvalues --    1.35101   1.36252   1.36887   1.37275   1.37664
 Alpha virt. eigenvalues --    1.37783   1.39091   1.39499   1.40587   1.40873
 Alpha virt. eigenvalues --    1.41517   1.41867   1.43312   1.43621   1.44106
 Alpha virt. eigenvalues --    1.46074   1.46666   1.47356   1.47848   1.48489
 Alpha virt. eigenvalues --    1.49072   1.50231   1.50529   1.51575   1.52190
 Alpha virt. eigenvalues --    1.52780   1.53197   1.54311   1.55037   1.56608
 Alpha virt. eigenvalues --    1.56943   1.57275   1.58187   1.58617   1.58652
 Alpha virt. eigenvalues --    1.60048   1.60763   1.60975   1.61707   1.62122
 Alpha virt. eigenvalues --    1.62150   1.63127   1.63795   1.64318   1.65035
 Alpha virt. eigenvalues --    1.65266   1.66284   1.66919   1.67234   1.67900
 Alpha virt. eigenvalues --    1.68026   1.68997   1.69305   1.69574   1.69913
 Alpha virt. eigenvalues --    1.70630   1.71000   1.71701   1.71920   1.72379
 Alpha virt. eigenvalues --    1.72562   1.73263   1.73636   1.73809   1.74072
 Alpha virt. eigenvalues --    1.74462   1.75132   1.75187   1.75648   1.76070
 Alpha virt. eigenvalues --    1.76463   1.76587   1.77055   1.77714   1.78079
 Alpha virt. eigenvalues --    1.78541   1.78853   1.79212   1.79430   1.79964
 Alpha virt. eigenvalues --    1.80275   1.80876   1.81568   1.81615   1.82006
 Alpha virt. eigenvalues --    1.82331   1.82445   1.83144   1.83855   1.84281
 Alpha virt. eigenvalues --    1.84378   1.84948   1.85515   1.85878   1.86819
 Alpha virt. eigenvalues --    1.86890   1.87483   1.87593   1.88114   1.88447
 Alpha virt. eigenvalues --    1.88624   1.89011   1.89511   1.90041   1.90224
 Alpha virt. eigenvalues --    1.90429   1.91659   1.91788   1.92211   1.92443
 Alpha virt. eigenvalues --    1.92762   1.93793   1.94466   1.94698   1.95133
 Alpha virt. eigenvalues --    1.95537   1.96618   1.97103   1.98034   1.98568
 Alpha virt. eigenvalues --    1.99322   2.00383   2.00910   2.01224   2.01736
 Alpha virt. eigenvalues --    2.02523   2.03362   2.04180   2.04893   2.05919
 Alpha virt. eigenvalues --    2.06466   2.06600   2.07109   2.08089   2.08625
 Alpha virt. eigenvalues --    2.08968   2.09904   2.10080   2.10480   2.11779
 Alpha virt. eigenvalues --    2.12150   2.12862   2.13049   2.14384   2.15280
 Alpha virt. eigenvalues --    2.16153   2.16803   2.18488   2.18685   2.19685
 Alpha virt. eigenvalues --    2.20450   2.20591   2.21169   2.22130   2.22476
 Alpha virt. eigenvalues --    2.23508   2.23799   2.23920   2.24257   2.24897
 Alpha virt. eigenvalues --    2.25421   2.25985   2.26693   2.27090   2.27449
 Alpha virt. eigenvalues --    2.28162   2.29126   2.29378   2.30047   2.30542
 Alpha virt. eigenvalues --    2.30657   2.31766   2.32681   2.33269   2.33437
 Alpha virt. eigenvalues --    2.33930   2.34507   2.35316   2.35327   2.35690
 Alpha virt. eigenvalues --    2.36141   2.36810   2.37214   2.37767   2.38281
 Alpha virt. eigenvalues --    2.38943   2.39528   2.40631   2.40977   2.41856
 Alpha virt. eigenvalues --    2.42606   2.43087   2.43755   2.44525   2.44927
 Alpha virt. eigenvalues --    2.45306   2.45851   2.46316   2.46830   2.47284
 Alpha virt. eigenvalues --    2.47617   2.49544   2.49703   2.50519   2.52322
 Alpha virt. eigenvalues --    2.52609   2.54477   2.55276   2.56019   2.56724
 Alpha virt. eigenvalues --    2.57172   2.57836   2.58411   2.59701   2.60493
 Alpha virt. eigenvalues --    2.62025   2.62095   2.63341   2.63836   2.64435
 Alpha virt. eigenvalues --    2.65513   2.66110   2.66602   2.66850   2.67292
 Alpha virt. eigenvalues --    2.68072   2.68214   2.69238   2.70343   2.70729
 Alpha virt. eigenvalues --    2.71798   2.72707   2.73033   2.73353   2.73591
 Alpha virt. eigenvalues --    2.75324   2.75446   2.76046   2.77408   2.77687
 Alpha virt. eigenvalues --    2.79002   2.79252   2.79504   2.80533   2.80806
 Alpha virt. eigenvalues --    2.81017   2.81364   2.82211   2.82801   2.82968
 Alpha virt. eigenvalues --    2.83321   2.83781   2.84372   2.85535   2.86341
 Alpha virt. eigenvalues --    2.86623   2.86839   2.87109   2.87981   2.88690
 Alpha virt. eigenvalues --    2.89004   2.90288   2.93895   2.95120   2.95339
 Alpha virt. eigenvalues --    2.96599   2.97467   2.97990   2.99477   3.00149
 Alpha virt. eigenvalues --    3.01759   3.03553   3.05057   3.05499   3.06586
 Alpha virt. eigenvalues --    3.06979   3.09898   3.12656   3.14576   3.15519
 Alpha virt. eigenvalues --    3.16369   3.17198   3.17998   3.20016   3.20860
 Alpha virt. eigenvalues --    3.22868   3.23409   3.23709   3.25233   3.27842
 Alpha virt. eigenvalues --    3.45813   3.47158   3.47859   3.50252   3.50676
 Alpha virt. eigenvalues --    3.52859   3.55319   3.56576   3.57895   3.60442
 Alpha virt. eigenvalues --    3.63952   3.70755   3.75398
          Condensed to atoms (all electrons):
 Mulliken charges:
               1
     1  N   -0.307987
     2  C    0.177799
     3  C    0.050722
     4  N   -0.244842
     5  C    0.119716
     6  H    0.028187
     7  N   -0.279971
     8  C    0.141068
     9  H    0.012904
    10  N   -0.283280
    11  C    0.219027
    12  C    0.084321
    13  N   -0.038859
    14  H    0.110906
    15  H    0.091394
    16  H    0.031500
    17  H    0.036993
    18  H    0.025220
    19  N   -0.296042
    20  C    0.246444
    21  C    0.196444
    22  N   -0.118257
    23  H    0.116456
    24  H    0.117724
    25  N   -0.301703
    26  C    0.229472
    27  N   -0.142504
    28  H    0.125369
    29  C    0.169961
    30  O   -0.324510
    31  C   -0.009122
    32  N   -0.225021
    33  C    0.130922
    34  H    0.022602
    35  H    0.001477
    36  H    0.032336
    37  H    0.020931
    38  H    0.043726
    39  H    0.062170
    40  H    0.076279
    41  H    0.025933
    42  C   -0.063994
    43  O   -0.268759
    44  C    0.162943
    45  H    0.134374
    46  N   -0.123891
    47  O   -0.339498
    48  C    0.334926
    49  H    0.040662
    50  C    0.149219
    51  C    0.043836
    52  N   -0.278426
    53  H    0.033901
    54  H    0.041618
    55  H   -0.006945
    56  H    0.119535
    57  H    0.119676
    58  N   -0.046557
    59  C    0.119162
    60  C    0.212121
    61  N   -0.263179
    62  H    0.033952
    63  C    0.148046
    64  N   -0.303799
    65  H    0.028868
    66  C    0.120785
    67  N   -0.241916
    68  C    0.019726
    69  C    0.194764
    70  N   -0.297054
 Sum of Mulliken charges =  -0.00000
 Mulliken charges with hydrogens summed into heavy atoms:
               1
     1  N   -0.307987
     2  C    0.271512
     3  C    0.050722
     4  N   -0.244842
     5  C    0.147903
     7  N   -0.279971
     8  C    0.153972
    10  N   -0.283280
    11  C    0.219027
    12  C    0.084321
    13  N    0.163440
    19  N   -0.296042
    20  C    0.246444
    21  C    0.251188
    22  N    0.115924
    25  N   -0.301703
    26  C    0.229472
    27  N   -0.017135
    29  C    0.169961
    30  O   -0.324510
    31  C   -0.009122
    32  N   -0.225021
    33  C    0.153524
    42  C   -0.038062
    43  O   -0.268759
    44  C    0.162943
    46  N    0.010483
    47  O   -0.339498
    48  C    0.334926
    50  C    0.189881
    51  C    0.226012
    52  N   -0.278426
    58  N    0.192653
    59  C    0.119162
    60  C    0.212121
    61  N   -0.263179
    63  C    0.181999
    64  N   -0.303799
    66  C    0.149653
    67  N   -0.241916
    68  C    0.019726
    69  C    0.263338
    70  N   -0.297054
 Electronic spatial extent (au):  <R**2>=          22282.1265
 Charge=             -0.0000 electrons
 Dipole moment (field-independent basis, Debye):
    X=             -3.8926    Y=              4.6348    Z=             -5.8419  Tot=              8.4120
 Quadrupole moment (field-independent basis, Debye-Ang):
   XX=           -145.0373   YY=           -225.5847   ZZ=           -259.9198
   XY=            -11.5510   XZ=             18.7885   YZ=             -6.1360
 Traceless Quadrupole moment (field-independent basis, Debye-Ang):
   XX=             65.1433   YY=            -15.4041   ZZ=            -49.7392
   XY=            -11.5510   XZ=             18.7885   YZ=             -6.1360
 Octapole moment (field-independent basis, Debye-Ang**2):
  XXX=             78.3592  YYY=             11.8574  ZZZ=            -77.2289  XYY=            -28.4522
  XXY=            106.3874  XXZ=            -57.6912  XZZ=            -42.7409  YZZ=             42.1916
  YYZ=             -6.9408  XYZ=             22.2818
 Hexadecapole moment (field-independent basis, Debye-Ang**3):
 XXXX=         -16231.3521 YYYY=          -3643.1757 ZZZZ=          -3398.7771 XXXY=           -537.0321
 XXXZ=            380.5446 YYYX=             41.8071 YYYZ=           -261.5477 ZZZX=            223.9158
 ZZZY=            -21.0356 XXYY=          -4278.9720 XXZZ=          -4106.4201 YYZZ=          -1173.2975
 XXYZ=              8.4200 YYXZ=            -11.6098 ZZXY=            -65.3608
 N-N= 5.606077088961D+03 E-N=-1.599293062022D+04  KE= 2.037829759143D+03
 No NMR shielding tensors so no spin-rotation constants.
 Leave Link  601 at Wed Jan 24 15:03:07 2018, MaxMem=  4294967296 cpu:              47.9 elap:               1.7
 (Enter /share/apps/g16/l9999.exe)
 1\1\GINC-COMPUTE-0-3\SP\RwB97XD\CC-pVDZ\C23H27N17O3\SATYA\24-Jan-2018\
 0\\#p wb97xd/cc-pvdz sp scf=(maxcycles=20)\\Base pair stacking\\0,1\N,
 0,-0.17811,7.84107,-6.47105\C,0,-0.94242,9.09936,-6.57363\C,0,0.3765,5
 .71476,-6.37851\N,0,1.55935,6.4299,-6.25948\C,0,1.17788,7.68229,-6.32\
 H,0,1.84997,8.53876,-6.25909\N,0,-1.18743,3.95522,-6.52372\C,0,-2.1256
 1,4.90058,-6.6407\H,0,-3.14536,4.53307,-6.74702\N,0,-1.99386,6.22554,-
 6.64603\C,0,-0.70294,6.571,-6.50964\C,0,0.10189,4.33511,-6.38803\N,0,1
 .03984,3.3929,-6.27112\H,0,2.00695,3.62829,-6.1686\H,0,0.80794,2.42015
 ,-6.28203\H,0,-0.62677,9.61889,-7.36775\H,0,-1.91476,8.89211,-6.67715\
 H,0,-0.80559,9.64334,-5.74576\N,0,-0.90343,5.84423,-3.26456\C,0,-1.308
 73,4.5313,-3.26328\C,0,-1.79933,7.01414,-3.36129\N,0,-3.84981,2.16775,
 -3.39872\H,0,-3.93246,1.17172,-3.38065\H,0,-4.69821,2.69211,-3.47605\N
 ,0,-2.58327,4.09292,-3.34948\C,0,-2.65538,2.77394,-3.32272\N,0,-1.5640
 2,1.94582,-3.21948\H,0,-1.71374,0.94864,-3.20649\C,0,-0.24354,2.37493,
 -3.12957\O,0,0.66909,1.54439,-3.03986\C,0,-0.15009,3.78963,-3.15705\N,
 0,0.96027,4.62023,-3.09292\C,0,0.46603,5.82664,-3.16\H,0,1.0579,6.7423
 1,-3.13738\H,0,-1.56892,7.5461,-4.17537\H,0,-2.74619,6.70176,-3.42565\
 H,0,-1.69262,7.58587,-2.54855\H,0,-3.07581,-3.90868,-3.84208\H,0,-2.94
 291,-3.95907,-2.08582\H,0,-3.43993,-2.46955,-2.88935\H,0,1.69896,-4.19
 796,-3.32784\C,0,0.90384,-3.45675,-3.2464\O,0,2.37803,-1.59921,-3.3046
 6\C,0,1.24163,-2.06624,-3.23206\H,0,0.3603,-0.22307,-3.11248\N,0,0.161
 43,-1.21353,-3.12585\O,0,-2.05073,-0.73321,-2.94466\C,0,-1.16278,-1.56
 263,-3.03565\H,0,-0.68828,-4.87259,-3.16654\C,0,-0.37877,-3.82832,-3.1
 6\C,0,-2.80859,-3.34261,-2.96218\N,0,-1.40801,-2.92155,-3.05609\H,0,-3
 .62221,-3.57073,-6.86174\H,0,-3.81652,-2.26629,-5.90113\H,0,-3.46522,-
 3.7185,-5.24405\H,0,2.77402,0.1518,-6.31721\H,0,2.70344,-1.54623,-6.46
 493\N,0,2.21895,-0.67979,-6.33931\C,0,0.8916,-0.63638,-6.20724\C,0,-1.
 29301,-1.57092,-6.08142\N,0,-1.91683,-0.3931,-5.91402\H,0,-1.45918,1.5
 9997,-5.77681\C,0,-1.03571,0.60515,-5.90822\N,0,0.2941,0.56371,-6.0403
 5\H,0,-1.00039,-4.7747,-6.40123\C,0,-0.82951,-3.70086,-6.32\N,0,0.3470
 7,-3.12676,-6.38132\C,0,0.06746,-1.77618,-6.23142\C,0,-3.30785,-3.1173
 9,-6.02768\N,0,-1.86691,-2.81882,-6.1396\\Version=EM64L-G16RevA.03\Sta
 te=1-A\HF=-2048.7414507\RMSD=6.710e-09\Dipole=-2.9240901,-1.5070702,-0
 .362681\Quadrupole=-17.4437303,47.920743,-30.4770127,15.9652205,-13.62
 97173,-2.5403383\PG=C01 [X(C23H27N17O3)]\\@


 ALL THINGS ARE POSSIBLE EXCEPT SKIING THROUGH A REVOLVING DOOR.
 Job cpu time:       0 days  6 hours 28 minutes 11.2 seconds.
 Elapsed time:       0 days  0 hours 12 minutes 31.4 seconds.
 File lengths (MBytes):  RWF=    298 Int=      0 D2E=      0 Chk=     33 Scr=      1
 Normal termination of Gaussian 16 at Wed Jan 24 15:03:07 2018.
