 Entering Gaussian System, Link 0=g16
 Input=str5.0.-2.0.com
 Output=str5.0.-2.0.log
 Initial command:
 /share/apps/g16/l1.exe "/state/partition1/scr/Gau-25800.inp" -scrdir="/state/partition1/scr/"
 Entering Link 1 = /share/apps/g16/l1.exe PID=     25801.
  
 Copyright (c) 1988,1990,1992,1993,1995,1998,2003,2009,2016,
            Gaussian, Inc.  All Rights Reserved.
  
 This is part of the Gaussian(R) 16 program.  It is based on
 the Gaussian(R) 09 system (copyright 2009, Gaussian, Inc.),
 the Gaussian(R) 03 system (copyright 2003, Gaussian, Inc.),
 the Gaussian(R) 98 system (copyright 1998, Gaussian, Inc.),
 the Gaussian(R) 94 system (copyright 1995, Gaussian, Inc.),
 the Gaussian 92(TM) system (copyright 1992, Gaussian, Inc.),
 the Gaussian 90(TM) system (copyright 1990, Gaussian, Inc.),
 the Gaussian 88(TM) system (copyright 1988, Gaussian, Inc.),
 the Gaussian 86(TM) system (copyright 1986, Carnegie Mellon
 University), and the Gaussian 82(TM) system (copyright 1983,
 Carnegie Mellon University). Gaussian is a federally registered
 trademark of Gaussian, Inc.
  
 This software contains proprietary and confidential information,
 including trade secrets, belonging to Gaussian, Inc.
  
 This software is provided under written license and may be
 used, copied, transmitted, or stored only in accord with that
 written license.
  
 The following legend is applicable only to US Government
 contracts under FAR:
  
                    RESTRICTED RIGHTS LEGEND
  
 Use, reproduction and disclosure by the US Government is
 subject to restrictions as set forth in subparagraphs (a)
 and (c) of the Commercial Computer Software - Restricted
 Rights clause in FAR 52.227-19.
  
 Gaussian, Inc.
 340 Quinnipiac St., Bldg. 40, Wallingford CT 06492
  
  
 ---------------------------------------------------------------
 Warning -- This program may not be used in any manner that
 competes with the business of Gaussian, Inc. or will provide
 assistance to any competitor of Gaussian, Inc.  The licensee
 of this program is prohibited from giving any competitor of
 Gaussian, Inc. access to this program.  By using this program,
 the user acknowledges that Gaussian, Inc. is engaged in the
 business of creating and licensing software in the field of
 computational chemistry and represents and warrants to the
 licensee that it is not a competitor of Gaussian, Inc. and that
 it will not use this program in any manner prohibited above.
 ---------------------------------------------------------------
  

 Cite this work as:
 Gaussian 16, Revision A.03,
 M. J. Frisch, G. W. Trucks, H. B. Schlegel, G. E. Scuseria, 
 M. A. Robb, J. R. Cheeseman, G. Scalmani, V. Barone, 
 G. A. Petersson, H. Nakatsuji, X. Li, M. Caricato, A. V. Marenich, 
 J. Bloino, B. G. Janesko, R. Gomperts, B. Mennucci, H. P. Hratchian, 
 J. V. Ortiz, A. F. Izmaylov, J. L. Sonnenberg, D. Williams-Young, 
 F. Ding, F. Lipparini, F. Egidi, J. Goings, B. Peng, A. Petrone, 
 T. Henderson, D. Ranasinghe, V. G. Zakrzewski, J. Gao, N. Rega, 
 G. Zheng, W. Liang, M. Hada, M. Ehara, K. Toyota, R. Fukuda, 
 J. Hasegawa, M. Ishida, T. Nakajima, Y. Honda, O. Kitao, H. Nakai, 
 T. Vreven, K. Throssell, J. A. Montgomery, Jr., J. E. Peralta, 
 F. Ogliaro, M. J. Bearpark, J. J. Heyd, E. N. Brothers, K. N. Kudin, 
 V. N. Staroverov, T. A. Keith, R. Kobayashi, J. Normand, 
 K. Raghavachari, A. P. Rendell, J. C. Burant, S. S. Iyengar, 
 J. Tomasi, M. Cossi, J. M. Millam, M. Klene, C. Adamo, R. Cammi, 
 J. W. Ochterski, R. L. Martin, K. Morokuma, O. Farkas, 
 J. B. Foresman, and D. J. Fox, Gaussian, Inc., Wallingford CT, 2016.
 
 ******************************************
 Gaussian 16:  EM64L-G16RevA.03 25-Dec-2016
                25-Jan-2018 
 ******************************************
 %nprocshared=32
 Will use up to   32 processors via shared memory.
 %mem=32GB
 %chk=allatoms_t.chk
 ---------------------------------------
 #p wb97xd/cc-pvdz sp scf=(maxcycles=20)
 ---------------------------------------
 1/38=1,172=1/1;
 2/12=2,17=6,18=5,40=1/2;
 3/5=16,11=2,25=1,30=1,74=-58/1,2,3;
 4//1;
 5/5=2,7=20,38=5/2;
 6/7=2,8=2,9=2,10=2,28=1/1;
 99/5=1,9=1/99;
 Leave Link    1 at Thu Jan 25 00:08:37 2018, MaxMem=  4294967296 cpu:               2.7 elap:               0.1
 (Enter /share/apps/g16/l101.exe)
 ------------------
 Base pair stacking
 ------------------
 Symbolic Z-matrix:
 Charge =  0 Multiplicity = 1
 N                    -0.00392   9.83178  -6.47105 
 C                    -0.76823   11.09008  -6.57363 
 C                     0.55068   7.70548  -6.37851 
 N                     1.73354   8.42061  -6.25948 
 C                     1.35207   9.67301  -6.32 
 H                     2.02415   10.52947  -6.25909 
 N                    -1.01324   5.94594  -6.52372 
 C                    -1.95142   6.8913   -6.6407 
 H                    -2.97117   6.52379  -6.74702 
 N                    -1.81968   8.21626  -6.64603 
 C                    -0.52875   8.56172  -6.50964 
 C                     0.27608   6.32583  -6.38803 
 N                     1.21402   5.38362  -6.27112 
 H                     2.18113   5.61901  -6.1686 
 H                     0.98212   4.41087  -6.28203 
 H                    -0.45258   11.60961  -7.36775 
 H                    -1.74058   10.88282  -6.67715 
 H                    -0.6314    11.63406  -5.74576 
 N                    -0.8598    6.84339  -3.26456 
 C                    -1.2651    5.53046  -3.26328 
 C                    -1.7557    8.0133   -3.36129 
 N                    -3.80618   3.16691  -3.39872 
 H                    -3.88884   2.17088  -3.38065 
 H                    -4.65458   3.69127  -3.47605 
 N                    -2.53964   5.09208  -3.34948 
 C                    -2.61175   3.7731   -3.32272 
 N                    -1.52039   2.94498  -3.21948 
 H                    -1.67011   1.9478   -3.20649 
 C                    -0.19991   3.37409  -3.12957 
 O                     0.71272   2.54355  -3.03986 
 C                    -0.10647   4.78879  -3.15705 
 N                     1.00389   5.61939  -3.09292 
 C                     0.50966   6.8258   -3.16 
 H                     1.10153   7.74147  -3.13738 
 H                    -1.52529   8.54526  -4.17537 
 H                    -2.70256   7.70092  -3.42565 
 H                    -1.64899   8.58504  -2.54855 
 H                    -3.03218  -2.90952  -3.84208 
 H                    -2.89928  -2.95991  -2.08582 
 H                    -3.3963   -1.47039  -2.88935 
 H                     1.74259  -3.1988   -3.32784 
 C                     0.94747  -2.45759  -3.2464 
 O                     2.42166  -0.60005  -3.30466 
 C                     1.28526  -1.06708  -3.23206 
 H                     0.40393   0.77609  -3.11248 
 N                     0.20506  -0.21436  -3.12585 
 O                    -2.0071    0.26595  -2.94466 
 C                    -1.11915  -0.56347  -3.03565 
 H                    -0.64465  -3.87343  -3.16654 
 C                    -0.33514  -2.82916  -3.16 
 C                    -2.76496  -2.34345  -2.96218 
 N                    -1.36438  -1.92238  -3.05609 
 H                    -3.44803  -1.58001  -6.86174 
 H                    -3.64233  -0.27557  -5.90113 
 H                    -3.29104  -1.72778  -5.24405 
 H                     2.9482    2.14252  -6.31721 
 H                     2.87762   0.44449  -6.46493 
 N                     2.39313   1.31092  -6.33931 
 C                     1.06578   1.35434  -6.20724 
 C                    -1.11883   0.4198   -6.08142 
 N                    -1.74265   1.59762  -5.91402 
 H                    -1.28499   3.59069  -5.77681 
 C                    -0.86153   2.59587  -5.90822 
 N                     0.46829   2.55443  -6.04035 
 H                    -0.8262   -2.78399  -6.40123 
 C                    -0.65532  -1.71014  -6.32 
 N                     0.52125  -1.13604  -6.38132 
 C                     0.24165   0.21454  -6.23142 
 C                    -3.13367  -1.12667  -6.02768 
 N                    -1.69272  -0.8281   -6.1396 
 
 ITRead=  0  0  0  0  0  0  0  0  0  0  0  0  0  0  0  0  0  0  0  0
 ITRead=  0  0  0  0  0  0  0  0  0  0  0  0  0  0  0  0  0  0  0  0
 ITRead=  0  0  0  0  0  0  0  0  0  0  0  0  0  0  0  0  0  0  0  0
 ITRead=  0  0  0  0  0  0  0  0  0  0
 MicOpt= -1 -1 -1 -1 -1 -1 -1 -1 -1 -1 -1 -1 -1 -1 -1 -1 -1 -1 -1 -1
 MicOpt= -1 -1 -1 -1 -1 -1 -1 -1 -1 -1 -1 -1 -1 -1 -1 -1 -1 -1 -1 -1
 MicOpt= -1 -1 -1 -1 -1 -1 -1 -1 -1 -1 -1 -1 -1 -1 -1 -1 -1 -1 -1 -1
 MicOpt= -1 -1 -1 -1 -1 -1 -1 -1 -1 -1
 NAtoms=     70 NQM=       70 NQMF=       0 NMMI=      0 NMMIF=      0
                NMic=       0 NMicF=      0.
                    Isotopes and Nuclear Properties:
 (Nuclear quadrupole moments (NQMom) in fm**2, nuclear magnetic moments (NMagM)
  in nuclear magnetons)

  Atom         1           2           3           4           5           6           7           8           9          10
 IAtWgt=          14          12          12          14          12           1          14          12           1          14
 AtmWgt=  14.0030740  12.0000000  12.0000000  14.0030740  12.0000000   1.0078250  14.0030740  12.0000000   1.0078250  14.0030740
 NucSpn=           2           0           0           2           0           1           2           0           1           2
 AtZEff=  -0.0000000  -0.0000000  -0.0000000  -0.0000000  -0.0000000  -0.0000000  -0.0000000  -0.0000000  -0.0000000  -0.0000000
 NQMom=    2.0440000   0.0000000   0.0000000   2.0440000   0.0000000   0.0000000   2.0440000   0.0000000   0.0000000   2.0440000
 NMagM=    0.4037610   0.0000000   0.0000000   0.4037610   0.0000000   2.7928460   0.4037610   0.0000000   2.7928460   0.4037610
 AtZNuc=   7.0000000   6.0000000   6.0000000   7.0000000   6.0000000   1.0000000   7.0000000   6.0000000   1.0000000   7.0000000

  Atom        11          12          13          14          15          16          17          18          19          20
 IAtWgt=          12          12          14           1           1           1           1           1          14          12
 AtmWgt=  12.0000000  12.0000000  14.0030740   1.0078250   1.0078250   1.0078250   1.0078250   1.0078250  14.0030740  12.0000000
 NucSpn=           0           0           2           1           1           1           1           1           2           0
 AtZEff=  -0.0000000  -0.0000000  -0.0000000  -0.0000000  -0.0000000  -0.0000000  -0.0000000  -0.0000000  -0.0000000  -0.0000000
 NQMom=    0.0000000   0.0000000   2.0440000   0.0000000   0.0000000   0.0000000   0.0000000   0.0000000   2.0440000   0.0000000
 NMagM=    0.0000000   0.0000000   0.4037610   2.7928460   2.7928460   2.7928460   2.7928460   2.7928460   0.4037610   0.0000000
 AtZNuc=   6.0000000   6.0000000   7.0000000   1.0000000   1.0000000   1.0000000   1.0000000   1.0000000   7.0000000   6.0000000

  Atom        21          22          23          24          25          26          27          28          29          30
 IAtWgt=          12          14           1           1          14          12          14           1          12          16
 AtmWgt=  12.0000000  14.0030740   1.0078250   1.0078250  14.0030740  12.0000000  14.0030740   1.0078250  12.0000000  15.9949146
 NucSpn=           0           2           1           1           2           0           2           1           0           0
 AtZEff=  -0.0000000  -0.0000000  -0.0000000  -0.0000000  -0.0000000  -0.0000000  -0.0000000  -0.0000000  -0.0000000  -0.0000000
 NQMom=    0.0000000   2.0440000   0.0000000   0.0000000   2.0440000   0.0000000   2.0440000   0.0000000   0.0000000   0.0000000
 NMagM=    0.0000000   0.4037610   2.7928460   2.7928460   0.4037610   0.0000000   0.4037610   2.7928460   0.0000000   0.0000000
 AtZNuc=   6.0000000   7.0000000   1.0000000   1.0000000   7.0000000   6.0000000   7.0000000   1.0000000   6.0000000   8.0000000

  Atom        31          32          33          34          35          36          37          38          39          40
 IAtWgt=          12          14          12           1           1           1           1           1           1           1
 AtmWgt=  12.0000000  14.0030740  12.0000000   1.0078250   1.0078250   1.0078250   1.0078250   1.0078250   1.0078250   1.0078250
 NucSpn=           0           2           0           1           1           1           1           1           1           1
 AtZEff=  -0.0000000  -0.0000000  -0.0000000  -0.0000000  -0.0000000  -0.0000000  -0.0000000  -0.0000000  -0.0000000  -0.0000000
 NQMom=    0.0000000   2.0440000   0.0000000   0.0000000   0.0000000   0.0000000   0.0000000   0.0000000   0.0000000   0.0000000
 NMagM=    0.0000000   0.4037610   0.0000000   2.7928460   2.7928460   2.7928460   2.7928460   2.7928460   2.7928460   2.7928460
 AtZNuc=   6.0000000   7.0000000   6.0000000   1.0000000   1.0000000   1.0000000   1.0000000   1.0000000   1.0000000   1.0000000

  Atom        41          42          43          44          45          46          47          48          49          50
 IAtWgt=           1          12          16          12           1          14          16          12           1          12
 AtmWgt=   1.0078250  12.0000000  15.9949146  12.0000000   1.0078250  14.0030740  15.9949146  12.0000000   1.0078250  12.0000000
 NucSpn=           1           0           0           0           1           2           0           0           1           0
 AtZEff=  -0.0000000  -0.0000000  -0.0000000  -0.0000000  -0.0000000  -0.0000000  -0.0000000  -0.0000000  -0.0000000  -0.0000000
 NQMom=    0.0000000   0.0000000   0.0000000   0.0000000   0.0000000   2.0440000   0.0000000   0.0000000   0.0000000   0.0000000
 NMagM=    2.7928460   0.0000000   0.0000000   0.0000000   2.7928460   0.4037610   0.0000000   0.0000000   2.7928460   0.0000000
 AtZNuc=   1.0000000   6.0000000   8.0000000   6.0000000   1.0000000   7.0000000   8.0000000   6.0000000   1.0000000   6.0000000

  Atom        51          52          53          54          55          56          57          58          59          60
 IAtWgt=          12          14           1           1           1           1           1          14          12          12
 AtmWgt=  12.0000000  14.0030740   1.0078250   1.0078250   1.0078250   1.0078250   1.0078250  14.0030740  12.0000000  12.0000000
 NucSpn=           0           2           1           1           1           1           1           2           0           0
 AtZEff=  -0.0000000  -0.0000000  -0.0000000  -0.0000000  -0.0000000  -0.0000000  -0.0000000  -0.0000000  -0.0000000  -0.0000000
 NQMom=    0.0000000   2.0440000   0.0000000   0.0000000   0.0000000   0.0000000   0.0000000   2.0440000   0.0000000   0.0000000
 NMagM=    0.0000000   0.4037610   2.7928460   2.7928460   2.7928460   2.7928460   2.7928460   0.4037610   0.0000000   0.0000000
 AtZNuc=   6.0000000   7.0000000   1.0000000   1.0000000   1.0000000   1.0000000   1.0000000   7.0000000   6.0000000   6.0000000

  Atom        61          62          63          64          65          66          67          68          69          70
 IAtWgt=          14           1          12          14           1          12          14          12          12          14
 AtmWgt=  14.0030740   1.0078250  12.0000000  14.0030740   1.0078250  12.0000000  14.0030740  12.0000000  12.0000000  14.0030740
 NucSpn=           2           1           0           2           1           0           2           0           0           2
 AtZEff=  -0.0000000  -0.0000000  -0.0000000  -0.0000000  -0.0000000  -0.0000000  -0.0000000  -0.0000000  -0.0000000  -0.0000000
 NQMom=    2.0440000   0.0000000   0.0000000   2.0440000   0.0000000   0.0000000   2.0440000   0.0000000   0.0000000   2.0440000
 NMagM=    0.4037610   2.7928460   0.0000000   0.4037610   2.7928460   0.0000000   0.4037610   0.0000000   0.0000000   0.4037610
 AtZNuc=   7.0000000   1.0000000   6.0000000   7.0000000   1.0000000   6.0000000   7.0000000   6.0000000   6.0000000   7.0000000
 Leave Link  101 at Thu Jan 25 00:08:37 2018, MaxMem=  4294967296 cpu:               6.6 elap:               0.2
 (Enter /share/apps/g16/l202.exe)
 Stoichiometry    C23H27N17O3
 Framework group  C1[X(C23H27N17O3)]
 Deg. of freedom   204
 Full point group                 C1      NOp   1
 Largest Abelian subgroup         C1      NOp   1
 Largest concise Abelian subgroup C1      NOp   1
                         Standard orientation:                         
 ---------------------------------------------------------------------
 Center     Atomic      Atomic             Coordinates (Angstroms)
 Number     Number       Type             X           Y           Z
 ---------------------------------------------------------------------
      1          7           0       -6.792674   -0.642004    0.441514
      2          6           0       -8.024474    0.069110    0.835211
      3          6           0       -4.696703   -1.283886    0.262103
      4          7           0       -5.428485   -2.108164   -0.580392
      5          6           0       -6.661947   -1.688463   -0.438580
      6          1           0       -7.523750   -2.110101   -0.956694
      7          7           0       -2.922591   -0.278518    1.447292
      8          6           0       -3.840905    0.532193    1.983034
      9          1           0       -3.456759    1.268650    2.687534
     10          7           0       -5.156327    0.569597    1.780133
     11          6           0       -5.523941   -0.375128    0.898770
     12          6           0       -3.324290   -1.218452    0.563983
     13          7           0       -2.409092   -2.028652    0.028121
     14          1           0       -2.661294   -2.738833   -0.630102
     15          1           0       -1.440694   -1.953433    0.266210
     16          1           0       -8.665127   -0.576378    1.251240
     17          1           0       -7.800042    0.786187    1.494429
     18          1           0       -8.446472    0.481253    0.027707
     19          7           0       -3.340199    1.520793   -1.388051
     20          6           0       -2.027524    1.707055   -1.027154
     21          6           0       -4.479073    2.333305   -0.915320
     22          7           0        0.379964    3.452395    0.767167
     23          1           0        1.370291    3.418707    0.898895
     24          1           0       -0.119533    4.164398    1.261404
     25          7           0       -1.561308    2.656005   -0.186801
     26          6           0       -0.250797    2.582315   -0.035956
     27          7           0        0.544149    1.651300   -0.659478
     28          1           0        1.537260    1.669693   -0.485277
     29          6           0        0.086004    0.665672   -1.528113
     30          8           0        0.887733   -0.126457   -2.038506
     31          6           0       -1.320007    0.732179   -1.700074
     32          7           0       -2.171375   -0.050369   -2.467993
     33          6           0       -3.356310    0.453076   -2.251985
     34          1           0       -4.279380    0.082489   -2.699065
     35          1           0       -5.131892    1.748015   -0.435675
     36          1           0       -4.145910    3.039594   -0.292082
     37          1           0       -4.929650    2.764816   -1.696088
     38          1           0        6.295396    1.887510    1.293898
     39          1           0        6.596523    2.756010   -0.209325
     40          1           0        5.024419    2.881178    0.580726
     41          1           0        6.486413   -1.776959   -1.817650
     42          6           0        5.793771   -0.995497   -1.504910
     43          8           0        3.896300   -2.030128   -2.482779
     44          6           0        4.409075   -1.108892   -1.847815
     45          1           0        2.635582   -0.111759   -1.626987
     46          7           0        3.619945   -0.067019   -1.403948
     47          8           0        3.250230    1.904385   -0.339026
     48          6           0        4.025386    1.031476   -0.688077
     49          1           0        7.261891    0.197563   -0.521519
     50          6           0        6.219383    0.064201   -0.807406
     51          6           0        5.854502    2.224213    0.367448
     52          7           0        5.374656    1.069010   -0.396095
     53          1           0        4.555519    0.687383    3.861270
     54          1           0        3.412811    1.530945    3.058332
     55          1           0        4.931864    1.447609    2.467060
     56          1           0        0.726858   -3.841527   -0.599203
     57          1           0        2.386635   -4.056654   -0.269100
     58          7           0        1.565576   -3.491437   -0.181905
     59          6           0        1.589148   -2.322915    0.462445
     60          6           0        2.609209   -0.563749    1.697973
     61          7           0        1.491336    0.174155    1.799425
     62          1           0       -0.475451    0.098694    1.227880
     63          6           0        0.473873   -0.434055    1.192994
     64          7           0        0.448246   -1.604416    0.547088
     65          1           0        5.719678   -1.342218    2.111675
     66          6           0        4.663748   -1.316637    1.840915
     67          7           0        4.045330   -2.252532    1.163178
     68          6           0        2.741850   -1.787651    1.065513
     69          6           0        4.217718    0.947083    2.956593
     70          7           0        3.854922   -0.265079    2.196954
 ---------------------------------------------------------------------
 Rotational constants (GHZ):           0.1902001           0.0490506           0.0471916
 Leave Link  202 at Thu Jan 25 00:08:37 2018, MaxMem=  4294967296 cpu:               0.3 elap:               0.0
 (Enter /share/apps/g16/l301.exe)
 Standard basis: CC-pVDZ (5D, 7F)
 Ernie: Thresh=  0.10000D-02 Tol=  0.10000D-05 Strict=F.
 Ernie:  86 primitive shells out of 1081 were deleted.
 There are   780 symmetry adapted cartesian basis functions of A   symmetry.
 There are   737 symmetry adapted basis functions of A   symmetry.
   737 basis functions,  1608 primitive gaussians,   780 cartesian basis functions
   154 alpha electrons      154 beta electrons
       nuclear repulsion energy      5562.5589775050 Hartrees.
 IExCor= 4639 DFT=T Ex+Corr=wB97XD ExCW=0 ScaHFX=  1.000000
 ScaDFX=  1.000000  1.000000  1.000000  1.000000 ScalE2=  1.000000  1.000000
 IRadAn=      5 IRanWt=     -1 IRanGd=            0 ICorTp=0 IEmpDi=121
 HFx  wShort=  0.000000 wLong=  0.200000 cFull=  0.222036 cShort=  0.000000 cLong=  0.777964
 DFx  wShort=  0.000000 wLong=  0.200000 cFull=  0.000000 cShort=  0.000000 cLong=  1.000000
 NAtoms=   70 NActive=   70 NUniq=   70 SFac= 1.00D+00 NAtFMM=   60 NAOKFM=T Big=T
 Integral buffers will be    131072 words long.
 Raffenetti 2 integral format.
 Two-electron integral symmetry is turned on.
 R6Disp:  Grimme-D2 Dispersion energy=       -0.0778778292 Hartrees.
 Nuclear repulsion after empirical dispersion term =     5562.4810996759 Hartrees.
 Leave Link  301 at Thu Jan 25 00:08:37 2018, MaxMem=  4294967296 cpu:               2.1 elap:               0.1
 (Enter /share/apps/g16/l302.exe)
 NPDir=0 NMtPBC=     1 NCelOv=     1 NCel=       1 NClECP=     1 NCelD=      1
         NCelK=      1 NCelE2=     1 NClLst=     1 CellRange=     0.0.
 One-electron integrals computed using PRISM.
 One-electron integral symmetry used in STVInt
 NBasis=   737 RedAO= T EigKep=  6.77D-04  NBF=   737
 NBsUse=   737 1.00D-06 EigRej= -1.00D+00 NBFU=   737
 Precomputing XC quadrature grid using
 IXCGrd= 4 IRadAn=           5 IRanWt=          -1 IRanGd=           0 AccXCQ= 0.00D+00.
 Generated NRdTot=       0 NPtTot=           0 NUsed=           0 NTot=          32
 NSgBfM=   758   757   757   757   758 MxSgAt=    70 MxSgA2=    70.
 Leave Link  302 at Thu Jan 25 00:08:41 2018, MaxMem=  4294967296 cpu:             134.8 elap:               4.2
 (Enter /share/apps/g16/l303.exe)
 DipDrv:  MaxL=1.
 Leave Link  303 at Thu Jan 25 00:08:42 2018, MaxMem=  4294967296 cpu:              12.5 elap:               0.4
 (Enter /share/apps/g16/l401.exe)
 ExpMin= 1.22D-01 ExpMax= 1.17D+04 ExpMxC= 4.01D+02 IAcc=3 IRadAn=         5 AccDes= 0.00D+00
 Harris functional with IExCor= 4639 and IRadAn=       5 diagonalized for initial guess.
 HarFok:  IExCor= 4639 AccDes= 0.00D+00 IRadAn=         5 IDoV= 1 UseB2=F ITyADJ=14
 ICtDFT=  3500011 ScaDFX=  1.000000  1.000000  1.000000  1.000000
 FoFCou: FMM=F IPFlag=           0 FMFlag=      100000 FMFlg1=        2001
         NFxFlg=           0 DoJE=T BraDBF=F KetDBF=T FulRan=T
         wScrn=  0.000000 ICntrl=       500 IOpCl=  0 I1Cent=   200000004 NGrid=           0
         NMat0=    1 NMatS0=      1 NMatT0=    0 NMatD0=    1 NMtDS0=    0 NMtDT0=    0
 Petite list used in FoFCou.
 Harris En= -1963.88256534267    
 JPrj=0 DoOrth=F DoCkMO=F.
 Leave Link  401 at Thu Jan 25 00:08:55 2018, MaxMem=  4294967296 cpu:             409.4 elap:              12.8
 (Enter /share/apps/g16/l502.exe)
 Integral symmetry usage will be decided dynamically.
 Closed shell SCF:
 Using DIIS extrapolation, IDIIS=  1040.
 NGot=  4294967296 LenX=  4293717438 LenY=  4293108258
 Requested convergence on RMS density matrix=1.00D-08 within  20 cycles.
 Requested convergence on MAX density matrix=1.00D-06.
 Requested convergence on             energy=1.00D-06.
 No special actions if energy rises.
 Fock matrices will be formed incrementally for  20 cycles.
 Integral accuracy reduced to 1.0D-05 until final iterations.

 Cycle   1  Pass 0  IDiag  1:
 FoFJK:  IHMeth= 1 ICntrl=       0 DoSepK=T KAlg= 0 I1Cent=           0 FoldK=F
 IRaf=         1 NMat=       1 IRICut=       1 DoRegI=T DoRafI=F ISym2E= 0 IDoP0=0 IntGTp=1.
 FoFCou: FMM=T IPFlag=           0 FMFlag=      100000 FMFlg1=        2001
         NFxFlg=           0 DoJE=T BraDBF=F KetDBF=F FulRan=T
         wScrn=  0.000000 ICntrl=       500 IOpCl=  0 I1Cent=           0 NGrid=           0
         NMat0=    1 NMatS0=      1 NMatT0=    0 NMatD0=    1 NMtDS0=    0 NMtDT0=    0
 Symmetry not used in FoFCou.
 FMM levels:  10  Number of levels for PrismC:   9
 E= -2048.30695387732    
 DIIS: error= 2.22D-02 at cycle   1 NSaved=   1.
 NSaved= 1 IEnMin= 1 EnMin= -2048.30695387732     IErMin= 1 ErrMin= 2.22D-02
 ErrMax= 2.22D-02  0.00D+00 EMaxC= 1.00D-01 BMatC= 8.41D-01 BMatP= 8.41D-01
 IDIUse=3 WtCom= 7.78D-01 WtEn= 2.22D-01
 Coeff-Com:  0.100D+01
 Coeff-En:   0.100D+01
 Coeff:      0.100D+01
 Gap=     0.246 Goal=   None    Shift=    0.000
 GapD=    0.246 DampG=1.000 DampE=0.500 DampFc=0.5000 IDamp=-1.
 Damping current iteration by 5.00D-01
 RMSDP=1.63D-03 MaxDP=1.21D-01              OVMax= 1.90D-01

 Cycle   2  Pass 0  IDiag  1:
 RMSU=  8.14D-04    CP:  9.97D-01
 E= -2048.50418707263     Delta-E=       -0.197233195306 Rises=F Damp=T
 DIIS: error= 1.10D-02 at cycle   2 NSaved=   2.
 NSaved= 2 IEnMin= 2 EnMin= -2048.50418707263     IErMin= 2 ErrMin= 1.10D-02
 ErrMax= 1.10D-02  0.00D+00 EMaxC= 1.00D-01 BMatC= 1.47D-01 BMatP= 8.41D-01
 IDIUse=3 WtCom= 8.90D-01 WtEn= 1.10D-01
 Coeff-Com: -0.175D+00 0.118D+01
 Coeff-En:   0.000D+00 0.100D+01
 Coeff:     -0.156D+00 0.116D+01
 Gap=     0.367 Goal=   None    Shift=    0.000
 RMSDP=6.09D-04 MaxDP=3.44D-02 DE=-1.97D-01 OVMax= 1.67D-01

 Cycle   3  Pass 0  IDiag  1:
 RMSU=  6.02D-04    CP:  9.94D-01  1.09D+00
 E= -2048.68429223240     Delta-E=       -0.180105159771 Rises=F Damp=F
 DIIS: error= 1.01D-02 at cycle   3 NSaved=   3.
 NSaved= 3 IEnMin= 3 EnMin= -2048.68429223240     IErMin= 3 ErrMin= 1.01D-02
 ErrMax= 1.01D-02  0.00D+00 EMaxC= 1.00D-01 BMatC= 7.14D-02 BMatP= 1.47D-01
 IDIUse=3 WtCom= 8.99D-01 WtEn= 1.01D-01
 Coeff-Com: -0.231D+00 0.558D+00 0.673D+00
 Coeff-En:   0.000D+00 0.000D+00 0.100D+01
 Coeff:     -0.208D+00 0.502D+00 0.706D+00
 Gap=     0.274 Goal=   None    Shift=    0.000
 RMSDP=3.98D-04 MaxDP=3.18D-02 DE=-1.80D-01 OVMax= 8.12D-02

 Cycle   4  Pass 0  IDiag  1:
 RMSU=  2.17D-04    CP:  9.94D-01  1.41D+00  6.40D-01
 E= -2048.73738067284     Delta-E=       -0.053088440438 Rises=F Damp=F
 DIIS: error= 4.17D-03 at cycle   4 NSaved=   4.
 NSaved= 4 IEnMin= 4 EnMin= -2048.73738067284     IErMin= 4 ErrMin= 4.17D-03
 ErrMax= 4.17D-03  0.00D+00 EMaxC= 1.00D-01 BMatC= 1.18D-02 BMatP= 7.14D-02
 IDIUse=3 WtCom= 9.58D-01 WtEn= 4.17D-02
 Coeff-Com: -0.930D-01 0.180D+00 0.385D+00 0.528D+00
 Coeff-En:   0.000D+00 0.000D+00 0.103D+00 0.897D+00
 Coeff:     -0.891D-01 0.173D+00 0.374D+00 0.543D+00
 Gap=     0.281 Goal=   None    Shift=    0.000
 RMSDP=1.44D-04 MaxDP=1.33D-02 DE=-5.31D-02 OVMax= 1.86D-02

 Cycle   5  Pass 0  IDiag  1:
 RMSU=  6.31D-05    CP:  9.93D-01  1.36D+00  7.93D-01  6.09D-01
 E= -2048.74718280914     Delta-E=       -0.009802136298 Rises=F Damp=F
 DIIS: error= 6.24D-04 at cycle   5 NSaved=   5.
 NSaved= 5 IEnMin= 5 EnMin= -2048.74718280914     IErMin= 5 ErrMin= 6.24D-04
 ErrMax= 6.24D-04  0.00D+00 EMaxC= 1.00D-01 BMatC= 3.39D-04 BMatP= 1.18D-02
 IDIUse=3 WtCom= 9.94D-01 WtEn= 6.24D-03
 Coeff-Com: -0.232D-01 0.391D-01 0.123D+00 0.241D+00 0.620D+00
 Coeff-En:   0.000D+00 0.000D+00 0.000D+00 0.000D+00 0.100D+01
 Coeff:     -0.231D-01 0.388D-01 0.122D+00 0.240D+00 0.622D+00
 Gap=     0.281 Goal=   None    Shift=    0.000
 RMSDP=2.77D-05 MaxDP=2.30D-03 DE=-9.80D-03 OVMax= 3.96D-03

 Failed to achieve initial convergence to 1.0D-08 in  6 cycles.
 Switch to full accuracy anyway.
 Cycle   6  Pass 1  IDiag  1:
 E= -2048.74746386953     Delta-E=       -0.000281060395 Rises=F Damp=F
 DIIS: error= 2.19D-04 at cycle   1 NSaved=   1.
 NSaved= 1 IEnMin= 1 EnMin= -2048.74746386953     IErMin= 1 ErrMin= 2.19D-04
 ErrMax= 2.19D-04  0.00D+00 EMaxC= 1.00D-01 BMatC= 7.99D-05 BMatP= 7.99D-05
 IDIUse=3 WtCom= 9.98D-01 WtEn= 2.19D-03
 Coeff-Com:  0.100D+01
 Coeff-En:   0.100D+01
 Coeff:      0.100D+01
 Gap=     0.281 Goal=   None    Shift=    0.000
 RMSDP=2.77D-05 MaxDP=2.30D-03 DE=-2.81D-04 OVMax= 2.06D-03

 Cycle   7  Pass 1  IDiag  1:
 RMSU=  1.17D-04    CP:  1.00D+00
 E= -2048.74752003926     Delta-E=       -0.000056169728 Rises=F Damp=F
 DIIS: error= 3.24D-04 at cycle   2 NSaved=   2.
 NSaved= 2 IEnMin= 2 EnMin= -2048.74752003926     IErMin= 1 ErrMin= 2.19D-04
 ErrMax= 3.24D-04  0.00D+00 EMaxC= 1.00D-01 BMatC= 4.89D-05 BMatP= 7.99D-05
 IDIUse=3 WtCom= 9.97D-01 WtEn= 3.24D-03
 Coeff-Com:  0.418D+00 0.582D+00
 Coeff-En:   0.000D+00 0.100D+01
 Coeff:      0.417D+00 0.583D+00
 Gap=     0.281 Goal=   None    Shift=    0.000
 RMSDP=1.19D-05 MaxDP=1.36D-03 DE=-5.62D-05 OVMax= 1.46D-03

 Cycle   8  Pass 1  IDiag  1:
 RMSU=  1.16D-05    CP:  1.00D+00  1.02D+00
 E= -2048.74755478737     Delta-E=       -0.000034748109 Rises=F Damp=F
 DIIS: error= 1.47D-04 at cycle   3 NSaved=   3.
 NSaved= 3 IEnMin= 3 EnMin= -2048.74755478737     IErMin= 3 ErrMin= 1.47D-04
 ErrMax= 1.47D-04  0.00D+00 EMaxC= 1.00D-01 BMatC= 1.10D-05 BMatP= 4.89D-05
 IDIUse=3 WtCom= 9.99D-01 WtEn= 1.47D-03
 Coeff-Com: -0.179D-01 0.308D+00 0.710D+00
 Coeff-En:   0.000D+00 0.128D+00 0.872D+00
 Coeff:     -0.179D-01 0.308D+00 0.710D+00
 Gap=     0.282 Goal=   None    Shift=    0.000
 RMSDP=5.88D-06 MaxDP=5.25D-04 DE=-3.47D-05 OVMax= 5.91D-04

 Cycle   9  Pass 1  IDiag  1:
 RMSU=  3.97D-06    CP:  1.00D+00  1.05D+00  7.63D-01
 E= -2048.74756471115     Delta-E=       -0.000009923777 Rises=F Damp=F
 DIIS: error= 3.54D-05 at cycle   4 NSaved=   4.
 NSaved= 4 IEnMin= 4 EnMin= -2048.74756471115     IErMin= 4 ErrMin= 3.54D-05
 ErrMax= 3.54D-05  0.00D+00 EMaxC= 1.00D-01 BMatC= 5.48D-07 BMatP= 1.10D-05
 IDIUse=1 WtCom= 1.00D+00 WtEn= 0.00D+00
 Coeff-Com: -0.309D-01 0.870D-01 0.266D+00 0.677D+00
 Coeff:     -0.309D-01 0.870D-01 0.266D+00 0.677D+00
 Gap=     0.281 Goal=   None    Shift=    0.000
 RMSDP=1.49D-06 MaxDP=1.23D-04 DE=-9.92D-06 OVMax= 4.32D-04

 Cycle  10  Pass 1  IDiag  1:
 RMSU=  1.34D-06    CP:  1.00D+00  1.06D+00  7.95D-01  1.10D+00
 E= -2048.74756559217     Delta-E=       -0.000000881025 Rises=F Damp=F
 DIIS: error= 1.24D-05 at cycle   5 NSaved=   5.
 NSaved= 5 IEnMin= 5 EnMin= -2048.74756559217     IErMin= 5 ErrMin= 1.24D-05
 ErrMax= 1.24D-05  0.00D+00 EMaxC= 1.00D-01 BMatC= 1.28D-07 BMatP= 5.48D-07
 IDIUse=1 WtCom= 1.00D+00 WtEn= 0.00D+00
 Coeff-Com: -0.394D-02-0.504D-01-0.111D+00 0.209D+00 0.957D+00
 Coeff:     -0.394D-02-0.504D-01-0.111D+00 0.209D+00 0.957D+00
 Gap=     0.281 Goal=   None    Shift=    0.000
 RMSDP=1.22D-06 MaxDP=6.75D-05 DE=-8.81D-07 OVMax= 2.10D-04

 Cycle  11  Pass 1  IDiag  1:
 RMSU=  5.05D-07    CP:  1.00D+00  1.06D+00  8.02D-01  1.37D+00  1.16D+00
 E= -2048.74756585865     Delta-E=       -0.000000266483 Rises=F Damp=F
 DIIS: error= 7.54D-06 at cycle   6 NSaved=   6.
 NSaved= 6 IEnMin= 6 EnMin= -2048.74756585865     IErMin= 6 ErrMin= 7.54D-06
 ErrMax= 7.54D-06  0.00D+00 EMaxC= 1.00D-01 BMatC= 3.16D-08 BMatP= 1.28D-07
 IDIUse=1 WtCom= 1.00D+00 WtEn= 0.00D+00
 Coeff-Com:  0.463D-02-0.441D-01-0.116D+00-0.580D-02 0.517D+00 0.644D+00
 Coeff:      0.463D-02-0.441D-01-0.116D+00-0.580D-02 0.517D+00 0.644D+00
 Gap=     0.281 Goal=   None    Shift=    0.000
 RMSDP=4.01D-07 MaxDP=3.00D-05 DE=-2.66D-07 OVMax= 1.11D-04

 Cycle  12  Pass 1  IDiag  1:
 RMSU=  1.95D-07    CP:  1.00D+00  1.06D+00  8.03D-01  1.44D+00  1.30D+00
                    CP:  9.38D-01
 E= -2048.74756590444     Delta-E=       -0.000000045789 Rises=F Damp=F
 DIIS: error= 1.31D-06 at cycle   7 NSaved=   7.
 NSaved= 7 IEnMin= 7 EnMin= -2048.74756590444     IErMin= 7 ErrMin= 1.31D-06
 ErrMax= 1.31D-06  0.00D+00 EMaxC= 1.00D-01 BMatC= 9.30D-10 BMatP= 3.16D-08
 IDIUse=1 WtCom= 1.00D+00 WtEn= 0.00D+00
 Coeff-Com:  0.129D-02-0.893D-02-0.252D-01-0.911D-02 0.767D-01 0.162D+00
 Coeff-Com:  0.803D+00
 Coeff:      0.129D-02-0.893D-02-0.252D-01-0.911D-02 0.767D-01 0.162D+00
 Coeff:      0.803D+00
 Gap=     0.281 Goal=   None    Shift=    0.000
 RMSDP=8.57D-08 MaxDP=4.01D-06 DE=-4.58D-08 OVMax= 1.95D-05

 Cycle  13  Pass 1  IDiag  1:
 RMSU=  5.27D-08    CP:  1.00D+00  1.06D+00  8.03D-01  1.45D+00  1.32D+00
                    CP:  1.02D+00  1.12D+00
 E= -2048.74756590639     Delta-E=       -0.000000001945 Rises=F Damp=F
 DIIS: error= 5.65D-07 at cycle   8 NSaved=   8.
 NSaved= 8 IEnMin= 8 EnMin= -2048.74756590639     IErMin= 8 ErrMin= 5.65D-07
 ErrMax= 5.65D-07  0.00D+00 EMaxC= 1.00D-01 BMatC= 3.39D-10 BMatP= 9.30D-10
 IDIUse=1 WtCom= 1.00D+00 WtEn= 0.00D+00
 Coeff-Com: -0.690D-03 0.832D-02 0.205D-01-0.545D-03-0.109D+00-0.101D+00
 Coeff-Com:  0.388D+00 0.795D+00
 Coeff:     -0.690D-03 0.832D-02 0.205D-01-0.545D-03-0.109D+00-0.101D+00
 Coeff:      0.388D+00 0.795D+00
 Gap=     0.281 Goal=   None    Shift=    0.000
 RMSDP=5.04D-08 MaxDP=2.47D-06 DE=-1.95D-09 OVMax= 9.93D-06

 Cycle  14  Pass 1  IDiag  1:
 RMSU=  2.85D-08    CP:  1.00D+00  1.06D+00  8.02D-01  1.46D+00  1.32D+00
                    CP:  1.06D+00  1.27D+00  1.07D+00
 E= -2048.74756590679     Delta-E=       -0.000000000401 Rises=F Damp=F
 DIIS: error= 1.71D-07 at cycle   9 NSaved=   9.
 NSaved= 9 IEnMin= 9 EnMin= -2048.74756590679     IErMin= 9 ErrMin= 1.71D-07
 ErrMax= 1.71D-07  0.00D+00 EMaxC= 1.00D-01 BMatC= 2.84D-11 BMatP= 3.39D-10
 IDIUse=1 WtCom= 1.00D+00 WtEn= 0.00D+00
 Coeff-Com: -0.410D-03 0.429D-02 0.109D-01 0.856D-03-0.513D-01-0.575D-01
 Coeff-Com:  0.759D-01 0.301D+00 0.716D+00
 Coeff:     -0.410D-03 0.429D-02 0.109D-01 0.856D-03-0.513D-01-0.575D-01
 Coeff:      0.759D-01 0.301D+00 0.716D+00
 Gap=     0.281 Goal=   None    Shift=    0.000
 RMSDP=1.34D-08 MaxDP=6.23D-07 DE=-4.01D-10 OVMax= 2.79D-06

 Cycle  15  Pass 1  IDiag  1:
 RMSU=  9.38D-09    CP:  1.00D+00  1.06D+00  8.02D-01  1.46D+00  1.32D+00
                    CP:  1.07D+00  1.30D+00  1.19D+00  1.11D+00
 E= -2048.74756590707     Delta-E=       -0.000000000285 Rises=F Damp=F
 DIIS: error= 6.09D-08 at cycle  10 NSaved=  10.
 NSaved=10 IEnMin=10 EnMin= -2048.74756590707     IErMin=10 ErrMin= 6.09D-08
 ErrMax= 6.09D-08  0.00D+00 EMaxC= 1.00D-01 BMatC= 4.39D-12 BMatP= 2.84D-11
 IDIUse=1 WtCom= 1.00D+00 WtEn= 0.00D+00
 Coeff-Com:  0.115D-04-0.354D-03-0.768D-03 0.104D-03 0.603D-02 0.218D-02
 Coeff-Com: -0.497D-01-0.701D-01 0.235D+00 0.877D+00
 Coeff:      0.115D-04-0.354D-03-0.768D-03 0.104D-03 0.603D-02 0.218D-02
 Coeff:     -0.497D-01-0.701D-01 0.235D+00 0.877D+00
 Gap=     0.281 Goal=   None    Shift=    0.000
 RMSDP=6.62D-09 MaxDP=3.21D-07 DE=-2.85D-10 OVMax= 1.23D-06

 SCF Done:  E(RwB97XD) =  -2048.74756591     A.U. after   15 cycles
            NFock= 15  Conv=0.66D-08     -V/T= 2.0054
 KE= 2.037792229053D+03 PE=-1.590575557880D+04 EE= 6.256734684161D+03
 Leave Link  502 at Thu Jan 25 00:20:49 2018, MaxMem=  4294967296 cpu:           22120.8 elap:             714.3
 (Enter /share/apps/g16/l601.exe)
 Copying SCF densities to generalized density rwf, IOpCl= 0 IROHF=0.

 **********************************************************************

            Population analysis using the SCF density.

 **********************************************************************

 Orbital symmetries:
       Occupied  (A) (A) (A) (A) (A) (A) (A) (A) (A) (A) (A) (A)
                 (A) (A) (A) (A) (A) (A) (A) (A) (A) (A) (A) (A)
                 (A) (A) (A) (A) (A) (A) (A) (A) (A) (A) (A) (A)
                 (A) (A) (A) (A) (A) (A) (A) (A) (A) (A) (A) (A)
                 (A) (A) (A) (A) (A) (A) (A) (A) (A) (A) (A) (A)
                 (A) (A) (A) (A) (A) (A) (A) (A) (A) (A) (A) (A)
                 (A) (A) (A) (A) (A) (A) (A) (A) (A) (A) (A) (A)
                 (A) (A) (A) (A) (A) (A) (A) (A) (A) (A) (A) (A)
                 (A) (A) (A) (A) (A) (A) (A) (A) (A) (A) (A) (A)
                 (A) (A) (A) (A) (A) (A) (A) (A) (A) (A) (A) (A)
                 (A) (A) (A) (A) (A) (A) (A) (A) (A) (A) (A) (A)
                 (A) (A) (A) (A) (A) (A) (A) (A) (A) (A) (A) (A)
                 (A) (A) (A) (A) (A) (A) (A) (A) (A) (A)
       Virtual   (A) (A) (A) (A) (A) (A) (A) (A) (A) (A) (A) (A)
                 (A) (A) (A) (A) (A) (A) (A) (A) (A) (A) (A) (A)
                 (A) (A) (A) (A) (A) (A) (A) (A) (A) (A) (A) (A)
                 (A) (A) (A) (A) (A) (A) (A) (A) (A) (A) (A) (A)
                 (A) (A) (A) (A) (A) (A) (A) (A) (A) (A) (A) (A)
                 (A) (A) (A) (A) (A) (A) (A) (A) (A) (A) (A) (A)
                 (A) (A) (A) (A) (A) (A) (A) (A) (A) (A) (A) (A)
                 (A) (A) (A) (A) (A) (A) (A) (A) (A) (A) (A) (A)
                 (A) (A) (A) (A) (A) (A) (A) (A) (A) (A) (A) (A)
                 (A) (A) (A) (A) (A) (A) (A) (A) (A) (A) (A) (A)
                 (A) (A) (A) (A) (A) (A) (A) (A) (A) (A) (A) (A)
                 (A) (A) (A) (A) (A) (A) (A) (A) (A) (A) (A) (A)
                 (A) (A) (A) (A) (A) (A) (A) (A) (A) (A) (A) (A)
                 (A) (A) (A) (A) (A) (A) (A) (A) (A) (A) (A) (A)
                 (A) (A) (A) (A) (A) (A) (A) (A) (A) (A) (A) (A)
                 (A) (A) (A) (A) (A) (A) (A) (A) (A) (A) (A) (A)
                 (A) (A) (A) (A) (A) (A) (A) (A) (A) (A) (A) (A)
                 (A) (A) (A) (A) (A) (A) (A) (A) (A) (A) (A) (A)
                 (A) (A) (A) (A) (A) (A) (A) (A) (A) (A) (A) (A)
                 (A) (A) (A) (A) (A) (A) (A) (A) (A) (A) (A) (A)
                 (A) (A) (A) (A) (A) (A) (A) (A) (A) (A) (A) (A)
                 (A) (A) (A) (A) (A) (A) (A) (A) (A) (A) (A) (A)
                 (A) (A) (A) (A) (A) (A) (A) (A) (A) (A) (A) (A)
                 (A) (A) (A) (A) (A) (A) (A) (A) (A) (A) (A) (A)
                 (A) (A) (A) (A) (A) (A) (A) (A) (A) (A) (A) (A)
                 (A) (A) (A) (A) (A) (A) (A) (A) (A) (A) (A) (A)
                 (A) (A) (A) (A) (A) (A) (A) (A) (A) (A) (A) (A)
                 (A) (A) (A) (A) (A) (A) (A) (A) (A) (A) (A) (A)
                 (A) (A) (A) (A) (A) (A) (A) (A) (A) (A) (A) (A)
                 (A) (A) (A) (A) (A) (A) (A) (A) (A) (A) (A) (A)
                 (A) (A) (A) (A) (A) (A) (A) (A) (A) (A) (A) (A)
                 (A) (A) (A) (A) (A) (A) (A) (A) (A) (A) (A) (A)
                 (A) (A) (A) (A) (A) (A) (A) (A) (A) (A) (A) (A)
                 (A) (A) (A) (A) (A) (A) (A) (A) (A) (A) (A) (A)
                 (A) (A) (A) (A) (A) (A) (A) (A) (A) (A) (A) (A)
                 (A) (A) (A) (A) (A) (A) (A) (A) (A) (A) (A) (A)
                 (A) (A) (A) (A) (A) (A) (A) (A) (A) (A) (A) (A)
                 (A) (A) (A) (A) (A) (A) (A) (A) (A) (A) (A) (A)
                 (A) (A) (A) (A) (A) (A) (A) (A) (A) (A) (A) (A)
                 (A) (A) (A) (A) (A) (A) (A) (A) (A) (A) (A) (A)
                 (A) (A) (A) (A) (A) (A) (A) (A) (A) (A) (A) (A)
                 (A) (A) (A) (A) (A) (A) (A) (A) (A) (A) (A) (A)
                 (A) (A) (A) (A) (A) (A) (A) (A) (A) (A) (A) (A)
                 (A) (A) (A) (A) (A) (A) (A) (A) (A) (A) (A) (A)
                 (A) (A) (A) (A) (A) (A) (A) (A) (A) (A) (A) (A)
                 (A) (A) (A) (A) (A) (A) (A) (A) (A) (A) (A) (A)
                 (A) (A) (A) (A) (A) (A) (A) (A) (A) (A) (A) (A)
                 (A) (A) (A) (A) (A) (A) (A) (A) (A) (A) (A) (A)
                 (A) (A) (A) (A) (A) (A) (A)
 The electronic state is 1-A.
 Alpha  occ. eigenvalues --  -19.25994 -19.21970 -19.20571 -14.52647 -14.51224
 Alpha  occ. eigenvalues --  -14.50194 -14.48395 -14.47853 -14.46654 -14.46452
 Alpha  occ. eigenvalues --  -14.46181 -14.43944 -14.43128 -14.42869 -14.42810
 Alpha  occ. eigenvalues --  -14.42719 -14.42103 -14.41848 -14.41236 -14.40645
 Alpha  occ. eigenvalues --  -10.45602 -10.41002 -10.40037 -10.38204 -10.38116
 Alpha  occ. eigenvalues --  -10.37645 -10.36644 -10.36569 -10.36069 -10.35717
 Alpha  occ. eigenvalues --  -10.35489 -10.34696 -10.34460 -10.34161 -10.34159
 Alpha  occ. eigenvalues --  -10.33164 -10.33056 -10.32152 -10.31040 -10.31015
 Alpha  occ. eigenvalues --  -10.30033 -10.29930 -10.27942  -1.19602  -1.13848
 Alpha  occ. eigenvalues --   -1.13102  -1.12944  -1.12780  -1.10389  -1.09515
 Alpha  occ. eigenvalues --   -1.08423  -1.07585  -1.06168  -1.03120  -1.02558
 Alpha  occ. eigenvalues --   -1.01616  -0.99595  -0.99533  -0.98362  -0.98274
 Alpha  occ. eigenvalues --   -0.96262  -0.95251  -0.93774  -0.91098  -0.86372
 Alpha  occ. eigenvalues --   -0.85250  -0.84971  -0.84054  -0.83820  -0.83561
 Alpha  occ. eigenvalues --   -0.82017  -0.78952  -0.75593  -0.74387  -0.74093
 Alpha  occ. eigenvalues --   -0.73531  -0.73377  -0.73337  -0.72276  -0.68969
 Alpha  occ. eigenvalues --   -0.67518  -0.67185  -0.66625  -0.65291  -0.64513
 Alpha  occ. eigenvalues --   -0.63896  -0.63596  -0.62810  -0.62511  -0.61524
 Alpha  occ. eigenvalues --   -0.61505  -0.61296  -0.59596  -0.59224  -0.58399
 Alpha  occ. eigenvalues --   -0.58153  -0.58020  -0.57541  -0.57250  -0.56472
 Alpha  occ. eigenvalues --   -0.56277  -0.55984  -0.55410  -0.54448  -0.54102
 Alpha  occ. eigenvalues --   -0.53869  -0.53442  -0.53016  -0.52987  -0.52625
 Alpha  occ. eigenvalues --   -0.52159  -0.51803  -0.51526  -0.51421  -0.51282
 Alpha  occ. eigenvalues --   -0.50211  -0.49938  -0.49469  -0.48698  -0.48618
 Alpha  occ. eigenvalues --   -0.48348  -0.48112  -0.48070  -0.48034  -0.47809
 Alpha  occ. eigenvalues --   -0.47332  -0.46047  -0.45214  -0.44184  -0.43043
 Alpha  occ. eigenvalues --   -0.42026  -0.39537  -0.39376  -0.38416  -0.37172
 Alpha  occ. eigenvalues --   -0.37108  -0.36319  -0.36115  -0.35885  -0.34900
 Alpha  occ. eigenvalues --   -0.34720  -0.34152  -0.33182  -0.33150  -0.32866
 Alpha  occ. eigenvalues --   -0.32606  -0.32301  -0.31989  -0.31805  -0.31781
 Alpha  occ. eigenvalues --   -0.31442  -0.28148  -0.26893  -0.25311
 Alpha virt. eigenvalues --    0.02836   0.05665   0.06676   0.08037   0.08932
 Alpha virt. eigenvalues --    0.08962   0.09914   0.10096   0.11310   0.12096
 Alpha virt. eigenvalues --    0.12660   0.13290   0.14629   0.14915   0.15107
 Alpha virt. eigenvalues --    0.15387   0.16433   0.17581   0.17995   0.18413
 Alpha virt. eigenvalues --    0.18500   0.18637   0.19285   0.19839   0.20030
 Alpha virt. eigenvalues --    0.20542   0.21143   0.21467   0.22079   0.22480
 Alpha virt. eigenvalues --    0.22766   0.22953   0.23027   0.23240   0.23801
 Alpha virt. eigenvalues --    0.23941   0.24663   0.25252   0.26031   0.26308
 Alpha virt. eigenvalues --    0.26591   0.26775   0.27109   0.27711   0.27997
 Alpha virt. eigenvalues --    0.28342   0.29006   0.29663   0.29966   0.30806
 Alpha virt. eigenvalues --    0.31594   0.32429   0.32897   0.33558   0.33639
 Alpha virt. eigenvalues --    0.34141   0.34893   0.35204   0.36076   0.36370
 Alpha virt. eigenvalues --    0.36619   0.37513   0.38072   0.38788   0.39358
 Alpha virt. eigenvalues --    0.39799   0.40735   0.41012   0.41290   0.42042
 Alpha virt. eigenvalues --    0.42216   0.42568   0.43014   0.44225   0.44282
 Alpha virt. eigenvalues --    0.45259   0.45577   0.45974   0.46389   0.46686
 Alpha virt. eigenvalues --    0.47087   0.48177   0.48879   0.49129   0.49825
 Alpha virt. eigenvalues --    0.50269   0.50605   0.50820   0.51312   0.51537
 Alpha virt. eigenvalues --    0.51627   0.52034   0.52707   0.53042   0.53888
 Alpha virt. eigenvalues --    0.54306   0.54732   0.54808   0.55079   0.55743
 Alpha virt. eigenvalues --    0.56349   0.56518   0.57002   0.57652   0.57836
 Alpha virt. eigenvalues --    0.58007   0.58069   0.58634   0.59912   0.60198
 Alpha virt. eigenvalues --    0.60679   0.60852   0.60986   0.61094   0.61542
 Alpha virt. eigenvalues --    0.61728   0.62096   0.63051   0.63441   0.63593
 Alpha virt. eigenvalues --    0.63978   0.64668   0.64987   0.65396   0.65707
 Alpha virt. eigenvalues --    0.65914   0.66618   0.66996   0.67671   0.67939
 Alpha virt. eigenvalues --    0.68239   0.68613   0.69266   0.70227   0.70405
 Alpha virt. eigenvalues --    0.70982   0.71274   0.71896   0.72457   0.73013
 Alpha virt. eigenvalues --    0.73217   0.73392   0.73757   0.74066   0.74123
 Alpha virt. eigenvalues --    0.74609   0.75156   0.75547   0.75914   0.76018
 Alpha virt. eigenvalues --    0.76245   0.76690   0.77234   0.77500   0.78176
 Alpha virt. eigenvalues --    0.78445   0.78826   0.79098   0.79184   0.79618
 Alpha virt. eigenvalues --    0.80019   0.80680   0.80959   0.81382   0.81631
 Alpha virt. eigenvalues --    0.81872   0.82212   0.82502   0.83133   0.83390
 Alpha virt. eigenvalues --    0.83517   0.83828   0.84434   0.84599   0.85620
 Alpha virt. eigenvalues --    0.86626   0.87264   0.87543   0.87877   0.87920
 Alpha virt. eigenvalues --    0.88486   0.88635   0.89355   0.89786   0.90476
 Alpha virt. eigenvalues --    0.90575   0.91653   0.91878   0.91928   0.92476
 Alpha virt. eigenvalues --    0.92816   0.93488   0.93906   0.94402   0.94638
 Alpha virt. eigenvalues --    0.95427   0.96496   0.96763   0.97142   0.97585
 Alpha virt. eigenvalues --    0.97845   0.98084   0.98698   0.99378   0.99737
 Alpha virt. eigenvalues --    0.99884   1.00622   1.00696   1.01226   1.01823
 Alpha virt. eigenvalues --    1.01880   1.02951   1.03321   1.03538   1.04026
 Alpha virt. eigenvalues --    1.04237   1.05363   1.05513   1.05765   1.05939
 Alpha virt. eigenvalues --    1.06543   1.07729   1.08121   1.08927   1.09288
 Alpha virt. eigenvalues --    1.09759   1.10237   1.10672   1.11305   1.12132
 Alpha virt. eigenvalues --    1.12487   1.12773   1.13451   1.14058   1.14606
 Alpha virt. eigenvalues --    1.14875   1.15260   1.15566   1.16099   1.16353
 Alpha virt. eigenvalues --    1.16924   1.17082   1.17461   1.17847   1.18148
 Alpha virt. eigenvalues --    1.18381   1.18996   1.19123   1.19985   1.20250
 Alpha virt. eigenvalues --    1.20897   1.20965   1.21793   1.21859   1.22064
 Alpha virt. eigenvalues --    1.22210   1.22789   1.23234   1.23815   1.24294
 Alpha virt. eigenvalues --    1.24393   1.25233   1.25503   1.26027   1.26148
 Alpha virt. eigenvalues --    1.27141   1.27216   1.27691   1.28310   1.29550
 Alpha virt. eigenvalues --    1.29780   1.30632   1.31053   1.31424   1.31939
 Alpha virt. eigenvalues --    1.32487   1.33335   1.34133   1.34669   1.35058
 Alpha virt. eigenvalues --    1.35340   1.36166   1.36708   1.37363   1.37663
 Alpha virt. eigenvalues --    1.37912   1.39153   1.39643   1.40669   1.41169
 Alpha virt. eigenvalues --    1.41724   1.42460   1.42865   1.44082   1.44482
 Alpha virt. eigenvalues --    1.45004   1.45315   1.46592   1.47744   1.47978
 Alpha virt. eigenvalues --    1.48921   1.48994   1.50248   1.50508   1.51353
 Alpha virt. eigenvalues --    1.52672   1.52916   1.53755   1.54798   1.54983
 Alpha virt. eigenvalues --    1.56569   1.56777   1.58455   1.58535   1.59162
 Alpha virt. eigenvalues --    1.59866   1.60002   1.61162   1.61461   1.61699
 Alpha virt. eigenvalues --    1.62155   1.62990   1.63736   1.64264   1.64678
 Alpha virt. eigenvalues --    1.65494   1.65890   1.66098   1.66993   1.67448
 Alpha virt. eigenvalues --    1.67744   1.68364   1.68770   1.69287   1.69991
 Alpha virt. eigenvalues --    1.70394   1.70994   1.71187   1.71447   1.71855
 Alpha virt. eigenvalues --    1.72413   1.73177   1.73516   1.73649   1.74168
 Alpha virt. eigenvalues --    1.74559   1.75140   1.75475   1.75721   1.75793
 Alpha virt. eigenvalues --    1.76027   1.76332   1.76936   1.77162   1.77691
 Alpha virt. eigenvalues --    1.78159   1.78496   1.79151   1.79400   1.80049
 Alpha virt. eigenvalues --    1.80147   1.80472   1.80820   1.81019   1.81426
 Alpha virt. eigenvalues --    1.81712   1.82054   1.82676   1.82944   1.83410
 Alpha virt. eigenvalues --    1.83873   1.84210   1.84640   1.85055   1.85296
 Alpha virt. eigenvalues --    1.86030   1.87015   1.87304   1.87681   1.88149
 Alpha virt. eigenvalues --    1.88628   1.88965   1.89628   1.90080   1.90696
 Alpha virt. eigenvalues --    1.91168   1.91419   1.91754   1.91903   1.91997
 Alpha virt. eigenvalues --    1.92979   1.93491   1.94148   1.94516   1.95659
 Alpha virt. eigenvalues --    1.96423   1.96843   1.97609   1.98490   1.99111
 Alpha virt. eigenvalues --    1.99538   1.99944   2.00698   2.01509   2.02262
 Alpha virt. eigenvalues --    2.02317   2.02853   2.03169   2.03686   2.04200
 Alpha virt. eigenvalues --    2.05059   2.06749   2.07405   2.07632   2.07974
 Alpha virt. eigenvalues --    2.08413   2.08757   2.09875   2.10771   2.10910
 Alpha virt. eigenvalues --    2.11982   2.12619   2.13016   2.13322   2.13869
 Alpha virt. eigenvalues --    2.14465   2.14945   2.16390   2.17728   2.19201
 Alpha virt. eigenvalues --    2.20165   2.20545   2.20882   2.21802   2.21978
 Alpha virt. eigenvalues --    2.22199   2.22556   2.23500   2.24106   2.24463
 Alpha virt. eigenvalues --    2.25356   2.26292   2.26738   2.26958   2.27569
 Alpha virt. eigenvalues --    2.28346   2.28446   2.29435   2.29457   2.29945
 Alpha virt. eigenvalues --    2.30455   2.31199   2.31653   2.32731   2.33373
 Alpha virt. eigenvalues --    2.33628   2.33951   2.34136   2.34952   2.35507
 Alpha virt. eigenvalues --    2.35661   2.36589   2.36696   2.37518   2.38099
 Alpha virt. eigenvalues --    2.38936   2.39474   2.40506   2.40741   2.41291
 Alpha virt. eigenvalues --    2.42108   2.43021   2.43214   2.43675   2.44362
 Alpha virt. eigenvalues --    2.44632   2.45887   2.46549   2.46698   2.47411
 Alpha virt. eigenvalues --    2.47652   2.49096   2.49653   2.49918   2.52057
 Alpha virt. eigenvalues --    2.52944   2.54217   2.55236   2.55436   2.56392
 Alpha virt. eigenvalues --    2.57489   2.57778   2.58208   2.59164   2.60249
 Alpha virt. eigenvalues --    2.60645   2.61499   2.62635   2.63238   2.64665
 Alpha virt. eigenvalues --    2.65124   2.65320   2.66253   2.66492   2.67172
 Alpha virt. eigenvalues --    2.67670   2.67983   2.68583   2.69459   2.70203
 Alpha virt. eigenvalues --    2.71135   2.71700   2.72285   2.72477   2.73275
 Alpha virt. eigenvalues --    2.74232   2.74719   2.75155   2.75240   2.76986
 Alpha virt. eigenvalues --    2.78034   2.78756   2.79406   2.79694   2.80275
 Alpha virt. eigenvalues --    2.80480   2.81415   2.81731   2.81981   2.82484
 Alpha virt. eigenvalues --    2.83099   2.83336   2.83806   2.84802   2.85828
 Alpha virt. eigenvalues --    2.86087   2.86358   2.86800   2.87397   2.88483
 Alpha virt. eigenvalues --    2.89082   2.89648   2.91449   2.92958   2.94473
 Alpha virt. eigenvalues --    2.94694   2.97125   2.97495   2.98307   2.99559
 Alpha virt. eigenvalues --    3.00946   3.01814   3.02040   3.05594   3.06598
 Alpha virt. eigenvalues --    3.06740   3.10183   3.10854   3.14165   3.14280
 Alpha virt. eigenvalues --    3.15288   3.16149   3.16482   3.18356   3.20266
 Alpha virt. eigenvalues --    3.22822   3.23250   3.24079   3.24419   3.27525
 Alpha virt. eigenvalues --    3.45889   3.46976   3.47894   3.50179   3.50735
 Alpha virt. eigenvalues --    3.52946   3.54625   3.56482   3.58233   3.60174
 Alpha virt. eigenvalues --    3.63283   3.71232   3.74663
          Condensed to atoms (all electrons):
 Mulliken charges:
               1
     1  N   -0.308278
     2  C    0.179430
     3  C    0.040190
     4  N   -0.252099
     5  C    0.128172
     6  H    0.030068
     7  N   -0.271975
     8  C    0.129433
     9  H    0.017522
    10  N   -0.283179
    11  C    0.218422
    12  C    0.085966
    13  N   -0.032954
    14  H    0.107989
    15  H    0.089177
    16  H    0.030072
    17  H    0.036679
    18  H    0.025739
    19  N   -0.298356
    20  C    0.248333
    21  C    0.192290
    22  N   -0.114569
    23  H    0.113402
    24  H    0.116776
    25  N   -0.298710
    26  C    0.224952
    27  N   -0.128759
    28  H    0.123299
    29  C    0.155902
    30  O   -0.325588
    31  C    0.001219
    32  N   -0.227292
    33  C    0.119233
    34  H    0.025513
    35  H    0.016568
    36  H    0.029766
    37  H    0.020666
    38  H    0.061407
    39  H    0.064141
    40  H    0.077078
    41  H    0.030002
    42  C   -0.073803
    43  O   -0.265401
    44  C    0.178985
    45  H    0.132947
    46  N   -0.124412
    47  O   -0.344358
    48  C    0.337717
    49  H    0.042818
    50  C    0.146052
    51  C    0.039213
    52  N   -0.283859
    53  H    0.032467
    54  H    0.039092
    55  H   -0.025351
    56  H    0.116994
    57  H    0.121767
    58  N   -0.059446
    59  C    0.136726
    60  C    0.217753
    61  N   -0.277679
    62  H    0.031561
    63  C    0.163529
    64  N   -0.307669
    65  H    0.024151
    66  C    0.119199
    67  N   -0.245822
    68  C    0.024823
    69  C    0.199796
    70  N   -0.295434
 Sum of Mulliken charges =  -0.00000
 Mulliken charges with hydrogens summed into heavy atoms:
               1
     1  N   -0.308278
     2  C    0.271920
     3  C    0.040190
     4  N   -0.252099
     5  C    0.158240
     7  N   -0.271975
     8  C    0.146955
    10  N   -0.283179
    11  C    0.218422
    12  C    0.085966
    13  N    0.164212
    19  N   -0.298356
    20  C    0.248333
    21  C    0.259290
    22  N    0.115609
    25  N   -0.298710
    26  C    0.224952
    27  N   -0.005459
    29  C    0.155902
    30  O   -0.325588
    31  C    0.001219
    32  N   -0.227292
    33  C    0.144745
    42  C   -0.043801
    43  O   -0.265401
    44  C    0.178985
    46  N    0.008534
    47  O   -0.344358
    48  C    0.337717
    50  C    0.188870
    51  C    0.241839
    52  N   -0.283859
    58  N    0.179314
    59  C    0.136726
    60  C    0.217753
    61  N   -0.277679
    63  C    0.195090
    64  N   -0.307669
    66  C    0.143351
    67  N   -0.245822
    68  C    0.024823
    69  C    0.246004
    70  N   -0.295434
 Electronic spatial extent (au):  <R**2>=          23160.4295
 Charge=             -0.0000 electrons
 Dipole moment (field-independent basis, Debye):
    X=              3.7866    Y=              5.1792    Z=              5.1759  Tot=              8.2433
 Quadrupole moment (field-independent basis, Debye-Ang):
   XX=           -141.9988   YY=           -225.8472   ZZ=           -258.4319
   XY=             14.9633   XZ=             23.6357   YZ=              2.1558
 Traceless Quadrupole moment (field-independent basis, Debye-Ang):
   XX=             66.7605   YY=            -17.0879   ZZ=            -49.6726
   XY=             14.9633   XZ=             23.6357   YZ=              2.1558
 Octapole moment (field-independent basis, Debye-Ang**2):
  XXX=            -49.8513  YYY=             13.2312  ZZZ=             59.5268  XYY=             25.0163
  XXY=            123.7389  XXZ=             35.0986  XZZ=             31.5235  YZZ=             45.1752
  YYZ=             14.7366  XYZ=             19.2370
 Hexadecapole moment (field-independent basis, Debye-Ang**3):
 XXXX=         -16598.6615 YYYY=          -3538.3446 ZZZZ=          -3126.2814 XXXY=            480.9869
 XXXZ=            404.7713 YYYX=             33.4598 YYYZ=            213.4463 ZZZX=            207.1263
 ZZZY=              1.8804 XXYY=          -4567.8996 XXZZ=          -4362.2470 YYZZ=          -1187.0880
 XXYZ=            -32.1276 YYXZ=             48.9466 ZZXY=             89.7761
 N-N= 5.562481099676D+03 E-N=-1.590575556425D+04  KE= 2.037792229053D+03
 No NMR shielding tensors so no spin-rotation constants.
 Leave Link  601 at Thu Jan 25 00:20:51 2018, MaxMem=  4294967296 cpu:              49.9 elap:               1.7
 (Enter /share/apps/g16/l9999.exe)
 1\1\GINC-COMPUTE-0-3\SP\RwB97XD\CC-pVDZ\C23H27N17O3\SATYA\25-Jan-2018\
 0\\#p wb97xd/cc-pvdz sp scf=(maxcycles=20)\\Base pair stacking\\0,1\N,
 0,-0.00392,9.83178,-6.47105\C,0,-0.76823,11.09008,-6.57363\C,0,0.55068
 ,7.70548,-6.37851\N,0,1.73354,8.42061,-6.25948\C,0,1.35207,9.67301,-6.
 32\H,0,2.02415,10.52947,-6.25909\N,0,-1.01324,5.94594,-6.52372\C,0,-1.
 95142,6.8913,-6.6407\H,0,-2.97117,6.52379,-6.74702\N,0,-1.81968,8.2162
 6,-6.64603\C,0,-0.52875,8.56172,-6.50964\C,0,0.27608,6.32583,-6.38803\
 N,0,1.21402,5.38362,-6.27112\H,0,2.18113,5.61901,-6.1686\H,0,0.98212,4
 .41087,-6.28203\H,0,-0.45258,11.60961,-7.36775\H,0,-1.74058,10.88282,-
 6.67715\H,0,-0.6314,11.63406,-5.74576\N,0,-0.8598,6.84339,-3.26456\C,0
 ,-1.2651,5.53046,-3.26328\C,0,-1.7557,8.0133,-3.36129\N,0,-3.80618,3.1
 6691,-3.39872\H,0,-3.88884,2.17088,-3.38065\H,0,-4.65458,3.69127,-3.47
 605\N,0,-2.53964,5.09208,-3.34948\C,0,-2.61175,3.7731,-3.32272\N,0,-1.
 52039,2.94498,-3.21948\H,0,-1.67011,1.9478,-3.20649\C,0,-0.19991,3.374
 09,-3.12957\O,0,0.71272,2.54355,-3.03986\C,0,-0.10647,4.78879,-3.15705
 \N,0,1.00389,5.61939,-3.09292\C,0,0.50966,6.8258,-3.16\H,0,1.10153,7.7
 4147,-3.13738\H,0,-1.52529,8.54526,-4.17537\H,0,-2.70256,7.70092,-3.42
 565\H,0,-1.64899,8.58504,-2.54855\H,0,-3.03218,-2.90952,-3.84208\H,0,-
 2.89928,-2.95991,-2.08582\H,0,-3.3963,-1.47039,-2.88935\H,0,1.74259,-3
 .1988,-3.32784\C,0,0.94747,-2.45759,-3.2464\O,0,2.42166,-0.60005,-3.30
 466\C,0,1.28526,-1.06708,-3.23206\H,0,0.40393,0.77609,-3.11248\N,0,0.2
 0506,-0.21436,-3.12585\O,0,-2.0071,0.26595,-2.94466\C,0,-1.11915,-0.56
 347,-3.03565\H,0,-0.64465,-3.87343,-3.16654\C,0,-0.33514,-2.82916,-3.1
 6\C,0,-2.76496,-2.34345,-2.96218\N,0,-1.36438,-1.92238,-3.05609\H,0,-3
 .44803,-1.58001,-6.86174\H,0,-3.64233,-0.27557,-5.90113\H,0,-3.29104,-
 1.72778,-5.24405\H,0,2.9482,2.14252,-6.31721\H,0,2.87762,0.44449,-6.46
 493\N,0,2.39313,1.31092,-6.33931\C,0,1.06578,1.35434,-6.20724\C,0,-1.1
 1883,0.4198,-6.08142\N,0,-1.74265,1.59762,-5.91402\H,0,-1.28499,3.5906
 9,-5.77681\C,0,-0.86153,2.59587,-5.90822\N,0,0.46829,2.55443,-6.04035\
 H,0,-0.8262,-2.78399,-6.40123\C,0,-0.65532,-1.71014,-6.32\N,0,0.52125,
 -1.13604,-6.38132\C,0,0.24165,0.21454,-6.23142\C,0,-3.13367,-1.12667,-
 6.02768\N,0,-1.69272,-0.8281,-6.1396\\Version=EM64L-G16RevA.03\State=1
 -A\HF=-2048.7475659\RMSD=6.622e-09\Dipole=-2.8863149,-1.4475942,-0.303
 0172\Quadrupole=-17.6298953,48.9540574,-31.3241621,19.7937359,-13.5250
 157,-3.2531378\PG=C01 [X(C23H27N17O3)]\\@


 WE THE UNWILLING
 LED BY THE UNQUALIFIED
 HAVE BEEN DOING THE UNBELIEVABLE SO LONG WITH SO LITTLE
 THAT WE NOW ATTEMPT THE IMPOSSIBLE WITH NOTHING.

                                    -- ANONYMOUS
 Job cpu time:       0 days  6 hours 19 minutes  1.5 seconds.
 Elapsed time:       0 days  0 hours 12 minutes 14.1 seconds.
 File lengths (MBytes):  RWF=    298 Int=      0 D2E=      0 Chk=     33 Scr=      1
 Normal termination of Gaussian 16 at Thu Jan 25 00:20:51 2018.
