 Entering Gaussian System, Link 0=g16
 Input=str5.-10.-1.0.com
 Output=str5.-10.-1.0.log
 Initial command:
 /share/apps/g16/l1.exe "/state/partition1/scr/Gau-27879.inp" -scrdir="/state/partition1/scr/"
 Entering Link 1 = /share/apps/g16/l1.exe PID=     27880.
  
 Copyright (c) 1988,1990,1992,1993,1995,1998,2003,2009,2016,
            Gaussian, Inc.  All Rights Reserved.
  
 This is part of the Gaussian(R) 16 program.  It is based on
 the Gaussian(R) 09 system (copyright 2009, Gaussian, Inc.),
 the Gaussian(R) 03 system (copyright 2003, Gaussian, Inc.),
 the Gaussian(R) 98 system (copyright 1998, Gaussian, Inc.),
 the Gaussian(R) 94 system (copyright 1995, Gaussian, Inc.),
 the Gaussian 92(TM) system (copyright 1992, Gaussian, Inc.),
 the Gaussian 90(TM) system (copyright 1990, Gaussian, Inc.),
 the Gaussian 88(TM) system (copyright 1988, Gaussian, Inc.),
 the Gaussian 86(TM) system (copyright 1986, Carnegie Mellon
 University), and the Gaussian 82(TM) system (copyright 1983,
 Carnegie Mellon University). Gaussian is a federally registered
 trademark of Gaussian, Inc.
  
 This software contains proprietary and confidential information,
 including trade secrets, belonging to Gaussian, Inc.
  
 This software is provided under written license and may be
 used, copied, transmitted, or stored only in accord with that
 written license.
  
 The following legend is applicable only to US Government
 contracts under FAR:
  
                    RESTRICTED RIGHTS LEGEND
  
 Use, reproduction and disclosure by the US Government is
 subject to restrictions as set forth in subparagraphs (a)
 and (c) of the Commercial Computer Software - Restricted
 Rights clause in FAR 52.227-19.
  
 Gaussian, Inc.
 340 Quinnipiac St., Bldg. 40, Wallingford CT 06492
  
  
 ---------------------------------------------------------------
 Warning -- This program may not be used in any manner that
 competes with the business of Gaussian, Inc. or will provide
 assistance to any competitor of Gaussian, Inc.  The licensee
 of this program is prohibited from giving any competitor of
 Gaussian, Inc. access to this program.  By using this program,
 the user acknowledges that Gaussian, Inc. is engaged in the
 business of creating and licensing software in the field of
 computational chemistry and represents and warrants to the
 licensee that it is not a competitor of Gaussian, Inc. and that
 it will not use this program in any manner prohibited above.
 ---------------------------------------------------------------
  

 Cite this work as:
 Gaussian 16, Revision A.03,
 M. J. Frisch, G. W. Trucks, H. B. Schlegel, G. E. Scuseria, 
 M. A. Robb, J. R. Cheeseman, G. Scalmani, V. Barone, 
 G. A. Petersson, H. Nakatsuji, X. Li, M. Caricato, A. V. Marenich, 
 J. Bloino, B. G. Janesko, R. Gomperts, B. Mennucci, H. P. Hratchian, 
 J. V. Ortiz, A. F. Izmaylov, J. L. Sonnenberg, D. Williams-Young, 
 F. Ding, F. Lipparini, F. Egidi, J. Goings, B. Peng, A. Petrone, 
 T. Henderson, D. Ranasinghe, V. G. Zakrzewski, J. Gao, N. Rega, 
 G. Zheng, W. Liang, M. Hada, M. Ehara, K. Toyota, R. Fukuda, 
 J. Hasegawa, M. Ishida, T. Nakajima, Y. Honda, O. Kitao, H. Nakai, 
 T. Vreven, K. Throssell, J. A. Montgomery, Jr., J. E. Peralta, 
 F. Ogliaro, M. J. Bearpark, J. J. Heyd, E. N. Brothers, K. N. Kudin, 
 V. N. Staroverov, T. A. Keith, R. Kobayashi, J. Normand, 
 K. Raghavachari, A. P. Rendell, J. C. Burant, S. S. Iyengar, 
 J. Tomasi, M. Cossi, J. M. Millam, M. Klene, C. Adamo, R. Cammi, 
 J. W. Ochterski, R. L. Martin, K. Morokuma, O. Farkas, 
 J. B. Foresman, and D. J. Fox, Gaussian, Inc., Wallingford CT, 2016.
 
 ******************************************
 Gaussian 16:  EM64L-G16RevA.03 25-Dec-2016
                25-Jan-2018 
 ******************************************
 %nprocshared=32
 Will use up to   32 processors via shared memory.
 %mem=32GB
 %chk=allatoms_t.chk
 ---------------------------------------
 #p wb97xd/cc-pvdz sp scf=(maxcycles=20)
 ---------------------------------------
 1/38=1,172=1/1;
 2/12=2,17=6,18=5,40=1/2;
 3/5=16,11=2,25=1,30=1,74=-58/1,2,3;
 4//1;
 5/5=2,7=20,38=5/2;
 6/7=2,8=2,9=2,10=2,28=1/1;
 99/5=1,9=1/99;
 Leave Link    1 at Thu Jan 25 06:23:27 2018, MaxMem=  4294967296 cpu:               2.7 elap:               0.1
 (Enter /share/apps/g16/l101.exe)
 ------------------
 Base pair stacking
 ------------------
 Symbolic Z-matrix:
 Charge =  0 Multiplicity = 1
 N                    -1.26068   7.88241  -6.07327 
 C                    -2.00529   9.14071  -5.87267 
 C                    -0.72288   5.75612  -6.23751 
 N                     0.43503   6.47123  -6.50697 
 C                     0.06468   7.72362  -6.39724 
 H                     0.72352   8.58007  -6.54341 
 N                    -2.2555    3.99662  -5.89377 
 C                    -3.17075   4.94199  -5.65676 
 H                    -4.16847   4.57449  -5.42063 
 N                    -3.0392    6.26693  -5.66761 
 C                    -1.77641   6.61237  -5.96838 
 C                    -0.99421   4.37649  -6.19364 
 N                    -0.07918   3.43428  -6.43054 
 H                     0.8668    3.66965  -6.65623 
 H                    -0.30791   2.46154  -6.39053 
 H                    -1.97484   9.68494  -6.71116 
 H                    -2.95634   8.93347  -5.64531 
 H                    -1.59117   9.65997  -5.1251 
 N                    -1.17826   5.84092  -3.05415 
 C                    -1.5785    4.52788  -2.99253 
 C                    -2.07622   7.01122  -2.98529 
 N                    -4.1069    2.16456  -2.70325 
 H                    -4.18615   1.16839  -2.67865 
 H                    -4.95535   2.6892   -2.6284 
 N                    -2.84911   4.08973  -2.8598 
 C                    -2.91678   2.77057  -2.83088 
 N                    -1.82486   1.94206  -2.92464 
 H                    -1.97104   0.94475  -2.89341 
 C                    -0.50837   2.37092  -3.06175 
 O                     0.40518   1.54004  -3.13787 
 C                    -0.41971   3.78583  -3.09435 
 N                     0.68577   4.61629  -3.21741 
 C                     0.18857   5.82301  -3.1887 
 H                     0.7763    6.73868  -3.26211 
 H                    -1.98989   7.54943  -3.82295 
 H                    -3.02021   6.69902  -2.8869 
 H                    -1.82969   7.57681  -2.19907 
 H                    -3.42744  -3.90806  -3.31988 
 H                    -2.99216  -3.97175  -1.61368 
 H                    -3.61948  -2.47633  -2.30763 
 H                     1.36391  -4.19961  -3.6433 
 C                     0.59567  -3.45931  -3.41968 
 O                     2.03927  -1.60088  -3.71859 
 C                     0.9322   -2.06884  -3.45363 
 H                     0.08675  -0.22693  -3.16918 
 N                    -0.1124   -1.21732  -3.15535 
 O                    -2.2592   -0.73915  -2.58982 
 C                    -1.40128  -1.56755  -2.83961 
 H                    -0.95989  -4.87626  -3.07572 
 C                    -0.65291  -3.83196  -3.11506 
 C                    -3.01118  -3.3486   -2.49538 
 N                    -1.64766  -2.92636  -2.82747 
 H                    -4.71385  -3.52371  -5.60467 
 H                    -4.56052  -2.24941  -4.5973 
 H                    -4.01709  -3.71958  -4.14194 
 H                     1.51272   0.20174  -7.15912 
 H                     1.38397  -1.49129  -7.32391 
 N                     0.97729  -0.63063  -7.01555 
 C                    -0.22566  -0.59557  -6.43861 
 C                    -2.24387  -1.54064  -5.60472 
 N                    -2.76513  -0.37046  -5.20052 
 H                    -2.27385   1.61908  -5.1686 
 C                    -1.92745   0.63006  -5.46543 
 N                    -0.72218   0.59698  -6.0432 
 H                    -2.10038  -4.73238  -6.09911 
 C                    -1.90438  -3.66091  -6.04929 
 N                    -0.81473  -3.08136  -6.49027 
 C                    -1.01702  -1.73682  -6.21453 
 C                    -4.13133  -3.09465  -4.91432 
 N                    -2.81225  -2.78811  -5.50089 
 
 ITRead=  0  0  0  0  0  0  0  0  0  0  0  0  0  0  0  0  0  0  0  0
 ITRead=  0  0  0  0  0  0  0  0  0  0  0  0  0  0  0  0  0  0  0  0
 ITRead=  0  0  0  0  0  0  0  0  0  0  0  0  0  0  0  0  0  0  0  0
 ITRead=  0  0  0  0  0  0  0  0  0  0
 MicOpt= -1 -1 -1 -1 -1 -1 -1 -1 -1 -1 -1 -1 -1 -1 -1 -1 -1 -1 -1 -1
 MicOpt= -1 -1 -1 -1 -1 -1 -1 -1 -1 -1 -1 -1 -1 -1 -1 -1 -1 -1 -1 -1
 MicOpt= -1 -1 -1 -1 -1 -1 -1 -1 -1 -1 -1 -1 -1 -1 -1 -1 -1 -1 -1 -1
 MicOpt= -1 -1 -1 -1 -1 -1 -1 -1 -1 -1
 NAtoms=     70 NQM=       70 NQMF=       0 NMMI=      0 NMMIF=      0
                NMic=       0 NMicF=      0.
                    Isotopes and Nuclear Properties:
 (Nuclear quadrupole moments (NQMom) in fm**2, nuclear magnetic moments (NMagM)
  in nuclear magnetons)

  Atom         1           2           3           4           5           6           7           8           9          10
 IAtWgt=          14          12          12          14          12           1          14          12           1          14
 AtmWgt=  14.0030740  12.0000000  12.0000000  14.0030740  12.0000000   1.0078250  14.0030740  12.0000000   1.0078250  14.0030740
 NucSpn=           2           0           0           2           0           1           2           0           1           2
 AtZEff=  -0.0000000  -0.0000000  -0.0000000  -0.0000000  -0.0000000  -0.0000000  -0.0000000  -0.0000000  -0.0000000  -0.0000000
 NQMom=    2.0440000   0.0000000   0.0000000   2.0440000   0.0000000   0.0000000   2.0440000   0.0000000   0.0000000   2.0440000
 NMagM=    0.4037610   0.0000000   0.0000000   0.4037610   0.0000000   2.7928460   0.4037610   0.0000000   2.7928460   0.4037610
 AtZNuc=   7.0000000   6.0000000   6.0000000   7.0000000   6.0000000   1.0000000   7.0000000   6.0000000   1.0000000   7.0000000

  Atom        11          12          13          14          15          16          17          18          19          20
 IAtWgt=          12          12          14           1           1           1           1           1          14          12
 AtmWgt=  12.0000000  12.0000000  14.0030740   1.0078250   1.0078250   1.0078250   1.0078250   1.0078250  14.0030740  12.0000000
 NucSpn=           0           0           2           1           1           1           1           1           2           0
 AtZEff=  -0.0000000  -0.0000000  -0.0000000  -0.0000000  -0.0000000  -0.0000000  -0.0000000  -0.0000000  -0.0000000  -0.0000000
 NQMom=    0.0000000   0.0000000   2.0440000   0.0000000   0.0000000   0.0000000   0.0000000   0.0000000   2.0440000   0.0000000
 NMagM=    0.0000000   0.0000000   0.4037610   2.7928460   2.7928460   2.7928460   2.7928460   2.7928460   0.4037610   0.0000000
 AtZNuc=   6.0000000   6.0000000   7.0000000   1.0000000   1.0000000   1.0000000   1.0000000   1.0000000   7.0000000   6.0000000

  Atom        21          22          23          24          25          26          27          28          29          30
 IAtWgt=          12          14           1           1          14          12          14           1          12          16
 AtmWgt=  12.0000000  14.0030740   1.0078250   1.0078250  14.0030740  12.0000000  14.0030740   1.0078250  12.0000000  15.9949146
 NucSpn=           0           2           1           1           2           0           2           1           0           0
 AtZEff=  -0.0000000  -0.0000000  -0.0000000  -0.0000000  -0.0000000  -0.0000000  -0.0000000  -0.0000000  -0.0000000  -0.0000000
 NQMom=    0.0000000   2.0440000   0.0000000   0.0000000   2.0440000   0.0000000   2.0440000   0.0000000   0.0000000   0.0000000
 NMagM=    0.0000000   0.4037610   2.7928460   2.7928460   0.4037610   0.0000000   0.4037610   2.7928460   0.0000000   0.0000000
 AtZNuc=   6.0000000   7.0000000   1.0000000   1.0000000   7.0000000   6.0000000   7.0000000   1.0000000   6.0000000   8.0000000

  Atom        31          32          33          34          35          36          37          38          39          40
 IAtWgt=          12          14          12           1           1           1           1           1           1           1
 AtmWgt=  12.0000000  14.0030740  12.0000000   1.0078250   1.0078250   1.0078250   1.0078250   1.0078250   1.0078250   1.0078250
 NucSpn=           0           2           0           1           1           1           1           1           1           1
 AtZEff=  -0.0000000  -0.0000000  -0.0000000  -0.0000000  -0.0000000  -0.0000000  -0.0000000  -0.0000000  -0.0000000  -0.0000000
 NQMom=    0.0000000   2.0440000   0.0000000   0.0000000   0.0000000   0.0000000   0.0000000   0.0000000   0.0000000   0.0000000
 NMagM=    0.0000000   0.4037610   0.0000000   2.7928460   2.7928460   2.7928460   2.7928460   2.7928460   2.7928460   2.7928460
 AtZNuc=   6.0000000   7.0000000   6.0000000   1.0000000   1.0000000   1.0000000   1.0000000   1.0000000   1.0000000   1.0000000

  Atom        41          42          43          44          45          46          47          48          49          50
 IAtWgt=           1          12          16          12           1          14          16          12           1          12
 AtmWgt=   1.0078250  12.0000000  15.9949146  12.0000000   1.0078250  14.0030740  15.9949146  12.0000000   1.0078250  12.0000000
 NucSpn=           1           0           0           0           1           2           0           0           1           0
 AtZEff=  -0.0000000  -0.0000000  -0.0000000  -0.0000000  -0.0000000  -0.0000000  -0.0000000  -0.0000000  -0.0000000  -0.0000000
 NQMom=    0.0000000   0.0000000   0.0000000   0.0000000   0.0000000   2.0440000   0.0000000   0.0000000   0.0000000   0.0000000
 NMagM=    2.7928460   0.0000000   0.0000000   0.0000000   2.7928460   0.4037610   0.0000000   0.0000000   2.7928460   0.0000000
 AtZNuc=   1.0000000   6.0000000   8.0000000   6.0000000   1.0000000   7.0000000   8.0000000   6.0000000   1.0000000   6.0000000

  Atom        51          52          53          54          55          56          57          58          59          60
 IAtWgt=          12          14           1           1           1           1           1          14          12          12
 AtmWgt=  12.0000000  14.0030740   1.0078250   1.0078250   1.0078250   1.0078250   1.0078250  14.0030740  12.0000000  12.0000000
 NucSpn=           0           2           1           1           1           1           1           2           0           0
 AtZEff=  -0.0000000  -0.0000000  -0.0000000  -0.0000000  -0.0000000  -0.0000000  -0.0000000  -0.0000000  -0.0000000  -0.0000000
 NQMom=    0.0000000   2.0440000   0.0000000   0.0000000   0.0000000   0.0000000   0.0000000   2.0440000   0.0000000   0.0000000
 NMagM=    0.0000000   0.4037610   2.7928460   2.7928460   2.7928460   2.7928460   2.7928460   0.4037610   0.0000000   0.0000000
 AtZNuc=   6.0000000   7.0000000   1.0000000   1.0000000   1.0000000   1.0000000   1.0000000   7.0000000   6.0000000   6.0000000

  Atom        61          62          63          64          65          66          67          68          69          70
 IAtWgt=          14           1          12          14           1          12          14          12          12          14
 AtmWgt=  14.0030740   1.0078250  12.0000000  14.0030740   1.0078250  12.0000000  14.0030740  12.0000000  12.0000000  14.0030740
 NucSpn=           2           1           0           2           1           0           2           0           0           2
 AtZEff=  -0.0000000  -0.0000000  -0.0000000  -0.0000000  -0.0000000  -0.0000000  -0.0000000  -0.0000000  -0.0000000  -0.0000000
 NQMom=    2.0440000   0.0000000   0.0000000   2.0440000   0.0000000   0.0000000   2.0440000   0.0000000   0.0000000   2.0440000
 NMagM=    0.4037610   2.7928460   0.0000000   0.4037610   2.7928460   0.0000000   0.4037610   0.0000000   0.0000000   0.4037610
 AtZNuc=   7.0000000   1.0000000   6.0000000   7.0000000   1.0000000   6.0000000   7.0000000   6.0000000   6.0000000   7.0000000
 Leave Link  101 at Thu Jan 25 06:23:27 2018, MaxMem=  4294967296 cpu:               7.1 elap:               0.3
 (Enter /share/apps/g16/l202.exe)
 Stoichiometry    C23H27N17O3
 Framework group  C1[X(C23H27N17O3)]
 Deg. of freedom   204
 Full point group                 C1      NOp   1
 Largest Abelian subgroup         C1      NOp   1
 Largest concise Abelian subgroup C1      NOp   1
                         Standard orientation:                         
 ---------------------------------------------------------------------
 Center     Atomic      Atomic             Coordinates (Angstroms)
 Number     Number       Type             X           Y           Z
 ---------------------------------------------------------------------
      1          7           0       -6.237241    0.806565   -0.690590
      2          6           0       -7.475800    0.084110   -1.039922
      3          6           0       -4.130505    1.413517   -0.515693
      4          7           0       -4.864689    2.350094    0.197430
      5          6           0       -6.104535    1.946944    0.063516
      6          1           0       -6.969882    2.448402    0.497863
      7          7           0       -2.349296    0.230713   -1.511278
      8          6           0       -3.273017   -0.615247   -1.978900
      9          1           0       -2.888000   -1.439644   -2.577558
     10          7           0       -4.594714   -0.595824   -1.818809
     11          6           0       -4.962845    0.455969   -1.068714
     12          6           0       -2.751679    1.278828   -0.759867
     13          7           0       -1.831100    2.124376   -0.292166
     14          1           0       -2.083570    2.913935    0.268252
     15          1           0       -0.858209    1.997523   -0.485903
     16          1           0       -8.084314    0.690968   -1.551403
     17          1           0       -7.251240   -0.711731   -1.601480
     18          1           0       -7.934667   -0.218333   -0.204484
     19          7           0       -3.964553   -1.244448    1.288753
     20          6           0       -2.650704   -1.482890    0.964702
     21          6           0       -5.125738   -1.967922    0.732955
     22          7           0       -0.271753   -3.260832   -0.835654
     23          1           0        0.723271   -3.274321   -0.930450
     24          1           0       -0.788811   -3.917794   -1.384989
     25          7           0       -2.203370   -2.410689    0.091132
     26          6           0       -0.886019   -2.400759   -0.009293
     27          7           0       -0.067539   -1.548242    0.691289
     28          1           0        0.929148   -1.611614    0.551396
     29          6           0       -0.505959   -0.585784    1.595351
     30          8           0        0.316285    0.133775    2.175763
     31          6           0       -1.919055   -0.584444    1.713892
     32          7           0       -2.756709    0.202206    2.492616
     33          6           0       -3.957391   -0.223971    2.208114
     34          1           0       -4.876044    0.172531    2.641853
     35          1           0       -5.728190   -1.323703    0.263030
     36          1           0       -4.806691   -2.657836    0.084499
     37          1           0       -5.627737   -2.414386    1.472872
     38          1           0        5.733477   -1.995278   -1.068473
     39          1           0        5.931172   -2.956131    0.395194
     40          1           0        4.385839   -2.954057   -0.455288
     41          1           0        5.998303    1.486005    2.241689
     42          6           0        5.277952    0.760833    1.862927
     43          8           0        3.401652    1.844897    2.828016
     44          6           0        3.889094    0.931477    2.162540
     45          1           0        2.075339    0.045342    1.825808
     46          7           0        3.063763   -0.041270    1.635437
     47          8           0        2.631736   -1.931355    0.453002
     48          6           0        3.437849   -1.121384    0.875846
     49          1           0        6.717692   -0.457522    0.868653
     50          6           0        5.673510   -0.282646    1.124483
     51          6           0        5.240587   -2.355325   -0.177690
     52          7           0        4.793421   -1.217099    0.629925
     53          1           0        5.170660   -1.199669   -3.532836
     54          1           0        3.979554   -1.913155   -2.675894
     55          1           0        5.480951   -1.797317   -2.046244
     56          1           0        1.333974    3.921413    0.224800
     57          1           0        3.008801    4.054769   -0.070586
     58          7           0        2.175101    3.503559   -0.118770
     59          6           0        2.185635    2.266338   -0.619121
     60          6           0        3.193541    0.347891   -1.601664
     61          7           0        2.058829   -0.369128   -1.653862
     62          1           0        0.077929   -0.177727   -1.163917
     63          6           0        1.040503    0.331873   -1.159357
     64          7           0        1.027930    1.571152   -0.657743
     65          1           0        6.336479    0.994749   -1.996288
     66          6           0        5.272235    1.027604   -1.761234
     67          7           0        4.659702    2.052542   -1.220878
     68          6           0        3.341039    1.634813   -1.114229
     69          6           0        4.797199   -1.341303   -2.616064
     70          7           0        4.445357   -0.038686   -2.018235
 ---------------------------------------------------------------------
 Rotational constants (GHZ):           0.1916479           0.0515961           0.0501978
 Leave Link  202 at Thu Jan 25 06:23:27 2018, MaxMem=  4294967296 cpu:               0.3 elap:               0.0
 (Enter /share/apps/g16/l301.exe)
 Standard basis: CC-pVDZ (5D, 7F)
 Ernie: Thresh=  0.10000D-02 Tol=  0.10000D-05 Strict=F.
 Ernie:  86 primitive shells out of 1081 were deleted.
 There are   780 symmetry adapted cartesian basis functions of A   symmetry.
 There are   737 symmetry adapted basis functions of A   symmetry.
   737 basis functions,  1608 primitive gaussians,   780 cartesian basis functions
   154 alpha electrons      154 beta electrons
       nuclear repulsion energy      5651.9963095062 Hartrees.
 IExCor= 4639 DFT=T Ex+Corr=wB97XD ExCW=0 ScaHFX=  1.000000
 ScaDFX=  1.000000  1.000000  1.000000  1.000000 ScalE2=  1.000000  1.000000
 IRadAn=      5 IRanWt=     -1 IRanGd=            0 ICorTp=0 IEmpDi=121
 HFx  wShort=  0.000000 wLong=  0.200000 cFull=  0.222036 cShort=  0.000000 cLong=  0.777964
 DFx  wShort=  0.000000 wLong=  0.200000 cFull=  0.000000 cShort=  0.000000 cLong=  1.000000
 NAtoms=   70 NActive=   70 NUniq=   70 SFac= 1.00D+00 NAtFMM=   60 NAOKFM=T Big=T
 Integral buffers will be    131072 words long.
 Raffenetti 2 integral format.
 Two-electron integral symmetry is turned on.
 R6Disp:  Grimme-D2 Dispersion energy=       -0.0832618188 Hartrees.
 Nuclear repulsion after empirical dispersion term =     5651.9130476874 Hartrees.
 Leave Link  301 at Thu Jan 25 06:23:27 2018, MaxMem=  4294967296 cpu:               2.1 elap:               0.1
 (Enter /share/apps/g16/l302.exe)
 NPDir=0 NMtPBC=     1 NCelOv=     1 NCel=       1 NClECP=     1 NCelD=      1
         NCelK=      1 NCelE2=     1 NClLst=     1 CellRange=     0.0.
 One-electron integrals computed using PRISM.
 One-electron integral symmetry used in STVInt
 NBasis=   737 RedAO= T EigKep=  6.77D-04  NBF=   737
 NBsUse=   737 1.00D-06 EigRej= -1.00D+00 NBFU=   737
 Precomputing XC quadrature grid using
 IXCGrd= 4 IRadAn=           5 IRanWt=          -1 IRanGd=           0 AccXCQ= 0.00D+00.
 Generated NRdTot=       0 NPtTot=           0 NUsed=           0 NTot=          32
 NSgBfM=   766   764   764   764   766 MxSgAt=    70 MxSgA2=    70.
 Leave Link  302 at Thu Jan 25 06:23:32 2018, MaxMem=  4294967296 cpu:             137.1 elap:               4.3
 (Enter /share/apps/g16/l303.exe)
 DipDrv:  MaxL=1.
 Leave Link  303 at Thu Jan 25 06:23:32 2018, MaxMem=  4294967296 cpu:              12.7 elap:               0.4
 (Enter /share/apps/g16/l401.exe)
 ExpMin= 1.22D-01 ExpMax= 1.17D+04 ExpMxC= 4.01D+02 IAcc=3 IRadAn=         5 AccDes= 0.00D+00
 Harris functional with IExCor= 4639 and IRadAn=       5 diagonalized for initial guess.
 HarFok:  IExCor= 4639 AccDes= 0.00D+00 IRadAn=         5 IDoV= 1 UseB2=F ITyADJ=14
 ICtDFT=  3500011 ScaDFX=  1.000000  1.000000  1.000000  1.000000
 FoFCou: FMM=F IPFlag=           0 FMFlag=      100000 FMFlg1=        2001
         NFxFlg=           0 DoJE=T BraDBF=F KetDBF=T FulRan=T
         wScrn=  0.000000 ICntrl=       500 IOpCl=  0 I1Cent=   200000004 NGrid=           0
         NMat0=    1 NMatS0=      1 NMatT0=    0 NMatD0=    1 NMtDS0=    0 NMtDT0=    0
 Petite list used in FoFCou.
 Harris En= -1963.80761518270    
 JPrj=0 DoOrth=F DoCkMO=F.
 Leave Link  401 at Thu Jan 25 06:23:45 2018, MaxMem=  4294967296 cpu:             419.7 elap:              13.2
 (Enter /share/apps/g16/l502.exe)
 Integral symmetry usage will be decided dynamically.
 Closed shell SCF:
 Using DIIS extrapolation, IDIIS=  1040.
 NGot=  4294967296 LenX=  4293717438 LenY=  4293108258
 Requested convergence on RMS density matrix=1.00D-08 within  20 cycles.
 Requested convergence on MAX density matrix=1.00D-06.
 Requested convergence on             energy=1.00D-06.
 No special actions if energy rises.
 Fock matrices will be formed incrementally for  20 cycles.
 Integral accuracy reduced to 1.0D-05 until final iterations.

 Cycle   1  Pass 0  IDiag  1:
 FoFJK:  IHMeth= 1 ICntrl=       0 DoSepK=T KAlg= 0 I1Cent=           0 FoldK=F
 IRaf=         1 NMat=       1 IRICut=       1 DoRegI=T DoRafI=F ISym2E= 0 IDoP0=0 IntGTp=1.
 FoFCou: FMM=T IPFlag=           0 FMFlag=      100000 FMFlg1=        2001
         NFxFlg=           0 DoJE=T BraDBF=F KetDBF=F FulRan=T
         wScrn=  0.000000 ICntrl=       500 IOpCl=  0 I1Cent=           0 NGrid=           0
         NMat0=    1 NMatS0=      1 NMatT0=    0 NMatD0=    1 NMtDS0=    0 NMtDT0=    0
 Symmetry not used in FoFCou.
 FMM levels:  10  Number of levels for PrismC:   9
 E= -2048.24121466254    
 DIIS: error= 2.64D-02 at cycle   1 NSaved=   1.
 NSaved= 1 IEnMin= 1 EnMin= -2048.24121466254     IErMin= 1 ErrMin= 2.64D-02
 ErrMax= 2.64D-02  0.00D+00 EMaxC= 1.00D-01 BMatC= 8.44D-01 BMatP= 8.44D-01
 IDIUse=3 WtCom= 7.36D-01 WtEn= 2.64D-01
 Coeff-Com:  0.100D+01
 Coeff-En:   0.100D+01
 Coeff:      0.100D+01
 Gap=     0.247 Goal=   None    Shift=    0.000
 GapD=    0.247 DampG=1.000 DampE=0.500 DampFc=0.5000 IDamp=-1.
 Damping current iteration by 5.00D-01
 RMSDP=1.66D-03 MaxDP=1.20D-01              OVMax= 1.91D-01

 Cycle   2  Pass 0  IDiag  1:
 RMSU=  8.28D-04    CP:  9.97D-01
 E= -2048.43783437324     Delta-E=       -0.196619710706 Rises=F Damp=T
 DIIS: error= 1.25D-02 at cycle   2 NSaved=   2.
 NSaved= 2 IEnMin= 2 EnMin= -2048.43783437324     IErMin= 2 ErrMin= 1.25D-02
 ErrMax= 1.25D-02  0.00D+00 EMaxC= 1.00D-01 BMatC= 1.48D-01 BMatP= 8.44D-01
 IDIUse=3 WtCom= 8.75D-01 WtEn= 1.25D-01
 Coeff-Com: -0.166D+00 0.117D+01
 Coeff-En:   0.000D+00 0.100D+01
 Coeff:     -0.145D+00 0.115D+01
 Gap=     0.360 Goal=   None    Shift=    0.000
 RMSDP=6.23D-04 MaxDP=3.49D-02 DE=-1.97D-01 OVMax= 1.31D-01

 Cycle   3  Pass 0  IDiag  1:
 RMSU=  6.17D-04    CP:  9.93D-01  1.08D+00
 E= -2048.61880692123     Delta-E=       -0.180972547992 Rises=F Damp=F
 DIIS: error= 7.53D-03 at cycle   3 NSaved=   3.
 NSaved= 3 IEnMin= 3 EnMin= -2048.61880692123     IErMin= 3 ErrMin= 7.53D-03
 ErrMax= 7.53D-03  0.00D+00 EMaxC= 1.00D-01 BMatC= 7.37D-02 BMatP= 1.48D-01
 IDIUse=3 WtCom= 9.25D-01 WtEn= 7.53D-02
 Coeff-Com: -0.230D+00 0.558D+00 0.672D+00
 Coeff-En:   0.000D+00 0.000D+00 0.100D+01
 Coeff:     -0.212D+00 0.516D+00 0.697D+00
 Gap=     0.274 Goal=   None    Shift=    0.000
 RMSDP=4.02D-04 MaxDP=2.99D-02 DE=-1.81D-01 OVMax= 7.78D-02

 Cycle   4  Pass 0  IDiag  1:
 RMSU=  2.22D-04    CP:  9.94D-01  1.39D+00  6.48D-01
 E= -2048.67436375488     Delta-E=       -0.055556833647 Rises=F Damp=F
 DIIS: error= 3.09D-03 at cycle   4 NSaved=   4.
 NSaved= 4 IEnMin= 4 EnMin= -2048.67436375488     IErMin= 4 ErrMin= 3.09D-03
 ErrMax= 3.09D-03  0.00D+00 EMaxC= 1.00D-01 BMatC= 1.09D-02 BMatP= 7.37D-02
 IDIUse=3 WtCom= 9.69D-01 WtEn= 3.09D-02
 Coeff-Com: -0.949D-01 0.184D+00 0.376D+00 0.535D+00
 Coeff-En:   0.000D+00 0.000D+00 0.822D-01 0.918D+00
 Coeff:     -0.920D-01 0.178D+00 0.367D+00 0.547D+00
 Gap=     0.279 Goal=   None    Shift=    0.000
 RMSDP=1.41D-04 MaxDP=1.26D-02 DE=-5.56D-02 OVMax= 1.72D-02

 Cycle   5  Pass 0  IDiag  1:
 RMSU=  6.38D-05    CP:  9.93D-01  1.36D+00  7.91D-01  6.21D-01
 E= -2048.68350337763     Delta-E=       -0.009139622748 Rises=F Damp=F
 DIIS: error= 5.94D-04 at cycle   5 NSaved=   5.
 NSaved= 5 IEnMin= 5 EnMin= -2048.68350337763     IErMin= 5 ErrMin= 5.94D-04
 ErrMax= 5.94D-04  0.00D+00 EMaxC= 1.00D-01 BMatC= 3.18D-04 BMatP= 1.09D-02
 IDIUse=3 WtCom= 9.94D-01 WtEn= 5.94D-03
 Coeff-Com: -0.244D-01 0.415D-01 0.120D+00 0.238D+00 0.625D+00
 Coeff-En:   0.000D+00 0.000D+00 0.000D+00 0.000D+00 0.100D+01
 Coeff:     -0.242D-01 0.412D-01 0.119D+00 0.237D+00 0.627D+00
 Gap=     0.279 Goal=   None    Shift=    0.000
 RMSDP=2.77D-05 MaxDP=1.97D-03 DE=-9.14D-03 OVMax= 3.28D-03

 Failed to achieve initial convergence to 1.0D-08 in  6 cycles.
 Switch to full accuracy anyway.
 Cycle   6  Pass 1  IDiag  1:
 E= -2048.68377974552     Delta-E=       -0.000276367889 Rises=F Damp=F
 DIIS: error= 1.95D-04 at cycle   1 NSaved=   1.
 NSaved= 1 IEnMin= 1 EnMin= -2048.68377974552     IErMin= 1 ErrMin= 1.95D-04
 ErrMax= 1.95D-04  0.00D+00 EMaxC= 1.00D-01 BMatC= 7.76D-05 BMatP= 7.76D-05
 IDIUse=3 WtCom= 9.98D-01 WtEn= 1.95D-03
 Coeff-Com:  0.100D+01
 Coeff-En:   0.100D+01
 Coeff:      0.100D+01
 Gap=     0.279 Goal=   None    Shift=    0.000
 RMSDP=2.77D-05 MaxDP=1.97D-03 DE=-2.76D-04 OVMax= 2.14D-03

 Cycle   7  Pass 1  IDiag  1:
 RMSU=  1.10D-04    CP:  1.00D+00
 E= -2048.68383403481     Delta-E=       -0.000054289288 Rises=F Damp=F
 DIIS: error= 2.77D-04 at cycle   2 NSaved=   2.
 NSaved= 2 IEnMin= 2 EnMin= -2048.68383403481     IErMin= 1 ErrMin= 1.95D-04
 ErrMax= 2.77D-04  0.00D+00 EMaxC= 1.00D-01 BMatC= 4.60D-05 BMatP= 7.76D-05
 IDIUse=3 WtCom= 9.97D-01 WtEn= 2.77D-03
 Coeff-Com:  0.413D+00 0.587D+00
 Coeff-En:   0.000D+00 0.100D+01
 Coeff:      0.412D+00 0.588D+00
 Gap=     0.279 Goal=   None    Shift=    0.000
 RMSDP=1.18D-05 MaxDP=1.24D-03 DE=-5.43D-05 OVMax= 1.40D-03

 Cycle   8  Pass 1  IDiag  1:
 RMSU=  1.15D-05    CP:  1.00D+00  1.02D+00
 E= -2048.68386740806     Delta-E=       -0.000033373251 Rises=F Damp=F
 DIIS: error= 1.14D-04 at cycle   3 NSaved=   3.
 NSaved= 3 IEnMin= 3 EnMin= -2048.68386740806     IErMin= 3 ErrMin= 1.14D-04
 ErrMax= 1.14D-04  0.00D+00 EMaxC= 1.00D-01 BMatC= 1.03D-05 BMatP= 4.60D-05
 IDIUse=3 WtCom= 9.99D-01 WtEn= 1.14D-03
 Coeff-Com: -0.171D-01 0.308D+00 0.709D+00
 Coeff-En:   0.000D+00 0.123D+00 0.877D+00
 Coeff:     -0.170D-01 0.307D+00 0.710D+00
 Gap=     0.279 Goal=   None    Shift=    0.000
 RMSDP=5.79D-06 MaxDP=5.29D-04 DE=-3.34D-05 OVMax= 6.09D-04

 Cycle   9  Pass 1  IDiag  1:
 RMSU=  4.08D-06    CP:  1.00D+00  1.05D+00  7.69D-01
 E= -2048.68387701502     Delta-E=       -0.000009606960 Rises=F Damp=F
 DIIS: error= 2.56D-05 at cycle   4 NSaved=   4.
 NSaved= 4 IEnMin= 4 EnMin= -2048.68387701502     IErMin= 4 ErrMin= 2.56D-05
 ErrMax= 2.56D-05  0.00D+00 EMaxC= 1.00D-01 BMatC= 5.70D-07 BMatP= 1.03D-05
 IDIUse=1 WtCom= 1.00D+00 WtEn= 0.00D+00
 Coeff-Com: -0.311D-01 0.877D-01 0.273D+00 0.670D+00
 Coeff:     -0.311D-01 0.877D-01 0.273D+00 0.670D+00
 Gap=     0.279 Goal=   None    Shift=    0.000
 RMSDP=1.54D-06 MaxDP=1.27D-04 DE=-9.61D-06 OVMax= 4.13D-04

 Cycle  10  Pass 1  IDiag  1:
 RMSU=  1.39D-06    CP:  1.00D+00  1.05D+00  8.04D-01  1.09D+00
 E= -2048.68387792666     Delta-E=       -0.000000911645 Rises=F Damp=F
 DIIS: error= 1.08D-05 at cycle   5 NSaved=   5.
 NSaved= 5 IEnMin= 5 EnMin= -2048.68387792666     IErMin= 5 ErrMin= 1.08D-05
 ErrMax= 1.08D-05  0.00D+00 EMaxC= 1.00D-01 BMatC= 1.39D-07 BMatP= 5.70D-07
 IDIUse=1 WtCom= 1.00D+00 WtEn= 0.00D+00
 Coeff-Com: -0.497D-02-0.501D-01-0.107D+00 0.225D+00 0.937D+00
 Coeff:     -0.497D-02-0.501D-01-0.107D+00 0.225D+00 0.937D+00
 Gap=     0.279 Goal=   None    Shift=    0.000
 RMSDP=1.27D-06 MaxDP=7.16D-05 DE=-9.12D-07 OVMax= 2.07D-04

 Cycle  11  Pass 1  IDiag  1:
 RMSU=  5.23D-07    CP:  1.00D+00  1.05D+00  8.15D-01  1.37D+00  1.16D+00
 E= -2048.68387821116     Delta-E=       -0.000000284504 Rises=F Damp=F
 DIIS: error= 5.29D-06 at cycle   6 NSaved=   6.
 NSaved= 6 IEnMin= 6 EnMin= -2048.68387821116     IErMin= 6 ErrMin= 5.29D-06
 ErrMax= 5.29D-06  0.00D+00 EMaxC= 1.00D-01 BMatC= 3.29D-08 BMatP= 1.39D-07
 IDIUse=1 WtCom= 1.00D+00 WtEn= 0.00D+00
 Coeff-Com:  0.456D-02-0.454D-01-0.119D+00-0.268D-02 0.507D+00 0.655D+00
 Coeff:      0.456D-02-0.454D-01-0.119D+00-0.268D-02 0.507D+00 0.655D+00
 Gap=     0.279 Goal=   None    Shift=    0.000
 RMSDP=4.43D-07 MaxDP=2.88D-05 DE=-2.85D-07 OVMax= 1.11D-04

 Cycle  12  Pass 1  IDiag  1:
 RMSU=  2.01D-07    CP:  1.00D+00  1.05D+00  8.17D-01  1.45D+00  1.30D+00
                    CP:  9.41D-01
 E= -2048.68387826192     Delta-E=       -0.000000050757 Rises=F Damp=F
 DIIS: error= 1.05D-06 at cycle   7 NSaved=   7.
 NSaved= 7 IEnMin= 7 EnMin= -2048.68387826192     IErMin= 7 ErrMin= 1.05D-06
 ErrMax= 1.05D-06  0.00D+00 EMaxC= 1.00D-01 BMatC= 9.18D-10 BMatP= 3.29D-08
 IDIUse=1 WtCom= 1.00D+00 WtEn= 0.00D+00
 Coeff-Com:  0.119D-02-0.815D-02-0.230D-01-0.869D-02 0.638D-01 0.146D+00
 Coeff-Com:  0.829D+00
 Coeff:      0.119D-02-0.815D-02-0.230D-01-0.869D-02 0.638D-01 0.146D+00
 Coeff:      0.829D+00
 Gap=     0.279 Goal=   None    Shift=    0.000
 RMSDP=9.23D-08 MaxDP=4.52D-06 DE=-5.08D-08 OVMax= 2.05D-05

 Cycle  13  Pass 1  IDiag  1:
 RMSU=  5.52D-08    CP:  1.00D+00  1.05D+00  8.17D-01  1.46D+00  1.32D+00
                    CP:  1.02D+00  1.15D+00
 E= -2048.68387826415     Delta-E=       -0.000000002231 Rises=F Damp=F
 DIIS: error= 5.04D-07 at cycle   8 NSaved=   8.
 NSaved= 8 IEnMin= 8 EnMin= -2048.68387826415     IErMin= 8 ErrMin= 5.04D-07
 ErrMax= 5.04D-07  0.00D+00 EMaxC= 1.00D-01 BMatC= 4.00D-10 BMatP= 9.18D-10
 IDIUse=1 WtCom= 1.00D+00 WtEn= 0.00D+00
 Coeff-Com: -0.742D-03 0.940D-02 0.234D-01-0.172D-02-0.117D+00-0.118D+00
 Coeff-Com:  0.422D+00 0.782D+00
 Coeff:     -0.742D-03 0.940D-02 0.234D-01-0.172D-02-0.117D+00-0.118D+00
 Coeff:      0.422D+00 0.782D+00
 Gap=     0.279 Goal=   None    Shift=    0.000
 RMSDP=5.59D-08 MaxDP=2.66D-06 DE=-2.23D-09 OVMax= 1.06D-05

 Cycle  14  Pass 1  IDiag  1:
 RMSU=  3.03D-08    CP:  1.00D+00  1.05D+00  8.16D-01  1.47D+00  1.33D+00
                    CP:  1.07D+00  1.32D+00  1.09D+00
 E= -2048.68387826492     Delta-E=       -0.000000000768 Rises=F Damp=F
 DIIS: error= 1.57D-07 at cycle   9 NSaved=   9.
 NSaved= 9 IEnMin= 9 EnMin= -2048.68387826492     IErMin= 9 ErrMin= 1.57D-07
 ErrMax= 1.57D-07  0.00D+00 EMaxC= 1.00D-01 BMatC= 2.86D-11 BMatP= 4.00D-10
 IDIUse=1 WtCom= 1.00D+00 WtEn= 0.00D+00
 Coeff-Com: -0.404D-03 0.442D-02 0.112D-01 0.385D-03-0.500D-01-0.597D-01
 Coeff-Com:  0.778D-01 0.276D+00 0.740D+00
 Coeff:     -0.404D-03 0.442D-02 0.112D-01 0.385D-03-0.500D-01-0.597D-01
 Coeff:      0.778D-01 0.276D+00 0.740D+00
 Gap=     0.279 Goal=   None    Shift=    0.000
 RMSDP=1.44D-08 MaxDP=7.11D-07 DE=-7.68D-10 OVMax= 2.88D-06

 Cycle  15  Pass 1  IDiag  1:
 RMSU=  9.53D-09    CP:  1.00D+00  1.05D+00  8.16D-01  1.47D+00  1.33D+00
                    CP:  1.08D+00  1.35D+00  1.22D+00  1.13D+00
 E= -2048.68387826489     Delta-E=        0.000000000028 Rises=F Damp=F
 DIIS: error= 6.13D-08 at cycle  10 NSaved=  10.
 NSaved=10 IEnMin= 9 EnMin= -2048.68387826492     IErMin=10 ErrMin= 6.13D-08
 ErrMax= 6.13D-08  0.00D+00 EMaxC= 1.00D-01 BMatC= 5.10D-12 BMatP= 2.86D-11
 IDIUse=1 WtCom= 1.00D+00 WtEn= 0.00D+00
 Coeff-Com:  0.145D-04-0.424D-03-0.951D-03 0.133D-03 0.669D-02 0.330D-02
 Coeff-Com: -0.527D-01-0.691D-01 0.259D+00 0.853D+00
 Coeff:      0.145D-04-0.424D-03-0.951D-03 0.133D-03 0.669D-02 0.330D-02
 Coeff:     -0.527D-01-0.691D-01 0.259D+00 0.853D+00
 Gap=     0.279 Goal=   None    Shift=    0.000
 RMSDP=6.88D-09 MaxDP=3.26D-07 DE= 2.82D-11 OVMax= 1.30D-06

 SCF Done:  E(RwB97XD) =  -2048.68387826     A.U. after   15 cycles
            NFock= 15  Conv=0.69D-08     -V/T= 2.0052
 KE= 2.038133562863D+03 PE=-1.608450916311D+04 EE= 6.345778674297D+03
 Leave Link  502 at Thu Jan 25 06:36:22 2018, MaxMem=  4294967296 cpu:           23483.4 elap:             756.7
 (Enter /share/apps/g16/l601.exe)
 Copying SCF densities to generalized density rwf, IOpCl= 0 IROHF=0.

 **********************************************************************

            Population analysis using the SCF density.

 **********************************************************************

 Orbital symmetries:
       Occupied  (A) (A) (A) (A) (A) (A) (A) (A) (A) (A) (A) (A)
                 (A) (A) (A) (A) (A) (A) (A) (A) (A) (A) (A) (A)
                 (A) (A) (A) (A) (A) (A) (A) (A) (A) (A) (A) (A)
                 (A) (A) (A) (A) (A) (A) (A) (A) (A) (A) (A) (A)
                 (A) (A) (A) (A) (A) (A) (A) (A) (A) (A) (A) (A)
                 (A) (A) (A) (A) (A) (A) (A) (A) (A) (A) (A) (A)
                 (A) (A) (A) (A) (A) (A) (A) (A) (A) (A) (A) (A)
                 (A) (A) (A) (A) (A) (A) (A) (A) (A) (A) (A) (A)
                 (A) (A) (A) (A) (A) (A) (A) (A) (A) (A) (A) (A)
                 (A) (A) (A) (A) (A) (A) (A) (A) (A) (A) (A) (A)
                 (A) (A) (A) (A) (A) (A) (A) (A) (A) (A) (A) (A)
                 (A) (A) (A) (A) (A) (A) (A) (A) (A) (A) (A) (A)
                 (A) (A) (A) (A) (A) (A) (A) (A) (A) (A)
       Virtual   (A) (A) (A) (A) (A) (A) (A) (A) (A) (A) (A) (A)
                 (A) (A) (A) (A) (A) (A) (A) (A) (A) (A) (A) (A)
                 (A) (A) (A) (A) (A) (A) (A) (A) (A) (A) (A) (A)
                 (A) (A) (A) (A) (A) (A) (A) (A) (A) (A) (A) (A)
                 (A) (A) (A) (A) (A) (A) (A) (A) (A) (A) (A) (A)
                 (A) (A) (A) (A) (A) (A) (A) (A) (A) (A) (A) (A)
                 (A) (A) (A) (A) (A) (A) (A) (A) (A) (A) (A) (A)
                 (A) (A) (A) (A) (A) (A) (A) (A) (A) (A) (A) (A)
                 (A) (A) (A) (A) (A) (A) (A) (A) (A) (A) (A) (A)
                 (A) (A) (A) (A) (A) (A) (A) (A) (A) (A) (A) (A)
                 (A) (A) (A) (A) (A) (A) (A) (A) (A) (A) (A) (A)
                 (A) (A) (A) (A) (A) (A) (A) (A) (A) (A) (A) (A)
                 (A) (A) (A) (A) (A) (A) (A) (A) (A) (A) (A) (A)
                 (A) (A) (A) (A) (A) (A) (A) (A) (A) (A) (A) (A)
                 (A) (A) (A) (A) (A) (A) (A) (A) (A) (A) (A) (A)
                 (A) (A) (A) (A) (A) (A) (A) (A) (A) (A) (A) (A)
                 (A) (A) (A) (A) (A) (A) (A) (A) (A) (A) (A) (A)
                 (A) (A) (A) (A) (A) (A) (A) (A) (A) (A) (A) (A)
                 (A) (A) (A) (A) (A) (A) (A) (A) (A) (A) (A) (A)
                 (A) (A) (A) (A) (A) (A) (A) (A) (A) (A) (A) (A)
                 (A) (A) (A) (A) (A) (A) (A) (A) (A) (A) (A) (A)
                 (A) (A) (A) (A) (A) (A) (A) (A) (A) (A) (A) (A)
                 (A) (A) (A) (A) (A) (A) (A) (A) (A) (A) (A) (A)
                 (A) (A) (A) (A) (A) (A) (A) (A) (A) (A) (A) (A)
                 (A) (A) (A) (A) (A) (A) (A) (A) (A) (A) (A) (A)
                 (A) (A) (A) (A) (A) (A) (A) (A) (A) (A) (A) (A)
                 (A) (A) (A) (A) (A) (A) (A) (A) (A) (A) (A) (A)
                 (A) (A) (A) (A) (A) (A) (A) (A) (A) (A) (A) (A)
                 (A) (A) (A) (A) (A) (A) (A) (A) (A) (A) (A) (A)
                 (A) (A) (A) (A) (A) (A) (A) (A) (A) (A) (A) (A)
                 (A) (A) (A) (A) (A) (A) (A) (A) (A) (A) (A) (A)
                 (A) (A) (A) (A) (A) (A) (A) (A) (A) (A) (A) (A)
                 (A) (A) (A) (A) (A) (A) (A) (A) (A) (A) (A) (A)
                 (A) (A) (A) (A) (A) (A) (A) (A) (A) (A) (A) (A)
                 (A) (A) (A) (A) (A) (A) (A) (A) (A) (A) (A) (A)
                 (A) (A) (A) (A) (A) (A) (A) (A) (A) (A) (A) (A)
                 (A) (A) (A) (A) (A) (A) (A) (A) (A) (A) (A) (A)
                 (A) (A) (A) (A) (A) (A) (A) (A) (A) (A) (A) (A)
                 (A) (A) (A) (A) (A) (A) (A) (A) (A) (A) (A) (A)
                 (A) (A) (A) (A) (A) (A) (A) (A) (A) (A) (A) (A)
                 (A) (A) (A) (A) (A) (A) (A) (A) (A) (A) (A) (A)
                 (A) (A) (A) (A) (A) (A) (A) (A) (A) (A) (A) (A)
                 (A) (A) (A) (A) (A) (A) (A) (A) (A) (A) (A) (A)
                 (A) (A) (A) (A) (A) (A) (A) (A) (A) (A) (A) (A)
                 (A) (A) (A) (A) (A) (A) (A) (A) (A) (A) (A) (A)
                 (A) (A) (A) (A) (A) (A) (A) (A) (A) (A) (A) (A)
                 (A) (A) (A) (A) (A) (A) (A) (A) (A) (A) (A) (A)
                 (A) (A) (A) (A) (A) (A) (A) (A) (A) (A) (A) (A)
                 (A) (A) (A) (A) (A) (A) (A)
 The electronic state is 1-A.
 Alpha  occ. eigenvalues --  -19.25290 -19.21740 -19.20618 -14.52225 -14.51950
 Alpha  occ. eigenvalues --  -14.50139 -14.48468 -14.47453 -14.46978 -14.46726
 Alpha  occ. eigenvalues --  -14.46523 -14.44650 -14.43559 -14.43469 -14.43155
 Alpha  occ. eigenvalues --  -14.42652 -14.41857 -14.41715 -14.41045 -14.40657
 Alpha  occ. eigenvalues --  -10.45017 -10.41016 -10.39775 -10.38974 -10.38133
 Alpha  occ. eigenvalues --  -10.37432 -10.37288 -10.36465 -10.36447 -10.35293
 Alpha  occ. eigenvalues --  -10.34944 -10.34774 -10.34490 -10.34069 -10.34013
 Alpha  occ. eigenvalues --  -10.33144 -10.33108 -10.32339 -10.31900 -10.30684
 Alpha  occ. eigenvalues --  -10.30057 -10.29648 -10.27913  -1.19118  -1.14621
 Alpha  occ. eigenvalues --   -1.13134  -1.12692  -1.12687  -1.10408  -1.09179
 Alpha  occ. eigenvalues --   -1.08442  -1.08324  -1.06042  -1.03901  -1.02278
 Alpha  occ. eigenvalues --   -1.01535  -1.00440  -0.99586  -0.98365  -0.98235
 Alpha  occ. eigenvalues --   -0.96314  -0.96047  -0.93674  -0.90978  -0.88098
 Alpha  occ. eigenvalues --   -0.86258  -0.85182  -0.83852  -0.83557  -0.83271
 Alpha  occ. eigenvalues --   -0.82082  -0.78656  -0.76310  -0.74488  -0.74100
 Alpha  occ. eigenvalues --   -0.74027  -0.73480  -0.73299  -0.72153  -0.70011
 Alpha  occ. eigenvalues --   -0.67457  -0.67332  -0.67112  -0.65886  -0.65064
 Alpha  occ. eigenvalues --   -0.63974  -0.63849  -0.63434  -0.63174  -0.62483
 Alpha  occ. eigenvalues --   -0.61557  -0.61304  -0.60102  -0.59370  -0.59064
 Alpha  occ. eigenvalues --   -0.58863  -0.58182  -0.57901  -0.57605  -0.56528
 Alpha  occ. eigenvalues --   -0.55998  -0.55585  -0.55486  -0.54942  -0.54216
 Alpha  occ. eigenvalues --   -0.53997  -0.53397  -0.53153  -0.52988  -0.52543
 Alpha  occ. eigenvalues --   -0.52531  -0.51852  -0.51405  -0.51226  -0.50225
 Alpha  occ. eigenvalues --   -0.49856  -0.49579  -0.49291  -0.49200  -0.48939
 Alpha  occ. eigenvalues --   -0.48464  -0.48181  -0.48064  -0.47953  -0.47520
 Alpha  occ. eigenvalues --   -0.47187  -0.46163  -0.45271  -0.43360  -0.42273
 Alpha  occ. eigenvalues --   -0.41983  -0.40032  -0.39096  -0.38237  -0.37243
 Alpha  occ. eigenvalues --   -0.37071  -0.37026  -0.36902  -0.35895  -0.34673
 Alpha  occ. eigenvalues --   -0.34615  -0.34106  -0.33727  -0.33470  -0.32948
 Alpha  occ. eigenvalues --   -0.32622  -0.32467  -0.31752  -0.31413  -0.31294
 Alpha  occ. eigenvalues --   -0.31124  -0.28650  -0.26884  -0.25307
 Alpha virt. eigenvalues --    0.02602   0.05439   0.06689   0.06783   0.09187
 Alpha virt. eigenvalues --    0.09396   0.09775   0.10441   0.11245   0.12104
 Alpha virt. eigenvalues --    0.12823   0.13298   0.14524   0.14671   0.15039
 Alpha virt. eigenvalues --    0.15253   0.16405   0.17408   0.17891   0.18341
 Alpha virt. eigenvalues --    0.18401   0.18672   0.19084   0.19253   0.20646
 Alpha virt. eigenvalues --    0.20838   0.21366   0.21792   0.22224   0.22419
 Alpha virt. eigenvalues --    0.22557   0.22800   0.23139   0.23536   0.23989
 Alpha virt. eigenvalues --    0.24251   0.24823   0.25582   0.25923   0.26245
 Alpha virt. eigenvalues --    0.26518   0.27354   0.27542   0.28509   0.28644
 Alpha virt. eigenvalues --    0.29241   0.29400   0.30034   0.30347   0.31586
 Alpha virt. eigenvalues --    0.32138   0.32485   0.33269   0.33662   0.34033
 Alpha virt. eigenvalues --    0.34397   0.34498   0.35702   0.36048   0.36709
 Alpha virt. eigenvalues --    0.36867   0.37108   0.38203   0.38332   0.39389
 Alpha virt. eigenvalues --    0.39931   0.40369   0.41023   0.41857   0.42173
 Alpha virt. eigenvalues --    0.42508   0.42740   0.43250   0.43607   0.44263
 Alpha virt. eigenvalues --    0.45339   0.45780   0.46193   0.47078   0.47444
 Alpha virt. eigenvalues --    0.47811   0.47973   0.48380   0.48578   0.49431
 Alpha virt. eigenvalues --    0.50079   0.50358   0.50723   0.51182   0.51368
 Alpha virt. eigenvalues --    0.52054   0.52528   0.52851   0.53481   0.53834
 Alpha virt. eigenvalues --    0.54306   0.55019   0.55249   0.55330   0.55578
 Alpha virt. eigenvalues --    0.56007   0.56192   0.56711   0.57362   0.57588
 Alpha virt. eigenvalues --    0.58233   0.58355   0.59210   0.59843   0.60371
 Alpha virt. eigenvalues --    0.60723   0.60832   0.61296   0.61465   0.62139
 Alpha virt. eigenvalues --    0.62365   0.63110   0.63360   0.63380   0.64145
 Alpha virt. eigenvalues --    0.64173   0.64632   0.65264   0.65433   0.66312
 Alpha virt. eigenvalues --    0.66766   0.66916   0.67309   0.67677   0.68060
 Alpha virt. eigenvalues --    0.68789   0.68932   0.69445   0.70064   0.71057
 Alpha virt. eigenvalues --    0.71094   0.71525   0.71740   0.72433   0.73053
 Alpha virt. eigenvalues --    0.73353   0.73756   0.74234   0.74337   0.74931
 Alpha virt. eigenvalues --    0.75304   0.75615   0.75970   0.76221   0.76413
 Alpha virt. eigenvalues --    0.76736   0.76979   0.77197   0.77576   0.78127
 Alpha virt. eigenvalues --    0.78557   0.78726   0.78940   0.79078   0.79586
 Alpha virt. eigenvalues --    0.80265   0.80700   0.80862   0.81306   0.81743
 Alpha virt. eigenvalues --    0.82163   0.82561   0.82897   0.83309   0.83535
 Alpha virt. eigenvalues --    0.84396   0.84737   0.85380   0.85938   0.86322
 Alpha virt. eigenvalues --    0.86479   0.87399   0.87601   0.88529   0.89085
 Alpha virt. eigenvalues --    0.89460   0.89648   0.90381   0.90610   0.91078
 Alpha virt. eigenvalues --    0.91585   0.92266   0.92612   0.93409   0.93934
 Alpha virt. eigenvalues --    0.94360   0.94766   0.95322   0.95628   0.96282
 Alpha virt. eigenvalues --    0.96535   0.96832   0.96937   0.97165   0.97996
 Alpha virt. eigenvalues --    0.98585   0.99004   0.99463   1.00001   1.00202
 Alpha virt. eigenvalues --    1.00620   1.00955   1.01724   1.02502   1.02812
 Alpha virt. eigenvalues --    1.03070   1.03810   1.04256   1.04503   1.04789
 Alpha virt. eigenvalues --    1.05270   1.05508   1.05571   1.06746   1.07312
 Alpha virt. eigenvalues --    1.08321   1.09042   1.09330   1.09714   1.09855
 Alpha virt. eigenvalues --    1.10432   1.10660   1.11080   1.11200   1.12157
 Alpha virt. eigenvalues --    1.12300   1.12863   1.13509   1.14362   1.14452
 Alpha virt. eigenvalues --    1.14972   1.15663   1.16008   1.16605   1.17066
 Alpha virt. eigenvalues --    1.17490   1.18001   1.18233   1.18526   1.18655
 Alpha virt. eigenvalues --    1.19465   1.19963   1.20378   1.20520   1.20960
 Alpha virt. eigenvalues --    1.21270   1.21562   1.22257   1.23012   1.23219
 Alpha virt. eigenvalues --    1.24062   1.24493   1.24745   1.25156   1.25355
 Alpha virt. eigenvalues --    1.25571   1.26104   1.26741   1.27156   1.27836
 Alpha virt. eigenvalues --    1.28164   1.28617   1.29461   1.29822   1.30020
 Alpha virt. eigenvalues --    1.30960   1.31563   1.32096   1.32787   1.33367
 Alpha virt. eigenvalues --    1.33509   1.33931   1.34383   1.34610   1.36026
 Alpha virt. eigenvalues --    1.36264   1.36812   1.37449   1.38278   1.38771
 Alpha virt. eigenvalues --    1.39390   1.39847   1.40014   1.40658   1.41234
 Alpha virt. eigenvalues --    1.42019   1.43160   1.43912   1.45585   1.46147
 Alpha virt. eigenvalues --    1.46835   1.47472   1.48380   1.48933   1.49706
 Alpha virt. eigenvalues --    1.50551   1.51116   1.52331   1.53797   1.54296
 Alpha virt. eigenvalues --    1.54806   1.54852   1.55254   1.55746   1.57575
 Alpha virt. eigenvalues --    1.58031   1.58248   1.58588   1.58834   1.59942
 Alpha virt. eigenvalues --    1.61040   1.61710   1.62582   1.62842   1.63599
 Alpha virt. eigenvalues --    1.63845   1.64348   1.64562   1.65167   1.65839
 Alpha virt. eigenvalues --    1.66107   1.66304   1.67331   1.67887   1.68831
 Alpha virt. eigenvalues --    1.68963   1.69390   1.69587   1.69884   1.70325
 Alpha virt. eigenvalues --    1.71011   1.71393   1.72022   1.72408   1.73332
 Alpha virt. eigenvalues --    1.73398   1.73796   1.74320   1.74512   1.74586
 Alpha virt. eigenvalues --    1.75164   1.75474   1.76289   1.76453   1.76837
 Alpha virt. eigenvalues --    1.76893   1.77276   1.77712   1.78170   1.78778
 Alpha virt. eigenvalues --    1.78841   1.79455   1.79707   1.80266   1.80534
 Alpha virt. eigenvalues --    1.80996   1.81292   1.81601   1.82050   1.82501
 Alpha virt. eigenvalues --    1.82838   1.83596   1.84195   1.84927   1.85169
 Alpha virt. eigenvalues --    1.85629   1.85806   1.85891   1.86284   1.86809
 Alpha virt. eigenvalues --    1.87293   1.87792   1.88404   1.88722   1.89254
 Alpha virt. eigenvalues --    1.89507   1.89801   1.90654   1.91248   1.91341
 Alpha virt. eigenvalues --    1.91755   1.92391   1.92560   1.93372   1.94128
 Alpha virt. eigenvalues --    1.94471   1.95464   1.95954   1.96317   1.97182
 Alpha virt. eigenvalues --    1.97507   1.98028   1.98891   1.99014   2.00411
 Alpha virt. eigenvalues --    2.01147   2.01579   2.02557   2.03178   2.03314
 Alpha virt. eigenvalues --    2.03919   2.04573   2.05022   2.05253   2.07128
 Alpha virt. eigenvalues --    2.07419   2.08058   2.08414   2.08813   2.09971
 Alpha virt. eigenvalues --    2.10949   2.11439   2.11743   2.12097   2.13080
 Alpha virt. eigenvalues --    2.13596   2.13997   2.14164   2.15809   2.17536
 Alpha virt. eigenvalues --    2.17671   2.18093   2.18863   2.19706   2.20072
 Alpha virt. eigenvalues --    2.20391   2.20999   2.22775   2.23351   2.23950
 Alpha virt. eigenvalues --    2.24110   2.24342   2.25044   2.25449   2.26040
 Alpha virt. eigenvalues --    2.26409   2.27337   2.27468   2.28031   2.29098
 Alpha virt. eigenvalues --    2.29194   2.29492   2.29961   2.30629   2.31349
 Alpha virt. eigenvalues --    2.31999   2.32814   2.33323   2.33976   2.34406
 Alpha virt. eigenvalues --    2.34729   2.35231   2.35574   2.36572   2.36819
 Alpha virt. eigenvalues --    2.37233   2.37370   2.38147   2.38761   2.39651
 Alpha virt. eigenvalues --    2.40169   2.41056   2.41599   2.42318   2.42723
 Alpha virt. eigenvalues --    2.43796   2.44367   2.44523   2.45044   2.45349
 Alpha virt. eigenvalues --    2.46055   2.46640   2.47217   2.47574   2.48540
 Alpha virt. eigenvalues --    2.49724   2.50005   2.51318   2.52778   2.53283
 Alpha virt. eigenvalues --    2.54533   2.55933   2.56578   2.56946   2.57131
 Alpha virt. eigenvalues --    2.58369   2.59942   2.60401   2.61326   2.62180
 Alpha virt. eigenvalues --    2.63030   2.63678   2.64022   2.65241   2.66334
 Alpha virt. eigenvalues --    2.66505   2.67135   2.67293   2.68124   2.68494
 Alpha virt. eigenvalues --    2.68866   2.70311   2.71329   2.71590   2.72691
 Alpha virt. eigenvalues --    2.73039   2.73491   2.73797   2.74356   2.75418
 Alpha virt. eigenvalues --    2.75991   2.76240   2.77902   2.78739   2.78971
 Alpha virt. eigenvalues --    2.79462   2.79942   2.80693   2.81114   2.81442
 Alpha virt. eigenvalues --    2.81838   2.82337   2.83028   2.83253   2.83330
 Alpha virt. eigenvalues --    2.84048   2.84517   2.85031   2.86405   2.86804
 Alpha virt. eigenvalues --    2.87247   2.87437   2.88208   2.88772   2.89447
 Alpha virt. eigenvalues --    2.90890   2.92612   2.95001   2.95972   2.97184
 Alpha virt. eigenvalues --    2.98091   2.99092   2.99421   2.99953   3.00607
 Alpha virt. eigenvalues --    3.02465   3.03979   3.05901   3.06099   3.07480
 Alpha virt. eigenvalues --    3.10164   3.11108   3.13201   3.14769   3.16249
 Alpha virt. eigenvalues --    3.17172   3.18265   3.19516   3.22035   3.22853
 Alpha virt. eigenvalues --    3.23440   3.23727   3.25384   3.28127   3.45425
 Alpha virt. eigenvalues --    3.47531   3.48433   3.50156   3.50880   3.53009
 Alpha virt. eigenvalues --    3.55133   3.56298   3.56904   3.58426   3.60618
 Alpha virt. eigenvalues --    3.64466   3.70971   3.75640
          Condensed to atoms (all electrons):
 Mulliken charges:
               1
     1  N   -0.307489
     2  C    0.181579
     3  C    0.064509
     4  N   -0.245841
     5  C    0.120156
     6  H    0.028450
     7  N   -0.274751
     8  C    0.147156
     9  H    0.009399
    10  N   -0.279400
    11  C    0.204279
    12  C    0.073809
    13  N   -0.038908
    14  H    0.109734
    15  H    0.090260
    16  H    0.031162
    17  H    0.039154
    18  H    0.026832
    19  N   -0.290542
    20  C    0.230127
    21  C    0.217630
    22  N   -0.111407
    23  H    0.115935
    24  H    0.117001
    25  N   -0.294748
    26  C    0.217625
    27  N   -0.141507
    28  H    0.128185
    29  C    0.166248
    30  O   -0.323128
    31  C    0.000266
    32  N   -0.222815
    33  C    0.128644
    34  H    0.022030
    35  H   -0.022486
    36  H    0.033007
    37  H    0.017848
    38  H    0.049230
    39  H    0.054415
    40  H    0.069674
    41  H    0.027119
    42  C   -0.072788
    43  O   -0.266515
    44  C    0.168426
    45  H    0.133522
    46  N   -0.122908
    47  O   -0.331572
    48  C    0.325547
    49  H    0.041510
    50  C    0.149802
    51  C    0.050607
    52  N   -0.277235
    53  H    0.026999
    54  H    0.038252
    55  H   -0.015991
    56  H    0.119778
    57  H    0.120860
    58  N   -0.058442
    59  C    0.127358
    60  C    0.199383
    61  N   -0.256541
    62  H    0.037987
    63  C    0.142719
    64  N   -0.305254
    65  H    0.030137
    66  C    0.119890
    67  N   -0.243133
    68  C    0.030924
    69  C    0.215813
    70  N   -0.297576
 Sum of Mulliken charges =  -0.00000
 Mulliken charges with hydrogens summed into heavy atoms:
               1
     1  N   -0.307489
     2  C    0.278728
     3  C    0.064509
     4  N   -0.245841
     5  C    0.148606
     7  N   -0.274751
     8  C    0.156555
    10  N   -0.279400
    11  C    0.204279
    12  C    0.073809
    13  N    0.161086
    19  N   -0.290542
    20  C    0.230127
    21  C    0.245998
    22  N    0.121530
    25  N   -0.294748
    26  C    0.217625
    27  N   -0.013322
    29  C    0.166248
    30  O   -0.323128
    31  C    0.000266
    32  N   -0.222815
    33  C    0.150674
    42  C   -0.045669
    43  O   -0.266515
    44  C    0.168426
    46  N    0.010614
    47  O   -0.331572
    48  C    0.325547
    50  C    0.191311
    51  C    0.223926
    52  N   -0.277235
    58  N    0.182196
    59  C    0.127358
    60  C    0.199383
    61  N   -0.256541
    63  C    0.180706
    64  N   -0.305254
    66  C    0.150027
    67  N   -0.243133
    68  C    0.030924
    69  C    0.265073
    70  N   -0.297576
 Electronic spatial extent (au):  <R**2>=          22058.0526
 Charge=             -0.0000 electrons
 Dipole moment (field-independent basis, Debye):
    X=              3.8014    Y=             -4.9958    Z=             -5.9244  Tot=              8.6318
 Quadrupole moment (field-independent basis, Debye-Ang):
   XX=           -145.5365   YY=           -224.5814   ZZ=           -263.6685
   XY=            -14.4320   XZ=            -16.8865   YZ=              1.2217
 Traceless Quadrupole moment (field-independent basis, Debye-Ang):
   XX=             65.7257   YY=            -13.3192   ZZ=            -52.4064
   XY=            -14.4320   XZ=            -16.8865   YZ=              1.2217
 Octapole moment (field-independent basis, Debye-Ang**2):
  XXX=            -77.5397  YYY=              3.6663  ZZZ=            -62.6163  XYY=             39.5423
  XXY=           -113.9171  XXZ=            -44.0586  XZZ=             25.9606  YZZ=            -53.7269
  YYZ=            -25.8718  XYZ=             22.1050
 Hexadecapole moment (field-independent basis, Debye-Ang**3):
 XXXX=         -16215.1007 YYYY=          -3341.5701 ZZZZ=          -3337.7893 XXXY=           -597.4276
 XXXZ=           -302.3411 YYYX=             60.4769 YYYZ=            178.5142 ZZZX=           -159.4020
 ZZZY=            -14.0212 XXYY=          -4274.9740 XXZZ=          -4129.6421 YYZZ=          -1189.1661
 XXYZ=             33.8560 YYXZ=            -33.0336 ZZXY=           -105.5459
 N-N= 5.651913047687D+03 E-N=-1.608450915747D+04  KE= 2.038133562863D+03
 No NMR shielding tensors so no spin-rotation constants.
 Leave Link  601 at Thu Jan 25 06:36:24 2018, MaxMem=  4294967296 cpu:              49.0 elap:               1.7
 (Enter /share/apps/g16/l9999.exe)
 1\1\GINC-COMPUTE-0-3\SP\RwB97XD\CC-pVDZ\C23H27N17O3\SATYA\25-Jan-2018\
 0\\#p wb97xd/cc-pvdz sp scf=(maxcycles=20)\\Base pair stacking\\0,1\N,
 0,-1.26068,7.88241,-6.07327\C,0,-2.00529,9.14071,-5.87267\C,0,-0.72288
 ,5.75612,-6.23751\N,0,0.43503,6.47123,-6.50697\C,0,0.06468,7.72362,-6.
 39724\H,0,0.72352,8.58007,-6.54341\N,0,-2.2555,3.99662,-5.89377\C,0,-3
 .17075,4.94199,-5.65676\H,0,-4.16847,4.57449,-5.42063\N,0,-3.0392,6.26
 693,-5.66761\C,0,-1.77641,6.61237,-5.96838\C,0,-0.99421,4.37649,-6.193
 64\N,0,-0.07918,3.43428,-6.43054\H,0,0.8668,3.66965,-6.65623\H,0,-0.30
 791,2.46154,-6.39053\H,0,-1.97484,9.68494,-6.71116\H,0,-2.95634,8.9334
 7,-5.64531\H,0,-1.59117,9.65997,-5.1251\N,0,-1.17826,5.84092,-3.05415\
 C,0,-1.5785,4.52788,-2.99253\C,0,-2.07622,7.01122,-2.98529\N,0,-4.1069
 ,2.16456,-2.70325\H,0,-4.18615,1.16839,-2.67865\H,0,-4.95535,2.6892,-2
 .6284\N,0,-2.84911,4.08973,-2.8598\C,0,-2.91678,2.77057,-2.83088\N,0,-
 1.82486,1.94206,-2.92464\H,0,-1.97104,0.94475,-2.89341\C,0,-0.50837,2.
 37092,-3.06175\O,0,0.40518,1.54004,-3.13787\C,0,-0.41971,3.78583,-3.09
 435\N,0,0.68577,4.61629,-3.21741\C,0,0.18857,5.82301,-3.1887\H,0,0.776
 3,6.73868,-3.26211\H,0,-1.98989,7.54943,-3.82295\H,0,-3.02021,6.69902,
 -2.8869\H,0,-1.82969,7.57681,-2.19907\H,0,-3.42744,-3.90806,-3.31988\H
 ,0,-2.99216,-3.97175,-1.61368\H,0,-3.61948,-2.47633,-2.30763\H,0,1.363
 91,-4.19961,-3.6433\C,0,0.59567,-3.45931,-3.41968\O,0,2.03927,-1.60088
 ,-3.71859\C,0,0.9322,-2.06884,-3.45363\H,0,0.08675,-0.22693,-3.16918\N
 ,0,-0.1124,-1.21732,-3.15535\O,0,-2.2592,-0.73915,-2.58982\C,0,-1.4012
 8,-1.56755,-2.83961\H,0,-0.95989,-4.87626,-3.07572\C,0,-0.65291,-3.831
 96,-3.11506\C,0,-3.01118,-3.3486,-2.49538\N,0,-1.64766,-2.92636,-2.827
 47\H,0,-4.71385,-3.52371,-5.60467\H,0,-4.56052,-2.24941,-4.5973\H,0,-4
 .01709,-3.71958,-4.14194\H,0,1.51272,0.20174,-7.15912\H,0,1.38397,-1.4
 9129,-7.32391\N,0,0.97729,-0.63063,-7.01555\C,0,-0.22566,-0.59557,-6.4
 3861\C,0,-2.24387,-1.54064,-5.60472\N,0,-2.76513,-0.37046,-5.20052\H,0
 ,-2.27385,1.61908,-5.1686\C,0,-1.92745,0.63006,-5.46543\N,0,-0.72218,0
 .59698,-6.0432\H,0,-2.10038,-4.73238,-6.09911\C,0,-1.90438,-3.66091,-6
 .04929\N,0,-0.81473,-3.08136,-6.49027\C,0,-1.01702,-1.73682,-6.21453\C
 ,0,-4.13133,-3.09465,-4.91432\N,0,-2.81225,-2.78811,-5.50089\\Version=
 EM64L-G16RevA.03\State=1-A\HF=-2048.6838783\RMSD=6.877e-09\Dipole=-3.0
 468552,-1.4998432,0.0019687\Quadrupole=-24.8827366,48.4935767,-23.6108
 401,15.3167096,-15.8055081,-5.1992526\PG=C01 [X(C23H27N17O3)]\\@


 THESE ARE THE TIMES THAT TRY MENS SOULS.
 THE SUMMER SOLDIER AND THE SUNSHINE PATRIOT WILL IN THIS CRISIS,
 SHRINK FROM THE SERVICE OF HIS COUNTRY.  BUT HE THAT STANDS NOW,
 DESERVES THE LOVE AND THANKS OF MAN AND WOMAN.
 TYRANNY, LIKE HELL, IS NOT EASILY CONQUERED,
 YET WE HAVE THIS CONSOLATION WITH US,
 THAT THE HARDER THE CONFLICT, THE MORE GLORIOUS THE TRIUMPH.
 WHAT WE OBTAIN TOO CHEAP, WE ESTEEM TOO LIGHTLY, 
 'TIS DEARNESS ONLY THAT GIVES EVERYTHING ITS VALUE.

                                              -- TOM PAINE
 Job cpu time:       0 days  6 hours 41 minutes 56.5 seconds.
 Elapsed time:       0 days  0 hours 12 minutes 56.9 seconds.
 File lengths (MBytes):  RWF=    298 Int=      0 D2E=      0 Chk=     33 Scr=      1
 Normal termination of Gaussian 16 at Thu Jan 25 06:36:24 2018.
