 Entering Gaussian System, Link 0=g16
 Input=str5.15.1.5.com
 Output=str5.15.1.5.log
 Initial command:
 /share/apps/g16/l1.exe "/state/partition1/scr/Gau-27730.inp" -scrdir="/state/partition1/scr/"
 Entering Link 1 = /share/apps/g16/l1.exe PID=     27731.
  
 Copyright (c) 1988,1990,1992,1993,1995,1998,2003,2009,2016,
            Gaussian, Inc.  All Rights Reserved.
  
 This is part of the Gaussian(R) 16 program.  It is based on
 the Gaussian(R) 09 system (copyright 2009, Gaussian, Inc.),
 the Gaussian(R) 03 system (copyright 2003, Gaussian, Inc.),
 the Gaussian(R) 98 system (copyright 1998, Gaussian, Inc.),
 the Gaussian(R) 94 system (copyright 1995, Gaussian, Inc.),
 the Gaussian 92(TM) system (copyright 1992, Gaussian, Inc.),
 the Gaussian 90(TM) system (copyright 1990, Gaussian, Inc.),
 the Gaussian 88(TM) system (copyright 1988, Gaussian, Inc.),
 the Gaussian 86(TM) system (copyright 1986, Carnegie Mellon
 University), and the Gaussian 82(TM) system (copyright 1983,
 Carnegie Mellon University). Gaussian is a federally registered
 trademark of Gaussian, Inc.
  
 This software contains proprietary and confidential information,
 including trade secrets, belonging to Gaussian, Inc.
  
 This software is provided under written license and may be
 used, copied, transmitted, or stored only in accord with that
 written license.
  
 The following legend is applicable only to US Government
 contracts under FAR:
  
                    RESTRICTED RIGHTS LEGEND
  
 Use, reproduction and disclosure by the US Government is
 subject to restrictions as set forth in subparagraphs (a)
 and (c) of the Commercial Computer Software - Restricted
 Rights clause in FAR 52.227-19.
  
 Gaussian, Inc.
 340 Quinnipiac St., Bldg. 40, Wallingford CT 06492
  
  
 ---------------------------------------------------------------
 Warning -- This program may not be used in any manner that
 competes with the business of Gaussian, Inc. or will provide
 assistance to any competitor of Gaussian, Inc.  The licensee
 of this program is prohibited from giving any competitor of
 Gaussian, Inc. access to this program.  By using this program,
 the user acknowledges that Gaussian, Inc. is engaged in the
 business of creating and licensing software in the field of
 computational chemistry and represents and warrants to the
 licensee that it is not a competitor of Gaussian, Inc. and that
 it will not use this program in any manner prohibited above.
 ---------------------------------------------------------------
  

 Cite this work as:
 Gaussian 16, Revision A.03,
 M. J. Frisch, G. W. Trucks, H. B. Schlegel, G. E. Scuseria, 
 M. A. Robb, J. R. Cheeseman, G. Scalmani, V. Barone, 
 G. A. Petersson, H. Nakatsuji, X. Li, M. Caricato, A. V. Marenich, 
 J. Bloino, B. G. Janesko, R. Gomperts, B. Mennucci, H. P. Hratchian, 
 J. V. Ortiz, A. F. Izmaylov, J. L. Sonnenberg, D. Williams-Young, 
 F. Ding, F. Lipparini, F. Egidi, J. Goings, B. Peng, A. Petrone, 
 T. Henderson, D. Ranasinghe, V. G. Zakrzewski, J. Gao, N. Rega, 
 G. Zheng, W. Liang, M. Hada, M. Ehara, K. Toyota, R. Fukuda, 
 J. Hasegawa, M. Ishida, T. Nakajima, Y. Honda, O. Kitao, H. Nakai, 
 T. Vreven, K. Throssell, J. A. Montgomery, Jr., J. E. Peralta, 
 F. Ogliaro, M. J. Bearpark, J. J. Heyd, E. N. Brothers, K. N. Kudin, 
 V. N. Staroverov, T. A. Keith, R. Kobayashi, J. Normand, 
 K. Raghavachari, A. P. Rendell, J. C. Burant, S. S. Iyengar, 
 J. Tomasi, M. Cossi, J. M. Millam, M. Klene, C. Adamo, R. Cammi, 
 J. W. Ochterski, R. L. Martin, K. Morokuma, O. Farkas, 
 J. B. Foresman, and D. J. Fox, Gaussian, Inc., Wallingford CT, 2016.
 
 ******************************************
 Gaussian 16:  EM64L-G16RevA.03 25-Dec-2016
                25-Jan-2018 
 ******************************************
 %nprocshared=32
 Will use up to   32 processors via shared memory.
 %mem=32GB
 %chk=allatoms_t.chk
 ---------------------------------------
 #p wb97xd/cc-pvdz sp scf=(maxcycles=20)
 ---------------------------------------
 1/38=1,172=1/1;
 2/12=2,17=6,18=5,40=1/2;
 3/5=16,11=2,25=1,30=1,74=-58/1,2,3;
 4//1;
 5/5=2,7=20,38=5/2;
 6/7=2,8=2,9=2,10=2,28=1/1;
 99/5=1,9=1/99;
 Leave Link    1 at Thu Jan 25 12:26:06 2018, MaxMem=  4294967296 cpu:               2.7 elap:               0.1
 (Enter /share/apps/g16/l101.exe)
 ------------------
 Base pair stacking
 ------------------
 Symbolic Z-matrix:
 Charge =  0 Multiplicity = 1
 N                     1.22645   2.80259  -6.65793 
 C                     0.63357   4.04887  -7.18071 
 C                     1.62929   0.68706  -6.21123 
 N                     2.60689   1.41631  -5.55 
 C                     2.32506   2.66165  -5.84558 
 H                     2.89068   3.52538  -5.49487 
 N                     0.31839  -1.08978  -7.04029 
 C                    -0.42288  -0.15816  -7.64872 
 H                    -1.26006  -0.53826  -8.2326 
 N                    -0.2859    1.16628  -7.64421 
 C                     0.7712    1.52787  -6.89842 
 C                     1.37496  -0.69382  -6.29736 
 N                     2.11611  -1.62229  -5.68924 
 H                     2.90752  -1.37478  -5.12922 
 H                     1.90567  -2.59641  -5.77265 
 H                     1.31023   4.5351   -7.73377 
 H                    -0.16146   3.82937  -7.74539 
 H                     0.34869   4.63021  -6.41855 
 N                    -0.53031   3.35637  -3.54171 
 C                    -0.92457   2.04308  -3.63048 
 C                    -1.36863   4.52409  -3.87988 
 N                    -3.34859  -0.32475  -4.39158 
 H                    -3.43493  -1.32061  -4.3843 
 H                    -4.14721   0.19773  -4.69148 
 N                    -2.13431   1.6023   -4.03827 
 C                    -2.21329   0.28363  -4.01623 
 N                    -1.18722  -0.54202  -3.62509 
 H                    -1.33704  -1.53917  -3.64003 
 C                     0.06591  -0.11042  -3.20173 
 O                     0.92283  -0.93884  -2.86984 
 C                     0.16588   1.30399  -3.22003 
 N                     1.22344   2.13653  -2.8804 
 C                     0.76554   3.34154  -3.08652 
 H                     1.33312   4.25808  -2.92197 
 H                    -0.93465   5.04705  -4.61266 
 H                    -2.26724   4.20992  -4.1833 
 H                    -1.47458   5.10512  -3.07366 
 H                    -2.49739  -6.40492  -4.55146 
 H                    -2.82307  -6.43526  -2.82008 
 H                    -3.09277  -4.95551  -3.74147 
 H                     1.98164  -6.6829   -2.81723 
 C                     1.19385  -5.94173  -2.95243 
 O                     2.63639  -4.08329  -2.64852 
 C                     1.519    -4.55077  -2.8669 
 H                     0.64007  -2.70737  -2.99993 
 N                     0.44961  -3.69813  -3.05311 
 O                    -1.73333  -3.21833  -3.45532 
 C                    -0.85355  -4.0477   -3.30436 
 H                    -0.36738  -7.3584   -3.27092 
 C                    -0.06818  -6.31376  -3.19634 
 C                    -2.46566  -5.82862  -3.63881 
 N                    -1.08764  -5.40704  -3.37221 
 H                    -1.73924  -8.64272  -8.22411 
 H                    -2.36586  -7.29847  -7.5441 
 H                    -2.40998  -8.71713  -6.73818 
 H                     3.59418  -4.84813  -4.72822 
 H                     3.58074  -6.55156  -4.81899 
 N                     3.11113  -5.68434  -4.98814 
 C                     1.89478  -5.64582  -5.53604 
 C                    -0.07683  -6.59144  -6.47426 
 N                    -0.68336  -5.41242  -6.6898 
 H                    -0.32449  -3.41159  -6.42809 
 C                     0.09312  -4.40782  -6.28886 
 N                     1.31167  -4.44436  -5.73987 
 H                     0.28759  -9.80382  -6.46928 
 C                     0.41165  -8.72608  -6.35961 
 N                     1.47137  -8.14579  -5.85174 
 C                     1.17472  -6.79218  -5.91852 
 C                    -1.87459  -8.15022  -7.36439 
 N                    -0.56456  -7.84529  -6.75707 
 
 ITRead=  0  0  0  0  0  0  0  0  0  0  0  0  0  0  0  0  0  0  0  0
 ITRead=  0  0  0  0  0  0  0  0  0  0  0  0  0  0  0  0  0  0  0  0
 ITRead=  0  0  0  0  0  0  0  0  0  0  0  0  0  0  0  0  0  0  0  0
 ITRead=  0  0  0  0  0  0  0  0  0  0
 MicOpt= -1 -1 -1 -1 -1 -1 -1 -1 -1 -1 -1 -1 -1 -1 -1 -1 -1 -1 -1 -1
 MicOpt= -1 -1 -1 -1 -1 -1 -1 -1 -1 -1 -1 -1 -1 -1 -1 -1 -1 -1 -1 -1
 MicOpt= -1 -1 -1 -1 -1 -1 -1 -1 -1 -1 -1 -1 -1 -1 -1 -1 -1 -1 -1 -1
 MicOpt= -1 -1 -1 -1 -1 -1 -1 -1 -1 -1
 NAtoms=     70 NQM=       70 NQMF=       0 NMMI=      0 NMMIF=      0
                NMic=       0 NMicF=      0.
                    Isotopes and Nuclear Properties:
 (Nuclear quadrupole moments (NQMom) in fm**2, nuclear magnetic moments (NMagM)
  in nuclear magnetons)

  Atom         1           2           3           4           5           6           7           8           9          10
 IAtWgt=          14          12          12          14          12           1          14          12           1          14
 AtmWgt=  14.0030740  12.0000000  12.0000000  14.0030740  12.0000000   1.0078250  14.0030740  12.0000000   1.0078250  14.0030740
 NucSpn=           2           0           0           2           0           1           2           0           1           2
 AtZEff=  -0.0000000  -0.0000000  -0.0000000  -0.0000000  -0.0000000  -0.0000000  -0.0000000  -0.0000000  -0.0000000  -0.0000000
 NQMom=    2.0440000   0.0000000   0.0000000   2.0440000   0.0000000   0.0000000   2.0440000   0.0000000   0.0000000   2.0440000
 NMagM=    0.4037610   0.0000000   0.0000000   0.4037610   0.0000000   2.7928460   0.4037610   0.0000000   2.7928460   0.4037610
 AtZNuc=   7.0000000   6.0000000   6.0000000   7.0000000   6.0000000   1.0000000   7.0000000   6.0000000   1.0000000   7.0000000

  Atom        11          12          13          14          15          16          17          18          19          20
 IAtWgt=          12          12          14           1           1           1           1           1          14          12
 AtmWgt=  12.0000000  12.0000000  14.0030740   1.0078250   1.0078250   1.0078250   1.0078250   1.0078250  14.0030740  12.0000000
 NucSpn=           0           0           2           1           1           1           1           1           2           0
 AtZEff=  -0.0000000  -0.0000000  -0.0000000  -0.0000000  -0.0000000  -0.0000000  -0.0000000  -0.0000000  -0.0000000  -0.0000000
 NQMom=    0.0000000   0.0000000   2.0440000   0.0000000   0.0000000   0.0000000   0.0000000   0.0000000   2.0440000   0.0000000
 NMagM=    0.0000000   0.0000000   0.4037610   2.7928460   2.7928460   2.7928460   2.7928460   2.7928460   0.4037610   0.0000000
 AtZNuc=   6.0000000   6.0000000   7.0000000   1.0000000   1.0000000   1.0000000   1.0000000   1.0000000   7.0000000   6.0000000

  Atom        21          22          23          24          25          26          27          28          29          30
 IAtWgt=          12          14           1           1          14          12          14           1          12          16
 AtmWgt=  12.0000000  14.0030740   1.0078250   1.0078250  14.0030740  12.0000000  14.0030740   1.0078250  12.0000000  15.9949146
 NucSpn=           0           2           1           1           2           0           2           1           0           0
 AtZEff=  -0.0000000  -0.0000000  -0.0000000  -0.0000000  -0.0000000  -0.0000000  -0.0000000  -0.0000000  -0.0000000  -0.0000000
 NQMom=    0.0000000   2.0440000   0.0000000   0.0000000   2.0440000   0.0000000   2.0440000   0.0000000   0.0000000   0.0000000
 NMagM=    0.0000000   0.4037610   2.7928460   2.7928460   0.4037610   0.0000000   0.4037610   2.7928460   0.0000000   0.0000000
 AtZNuc=   6.0000000   7.0000000   1.0000000   1.0000000   7.0000000   6.0000000   7.0000000   1.0000000   6.0000000   8.0000000

  Atom        31          32          33          34          35          36          37          38          39          40
 IAtWgt=          12          14          12           1           1           1           1           1           1           1
 AtmWgt=  12.0000000  14.0030740  12.0000000   1.0078250   1.0078250   1.0078250   1.0078250   1.0078250   1.0078250   1.0078250
 NucSpn=           0           2           0           1           1           1           1           1           1           1
 AtZEff=  -0.0000000  -0.0000000  -0.0000000  -0.0000000  -0.0000000  -0.0000000  -0.0000000  -0.0000000  -0.0000000  -0.0000000
 NQMom=    0.0000000   2.0440000   0.0000000   0.0000000   0.0000000   0.0000000   0.0000000   0.0000000   0.0000000   0.0000000
 NMagM=    0.0000000   0.4037610   0.0000000   2.7928460   2.7928460   2.7928460   2.7928460   2.7928460   2.7928460   2.7928460
 AtZNuc=   6.0000000   7.0000000   6.0000000   1.0000000   1.0000000   1.0000000   1.0000000   1.0000000   1.0000000   1.0000000

  Atom        41          42          43          44          45          46          47          48          49          50
 IAtWgt=           1          12          16          12           1          14          16          12           1          12
 AtmWgt=   1.0078250  12.0000000  15.9949146  12.0000000   1.0078250  14.0030740  15.9949146  12.0000000   1.0078250  12.0000000
 NucSpn=           1           0           0           0           1           2           0           0           1           0
 AtZEff=  -0.0000000  -0.0000000  -0.0000000  -0.0000000  -0.0000000  -0.0000000  -0.0000000  -0.0000000  -0.0000000  -0.0000000
 NQMom=    0.0000000   0.0000000   0.0000000   0.0000000   0.0000000   2.0440000   0.0000000   0.0000000   0.0000000   0.0000000
 NMagM=    2.7928460   0.0000000   0.0000000   0.0000000   2.7928460   0.4037610   0.0000000   0.0000000   2.7928460   0.0000000
 AtZNuc=   1.0000000   6.0000000   8.0000000   6.0000000   1.0000000   7.0000000   8.0000000   6.0000000   1.0000000   6.0000000

  Atom        51          52          53          54          55          56          57          58          59          60
 IAtWgt=          12          14           1           1           1           1           1          14          12          12
 AtmWgt=  12.0000000  14.0030740   1.0078250   1.0078250   1.0078250   1.0078250   1.0078250  14.0030740  12.0000000  12.0000000
 NucSpn=           0           2           1           1           1           1           1           2           0           0
 AtZEff=  -0.0000000  -0.0000000  -0.0000000  -0.0000000  -0.0000000  -0.0000000  -0.0000000  -0.0000000  -0.0000000  -0.0000000
 NQMom=    0.0000000   2.0440000   0.0000000   0.0000000   0.0000000   0.0000000   0.0000000   2.0440000   0.0000000   0.0000000
 NMagM=    0.0000000   0.4037610   2.7928460   2.7928460   2.7928460   2.7928460   2.7928460   0.4037610   0.0000000   0.0000000
 AtZNuc=   6.0000000   7.0000000   1.0000000   1.0000000   1.0000000   1.0000000   1.0000000   7.0000000   6.0000000   6.0000000

  Atom        61          62          63          64          65          66          67          68          69          70
 IAtWgt=          14           1          12          14           1          12          14          12          12          14
 AtmWgt=  14.0030740   1.0078250  12.0000000  14.0030740   1.0078250  12.0000000  14.0030740  12.0000000  12.0000000  14.0030740
 NucSpn=           2           1           0           2           1           0           2           0           0           2
 AtZEff=  -0.0000000  -0.0000000  -0.0000000  -0.0000000  -0.0000000  -0.0000000  -0.0000000  -0.0000000  -0.0000000  -0.0000000
 NQMom=    2.0440000   0.0000000   0.0000000   2.0440000   0.0000000   0.0000000   2.0440000   0.0000000   0.0000000   2.0440000
 NMagM=    0.4037610   2.7928460   0.0000000   0.4037610   2.7928460   0.0000000   0.4037610   0.0000000   0.0000000   0.4037610
 AtZNuc=   7.0000000   1.0000000   6.0000000   7.0000000   1.0000000   6.0000000   7.0000000   6.0000000   6.0000000   7.0000000
 Leave Link  101 at Thu Jan 25 12:26:06 2018, MaxMem=  4294967296 cpu:               7.7 elap:               0.3
 (Enter /share/apps/g16/l202.exe)
 Stoichiometry    C23H27N17O3
 Framework group  C1[X(C23H27N17O3)]
 Deg. of freedom   204
 Full point group                 C1      NOp   1
 Largest Abelian subgroup         C1      NOp   1
 Largest concise Abelian subgroup C1      NOp   1
                         Standard orientation:                         
 ---------------------------------------------------------------------
 Center     Atomic      Atomic             Coordinates (Angstroms)
 Number     Number       Type             X           Y           Z
 ---------------------------------------------------------------------
      1          7           0        4.762036   -2.198707   -0.317297
      2          6           0        5.990392   -2.299841   -1.129044
      3          6           0        2.663512   -2.010414    0.313598
      4          7           0        3.411725   -2.106070    1.477968
      5          6           0        4.646062   -2.215674    1.051273
      6          1           0        5.519083   -2.312662    1.697322
      7          7           0        0.864281   -1.806849   -1.197789
      8          6           0        1.775874   -1.874232   -2.173515
      9          1           0        1.378605   -1.815352   -3.185924
     10          7           0        3.098322   -2.002833   -2.086802
     11          6           0        3.482042   -2.066028   -0.801043
     12          6           0        1.282229   -1.873265    0.085167
     13          7           0        0.373771   -1.806171    1.060551
     14          1           0        0.637938   -1.851295    2.024601
     15          1           0       -0.601323   -1.708564    0.861009
     16          1           0        6.448520   -3.167640   -0.936152
     17          1           0        5.754048   -2.257256   -2.099325
     18          1           0        6.604485   -1.543437   -0.903782
     19          7           0        5.455777    1.320856    0.167580
     20          6           0        4.142976    1.538362   -0.174906
     21          6           0        6.615029    1.518174   -0.725678
     22          7           0        1.764452    2.493538   -2.518414
     23          1           0        0.770400    2.588592   -2.563903
     24          1           0        2.280281    2.721011   -3.344789
     25          7           0        3.695080    1.965446   -1.375339
     26          6           0        2.379043    2.079695   -1.399963
     27          7           0        1.562309    1.797775   -0.331799
     28          1           0        0.566541    1.913780   -0.441188
     29          6           0        2.001340    1.357046    0.912732
     30          8           0        1.180699    1.130893    1.810589
     31          6           0        3.413029    1.229479    0.954506
     32          7           0        4.250717    0.826185    1.985301
     33          6           0        5.449739    0.895978    1.473753
     34          1           0        6.367914    0.648081    2.007393
     35          1           0        7.104356    0.653698   -0.835371
     36          1           0        6.295541    1.834524   -1.617932
     37          1           0        7.229257    2.200931   -0.331498
     38          1           0       -4.323438    2.074884   -1.824949
     39          1           0       -4.280640    3.648015   -1.032428
     40          1           0       -2.837724    3.025636   -1.833673
     41          1           0       -4.564269    0.742420    2.791659
     42          6           0       -3.823300    1.085955    2.069736
     43          8           0       -1.964963    0.382611    3.365489
     44          6           0       -2.432506    0.904960    2.353885
     45          1           0       -0.589478    1.264757    1.540168
     46          7           0       -1.580115    1.374845    1.375160
     47          8           0       -1.100640    2.363134   -0.612451
     48          6           0       -1.929786    1.979524    0.193785
     49          1           0       -5.239944    1.833435    0.662533
     50          6           0       -4.195422    1.672321    0.925919
     51          6           0       -3.710633    2.758707   -1.256693
     52          7           0       -3.288954    2.118098   -0.007873
     53          1           0       -6.714905   -1.217746   -3.409365
     54          1           0       -5.339328   -0.347307   -3.519819
     55          1           0       -6.723547    0.371683   -3.039150
     56          1           0       -2.821248   -1.821334    2.878770
     57          1           0       -4.526812   -1.822179    2.844984
     58          7           0       -3.663692   -1.703429    2.352910
     59          6           0       -3.638368   -1.401283    1.053197
     60          6           0       -4.606555   -0.913999   -1.065026
     61          7           0       -3.432761   -0.760485   -1.699900
     62          1           0       -1.425688   -0.844680   -1.293489
     63          6           0       -2.418535   -0.950834   -0.858468
     64          7           0       -2.441853   -1.253524    0.443617
     65          1           0       -7.818719   -1.012401   -0.712135
     66          6           0       -6.738370   -1.040557   -0.567238
     67          7           0       -6.145866   -1.302286    0.572110
     68          6           0       -4.793905   -1.225289    0.270459
     69          6           0       -6.186725   -0.471397   -3.004416
     70          7           0       -5.867178   -0.795965   -1.600655
 ---------------------------------------------------------------------
 Rotational constants (GHZ):           0.1707638           0.0504375           0.0488256
 Leave Link  202 at Thu Jan 25 12:26:06 2018, MaxMem=  4294967296 cpu:               0.3 elap:               0.0
 (Enter /share/apps/g16/l301.exe)
 Standard basis: CC-pVDZ (5D, 7F)
 Ernie: Thresh=  0.10000D-02 Tol=  0.10000D-05 Strict=F.
 Ernie:  86 primitive shells out of 1081 were deleted.
 There are   780 symmetry adapted cartesian basis functions of A   symmetry.
 There are   737 symmetry adapted basis functions of A   symmetry.
   737 basis functions,  1608 primitive gaussians,   780 cartesian basis functions
   154 alpha electrons      154 beta electrons
       nuclear repulsion energy      5532.9281793067 Hartrees.
 IExCor= 4639 DFT=T Ex+Corr=wB97XD ExCW=0 ScaHFX=  1.000000
 ScaDFX=  1.000000  1.000000  1.000000  1.000000 ScalE2=  1.000000  1.000000
 IRadAn=      5 IRanWt=     -1 IRanGd=            0 ICorTp=0 IEmpDi=121
 HFx  wShort=  0.000000 wLong=  0.200000 cFull=  0.222036 cShort=  0.000000 cLong=  0.777964
 DFx  wShort=  0.000000 wLong=  0.200000 cFull=  0.000000 cShort=  0.000000 cLong=  1.000000
 NAtoms=   70 NActive=   70 NUniq=   70 SFac= 1.00D+00 NAtFMM=   60 NAOKFM=T Big=T
 Integral buffers will be    131072 words long.
 Raffenetti 2 integral format.
 Two-electron integral symmetry is turned on.
 R6Disp:  Grimme-D2 Dispersion energy=       -0.0739660419 Hartrees.
 Nuclear repulsion after empirical dispersion term =     5532.8542132648 Hartrees.
 Leave Link  301 at Thu Jan 25 12:26:06 2018, MaxMem=  4294967296 cpu:               3.0 elap:               0.1
 (Enter /share/apps/g16/l302.exe)
 NPDir=0 NMtPBC=     1 NCelOv=     1 NCel=       1 NClECP=     1 NCelD=      1
         NCelK=      1 NCelE2=     1 NClLst=     1 CellRange=     0.0.
 One-electron integrals computed using PRISM.
 One-electron integral symmetry used in STVInt
 NBasis=   737 RedAO= T EigKep=  6.58D-04  NBF=   737
 NBsUse=   737 1.00D-06 EigRej= -1.00D+00 NBFU=   737
 Precomputing XC quadrature grid using
 IXCGrd= 4 IRadAn=           5 IRanWt=          -1 IRanGd=           0 AccXCQ= 0.00D+00.
 Generated NRdTot=       0 NPtTot=           0 NUsed=           0 NTot=          32
 NSgBfM=   765   765   765   765   765 MxSgAt=    70 MxSgA2=    70.
 Leave Link  302 at Thu Jan 25 12:26:11 2018, MaxMem=  4294967296 cpu:             136.7 elap:               4.3
 (Enter /share/apps/g16/l303.exe)
 DipDrv:  MaxL=1.
 Leave Link  303 at Thu Jan 25 12:26:11 2018, MaxMem=  4294967296 cpu:              12.5 elap:               0.4
 (Enter /share/apps/g16/l401.exe)
 ExpMin= 1.22D-01 ExpMax= 1.17D+04 ExpMxC= 4.01D+02 IAcc=3 IRadAn=         5 AccDes= 0.00D+00
 Harris functional with IExCor= 4639 and IRadAn=       5 diagonalized for initial guess.
 HarFok:  IExCor= 4639 AccDes= 0.00D+00 IRadAn=         5 IDoV= 1 UseB2=F ITyADJ=14
 ICtDFT=  3500011 ScaDFX=  1.000000  1.000000  1.000000  1.000000
 FoFCou: FMM=F IPFlag=           0 FMFlag=      100000 FMFlg1=        2001
         NFxFlg=           0 DoJE=T BraDBF=F KetDBF=T FulRan=T
         wScrn=  0.000000 ICntrl=       500 IOpCl=  0 I1Cent=   200000004 NGrid=           0
         NMat0=    1 NMatS0=      1 NMatT0=    0 NMatD0=    1 NMtDS0=    0 NMtDT0=    0
 Petite list used in FoFCou.
 Harris En= -1963.87054119810    
 JPrj=0 DoOrth=F DoCkMO=F.
 Leave Link  401 at Thu Jan 25 12:26:27 2018, MaxMem=  4294967296 cpu:             493.0 elap:              16.0
 (Enter /share/apps/g16/l502.exe)
 Integral symmetry usage will be decided dynamically.
 Closed shell SCF:
 Using DIIS extrapolation, IDIIS=  1040.
 NGot=  4294967296 LenX=  4293717438 LenY=  4293108258
 Requested convergence on RMS density matrix=1.00D-08 within  20 cycles.
 Requested convergence on MAX density matrix=1.00D-06.
 Requested convergence on             energy=1.00D-06.
 No special actions if energy rises.
 Fock matrices will be formed incrementally for  20 cycles.
 Integral accuracy reduced to 1.0D-05 until final iterations.

 Cycle   1  Pass 0  IDiag  1:
 FoFJK:  IHMeth= 1 ICntrl=       0 DoSepK=T KAlg= 0 I1Cent=           0 FoldK=F
 IRaf=         1 NMat=       1 IRICut=       1 DoRegI=T DoRafI=F ISym2E= 0 IDoP0=0 IntGTp=1.
 FoFCou: FMM=T IPFlag=           0 FMFlag=      100000 FMFlg1=        2001
         NFxFlg=           0 DoJE=T BraDBF=F KetDBF=F FulRan=T
         wScrn=  0.000000 ICntrl=       500 IOpCl=  0 I1Cent=           0 NGrid=           0
         NMat0=    1 NMatS0=      1 NMatT0=    0 NMatD0=    1 NMtDS0=    0 NMtDT0=    0
 Symmetry not used in FoFCou.
 FMM levels:  10  Number of levels for PrismC:   9
 E= -2048.30736209325    
 DIIS: error= 2.42D-02 at cycle   1 NSaved=   1.
 NSaved= 1 IEnMin= 1 EnMin= -2048.30736209325     IErMin= 1 ErrMin= 2.42D-02
 ErrMax= 2.42D-02  0.00D+00 EMaxC= 1.00D-01 BMatC= 8.34D-01 BMatP= 8.34D-01
 IDIUse=3 WtCom= 7.58D-01 WtEn= 2.42D-01
 Coeff-Com:  0.100D+01
 Coeff-En:   0.100D+01
 Coeff:      0.100D+01
 Gap=     0.258 Goal=   None    Shift=    0.000
 GapD=    0.258 DampG=1.000 DampE=0.500 DampFc=0.5000 IDamp=-1.
 Damping current iteration by 5.00D-01
 RMSDP=1.59D-03 MaxDP=1.22D-01              OVMax= 1.61D-01

 Cycle   2  Pass 0  IDiag  1:
 RMSU=  7.93D-04    CP:  9.98D-01
 E= -2048.50193446628     Delta-E=       -0.194572373032 Rises=F Damp=T
 DIIS: error= 1.34D-02 at cycle   2 NSaved=   2.
 NSaved= 2 IEnMin= 2 EnMin= -2048.50193446628     IErMin= 2 ErrMin= 1.34D-02
 ErrMax= 1.34D-02  0.00D+00 EMaxC= 1.00D-01 BMatC= 1.46D-01 BMatP= 8.34D-01
 IDIUse=3 WtCom= 8.66D-01 WtEn= 1.34D-01
 Coeff-Com: -0.186D+00 0.119D+01
 Coeff-En:   0.000D+00 0.100D+01
 Coeff:     -0.162D+00 0.116D+01
 Gap=     0.343 Goal=   None    Shift=    0.000
 RMSDP=6.02D-04 MaxDP=3.28D-02 DE=-1.95D-01 OVMax= 1.33D-01

 Cycle   3  Pass 0  IDiag  1:
 RMSU=  5.94D-04    CP:  9.94D-01  1.12D+00
 E= -2048.67768705735     Delta-E=       -0.175752591067 Rises=F Damp=F
 DIIS: error= 6.81D-03 at cycle   3 NSaved=   3.
 NSaved= 3 IEnMin= 3 EnMin= -2048.67768705735     IErMin= 3 ErrMin= 6.81D-03
 ErrMax= 6.81D-03  0.00D+00 EMaxC= 1.00D-01 BMatC= 6.93D-02 BMatP= 1.46D-01
 IDIUse=3 WtCom= 9.32D-01 WtEn= 6.81D-02
 Coeff-Com: -0.233D+00 0.561D+00 0.673D+00
 Coeff-En:   0.000D+00 0.000D+00 0.100D+01
 Coeff:     -0.217D+00 0.522D+00 0.695D+00
 Gap=     0.277 Goal=   None    Shift=    0.000
 RMSDP=3.86D-04 MaxDP=2.90D-02 DE=-1.76D-01 OVMax= 4.55D-02

 Cycle   4  Pass 0  IDiag  1:
 RMSU=  2.16D-04    CP:  9.94D-01  1.42D+00  6.42D-01
 E= -2048.73026192472     Delta-E=       -0.052574867373 Rises=F Damp=F
 DIIS: error= 2.58D-03 at cycle   4 NSaved=   4.
 NSaved= 4 IEnMin= 4 EnMin= -2048.73026192472     IErMin= 4 ErrMin= 2.58D-03
 ErrMax= 2.58D-03  0.00D+00 EMaxC= 1.00D-01 BMatC= 1.00D-02 BMatP= 6.93D-02
 IDIUse=3 WtCom= 9.74D-01 WtEn= 2.58D-02
 Coeff-Com: -0.968D-01 0.187D+00 0.374D+00 0.536D+00
 Coeff-En:   0.000D+00 0.000D+00 0.765D-01 0.924D+00
 Coeff:     -0.943D-01 0.183D+00 0.366D+00 0.546D+00
 Gap=     0.280 Goal=   None    Shift=    0.000
 RMSDP=1.34D-04 MaxDP=9.95D-03 DE=-5.26D-02 OVMax= 1.53D-02

 Cycle   5  Pass 0  IDiag  1:
 RMSU=  6.12D-05    CP:  9.94D-01  1.39D+00  7.83D-01  6.26D-01
 E= -2048.73880513122     Delta-E=       -0.008543206497 Rises=F Damp=F
 DIIS: error= 4.41D-04 at cycle   5 NSaved=   5.
 NSaved= 5 IEnMin= 5 EnMin= -2048.73880513122     IErMin= 5 ErrMin= 4.41D-04
 ErrMax= 4.41D-04  0.00D+00 EMaxC= 1.00D-01 BMatC= 2.76D-04 BMatP= 1.00D-02
 IDIUse=3 WtCom= 9.96D-01 WtEn= 4.41D-03
 Coeff-Com: -0.243D-01 0.415D-01 0.116D+00 0.231D+00 0.636D+00
 Coeff-En:   0.000D+00 0.000D+00 0.000D+00 0.000D+00 0.100D+01
 Coeff:     -0.242D-01 0.413D-01 0.116D+00 0.230D+00 0.637D+00
 Gap=     0.280 Goal=   None    Shift=    0.000
 RMSDP=2.69D-05 MaxDP=1.47D-03 DE=-8.54D-03 OVMax= 3.03D-03

 Failed to achieve initial convergence to 1.0D-08 in  6 cycles.
 Switch to full accuracy anyway.
 Cycle   6  Pass 1  IDiag  1:
 E= -2048.73907397689     Delta-E=       -0.000268845672 Rises=F Damp=F
 DIIS: error= 2.40D-04 at cycle   1 NSaved=   1.
 NSaved= 1 IEnMin= 1 EnMin= -2048.73907397689     IErMin= 1 ErrMin= 2.40D-04
 ErrMax= 2.40D-04  0.00D+00 EMaxC= 1.00D-01 BMatC= 7.42D-05 BMatP= 7.42D-05
 IDIUse=3 WtCom= 9.98D-01 WtEn= 2.40D-03
 Coeff-Com:  0.100D+01
 Coeff-En:   0.100D+01
 Coeff:      0.100D+01
 Gap=     0.280 Goal=   None    Shift=    0.000
 RMSDP=2.69D-05 MaxDP=1.47D-03 DE=-2.69D-04 OVMax= 2.37D-03

 Cycle   7  Pass 1  IDiag  1:
 RMSU=  1.20D-04    CP:  1.00D+00
 E= -2048.73913122419     Delta-E=       -0.000057247304 Rises=F Damp=F
 DIIS: error= 2.05D-04 at cycle   2 NSaved=   2.
 NSaved= 2 IEnMin= 2 EnMin= -2048.73913122419     IErMin= 2 ErrMin= 2.05D-04
 ErrMax= 2.05D-04  0.00D+00 EMaxC= 1.00D-01 BMatC= 4.10D-05 BMatP= 7.42D-05
 IDIUse=3 WtCom= 9.98D-01 WtEn= 2.05D-03
 Coeff-Com:  0.400D+00 0.600D+00
 Coeff-En:   0.000D+00 0.100D+01
 Coeff:      0.399D+00 0.601D+00
 Gap=     0.280 Goal=   None    Shift=    0.000
 RMSDP=1.18D-05 MaxDP=9.10D-04 DE=-5.72D-05 OVMax= 1.62D-03

 Cycle   8  Pass 1  IDiag  1:
 RMSU=  1.14D-05    CP:  1.00D+00  1.02D+00
 E= -2048.73916142625     Delta-E=       -0.000030202058 Rises=F Damp=F
 DIIS: error= 9.03D-05 at cycle   3 NSaved=   3.
 NSaved= 3 IEnMin= 3 EnMin= -2048.73916142625     IErMin= 3 ErrMin= 9.03D-05
 ErrMax= 9.03D-05  0.00D+00 EMaxC= 1.00D-01 BMatC= 1.01D-05 BMatP= 4.10D-05
 IDIUse=1 WtCom= 1.00D+00 WtEn= 0.00D+00
 Coeff-Com: -0.188D-01 0.319D+00 0.700D+00
 Coeff:     -0.188D-01 0.319D+00 0.700D+00
 Gap=     0.280 Goal=   None    Shift=    0.000
 RMSDP=5.86D-06 MaxDP=3.31D-04 DE=-3.02D-05 OVMax= 5.83D-04

 Cycle   9  Pass 1  IDiag  1:
 RMSU=  3.90D-06    CP:  1.00D+00  1.05D+00  7.54D-01
 E= -2048.73917129521     Delta-E=       -0.000009868962 Rises=F Damp=F
 DIIS: error= 3.03D-05 at cycle   4 NSaved=   4.
 NSaved= 4 IEnMin= 4 EnMin= -2048.73917129521     IErMin= 4 ErrMin= 3.03D-05
 ErrMax= 3.03D-05  0.00D+00 EMaxC= 1.00D-01 BMatC= 5.39D-07 BMatP= 1.01D-05
 IDIUse=1 WtCom= 1.00D+00 WtEn= 0.00D+00
 Coeff-Com: -0.307D-01 0.900D-01 0.269D+00 0.672D+00
 Coeff:     -0.307D-01 0.900D-01 0.269D+00 0.672D+00
 Gap=     0.280 Goal=   None    Shift=    0.000
 RMSDP=1.51D-06 MaxDP=9.23D-05 DE=-9.87D-06 OVMax= 4.00D-04

 Cycle  10  Pass 1  IDiag  1:
 RMSU=  1.32D-06    CP:  1.00D+00  1.06D+00  7.96D-01  1.11D+00
 E= -2048.73917217857     Delta-E=       -0.000000883360 Rises=F Damp=F
 DIIS: error= 1.24D-05 at cycle   5 NSaved=   5.
 NSaved= 5 IEnMin= 5 EnMin= -2048.73917217857     IErMin= 5 ErrMin= 1.24D-05
 ErrMax= 1.24D-05  0.00D+00 EMaxC= 1.00D-01 BMatC= 1.23D-07 BMatP= 5.39D-07
 IDIUse=1 WtCom= 1.00D+00 WtEn= 0.00D+00
 Coeff-Com: -0.357D-02-0.556D-01-0.113D+00 0.205D+00 0.967D+00
 Coeff:     -0.357D-02-0.556D-01-0.113D+00 0.205D+00 0.967D+00
 Gap=     0.280 Goal=   None    Shift=    0.000
 RMSDP=1.23D-06 MaxDP=6.54D-05 DE=-8.83D-07 OVMax= 2.41D-04

 Cycle  11  Pass 1  IDiag  1:
 RMSU=  5.12D-07    CP:  1.00D+00  1.06D+00  8.09D-01  1.38D+00  1.19D+00
 E= -2048.73917245359     Delta-E=       -0.000000275019 Rises=F Damp=F
 DIIS: error= 7.78D-06 at cycle   6 NSaved=   6.
 NSaved= 6 IEnMin= 6 EnMin= -2048.73917245359     IErMin= 6 ErrMin= 7.78D-06
 ErrMax= 7.78D-06  0.00D+00 EMaxC= 1.00D-01 BMatC= 3.14D-08 BMatP= 1.23D-07
 IDIUse=1 WtCom= 1.00D+00 WtEn= 0.00D+00
 Coeff-Com:  0.499D-02-0.484D-01-0.118D+00-0.108D-01 0.528D+00 0.645D+00
 Coeff:      0.499D-02-0.484D-01-0.118D+00-0.108D-01 0.528D+00 0.645D+00
 Gap=     0.280 Goal=   None    Shift=    0.000
 RMSDP=4.26D-07 MaxDP=2.94D-05 DE=-2.75D-07 OVMax= 1.15D-04

 Cycle  12  Pass 1  IDiag  1:
 RMSU=  2.08D-07    CP:  1.00D+00  1.06D+00  8.12D-01  1.46D+00  1.33D+00
                    CP:  9.71D-01
 E= -2048.73917250055     Delta-E=       -0.000000046962 Rises=F Damp=F
 DIIS: error= 1.15D-06 at cycle   7 NSaved=   7.
 NSaved= 7 IEnMin= 7 EnMin= -2048.73917250055     IErMin= 7 ErrMin= 1.15D-06
 ErrMax= 1.15D-06  0.00D+00 EMaxC= 1.00D-01 BMatC= 8.06D-10 BMatP= 3.14D-08
 IDIUse=1 WtCom= 1.00D+00 WtEn= 0.00D+00
 Coeff-Com:  0.117D-02-0.777D-02-0.203D-01-0.104D-01 0.604D-01 0.132D+00
 Coeff-Com:  0.845D+00
 Coeff:      0.117D-02-0.777D-02-0.203D-01-0.104D-01 0.604D-01 0.132D+00
 Coeff:      0.845D+00
 Gap=     0.280 Goal=   None    Shift=    0.000
 RMSDP=9.29D-08 MaxDP=4.61D-06 DE=-4.70D-08 OVMax= 2.32D-05

 Cycle  13  Pass 1  IDiag  1:
 RMSU=  5.92D-08    CP:  1.00D+00  1.06D+00  8.12D-01  1.47D+00  1.36D+00
                    CP:  1.06D+00  1.12D+00
 E= -2048.73917250257     Delta-E=       -0.000000002020 Rises=F Damp=F
 DIIS: error= 5.12D-07 at cycle   8 NSaved=   8.
 NSaved= 8 IEnMin= 8 EnMin= -2048.73917250257     IErMin= 8 ErrMin= 5.12D-07
 ErrMax= 5.12D-07  0.00D+00 EMaxC= 1.00D-01 BMatC= 3.99D-10 BMatP= 8.06D-10
 IDIUse=1 WtCom= 1.00D+00 WtEn= 0.00D+00
 Coeff-Com: -0.832D-03 0.100D-01 0.237D-01-0.120D-02-0.120D+00-0.119D+00
 Coeff-Com:  0.440D+00 0.769D+00
 Coeff:     -0.832D-03 0.100D-01 0.237D-01-0.120D-02-0.120D+00-0.119D+00
 Coeff:      0.440D+00 0.769D+00
 Gap=     0.280 Goal=   None    Shift=    0.000
 RMSDP=5.65D-08 MaxDP=3.44D-06 DE=-2.02D-09 OVMax= 1.17D-05

 Cycle  14  Pass 1  IDiag  1:
 RMSU=  3.17D-08    CP:  1.00D+00  1.06D+00  8.12D-01  1.47D+00  1.37D+00
                    CP:  1.11D+00  1.29D+00  1.04D+00
 E= -2048.73917250327     Delta-E=       -0.000000000700 Rises=F Damp=F
 DIIS: error= 1.83D-07 at cycle   9 NSaved=   9.
 NSaved= 9 IEnMin= 9 EnMin= -2048.73917250327     IErMin= 9 ErrMin= 1.83D-07
 ErrMax= 1.83D-07  0.00D+00 EMaxC= 1.00D-01 BMatC= 2.77D-11 BMatP= 3.99D-10
 IDIUse=1 WtCom= 1.00D+00 WtEn= 0.00D+00
 Coeff-Com: -0.429D-03 0.451D-02 0.109D-01 0.620D-03-0.500D-01-0.578D-01
 Coeff-Com:  0.848D-01 0.269D+00 0.738D+00
 Coeff:     -0.429D-03 0.451D-02 0.109D-01 0.620D-03-0.500D-01-0.578D-01
 Coeff:      0.848D-01 0.269D+00 0.738D+00
 Gap=     0.280 Goal=   None    Shift=    0.000
 RMSDP=1.43D-08 MaxDP=7.32D-07 DE=-7.00D-10 OVMax= 3.42D-06

 Cycle  15  Pass 1  IDiag  1:
 RMSU=  9.54D-09    CP:  1.00D+00  1.06D+00  8.12D-01  1.47D+00  1.37D+00
                    CP:  1.12D+00  1.31D+00  1.18D+00  1.13D+00
 E= -2048.73917250304     Delta-E=        0.000000000236 Rises=F Damp=F
 DIIS: error= 6.14D-08 at cycle  10 NSaved=  10.
 NSaved=10 IEnMin= 9 EnMin= -2048.73917250327     IErMin=10 ErrMin= 6.14D-08
 ErrMax= 6.14D-08  0.00D+00 EMaxC= 1.00D-01 BMatC= 5.56D-12 BMatP= 2.77D-11
 IDIUse=1 WtCom= 1.00D+00 WtEn= 0.00D+00
 Coeff-Com:  0.189D-04-0.458D-03-0.976D-03 0.222D-03 0.693D-02 0.362D-02
 Coeff-Com: -0.585D-01-0.724D-01 0.267D+00 0.855D+00
 Coeff:      0.189D-04-0.458D-03-0.976D-03 0.222D-03 0.693D-02 0.362D-02
 Coeff:     -0.585D-01-0.724D-01 0.267D+00 0.855D+00
 Gap=     0.280 Goal=   None    Shift=    0.000
 RMSDP=7.47D-09 MaxDP=3.88D-07 DE= 2.36D-10 OVMax= 1.57D-06

 SCF Done:  E(RwB97XD) =  -2048.73917250     A.U. after   15 cycles
            NFock= 15  Conv=0.75D-08     -V/T= 2.0054
 KE= 2.037822187058D+03 PE=-1.584626703767D+04 EE= 6.226851464843D+03
 Leave Link  502 at Thu Jan 25 12:37:57 2018, MaxMem=  4294967296 cpu:           21375.8 elap:             689.4
 (Enter /share/apps/g16/l601.exe)
 Copying SCF densities to generalized density rwf, IOpCl= 0 IROHF=0.

 **********************************************************************

            Population analysis using the SCF density.

 **********************************************************************

 Orbital symmetries:
       Occupied  (A) (A) (A) (A) (A) (A) (A) (A) (A) (A) (A) (A)
                 (A) (A) (A) (A) (A) (A) (A) (A) (A) (A) (A) (A)
                 (A) (A) (A) (A) (A) (A) (A) (A) (A) (A) (A) (A)
                 (A) (A) (A) (A) (A) (A) (A) (A) (A) (A) (A) (A)
                 (A) (A) (A) (A) (A) (A) (A) (A) (A) (A) (A) (A)
                 (A) (A) (A) (A) (A) (A) (A) (A) (A) (A) (A) (A)
                 (A) (A) (A) (A) (A) (A) (A) (A) (A) (A) (A) (A)
                 (A) (A) (A) (A) (A) (A) (A) (A) (A) (A) (A) (A)
                 (A) (A) (A) (A) (A) (A) (A) (A) (A) (A) (A) (A)
                 (A) (A) (A) (A) (A) (A) (A) (A) (A) (A) (A) (A)
                 (A) (A) (A) (A) (A) (A) (A) (A) (A) (A) (A) (A)
                 (A) (A) (A) (A) (A) (A) (A) (A) (A) (A) (A) (A)
                 (A) (A) (A) (A) (A) (A) (A) (A) (A) (A)
       Virtual   (A) (A) (A) (A) (A) (A) (A) (A) (A) (A) (A) (A)
                 (A) (A) (A) (A) (A) (A) (A) (A) (A) (A) (A) (A)
                 (A) (A) (A) (A) (A) (A) (A) (A) (A) (A) (A) (A)
                 (A) (A) (A) (A) (A) (A) (A) (A) (A) (A) (A) (A)
                 (A) (A) (A) (A) (A) (A) (A) (A) (A) (A) (A) (A)
                 (A) (A) (A) (A) (A) (A) (A) (A) (A) (A) (A) (A)
                 (A) (A) (A) (A) (A) (A) (A) (A) (A) (A) (A) (A)
                 (A) (A) (A) (A) (A) (A) (A) (A) (A) (A) (A) (A)
                 (A) (A) (A) (A) (A) (A) (A) (A) (A) (A) (A) (A)
                 (A) (A) (A) (A) (A) (A) (A) (A) (A) (A) (A) (A)
                 (A) (A) (A) (A) (A) (A) (A) (A) (A) (A) (A) (A)
                 (A) (A) (A) (A) (A) (A) (A) (A) (A) (A) (A) (A)
                 (A) (A) (A) (A) (A) (A) (A) (A) (A) (A) (A) (A)
                 (A) (A) (A) (A) (A) (A) (A) (A) (A) (A) (A) (A)
                 (A) (A) (A) (A) (A) (A) (A) (A) (A) (A) (A) (A)
                 (A) (A) (A) (A) (A) (A) (A) (A) (A) (A) (A) (A)
                 (A) (A) (A) (A) (A) (A) (A) (A) (A) (A) (A) (A)
                 (A) (A) (A) (A) (A) (A) (A) (A) (A) (A) (A) (A)
                 (A) (A) (A) (A) (A) (A) (A) (A) (A) (A) (A) (A)
                 (A) (A) (A) (A) (A) (A) (A) (A) (A) (A) (A) (A)
                 (A) (A) (A) (A) (A) (A) (A) (A) (A) (A) (A) (A)
                 (A) (A) (A) (A) (A) (A) (A) (A) (A) (A) (A) (A)
                 (A) (A) (A) (A) (A) (A) (A) (A) (A) (A) (A) (A)
                 (A) (A) (A) (A) (A) (A) (A) (A) (A) (A) (A) (A)
                 (A) (A) (A) (A) (A) (A) (A) (A) (A) (A) (A) (A)
                 (A) (A) (A) (A) (A) (A) (A) (A) (A) (A) (A) (A)
                 (A) (A) (A) (A) (A) (A) (A) (A) (A) (A) (A) (A)
                 (A) (A) (A) (A) (A) (A) (A) (A) (A) (A) (A) (A)
                 (A) (A) (A) (A) (A) (A) (A) (A) (A) (A) (A) (A)
                 (A) (A) (A) (A) (A) (A) (A) (A) (A) (A) (A) (A)
                 (A) (A) (A) (A) (A) (A) (A) (A) (A) (A) (A) (A)
                 (A) (A) (A) (A) (A) (A) (A) (A) (A) (A) (A) (A)
                 (A) (A) (A) (A) (A) (A) (A) (A) (A) (A) (A) (A)
                 (A) (A) (A) (A) (A) (A) (A) (A) (A) (A) (A) (A)
                 (A) (A) (A) (A) (A) (A) (A) (A) (A) (A) (A) (A)
                 (A) (A) (A) (A) (A) (A) (A) (A) (A) (A) (A) (A)
                 (A) (A) (A) (A) (A) (A) (A) (A) (A) (A) (A) (A)
                 (A) (A) (A) (A) (A) (A) (A) (A) (A) (A) (A) (A)
                 (A) (A) (A) (A) (A) (A) (A) (A) (A) (A) (A) (A)
                 (A) (A) (A) (A) (A) (A) (A) (A) (A) (A) (A) (A)
                 (A) (A) (A) (A) (A) (A) (A) (A) (A) (A) (A) (A)
                 (A) (A) (A) (A) (A) (A) (A) (A) (A) (A) (A) (A)
                 (A) (A) (A) (A) (A) (A) (A) (A) (A) (A) (A) (A)
                 (A) (A) (A) (A) (A) (A) (A) (A) (A) (A) (A) (A)
                 (A) (A) (A) (A) (A) (A) (A) (A) (A) (A) (A) (A)
                 (A) (A) (A) (A) (A) (A) (A) (A) (A) (A) (A) (A)
                 (A) (A) (A) (A) (A) (A) (A) (A) (A) (A) (A) (A)
                 (A) (A) (A) (A) (A) (A) (A) (A) (A) (A) (A) (A)
                 (A) (A) (A) (A) (A) (A) (A)
 The electronic state is 1-A.
 Alpha  occ. eigenvalues --  -19.25474 -19.21945 -19.20897 -14.52189 -14.52007
 Alpha  occ. eigenvalues --  -14.49329 -14.48949 -14.47393 -14.47181 -14.47094
 Alpha  occ. eigenvalues --  -14.46853 -14.45009 -14.44102 -14.43942 -14.42420
 Alpha  occ. eigenvalues --  -14.42256 -14.41273 -14.41234 -14.41166 -14.40659
 Alpha  occ. eigenvalues --  -10.45028 -10.41480 -10.39941 -10.39401 -10.38529
 Alpha  occ. eigenvalues --  -10.37576 -10.37141 -10.36785 -10.35704 -10.35623
 Alpha  occ. eigenvalues --  -10.34787 -10.34748 -10.34069 -10.33786 -10.33745
 Alpha  occ. eigenvalues --  -10.33584 -10.33401 -10.32156 -10.31712 -10.31455
 Alpha  occ. eigenvalues --  -10.30377 -10.28717 -10.28472  -1.19034  -1.14863
 Alpha  occ. eigenvalues --   -1.13495  -1.12991  -1.11487  -1.11021  -1.09038
 Alpha  occ. eigenvalues --   -1.08857  -1.08733  -1.05347  -1.04361  -1.02155
 Alpha  occ. eigenvalues --   -1.00665  -1.00561  -0.99957  -0.98840  -0.97184
 Alpha  occ. eigenvalues --   -0.96949  -0.96489  -0.92997  -0.90604  -0.87274
 Alpha  occ. eigenvalues --   -0.85626  -0.84638  -0.84130  -0.83268  -0.83060
 Alpha  occ. eigenvalues --   -0.82574  -0.78479  -0.76606  -0.75007  -0.74557
 Alpha  occ. eigenvalues --   -0.73874  -0.73120  -0.72942  -0.71291  -0.69928
 Alpha  occ. eigenvalues --   -0.67678  -0.66539  -0.66441  -0.66068  -0.64669
 Alpha  occ. eigenvalues --   -0.63795  -0.63686  -0.62922  -0.62839  -0.62041
 Alpha  occ. eigenvalues --   -0.60543  -0.60426  -0.60005  -0.59227  -0.59135
 Alpha  occ. eigenvalues --   -0.58784  -0.58568  -0.58102  -0.56791  -0.56007
 Alpha  occ. eigenvalues --   -0.55890  -0.55650  -0.54957  -0.54681  -0.54326
 Alpha  occ. eigenvalues --   -0.54136  -0.53742  -0.53367  -0.53286  -0.52770
 Alpha  occ. eigenvalues --   -0.52438  -0.52010  -0.51990  -0.50957  -0.50594
 Alpha  occ. eigenvalues --   -0.50476  -0.49886  -0.49665  -0.49190  -0.49079
 Alpha  occ. eigenvalues --   -0.49058  -0.48614  -0.48382  -0.47476  -0.47214
 Alpha  occ. eigenvalues --   -0.47076  -0.46194  -0.44894  -0.44427  -0.43329
 Alpha  occ. eigenvalues --   -0.41271  -0.40390  -0.39199  -0.37780  -0.37641
 Alpha  occ. eigenvalues --   -0.37512  -0.37163  -0.37108  -0.35715  -0.34621
 Alpha  occ. eigenvalues --   -0.34236  -0.34003  -0.33763  -0.33556  -0.33305
 Alpha  occ. eigenvalues --   -0.32950  -0.32416  -0.31957  -0.31683  -0.31093
 Alpha  occ. eigenvalues --   -0.30625  -0.29123  -0.26854  -0.24917
 Alpha virt. eigenvalues --    0.03088   0.04676   0.06498   0.07318   0.08668
 Alpha virt. eigenvalues --    0.09526   0.09706   0.10842   0.10996   0.11774
 Alpha virt. eigenvalues --    0.12724   0.13825   0.14227   0.14337   0.15142
 Alpha virt. eigenvalues --    0.15800   0.16272   0.17154   0.17670   0.18507
 Alpha virt. eigenvalues --    0.18951   0.19373   0.19555   0.20068   0.20811
 Alpha virt. eigenvalues --    0.21141   0.21384   0.21469   0.22026   0.22075
 Alpha virt. eigenvalues --    0.22276   0.22432   0.22868   0.23302   0.23721
 Alpha virt. eigenvalues --    0.23965   0.24030   0.24414   0.24835   0.25267
 Alpha virt. eigenvalues --    0.26427   0.26918   0.27487   0.27590   0.28887
 Alpha virt. eigenvalues --    0.29116   0.29337   0.29486   0.30409   0.30508
 Alpha virt. eigenvalues --    0.31586   0.32185   0.32873   0.33347   0.33637
 Alpha virt. eigenvalues --    0.34378   0.34941   0.35305   0.35933   0.36308
 Alpha virt. eigenvalues --    0.36813   0.36988   0.37385   0.37880   0.39746
 Alpha virt. eigenvalues --    0.39958   0.40256   0.40389   0.41033   0.41737
 Alpha virt. eigenvalues --    0.42298   0.43080   0.43474   0.44095   0.44343
 Alpha virt. eigenvalues --    0.44891   0.45025   0.45851   0.46147   0.46438
 Alpha virt. eigenvalues --    0.47092   0.47414   0.47723   0.48785   0.49003
 Alpha virt. eigenvalues --    0.50002   0.50228   0.50447   0.50947   0.51459
 Alpha virt. eigenvalues --    0.51714   0.51920   0.52365   0.52759   0.52953
 Alpha virt. eigenvalues --    0.53460   0.53817   0.54090   0.54880   0.55310
 Alpha virt. eigenvalues --    0.55715   0.55809   0.56375   0.56830   0.57477
 Alpha virt. eigenvalues --    0.57851   0.58261   0.59096   0.59473   0.59605
 Alpha virt. eigenvalues --    0.59644   0.60097   0.60587   0.61461   0.61849
 Alpha virt. eigenvalues --    0.62020   0.62242   0.62899   0.63421   0.63721
 Alpha virt. eigenvalues --    0.64464   0.64992   0.65028   0.65368   0.65612
 Alpha virt. eigenvalues --    0.66279   0.66393   0.66817   0.67032   0.67290
 Alpha virt. eigenvalues --    0.67815   0.68343   0.68945   0.69592   0.69750
 Alpha virt. eigenvalues --    0.70714   0.71066   0.71415   0.72002   0.72271
 Alpha virt. eigenvalues --    0.72727   0.72863   0.73365   0.73860   0.74062
 Alpha virt. eigenvalues --    0.74429   0.74457   0.75236   0.75479   0.75848
 Alpha virt. eigenvalues --    0.76373   0.76517   0.76901   0.77029   0.77770
 Alpha virt. eigenvalues --    0.78234   0.78608   0.78695   0.79336   0.79926
 Alpha virt. eigenvalues --    0.80472   0.80617   0.80797   0.81022   0.81222
 Alpha virt. eigenvalues --    0.81617   0.82021   0.82795   0.83218   0.83515
 Alpha virt. eigenvalues --    0.84060   0.84359   0.84850   0.85066   0.85302
 Alpha virt. eigenvalues --    0.85538   0.85966   0.86164   0.86801   0.87376
 Alpha virt. eigenvalues --    0.87864   0.88396   0.89094   0.89197   0.89736
 Alpha virt. eigenvalues --    0.90620   0.90845   0.91130   0.91374   0.91782
 Alpha virt. eigenvalues --    0.92821   0.93010   0.93678   0.93898   0.94234
 Alpha virt. eigenvalues --    0.94816   0.95379   0.95922   0.96461   0.96524
 Alpha virt. eigenvalues --    0.97072   0.97334   0.97641   0.98088   0.98537
 Alpha virt. eigenvalues --    0.98877   0.99448   0.99803   1.00429   1.00588
 Alpha virt. eigenvalues --    1.01492   1.02098   1.02493   1.02691   1.03461
 Alpha virt. eigenvalues --    1.04245   1.04777   1.04842   1.05143   1.05788
 Alpha virt. eigenvalues --    1.06000   1.06952   1.07454   1.07832   1.08332
 Alpha virt. eigenvalues --    1.08749   1.09323   1.09825   1.10363   1.10826
 Alpha virt. eigenvalues --    1.12002   1.12265   1.12751   1.13524   1.13979
 Alpha virt. eigenvalues --    1.14456   1.14872   1.15372   1.15745   1.16257
 Alpha virt. eigenvalues --    1.16526   1.16772   1.17474   1.18046   1.18411
 Alpha virt. eigenvalues --    1.18701   1.19012   1.19539   1.19858   1.20262
 Alpha virt. eigenvalues --    1.20539   1.20971   1.21501   1.21811   1.22180
 Alpha virt. eigenvalues --    1.22573   1.22966   1.23131   1.23391   1.23978
 Alpha virt. eigenvalues --    1.24099   1.25127   1.25405   1.25966   1.26564
 Alpha virt. eigenvalues --    1.26673   1.27444   1.27736   1.28265   1.28893
 Alpha virt. eigenvalues --    1.29171   1.29579   1.30451   1.31312   1.31663
 Alpha virt. eigenvalues --    1.32478   1.32922   1.33476   1.34551   1.35272
 Alpha virt. eigenvalues --    1.35593   1.35877   1.36300   1.36889   1.37383
 Alpha virt. eigenvalues --    1.37868   1.38962   1.39120   1.40065   1.40948
 Alpha virt. eigenvalues --    1.41542   1.41848   1.42736   1.44277   1.45256
 Alpha virt. eigenvalues --    1.45900   1.46019   1.46519   1.46646   1.47440
 Alpha virt. eigenvalues --    1.47842   1.48626   1.49665   1.51185   1.51670
 Alpha virt. eigenvalues --    1.52036   1.52353   1.53449   1.53580   1.54625
 Alpha virt. eigenvalues --    1.54855   1.56067   1.56383   1.56947   1.57460
 Alpha virt. eigenvalues --    1.58608   1.59140   1.59933   1.60171   1.60667
 Alpha virt. eigenvalues --    1.60927   1.61809   1.62172   1.63941   1.64912
 Alpha virt. eigenvalues --    1.65387   1.66011   1.66480   1.66862   1.67253
 Alpha virt. eigenvalues --    1.67697   1.68360   1.68497   1.68908   1.69808
 Alpha virt. eigenvalues --    1.70074   1.71145   1.71352   1.71736   1.71991
 Alpha virt. eigenvalues --    1.72550   1.73017   1.73230   1.73716   1.74055
 Alpha virt. eigenvalues --    1.74512   1.74987   1.75236   1.75550   1.75732
 Alpha virt. eigenvalues --    1.76022   1.76538   1.76707   1.76952   1.77678
 Alpha virt. eigenvalues --    1.77739   1.78702   1.79028   1.79295   1.79454
 Alpha virt. eigenvalues --    1.79734   1.79810   1.80670   1.81180   1.81624
 Alpha virt. eigenvalues --    1.81949   1.82252   1.82640   1.83142   1.83408
 Alpha virt. eigenvalues --    1.83617   1.83981   1.84723   1.85186   1.85540
 Alpha virt. eigenvalues --    1.86070   1.86460   1.86956   1.87340   1.87481
 Alpha virt. eigenvalues --    1.87802   1.88418   1.88736   1.89360   1.90168
 Alpha virt. eigenvalues --    1.90644   1.91058   1.91420   1.91857   1.92351
 Alpha virt. eigenvalues --    1.93163   1.93258   1.94559   1.94896   1.95787
 Alpha virt. eigenvalues --    1.96523   1.96736   1.97590   1.97916   1.98543
 Alpha virt. eigenvalues --    1.99006   2.00114   2.01092   2.01485   2.02022
 Alpha virt. eigenvalues --    2.02225   2.02606   2.03372   2.04108   2.04209
 Alpha virt. eigenvalues --    2.04576   2.05287   2.06949   2.07308   2.07590
 Alpha virt. eigenvalues --    2.08132   2.08740   2.09069   2.10250   2.10654
 Alpha virt. eigenvalues --    2.11123   2.11802   2.12028   2.12976   2.13816
 Alpha virt. eigenvalues --    2.14822   2.15574   2.17208   2.17753   2.19031
 Alpha virt. eigenvalues --    2.19755   2.19999   2.20953   2.21835   2.21977
 Alpha virt. eigenvalues --    2.22156   2.22469   2.23055   2.23636   2.24164
 Alpha virt. eigenvalues --    2.24874   2.25831   2.25997   2.26984   2.27752
 Alpha virt. eigenvalues --    2.27994   2.28197   2.28918   2.29144   2.29989
 Alpha virt. eigenvalues --    2.30301   2.31368   2.31779   2.32179   2.32836
 Alpha virt. eigenvalues --    2.33100   2.33170   2.33907   2.34043   2.34233
 Alpha virt. eigenvalues --    2.35125   2.35758   2.36037   2.36859   2.38044
 Alpha virt. eigenvalues --    2.38660   2.38924   2.40001   2.40830   2.41845
 Alpha virt. eigenvalues --    2.42422   2.43359   2.43588   2.43691   2.45061
 Alpha virt. eigenvalues --    2.45406   2.45651   2.45919   2.46444   2.48015
 Alpha virt. eigenvalues --    2.48931   2.50198   2.50685   2.51104   2.51311
 Alpha virt. eigenvalues --    2.52548   2.53595   2.54972   2.55565   2.55723
 Alpha virt. eigenvalues --    2.56875   2.58607   2.58909   2.59719   2.60745
 Alpha virt. eigenvalues --    2.61256   2.61974   2.62610   2.63375   2.64348
 Alpha virt. eigenvalues --    2.64694   2.65045   2.65218   2.65435   2.65893
 Alpha virt. eigenvalues --    2.67242   2.68645   2.68846   2.69010   2.69790
 Alpha virt. eigenvalues --    2.69901   2.70477   2.70851   2.72617   2.73526
 Alpha virt. eigenvalues --    2.73750   2.74465   2.75591   2.76516   2.77263
 Alpha virt. eigenvalues --    2.77680   2.78304   2.78482   2.78826   2.79335
 Alpha virt. eigenvalues --    2.79893   2.80021   2.80980   2.81213   2.81894
 Alpha virt. eigenvalues --    2.82317   2.82704   2.83028   2.83746   2.84489
 Alpha virt. eigenvalues --    2.85341   2.86086   2.86466   2.86678   2.87366
 Alpha virt. eigenvalues --    2.87742   2.88182   2.89624   2.91830   2.94428
 Alpha virt. eigenvalues --    2.94960   2.96181   2.96651   2.98063   2.99610
 Alpha virt. eigenvalues --    3.00568   3.01681   3.02340   3.05024   3.06188
 Alpha virt. eigenvalues --    3.06793   3.10603   3.11256   3.13668   3.14582
 Alpha virt. eigenvalues --    3.15533   3.16105   3.16965   3.18461   3.20920
 Alpha virt. eigenvalues --    3.21286   3.23643   3.23988   3.24106   3.28542
 Alpha virt. eigenvalues --    3.45384   3.47151   3.47437   3.49704   3.50621
 Alpha virt. eigenvalues --    3.53085   3.55242   3.56075   3.57830   3.60156
 Alpha virt. eigenvalues --    3.63126   3.70689   3.75624
          Condensed to atoms (all electrons):
 Mulliken charges:
               1
     1  N   -0.305868
     2  C    0.188020
     3  C    0.035706
     4  N   -0.231739
     5  C    0.137674
     6  H    0.023654
     7  N   -0.294271
     8  C    0.129543
     9  H    0.010024
    10  N   -0.285738
    11  C    0.245080
    12  C    0.078569
    13  N   -0.044290
    14  H    0.118199
    15  H    0.087754
    16  H    0.027385
    17  H    0.036488
    18  H    0.005297
    19  N   -0.303809
    20  C    0.255508
    21  C    0.183385
    22  N   -0.123501
    23  H    0.118149
    24  H    0.119922
    25  N   -0.310054
    26  C    0.250628
    27  N   -0.144657
    28  H    0.121043
    29  C    0.187708
    30  O   -0.322527
    31  C   -0.014685
    32  N   -0.207004
    33  C    0.104519
    34  H    0.020747
    35  H    0.011900
    36  H    0.033697
    37  H    0.027851
    38  H    0.051436
    39  H    0.056103
    40  H    0.075453
    41  H    0.017165
    42  C   -0.104911
    43  O   -0.285308
    44  C    0.179995
    45  H    0.127052
    46  N   -0.108094
    47  O   -0.351077
    48  C    0.334300
    49  H    0.044960
    50  C    0.177316
    51  C    0.046718
    52  N   -0.274568
    53  H    0.036205
    54  H    0.041705
    55  H    0.026757
    56  H    0.127443
    57  H    0.115914
    58  N   -0.027942
    59  C    0.051700
    60  C    0.226501
    61  N   -0.269082
    62  H    0.031654
    63  C    0.158779
    64  N   -0.298617
    65  H    0.036606
    66  C    0.129444
    67  N   -0.255810
    68  C    0.045258
    69  C    0.177320
    70  N   -0.310685
 Sum of Mulliken charges =  -0.00000
 Mulliken charges with hydrogens summed into heavy atoms:
               1
     1  N   -0.305868
     2  C    0.257191
     3  C    0.035706
     4  N   -0.231739
     5  C    0.161328
     7  N   -0.294271
     8  C    0.139568
    10  N   -0.285738
    11  C    0.245080
    12  C    0.078569
    13  N    0.161662
    19  N   -0.303809
    20  C    0.255508
    21  C    0.256834
    22  N    0.114570
    25  N   -0.310054
    26  C    0.250628
    27  N   -0.023613
    29  C    0.187708
    30  O   -0.322527
    31  C   -0.014685
    32  N   -0.207004
    33  C    0.125266
    42  C   -0.087746
    43  O   -0.285308
    44  C    0.179995
    46  N    0.018958
    47  O   -0.351077
    48  C    0.334300
    50  C    0.222275
    51  C    0.229710
    52  N   -0.274568
    58  N    0.215416
    59  C    0.051700
    60  C    0.226501
    61  N   -0.269082
    63  C    0.190433
    64  N   -0.298617
    66  C    0.166050
    67  N   -0.255810
    68  C    0.045258
    69  C    0.281987
    70  N   -0.310685
 Electronic spatial extent (au):  <R**2>=          22830.8072
 Charge=              0.0000 electrons
 Dipole moment (field-independent basis, Debye):
    X=             -4.2750    Y=              2.9594    Z=             -7.2548  Tot=              8.9256
 Quadrupole moment (field-independent basis, Debye-Ang):
   XX=           -145.9036   YY=           -238.0893   ZZ=           -247.0754
   XY=            -10.2498   XZ=              5.6388   YZ=            -17.6671
 Traceless Quadrupole moment (field-independent basis, Debye-Ang):
   XX=             64.4525   YY=            -27.7332   ZZ=            -36.7193
   XY=            -10.2498   XZ=              5.6388   YZ=            -17.6671
 Octapole moment (field-independent basis, Debye-Ang**2):
  XXX=             92.8971  YYY=             43.4466  ZZZ=            -92.1892  XYY=             -7.7275
  XXY=             18.1138  XXZ=           -142.7284  XZZ=            -90.1196  YZZ=              6.5324
  YYZ=            -11.9624  XYZ=             -1.3418
 Hexadecapole moment (field-independent basis, Debye-Ang**3):
 XXXX=         -17003.9028 YYYY=          -4336.5227 ZZZZ=          -3451.7763 XXXY=           -349.0765
 XXXZ=            791.8723 YYYX=           -103.1312 YYYZ=           -113.5624 ZZZX=              7.7877
 ZZZY=           -260.5821 XXYY=          -4187.7239 XXZZ=          -3948.0991 YYZZ=          -1208.6374
 XXYZ=            -21.0856 YYXZ=            -34.8672 ZZXY=            133.8485
 N-N= 5.532854213265D+03 E-N=-1.584626702591D+04  KE= 2.037822187058D+03
 No NMR shielding tensors so no spin-rotation constants.
 Leave Link  601 at Thu Jan 25 12:37:59 2018, MaxMem=  4294967296 cpu:              48.5 elap:               1.7
 (Enter /share/apps/g16/l9999.exe)
 1\1\GINC-COMPUTE-0-3\SP\RwB97XD\CC-pVDZ\C23H27N17O3\SATYA\25-Jan-2018\
 0\\#p wb97xd/cc-pvdz sp scf=(maxcycles=20)\\Base pair stacking\\0,1\N,
 0,1.22645,2.80259,-6.65793\C,0,0.63357,4.04887,-7.18071\C,0,1.62929,0.
 68706,-6.21123\N,0,2.60689,1.41631,-5.55\C,0,2.32506,2.66165,-5.84558\
 H,0,2.89068,3.52538,-5.49487\N,0,0.31839,-1.08978,-7.04029\C,0,-0.4228
 8,-0.15816,-7.64872\H,0,-1.26006,-0.53826,-8.2326\N,0,-0.2859,1.16628,
 -7.64421\C,0,0.7712,1.52787,-6.89842\C,0,1.37496,-0.69382,-6.29736\N,0
 ,2.11611,-1.62229,-5.68924\H,0,2.90752,-1.37478,-5.12922\H,0,1.90567,-
 2.59641,-5.77265\H,0,1.31023,4.5351,-7.73377\H,0,-0.16146,3.82937,-7.7
 4539\H,0,0.34869,4.63021,-6.41855\N,0,-0.53031,3.35637,-3.54171\C,0,-0
 .92457,2.04308,-3.63048\C,0,-1.36863,4.52409,-3.87988\N,0,-3.34859,-0.
 32475,-4.39158\H,0,-3.43493,-1.32061,-4.3843\H,0,-4.14721,0.19773,-4.6
 9148\N,0,-2.13431,1.6023,-4.03827\C,0,-2.21329,0.28363,-4.01623\N,0,-1
 .18722,-0.54202,-3.62509\H,0,-1.33704,-1.53917,-3.64003\C,0,0.06591,-0
 .11042,-3.20173\O,0,0.92283,-0.93884,-2.86984\C,0,0.16588,1.30399,-3.2
 2003\N,0,1.22344,2.13653,-2.8804\C,0,0.76554,3.34154,-3.08652\H,0,1.33
 312,4.25808,-2.92197\H,0,-0.93465,5.04705,-4.61266\H,0,-2.26724,4.2099
 2,-4.1833\H,0,-1.47458,5.10512,-3.07366\H,0,-2.49739,-6.40492,-4.55146
 \H,0,-2.82307,-6.43526,-2.82008\H,0,-3.09277,-4.95551,-3.74147\H,0,1.9
 8164,-6.6829,-2.81723\C,0,1.19385,-5.94173,-2.95243\O,0,2.63639,-4.083
 29,-2.64852\C,0,1.519,-4.55077,-2.8669\H,0,0.64007,-2.70737,-2.99993\N
 ,0,0.44961,-3.69813,-3.05311\O,0,-1.73333,-3.21833,-3.45532\C,0,-0.853
 55,-4.0477,-3.30436\H,0,-0.36738,-7.3584,-3.27092\C,0,-0.06818,-6.3137
 6,-3.19634\C,0,-2.46566,-5.82862,-3.63881\N,0,-1.08764,-5.40704,-3.372
 21\H,0,-1.73924,-8.64272,-8.22411\H,0,-2.36586,-7.29847,-7.5441\H,0,-2
 .40998,-8.71713,-6.73818\H,0,3.59418,-4.84813,-4.72822\H,0,3.58074,-6.
 55156,-4.81899\N,0,3.11113,-5.68434,-4.98814\C,0,1.89478,-5.64582,-5.5
 3604\C,0,-0.07683,-6.59144,-6.47426\N,0,-0.68336,-5.41242,-6.6898\H,0,
 -0.32449,-3.41159,-6.42809\C,0,0.09312,-4.40782,-6.28886\N,0,1.31167,-
 4.44436,-5.73987\H,0,0.28759,-9.80382,-6.46928\C,0,0.41165,-8.72608,-6
 .35961\N,0,1.47137,-8.14579,-5.85174\C,0,1.17472,-6.79218,-5.91852\C,0
 ,-1.87459,-8.15022,-7.36439\N,0,-0.56456,-7.84529,-6.75707\\Version=EM
 64L-G16RevA.03\State=1-A\HF=-2048.7391725\RMSD=7.473e-09\Dipole=-2.962
 1054,-1.6699753,-0.8766272\Quadrupole=-12.2805933,48.1864937,-35.90590
 05,7.7678109,-6.3362432,-0.132062\PG=C01 [X(C23H27N17O3)]\\@


 SUCCESS IS COUNTED SWEETEST
 BY THOSE WHO NE'ER SUCCEED.
 TO COMPREHEND NECTAR
 REQUIRES SOREST NEED.
           EMILY DICKINSON
 Job cpu time:       0 days  6 hours  8 minutes  2.7 seconds.
 Elapsed time:       0 days  0 hours 11 minutes 52.5 seconds.
 File lengths (MBytes):  RWF=    298 Int=      0 D2E=      0 Chk=     33 Scr=      1
 Normal termination of Gaussian 16 at Thu Jan 25 12:37:59 2018.
