 Entering Gaussian System, Link 0=g16
 Input=str5.0.0.5.com
 Output=str5.0.0.5.log
 Initial command:
 /share/apps/g16/l1.exe "/state/partition1/scr/Gau-16010.inp" -scrdir="/state/partition1/scr/"
 Entering Link 1 = /share/apps/g16/l1.exe PID=     16011.
  
 Copyright (c) 1988,1990,1992,1993,1995,1998,2003,2009,2016,
            Gaussian, Inc.  All Rights Reserved.
  
 This is part of the Gaussian(R) 16 program.  It is based on
 the Gaussian(R) 09 system (copyright 2009, Gaussian, Inc.),
 the Gaussian(R) 03 system (copyright 2003, Gaussian, Inc.),
 the Gaussian(R) 98 system (copyright 1998, Gaussian, Inc.),
 the Gaussian(R) 94 system (copyright 1995, Gaussian, Inc.),
 the Gaussian 92(TM) system (copyright 1992, Gaussian, Inc.),
 the Gaussian 90(TM) system (copyright 1990, Gaussian, Inc.),
 the Gaussian 88(TM) system (copyright 1988, Gaussian, Inc.),
 the Gaussian 86(TM) system (copyright 1986, Carnegie Mellon
 University), and the Gaussian 82(TM) system (copyright 1983,
 Carnegie Mellon University). Gaussian is a federally registered
 trademark of Gaussian, Inc.
  
 This software contains proprietary and confidential information,
 including trade secrets, belonging to Gaussian, Inc.
  
 This software is provided under written license and may be
 used, copied, transmitted, or stored only in accord with that
 written license.
  
 The following legend is applicable only to US Government
 contracts under FAR:
  
                    RESTRICTED RIGHTS LEGEND
  
 Use, reproduction and disclosure by the US Government is
 subject to restrictions as set forth in subparagraphs (a)
 and (c) of the Commercial Computer Software - Restricted
 Rights clause in FAR 52.227-19.
  
 Gaussian, Inc.
 340 Quinnipiac St., Bldg. 40, Wallingford CT 06492
  
  
 ---------------------------------------------------------------
 Warning -- This program may not be used in any manner that
 competes with the business of Gaussian, Inc. or will provide
 assistance to any competitor of Gaussian, Inc.  The licensee
 of this program is prohibited from giving any competitor of
 Gaussian, Inc. access to this program.  By using this program,
 the user acknowledges that Gaussian, Inc. is engaged in the
 business of creating and licensing software in the field of
 computational chemistry and represents and warrants to the
 licensee that it is not a competitor of Gaussian, Inc. and that
 it will not use this program in any manner prohibited above.
 ---------------------------------------------------------------
  

 Cite this work as:
 Gaussian 16, Revision A.03,
 M. J. Frisch, G. W. Trucks, H. B. Schlegel, G. E. Scuseria, 
 M. A. Robb, J. R. Cheeseman, G. Scalmani, V. Barone, 
 G. A. Petersson, H. Nakatsuji, X. Li, M. Caricato, A. V. Marenich, 
 J. Bloino, B. G. Janesko, R. Gomperts, B. Mennucci, H. P. Hratchian, 
 J. V. Ortiz, A. F. Izmaylov, J. L. Sonnenberg, D. Williams-Young, 
 F. Ding, F. Lipparini, F. Egidi, J. Goings, B. Peng, A. Petrone, 
 T. Henderson, D. Ranasinghe, V. G. Zakrzewski, J. Gao, N. Rega, 
 G. Zheng, W. Liang, M. Hada, M. Ehara, K. Toyota, R. Fukuda, 
 J. Hasegawa, M. Ishida, T. Nakajima, Y. Honda, O. Kitao, H. Nakai, 
 T. Vreven, K. Throssell, J. A. Montgomery, Jr., J. E. Peralta, 
 F. Ogliaro, M. J. Bearpark, J. J. Heyd, E. N. Brothers, K. N. Kudin, 
 V. N. Staroverov, T. A. Keith, R. Kobayashi, J. Normand, 
 K. Raghavachari, A. P. Rendell, J. C. Burant, S. S. Iyengar, 
 J. Tomasi, M. Cossi, J. M. Millam, M. Klene, C. Adamo, R. Cammi, 
 J. W. Ochterski, R. L. Martin, K. Morokuma, O. Farkas, 
 J. B. Foresman, and D. J. Fox, Gaussian, Inc., Wallingford CT, 2016.
 
 ******************************************
 Gaussian 16:  EM64L-G16RevA.03 25-Dec-2016
                24-Jan-2018 
 ******************************************
 %nprocshared=32
 Will use up to   32 processors via shared memory.
 %mem=32GB
 %chk=allatoms_t.chk
 ---------------------------------------
 #p wb97xd/cc-pvdz sp scf=(maxcycles=20)
 ---------------------------------------
 1/38=1,172=1/1;
 2/12=2,17=6,18=5,40=1/2;
 3/5=16,11=2,25=1,30=1,74=-58/1,2,3;
 4//1;
 5/5=2,7=20,38=5/2;
 6/7=2,8=2,9=2,10=2,28=1/1;
 99/5=1,9=1/99;
 Leave Link    1 at Wed Jan 24 10:26:39 2018, MaxMem=  4294967296 cpu:               2.7 elap:               0.1
 (Enter /share/apps/g16/l101.exe)
 ------------------
 Base pair stacking
 ------------------
 Symbolic Z-matrix:
 Charge =  0 Multiplicity = 1
 N                    -0.43939   4.85499  -6.47105 
 C                    -1.2037    6.11329  -6.57363 
 C                     0.11522   2.72869  -6.37851 
 N                     1.29808   3.44382  -6.25948 
 C                     0.9166    4.69622  -6.32 
 H                     1.58869   5.55268  -6.25909 
 N                    -1.4487    0.96914  -6.52372 
 C                    -2.38689   1.91451  -6.6407 
 H                    -3.40663   1.54699  -6.74702 
 N                    -2.25514   3.23947  -6.64603 
 C                    -0.96422   3.58493  -6.50964 
 C                    -0.15939   1.34904  -6.38803 
 N                     0.77856   0.40683  -6.27112 
 H                     1.74567   0.64222  -6.1686 
 H                     0.54666  -0.56592  -6.28203 
 H                    -0.88805   6.63282  -7.36775 
 H                    -2.17604   5.90603  -6.67715 
 H                    -1.06687   6.65726  -5.74576 
 N                    -0.96887   4.34548  -3.26456 
 C                    -1.37418   3.03256  -3.26328 
 C                    -1.86478   5.51539  -3.36129 
 N                    -3.91525   0.66901  -3.39872 
 H                    -3.99791  -0.32702  -3.38065 
 H                    -4.76365   1.19337  -3.47605 
 N                    -2.64871   2.59418  -3.34948 
 C                    -2.72082   1.2752   -3.32272 
 N                    -1.62946   0.44708  -3.21948 
 H                    -1.77919  -0.55011  -3.20649 
 C                    -0.30899   0.87618  -3.12957 
 O                     0.60365   0.04565  -3.03986 
 C                    -0.21554   2.29089  -3.15705 
 N                     0.89482   3.12148  -3.09292 
 C                     0.40058   4.3279   -3.16 
 H                     0.99245   5.24357  -3.13738 
 H                    -1.63437   6.04736  -4.17537 
 H                    -2.81164   5.20302  -3.42565 
 H                    -1.75807   6.08713  -2.54855 
 H                    -3.14126  -5.40742  -3.84208 
 H                    -3.00835  -5.45781  -2.08582 
 H                    -3.50537  -3.96829  -2.88935 
 H                     1.63351  -5.6967   -3.32784 
 C                     0.83839  -4.9555   -3.2464 
 O                     2.31259  -3.09795  -3.30466 
 C                     1.17619  -3.56499  -3.23206 
 H                     0.29486  -1.72182  -3.11248 
 N                     0.09599  -2.71227  -3.12585 
 O                    -2.11618  -2.23196  -2.94466 
 C                    -1.22823  -3.06137  -3.03565 
 H                    -0.75372  -6.37134  -3.16654 
 C                    -0.44421  -5.32706  -3.16 
 C                    -2.87403  -4.84135  -2.96218 
 N                    -1.47345  -4.42029  -3.05609 
 H                    -3.88349  -6.5568   -6.86174 
 H                    -4.07779  -5.25236  -5.90113 
 H                    -3.7265   -6.70458  -5.24405 
 H                     2.51274  -2.83427  -6.31721 
 H                     2.44216  -4.5323   -6.46493 
 N                     1.95767  -3.66587  -6.33931 
 C                     0.63032  -3.62245  -6.20724 
 C                    -1.55429  -4.55699  -6.08142 
 N                    -2.17811  -3.37918  -5.91402 
 H                    -1.72045  -1.3861   -5.77681 
 C                    -1.29699  -2.38093  -5.90822 
 N                     0.03282  -2.42236  -6.04035 
 H                    -1.26166  -7.76078  -6.40123 
 C                    -1.09079  -6.68693  -6.32 
 N                     0.08579  -6.11284  -6.38132 
 C                    -0.19382  -4.76225  -6.23142 
 C                    -3.56913  -6.10347  -6.02768 
 N                    -2.12818  -5.80489  -6.1396 
 
 ITRead=  0  0  0  0  0  0  0  0  0  0  0  0  0  0  0  0  0  0  0  0
 ITRead=  0  0  0  0  0  0  0  0  0  0  0  0  0  0  0  0  0  0  0  0
 ITRead=  0  0  0  0  0  0  0  0  0  0  0  0  0  0  0  0  0  0  0  0
 ITRead=  0  0  0  0  0  0  0  0  0  0
 MicOpt= -1 -1 -1 -1 -1 -1 -1 -1 -1 -1 -1 -1 -1 -1 -1 -1 -1 -1 -1 -1
 MicOpt= -1 -1 -1 -1 -1 -1 -1 -1 -1 -1 -1 -1 -1 -1 -1 -1 -1 -1 -1 -1
 MicOpt= -1 -1 -1 -1 -1 -1 -1 -1 -1 -1 -1 -1 -1 -1 -1 -1 -1 -1 -1 -1
 MicOpt= -1 -1 -1 -1 -1 -1 -1 -1 -1 -1
 NAtoms=     70 NQM=       70 NQMF=       0 NMMI=      0 NMMIF=      0
                NMic=       0 NMicF=      0.
                    Isotopes and Nuclear Properties:
 (Nuclear quadrupole moments (NQMom) in fm**2, nuclear magnetic moments (NMagM)
  in nuclear magnetons)

  Atom         1           2           3           4           5           6           7           8           9          10
 IAtWgt=          14          12          12          14          12           1          14          12           1          14
 AtmWgt=  14.0030740  12.0000000  12.0000000  14.0030740  12.0000000   1.0078250  14.0030740  12.0000000   1.0078250  14.0030740
 NucSpn=           2           0           0           2           0           1           2           0           1           2
 AtZEff=  -0.0000000  -0.0000000  -0.0000000  -0.0000000  -0.0000000  -0.0000000  -0.0000000  -0.0000000  -0.0000000  -0.0000000
 NQMom=    2.0440000   0.0000000   0.0000000   2.0440000   0.0000000   0.0000000   2.0440000   0.0000000   0.0000000   2.0440000
 NMagM=    0.4037610   0.0000000   0.0000000   0.4037610   0.0000000   2.7928460   0.4037610   0.0000000   2.7928460   0.4037610
 AtZNuc=   7.0000000   6.0000000   6.0000000   7.0000000   6.0000000   1.0000000   7.0000000   6.0000000   1.0000000   7.0000000

  Atom        11          12          13          14          15          16          17          18          19          20
 IAtWgt=          12          12          14           1           1           1           1           1          14          12
 AtmWgt=  12.0000000  12.0000000  14.0030740   1.0078250   1.0078250   1.0078250   1.0078250   1.0078250  14.0030740  12.0000000
 NucSpn=           0           0           2           1           1           1           1           1           2           0
 AtZEff=  -0.0000000  -0.0000000  -0.0000000  -0.0000000  -0.0000000  -0.0000000  -0.0000000  -0.0000000  -0.0000000  -0.0000000
 NQMom=    0.0000000   0.0000000   2.0440000   0.0000000   0.0000000   0.0000000   0.0000000   0.0000000   2.0440000   0.0000000
 NMagM=    0.0000000   0.0000000   0.4037610   2.7928460   2.7928460   2.7928460   2.7928460   2.7928460   0.4037610   0.0000000
 AtZNuc=   6.0000000   6.0000000   7.0000000   1.0000000   1.0000000   1.0000000   1.0000000   1.0000000   7.0000000   6.0000000

  Atom        21          22          23          24          25          26          27          28          29          30
 IAtWgt=          12          14           1           1          14          12          14           1          12          16
 AtmWgt=  12.0000000  14.0030740   1.0078250   1.0078250  14.0030740  12.0000000  14.0030740   1.0078250  12.0000000  15.9949146
 NucSpn=           0           2           1           1           2           0           2           1           0           0
 AtZEff=  -0.0000000  -0.0000000  -0.0000000  -0.0000000  -0.0000000  -0.0000000  -0.0000000  -0.0000000  -0.0000000  -0.0000000
 NQMom=    0.0000000   2.0440000   0.0000000   0.0000000   2.0440000   0.0000000   2.0440000   0.0000000   0.0000000   0.0000000
 NMagM=    0.0000000   0.4037610   2.7928460   2.7928460   0.4037610   0.0000000   0.4037610   2.7928460   0.0000000   0.0000000
 AtZNuc=   6.0000000   7.0000000   1.0000000   1.0000000   7.0000000   6.0000000   7.0000000   1.0000000   6.0000000   8.0000000

  Atom        31          32          33          34          35          36          37          38          39          40
 IAtWgt=          12          14          12           1           1           1           1           1           1           1
 AtmWgt=  12.0000000  14.0030740  12.0000000   1.0078250   1.0078250   1.0078250   1.0078250   1.0078250   1.0078250   1.0078250
 NucSpn=           0           2           0           1           1           1           1           1           1           1
 AtZEff=  -0.0000000  -0.0000000  -0.0000000  -0.0000000  -0.0000000  -0.0000000  -0.0000000  -0.0000000  -0.0000000  -0.0000000
 NQMom=    0.0000000   2.0440000   0.0000000   0.0000000   0.0000000   0.0000000   0.0000000   0.0000000   0.0000000   0.0000000
 NMagM=    0.0000000   0.4037610   0.0000000   2.7928460   2.7928460   2.7928460   2.7928460   2.7928460   2.7928460   2.7928460
 AtZNuc=   6.0000000   7.0000000   6.0000000   1.0000000   1.0000000   1.0000000   1.0000000   1.0000000   1.0000000   1.0000000

  Atom        41          42          43          44          45          46          47          48          49          50
 IAtWgt=           1          12          16          12           1          14          16          12           1          12
 AtmWgt=   1.0078250  12.0000000  15.9949146  12.0000000   1.0078250  14.0030740  15.9949146  12.0000000   1.0078250  12.0000000
 NucSpn=           1           0           0           0           1           2           0           0           1           0
 AtZEff=  -0.0000000  -0.0000000  -0.0000000  -0.0000000  -0.0000000  -0.0000000  -0.0000000  -0.0000000  -0.0000000  -0.0000000
 NQMom=    0.0000000   0.0000000   0.0000000   0.0000000   0.0000000   2.0440000   0.0000000   0.0000000   0.0000000   0.0000000
 NMagM=    2.7928460   0.0000000   0.0000000   0.0000000   2.7928460   0.4037610   0.0000000   0.0000000   2.7928460   0.0000000
 AtZNuc=   1.0000000   6.0000000   8.0000000   6.0000000   1.0000000   7.0000000   8.0000000   6.0000000   1.0000000   6.0000000

  Atom        51          52          53          54          55          56          57          58          59          60
 IAtWgt=          12          14           1           1           1           1           1          14          12          12
 AtmWgt=  12.0000000  14.0030740   1.0078250   1.0078250   1.0078250   1.0078250   1.0078250  14.0030740  12.0000000  12.0000000
 NucSpn=           0           2           1           1           1           1           1           2           0           0
 AtZEff=  -0.0000000  -0.0000000  -0.0000000  -0.0000000  -0.0000000  -0.0000000  -0.0000000  -0.0000000  -0.0000000  -0.0000000
 NQMom=    0.0000000   2.0440000   0.0000000   0.0000000   0.0000000   0.0000000   0.0000000   2.0440000   0.0000000   0.0000000
 NMagM=    0.0000000   0.4037610   2.7928460   2.7928460   2.7928460   2.7928460   2.7928460   0.4037610   0.0000000   0.0000000
 AtZNuc=   6.0000000   7.0000000   1.0000000   1.0000000   1.0000000   1.0000000   1.0000000   7.0000000   6.0000000   6.0000000

  Atom        61          62          63          64          65          66          67          68          69          70
 IAtWgt=          14           1          12          14           1          12          14          12          12          14
 AtmWgt=  14.0030740   1.0078250  12.0000000  14.0030740   1.0078250  12.0000000  14.0030740  12.0000000  12.0000000  14.0030740
 NucSpn=           2           1           0           2           1           0           2           0           0           2
 AtZEff=  -0.0000000  -0.0000000  -0.0000000  -0.0000000  -0.0000000  -0.0000000  -0.0000000  -0.0000000  -0.0000000  -0.0000000
 NQMom=    2.0440000   0.0000000   0.0000000   2.0440000   0.0000000   0.0000000   2.0440000   0.0000000   0.0000000   2.0440000
 NMagM=    0.4037610   2.7928460   0.0000000   0.4037610   2.7928460   0.0000000   0.4037610   0.0000000   0.0000000   0.4037610
 AtZNuc=   7.0000000   1.0000000   6.0000000   7.0000000   1.0000000   6.0000000   7.0000000   6.0000000   6.0000000   7.0000000
 Leave Link  101 at Wed Jan 24 10:26:39 2018, MaxMem=  4294967296 cpu:               7.7 elap:               0.3
 (Enter /share/apps/g16/l202.exe)
 Stoichiometry    C23H27N17O3
 Framework group  C1[X(C23H27N17O3)]
 Deg. of freedom   204
 Full point group                 C1      NOp   1
 Largest Abelian subgroup         C1      NOp   1
 Largest concise Abelian subgroup C1      NOp   1
                         Standard orientation:                         
 ---------------------------------------------------------------------
 Center     Atomic      Atomic             Coordinates (Angstroms)
 Number     Number       Type             X           Y           Z
 ---------------------------------------------------------------------
      1          7           0        5.386674   -1.504093   -0.823018
      2          6           0        6.637273   -1.093498   -1.490420
      3          6           0        3.265966   -1.799708   -0.320508
      4          7           0        3.993005   -2.440252    0.672394
      5          6           0        5.241560   -2.236518    0.329903
      6          1           0        6.104785   -2.601335    0.887298
      7          7           0        1.490672   -0.951237   -1.621038
      8          6           0        2.426591   -0.446087   -2.431277
      9          1           0        2.048804    0.105655   -3.290988
     10          7           0        3.752874   -0.519824   -2.339390
     11          6           0        4.111333   -1.218055   -1.249253
     12          6           0        1.883555   -1.648672   -0.532789
     13          7           0        0.950793   -2.153695    0.277201
     14          1           0        1.195922   -2.676746    1.094239
     15          1           0       -0.024289   -2.026519    0.095047
     16          1           0        7.163286   -1.905310   -1.744279
     17          1           0        6.420222   -0.567681   -2.312323
     18          1           0        7.179313   -0.528224   -0.868607
     19          7           0        4.858718    1.322966    0.774019
     20          6           0        3.541616    1.564876    0.466193
     21          6           0        6.019526    1.819629    0.008153
     22          7           0        1.152050    3.026669   -1.586826
     23          1           0        0.155141    3.082814   -1.634323
     24          1           0        1.667770    3.502451   -2.299834
     25          7           0        3.090213    2.291087   -0.579220
     26          6           0        1.770451    2.344267   -0.611217
     27          7           0        0.953440    1.733676    0.309207
     28          1           0       -0.045313    1.827826    0.206232
     29          6           0        1.396031    0.981515    1.392821
     30          8           0        0.574786    0.472206    2.165414
     31          6           0        2.811744    0.915348    1.440465
     32          7           0        3.653695    0.278488    2.341808
     33          6           0        4.855114    0.547233    1.907537
     34          1           0        5.776856    0.203338    2.378068
     35          1           0        6.557162    1.045721   -0.324745
     36          1           0        5.697482    2.359016   -0.768771
     37          1           0        6.589079    2.392225    0.596849
     38          1           0       -4.914074    2.137424   -1.226244
     39          1           0       -4.970136    3.423392   -0.023000
     40          1           0       -3.482699    3.122299   -0.922018
     41          1           0       -5.155215   -0.452759    2.820897
     42          6           0       -4.422748    0.115603    2.247589
     43          8           0       -2.549585   -0.834440    3.350235
     44          6           0       -3.028833   -0.071118    2.512105
     45          1           0       -1.195526    0.591656    1.889182
     46          7           0       -2.187950    0.696070    1.731347
     47          8           0       -1.731654    2.226583    0.116867
     48          6           0       -2.551311    1.591816    0.757092
     49          1           0       -5.855556    1.160583    1.064003
     50          6           0       -4.808115    0.982119    1.303540
     51          6           0       -4.348774    2.661875   -0.470296
     52          7           0       -3.912640    1.716144    0.560778
     53          1           0       -6.059024    0.235874   -3.688667
     54          1           0       -4.760577    1.119305   -3.246316
     55          1           0       -6.211658    1.397758   -2.552826
     56          1           0       -2.271686   -3.306523    1.619158
     57          1           0       -3.969756   -3.394055    1.481293
     58          7           0       -3.108979   -2.984436    1.177173
     59          6           0       -3.080047   -2.050263    0.224457
     60          6           0       -4.037998   -0.593932   -1.395156
     61          7           0       -2.867495   -0.061502   -1.783549
     62          1           0       -0.870283   -0.221562   -1.352072
     63          6           0       -1.860069   -0.598746   -1.098442
     64          7           0       -1.886986   -1.534487   -0.143856
     65          1           0       -7.237222   -1.057631   -1.348939
     66          6           0       -6.161971   -1.090788   -1.170938
     67          7           0       -5.575302   -1.869421   -0.295020
     68          6           0       -4.228340   -1.564391   -0.426915
     69          6           0       -5.605777    0.693983   -2.924017
     70          7           0       -5.291618   -0.292251   -1.872038
 ---------------------------------------------------------------------
 Rotational constants (GHZ):           0.1802412           0.0520027           0.0509789
 Leave Link  202 at Wed Jan 24 10:26:39 2018, MaxMem=  4294967296 cpu:               0.4 elap:               0.0
 (Enter /share/apps/g16/l301.exe)
 Standard basis: CC-pVDZ (5D, 7F)
 Ernie: Thresh=  0.10000D-02 Tol=  0.10000D-05 Strict=F.
 Ernie:  86 primitive shells out of 1081 were deleted.
 There are   780 symmetry adapted cartesian basis functions of A   symmetry.
 There are   737 symmetry adapted basis functions of A   symmetry.
   737 basis functions,  1608 primitive gaussians,   780 cartesian basis functions
   154 alpha electrons      154 beta electrons
       nuclear repulsion energy      5619.1748014718 Hartrees.
 IExCor= 4639 DFT=T Ex+Corr=wB97XD ExCW=0 ScaHFX=  1.000000
 ScaDFX=  1.000000  1.000000  1.000000  1.000000 ScalE2=  1.000000  1.000000
 IRadAn=      5 IRanWt=     -1 IRanGd=            0 ICorTp=0 IEmpDi=121
 HFx  wShort=  0.000000 wLong=  0.200000 cFull=  0.222036 cShort=  0.000000 cLong=  0.777964
 DFx  wShort=  0.000000 wLong=  0.200000 cFull=  0.000000 cShort=  0.000000 cLong=  1.000000
 NAtoms=   70 NActive=   70 NUniq=   70 SFac= 1.00D+00 NAtFMM=   60 NAOKFM=T Big=T
 Integral buffers will be    131072 words long.
 Raffenetti 2 integral format.
 Two-electron integral symmetry is turned on.
 R6Disp:  Grimme-D2 Dispersion energy=       -0.0807307197 Hartrees.
 Nuclear repulsion after empirical dispersion term =     5619.0940707521 Hartrees.
 Leave Link  301 at Wed Jan 24 10:26:39 2018, MaxMem=  4294967296 cpu:               3.0 elap:               0.1
 (Enter /share/apps/g16/l302.exe)
 NPDir=0 NMtPBC=     1 NCelOv=     1 NCel=       1 NClECP=     1 NCelD=      1
         NCelK=      1 NCelE2=     1 NClLst=     1 CellRange=     0.0.
 One-electron integrals computed using PRISM.
 One-electron integral symmetry used in STVInt
 NBasis=   737 RedAO= T EigKep=  6.38D-04  NBF=   737
 NBsUse=   737 1.00D-06 EigRej= -1.00D+00 NBFU=   737
 Precomputing XC quadrature grid using
 IXCGrd= 4 IRadAn=           5 IRanWt=          -1 IRanGd=           0 AccXCQ= 0.00D+00.
 Generated NRdTot=       0 NPtTot=           0 NUsed=           0 NTot=          32
 NSgBfM=   766   762   765   765   766 MxSgAt=    70 MxSgA2=    70.
 Leave Link  302 at Wed Jan 24 10:26:43 2018, MaxMem=  4294967296 cpu:             135.7 elap:               4.3
 (Enter /share/apps/g16/l303.exe)
 DipDrv:  MaxL=1.
 Leave Link  303 at Wed Jan 24 10:26:44 2018, MaxMem=  4294967296 cpu:              12.5 elap:               0.4
 (Enter /share/apps/g16/l401.exe)
 ExpMin= 1.22D-01 ExpMax= 1.17D+04 ExpMxC= 4.01D+02 IAcc=3 IRadAn=         5 AccDes= 0.00D+00
 Harris functional with IExCor= 4639 and IRadAn=       5 diagonalized for initial guess.
 HarFok:  IExCor= 4639 AccDes= 0.00D+00 IRadAn=         5 IDoV= 1 UseB2=F ITyADJ=14
 ICtDFT=  3500011 ScaDFX=  1.000000  1.000000  1.000000  1.000000
 FoFCou: FMM=F IPFlag=           0 FMFlag=      100000 FMFlg1=        2001
         NFxFlg=           0 DoJE=T BraDBF=F KetDBF=T FulRan=T
         wScrn=  0.000000 ICntrl=       500 IOpCl=  0 I1Cent=   200000004 NGrid=           0
         NMat0=    1 NMatS0=      1 NMatT0=    0 NMatD0=    1 NMtDS0=    0 NMtDT0=    0
 Petite list used in FoFCou.
 Harris En= -1963.87520107914    
 JPrj=0 DoOrth=F DoCkMO=F.
 Leave Link  401 at Wed Jan 24 10:26:59 2018, MaxMem=  4294967296 cpu:             475.2 elap:              15.4
 (Enter /share/apps/g16/l502.exe)
 Integral symmetry usage will be decided dynamically.
 Closed shell SCF:
 Using DIIS extrapolation, IDIIS=  1040.
 NGot=  4294967296 LenX=  4293717438 LenY=  4293108258
 Requested convergence on RMS density matrix=1.00D-08 within  20 cycles.
 Requested convergence on MAX density matrix=1.00D-06.
 Requested convergence on             energy=1.00D-06.
 No special actions if energy rises.
 Fock matrices will be formed incrementally for  20 cycles.
 Integral accuracy reduced to 1.0D-05 until final iterations.

 Cycle   1  Pass 0  IDiag  1:
 FoFJK:  IHMeth= 1 ICntrl=       0 DoSepK=T KAlg= 0 I1Cent=           0 FoldK=F
 IRaf=         1 NMat=       1 IRICut=       1 DoRegI=T DoRafI=F ISym2E= 0 IDoP0=0 IntGTp=1.
 FoFCou: FMM=T IPFlag=           0 FMFlag=      100000 FMFlg1=        2001
         NFxFlg=           0 DoJE=T BraDBF=F KetDBF=F FulRan=T
         wScrn=  0.000000 ICntrl=       500 IOpCl=  0 I1Cent=           0 NGrid=           0
         NMat0=    1 NMatS0=      1 NMatT0=    0 NMatD0=    1 NMtDS0=    0 NMtDT0=    0
 Symmetry not used in FoFCou.
 FMM levels:  10  Number of levels for PrismC:   9
 E= -2048.30447531557    
 DIIS: error= 2.14D-02 at cycle   1 NSaved=   1.
 NSaved= 1 IEnMin= 1 EnMin= -2048.30447531557     IErMin= 1 ErrMin= 2.14D-02
 ErrMax= 2.14D-02  0.00D+00 EMaxC= 1.00D-01 BMatC= 8.39D-01 BMatP= 8.39D-01
 IDIUse=3 WtCom= 7.86D-01 WtEn= 2.14D-01
 Coeff-Com:  0.100D+01
 Coeff-En:   0.100D+01
 Coeff:      0.100D+01
 Gap=     0.247 Goal=   None    Shift=    0.000
 GapD=    0.247 DampG=1.000 DampE=0.500 DampFc=0.5000 IDamp=-1.
 Damping current iteration by 5.00D-01
 RMSDP=1.62D-03 MaxDP=1.12D-01              OVMax= 1.70D-01

 Cycle   2  Pass 0  IDiag  1:
 RMSU=  8.12D-04    CP:  9.98D-01
 E= -2048.49889109126     Delta-E=       -0.194415775688 Rises=F Damp=T
 DIIS: error= 1.17D-02 at cycle   2 NSaved=   2.
 NSaved= 2 IEnMin= 2 EnMin= -2048.49889109126     IErMin= 2 ErrMin= 1.17D-02
 ErrMax= 1.17D-02  0.00D+00 EMaxC= 1.00D-01 BMatC= 1.48D-01 BMatP= 8.39D-01
 IDIUse=3 WtCom= 8.83D-01 WtEn= 1.17D-01
 Coeff-Com: -0.173D+00 0.117D+01
 Coeff-En:   0.000D+00 0.100D+01
 Coeff:     -0.153D+00 0.115D+01
 Gap=     0.335 Goal=   None    Shift=    0.000
 RMSDP=6.20D-04 MaxDP=3.25D-02 DE=-1.94D-01 OVMax= 1.54D-01

 Cycle   3  Pass 0  IDiag  1:
 RMSU=  6.14D-04    CP:  9.94D-01  1.09D+00
 E= -2048.67515500093     Delta-E=       -0.176263909671 Rises=F Damp=F
 DIIS: error= 7.42D-03 at cycle   3 NSaved=   3.
 NSaved= 3 IEnMin= 3 EnMin= -2048.67515500093     IErMin= 3 ErrMin= 7.42D-03
 ErrMax= 7.42D-03  0.00D+00 EMaxC= 1.00D-01 BMatC= 7.46D-02 BMatP= 1.48D-01
 IDIUse=3 WtCom= 9.26D-01 WtEn= 7.42D-02
 Coeff-Com: -0.233D+00 0.565D+00 0.668D+00
 Coeff-En:   0.000D+00 0.000D+00 0.100D+01
 Coeff:     -0.216D+00 0.523D+00 0.693D+00
 Gap=     0.273 Goal=   None    Shift=    0.000
 RMSDP=4.04D-04 MaxDP=2.57D-02 DE=-1.76D-01 OVMax= 7.41D-02

 Cycle   4  Pass 0  IDiag  1:
 RMSU=  2.21D-04    CP:  9.94D-01  1.40D+00  6.38D-01
 E= -2048.73150227430     Delta-E=       -0.056347273369 Rises=F Damp=F
 DIIS: error= 2.49D-03 at cycle   4 NSaved=   4.
 NSaved= 4 IEnMin= 4 EnMin= -2048.73150227430     IErMin= 4 ErrMin= 2.49D-03
 ErrMax= 2.49D-03  0.00D+00 EMaxC= 1.00D-01 BMatC= 1.09D-02 BMatP= 7.46D-02
 IDIUse=3 WtCom= 9.75D-01 WtEn= 2.49D-02
 Coeff-Com: -0.968D-01 0.188D+00 0.375D+00 0.535D+00
 Coeff-En:   0.000D+00 0.000D+00 0.830D-01 0.917D+00
 Coeff:     -0.943D-01 0.183D+00 0.367D+00 0.544D+00
 Gap=     0.275 Goal=   None    Shift=    0.000
 RMSDP=1.40D-04 MaxDP=1.09D-02 DE=-5.63D-02 OVMax= 1.60D-02

 Cycle   5  Pass 0  IDiag  1:
 RMSU=  6.28D-05    CP:  9.94D-01  1.37D+00  7.82D-01  6.22D-01
 E= -2048.74077556756     Delta-E=       -0.009273293255 Rises=F Damp=F
 DIIS: error= 4.68D-04 at cycle   5 NSaved=   5.
 NSaved= 5 IEnMin= 5 EnMin= -2048.74077556756     IErMin= 5 ErrMin= 4.68D-04
 ErrMax= 4.68D-04  0.00D+00 EMaxC= 1.00D-01 BMatC= 2.97D-04 BMatP= 1.09D-02
 IDIUse=3 WtCom= 9.95D-01 WtEn= 4.68D-03
 Coeff-Com: -0.248D-01 0.424D-01 0.119D+00 0.233D+00 0.630D+00
 Coeff-En:   0.000D+00 0.000D+00 0.000D+00 0.000D+00 0.100D+01
 Coeff:     -0.247D-01 0.422D-01 0.118D+00 0.232D+00 0.632D+00
 Gap=     0.275 Goal=   None    Shift=    0.000
 RMSDP=2.78D-05 MaxDP=1.46D-03 DE=-9.27D-03 OVMax= 3.21D-03

 Failed to achieve initial convergence to 1.0D-08 in  6 cycles.
 Switch to full accuracy anyway.
 Cycle   6  Pass 1  IDiag  1:
 E= -2048.74097395657     Delta-E=       -0.000198389016 Rises=F Damp=F
 DIIS: error= 2.27D-04 at cycle   1 NSaved=   1.
 NSaved= 1 IEnMin= 1 EnMin= -2048.74097395657     IErMin= 1 ErrMin= 2.27D-04
 ErrMax= 2.27D-04  0.00D+00 EMaxC= 1.00D-01 BMatC= 7.72D-05 BMatP= 7.72D-05
 IDIUse=3 WtCom= 9.98D-01 WtEn= 2.27D-03
 Coeff-Com:  0.100D+01
 Coeff-En:   0.100D+01
 Coeff:      0.100D+01
 Gap=     0.275 Goal=   None    Shift=    0.000
 RMSDP=2.78D-05 MaxDP=1.46D-03 DE=-1.98D-04 OVMax= 2.50D-03

 Cycle   7  Pass 1  IDiag  1:
 RMSU=  1.15D-04    CP:  1.00D+00
 E= -2048.74102909340     Delta-E=       -0.000055136832 Rises=F Damp=F
 DIIS: error= 1.85D-04 at cycle   2 NSaved=   2.
 NSaved= 2 IEnMin= 2 EnMin= -2048.74102909340     IErMin= 2 ErrMin= 1.85D-04
 ErrMax= 1.85D-04  0.00D+00 EMaxC= 1.00D-01 BMatC= 4.52D-05 BMatP= 7.72D-05
 IDIUse=3 WtCom= 9.98D-01 WtEn= 1.85D-03
 Coeff-Com:  0.411D+00 0.589D+00
 Coeff-En:   0.000D+00 0.100D+01
 Coeff:      0.410D+00 0.590D+00
 Gap=     0.275 Goal=   None    Shift=    0.000
 RMSDP=1.21D-05 MaxDP=7.73D-04 DE=-5.51D-05 OVMax= 1.68D-03

 Cycle   8  Pass 1  IDiag  1:
 RMSU=  1.18D-05    CP:  1.00D+00  1.02D+00
 E= -2048.74106312954     Delta-E=       -0.000034036137 Rises=F Damp=F
 DIIS: error= 9.50D-05 at cycle   3 NSaved=   3.
 NSaved= 3 IEnMin= 3 EnMin= -2048.74106312954     IErMin= 3 ErrMin= 9.50D-05
 ErrMax= 9.50D-05  0.00D+00 EMaxC= 1.00D-01 BMatC= 1.01D-05 BMatP= 4.52D-05
 IDIUse=1 WtCom= 1.00D+00 WtEn= 0.00D+00
 Coeff-Com: -0.174D-01 0.307D+00 0.711D+00
 Coeff:     -0.174D-01 0.307D+00 0.711D+00
 Gap=     0.275 Goal=   None    Shift=    0.000
 RMSDP=5.90D-06 MaxDP=3.96D-04 DE=-3.40D-05 OVMax= 6.26D-04

 Cycle   9  Pass 1  IDiag  1:
 RMSU=  4.02D-06    CP:  1.00D+00  1.05D+00  7.61D-01
 E= -2048.74107307236     Delta-E=       -0.000009942817 Rises=F Damp=F
 DIIS: error= 2.25D-05 at cycle   4 NSaved=   4.
 NSaved= 4 IEnMin= 4 EnMin= -2048.74107307236     IErMin= 4 ErrMin= 2.25D-05
 ErrMax= 2.25D-05  0.00D+00 EMaxC= 1.00D-01 BMatC= 6.05D-07 BMatP= 1.01D-05
 IDIUse=1 WtCom= 1.00D+00 WtEn= 0.00D+00
 Coeff-Com: -0.317D-01 0.886D-01 0.281D+00 0.662D+00
 Coeff:     -0.317D-01 0.886D-01 0.281D+00 0.662D+00
 Gap=     0.275 Goal=   None    Shift=    0.000
 RMSDP=1.56D-06 MaxDP=7.90D-05 DE=-9.94D-06 OVMax= 4.71D-04

 Cycle  10  Pass 1  IDiag  1:
 RMSU=  1.39D-06    CP:  1.00D+00  1.05D+00  8.02D-01  1.08D+00
 E= -2048.74107402296     Delta-E=       -0.000000950606 Rises=F Damp=F
 DIIS: error= 1.03D-05 at cycle   5 NSaved=   5.
 NSaved= 5 IEnMin= 5 EnMin= -2048.74107402296     IErMin= 5 ErrMin= 1.03D-05
 ErrMax= 1.03D-05  0.00D+00 EMaxC= 1.00D-01 BMatC= 1.39D-07 BMatP= 6.05D-07
 IDIUse=1 WtCom= 1.00D+00 WtEn= 0.00D+00
 Coeff-Com: -0.511D-02-0.497D-01-0.103D+00 0.221D+00 0.937D+00
 Coeff:     -0.511D-02-0.497D-01-0.103D+00 0.221D+00 0.937D+00
 Gap=     0.275 Goal=   None    Shift=    0.000
 RMSDP=1.24D-06 MaxDP=6.26D-05 DE=-9.51D-07 OVMax= 2.55D-04

 Cycle  11  Pass 1  IDiag  1:
 RMSU=  5.17D-07    CP:  1.00D+00  1.05D+00  8.13D-01  1.35D+00  1.17D+00
 E= -2048.74107431290     Delta-E=       -0.000000289935 Rises=F Damp=F
 DIIS: error= 6.36D-06 at cycle   6 NSaved=   6.
 NSaved= 6 IEnMin= 6 EnMin= -2048.74107431290     IErMin= 6 ErrMin= 6.36D-06
 ErrMax= 6.36D-06  0.00D+00 EMaxC= 1.00D-01 BMatC= 3.42D-08 BMatP= 1.39D-07
 IDIUse=1 WtCom= 1.00D+00 WtEn= 0.00D+00
 Coeff-Com:  0.480D-02-0.462D-01-0.120D+00-0.714D-02 0.511D+00 0.658D+00
 Coeff:      0.480D-02-0.462D-01-0.120D+00-0.714D-02 0.511D+00 0.658D+00
 Gap=     0.275 Goal=   None    Shift=    0.000
 RMSDP=4.54D-07 MaxDP=2.48D-05 DE=-2.90D-07 OVMax= 1.34D-04

 Cycle  12  Pass 1  IDiag  1:
 RMSU=  2.09D-07    CP:  1.00D+00  1.05D+00  8.16D-01  1.44D+00  1.31D+00
                    CP:  9.53D-01
 E= -2048.74107436502     Delta-E=       -0.000000052118 Rises=F Damp=F
 DIIS: error= 1.05D-06 at cycle   7 NSaved=   7.
 NSaved= 7 IEnMin= 7 EnMin= -2048.74107436502     IErMin= 7 ErrMin= 1.05D-06
 ErrMax= 1.05D-06  0.00D+00 EMaxC= 1.00D-01 BMatC= 8.84D-10 BMatP= 3.42D-08
 IDIUse=1 WtCom= 1.00D+00 WtEn= 0.00D+00
 Coeff-Com:  0.128D-02-0.872D-02-0.244D-01-0.960D-02 0.721D-01 0.148D+00
 Coeff-Com:  0.822D+00
 Coeff:      0.128D-02-0.872D-02-0.244D-01-0.960D-02 0.721D-01 0.148D+00
 Coeff:      0.822D+00
 Gap=     0.275 Goal=   None    Shift=    0.000
 RMSDP=9.08D-08 MaxDP=3.40D-06 DE=-5.21D-08 OVMax= 2.53D-05

 Cycle  13  Pass 1  IDiag  1:
 RMSU=  5.85D-08    CP:  1.00D+00  1.05D+00  8.16D-01  1.45D+00  1.33D+00
                    CP:  1.03D+00  1.13D+00
 E= -2048.74107436656     Delta-E=       -0.000000001542 Rises=F Damp=F
 DIIS: error= 5.33D-07 at cycle   8 NSaved=   8.
 NSaved= 8 IEnMin= 8 EnMin= -2048.74107436656     IErMin= 8 ErrMin= 5.33D-07
 ErrMax= 5.33D-07  0.00D+00 EMaxC= 1.00D-01 BMatC= 4.02D-10 BMatP= 8.84D-10
 IDIUse=1 WtCom= 1.00D+00 WtEn= 0.00D+00
 Coeff-Com: -0.777D-03 0.941D-02 0.234D-01-0.122D-02-0.114D+00-0.122D+00
 Coeff-Com:  0.413D+00 0.792D+00
 Coeff:     -0.777D-03 0.941D-02 0.234D-01-0.122D-02-0.114D+00-0.122D+00
 Coeff:      0.413D+00 0.792D+00
 Gap=     0.275 Goal=   None    Shift=    0.000
 RMSDP=5.78D-08 MaxDP=3.34D-06 DE=-1.54D-09 OVMax= 1.23D-05

 Cycle  14  Pass 1  IDiag  1:
 RMSU=  3.14D-08    CP:  1.00D+00  1.05D+00  8.15D-01  1.45D+00  1.34D+00
                    CP:  1.08D+00  1.30D+00  1.05D+00
 E= -2048.74107436745     Delta-E=       -0.000000000887 Rises=F Damp=F
 DIIS: error= 1.91D-07 at cycle   9 NSaved=   9.
 NSaved= 9 IEnMin= 9 EnMin= -2048.74107436745     IErMin= 9 ErrMin= 1.91D-07
 ErrMax= 1.91D-07  0.00D+00 EMaxC= 1.00D-01 BMatC= 3.01D-11 BMatP= 4.02D-10
 IDIUse=1 WtCom= 1.00D+00 WtEn= 0.00D+00
 Coeff-Com: -0.427D-03 0.450D-02 0.114D-01 0.625D-03-0.500D-01-0.618D-01
 Coeff-Com:  0.830D-01 0.287D+00 0.725D+00
 Coeff:     -0.427D-03 0.450D-02 0.114D-01 0.625D-03-0.500D-01-0.618D-01
 Coeff:      0.830D-01 0.287D+00 0.725D+00
 Gap=     0.275 Goal=   None    Shift=    0.000
 RMSDP=1.44D-08 MaxDP=5.25D-07 DE=-8.87D-10 OVMax= 3.27D-06

 Cycle  15  Pass 1  IDiag  1:
 RMSU=  9.88D-09    CP:  1.00D+00  1.05D+00  8.15D-01  1.45D+00  1.34D+00
                    CP:  1.09D+00  1.32D+00  1.18D+00  1.11D+00
 E= -2048.74107436736     Delta-E=        0.000000000088 Rises=F Damp=F
 DIIS: error= 6.95D-08 at cycle  10 NSaved=  10.
 NSaved=10 IEnMin= 9 EnMin= -2048.74107436745     IErMin=10 ErrMin= 6.95D-08
 ErrMax= 6.95D-08  0.00D+00 EMaxC= 1.00D-01 BMatC= 5.59D-12 BMatP= 3.01D-11
 IDIUse=1 WtCom= 1.00D+00 WtEn= 0.00D+00
 Coeff-Com:  0.133D-04-0.394D-03-0.894D-03 0.176D-03 0.623D-02 0.326D-02
 Coeff-Com: -0.547D-01-0.729D-01 0.253D+00 0.866D+00
 Coeff:      0.133D-04-0.394D-03-0.894D-03 0.176D-03 0.623D-02 0.326D-02
 Coeff:     -0.547D-01-0.729D-01 0.253D+00 0.866D+00
 Gap=     0.275 Goal=   None    Shift=    0.000
 RMSDP=7.60D-09 MaxDP=2.85D-07 DE= 8.82D-11 OVMax= 1.61D-06

 SCF Done:  E(RwB97XD) =  -2048.74107437     A.U. after   15 cycles
            NFock= 15  Conv=0.76D-08     -V/T= 2.0053
 KE= 2.037843728589D+03 PE=-1.601879859935D+04 EE= 6.313119725638D+03
 Leave Link  502 at Wed Jan 24 10:39:17 2018, MaxMem=  4294967296 cpu:           22743.4 elap:             737.4
 (Enter /share/apps/g16/l601.exe)
 Copying SCF densities to generalized density rwf, IOpCl= 0 IROHF=0.

 **********************************************************************

            Population analysis using the SCF density.

 **********************************************************************

 Orbital symmetries:
       Occupied  (A) (A) (A) (A) (A) (A) (A) (A) (A) (A) (A) (A)
                 (A) (A) (A) (A) (A) (A) (A) (A) (A) (A) (A) (A)
                 (A) (A) (A) (A) (A) (A) (A) (A) (A) (A) (A) (A)
                 (A) (A) (A) (A) (A) (A) (A) (A) (A) (A) (A) (A)
                 (A) (A) (A) (A) (A) (A) (A) (A) (A) (A) (A) (A)
                 (A) (A) (A) (A) (A) (A) (A) (A) (A) (A) (A) (A)
                 (A) (A) (A) (A) (A) (A) (A) (A) (A) (A) (A) (A)
                 (A) (A) (A) (A) (A) (A) (A) (A) (A) (A) (A) (A)
                 (A) (A) (A) (A) (A) (A) (A) (A) (A) (A) (A) (A)
                 (A) (A) (A) (A) (A) (A) (A) (A) (A) (A) (A) (A)
                 (A) (A) (A) (A) (A) (A) (A) (A) (A) (A) (A) (A)
                 (A) (A) (A) (A) (A) (A) (A) (A) (A) (A) (A) (A)
                 (A) (A) (A) (A) (A) (A) (A) (A) (A) (A)
       Virtual   (A) (A) (A) (A) (A) (A) (A) (A) (A) (A) (A) (A)
                 (A) (A) (A) (A) (A) (A) (A) (A) (A) (A) (A) (A)
                 (A) (A) (A) (A) (A) (A) (A) (A) (A) (A) (A) (A)
                 (A) (A) (A) (A) (A) (A) (A) (A) (A) (A) (A) (A)
                 (A) (A) (A) (A) (A) (A) (A) (A) (A) (A) (A) (A)
                 (A) (A) (A) (A) (A) (A) (A) (A) (A) (A) (A) (A)
                 (A) (A) (A) (A) (A) (A) (A) (A) (A) (A) (A) (A)
                 (A) (A) (A) (A) (A) (A) (A) (A) (A) (A) (A) (A)
                 (A) (A) (A) (A) (A) (A) (A) (A) (A) (A) (A) (A)
                 (A) (A) (A) (A) (A) (A) (A) (A) (A) (A) (A) (A)
                 (A) (A) (A) (A) (A) (A) (A) (A) (A) (A) (A) (A)
                 (A) (A) (A) (A) (A) (A) (A) (A) (A) (A) (A) (A)
                 (A) (A) (A) (A) (A) (A) (A) (A) (A) (A) (A) (A)
                 (A) (A) (A) (A) (A) (A) (A) (A) (A) (A) (A) (A)
                 (A) (A) (A) (A) (A) (A) (A) (A) (A) (A) (A) (A)
                 (A) (A) (A) (A) (A) (A) (A) (A) (A) (A) (A) (A)
                 (A) (A) (A) (A) (A) (A) (A) (A) (A) (A) (A) (A)
                 (A) (A) (A) (A) (A) (A) (A) (A) (A) (A) (A) (A)
                 (A) (A) (A) (A) (A) (A) (A) (A) (A) (A) (A) (A)
                 (A) (A) (A) (A) (A) (A) (A) (A) (A) (A) (A) (A)
                 (A) (A) (A) (A) (A) (A) (A) (A) (A) (A) (A) (A)
                 (A) (A) (A) (A) (A) (A) (A) (A) (A) (A) (A) (A)
                 (A) (A) (A) (A) (A) (A) (A) (A) (A) (A) (A) (A)
                 (A) (A) (A) (A) (A) (A) (A) (A) (A) (A) (A) (A)
                 (A) (A) (A) (A) (A) (A) (A) (A) (A) (A) (A) (A)
                 (A) (A) (A) (A) (A) (A) (A) (A) (A) (A) (A) (A)
                 (A) (A) (A) (A) (A) (A) (A) (A) (A) (A) (A) (A)
                 (A) (A) (A) (A) (A) (A) (A) (A) (A) (A) (A) (A)
                 (A) (A) (A) (A) (A) (A) (A) (A) (A) (A) (A) (A)
                 (A) (A) (A) (A) (A) (A) (A) (A) (A) (A) (A) (A)
                 (A) (A) (A) (A) (A) (A) (A) (A) (A) (A) (A) (A)
                 (A) (A) (A) (A) (A) (A) (A) (A) (A) (A) (A) (A)
                 (A) (A) (A) (A) (A) (A) (A) (A) (A) (A) (A) (A)
                 (A) (A) (A) (A) (A) (A) (A) (A) (A) (A) (A) (A)
                 (A) (A) (A) (A) (A) (A) (A) (A) (A) (A) (A) (A)
                 (A) (A) (A) (A) (A) (A) (A) (A) (A) (A) (A) (A)
                 (A) (A) (A) (A) (A) (A) (A) (A) (A) (A) (A) (A)
                 (A) (A) (A) (A) (A) (A) (A) (A) (A) (A) (A) (A)
                 (A) (A) (A) (A) (A) (A) (A) (A) (A) (A) (A) (A)
                 (A) (A) (A) (A) (A) (A) (A) (A) (A) (A) (A) (A)
                 (A) (A) (A) (A) (A) (A) (A) (A) (A) (A) (A) (A)
                 (A) (A) (A) (A) (A) (A) (A) (A) (A) (A) (A) (A)
                 (A) (A) (A) (A) (A) (A) (A) (A) (A) (A) (A) (A)
                 (A) (A) (A) (A) (A) (A) (A) (A) (A) (A) (A) (A)
                 (A) (A) (A) (A) (A) (A) (A) (A) (A) (A) (A) (A)
                 (A) (A) (A) (A) (A) (A) (A) (A) (A) (A) (A) (A)
                 (A) (A) (A) (A) (A) (A) (A) (A) (A) (A) (A) (A)
                 (A) (A) (A) (A) (A) (A) (A) (A) (A) (A) (A) (A)
                 (A) (A) (A) (A) (A) (A) (A)
 The electronic state is 1-A.
 Alpha  occ. eigenvalues --  -19.25257 -19.21560 -19.20506 -14.52359 -14.51904
 Alpha  occ. eigenvalues --  -14.49450 -14.48964 -14.47283 -14.47239 -14.46701
 Alpha  occ. eigenvalues --  -14.46555 -14.45002 -14.43986 -14.43802 -14.42886
 Alpha  occ. eigenvalues --  -14.41871 -14.41856 -14.41478 -14.40974 -14.40885
 Alpha  occ. eigenvalues --  -10.44887 -10.41056 -10.39630 -10.39306 -10.38158
 Alpha  occ. eigenvalues --  -10.37676 -10.37103 -10.36845 -10.36113 -10.35475
 Alpha  occ. eigenvalues --  -10.34855 -10.34597 -10.34351 -10.34205 -10.33988
 Alpha  occ. eigenvalues --  -10.33733 -10.33455 -10.32178 -10.31982 -10.31215
 Alpha  occ. eigenvalues --  -10.30388 -10.29131 -10.28080  -1.18892  -1.14977
 Alpha  occ. eigenvalues --   -1.13133  -1.12581  -1.12004  -1.10638  -1.08811
 Alpha  occ. eigenvalues --   -1.08763  -1.08450  -1.05716  -1.04257  -1.02021
 Alpha  occ. eigenvalues --   -1.01064  -1.00686  -0.99615  -0.98452  -0.97672
 Alpha  occ. eigenvalues --   -0.96643  -0.96388  -0.93362  -0.90455  -0.87409
 Alpha  occ. eigenvalues --   -0.85946  -0.84866  -0.84087  -0.83356  -0.83211
 Alpha  occ. eigenvalues --   -0.82519  -0.78355  -0.76619  -0.74657  -0.74457
 Alpha  occ. eigenvalues --   -0.73594  -0.73496  -0.72846  -0.71693  -0.70000
 Alpha  occ. eigenvalues --   -0.67369  -0.66965  -0.66361  -0.66051  -0.64395
 Alpha  occ. eigenvalues --   -0.63852  -0.63595  -0.63338  -0.62531  -0.61698
 Alpha  occ. eigenvalues --   -0.61515  -0.60954  -0.60133  -0.59241  -0.59207
 Alpha  occ. eigenvalues --   -0.59003  -0.58373  -0.58266  -0.57240  -0.56107
 Alpha  occ. eigenvalues --   -0.55638  -0.55383  -0.55308  -0.54777  -0.54083
 Alpha  occ. eigenvalues --   -0.54070  -0.53515  -0.53471  -0.52957  -0.52626
 Alpha  occ. eigenvalues --   -0.52508  -0.52305  -0.51663  -0.51261  -0.50912
 Alpha  occ. eigenvalues --   -0.50111  -0.49985  -0.49395  -0.49232  -0.49016
 Alpha  occ. eigenvalues --   -0.48745  -0.48235  -0.47980  -0.47839  -0.47602
 Alpha  occ. eigenvalues --   -0.47184  -0.46212  -0.44959  -0.43900  -0.43177
 Alpha  occ. eigenvalues --   -0.41590  -0.40385  -0.38944  -0.37736  -0.37618
 Alpha  occ. eigenvalues --   -0.37209  -0.37089  -0.36930  -0.35904  -0.34738
 Alpha  occ. eigenvalues --   -0.34335  -0.34058  -0.33795  -0.33551  -0.32892
 Alpha  occ. eigenvalues --   -0.32537  -0.32385  -0.31816  -0.31411  -0.31245
 Alpha  occ. eigenvalues --   -0.30918  -0.29271  -0.27187  -0.24581
 Alpha virt. eigenvalues --    0.02932   0.04710   0.06770   0.07304   0.08750
 Alpha virt. eigenvalues --    0.09383   0.09961   0.10742   0.10857   0.12129
 Alpha virt. eigenvalues --    0.12644   0.13959   0.14439   0.14702   0.15258
 Alpha virt. eigenvalues --    0.15433   0.16149   0.17646   0.17871   0.18503
 Alpha virt. eigenvalues --    0.18565   0.19445   0.19570   0.19983   0.20572
 Alpha virt. eigenvalues --    0.20910   0.21099   0.21360   0.21701   0.21924
 Alpha virt. eigenvalues --    0.22273   0.22428   0.22700   0.23254   0.23473
 Alpha virt. eigenvalues --    0.24329   0.24498   0.24791   0.25296   0.25627
 Alpha virt. eigenvalues --    0.27097   0.27424   0.27681   0.27948   0.28736
 Alpha virt. eigenvalues --    0.28923   0.29046   0.29636   0.30192   0.30383
 Alpha virt. eigenvalues --    0.31739   0.32087   0.32406   0.33070   0.33571
 Alpha virt. eigenvalues --    0.34448   0.34603   0.35064   0.35802   0.36322
 Alpha virt. eigenvalues --    0.36701   0.37443   0.37524   0.38046   0.39590
 Alpha virt. eigenvalues --    0.39985   0.40244   0.40373   0.41486   0.41953
 Alpha virt. eigenvalues --    0.42495   0.43014   0.43477   0.44129   0.44315
 Alpha virt. eigenvalues --    0.44897   0.45450   0.46136   0.47008   0.47211
 Alpha virt. eigenvalues --    0.47615   0.47740   0.48144   0.48201   0.49403
 Alpha virt. eigenvalues --    0.50143   0.50338   0.50606   0.50869   0.51611
 Alpha virt. eigenvalues --    0.51967   0.52261   0.52561   0.52740   0.53433
 Alpha virt. eigenvalues --    0.53733   0.54226   0.54716   0.55067   0.55494
 Alpha virt. eigenvalues --    0.55688   0.56459   0.56623   0.57243   0.57843
 Alpha virt. eigenvalues --    0.57969   0.58314   0.58961   0.59709   0.60029
 Alpha virt. eigenvalues --    0.60384   0.61134   0.61164   0.61909   0.62160
 Alpha virt. eigenvalues --    0.62286   0.62913   0.63120   0.63752   0.64033
 Alpha virt. eigenvalues --    0.64486   0.64919   0.65219   0.65623   0.65731
 Alpha virt. eigenvalues --    0.66604   0.66937   0.67655   0.67924   0.68465
 Alpha virt. eigenvalues --    0.68661   0.69463   0.69956   0.70497   0.70667
 Alpha virt. eigenvalues --    0.70973   0.71813   0.71912   0.72238   0.72892
 Alpha virt. eigenvalues --    0.73315   0.73636   0.73911   0.74271   0.74610
 Alpha virt. eigenvalues --    0.75055   0.75473   0.75692   0.76207   0.76534
 Alpha virt. eigenvalues --    0.76838   0.77283   0.77540   0.78204   0.78327
 Alpha virt. eigenvalues --    0.78588   0.79054   0.79551   0.79982   0.80252
 Alpha virt. eigenvalues --    0.80449   0.80586   0.81285   0.81904   0.82047
 Alpha virt. eigenvalues --    0.82685   0.82861   0.83588   0.84033   0.84596
 Alpha virt. eigenvalues --    0.84660   0.84875   0.85085   0.85553   0.85842
 Alpha virt. eigenvalues --    0.86297   0.86562   0.87266   0.87942   0.88113
 Alpha virt. eigenvalues --    0.88335   0.88588   0.89306   0.90201   0.90561
 Alpha virt. eigenvalues --    0.91212   0.91428   0.92051   0.92565   0.93089
 Alpha virt. eigenvalues --    0.93470   0.94022   0.94474   0.94692   0.95185
 Alpha virt. eigenvalues --    0.95739   0.95796   0.96199   0.96615   0.97058
 Alpha virt. eigenvalues --    0.97313   0.97977   0.98888   0.99182   0.99595
 Alpha virt. eigenvalues --    1.00022   1.00623   1.01289   1.01334   1.01841
 Alpha virt. eigenvalues --    1.02274   1.02626   1.03055   1.03700   1.04214
 Alpha virt. eigenvalues --    1.04967   1.05286   1.05602   1.05671   1.06645
 Alpha virt. eigenvalues --    1.07475   1.08130   1.08813   1.09535   1.09773
 Alpha virt. eigenvalues --    1.10303   1.10512   1.10997   1.11580   1.12144
 Alpha virt. eigenvalues --    1.13209   1.13496   1.13571   1.14008   1.14212
 Alpha virt. eigenvalues --    1.14653   1.14912   1.15863   1.16194   1.16381
 Alpha virt. eigenvalues --    1.16654   1.17696   1.18183   1.18504   1.18955
 Alpha virt. eigenvalues --    1.19412   1.19792   1.20077   1.20632   1.20713
 Alpha virt. eigenvalues --    1.21359   1.21536   1.21832   1.22126   1.22394
 Alpha virt. eigenvalues --    1.22923   1.23873   1.24331   1.24513   1.24888
 Alpha virt. eigenvalues --    1.25175   1.25427   1.26059   1.26211   1.26942
 Alpha virt. eigenvalues --    1.28160   1.28262   1.28453   1.28635   1.29836
 Alpha virt. eigenvalues --    1.30178   1.30354   1.30543   1.31334   1.31804
 Alpha virt. eigenvalues --    1.32597   1.33415   1.33871   1.34260   1.34993
 Alpha virt. eigenvalues --    1.35373   1.35771   1.36332   1.36888   1.37428
 Alpha virt. eigenvalues --    1.38601   1.39474   1.40102   1.40309   1.40502
 Alpha virt. eigenvalues --    1.41592   1.41910   1.42792   1.43470   1.44696
 Alpha virt. eigenvalues --    1.46119   1.46306   1.46865   1.48119   1.48615
 Alpha virt. eigenvalues --    1.49242   1.50283   1.50546   1.51980   1.52423
 Alpha virt. eigenvalues --    1.52853   1.53652   1.53856   1.54263   1.55178
 Alpha virt. eigenvalues --    1.56259   1.57218   1.57488   1.58239   1.58850
 Alpha virt. eigenvalues --    1.59426   1.59607   1.60831   1.61685   1.62289
 Alpha virt. eigenvalues --    1.62973   1.63536   1.64202   1.65206   1.65526
 Alpha virt. eigenvalues --    1.65944   1.66176   1.66968   1.67639   1.68067
 Alpha virt. eigenvalues --    1.68454   1.68746   1.69203   1.69781   1.70031
 Alpha virt. eigenvalues --    1.71154   1.71368   1.71653   1.72335   1.72589
 Alpha virt. eigenvalues --    1.72919   1.73189   1.73389   1.74403   1.74725
 Alpha virt. eigenvalues --    1.75147   1.75901   1.76075   1.76522   1.76750
 Alpha virt. eigenvalues --    1.77137   1.77220   1.77894   1.78025   1.78259
 Alpha virt. eigenvalues --    1.78563   1.79201   1.79225   1.79586   1.79875
 Alpha virt. eigenvalues --    1.80508   1.80651   1.81288   1.82041   1.82089
 Alpha virt. eigenvalues --    1.82338   1.82835   1.83433   1.83986   1.84677
 Alpha virt. eigenvalues --    1.84897   1.85287   1.85423   1.86157   1.86698
 Alpha virt. eigenvalues --    1.87596   1.87716   1.88696   1.88810   1.88896
 Alpha virt. eigenvalues --    1.89397   1.89703   1.89908   1.89977   1.91086
 Alpha virt. eigenvalues --    1.91199   1.91680   1.92091   1.92419   1.93384
 Alpha virt. eigenvalues --    1.93659   1.94245   1.94896   1.95305   1.96606
 Alpha virt. eigenvalues --    1.97217   1.98320   1.99137   1.99597   2.00073
 Alpha virt. eigenvalues --    2.00200   2.01295   2.01551   2.01789   2.02473
 Alpha virt. eigenvalues --    2.03509   2.04191   2.04627   2.05253   2.05729
 Alpha virt. eigenvalues --    2.06018   2.07044   2.07766   2.08142   2.08347
 Alpha virt. eigenvalues --    2.09389   2.09914   2.10642   2.11368   2.12000
 Alpha virt. eigenvalues --    2.12136   2.13310   2.14102   2.14815   2.15432
 Alpha virt. eigenvalues --    2.16139   2.17231   2.17693   2.19078   2.19436
 Alpha virt. eigenvalues --    2.20645   2.21231   2.21454   2.21781   2.22245
 Alpha virt. eigenvalues --    2.22846   2.23149   2.24062   2.25148   2.25471
 Alpha virt. eigenvalues --    2.26314   2.26519   2.26896   2.27615   2.28370
 Alpha virt. eigenvalues --    2.28736   2.29067   2.29250   2.30010   2.30710
 Alpha virt. eigenvalues --    2.31256   2.32093   2.32347   2.33161   2.33380
 Alpha virt. eigenvalues --    2.34194   2.34780   2.35021   2.35287   2.35494
 Alpha virt. eigenvalues --    2.36043   2.37205   2.37388   2.37725   2.38521
 Alpha virt. eigenvalues --    2.39250   2.40227   2.40424   2.41302   2.41828
 Alpha virt. eigenvalues --    2.42563   2.43101   2.43796   2.44629   2.45159
 Alpha virt. eigenvalues --    2.45371   2.45951   2.46443   2.47140   2.48399
 Alpha virt. eigenvalues --    2.49293   2.50388   2.50739   2.52063   2.52394
 Alpha virt. eigenvalues --    2.53255   2.54378   2.55956   2.56701   2.57351
 Alpha virt. eigenvalues --    2.58098   2.58619   2.58862   2.61214   2.62164
 Alpha virt. eigenvalues --    2.62441   2.63250   2.63978   2.64124   2.65352
 Alpha virt. eigenvalues --    2.65666   2.66126   2.66379   2.66979   2.67465
 Alpha virt. eigenvalues --    2.68368   2.68988   2.70322   2.70553   2.70658
 Alpha virt. eigenvalues --    2.70907   2.71485   2.72459   2.73020   2.74219
 Alpha virt. eigenvalues --    2.74968   2.75343   2.76174   2.76821   2.77738
 Alpha virt. eigenvalues --    2.78155   2.78315   2.79124   2.79659   2.80159
 Alpha virt. eigenvalues --    2.80856   2.81409   2.81482   2.81887   2.82752
 Alpha virt. eigenvalues --    2.83041   2.83174   2.83616   2.85353   2.85378
 Alpha virt. eigenvalues --    2.86371   2.86828   2.87168   2.87683   2.88573
 Alpha virt. eigenvalues --    2.89128   2.90485   2.92476   2.93117   2.94098
 Alpha virt. eigenvalues --    2.95721   2.97740   2.98319   2.99742   3.00605
 Alpha virt. eigenvalues --    3.01979   3.02401   3.03358   3.05787   3.06833
 Alpha virt. eigenvalues --    3.08206   3.10281   3.11466   3.13365   3.14563
 Alpha virt. eigenvalues --    3.16389   3.16674   3.16964   3.18335   3.20839
 Alpha virt. eigenvalues --    3.22161   3.23994   3.24160   3.25445   3.28830
 Alpha virt. eigenvalues --    3.45429   3.47043   3.48143   3.49483   3.51256
 Alpha virt. eigenvalues --    3.52835   3.55508   3.56595   3.58431   3.60574
 Alpha virt. eigenvalues --    3.64078   3.71382   3.75993
          Condensed to atoms (all electrons):
 Mulliken charges:
               1
     1  N   -0.303960
     2  C    0.185606
     3  C    0.051687
     4  N   -0.234539
     5  C    0.119031
     6  H    0.024858
     7  N   -0.286070
     8  C    0.134372
     9  H    0.008518
    10  N   -0.274745
    11  C    0.231019
    12  C    0.076786
    13  N   -0.040861
    14  H    0.113771
    15  H    0.087061
    16  H    0.025326
    17  H    0.033988
    18  H    0.027786
    19  N   -0.296231
    20  C    0.240080
    21  C    0.201274
    22  N   -0.120604
    23  H    0.117764
    24  H    0.118572
    25  N   -0.295658
    26  C    0.231166
    27  N   -0.132638
    28  H    0.118269
    29  C    0.175481
    30  O   -0.325278
    31  C   -0.007788
    32  N   -0.212280
    33  C    0.119236
    34  H    0.018828
    35  H   -0.027452
    36  H    0.037818
    37  H    0.027249
    38  H    0.005779
    39  H    0.057232
    40  H    0.080228
    41  H    0.023134
    42  C   -0.083614
    43  O   -0.272919
    44  C    0.157086
    45  H    0.129427
    46  N   -0.104675
    47  O   -0.346658
    48  C    0.331074
    49  H    0.040291
    50  C    0.160201
    51  C    0.061100
    52  N   -0.268108
    53  H    0.033052
    54  H    0.041961
    55  H    0.033695
    56  H    0.123507
    57  H    0.117855
    58  N   -0.037858
    59  C    0.079391
    60  C    0.216618
    61  N   -0.266092
    62  H    0.022569
    63  C    0.156755
    64  N   -0.291594
    65  H    0.035697
    66  C    0.120038
    67  N   -0.248074
    68  C    0.046692
    69  C    0.188498
    70  N   -0.309730
 Sum of Mulliken charges =  -0.00000
 Mulliken charges with hydrogens summed into heavy atoms:
               1
     1  N   -0.303960
     2  C    0.272707
     3  C    0.051687
     4  N   -0.234539
     5  C    0.143888
     7  N   -0.286070
     8  C    0.142890
    10  N   -0.274745
    11  C    0.231019
    12  C    0.076786
    13  N    0.159972
    19  N   -0.296231
    20  C    0.240080
    21  C    0.238890
    22  N    0.115732
    25  N   -0.295658
    26  C    0.231166
    27  N   -0.014369
    29  C    0.175481
    30  O   -0.325278
    31  C   -0.007788
    32  N   -0.212280
    33  C    0.138064
    42  C   -0.060480
    43  O   -0.272919
    44  C    0.157086
    46  N    0.024753
    47  O   -0.346658
    48  C    0.331074
    50  C    0.200492
    51  C    0.204338
    52  N   -0.268108
    58  N    0.203504
    59  C    0.079391
    60  C    0.216618
    61  N   -0.266092
    63  C    0.179324
    64  N   -0.291594
    66  C    0.155735
    67  N   -0.248074
    68  C    0.046692
    69  C    0.297206
    70  N   -0.309730
 Electronic spatial extent (au):  <R**2>=          21993.2051
 Charge=             -0.0000 electrons
 Dipole moment (field-independent basis, Debye):
    X=             -4.1992    Y=              3.9705    Z=             -6.6048  Tot=              8.7762
 Quadrupole moment (field-independent basis, Debye-Ang):
   XX=           -145.9001   YY=           -227.4413   ZZ=           -260.0162
   XY=            -10.2876   XZ=              9.3724   YZ=            -11.3652
 Traceless Quadrupole moment (field-independent basis, Debye-Ang):
   XX=             65.2191   YY=            -16.3222   ZZ=            -48.8970
   XY=            -10.2876   XZ=              9.3724   YZ=            -11.3652
 Octapole moment (field-independent basis, Debye-Ang**2):
  XXX=             93.9431  YYY=             17.2458  ZZZ=            -96.6204  XYY=            -30.6127
  XXY=             80.0131  XXZ=            -98.8441  XZZ=            -62.8569  YZZ=             32.3091
  YYZ=              0.9342  XYZ=             25.3031
 Hexadecapole moment (field-independent basis, Debye-Ang**3):
 XXXX=         -16403.0517 YYYY=          -3733.2952 ZZZZ=          -3686.4711 XXXY=           -604.5236
 XXXZ=            498.0500 YYYX=             62.1140 YYYZ=           -254.2223 ZZZX=            179.7840
 ZZZY=            -91.1211 XXYY=          -4079.3383 XXZZ=          -3943.2413 YYZZ=          -1126.6572
 XXYZ=            -45.7908 YYXZ=            -95.5516 ZZXY=             -0.6923
 N-N= 5.619094070752D+03 E-N=-1.601879858688D+04  KE= 2.037843728589D+03
 No NMR shielding tensors so no spin-rotation constants.
 Leave Link  601 at Wed Jan 24 10:39:18 2018, MaxMem=  4294967296 cpu:              49.0 elap:               1.7
 (Enter /share/apps/g16/l9999.exe)
 1\1\GINC-COMPUTE-0-3\SP\RwB97XD\CC-pVDZ\C23H27N17O3\SATYA\24-Jan-2018\
 0\\#p wb97xd/cc-pvdz sp scf=(maxcycles=20)\\Base pair stacking\\0,1\N,
 0,-0.43939,4.85499,-6.47105\C,0,-1.2037,6.11329,-6.57363\C,0,0.11522,2
 .72869,-6.37851\N,0,1.29808,3.44382,-6.25948\C,0,0.9166,4.69622,-6.32\
 H,0,1.58869,5.55268,-6.25909\N,0,-1.4487,0.96914,-6.52372\C,0,-2.38689
 ,1.91451,-6.6407\H,0,-3.40663,1.54699,-6.74702\N,0,-2.25514,3.23947,-6
 .64603\C,0,-0.96422,3.58493,-6.50964\C,0,-0.15939,1.34904,-6.38803\N,0
 ,0.77856,0.40683,-6.27112\H,0,1.74567,0.64222,-6.1686\H,0,0.54666,-0.5
 6592,-6.28203\H,0,-0.88805,6.63282,-7.36775\H,0,-2.17604,5.90603,-6.67
 715\H,0,-1.06687,6.65726,-5.74576\N,0,-0.96887,4.34548,-3.26456\C,0,-1
 .37418,3.03256,-3.26328\C,0,-1.86478,5.51539,-3.36129\N,0,-3.91525,0.6
 6901,-3.39872\H,0,-3.99791,-0.32702,-3.38065\H,0,-4.76365,1.19337,-3.4
 7605\N,0,-2.64871,2.59418,-3.34948\C,0,-2.72082,1.2752,-3.32272\N,0,-1
 .62946,0.44708,-3.21948\H,0,-1.77919,-0.55011,-3.20649\C,0,-0.30899,0.
 87618,-3.12957\O,0,0.60365,0.04565,-3.03986\C,0,-0.21554,2.29089,-3.15
 705\N,0,0.89482,3.12148,-3.09292\C,0,0.40058,4.3279,-3.16\H,0,0.99245,
 5.24357,-3.13738\H,0,-1.63437,6.04736,-4.17537\H,0,-2.81164,5.20302,-3
 .42565\H,0,-1.75807,6.08713,-2.54855\H,0,-3.14126,-5.40742,-3.84208\H,
 0,-3.00835,-5.45781,-2.08582\H,0,-3.50537,-3.96829,-2.88935\H,0,1.6335
 1,-5.6967,-3.32784\C,0,0.83839,-4.9555,-3.2464\O,0,2.31259,-3.09795,-3
 .30466\C,0,1.17619,-3.56499,-3.23206\H,0,0.29486,-1.72182,-3.11248\N,0
 ,0.09599,-2.71227,-3.12585\O,0,-2.11618,-2.23196,-2.94466\C,0,-1.22823
 ,-3.06137,-3.03565\H,0,-0.75372,-6.37134,-3.16654\C,0,-0.44421,-5.3270
 6,-3.16\C,0,-2.87403,-4.84135,-2.96218\N,0,-1.47345,-4.42029,-3.05609\
 H,0,-3.88349,-6.5568,-6.86174\H,0,-4.07779,-5.25236,-5.90113\H,0,-3.72
 65,-6.70458,-5.24405\H,0,2.51274,-2.83427,-6.31721\H,0,2.44216,-4.5323
 ,-6.46493\N,0,1.95767,-3.66587,-6.33931\C,0,0.63032,-3.62245,-6.20724\
 C,0,-1.55429,-4.55699,-6.08142\N,0,-2.17811,-3.37918,-5.91402\H,0,-1.7
 2045,-1.3861,-5.77681\C,0,-1.29699,-2.38093,-5.90822\N,0,0.03282,-2.42
 236,-6.04035\H,0,-1.26166,-7.76078,-6.40123\C,0,-1.09079,-6.68693,-6.3
 2\N,0,0.08579,-6.11284,-6.38132\C,0,-0.19382,-4.76225,-6.23142\C,0,-3.
 56913,-6.10347,-6.02768\N,0,-2.12818,-5.80489,-6.1396\\Version=EM64L-G
 16RevA.03\State=1-A\HF=-2048.7410744\RMSD=7.602e-09\Dipole=-3.0215493,
 -1.6220484,-0.4016244\Quadrupole=-18.394081,48.2535036,-29.8594226,10.
 8696917,-13.7113117,-1.7746977\PG=C01 [X(C23H27N17O3)]\\@


 THE WISE MAN HAS THE POWER TO REASON AWAY
 WHAT A FOOL BELIEVES.
                     - DOOBIE BROTHERS
 Job cpu time:       0 days  6 hours 30 minutes 32.2 seconds.
 Elapsed time:       0 days  0 hours 12 minutes 39.8 seconds.
 File lengths (MBytes):  RWF=    298 Int=      0 D2E=      0 Chk=     33 Scr=      1
 Normal termination of Gaussian 16 at Wed Jan 24 10:39:19 2018.
