 Entering Gaussian System, Link 0=g16
 Input=str5.5.0.0.com
 Output=str5.5.0.0.log
 Initial command:
 /share/apps/g16/l1.exe "/state/partition1/scr/Gau-1628.inp" -scrdir="/state/partition1/scr/"
 Entering Link 1 = /share/apps/g16/l1.exe PID=      1629.
  
 Copyright (c) 1988,1990,1992,1993,1995,1998,2003,2009,2016,
            Gaussian, Inc.  All Rights Reserved.
  
 This is part of the Gaussian(R) 16 program.  It is based on
 the Gaussian(R) 09 system (copyright 2009, Gaussian, Inc.),
 the Gaussian(R) 03 system (copyright 2003, Gaussian, Inc.),
 the Gaussian(R) 98 system (copyright 1998, Gaussian, Inc.),
 the Gaussian(R) 94 system (copyright 1995, Gaussian, Inc.),
 the Gaussian 92(TM) system (copyright 1992, Gaussian, Inc.),
 the Gaussian 90(TM) system (copyright 1990, Gaussian, Inc.),
 the Gaussian 88(TM) system (copyright 1988, Gaussian, Inc.),
 the Gaussian 86(TM) system (copyright 1986, Carnegie Mellon
 University), and the Gaussian 82(TM) system (copyright 1983,
 Carnegie Mellon University). Gaussian is a federally registered
 trademark of Gaussian, Inc.
  
 This software contains proprietary and confidential information,
 including trade secrets, belonging to Gaussian, Inc.
  
 This software is provided under written license and may be
 used, copied, transmitted, or stored only in accord with that
 written license.
  
 The following legend is applicable only to US Government
 contracts under FAR:
  
                    RESTRICTED RIGHTS LEGEND
  
 Use, reproduction and disclosure by the US Government is
 subject to restrictions as set forth in subparagraphs (a)
 and (c) of the Commercial Computer Software - Restricted
 Rights clause in FAR 52.227-19.
  
 Gaussian, Inc.
 340 Quinnipiac St., Bldg. 40, Wallingford CT 06492
  
  
 ---------------------------------------------------------------
 Warning -- This program may not be used in any manner that
 competes with the business of Gaussian, Inc. or will provide
 assistance to any competitor of Gaussian, Inc.  The licensee
 of this program is prohibited from giving any competitor of
 Gaussian, Inc. access to this program.  By using this program,
 the user acknowledges that Gaussian, Inc. is engaged in the
 business of creating and licensing software in the field of
 computational chemistry and represents and warrants to the
 licensee that it is not a competitor of Gaussian, Inc. and that
 it will not use this program in any manner prohibited above.
 ---------------------------------------------------------------
  

 Cite this work as:
 Gaussian 16, Revision A.03,
 M. J. Frisch, G. W. Trucks, H. B. Schlegel, G. E. Scuseria, 
 M. A. Robb, J. R. Cheeseman, G. Scalmani, V. Barone, 
 G. A. Petersson, H. Nakatsuji, X. Li, M. Caricato, A. V. Marenich, 
 J. Bloino, B. G. Janesko, R. Gomperts, B. Mennucci, H. P. Hratchian, 
 J. V. Ortiz, A. F. Izmaylov, J. L. Sonnenberg, D. Williams-Young, 
 F. Ding, F. Lipparini, F. Egidi, J. Goings, B. Peng, A. Petrone, 
 T. Henderson, D. Ranasinghe, V. G. Zakrzewski, J. Gao, N. Rega, 
 G. Zheng, W. Liang, M. Hada, M. Ehara, K. Toyota, R. Fukuda, 
 J. Hasegawa, M. Ishida, T. Nakajima, Y. Honda, O. Kitao, H. Nakai, 
 T. Vreven, K. Throssell, J. A. Montgomery, Jr., J. E. Peralta, 
 F. Ogliaro, M. J. Bearpark, J. J. Heyd, E. N. Brothers, K. N. Kudin, 
 V. N. Staroverov, T. A. Keith, R. Kobayashi, J. Normand, 
 K. Raghavachari, A. P. Rendell, J. C. Burant, S. S. Iyengar, 
 J. Tomasi, M. Cossi, J. M. Millam, M. Klene, C. Adamo, R. Cammi, 
 J. W. Ochterski, R. L. Martin, K. Morokuma, O. Farkas, 
 J. B. Foresman, and D. J. Fox, Gaussian, Inc., Wallingford CT, 2016.
 
 ******************************************
 Gaussian 16:  EM64L-G16RevA.03 25-Dec-2016
                25-Jan-2018 
 ******************************************
 %nprocshared=32
 Will use up to   32 processors via shared memory.
 %mem=32GB
 %chk=allatoms_t.chk
 ---------------------------------------
 #p wb97xd/cc-pvdz sp scf=(maxcycles=20)
 ---------------------------------------
 1/38=1,172=1/1;
 2/12=2,17=6,18=5,40=1/2;
 3/5=16,11=2,25=1,30=1,74=-58/1,2,3;
 4//1;
 5/5=2,7=20,38=5/2;
 6/7=2,8=2,9=2,10=2,28=1/1;
 99/5=1,9=1/99;
 Leave Link    1 at Thu Jan 25 19:40:20 2018, MaxMem=  4294967296 cpu:               2.7 elap:               0.1
 (Enter /share/apps/g16/l101.exe)
 ------------------
 Base pair stacking
 ------------------
 Symbolic Z-matrix:
 Charge =  0 Multiplicity = 1
 N                     0.24011   5.82305  -6.58763 
 C                    -0.49224   7.0794   -6.83914 
 C                     0.76564   3.69858  -6.36911 
 N                     1.91196   4.41582  -6.05891 
 C                     1.54947   5.66703  -6.20297 
 H                     2.20299   6.52454  -6.04007 
 N                    -0.75394   1.93652  -6.7551 
 C                    -1.6558    2.8797   -7.04603 
 H                    -2.64285   2.51028  -7.32086 
 N                    -1.52208   4.20447  -7.04845 
 C                    -0.27314   4.55238  -6.69699 
 C                     0.49362   2.31886  -6.40511 
 N                     1.39527   1.37883  -6.11433 
 H                     2.33082   1.61607  -5.85033 
 H                     1.16649   0.40595  -6.15043 
 H                    -0.04338   7.58694  -7.57474 
 H                    -1.4327    6.87028  -7.10544 
 H                    -0.49876   7.63591  -6.00832 
 N                    -0.79458   4.84468  -3.36181 
 C                    -1.19911   3.53183  -3.39074 
 C                    -1.67814   6.01436  -3.54031 
 N                    -3.72002   1.1682   -3.73719 
 H                    -3.80442   0.17226  -3.72261 
 H                    -4.55825   1.6924   -3.88982 
 N                    -2.46158   3.09334  -3.58553 
 C                    -2.53638   1.77448  -3.56015 
 N                    -1.4585    0.94658  -3.35949 
 H                    -1.60928  -0.05052  -3.35577 
 C                    -0.1506    1.37581  -3.15698 
 O                     0.7504    0.54548  -2.9853 
 C                    -0.05442   2.79039  -3.18159 
 N                     1.0466    3.62104  -3.02451 
 C                     0.56063   4.82727  -3.13877 
 H                     1.14876   5.74293  -3.06835 
 H                    -1.37771   6.54319  -4.33334 
 H                    -2.616     5.7019   -3.6854 
 H                    -1.64206   6.58917  -2.72355 
 H                    -2.91347  -4.91     -4.0888 
 H                    -2.93345  -4.95373  -2.32745 
 H                    -3.35815  -3.46719  -3.17669 
 H                     1.79855  -5.19809  -3.16116 
 C                     0.99973  -4.45645  -3.15181 
 O                     2.47433  -2.59939  -3.08897 
 C                     1.33569  -3.06595  -3.11347 
 H                     0.44821  -1.2222   -3.07776 
 N                     0.25076  -2.21266  -3.10459 
 O                    -1.96854  -1.73131  -3.11782 
 C                    -1.07645  -2.56121  -3.1283 
 H                    -0.59401  -5.87172  -3.20503 
 C                    -0.28572  -4.82748  -3.17561 
 C                    -2.72331  -4.34063  -3.19117 
 N                    -1.31965  -3.92015  -3.16481 
 H                    -3.11136  -5.59448  -7.39454 
 H                    -3.46519  -4.2757   -6.50138 
 H                    -3.2356   -5.71767  -5.77194 
 H                     3.10407  -1.86203  -5.81252 
 H                     3.0561   -3.56212  -5.94472 
 N                     2.55919  -2.69404  -5.91741 
 C                     1.22903  -2.64907  -6.01655 
 C                    -0.94675  -3.58231  -6.25483 
 N                    -1.58738  -2.40229  -6.21502 
 H                    -1.15563  -0.40722  -6.03093 
 C                    -0.71814  -1.40378  -6.07253 
 N                     0.61447  -1.44678  -5.97305 
 H                    -0.61075  -6.79048  -6.47143 
 C                    -0.45396  -5.71547  -6.37808 
 N                     0.71691  -5.14198  -6.24447 
 C                     0.41876  -3.78937  -6.16521 
 C                    -2.94428  -5.12845  -6.52569 
 N                    -1.5049   -4.83114  -6.39225 
 
 ITRead=  0  0  0  0  0  0  0  0  0  0  0  0  0  0  0  0  0  0  0  0
 ITRead=  0  0  0  0  0  0  0  0  0  0  0  0  0  0  0  0  0  0  0  0
 ITRead=  0  0  0  0  0  0  0  0  0  0  0  0  0  0  0  0  0  0  0  0
 ITRead=  0  0  0  0  0  0  0  0  0  0
 MicOpt= -1 -1 -1 -1 -1 -1 -1 -1 -1 -1 -1 -1 -1 -1 -1 -1 -1 -1 -1 -1
 MicOpt= -1 -1 -1 -1 -1 -1 -1 -1 -1 -1 -1 -1 -1 -1 -1 -1 -1 -1 -1 -1
 MicOpt= -1 -1 -1 -1 -1 -1 -1 -1 -1 -1 -1 -1 -1 -1 -1 -1 -1 -1 -1 -1
 MicOpt= -1 -1 -1 -1 -1 -1 -1 -1 -1 -1
 NAtoms=     70 NQM=       70 NQMF=       0 NMMI=      0 NMMIF=      0
                NMic=       0 NMicF=      0.
                    Isotopes and Nuclear Properties:
 (Nuclear quadrupole moments (NQMom) in fm**2, nuclear magnetic moments (NMagM)
  in nuclear magnetons)

  Atom         1           2           3           4           5           6           7           8           9          10
 IAtWgt=          14          12          12          14          12           1          14          12           1          14
 AtmWgt=  14.0030740  12.0000000  12.0000000  14.0030740  12.0000000   1.0078250  14.0030740  12.0000000   1.0078250  14.0030740
 NucSpn=           2           0           0           2           0           1           2           0           1           2
 AtZEff=  -0.0000000  -0.0000000  -0.0000000  -0.0000000  -0.0000000  -0.0000000  -0.0000000  -0.0000000  -0.0000000  -0.0000000
 NQMom=    2.0440000   0.0000000   0.0000000   2.0440000   0.0000000   0.0000000   2.0440000   0.0000000   0.0000000   2.0440000
 NMagM=    0.4037610   0.0000000   0.0000000   0.4037610   0.0000000   2.7928460   0.4037610   0.0000000   2.7928460   0.4037610
 AtZNuc=   7.0000000   6.0000000   6.0000000   7.0000000   6.0000000   1.0000000   7.0000000   6.0000000   1.0000000   7.0000000

  Atom        11          12          13          14          15          16          17          18          19          20
 IAtWgt=          12          12          14           1           1           1           1           1          14          12
 AtmWgt=  12.0000000  12.0000000  14.0030740   1.0078250   1.0078250   1.0078250   1.0078250   1.0078250  14.0030740  12.0000000
 NucSpn=           0           0           2           1           1           1           1           1           2           0
 AtZEff=  -0.0000000  -0.0000000  -0.0000000  -0.0000000  -0.0000000  -0.0000000  -0.0000000  -0.0000000  -0.0000000  -0.0000000
 NQMom=    0.0000000   0.0000000   2.0440000   0.0000000   0.0000000   0.0000000   0.0000000   0.0000000   2.0440000   0.0000000
 NMagM=    0.0000000   0.0000000   0.4037610   2.7928460   2.7928460   2.7928460   2.7928460   2.7928460   0.4037610   0.0000000
 AtZNuc=   6.0000000   6.0000000   7.0000000   1.0000000   1.0000000   1.0000000   1.0000000   1.0000000   7.0000000   6.0000000

  Atom        21          22          23          24          25          26          27          28          29          30
 IAtWgt=          12          14           1           1          14          12          14           1          12          16
 AtmWgt=  12.0000000  14.0030740   1.0078250   1.0078250  14.0030740  12.0000000  14.0030740   1.0078250  12.0000000  15.9949146
 NucSpn=           0           2           1           1           2           0           2           1           0           0
 AtZEff=  -0.0000000  -0.0000000  -0.0000000  -0.0000000  -0.0000000  -0.0000000  -0.0000000  -0.0000000  -0.0000000  -0.0000000
 NQMom=    0.0000000   2.0440000   0.0000000   0.0000000   2.0440000   0.0000000   2.0440000   0.0000000   0.0000000   0.0000000
 NMagM=    0.0000000   0.4037610   2.7928460   2.7928460   0.4037610   0.0000000   0.4037610   2.7928460   0.0000000   0.0000000
 AtZNuc=   6.0000000   7.0000000   1.0000000   1.0000000   7.0000000   6.0000000   7.0000000   1.0000000   6.0000000   8.0000000

  Atom        31          32          33          34          35          36          37          38          39          40
 IAtWgt=          12          14          12           1           1           1           1           1           1           1
 AtmWgt=  12.0000000  14.0030740  12.0000000   1.0078250   1.0078250   1.0078250   1.0078250   1.0078250   1.0078250   1.0078250
 NucSpn=           0           2           0           1           1           1           1           1           1           1
 AtZEff=  -0.0000000  -0.0000000  -0.0000000  -0.0000000  -0.0000000  -0.0000000  -0.0000000  -0.0000000  -0.0000000  -0.0000000
 NQMom=    0.0000000   2.0440000   0.0000000   0.0000000   0.0000000   0.0000000   0.0000000   0.0000000   0.0000000   0.0000000
 NMagM=    0.0000000   0.4037610   0.0000000   2.7928460   2.7928460   2.7928460   2.7928460   2.7928460   2.7928460   2.7928460
 AtZNuc=   6.0000000   7.0000000   6.0000000   1.0000000   1.0000000   1.0000000   1.0000000   1.0000000   1.0000000   1.0000000

  Atom        41          42          43          44          45          46          47          48          49          50
 IAtWgt=           1          12          16          12           1          14          16          12           1          12
 AtmWgt=   1.0078250  12.0000000  15.9949146  12.0000000   1.0078250  14.0030740  15.9949146  12.0000000   1.0078250  12.0000000
 NucSpn=           1           0           0           0           1           2           0           0           1           0
 AtZEff=  -0.0000000  -0.0000000  -0.0000000  -0.0000000  -0.0000000  -0.0000000  -0.0000000  -0.0000000  -0.0000000  -0.0000000
 NQMom=    0.0000000   0.0000000   0.0000000   0.0000000   0.0000000   2.0440000   0.0000000   0.0000000   0.0000000   0.0000000
 NMagM=    2.7928460   0.0000000   0.0000000   0.0000000   2.7928460   0.4037610   0.0000000   0.0000000   2.7928460   0.0000000
 AtZNuc=   1.0000000   6.0000000   8.0000000   6.0000000   1.0000000   7.0000000   8.0000000   6.0000000   1.0000000   6.0000000

  Atom        51          52          53          54          55          56          57          58          59          60
 IAtWgt=          12          14           1           1           1           1           1          14          12          12
 AtmWgt=  12.0000000  14.0030740   1.0078250   1.0078250   1.0078250   1.0078250   1.0078250  14.0030740  12.0000000  12.0000000
 NucSpn=           0           2           1           1           1           1           1           2           0           0
 AtZEff=  -0.0000000  -0.0000000  -0.0000000  -0.0000000  -0.0000000  -0.0000000  -0.0000000  -0.0000000  -0.0000000  -0.0000000
 NQMom=    0.0000000   2.0440000   0.0000000   0.0000000   0.0000000   0.0000000   0.0000000   2.0440000   0.0000000   0.0000000
 NMagM=    0.0000000   0.4037610   2.7928460   2.7928460   2.7928460   2.7928460   2.7928460   0.4037610   0.0000000   0.0000000
 AtZNuc=   6.0000000   7.0000000   1.0000000   1.0000000   1.0000000   1.0000000   1.0000000   7.0000000   6.0000000   6.0000000

  Atom        61          62          63          64          65          66          67          68          69          70
 IAtWgt=          14           1          12          14           1          12          14          12          12          14
 AtmWgt=  14.0030740   1.0078250  12.0000000  14.0030740   1.0078250  12.0000000  14.0030740  12.0000000  12.0000000  14.0030740
 NucSpn=           2           1           0           2           1           0           2           0           0           2
 AtZEff=  -0.0000000  -0.0000000  -0.0000000  -0.0000000  -0.0000000  -0.0000000  -0.0000000  -0.0000000  -0.0000000  -0.0000000
 NQMom=    2.0440000   0.0000000   0.0000000   2.0440000   0.0000000   0.0000000   2.0440000   0.0000000   0.0000000   2.0440000
 NMagM=    0.4037610   2.7928460   0.0000000   0.4037610   2.7928460   0.0000000   0.4037610   0.0000000   0.0000000   0.4037610
 AtZNuc=   7.0000000   1.0000000   6.0000000   7.0000000   1.0000000   6.0000000   7.0000000   6.0000000   6.0000000   7.0000000
 Leave Link  101 at Thu Jan 25 19:40:21 2018, MaxMem=  4294967296 cpu:               7.8 elap:               0.3
 (Enter /share/apps/g16/l202.exe)
 Stoichiometry    C23H27N17O3
 Framework group  C1[X(C23H27N17O3)]
 Deg. of freedom   204
 Full point group                 C1      NOp   1
 Largest Abelian subgroup         C1      NOp   1
 Largest concise Abelian subgroup C1      NOp   1
                         Standard orientation:                         
 ---------------------------------------------------------------------
 Center     Atomic      Atomic             Coordinates (Angstroms)
 Number     Number       Type             X           Y           Z
 ---------------------------------------------------------------------
      1          7           0        5.685796   -1.463311   -0.645122
      2          6           0        6.936804   -1.096232   -1.336670
      3          6           0        3.564880   -1.752920   -0.140000
      4          7           0        4.291092   -2.270012    0.922985
      5          6           0        5.539802   -2.074835    0.576129
      6          1           0        6.402529   -2.360016    1.178891
      7          7           0        1.790741   -1.084844   -1.543237
      8          6           0        2.727206   -0.645731   -2.390464
      9          1           0        2.350117   -0.195175   -3.307565
     10          7           0        4.053305   -0.679468   -2.275470
     11          6           0        4.410892   -1.252133   -1.114176
     12          6           0        2.182755   -1.656130   -0.383478
     13          7           0        1.249440   -2.095072    0.463537
     14          1           0        1.493923   -2.524540    1.333604
     15          1           0        0.274580   -2.009644    0.257408
     16          1           0        7.483530   -1.917950   -1.498066
     17          1           0        6.720410   -0.663882   -2.211518
     18          1           0        7.457770   -0.457178   -0.770796
     19          7           0        4.552768    1.562825    0.766421
     20          6           0        3.234516    1.757536    0.431225
     21          6           0        5.711140    2.082114    0.011965
     22          7           0        0.837931    3.106385   -1.689801
     23          1           0       -0.159223    3.130190   -1.755746
     24          1           0        1.351333    3.585391   -2.402319
     25          7           0        2.779613    2.450389   -0.635107
     26          6           0        1.459624    2.461329   -0.691139
     27          7           0        0.645591    1.841792    0.225939
     28          1           0       -0.353584    1.902543    0.103810
     29          6           0        1.091822    1.123420    1.330778
     30          8           0        0.273066    0.602328    2.098128
     31          6           0        2.507820    1.102798    1.404375
     32          7           0        3.352838    0.508989    2.331863
     33          6           0        4.552918    0.807709    1.913785
     34          1           0        5.476310    0.501500    2.406604
     35          1           0        6.278595    1.319727   -0.297191
     36          1           0        5.386489    2.597124   -0.780266
     37          1           0        6.251821    2.682794    0.599888
     38          1           0       -5.202995    2.032812   -1.419028
     39          1           0       -5.320886    3.337636   -0.240808
     40          1           0       -3.808782    3.067614   -1.107993
     41          1           0       -5.436162   -0.491071    2.670262
     42          6           0       -4.711560    0.089790    2.099487
     43          8           0       -2.829874   -0.780873    3.251993
     44          6           0       -3.317496   -0.048122    2.391714
     45          1           0       -1.494834    0.660932    1.788845
     46          7           0       -2.487022    0.731164    1.611791
     47          8           0       -2.049666    2.246251   -0.022344
     48          6           0       -2.860535    1.597468    0.615025
     49          1           0       -6.154698    1.067781    0.872004
     50          6           0       -5.106697    0.926741    1.133055
     51          6           0       -4.668081    2.588245   -0.663089
     52          7           0       -4.221309    1.675278    0.392679
     53          1           0       -5.752135   -0.290566   -3.814012
     54          1           0       -4.479222    0.663285   -3.450731
     55          1           0       -5.945654    0.979499   -2.807570
     56          1           0       -1.966679   -3.174559    1.879709
     57          1           0       -3.660353   -3.314366    1.731357
     58          7           0       -2.804210   -2.919257    1.396490
     59          6           0       -2.781524   -2.088921    0.351883
     60          6           0       -3.746943   -0.831160   -1.422303
     61          7           0       -2.582571   -0.315702   -1.850064
     62          1           0       -0.588795   -0.384738   -1.380284
     63          6           0       -1.573860   -0.755771   -1.100567
     64          7           0       -1.594543   -1.587430   -0.053900
     65          1           0       -6.935920   -1.359805   -1.366364
     66          6           0       -5.862867   -1.349908   -1.172963
     67          7           0       -5.272362   -2.019650   -0.213574
     68          6           0       -3.930444   -1.699607   -0.360395
     69          6           0       -5.319701    0.254797   -3.095973
     70          7           0       -4.999745   -0.609199   -1.943084
 ---------------------------------------------------------------------
 Rotational constants (GHZ):           0.1766322           0.0522213           0.0506960
 Leave Link  202 at Thu Jan 25 19:40:21 2018, MaxMem=  4294967296 cpu:               0.4 elap:               0.0
 (Enter /share/apps/g16/l301.exe)
 Standard basis: CC-pVDZ (5D, 7F)
 Ernie: Thresh=  0.10000D-02 Tol=  0.10000D-05 Strict=F.
 Ernie:  86 primitive shells out of 1081 were deleted.
 There are   780 symmetry adapted cartesian basis functions of A   symmetry.
 There are   737 symmetry adapted basis functions of A   symmetry.
   737 basis functions,  1608 primitive gaussians,   780 cartesian basis functions
   154 alpha electrons      154 beta electrons
       nuclear repulsion energy      5602.3580385843 Hartrees.
 IExCor= 4639 DFT=T Ex+Corr=wB97XD ExCW=0 ScaHFX=  1.000000
 ScaDFX=  1.000000  1.000000  1.000000  1.000000 ScalE2=  1.000000  1.000000
 IRadAn=      5 IRanWt=     -1 IRanGd=            0 ICorTp=0 IEmpDi=121
 HFx  wShort=  0.000000 wLong=  0.200000 cFull=  0.222036 cShort=  0.000000 cLong=  0.777964
 DFx  wShort=  0.000000 wLong=  0.200000 cFull=  0.000000 cShort=  0.000000 cLong=  1.000000
 NAtoms=   70 NActive=   70 NUniq=   70 SFac= 1.00D+00 NAtFMM=   60 NAOKFM=T Big=T
 Integral buffers will be    131072 words long.
 Raffenetti 2 integral format.
 Two-electron integral symmetry is turned on.
 R6Disp:  Grimme-D2 Dispersion energy=       -0.0791951948 Hartrees.
 Nuclear repulsion after empirical dispersion term =     5602.2788433896 Hartrees.
 Leave Link  301 at Thu Jan 25 19:40:21 2018, MaxMem=  4294967296 cpu:               3.0 elap:               0.1
 (Enter /share/apps/g16/l302.exe)
 NPDir=0 NMtPBC=     1 NCelOv=     1 NCel=       1 NClECP=     1 NCelD=      1
         NCelK=      1 NCelE2=     1 NClLst=     1 CellRange=     0.0.
 One-electron integrals computed using PRISM.
 One-electron integral symmetry used in STVInt
 NBasis=   737 RedAO= T EigKep=  6.68D-04  NBF=   737
 NBsUse=   737 1.00D-06 EigRej= -1.00D+00 NBFU=   737
 Precomputing XC quadrature grid using
 IXCGrd= 4 IRadAn=           5 IRanWt=          -1 IRanGd=           0 AccXCQ= 0.00D+00.
 Generated NRdTot=       0 NPtTot=           0 NUsed=           0 NTot=          32
 NSgBfM=   767   762   766   766   767 MxSgAt=    70 MxSgA2=    70.
 Leave Link  302 at Thu Jan 25 19:40:25 2018, MaxMem=  4294967296 cpu:             138.6 elap:               4.4
 (Enter /share/apps/g16/l303.exe)
 DipDrv:  MaxL=1.
 Leave Link  303 at Thu Jan 25 19:40:26 2018, MaxMem=  4294967296 cpu:              12.4 elap:               0.4
 (Enter /share/apps/g16/l401.exe)
 ExpMin= 1.22D-01 ExpMax= 1.17D+04 ExpMxC= 4.01D+02 IAcc=3 IRadAn=         5 AccDes= 0.00D+00
 Harris functional with IExCor= 4639 and IRadAn=       5 diagonalized for initial guess.
 HarFok:  IExCor= 4639 AccDes= 0.00D+00 IRadAn=         5 IDoV= 1 UseB2=F ITyADJ=14
 ICtDFT=  3500011 ScaDFX=  1.000000  1.000000  1.000000  1.000000
 FoFCou: FMM=F IPFlag=           0 FMFlag=      100000 FMFlg1=        2001
         NFxFlg=           0 DoJE=T BraDBF=F KetDBF=T FulRan=T
         wScrn=  0.000000 ICntrl=       500 IOpCl=  0 I1Cent=   200000004 NGrid=           0
         NMat0=    1 NMatS0=      1 NMatT0=    0 NMatD0=    1 NMtDS0=    0 NMtDT0=    0
 Petite list used in FoFCou.
 Harris En= -1963.88284970652    
 JPrj=0 DoOrth=F DoCkMO=F.
 Leave Link  401 at Thu Jan 25 19:40:39 2018, MaxMem=  4294967296 cpu:             412.7 elap:              12.9
 (Enter /share/apps/g16/l502.exe)
 Integral symmetry usage will be decided dynamically.
 Closed shell SCF:
 Using DIIS extrapolation, IDIIS=  1040.
 NGot=  4294967296 LenX=  4293717438 LenY=  4293108258
 Requested convergence on RMS density matrix=1.00D-08 within  20 cycles.
 Requested convergence on MAX density matrix=1.00D-06.
 Requested convergence on             energy=1.00D-06.
 No special actions if energy rises.
 Fock matrices will be formed incrementally for  20 cycles.
 Integral accuracy reduced to 1.0D-05 until final iterations.

 Cycle   1  Pass 0  IDiag  1:
 FoFJK:  IHMeth= 1 ICntrl=       0 DoSepK=T KAlg= 0 I1Cent=           0 FoldK=F
 IRaf=         1 NMat=       1 IRICut=       1 DoRegI=T DoRafI=F ISym2E= 0 IDoP0=0 IntGTp=1.
 FoFCou: FMM=T IPFlag=           0 FMFlag=      100000 FMFlg1=        2001
         NFxFlg=           0 DoJE=T BraDBF=F KetDBF=F FulRan=T
         wScrn=  0.000000 ICntrl=       500 IOpCl=  0 I1Cent=           0 NGrid=           0
         NMat0=    1 NMatS0=      1 NMatT0=    0 NMatD0=    1 NMtDS0=    0 NMtDT0=    0
 Symmetry not used in FoFCou.
 FMM levels:  10  Number of levels for PrismC:   9
 E= -2048.30794876527    
 DIIS: error= 2.19D-02 at cycle   1 NSaved=   1.
 NSaved= 1 IEnMin= 1 EnMin= -2048.30794876527     IErMin= 1 ErrMin= 2.19D-02
 ErrMax= 2.19D-02  0.00D+00 EMaxC= 1.00D-01 BMatC= 8.41D-01 BMatP= 8.41D-01
 IDIUse=3 WtCom= 7.81D-01 WtEn= 2.19D-01
 Coeff-Com:  0.100D+01
 Coeff-En:   0.100D+01
 Coeff:      0.100D+01
 Gap=     0.251 Goal=   None    Shift=    0.000
 GapD=    0.251 DampG=1.000 DampE=0.500 DampFc=0.5000 IDamp=-1.
 Damping current iteration by 5.00D-01
 RMSDP=1.63D-03 MaxDP=1.14D-01              OVMax= 1.69D-01

 Cycle   2  Pass 0  IDiag  1:
 RMSU=  8.13D-04    CP:  9.97D-01
 E= -2048.50278984940     Delta-E=       -0.194841084122 Rises=F Damp=T
 DIIS: error= 1.20D-02 at cycle   2 NSaved=   2.
 NSaved= 2 IEnMin= 2 EnMin= -2048.50278984940     IErMin= 2 ErrMin= 1.20D-02
 ErrMax= 1.20D-02  0.00D+00 EMaxC= 1.00D-01 BMatC= 1.48D-01 BMatP= 8.41D-01
 IDIUse=3 WtCom= 8.80D-01 WtEn= 1.20D-01
 Coeff-Com: -0.169D+00 0.117D+01
 Coeff-En:   0.000D+00 0.100D+01
 Coeff:     -0.149D+00 0.115D+01
 Gap=     0.350 Goal=   None    Shift=    0.000
 RMSDP=6.20D-04 MaxDP=3.29D-02 DE=-1.95D-01 OVMax= 1.71D-01

 Cycle   3  Pass 0  IDiag  1:
 RMSU=  6.15D-04    CP:  9.94D-01  1.08D+00
 E= -2048.68050037251     Delta-E=       -0.177710523117 Rises=F Damp=F
 DIIS: error= 7.63D-03 at cycle   3 NSaved=   3.
 NSaved= 3 IEnMin= 3 EnMin= -2048.68050037251     IErMin= 3 ErrMin= 7.63D-03
 ErrMax= 7.63D-03  0.00D+00 EMaxC= 1.00D-01 BMatC= 7.50D-02 BMatP= 1.48D-01
 IDIUse=3 WtCom= 9.24D-01 WtEn= 7.63D-02
 Coeff-Com: -0.232D+00 0.563D+00 0.669D+00
 Coeff-En:   0.000D+00 0.000D+00 0.100D+01
 Coeff:     -0.214D+00 0.520D+00 0.694D+00
 Gap=     0.280 Goal=   None    Shift=    0.000
 RMSDP=4.05D-04 MaxDP=2.68D-02 DE=-1.78D-01 OVMax= 6.64D-02

 Cycle   4  Pass 0  IDiag  1:
 RMSU=  2.20D-04    CP:  9.94D-01  1.40D+00  6.38D-01
 E= -2048.73716651241     Delta-E=       -0.056666139899 Rises=F Damp=F
 DIIS: error= 2.94D-03 at cycle   4 NSaved=   4.
 NSaved= 4 IEnMin= 4 EnMin= -2048.73716651241     IErMin= 4 ErrMin= 2.94D-03
 ErrMax= 2.94D-03  0.00D+00 EMaxC= 1.00D-01 BMatC= 1.10D-02 BMatP= 7.50D-02
 IDIUse=3 WtCom= 9.71D-01 WtEn= 2.94D-02
 Coeff-Com: -0.958D-01 0.185D+00 0.375D+00 0.536D+00
 Coeff-En:   0.000D+00 0.000D+00 0.837D-01 0.916D+00
 Coeff:     -0.930D-01 0.180D+00 0.366D+00 0.547D+00
 Gap=     0.282 Goal=   None    Shift=    0.000
 RMSDP=1.41D-04 MaxDP=1.13D-02 DE=-5.67D-02 OVMax= 1.69D-02

 Cycle   5  Pass 0  IDiag  1:
 RMSU=  6.24D-05    CP:  9.94D-01  1.36D+00  7.84D-01  6.22D-01
 E= -2048.74648871177     Delta-E=       -0.009322199355 Rises=F Damp=F
 DIIS: error= 5.30D-04 at cycle   5 NSaved=   5.
 NSaved= 5 IEnMin= 5 EnMin= -2048.74648871177     IErMin= 5 ErrMin= 5.30D-04
 ErrMax= 5.30D-04  0.00D+00 EMaxC= 1.00D-01 BMatC= 3.02D-04 BMatP= 1.10D-02
 IDIUse=3 WtCom= 9.95D-01 WtEn= 5.30D-03
 Coeff-Com: -0.242D-01 0.411D-01 0.117D+00 0.234D+00 0.632D+00
 Coeff-En:   0.000D+00 0.000D+00 0.000D+00 0.000D+00 0.100D+01
 Coeff:     -0.240D-01 0.408D-01 0.117D+00 0.233D+00 0.634D+00
 Gap=     0.283 Goal=   None    Shift=    0.000
 RMSDP=2.77D-05 MaxDP=1.51D-03 DE=-9.32D-03 OVMax= 3.16D-03

 Failed to achieve initial convergence to 1.0D-08 in  6 cycles.
 Switch to full accuracy anyway.
 Cycle   6  Pass 1  IDiag  1:
 E= -2048.74672622705     Delta-E=       -0.000237515285 Rises=F Damp=F
 DIIS: error= 2.98D-04 at cycle   1 NSaved=   1.
 NSaved= 1 IEnMin= 1 EnMin= -2048.74672622705     IErMin= 1 ErrMin= 2.98D-04
 ErrMax= 2.98D-04  0.00D+00 EMaxC= 1.00D-01 BMatC= 8.25D-05 BMatP= 8.25D-05
 IDIUse=3 WtCom= 9.97D-01 WtEn= 2.98D-03
 Coeff-Com:  0.100D+01
 Coeff-En:   0.100D+01
 Coeff:      0.100D+01
 Gap=     0.283 Goal=   None    Shift=    0.000
 RMSDP=2.77D-05 MaxDP=1.51D-03 DE=-2.38D-04 OVMax= 2.44D-03

 Cycle   7  Pass 1  IDiag  1:
 RMSU=  1.27D-04    CP:  1.00D+00
 E= -2048.74678704807     Delta-E=       -0.000060821021 Rises=F Damp=F
 DIIS: error= 2.24D-04 at cycle   2 NSaved=   2.
 NSaved= 2 IEnMin= 2 EnMin= -2048.74678704807     IErMin= 2 ErrMin= 2.24D-04
 ErrMax= 2.24D-04  0.00D+00 EMaxC= 1.00D-01 BMatC= 4.47D-05 BMatP= 8.25D-05
 IDIUse=3 WtCom= 9.98D-01 WtEn= 2.24D-03
 Coeff-Com:  0.397D+00 0.603D+00
 Coeff-En:   0.000D+00 0.100D+01
 Coeff:      0.396D+00 0.604D+00
 Gap=     0.283 Goal=   None    Shift=    0.000
 RMSDP=1.22D-05 MaxDP=9.43D-04 DE=-6.08D-05 OVMax= 1.52D-03

 Cycle   8  Pass 1  IDiag  1:
 RMSU=  1.18D-05    CP:  1.00D+00  1.02D+00
 E= -2048.74681917276     Delta-E=       -0.000032124683 Rises=F Damp=F
 DIIS: error= 1.01D-04 at cycle   3 NSaved=   3.
 NSaved= 3 IEnMin= 3 EnMin= -2048.74681917276     IErMin= 3 ErrMin= 1.01D-04
 ErrMax= 1.01D-04  0.00D+00 EMaxC= 1.00D-01 BMatC= 1.14D-05 BMatP= 4.47D-05
 IDIUse=3 WtCom= 9.99D-01 WtEn= 1.01D-03
 Coeff-Com: -0.181D-01 0.323D+00 0.695D+00
 Coeff-En:   0.000D+00 0.152D+00 0.848D+00
 Coeff:     -0.181D-01 0.323D+00 0.695D+00
 Gap=     0.283 Goal=   None    Shift=    0.000
 RMSDP=6.03D-06 MaxDP=4.75D-04 DE=-3.21D-05 OVMax= 5.30D-04

 Cycle   9  Pass 1  IDiag  1:
 RMSU=  3.99D-06    CP:  1.00D+00  1.05D+00  7.47D-01
 E= -2048.74682977244     Delta-E=       -0.000010599682 Rises=F Damp=F
 DIIS: error= 3.52D-05 at cycle   4 NSaved=   4.
 NSaved= 4 IEnMin= 4 EnMin= -2048.74682977244     IErMin= 4 ErrMin= 3.52D-05
 ErrMax= 3.52D-05  0.00D+00 EMaxC= 1.00D-01 BMatC= 5.79D-07 BMatP= 1.14D-05
 IDIUse=1 WtCom= 1.00D+00 WtEn= 0.00D+00
 Coeff-Com: -0.291D-01 0.960D-01 0.270D+00 0.663D+00
 Coeff:     -0.291D-01 0.960D-01 0.270D+00 0.663D+00
 Gap=     0.283 Goal=   None    Shift=    0.000
 RMSDP=1.52D-06 MaxDP=1.02D-04 DE=-1.06D-05 OVMax= 5.09D-04

 Cycle  10  Pass 1  IDiag  1:
 RMSU=  1.37D-06    CP:  1.00D+00  1.05D+00  7.84D-01  1.08D+00
 E= -2048.74683067540     Delta-E=       -0.000000902966 Rises=F Damp=F
 DIIS: error= 1.16D-05 at cycle   5 NSaved=   5.
 NSaved= 5 IEnMin= 5 EnMin= -2048.74683067540     IErMin= 5 ErrMin= 1.16D-05
 ErrMax= 1.16D-05  0.00D+00 EMaxC= 1.00D-01 BMatC= 1.42D-07 BMatP= 5.79D-07
 IDIUse=1 WtCom= 1.00D+00 WtEn= 0.00D+00
 Coeff-Com: -0.403D-02-0.520D-01-0.106D+00 0.227D+00 0.935D+00
 Coeff:     -0.403D-02-0.520D-01-0.106D+00 0.227D+00 0.935D+00
 Gap=     0.283 Goal=   None    Shift=    0.000
 RMSDP=1.23D-06 MaxDP=7.06D-05 DE=-9.03D-07 OVMax= 2.60D-04

 Cycle  11  Pass 1  IDiag  1:
 RMSU=  5.26D-07    CP:  1.00D+00  1.05D+00  7.93D-01  1.35D+00  1.16D+00
 E= -2048.74683096165     Delta-E=       -0.000000286241 Rises=F Damp=F
 DIIS: error= 8.00D-06 at cycle   6 NSaved=   6.
 NSaved= 6 IEnMin= 6 EnMin= -2048.74683096165     IErMin= 6 ErrMin= 8.00D-06
 ErrMax= 8.00D-06  0.00D+00 EMaxC= 1.00D-01 BMatC= 3.31D-08 BMatP= 1.42D-07
 IDIUse=1 WtCom= 1.00D+00 WtEn= 0.00D+00
 Coeff-Com:  0.475D-02-0.489D-01-0.119D+00-0.270D-02 0.507D+00 0.660D+00
 Coeff:      0.475D-02-0.489D-01-0.119D+00-0.270D-02 0.507D+00 0.660D+00
 Gap=     0.283 Goal=   None    Shift=    0.000
 RMSDP=4.41D-07 MaxDP=2.25D-05 DE=-2.86D-07 OVMax= 1.43D-04

 Cycle  12  Pass 1  IDiag  1:
 RMSU=  2.10D-07    CP:  1.00D+00  1.05D+00  7.95D-01  1.43D+00  1.30D+00
                    CP:  9.72D-01
 E= -2048.74683101258     Delta-E=       -0.000000050934 Rises=F Damp=F
 DIIS: error= 1.09D-06 at cycle   7 NSaved=   7.
 NSaved= 7 IEnMin= 7 EnMin= -2048.74683101258     IErMin= 7 ErrMin= 1.09D-06
 ErrMax= 1.09D-06  0.00D+00 EMaxC= 1.00D-01 BMatC= 9.06D-10 BMatP= 3.31D-08
 IDIUse=1 WtCom= 1.00D+00 WtEn= 0.00D+00
 Coeff-Com:  0.123D-02-0.913D-02-0.239D-01-0.817D-02 0.678D-01 0.149D+00
 Coeff-Com:  0.823D+00
 Coeff:      0.123D-02-0.913D-02-0.239D-01-0.817D-02 0.678D-01 0.149D+00
 Coeff:      0.823D+00
 Gap=     0.283 Goal=   None    Shift=    0.000
 RMSDP=9.07D-08 MaxDP=3.70D-06 DE=-5.09D-08 OVMax= 2.55D-05

 Cycle  13  Pass 1  IDiag  1:
 RMSU=  5.63D-08    CP:  1.00D+00  1.05D+00  7.95D-01  1.44D+00  1.32D+00
                    CP:  1.06D+00  1.13D+00
 E= -2048.74683101452     Delta-E=       -0.000000001936 Rises=F Damp=F
 DIIS: error= 5.51D-07 at cycle   8 NSaved=   8.
 NSaved= 8 IEnMin= 8 EnMin= -2048.74683101452     IErMin= 8 ErrMin= 5.51D-07
 ErrMax= 5.51D-07  0.00D+00 EMaxC= 1.00D-01 BMatC= 3.79D-10 BMatP= 9.06D-10
 IDIUse=1 WtCom= 1.00D+00 WtEn= 0.00D+00
 Coeff-Com: -0.753D-03 0.959D-02 0.222D-01-0.135D-02-0.111D+00-0.114D+00
 Coeff-Com:  0.412D+00 0.784D+00
 Coeff:     -0.753D-03 0.959D-02 0.222D-01-0.135D-02-0.111D+00-0.114D+00
 Coeff:      0.412D+00 0.784D+00
 Gap=     0.283 Goal=   None    Shift=    0.000
 RMSDP=5.42D-08 MaxDP=2.91D-06 DE=-1.94D-09 OVMax= 1.23D-05

 Cycle  14  Pass 1  IDiag  1:
 RMSU=  3.05D-08    CP:  1.00D+00  1.05D+00  7.94D-01  1.45D+00  1.33D+00
                    CP:  1.11D+00  1.28D+00  1.07D+00
 E= -2048.74683101506     Delta-E=       -0.000000000545 Rises=F Damp=F
 DIIS: error= 1.46D-07 at cycle   9 NSaved=   9.
 NSaved= 9 IEnMin= 9 EnMin= -2048.74683101506     IErMin= 9 ErrMin= 1.46D-07
 ErrMax= 1.46D-07  0.00D+00 EMaxC= 1.00D-01 BMatC= 2.89D-11 BMatP= 3.79D-10
 IDIUse=1 WtCom= 1.00D+00 WtEn= 0.00D+00
 Coeff-Com: -0.414D-03 0.464D-02 0.110D-01 0.445D-03-0.489D-01-0.594D-01
 Coeff-Com:  0.766D-01 0.281D+00 0.735D+00
 Coeff:     -0.414D-03 0.464D-02 0.110D-01 0.445D-03-0.489D-01-0.594D-01
 Coeff:      0.766D-01 0.281D+00 0.735D+00
 Gap=     0.283 Goal=   None    Shift=    0.000
 RMSDP=1.44D-08 MaxDP=5.79D-07 DE=-5.45D-10 OVMax= 3.49D-06

 Cycle  15  Pass 1  IDiag  1:
 RMSU=  9.57D-09    CP:  1.00D+00  1.05D+00  7.94D-01  1.45D+00  1.33D+00
                    CP:  1.11D+00  1.31D+00  1.20D+00  1.14D+00
 E= -2048.74683101525     Delta-E=       -0.000000000189 Rises=F Damp=F
 DIIS: error= 5.99D-08 at cycle  10 NSaved=  10.
 NSaved=10 IEnMin=10 EnMin= -2048.74683101525     IErMin=10 ErrMin= 5.99D-08
 ErrMax= 5.99D-08  0.00D+00 EMaxC= 1.00D-01 BMatC= 5.00D-12 BMatP= 2.89D-11
 IDIUse=1 WtCom= 1.00D+00 WtEn= 0.00D+00
 Coeff-Com:  0.223D-04-0.494D-03-0.107D-02 0.151D-03 0.722D-02 0.395D-02
 Coeff-Com: -0.555D-01-0.769D-01 0.245D+00 0.878D+00
 Coeff:      0.223D-04-0.494D-03-0.107D-02 0.151D-03 0.722D-02 0.395D-02
 Coeff:     -0.555D-01-0.769D-01 0.245D+00 0.878D+00
 Gap=     0.283 Goal=   None    Shift=    0.000
 RMSDP=7.20D-09 MaxDP=2.81D-07 DE=-1.89D-10 OVMax= 1.59D-06

 SCF Done:  E(RwB97XD) =  -2048.74683102     A.U. after   15 cycles
            NFock= 15  Conv=0.72D-08     -V/T= 2.0054
 KE= 2.037790502386D+03 PE=-1.598532088134D+04 EE= 6.296504704554D+03
 Leave Link  502 at Thu Jan 25 19:52:45 2018, MaxMem=  4294967296 cpu:           22532.3 elap:             726.7
 (Enter /share/apps/g16/l601.exe)
 Copying SCF densities to generalized density rwf, IOpCl= 0 IROHF=0.

 **********************************************************************

            Population analysis using the SCF density.

 **********************************************************************

 Orbital symmetries:
       Occupied  (A) (A) (A) (A) (A) (A) (A) (A) (A) (A) (A) (A)
                 (A) (A) (A) (A) (A) (A) (A) (A) (A) (A) (A) (A)
                 (A) (A) (A) (A) (A) (A) (A) (A) (A) (A) (A) (A)
                 (A) (A) (A) (A) (A) (A) (A) (A) (A) (A) (A) (A)
                 (A) (A) (A) (A) (A) (A) (A) (A) (A) (A) (A) (A)
                 (A) (A) (A) (A) (A) (A) (A) (A) (A) (A) (A) (A)
                 (A) (A) (A) (A) (A) (A) (A) (A) (A) (A) (A) (A)
                 (A) (A) (A) (A) (A) (A) (A) (A) (A) (A) (A) (A)
                 (A) (A) (A) (A) (A) (A) (A) (A) (A) (A) (A) (A)
                 (A) (A) (A) (A) (A) (A) (A) (A) (A) (A) (A) (A)
                 (A) (A) (A) (A) (A) (A) (A) (A) (A) (A) (A) (A)
                 (A) (A) (A) (A) (A) (A) (A) (A) (A) (A) (A) (A)
                 (A) (A) (A) (A) (A) (A) (A) (A) (A) (A)
       Virtual   (A) (A) (A) (A) (A) (A) (A) (A) (A) (A) (A) (A)
                 (A) (A) (A) (A) (A) (A) (A) (A) (A) (A) (A) (A)
                 (A) (A) (A) (A) (A) (A) (A) (A) (A) (A) (A) (A)
                 (A) (A) (A) (A) (A) (A) (A) (A) (A) (A) (A) (A)
                 (A) (A) (A) (A) (A) (A) (A) (A) (A) (A) (A) (A)
                 (A) (A) (A) (A) (A) (A) (A) (A) (A) (A) (A) (A)
                 (A) (A) (A) (A) (A) (A) (A) (A) (A) (A) (A) (A)
                 (A) (A) (A) (A) (A) (A) (A) (A) (A) (A) (A) (A)
                 (A) (A) (A) (A) (A) (A) (A) (A) (A) (A) (A) (A)
                 (A) (A) (A) (A) (A) (A) (A) (A) (A) (A) (A) (A)
                 (A) (A) (A) (A) (A) (A) (A) (A) (A) (A) (A) (A)
                 (A) (A) (A) (A) (A) (A) (A) (A) (A) (A) (A) (A)
                 (A) (A) (A) (A) (A) (A) (A) (A) (A) (A) (A) (A)
                 (A) (A) (A) (A) (A) (A) (A) (A) (A) (A) (A) (A)
                 (A) (A) (A) (A) (A) (A) (A) (A) (A) (A) (A) (A)
                 (A) (A) (A) (A) (A) (A) (A) (A) (A) (A) (A) (A)
                 (A) (A) (A) (A) (A) (A) (A) (A) (A) (A) (A) (A)
                 (A) (A) (A) (A) (A) (A) (A) (A) (A) (A) (A) (A)
                 (A) (A) (A) (A) (A) (A) (A) (A) (A) (A) (A) (A)
                 (A) (A) (A) (A) (A) (A) (A) (A) (A) (A) (A) (A)
                 (A) (A) (A) (A) (A) (A) (A) (A) (A) (A) (A) (A)
                 (A) (A) (A) (A) (A) (A) (A) (A) (A) (A) (A) (A)
                 (A) (A) (A) (A) (A) (A) (A) (A) (A) (A) (A) (A)
                 (A) (A) (A) (A) (A) (A) (A) (A) (A) (A) (A) (A)
                 (A) (A) (A) (A) (A) (A) (A) (A) (A) (A) (A) (A)
                 (A) (A) (A) (A) (A) (A) (A) (A) (A) (A) (A) (A)
                 (A) (A) (A) (A) (A) (A) (A) (A) (A) (A) (A) (A)
                 (A) (A) (A) (A) (A) (A) (A) (A) (A) (A) (A) (A)
                 (A) (A) (A) (A) (A) (A) (A) (A) (A) (A) (A) (A)
                 (A) (A) (A) (A) (A) (A) (A) (A) (A) (A) (A) (A)
                 (A) (A) (A) (A) (A) (A) (A) (A) (A) (A) (A) (A)
                 (A) (A) (A) (A) (A) (A) (A) (A) (A) (A) (A) (A)
                 (A) (A) (A) (A) (A) (A) (A) (A) (A) (A) (A) (A)
                 (A) (A) (A) (A) (A) (A) (A) (A) (A) (A) (A) (A)
                 (A) (A) (A) (A) (A) (A) (A) (A) (A) (A) (A) (A)
                 (A) (A) (A) (A) (A) (A) (A) (A) (A) (A) (A) (A)
                 (A) (A) (A) (A) (A) (A) (A) (A) (A) (A) (A) (A)
                 (A) (A) (A) (A) (A) (A) (A) (A) (A) (A) (A) (A)
                 (A) (A) (A) (A) (A) (A) (A) (A) (A) (A) (A) (A)
                 (A) (A) (A) (A) (A) (A) (A) (A) (A) (A) (A) (A)
                 (A) (A) (A) (A) (A) (A) (A) (A) (A) (A) (A) (A)
                 (A) (A) (A) (A) (A) (A) (A) (A) (A) (A) (A) (A)
                 (A) (A) (A) (A) (A) (A) (A) (A) (A) (A) (A) (A)
                 (A) (A) (A) (A) (A) (A) (A) (A) (A) (A) (A) (A)
                 (A) (A) (A) (A) (A) (A) (A) (A) (A) (A) (A) (A)
                 (A) (A) (A) (A) (A) (A) (A) (A) (A) (A) (A) (A)
                 (A) (A) (A) (A) (A) (A) (A) (A) (A) (A) (A) (A)
                 (A) (A) (A) (A) (A) (A) (A) (A) (A) (A) (A) (A)
                 (A) (A) (A) (A) (A) (A) (A)
 The electronic state is 1-A.
 Alpha  occ. eigenvalues --  -19.25291 -19.21628 -19.20575 -14.52090 -14.52075
 Alpha  occ. eigenvalues --  -14.49546 -14.48879 -14.47397 -14.46810 -14.46651
 Alpha  occ. eigenvalues --  -14.46576 -14.44740 -14.43706 -14.43462 -14.42765
 Alpha  occ. eigenvalues --  -14.41994 -14.41916 -14.41489 -14.40866 -14.40789
 Alpha  occ. eigenvalues --  -10.44992 -10.41124 -10.39685 -10.38918 -10.38210
 Alpha  occ. eigenvalues --  -10.37434 -10.37121 -10.36660 -10.36072 -10.35228
 Alpha  occ. eigenvalues --  -10.35170 -10.34683 -10.34326 -10.34059 -10.33998
 Alpha  occ. eigenvalues --  -10.33715 -10.33352 -10.31976 -10.31943 -10.31118
 Alpha  occ. eigenvalues --  -10.30452 -10.29160 -10.28080  -1.18956  -1.14710
 Alpha  occ. eigenvalues --   -1.13150  -1.12698  -1.12076  -1.10594  -1.08928
 Alpha  occ. eigenvalues --   -1.08493  -1.08380  -1.05658  -1.03875  -1.02134
 Alpha  occ. eigenvalues --   -1.01028  -1.00384  -0.99651  -0.98460  -0.97679
 Alpha  occ. eigenvalues --   -0.96593  -0.96033  -0.93290  -0.90522  -0.87164
 Alpha  occ. eigenvalues --   -0.85681  -0.84737  -0.84097  -0.83444  -0.83156
 Alpha  occ. eigenvalues --   -0.82551  -0.78434  -0.76325  -0.74611  -0.74143
 Alpha  occ. eigenvalues --   -0.73572  -0.73537  -0.72955  -0.71687  -0.69695
 Alpha  occ. eigenvalues --   -0.67326  -0.66963  -0.66166  -0.66006  -0.64327
 Alpha  occ. eigenvalues --   -0.63655  -0.63548  -0.63278  -0.62538  -0.61686
 Alpha  occ. eigenvalues --   -0.61427  -0.60888  -0.59842  -0.59131  -0.58854
 Alpha  occ. eigenvalues --   -0.58451  -0.58277  -0.58125  -0.57191  -0.56041
 Alpha  occ. eigenvalues --   -0.55835  -0.55622  -0.55223  -0.54925  -0.54111
 Alpha  occ. eigenvalues --   -0.53767  -0.53551  -0.53188  -0.52909  -0.52537
 Alpha  occ. eigenvalues --   -0.52366  -0.52201  -0.51606  -0.51400  -0.50909
 Alpha  occ. eigenvalues --   -0.50145  -0.49874  -0.49451  -0.49243  -0.49106
 Alpha  occ. eigenvalues --   -0.48729  -0.48273  -0.47989  -0.47665  -0.47509
 Alpha  occ. eigenvalues --   -0.47260  -0.46179  -0.45258  -0.43376  -0.42940
 Alpha  occ. eigenvalues --   -0.41677  -0.40106  -0.39015  -0.37736  -0.37548
 Alpha  occ. eigenvalues --   -0.37148  -0.37017  -0.36828  -0.35872  -0.34527
 Alpha  occ. eigenvalues --   -0.34250  -0.33987  -0.33595  -0.33577  -0.32958
 Alpha  occ. eigenvalues --   -0.32580  -0.32384  -0.31850  -0.31565  -0.31073
 Alpha  occ. eigenvalues --   -0.30973  -0.28920  -0.26815  -0.24971
 Alpha virt. eigenvalues --    0.03319   0.04528   0.07127   0.07803   0.08888
 Alpha virt. eigenvalues --    0.09313   0.09791   0.10375   0.10898   0.12068
 Alpha virt. eigenvalues --    0.13060   0.13977   0.14304   0.14698   0.14883
 Alpha virt. eigenvalues --    0.15506   0.16193   0.17654   0.17952   0.18423
 Alpha virt. eigenvalues --    0.18742   0.19350   0.19362   0.19790   0.20389
 Alpha virt. eigenvalues --    0.20956   0.21270   0.21379   0.21964   0.22219
 Alpha virt. eigenvalues --    0.22393   0.22551   0.22884   0.23342   0.23458
 Alpha virt. eigenvalues --    0.24041   0.24362   0.24649   0.25476   0.25959
 Alpha virt. eigenvalues --    0.27202   0.27540   0.27891   0.28210   0.28286
 Alpha virt. eigenvalues --    0.28540   0.29189   0.29826   0.30093   0.30220
 Alpha virt. eigenvalues --    0.31231   0.32035   0.32400   0.33069   0.33749
 Alpha virt. eigenvalues --    0.33818   0.34540   0.34904   0.35722   0.36270
 Alpha virt. eigenvalues --    0.36856   0.37280   0.37586   0.38055   0.39436
 Alpha virt. eigenvalues --    0.40108   0.40359   0.40650   0.41662   0.42182
 Alpha virt. eigenvalues --    0.42420   0.42897   0.43252   0.43748   0.44075
 Alpha virt. eigenvalues --    0.45241   0.45497   0.46047   0.46742   0.46914
 Alpha virt. eigenvalues --    0.47307   0.47526   0.48139   0.48414   0.49585
 Alpha virt. eigenvalues --    0.50079   0.50189   0.50513   0.50946   0.51547
 Alpha virt. eigenvalues --    0.51899   0.52477   0.52807   0.53085   0.53218
 Alpha virt. eigenvalues --    0.53763   0.54151   0.54726   0.55166   0.55300
 Alpha virt. eigenvalues --    0.55550   0.56092   0.56815   0.57387   0.57596
 Alpha virt. eigenvalues --    0.57905   0.58726   0.59364   0.59856   0.60339
 Alpha virt. eigenvalues --    0.60638   0.60928   0.61479   0.61551   0.61728
 Alpha virt. eigenvalues --    0.62093   0.63044   0.63349   0.63546   0.64294
 Alpha virt. eigenvalues --    0.64412   0.64692   0.65373   0.65430   0.65789
 Alpha virt. eigenvalues --    0.66654   0.67185   0.67292   0.67886   0.68129
 Alpha virt. eigenvalues --    0.68720   0.69074   0.69549   0.70196   0.70576
 Alpha virt. eigenvalues --    0.70827   0.71525   0.71942   0.72189   0.72561
 Alpha virt. eigenvalues --    0.73134   0.73448   0.73687   0.74274   0.74545
 Alpha virt. eigenvalues --    0.74861   0.75014   0.75944   0.76212   0.76371
 Alpha virt. eigenvalues --    0.76680   0.76813   0.77082   0.78034   0.78233
 Alpha virt. eigenvalues --    0.78453   0.78852   0.79077   0.79273   0.79678
 Alpha virt. eigenvalues --    0.80368   0.80599   0.80926   0.81143   0.81672
 Alpha virt. eigenvalues --    0.82337   0.82574   0.83312   0.83541   0.84074
 Alpha virt. eigenvalues --    0.84198   0.84624   0.84876   0.85470   0.85680
 Alpha virt. eigenvalues --    0.86071   0.86391   0.87028   0.87467   0.87990
 Alpha virt. eigenvalues --    0.88330   0.88852   0.89663   0.90198   0.90435
 Alpha virt. eigenvalues --    0.91228   0.91395   0.91904   0.92374   0.93052
 Alpha virt. eigenvalues --    0.93296   0.93604   0.93941   0.94601   0.95320
 Alpha virt. eigenvalues --    0.95500   0.95949   0.96161   0.96745   0.97057
 Alpha virt. eigenvalues --    0.97823   0.98115   0.98844   0.99061   0.99344
 Alpha virt. eigenvalues --    0.99794   1.00464   1.00537   1.00799   1.01775
 Alpha virt. eigenvalues --    1.02097   1.02494   1.02970   1.03179   1.03899
 Alpha virt. eigenvalues --    1.04513   1.05202   1.06052   1.06161   1.06651
 Alpha virt. eigenvalues --    1.07091   1.07232   1.07950   1.08725   1.09595
 Alpha virt. eigenvalues --    1.09965   1.10407   1.10845   1.11690   1.12078
 Alpha virt. eigenvalues --    1.12378   1.13210   1.13546   1.13589   1.14046
 Alpha virt. eigenvalues --    1.14260   1.14969   1.15203   1.15851   1.16585
 Alpha virt. eigenvalues --    1.17104   1.17364   1.17790   1.18370   1.18813
 Alpha virt. eigenvalues --    1.18957   1.19641   1.20317   1.20633   1.20812
 Alpha virt. eigenvalues --    1.21265   1.21331   1.21910   1.22178   1.22538
 Alpha virt. eigenvalues --    1.22758   1.22915   1.23296   1.23708   1.23866
 Alpha virt. eigenvalues --    1.24322   1.24466   1.24838   1.25319   1.26185
 Alpha virt. eigenvalues --    1.26381   1.26987   1.27860   1.28676   1.29000
 Alpha virt. eigenvalues --    1.29659   1.30101   1.30293   1.31045   1.31921
 Alpha virt. eigenvalues --    1.32632   1.33203   1.33587   1.33856   1.35250
 Alpha virt. eigenvalues --    1.35856   1.36408   1.36746   1.36932   1.37438
 Alpha virt. eigenvalues --    1.38305   1.39323   1.39681   1.40516   1.41078
 Alpha virt. eigenvalues --    1.41998   1.42789   1.43337   1.43990   1.44524
 Alpha virt. eigenvalues --    1.45541   1.46715   1.47394   1.48055   1.48266
 Alpha virt. eigenvalues --    1.48883   1.49560   1.50325   1.50732   1.51390
 Alpha virt. eigenvalues --    1.53005   1.53872   1.54219   1.54413   1.55460
 Alpha virt. eigenvalues --    1.55665   1.56168   1.57368   1.58054   1.58600
 Alpha virt. eigenvalues --    1.58933   1.60082   1.60835   1.61217   1.61741
 Alpha virt. eigenvalues --    1.62059   1.63065   1.63595   1.64767   1.65022
 Alpha virt. eigenvalues --    1.65523   1.65865   1.66421   1.67223   1.67910
 Alpha virt. eigenvalues --    1.68557   1.69068   1.69323   1.69697   1.70361
 Alpha virt. eigenvalues --    1.70512   1.70865   1.71689   1.71900   1.72342
 Alpha virt. eigenvalues --    1.72414   1.73510   1.73865   1.74037   1.74442
 Alpha virt. eigenvalues --    1.75010   1.75464   1.75783   1.76355   1.76745
 Alpha virt. eigenvalues --    1.76935   1.77194   1.77718   1.77960   1.77994
 Alpha virt. eigenvalues --    1.78601   1.78740   1.79201   1.79605   1.80180
 Alpha virt. eigenvalues --    1.80290   1.80752   1.81003   1.81056   1.81791
 Alpha virt. eigenvalues --    1.82265   1.82526   1.82889   1.83390   1.83718
 Alpha virt. eigenvalues --    1.84417   1.84910   1.85339   1.85997   1.86086
 Alpha virt. eigenvalues --    1.86854   1.86950   1.87361   1.87857   1.88272
 Alpha virt. eigenvalues --    1.88636   1.88975   1.89698   1.90138   1.90358
 Alpha virt. eigenvalues --    1.90724   1.91278   1.92162   1.92514   1.92852
 Alpha virt. eigenvalues --    1.93402   1.93706   1.94159   1.94960   1.95512
 Alpha virt. eigenvalues --    1.96652   1.97123   1.98154   1.98430   1.98754
 Alpha virt. eigenvalues --    1.99731   2.00556   2.00993   2.01572   2.02117
 Alpha virt. eigenvalues --    2.02819   2.03363   2.04419   2.04774   2.04890
 Alpha virt. eigenvalues --    2.05379   2.06001   2.07294   2.07818   2.08944
 Alpha virt. eigenvalues --    2.09016   2.09327   2.09959   2.10406   2.11202
 Alpha virt. eigenvalues --    2.12346   2.12833   2.12998   2.13499   2.15228
 Alpha virt. eigenvalues --    2.15624   2.16656   2.17756   2.18813   2.19324
 Alpha virt. eigenvalues --    2.19433   2.20141   2.20375   2.21163   2.22269
 Alpha virt. eigenvalues --    2.22637   2.23210   2.23509   2.24384   2.24707
 Alpha virt. eigenvalues --    2.25735   2.26055   2.26315   2.27114   2.27903
 Alpha virt. eigenvalues --    2.28658   2.28876   2.29756   2.29858   2.30135
 Alpha virt. eigenvalues --    2.30459   2.31225   2.31510   2.32106   2.32677
 Alpha virt. eigenvalues --    2.33444   2.34110   2.34405   2.34910   2.35005
 Alpha virt. eigenvalues --    2.35297   2.35720   2.36926   2.37584   2.38107
 Alpha virt. eigenvalues --    2.38529   2.39356   2.40337   2.41231   2.41857
 Alpha virt. eigenvalues --    2.42580   2.42710   2.43484   2.44104   2.44948
 Alpha virt. eigenvalues --    2.45605   2.45976   2.46435   2.47446   2.48058
 Alpha virt. eigenvalues --    2.48641   2.49840   2.50221   2.52092   2.52791
 Alpha virt. eigenvalues --    2.53783   2.54427   2.54945   2.56084   2.56627
 Alpha virt. eigenvalues --    2.57306   2.58168   2.58796   2.60074   2.61054
 Alpha virt. eigenvalues --    2.61371   2.61889   2.63026   2.63909   2.64344
 Alpha virt. eigenvalues --    2.65399   2.66157   2.66570   2.66726   2.67617
 Alpha virt. eigenvalues --    2.68375   2.68489   2.68718   2.69199   2.69943
 Alpha virt. eigenvalues --    2.70635   2.71289   2.71825   2.72412   2.73186
 Alpha virt. eigenvalues --    2.73504   2.74862   2.75421   2.77178   2.77554
 Alpha virt. eigenvalues --    2.78023   2.78476   2.79105   2.79419   2.80249
 Alpha virt. eigenvalues --    2.80724   2.81056   2.82001   2.82163   2.82198
 Alpha virt. eigenvalues --    2.82424   2.83121   2.83607   2.84265   2.85001
 Alpha virt. eigenvalues --    2.85415   2.86756   2.86798   2.87329   2.87715
 Alpha virt. eigenvalues --    2.88033   2.89112   2.89786   2.92672   2.93698
 Alpha virt. eigenvalues --    2.94656   2.96143   2.97783   2.99170   2.99490
 Alpha virt. eigenvalues --    3.00687   3.01379   3.02085   3.05455   3.06840
 Alpha virt. eigenvalues --    3.07880   3.10132   3.11369   3.13847   3.14808
 Alpha virt. eigenvalues --    3.15661   3.16158   3.17025   3.17977   3.20434
 Alpha virt. eigenvalues --    3.22425   3.23097   3.24032   3.26369   3.27276
 Alpha virt. eigenvalues --    3.46013   3.47238   3.47976   3.49684   3.50977
 Alpha virt. eigenvalues --    3.52788   3.55715   3.56431   3.58182   3.60499
 Alpha virt. eigenvalues --    3.63570   3.70936   3.76041
          Condensed to atoms (all electrons):
 Mulliken charges:
               1
     1  N   -0.305726
     2  C    0.179312
     3  C    0.046868
     4  N   -0.235887
     5  C    0.114291
     6  H    0.025407
     7  N   -0.288686
     8  C    0.140234
     9  H    0.011317
    10  N   -0.283346
    11  C    0.233431
    12  C    0.083012
    13  N   -0.039979
    14  H    0.113547
    15  H    0.089836
    16  H    0.028122
    17  H    0.035207
    18  H    0.026784
    19  N   -0.298926
    20  C    0.248023
    21  C    0.197455
    22  N   -0.123010
    23  H    0.117587
    24  H    0.118447
    25  N   -0.304134
    26  C    0.242748
    27  N   -0.141387
    28  H    0.116941
    29  C    0.183584
    30  O   -0.326535
    31  C   -0.019723
    32  N   -0.215227
    33  C    0.127941
    34  H    0.018795
    35  H   -0.011658
    36  H    0.035528
    37  H    0.025748
    38  H    0.020594
    39  H    0.060141
    40  H    0.079879
    41  H    0.022654
    42  C   -0.069924
    43  O   -0.275409
    44  C    0.151789
    45  H    0.132602
    46  N   -0.110852
    47  O   -0.346567
    48  C    0.337294
    49  H    0.038503
    50  C    0.160290
    51  C    0.052130
    52  N   -0.273569
    53  H    0.032821
    54  H    0.040025
    55  H    0.030841
    56  H    0.122374
    57  H    0.116574
    58  N   -0.028124
    59  C    0.079803
    60  C    0.227162
    61  N   -0.265100
    62  H    0.026206
    63  C    0.155513
    64  N   -0.293647
    65  H    0.033315
    66  C    0.115139
    67  N   -0.244926
    68  C    0.031863
    69  C    0.181607
    70  N   -0.306941
 Sum of Mulliken charges =  -0.00000
 Mulliken charges with hydrogens summed into heavy atoms:
               1
     1  N   -0.305726
     2  C    0.269424
     3  C    0.046868
     4  N   -0.235887
     5  C    0.139698
     7  N   -0.288686
     8  C    0.151551
    10  N   -0.283346
    11  C    0.233431
    12  C    0.083012
    13  N    0.163404
    19  N   -0.298926
    20  C    0.248023
    21  C    0.247073
    22  N    0.113024
    25  N   -0.304134
    26  C    0.242748
    27  N   -0.024446
    29  C    0.183584
    30  O   -0.326535
    31  C   -0.019723
    32  N   -0.215227
    33  C    0.146736
    42  C   -0.047270
    43  O   -0.275409
    44  C    0.151789
    46  N    0.021749
    47  O   -0.346567
    48  C    0.337294
    50  C    0.198794
    51  C    0.212744
    52  N   -0.273569
    58  N    0.210824
    59  C    0.079803
    60  C    0.227162
    61  N   -0.265100
    63  C    0.181719
    64  N   -0.293647
    66  C    0.148454
    67  N   -0.244926
    68  C    0.031863
    69  C    0.285295
    70  N   -0.306941
 Electronic spatial extent (au):  <R**2>=          22067.2289
 Charge=             -0.0000 electrons
 Dipole moment (field-independent basis, Debye):
    X=             -4.1523    Y=              3.8247    Z=             -6.5084  Tot=              8.6156
 Quadrupole moment (field-independent basis, Debye-Ang):
   XX=           -145.7129   YY=           -229.0245   ZZ=           -256.6242
   XY=             -8.4719   XZ=             13.9045   YZ=            -12.7745
 Traceless Quadrupole moment (field-independent basis, Debye-Ang):
   XX=             64.7410   YY=            -18.5707   ZZ=            -46.1703
   XY=             -8.4719   XZ=             13.9045   YZ=            -12.7745
 Octapole moment (field-independent basis, Debye-Ang**2):
  XXX=             90.9466  YYY=             26.8136  ZZZ=            -95.0638  XYY=            -22.4547
  XXY=             79.0271  XXZ=            -93.5836  XZZ=            -65.5262  YZZ=             23.4304
  YYZ=              1.4444  XYZ=             18.9373
 Hexadecapole moment (field-independent basis, Debye-Ang**3):
 XXXX=         -16242.7565 YYYY=          -3966.1675 ZZZZ=          -3579.8451 XXXY=           -517.3345
 XXXZ=            512.6857 YYYX=             26.8208 YYYZ=           -257.6895 ZZZX=            213.2643
 ZZZY=           -118.9062 XXYY=          -4114.5004 XXZZ=          -3950.2272 YYZZ=          -1130.5821
 XXYZ=              1.0953 YYXZ=            -75.7577 ZZXY=             27.0965
 N-N= 5.602278843390D+03 E-N=-1.598532087993D+04  KE= 2.037790502386D+03
 No NMR shielding tensors so no spin-rotation constants.
 Leave Link  601 at Thu Jan 25 19:52:47 2018, MaxMem=  4294967296 cpu:              49.1 elap:               1.7
 (Enter /share/apps/g16/l9999.exe)
 1\1\GINC-COMPUTE-0-3\SP\RwB97XD\CC-pVDZ\C23H27N17O3\SATYA\25-Jan-2018\
 0\\#p wb97xd/cc-pvdz sp scf=(maxcycles=20)\\Base pair stacking\\0,1\N,
 0,0.24011,5.82305,-6.58763\C,0,-0.49224,7.0794,-6.83914\C,0,0.76564,3.
 69858,-6.36911\N,0,1.91196,4.41582,-6.05891\C,0,1.54947,5.66703,-6.202
 97\H,0,2.20299,6.52454,-6.04007\N,0,-0.75394,1.93652,-6.7551\C,0,-1.65
 58,2.8797,-7.04603\H,0,-2.64285,2.51028,-7.32086\N,0,-1.52208,4.20447,
 -7.04845\C,0,-0.27314,4.55238,-6.69699\C,0,0.49362,2.31886,-6.40511\N,
 0,1.39527,1.37883,-6.11433\H,0,2.33082,1.61607,-5.85033\H,0,1.16649,0.
 40595,-6.15043\H,0,-0.04338,7.58694,-7.57474\H,0,-1.4327,6.87028,-7.10
 544\H,0,-0.49876,7.63591,-6.00832\N,0,-0.79458,4.84468,-3.36181\C,0,-1
 .19911,3.53183,-3.39074\C,0,-1.67814,6.01436,-3.54031\N,0,-3.72002,1.1
 682,-3.73719\H,0,-3.80442,0.17226,-3.72261\H,0,-4.55825,1.6924,-3.8898
 2\N,0,-2.46158,3.09334,-3.58553\C,0,-2.53638,1.77448,-3.56015\N,0,-1.4
 585,0.94658,-3.35949\H,0,-1.60928,-0.05052,-3.35577\C,0,-0.1506,1.3758
 1,-3.15698\O,0,0.7504,0.54548,-2.9853\C,0,-0.05442,2.79039,-3.18159\N,
 0,1.0466,3.62104,-3.02451\C,0,0.56063,4.82727,-3.13877\H,0,1.14876,5.7
 4293,-3.06835\H,0,-1.37771,6.54319,-4.33334\H,0,-2.616,5.7019,-3.6854\
 H,0,-1.64206,6.58917,-2.72355\H,0,-2.91347,-4.91,-4.0888\H,0,-2.93345,
 -4.95373,-2.32745\H,0,-3.35815,-3.46719,-3.17669\H,0,1.79855,-5.19809,
 -3.16116\C,0,0.99973,-4.45645,-3.15181\O,0,2.47433,-2.59939,-3.08897\C
 ,0,1.33569,-3.06595,-3.11347\H,0,0.44821,-1.2222,-3.07776\N,0,0.25076,
 -2.21266,-3.10459\O,0,-1.96854,-1.73131,-3.11782\C,0,-1.07645,-2.56121
 ,-3.1283\H,0,-0.59401,-5.87172,-3.20503\C,0,-0.28572,-4.82748,-3.17561
 \C,0,-2.72331,-4.34063,-3.19117\N,0,-1.31965,-3.92015,-3.16481\H,0,-3.
 11136,-5.59448,-7.39454\H,0,-3.46519,-4.2757,-6.50138\H,0,-3.2356,-5.7
 1767,-5.77194\H,0,3.10407,-1.86203,-5.81252\H,0,3.0561,-3.56212,-5.944
 72\N,0,2.55919,-2.69404,-5.91741\C,0,1.22903,-2.64907,-6.01655\C,0,-0.
 94675,-3.58231,-6.25483\N,0,-1.58738,-2.40229,-6.21502\H,0,-1.15563,-0
 .40722,-6.03093\C,0,-0.71814,-1.40378,-6.07253\N,0,0.61447,-1.44678,-5
 .97305\H,0,-0.61075,-6.79048,-6.47143\C,0,-0.45396,-5.71547,-6.37808\N
 ,0,0.71691,-5.14198,-6.24447\C,0,0.41876,-3.78937,-6.16521\C,0,-2.9442
 8,-5.12845,-6.52569\N,0,-1.5049,-4.83114,-6.39225\\Version=EM64L-G16Re
 vA.03\State=1-A\HF=-2048.746831\RMSD=7.195e-09\Dipole=-2.9346082,-1.60
 06775,-0.5617969\Quadrupole=-14.9434144,47.7132033,-32.769789,12.65170
 28,-11.4928249,-0.7828102\PG=C01 [X(C23H27N17O3)]\\@


 A MAN IS EXACTLY AS GREAT AS THE TIDE SURGING
 BENEATH HIM.      - BISMARCK
 Job cpu time:       0 days  6 hours 26 minutes  1.6 seconds.
 Elapsed time:       0 days  0 hours 12 minutes 26.8 seconds.
 File lengths (MBytes):  RWF=    298 Int=      0 D2E=      0 Chk=     33 Scr=      1
 Normal termination of Gaussian 16 at Thu Jan 25 19:52:48 2018.
