 Entering Gaussian System, Link 0=g16
 Input=str5.-20.1.0.com
 Output=str5.-20.1.0.log
 Initial command:
 /share/apps/g16/l1.exe "/state/partition1/scr/Gau-13231.inp" -scrdir="/state/partition1/scr/"
 Entering Link 1 = /share/apps/g16/l1.exe PID=     13232.
  
 Copyright (c) 1988,1990,1992,1993,1995,1998,2003,2009,2016,
            Gaussian, Inc.  All Rights Reserved.
  
 This is part of the Gaussian(R) 16 program.  It is based on
 the Gaussian(R) 09 system (copyright 2009, Gaussian, Inc.),
 the Gaussian(R) 03 system (copyright 2003, Gaussian, Inc.),
 the Gaussian(R) 98 system (copyright 1998, Gaussian, Inc.),
 the Gaussian(R) 94 system (copyright 1995, Gaussian, Inc.),
 the Gaussian 92(TM) system (copyright 1992, Gaussian, Inc.),
 the Gaussian 90(TM) system (copyright 1990, Gaussian, Inc.),
 the Gaussian 88(TM) system (copyright 1988, Gaussian, Inc.),
 the Gaussian 86(TM) system (copyright 1986, Carnegie Mellon
 University), and the Gaussian 82(TM) system (copyright 1983,
 Carnegie Mellon University). Gaussian is a federally registered
 trademark of Gaussian, Inc.
  
 This software contains proprietary and confidential information,
 including trade secrets, belonging to Gaussian, Inc.
  
 This software is provided under written license and may be
 used, copied, transmitted, or stored only in accord with that
 written license.
  
 The following legend is applicable only to US Government
 contracts under FAR:
  
                    RESTRICTED RIGHTS LEGEND
  
 Use, reproduction and disclosure by the US Government is
 subject to restrictions as set forth in subparagraphs (a)
 and (c) of the Commercial Computer Software - Restricted
 Rights clause in FAR 52.227-19.
  
 Gaussian, Inc.
 340 Quinnipiac St., Bldg. 40, Wallingford CT 06492
  
  
 ---------------------------------------------------------------
 Warning -- This program may not be used in any manner that
 competes with the business of Gaussian, Inc. or will provide
 assistance to any competitor of Gaussian, Inc.  The licensee
 of this program is prohibited from giving any competitor of
 Gaussian, Inc. access to this program.  By using this program,
 the user acknowledges that Gaussian, Inc. is engaged in the
 business of creating and licensing software in the field of
 computational chemistry and represents and warrants to the
 licensee that it is not a competitor of Gaussian, Inc. and that
 it will not use this program in any manner prohibited above.
 ---------------------------------------------------------------
  

 Cite this work as:
 Gaussian 16, Revision A.03,
 M. J. Frisch, G. W. Trucks, H. B. Schlegel, G. E. Scuseria, 
 M. A. Robb, J. R. Cheeseman, G. Scalmani, V. Barone, 
 G. A. Petersson, H. Nakatsuji, X. Li, M. Caricato, A. V. Marenich, 
 J. Bloino, B. G. Janesko, R. Gomperts, B. Mennucci, H. P. Hratchian, 
 J. V. Ortiz, A. F. Izmaylov, J. L. Sonnenberg, D. Williams-Young, 
 F. Ding, F. Lipparini, F. Egidi, J. Goings, B. Peng, A. Petrone, 
 T. Henderson, D. Ranasinghe, V. G. Zakrzewski, J. Gao, N. Rega, 
 G. Zheng, W. Liang, M. Hada, M. Ehara, K. Toyota, R. Fukuda, 
 J. Hasegawa, M. Ishida, T. Nakajima, Y. Honda, O. Kitao, H. Nakai, 
 T. Vreven, K. Throssell, J. A. Montgomery, Jr., J. E. Peralta, 
 F. Ogliaro, M. J. Bearpark, J. J. Heyd, E. N. Brothers, K. N. Kudin, 
 V. N. Staroverov, T. A. Keith, R. Kobayashi, J. Normand, 
 K. Raghavachari, A. P. Rendell, J. C. Burant, S. S. Iyengar, 
 J. Tomasi, M. Cossi, J. M. Millam, M. Klene, C. Adamo, R. Cammi, 
 J. W. Ochterski, R. L. Martin, K. Morokuma, O. Farkas, 
 J. B. Foresman, and D. J. Fox, Gaussian, Inc., Wallingford CT, 2016.
 
 ******************************************
 Gaussian 16:  EM64L-G16RevA.03 25-Dec-2016
                25-Jan-2018 
 ******************************************
 %nprocshared=32
 Will use up to   32 processors via shared memory.
 %mem=32GB
 %chk=allatoms_t.chk
 ---------------------------------------
 #p wb97xd/cc-pvdz sp scf=(maxcycles=20)
 ---------------------------------------
 1/38=1,172=1/1;
 2/12=2,17=6,18=5,40=1/2;
 3/5=16,11=2,25=1,30=1,74=-58/1,2,3;
 4//1;
 5/5=2,7=20,38=5/2;
 6/7=2,8=2,9=2,10=2,28=1/1;
 99/5=1,9=1/99;
 Leave Link    1 at Thu Jan 25 15:46:23 2018, MaxMem=  4294967296 cpu:               2.7 elap:               0.1
 (Enter /share/apps/g16/l101.exe)
 ------------------
 Base pair stacking
 ------------------
 Symbolic Z-matrix:
 Charge =  0 Multiplicity = 1
 N                    -2.48652   3.98013  -5.38885 
 C                    -3.10311   5.23354  -4.91261 
 C                    -2.06283   1.85851  -5.78448 
 N                    -1.05653   2.57874  -6.41167 
 C                    -1.35207   3.82811  -6.14822 
 H                    -0.77149   4.68705  -6.48601 
 N                    -3.40924   0.09299  -4.98882 
 C                    -4.1778    1.03291  -4.42896 
 H                    -5.04047   0.66077  -3.87798 
 N                    -4.04137   2.35727  -4.44744 
 C                    -2.95164   2.7087   -5.14988 
 C                    -2.32018   0.47881  -5.68895 
 N                    -1.55175  -0.45796  -6.24855 
 H                    -0.73582  -0.21808  -6.77575 
 H                    -1.76531  -1.43093  -6.15993 
 H                    -3.35253   5.80265  -5.69624 
 H                    -3.92287   5.02174  -4.38134 
 H                    -2.4533    5.72914  -4.33631 
 N                    -1.4943    3.86211  -2.80971 
 C                    -1.88104   2.5491   -2.68928 
 C                    -2.36392   5.03289  -2.5779 
 N                    -4.32694   0.18656  -1.9838 
 H                    -4.40318  -0.80967  -1.95309 
 H                    -5.14834   0.7116   -1.75936 
 N                    -3.11055   2.11142  -2.34174 
 C                    -3.17542   0.79215  -2.31115 
 N                    -2.11825  -0.03688  -2.59857 
 H                    -2.25925  -1.03422  -2.54975 
 C                    -0.84433   0.3915   -2.95842 
 O                     0.04022  -0.43983  -3.19761 
 C                    -0.75919   1.80651  -2.99558 
 N                     0.31032   2.63661  -3.30214 
 C                    -0.17145   3.84365  -3.179 
 H                     0.39693   4.75918  -3.34641 
 H                    -2.4226    5.57734  -3.41393 
 H                    -3.27738   4.72104  -2.31983 
 H                    -1.9836    5.59221  -1.84215 
 H                    -3.77935  -5.88198  -2.75292 
 H                    -3.05541  -5.95911  -1.14836 
 H                    -3.78974  -4.45776  -1.71231 
 H                     0.88292  -6.17657  -3.90313 
 C                     0.16681  -5.43712  -3.5445 
 O                     1.5414   -3.57813  -4.07531 
 C                     0.49578  -4.04681  -3.62609 
 H                    -0.28315  -2.20614  -3.18617 
 N                    -0.47932  -3.19638  -3.14526 
 O                    -2.49461  -2.72005  -2.21311 
 C                    -1.69492  -3.54751  -2.61369 
 H                    -1.30917  -6.85485  -2.94672 
 C                    -1.01108  -5.81063  -3.03102 
 C                    -3.22527  -5.32927  -2.00889 
 N                    -1.93881  -4.90609  -2.56896 
 H                    -5.7161   -7.42696  -4.08825 
 H                    -5.21398  -6.18388  -3.15834 
 H                    -4.56642  -7.66832  -2.95538 
 H                    -0.34208  -3.67077  -7.56337 
 H                    -0.54009  -5.35779  -7.72107 
 N                    -0.80717  -4.50585  -7.2693 
 C                    -1.74212  -4.48539  -6.31713 
 C                    -3.36865  -5.45047  -4.87326 
 N                    -3.7071   -4.29177  -4.28396 
 H                    -3.20961  -2.30523  -4.36623 
 C                    -2.99689  -3.28567  -4.79019 
 N                    -2.06002  -3.30413  -5.74387 
 H                    -3.44111  -8.62622  -5.47454 
 C                    -3.22661  -7.55718  -5.46486 
 N                    -2.34443  -6.96715  -6.23382 
 C                    -2.42438  -5.63105  -5.86889 
 C                    -4.92847  -7.02018  -3.62547 
 N                    -3.88335  -6.69918  -4.61677 
 
 ITRead=  0  0  0  0  0  0  0  0  0  0  0  0  0  0  0  0  0  0  0  0
 ITRead=  0  0  0  0  0  0  0  0  0  0  0  0  0  0  0  0  0  0  0  0
 ITRead=  0  0  0  0  0  0  0  0  0  0  0  0  0  0  0  0  0  0  0  0
 ITRead=  0  0  0  0  0  0  0  0  0  0
 MicOpt= -1 -1 -1 -1 -1 -1 -1 -1 -1 -1 -1 -1 -1 -1 -1 -1 -1 -1 -1 -1
 MicOpt= -1 -1 -1 -1 -1 -1 -1 -1 -1 -1 -1 -1 -1 -1 -1 -1 -1 -1 -1 -1
 MicOpt= -1 -1 -1 -1 -1 -1 -1 -1 -1 -1 -1 -1 -1 -1 -1 -1 -1 -1 -1 -1
 MicOpt= -1 -1 -1 -1 -1 -1 -1 -1 -1 -1
 NAtoms=     70 NQM=       70 NQMF=       0 NMMI=      0 NMMIF=      0
                NMic=       0 NMicF=      0.
                    Isotopes and Nuclear Properties:
 (Nuclear quadrupole moments (NQMom) in fm**2, nuclear magnetic moments (NMagM)
  in nuclear magnetons)

  Atom         1           2           3           4           5           6           7           8           9          10
 IAtWgt=          14          12          12          14          12           1          14          12           1          14
 AtmWgt=  14.0030740  12.0000000  12.0000000  14.0030740  12.0000000   1.0078250  14.0030740  12.0000000   1.0078250  14.0030740
 NucSpn=           2           0           0           2           0           1           2           0           1           2
 AtZEff=  -0.0000000  -0.0000000  -0.0000000  -0.0000000  -0.0000000  -0.0000000  -0.0000000  -0.0000000  -0.0000000  -0.0000000
 NQMom=    2.0440000   0.0000000   0.0000000   2.0440000   0.0000000   0.0000000   2.0440000   0.0000000   0.0000000   2.0440000
 NMagM=    0.4037610   0.0000000   0.0000000   0.4037610   0.0000000   2.7928460   0.4037610   0.0000000   2.7928460   0.4037610
 AtZNuc=   7.0000000   6.0000000   6.0000000   7.0000000   6.0000000   1.0000000   7.0000000   6.0000000   1.0000000   7.0000000

  Atom        11          12          13          14          15          16          17          18          19          20
 IAtWgt=          12          12          14           1           1           1           1           1          14          12
 AtmWgt=  12.0000000  12.0000000  14.0030740   1.0078250   1.0078250   1.0078250   1.0078250   1.0078250  14.0030740  12.0000000
 NucSpn=           0           0           2           1           1           1           1           1           2           0
 AtZEff=  -0.0000000  -0.0000000  -0.0000000  -0.0000000  -0.0000000  -0.0000000  -0.0000000  -0.0000000  -0.0000000  -0.0000000
 NQMom=    0.0000000   0.0000000   2.0440000   0.0000000   0.0000000   0.0000000   0.0000000   0.0000000   2.0440000   0.0000000
 NMagM=    0.0000000   0.0000000   0.4037610   2.7928460   2.7928460   2.7928460   2.7928460   2.7928460   0.4037610   0.0000000
 AtZNuc=   6.0000000   6.0000000   7.0000000   1.0000000   1.0000000   1.0000000   1.0000000   1.0000000   7.0000000   6.0000000

  Atom        21          22          23          24          25          26          27          28          29          30
 IAtWgt=          12          14           1           1          14          12          14           1          12          16
 AtmWgt=  12.0000000  14.0030740   1.0078250   1.0078250  14.0030740  12.0000000  14.0030740   1.0078250  12.0000000  15.9949146
 NucSpn=           0           2           1           1           2           0           2           1           0           0
 AtZEff=  -0.0000000  -0.0000000  -0.0000000  -0.0000000  -0.0000000  -0.0000000  -0.0000000  -0.0000000  -0.0000000  -0.0000000
 NQMom=    0.0000000   2.0440000   0.0000000   0.0000000   2.0440000   0.0000000   2.0440000   0.0000000   0.0000000   0.0000000
 NMagM=    0.0000000   0.4037610   2.7928460   2.7928460   0.4037610   0.0000000   0.4037610   2.7928460   0.0000000   0.0000000
 AtZNuc=   6.0000000   7.0000000   1.0000000   1.0000000   7.0000000   6.0000000   7.0000000   1.0000000   6.0000000   8.0000000

  Atom        31          32          33          34          35          36          37          38          39          40
 IAtWgt=          12          14          12           1           1           1           1           1           1           1
 AtmWgt=  12.0000000  14.0030740  12.0000000   1.0078250   1.0078250   1.0078250   1.0078250   1.0078250   1.0078250   1.0078250
 NucSpn=           0           2           0           1           1           1           1           1           1           1
 AtZEff=  -0.0000000  -0.0000000  -0.0000000  -0.0000000  -0.0000000  -0.0000000  -0.0000000  -0.0000000  -0.0000000  -0.0000000
 NQMom=    0.0000000   2.0440000   0.0000000   0.0000000   0.0000000   0.0000000   0.0000000   0.0000000   0.0000000   0.0000000
 NMagM=    0.0000000   0.4037610   0.0000000   2.7928460   2.7928460   2.7928460   2.7928460   2.7928460   2.7928460   2.7928460
 AtZNuc=   6.0000000   7.0000000   6.0000000   1.0000000   1.0000000   1.0000000   1.0000000   1.0000000   1.0000000   1.0000000

  Atom        41          42          43          44          45          46          47          48          49          50
 IAtWgt=           1          12          16          12           1          14          16          12           1          12
 AtmWgt=   1.0078250  12.0000000  15.9949146  12.0000000   1.0078250  14.0030740  15.9949146  12.0000000   1.0078250  12.0000000
 NucSpn=           1           0           0           0           1           2           0           0           1           0
 AtZEff=  -0.0000000  -0.0000000  -0.0000000  -0.0000000  -0.0000000  -0.0000000  -0.0000000  -0.0000000  -0.0000000  -0.0000000
 NQMom=    0.0000000   0.0000000   0.0000000   0.0000000   0.0000000   2.0440000   0.0000000   0.0000000   0.0000000   0.0000000
 NMagM=    2.7928460   0.0000000   0.0000000   0.0000000   2.7928460   0.4037610   0.0000000   0.0000000   2.7928460   0.0000000
 AtZNuc=   1.0000000   6.0000000   8.0000000   6.0000000   1.0000000   7.0000000   8.0000000   6.0000000   1.0000000   6.0000000

  Atom        51          52          53          54          55          56          57          58          59          60
 IAtWgt=          12          14           1           1           1           1           1          14          12          12
 AtmWgt=  12.0000000  14.0030740   1.0078250   1.0078250   1.0078250   1.0078250   1.0078250  14.0030740  12.0000000  12.0000000
 NucSpn=           0           2           1           1           1           1           1           2           0           0
 AtZEff=  -0.0000000  -0.0000000  -0.0000000  -0.0000000  -0.0000000  -0.0000000  -0.0000000  -0.0000000  -0.0000000  -0.0000000
 NQMom=    0.0000000   2.0440000   0.0000000   0.0000000   0.0000000   0.0000000   0.0000000   2.0440000   0.0000000   0.0000000
 NMagM=    0.0000000   0.4037610   2.7928460   2.7928460   2.7928460   2.7928460   2.7928460   0.4037610   0.0000000   0.0000000
 AtZNuc=   6.0000000   7.0000000   1.0000000   1.0000000   1.0000000   1.0000000   1.0000000   7.0000000   6.0000000   6.0000000

  Atom        61          62          63          64          65          66          67          68          69          70
 IAtWgt=          14           1          12          14           1          12          14          12          12          14
 AtmWgt=  14.0030740   1.0078250  12.0000000  14.0030740   1.0078250  12.0000000  14.0030740  12.0000000  12.0000000  14.0030740
 NucSpn=           2           1           0           2           1           0           2           0           0           2
 AtZEff=  -0.0000000  -0.0000000  -0.0000000  -0.0000000  -0.0000000  -0.0000000  -0.0000000  -0.0000000  -0.0000000  -0.0000000
 NQMom=    2.0440000   0.0000000   0.0000000   2.0440000   0.0000000   0.0000000   2.0440000   0.0000000   0.0000000   2.0440000
 NMagM=    0.4037610   2.7928460   0.0000000   0.4037610   2.7928460   0.0000000   0.4037610   0.0000000   0.0000000   0.4037610
 AtZNuc=   7.0000000   1.0000000   6.0000000   7.0000000   1.0000000   6.0000000   7.0000000   6.0000000   6.0000000   7.0000000
 Leave Link  101 at Thu Jan 25 15:46:23 2018, MaxMem=  4294967296 cpu:               7.8 elap:               0.3
 (Enter /share/apps/g16/l202.exe)
 Stoichiometry    C23H27N17O3
 Framework group  C1[X(C23H27N17O3)]
 Deg. of freedom   204
 Full point group                 C1      NOp   1
 Largest Abelian subgroup         C1      NOp   1
 Largest concise Abelian subgroup C1      NOp   1
                         Standard orientation:                         
 ---------------------------------------------------------------------
 Center     Atomic      Atomic             Coordinates (Angstroms)
 Number     Number       Type             X           Y           Z
 ---------------------------------------------------------------------
      1          7           0        5.111324   -0.603011   -1.468127
      2          6           0        6.364150    0.164857   -1.605350
      3          6           0        2.988945   -1.169249   -1.357730
      4          7           0        3.712675   -2.337745   -1.169127
      5          6           0        4.962362   -1.949838   -1.243193
      6          1           0        5.823729   -2.610413   -1.140040
      7          7           0        1.218004    0.369617   -1.599833
      8          6           0        2.156624    1.307687   -1.762916
      9          1           0        1.781710    2.316915   -1.927733
     10          7           0        3.482588    1.186832   -1.753024
     11          6           0        3.837413   -0.091666   -1.543309
     12          6           0        1.607249   -0.907034   -1.390690
     13          7           0        0.671782   -1.844851   -1.227671
     14          1           0        0.914183   -2.802825   -1.070344
     15          1           0       -0.302685   -1.621977   -1.257208
     16          1           0        6.891255   -0.189926   -2.377660
     17          1           0        6.149845    1.128230   -1.763781
     18          1           0        6.903865    0.078546   -0.767942
     19          7           0        5.134432    0.428147    1.098305
     20          6           0        3.816374    0.801628    0.992000
     21          6           0        6.286441    1.215285    0.614581
     22          7           0        1.411216    3.087788   -0.032896
     23          1           0        0.415317    3.170830   -0.010095
     24          1           0        1.919571    3.838693   -0.455335
     25          7           0        3.355921    1.941259    0.432299
     26          6           0        2.037782    2.017942    0.479687
     27          7           0        1.230501    1.053454    1.032471
     28          1           0        0.232255    1.196251    1.024498
     29          6           0        1.682522   -0.127017    1.613883
     30          8           0        0.869638   -0.932262    2.084574
     31          6           0        3.096617   -0.223621    1.570467
     32          7           0        3.945718   -1.220687    2.030666
     33          6           0        5.141354   -0.791747    1.729542
     34          1           0        6.066128   -1.327691    1.945954
     35          1           0        6.792613    0.685323   -0.064938
     36          1           0        5.957648    2.061795    0.197957
     37          1           0        6.888217    1.434476    1.381805
     38          1           0       -4.664670    2.201428    0.095783
     39          1           0       -4.650679    2.764886    1.765205
     40          1           0       -3.198331    2.908841    0.774603
     41          1           0       -4.863021   -1.993452    2.443158
     42          6           0       -4.131553   -1.229582    2.179202
     43          8           0       -2.255089   -2.609265    2.629155
     44          6           0       -2.736440   -1.534803    2.270530
     45          1           0       -0.903771   -0.676544    1.965500
     46          7           0       -1.896981   -0.498790    1.913831
     47          8           0       -1.444166    1.608541    1.198778
     48          6           0       -2.262714    0.755465    1.493562
     49          1           0       -5.567666    0.267152    1.686066
     50          6           0       -4.519236   -0.015116    1.772546
     51          6           0       -4.063740    2.299090    0.987646
     52          7           0       -3.625070    0.973089    1.431526
     53          1           0       -6.324714    2.719534   -2.117109
     54          1           0       -5.028056    2.977479   -1.160945
     55          1           0       -6.481628    2.651048   -0.494117
     56          1           0       -2.555076   -3.605718   -1.197035
     57          1           0       -4.252630   -3.557491   -1.358583
     58          7           0       -3.390893   -3.059626   -1.254804
     59          6           0       -3.358873   -1.726691   -1.196169
     60          6           0       -4.311523    0.453721   -1.197092
     61          7           0       -3.139801    1.095574   -1.057445
     62          1           0       -1.144081    0.662740   -0.883201
     63          6           0       -2.134641    0.224429   -0.996907
     64          7           0       -2.164669   -1.110952   -1.055445
     65          1           0       -7.510766    0.117309   -1.519352
     66          6           0       -6.436136   -0.039903   -1.422366
     67          7           0       -5.852336   -1.213274   -1.415015
     68          6           0       -4.505006   -0.914627   -1.272754
     69          6           0       -5.874258    2.455560   -1.264229
     70          7           0       -5.563540    1.013154   -1.294399
 ---------------------------------------------------------------------
 Rotational constants (GHZ):           0.1967840           0.0516684           0.0514501
 Leave Link  202 at Thu Jan 25 15:46:23 2018, MaxMem=  4294967296 cpu:               0.3 elap:               0.0
 (Enter /share/apps/g16/l301.exe)
 Standard basis: CC-pVDZ (5D, 7F)
 Ernie: Thresh=  0.10000D-02 Tol=  0.10000D-05 Strict=F.
 Ernie:  86 primitive shells out of 1081 were deleted.
 There are   780 symmetry adapted cartesian basis functions of A   symmetry.
 There are   737 symmetry adapted basis functions of A   symmetry.
   737 basis functions,  1608 primitive gaussians,   780 cartesian basis functions
   154 alpha electrons      154 beta electrons
       nuclear repulsion energy      5714.1308799709 Hartrees.
 IExCor= 4639 DFT=T Ex+Corr=wB97XD ExCW=0 ScaHFX=  1.000000
 ScaDFX=  1.000000  1.000000  1.000000  1.000000 ScalE2=  1.000000  1.000000
 IRadAn=      5 IRanWt=     -1 IRanGd=            0 ICorTp=0 IEmpDi=121
 HFx  wShort=  0.000000 wLong=  0.200000 cFull=  0.222036 cShort=  0.000000 cLong=  0.777964
 DFx  wShort=  0.000000 wLong=  0.200000 cFull=  0.000000 cShort=  0.000000 cLong=  1.000000
 NAtoms=   70 NActive=   70 NUniq=   70 SFac= 1.00D+00 NAtFMM=   60 NAOKFM=T Big=T
 Integral buffers will be    131072 words long.
 Raffenetti 2 integral format.
 Two-electron integral symmetry is turned on.
 R6Disp:  Grimme-D2 Dispersion energy=       -0.0843203342 Hartrees.
 Nuclear repulsion after empirical dispersion term =     5714.0465596367 Hartrees.
 Leave Link  301 at Thu Jan 25 15:46:23 2018, MaxMem=  4294967296 cpu:               2.2 elap:               0.1
 (Enter /share/apps/g16/l302.exe)
 NPDir=0 NMtPBC=     1 NCelOv=     1 NCel=       1 NClECP=     1 NCelD=      1
         NCelK=      1 NCelE2=     1 NClLst=     1 CellRange=     0.0.
 One-electron integrals computed using PRISM.
 One-electron integral symmetry used in STVInt
 NBasis=   737 RedAO= T EigKep=  4.59D-04  NBF=   737
 NBsUse=   737 1.00D-06 EigRej= -1.00D+00 NBFU=   737
 Precomputing XC quadrature grid using
 IXCGrd= 4 IRadAn=           5 IRanWt=          -1 IRanGd=           0 AccXCQ= 0.00D+00.
 Generated NRdTot=       0 NPtTot=           0 NUsed=           0 NTot=          32
 NSgBfM=   768   768   768   768   768 MxSgAt=    70 MxSgA2=    70.
 Leave Link  302 at Thu Jan 25 15:46:27 2018, MaxMem=  4294967296 cpu:             134.2 elap:               4.2
 (Enter /share/apps/g16/l303.exe)
 DipDrv:  MaxL=1.
 Leave Link  303 at Thu Jan 25 15:46:28 2018, MaxMem=  4294967296 cpu:              12.5 elap:               0.4
 (Enter /share/apps/g16/l401.exe)
 ExpMin= 1.22D-01 ExpMax= 1.17D+04 ExpMxC= 4.01D+02 IAcc=3 IRadAn=         5 AccDes= 0.00D+00
 Harris functional with IExCor= 4639 and IRadAn=       5 diagonalized for initial guess.
 HarFok:  IExCor= 4639 AccDes= 0.00D+00 IRadAn=         5 IDoV= 1 UseB2=F ITyADJ=14
 ICtDFT=  3500011 ScaDFX=  1.000000  1.000000  1.000000  1.000000
 FoFCou: FMM=F IPFlag=           0 FMFlag=      100000 FMFlg1=        2001
         NFxFlg=           0 DoJE=T BraDBF=F KetDBF=T FulRan=T
         wScrn=  0.000000 ICntrl=       500 IOpCl=  0 I1Cent=   200000004 NGrid=           0
         NMat0=    1 NMatS0=      1 NMatT0=    0 NMatD0=    1 NMtDS0=    0 NMtDT0=    0
 Petite list used in FoFCou.
 Harris En= -1963.63113966226    
 JPrj=0 DoOrth=F DoCkMO=F.
 Leave Link  401 at Thu Jan 25 15:46:42 2018, MaxMem=  4294967296 cpu:             433.8 elap:              13.8
 (Enter /share/apps/g16/l502.exe)
 Integral symmetry usage will be decided dynamically.
 Closed shell SCF:
 Using DIIS extrapolation, IDIIS=  1040.
 NGot=  4294967296 LenX=  4293717438 LenY=  4293108258
 Requested convergence on RMS density matrix=1.00D-08 within  20 cycles.
 Requested convergence on MAX density matrix=1.00D-06.
 Requested convergence on             energy=1.00D-06.
 No special actions if energy rises.
 Fock matrices will be formed incrementally for  20 cycles.
 Integral accuracy reduced to 1.0D-05 until final iterations.

 Cycle   1  Pass 0  IDiag  1:
 FoFJK:  IHMeth= 1 ICntrl=       0 DoSepK=T KAlg= 0 I1Cent=           0 FoldK=F
 IRaf=         1 NMat=       1 IRICut=       1 DoRegI=T DoRafI=F ISym2E= 0 IDoP0=0 IntGTp=1.
 FoFCou: FMM=T IPFlag=           0 FMFlag=      100000 FMFlg1=        2001
         NFxFlg=           0 DoJE=T BraDBF=F KetDBF=F FulRan=T
         wScrn=  0.000000 ICntrl=       500 IOpCl=  0 I1Cent=           0 NGrid=           0
         NMat0=    1 NMatS0=      1 NMatT0=    0 NMatD0=    1 NMtDS0=    0 NMtDT0=    0
 Symmetry not used in FoFCou.
 FMM levels:  10  Number of levels for PrismC:   9
 E= -2048.09381456934    
 DIIS: error= 1.88D-02 at cycle   1 NSaved=   1.
 NSaved= 1 IEnMin= 1 EnMin= -2048.09381456934     IErMin= 1 ErrMin= 1.88D-02
 ErrMax= 1.88D-02  0.00D+00 EMaxC= 1.00D-01 BMatC= 8.45D-01 BMatP= 8.45D-01
 IDIUse=3 WtCom= 8.12D-01 WtEn= 1.88D-01
 Coeff-Com:  0.100D+01
 Coeff-En:   0.100D+01
 Coeff:      0.100D+01
 Gap=     0.244 Goal=   None    Shift=    0.000
 GapD=    0.244 DampG=1.000 DampE=0.500 DampFc=0.5000 IDamp=-1.
 Damping current iteration by 5.00D-01
 RMSDP=1.70D-03 MaxDP=1.29D-01              OVMax= 2.11D-01

 Cycle   2  Pass 0  IDiag  1:
 RMSU=  8.50D-04    CP:  9.97D-01
 E= -2048.29106580648     Delta-E=       -0.197251237139 Rises=F Damp=T
 DIIS: error= 1.01D-02 at cycle   2 NSaved=   2.
 NSaved= 2 IEnMin= 2 EnMin= -2048.29106580648     IErMin= 2 ErrMin= 1.01D-02
 ErrMax= 1.01D-02  0.00D+00 EMaxC= 1.00D-01 BMatC= 1.49D-01 BMatP= 8.45D-01
 IDIUse=3 WtCom= 8.99D-01 WtEn= 1.01D-01
 Coeff-Com: -0.167D+00 0.117D+01
 Coeff-En:   0.000D+00 0.100D+01
 Coeff:     -0.150D+00 0.115D+01
 Gap=     0.300 Goal=   None    Shift=    0.000
 RMSDP=6.54D-04 MaxDP=3.58D-02 DE=-1.97D-01 OVMax= 1.43D-01

 Cycle   3  Pass 0  IDiag  1:
 RMSU=  6.46D-04    CP:  9.93D-01  1.10D+00
 E= -2048.46983806195     Delta-E=       -0.178772255470 Rises=F Damp=F
 DIIS: error= 6.14D-03 at cycle   3 NSaved=   3.
 NSaved= 3 IEnMin= 3 EnMin= -2048.46983806195     IErMin= 3 ErrMin= 6.14D-03
 ErrMax= 6.14D-03  0.00D+00 EMaxC= 1.00D-01 BMatC= 7.73D-02 BMatP= 1.49D-01
 IDIUse=3 WtCom= 9.39D-01 WtEn= 6.14D-02
 Coeff-Com: -0.233D+00 0.567D+00 0.666D+00
 Coeff-En:   0.000D+00 0.000D+00 0.100D+01
 Coeff:     -0.218D+00 0.532D+00 0.686D+00
 Gap=     0.259 Goal=   None    Shift=    0.000
 RMSDP=4.22D-04 MaxDP=3.30D-02 DE=-1.79D-01 OVMax= 6.65D-02

 Cycle   4  Pass 0  IDiag  1:
 RMSU=  2.37D-04    CP:  9.93D-01  1.41D+00  6.40D-01
 E= -2048.52791268251     Delta-E=       -0.058074620563 Rises=F Damp=F
 DIIS: error= 3.15D-03 at cycle   4 NSaved=   4.
 NSaved= 4 IEnMin= 4 EnMin= -2048.52791268251     IErMin= 4 ErrMin= 3.15D-03
 ErrMax= 3.15D-03  0.00D+00 EMaxC= 1.00D-01 BMatC= 1.14D-02 BMatP= 7.73D-02
 IDIUse=3 WtCom= 9.68D-01 WtEn= 3.15D-02
 Coeff-Com: -0.100D+00 0.194D+00 0.376D+00 0.530D+00
 Coeff-En:   0.000D+00 0.000D+00 0.841D-01 0.916D+00
 Coeff:     -0.969D-01 0.188D+00 0.366D+00 0.542D+00
 Gap=     0.258 Goal=   None    Shift=    0.000
 RMSDP=1.50D-04 MaxDP=1.08D-02 DE=-5.81D-02 OVMax= 1.61D-02

 Cycle   5  Pass 0  IDiag  1:
 RMSU=  6.86D-05    CP:  9.93D-01  1.38D+00  7.83D-01  6.12D-01
 E= -2048.53761918023     Delta-E=       -0.009706497715 Rises=F Damp=F
 DIIS: error= 4.39D-04 at cycle   5 NSaved=   5.
 NSaved= 5 IEnMin= 5 EnMin= -2048.53761918023     IErMin= 5 ErrMin= 4.39D-04
 ErrMax= 4.39D-04  0.00D+00 EMaxC= 1.00D-01 BMatC= 3.74D-04 BMatP= 1.14D-02
 IDIUse=3 WtCom= 9.96D-01 WtEn= 4.39D-03
 Coeff-Com: -0.284D-01 0.492D-01 0.127D+00 0.246D+00 0.605D+00
 Coeff-En:   0.000D+00 0.000D+00 0.000D+00 0.000D+00 0.100D+01
 Coeff:     -0.283D-01 0.490D-01 0.127D+00 0.245D+00 0.607D+00
 Gap=     0.258 Goal=   None    Shift=    0.000
 RMSDP=3.23D-05 MaxDP=2.17D-03 DE=-9.71D-03 OVMax= 5.07D-03

 Failed to achieve initial convergence to 1.0D-08 in  6 cycles.
 Switch to full accuracy anyway.
 Cycle   6  Pass 1  IDiag  1:
 E= -2048.53798741290     Delta-E=       -0.000368232673 Rises=F Damp=F
 DIIS: error= 3.17D-04 at cycle   1 NSaved=   1.
 NSaved= 1 IEnMin= 1 EnMin= -2048.53798741290     IErMin= 1 ErrMin= 3.17D-04
 ErrMax= 3.17D-04  0.00D+00 EMaxC= 1.00D-01 BMatC= 9.04D-05 BMatP= 9.04D-05
 IDIUse=3 WtCom= 9.97D-01 WtEn= 3.17D-03
 Coeff-Com:  0.100D+01
 Coeff-En:   0.100D+01
 Coeff:      0.100D+01
 Gap=     0.258 Goal=   None    Shift=    0.000
 RMSDP=3.23D-05 MaxDP=2.17D-03 DE=-3.68D-04 OVMax= 2.90D-03

 Cycle   7  Pass 1  IDiag  1:
 RMSU=  1.20D-04    CP:  1.00D+00
 E= -2048.53803619384     Delta-E=       -0.000048780944 Rises=F Damp=F
 DIIS: error= 1.95D-04 at cycle   2 NSaved=   2.
 NSaved= 2 IEnMin= 2 EnMin= -2048.53803619384     IErMin= 2 ErrMin= 1.95D-04
 ErrMax= 1.95D-04  0.00D+00 EMaxC= 1.00D-01 BMatC= 7.06D-05 BMatP= 9.04D-05
 IDIUse=3 WtCom= 9.98D-01 WtEn= 1.95D-03
 Coeff-Com:  0.460D+00 0.540D+00
 Coeff-En:   0.223D+00 0.777D+00
 Coeff:      0.459D+00 0.541D+00
 Gap=     0.258 Goal=   None    Shift=    0.000
 RMSDP=1.51D-05 MaxDP=1.37D-03 DE=-4.88D-05 OVMax= 2.66D-03

 Cycle   8  Pass 1  IDiag  1:
 RMSU=  1.50D-05    CP:  1.00D+00  1.01D+00
 E= -2048.53809239621     Delta-E=       -0.000056202362 Rises=F Damp=F
 DIIS: error= 8.17D-05 at cycle   3 NSaved=   3.
 NSaved= 3 IEnMin= 3 EnMin= -2048.53809239621     IErMin= 3 ErrMin= 8.17D-05
 ErrMax= 8.17D-05  0.00D+00 EMaxC= 1.00D-01 BMatC= 1.17D-05 BMatP= 7.06D-05
 IDIUse=1 WtCom= 1.00D+00 WtEn= 0.00D+00
 Coeff-Com: -0.142D-01 0.274D+00 0.740D+00
 Coeff:     -0.142D-01 0.274D+00 0.740D+00
 Gap=     0.258 Goal=   None    Shift=    0.000
 RMSDP=6.87D-06 MaxDP=4.09D-04 DE=-5.62D-05 OVMax= 8.30D-04

 Cycle   9  Pass 1  IDiag  1:
 RMSU=  4.80D-06    CP:  1.00D+00  1.04D+00  7.90D-01
 E= -2048.53810494452     Delta-E=       -0.000012548310 Rises=F Damp=F
 DIIS: error= 2.08D-05 at cycle   4 NSaved=   4.
 NSaved= 4 IEnMin= 4 EnMin= -2048.53810494452     IErMin= 4 ErrMin= 2.08D-05
 ErrMax= 2.08D-05  0.00D+00 EMaxC= 1.00D-01 BMatC= 8.72D-07 BMatP= 1.17D-05
 IDIUse=1 WtCom= 1.00D+00 WtEn= 0.00D+00
 Coeff-Com: -0.357D-01 0.814D-01 0.310D+00 0.644D+00
 Coeff:     -0.357D-01 0.814D-01 0.310D+00 0.644D+00
 Gap=     0.258 Goal=   None    Shift=    0.000
 RMSDP=1.94D-06 MaxDP=1.16D-04 DE=-1.25D-05 OVMax= 3.82D-04

 Cycle  10  Pass 1  IDiag  1:
 RMSU=  1.72D-06    CP:  1.00D+00  1.05D+00  8.32D-01  1.10D+00
 E= -2048.53810632580     Delta-E=       -0.000001381282 Rises=F Damp=F
 DIIS: error= 8.79D-06 at cycle   5 NSaved=   5.
 NSaved= 5 IEnMin= 5 EnMin= -2048.53810632580     IErMin= 5 ErrMin= 8.79D-06
 ErrMax= 8.79D-06  0.00D+00 EMaxC= 1.00D-01 BMatC= 1.68D-07 BMatP= 8.72D-07
 IDIUse=1 WtCom= 1.00D+00 WtEn= 0.00D+00
 Coeff-Com: -0.694D-02-0.438D-01-0.101D+00 0.197D+00 0.954D+00
 Coeff:     -0.694D-02-0.438D-01-0.101D+00 0.197D+00 0.954D+00
 Gap=     0.258 Goal=   None    Shift=    0.000
 RMSDP=1.56D-06 MaxDP=8.68D-05 DE=-1.38D-06 OVMax= 3.21D-04

 Cycle  11  Pass 1  IDiag  1:
 RMSU=  6.43D-07    CP:  1.00D+00  1.05D+00  8.45D-01  1.38D+00  1.22D+00
 E= -2048.53810675542     Delta-E=       -0.000000429624 Rises=F Damp=F
 DIIS: error= 5.22D-06 at cycle   6 NSaved=   6.
 NSaved= 6 IEnMin= 6 EnMin= -2048.53810675542     IErMin= 6 ErrMin= 5.22D-06
 ErrMax= 5.22D-06  0.00D+00 EMaxC= 1.00D-01 BMatC= 5.43D-08 BMatP= 1.68D-07
 IDIUse=1 WtCom= 1.00D+00 WtEn= 0.00D+00
 Coeff-Com:  0.535D-02-0.438D-01-0.133D+00-0.325D-01 0.544D+00 0.660D+00
 Coeff:      0.535D-02-0.438D-01-0.133D+00-0.325D-01 0.544D+00 0.660D+00
 Gap=     0.258 Goal=   None    Shift=    0.000
 RMSDP=6.53D-07 MaxDP=3.94D-05 DE=-4.30D-07 OVMax= 1.53D-04

 Cycle  12  Pass 1  IDiag  1:
 RMSU=  2.78D-07    CP:  1.00D+00  1.05D+00  8.50D-01  1.49D+00  1.40D+00
                    CP:  9.71D-01
 E= -2048.53810684443     Delta-E=       -0.000000089010 Rises=F Damp=F
 DIIS: error= 1.23D-06 at cycle   7 NSaved=   7.
 NSaved= 7 IEnMin= 7 EnMin= -2048.53810684443     IErMin= 7 ErrMin= 1.23D-06
 ErrMax= 1.23D-06  0.00D+00 EMaxC= 1.00D-01 BMatC= 1.45D-09 BMatP= 5.43D-08
 IDIUse=1 WtCom= 1.00D+00 WtEn= 0.00D+00
 Coeff-Com:  0.141D-02-0.734D-02-0.244D-01-0.169D-01 0.691D-01 0.128D+00
 Coeff-Com:  0.850D+00
 Coeff:      0.141D-02-0.734D-02-0.244D-01-0.169D-01 0.691D-01 0.128D+00
 Coeff:      0.850D+00
 Gap=     0.258 Goal=   None    Shift=    0.000
 RMSDP=1.46D-07 MaxDP=7.24D-06 DE=-8.90D-08 OVMax= 4.41D-05

 Cycle  13  Pass 1  IDiag  1:
 RMSU=  8.54D-08    CP:  1.00D+00  1.05D+00  8.50D-01  1.50D+00  1.43D+00
                    CP:  1.07D+00  1.19D+00
 E= -2048.53810684962     Delta-E=       -0.000000005185 Rises=F Damp=F
 DIIS: error= 7.44D-07 at cycle   8 NSaved=   8.
 NSaved= 8 IEnMin= 8 EnMin= -2048.53810684962     IErMin= 8 ErrMin= 7.44D-07
 ErrMax= 7.44D-07  0.00D+00 EMaxC= 1.00D-01 BMatC= 7.49D-10 BMatP= 1.45D-09
 IDIUse=1 WtCom= 1.00D+00 WtEn= 0.00D+00
 Coeff-Com: -0.108D-02 0.111D-01 0.325D-01 0.287D-02-0.145D+00-0.164D+00
 Coeff-Com:  0.421D+00 0.842D+00
 Coeff:     -0.108D-02 0.111D-01 0.325D-01 0.287D-02-0.145D+00-0.164D+00
 Coeff:      0.421D+00 0.842D+00
 Gap=     0.258 Goal=   None    Shift=    0.000
 RMSDP=1.06D-07 MaxDP=4.17D-06 DE=-5.19D-09 OVMax= 3.36D-05

 Cycle  14  Pass 1  IDiag  1:
 RMSU=  5.04D-08    CP:  1.00D+00  1.05D+00  8.50D-01  1.51D+00  1.45D+00
                    CP:  1.14D+00  1.43D+00  1.21D+00
 E= -2048.53810685129     Delta-E=       -0.000000001674 Rises=F Damp=F
 DIIS: error= 2.47D-07 at cycle   9 NSaved=   9.
 NSaved= 9 IEnMin= 9 EnMin= -2048.53810685129     IErMin= 9 ErrMin= 2.47D-07
 ErrMax= 2.47D-07  0.00D+00 EMaxC= 1.00D-01 BMatC= 7.42D-11 BMatP= 7.49D-10
 IDIUse=1 WtCom= 1.00D+00 WtEn= 0.00D+00
 Coeff-Com: -0.568D-03 0.509D-02 0.151D-01 0.308D-02-0.601D-01-0.762D-01
 Coeff-Com:  0.705D-01 0.316D+00 0.728D+00
 Coeff:     -0.568D-03 0.509D-02 0.151D-01 0.308D-02-0.601D-01-0.762D-01
 Coeff:      0.705D-01 0.316D+00 0.728D+00
 Gap=     0.258 Goal=   None    Shift=    0.000
 RMSDP=2.73D-08 MaxDP=1.20D-06 DE=-1.67D-09 OVMax= 8.95D-06

 Cycle  15  Pass 1  IDiag  1:
 RMSU=  1.52D-08    CP:  1.00D+00  1.05D+00  8.50D-01  1.51D+00  1.45D+00
                    CP:  1.15D+00  1.47D+00  1.40D+00  1.15D+00
 E= -2048.53810685122     Delta-E=        0.000000000075 Rises=F Damp=F
 DIIS: error= 1.16D-07 at cycle  10 NSaved=  10.
 NSaved=10 IEnMin= 9 EnMin= -2048.53810685129     IErMin=10 ErrMin= 1.16D-07
 ErrMax= 1.16D-07  0.00D+00 EMaxC= 1.00D-01 BMatC= 1.71D-11 BMatP= 7.42D-11
 IDIUse=1 WtCom= 1.00D+00 WtEn= 0.00D+00
 Coeff-Com:  0.510D-04-0.824D-03-0.240D-02-0.883D-05 0.128D-01 0.107D-01
 Coeff-Com: -0.842D-01-0.889D-01 0.293D+00 0.860D+00
 Coeff:      0.510D-04-0.824D-03-0.240D-02-0.883D-05 0.128D-01 0.107D-01
 Coeff:     -0.842D-01-0.889D-01 0.293D+00 0.860D+00
 Gap=     0.258 Goal=   None    Shift=    0.000
 RMSDP=1.76D-08 MaxDP=9.70D-07 DE= 7.55D-11 OVMax= 6.19D-06

 Cycle  16  Pass 1  IDiag  1:
 RMSU=  7.13D-09    CP:  1.00D+00  1.05D+00  8.50D-01  1.51D+00  1.46D+00
                    CP:  1.16D+00  1.49D+00  1.49D+00  1.35D+00  1.11D+00
 E= -2048.53810685174     Delta-E=       -0.000000000527 Rises=F Damp=F
 DIIS: error= 5.92D-08 at cycle  11 NSaved=  11.
 NSaved=11 IEnMin=11 EnMin= -2048.53810685174     IErMin=11 ErrMin= 5.92D-08
 ErrMax= 5.92D-08  0.00D+00 EMaxC= 1.00D-01 BMatC= 3.34D-12 BMatP= 1.71D-11
 IDIUse=1 WtCom= 1.00D+00 WtEn= 0.00D+00
 Coeff-Com:  0.104D-03-0.109D-02-0.323D-02-0.474D-03 0.144D-01 0.160D-01
 Coeff-Com: -0.489D-01-0.813D-01 0.203D-01 0.387D+00 0.697D+00
 Coeff:      0.104D-03-0.109D-02-0.323D-02-0.474D-03 0.144D-01 0.160D-01
 Coeff:     -0.489D-01-0.813D-01 0.203D-01 0.387D+00 0.697D+00
 Gap=     0.258 Goal=   None    Shift=    0.000
 RMSDP=5.46D-09 MaxDP=2.72D-07 DE=-5.27D-10 OVMax= 1.72D-06

 SCF Done:  E(RwB97XD) =  -2048.53810685     A.U. after   16 cycles
            NFock= 16  Conv=0.55D-08     -V/T= 2.0047
 KE= 2.038934194554D+03 PE=-1.620892500092D+04 EE= 6.407406139878D+03
 Leave Link  502 at Thu Jan 25 16:00:37 2018, MaxMem=  4294967296 cpu:           25834.6 elap:             835.0
 (Enter /share/apps/g16/l601.exe)
 Copying SCF densities to generalized density rwf, IOpCl= 0 IROHF=0.

 **********************************************************************

            Population analysis using the SCF density.

 **********************************************************************

 Orbital symmetries:
       Occupied  (A) (A) (A) (A) (A) (A) (A) (A) (A) (A) (A) (A)
                 (A) (A) (A) (A) (A) (A) (A) (A) (A) (A) (A) (A)
                 (A) (A) (A) (A) (A) (A) (A) (A) (A) (A) (A) (A)
                 (A) (A) (A) (A) (A) (A) (A) (A) (A) (A) (A) (A)
                 (A) (A) (A) (A) (A) (A) (A) (A) (A) (A) (A) (A)
                 (A) (A) (A) (A) (A) (A) (A) (A) (A) (A) (A) (A)
                 (A) (A) (A) (A) (A) (A) (A) (A) (A) (A) (A) (A)
                 (A) (A) (A) (A) (A) (A) (A) (A) (A) (A) (A) (A)
                 (A) (A) (A) (A) (A) (A) (A) (A) (A) (A) (A) (A)
                 (A) (A) (A) (A) (A) (A) (A) (A) (A) (A) (A) (A)
                 (A) (A) (A) (A) (A) (A) (A) (A) (A) (A) (A) (A)
                 (A) (A) (A) (A) (A) (A) (A) (A) (A) (A) (A) (A)
                 (A) (A) (A) (A) (A) (A) (A) (A) (A) (A)
       Virtual   (A) (A) (A) (A) (A) (A) (A) (A) (A) (A) (A) (A)
                 (A) (A) (A) (A) (A) (A) (A) (A) (A) (A) (A) (A)
                 (A) (A) (A) (A) (A) (A) (A) (A) (A) (A) (A) (A)
                 (A) (A) (A) (A) (A) (A) (A) (A) (A) (A) (A) (A)
                 (A) (A) (A) (A) (A) (A) (A) (A) (A) (A) (A) (A)
                 (A) (A) (A) (A) (A) (A) (A) (A) (A) (A) (A) (A)
                 (A) (A) (A) (A) (A) (A) (A) (A) (A) (A) (A) (A)
                 (A) (A) (A) (A) (A) (A) (A) (A) (A) (A) (A) (A)
                 (A) (A) (A) (A) (A) (A) (A) (A) (A) (A) (A) (A)
                 (A) (A) (A) (A) (A) (A) (A) (A) (A) (A) (A) (A)
                 (A) (A) (A) (A) (A) (A) (A) (A) (A) (A) (A) (A)
                 (A) (A) (A) (A) (A) (A) (A) (A) (A) (A) (A) (A)
                 (A) (A) (A) (A) (A) (A) (A) (A) (A) (A) (A) (A)
                 (A) (A) (A) (A) (A) (A) (A) (A) (A) (A) (A) (A)
                 (A) (A) (A) (A) (A) (A) (A) (A) (A) (A) (A) (A)
                 (A) (A) (A) (A) (A) (A) (A) (A) (A) (A) (A) (A)
                 (A) (A) (A) (A) (A) (A) (A) (A) (A) (A) (A) (A)
                 (A) (A) (A) (A) (A) (A) (A) (A) (A) (A) (A) (A)
                 (A) (A) (A) (A) (A) (A) (A) (A) (A) (A) (A) (A)
                 (A) (A) (A) (A) (A) (A) (A) (A) (A) (A) (A) (A)
                 (A) (A) (A) (A) (A) (A) (A) (A) (A) (A) (A) (A)
                 (A) (A) (A) (A) (A) (A) (A) (A) (A) (A) (A) (A)
                 (A) (A) (A) (A) (A) (A) (A) (A) (A) (A) (A) (A)
                 (A) (A) (A) (A) (A) (A) (A) (A) (A) (A) (A) (A)
                 (A) (A) (A) (A) (A) (A) (A) (A) (A) (A) (A) (A)
                 (A) (A) (A) (A) (A) (A) (A) (A) (A) (A) (A) (A)
                 (A) (A) (A) (A) (A) (A) (A) (A) (A) (A) (A) (A)
                 (A) (A) (A) (A) (A) (A) (A) (A) (A) (A) (A) (A)
                 (A) (A) (A) (A) (A) (A) (A) (A) (A) (A) (A) (A)
                 (A) (A) (A) (A) (A) (A) (A) (A) (A) (A) (A) (A)
                 (A) (A) (A) (A) (A) (A) (A) (A) (A) (A) (A) (A)
                 (A) (A) (A) (A) (A) (A) (A) (A) (A) (A) (A) (A)
                 (A) (A) (A) (A) (A) (A) (A) (A) (A) (A) (A) (A)
                 (A) (A) (A) (A) (A) (A) (A) (A) (A) (A) (A) (A)
                 (A) (A) (A) (A) (A) (A) (A) (A) (A) (A) (A) (A)
                 (A) (A) (A) (A) (A) (A) (A) (A) (A) (A) (A) (A)
                 (A) (A) (A) (A) (A) (A) (A) (A) (A) (A) (A) (A)
                 (A) (A) (A) (A) (A) (A) (A) (A) (A) (A) (A) (A)
                 (A) (A) (A) (A) (A) (A) (A) (A) (A) (A) (A) (A)
                 (A) (A) (A) (A) (A) (A) (A) (A) (A) (A) (A) (A)
                 (A) (A) (A) (A) (A) (A) (A) (A) (A) (A) (A) (A)
                 (A) (A) (A) (A) (A) (A) (A) (A) (A) (A) (A) (A)
                 (A) (A) (A) (A) (A) (A) (A) (A) (A) (A) (A) (A)
                 (A) (A) (A) (A) (A) (A) (A) (A) (A) (A) (A) (A)
                 (A) (A) (A) (A) (A) (A) (A) (A) (A) (A) (A) (A)
                 (A) (A) (A) (A) (A) (A) (A) (A) (A) (A) (A) (A)
                 (A) (A) (A) (A) (A) (A) (A) (A) (A) (A) (A) (A)
                 (A) (A) (A) (A) (A) (A) (A) (A) (A) (A) (A) (A)
                 (A) (A) (A) (A) (A) (A) (A)
 The electronic state is 1-A.
 Alpha  occ. eigenvalues --  -19.24904 -19.21149 -19.20412 -14.53076 -14.51156
 Alpha  occ. eigenvalues --  -14.49552 -14.49003 -14.48165 -14.46959 -14.46601
 Alpha  occ. eigenvalues --  -14.46214 -14.45564 -14.44433 -14.44163 -14.43204
 Alpha  occ. eigenvalues --  -14.41986 -14.41404 -14.41109 -14.41071 -14.40988
 Alpha  occ. eigenvalues --  -10.44466 -10.40586 -10.40035 -10.39214 -10.38177
 Alpha  occ. eigenvalues --  -10.37957 -10.37354 -10.36874 -10.36115 -10.35857
 Alpha  occ. eigenvalues --  -10.34836 -10.34785 -10.34193 -10.33887 -10.33584
 Alpha  occ. eigenvalues --  -10.33153 -10.33147 -10.32766 -10.31580 -10.30011
 Alpha  occ. eigenvalues --  -10.29546 -10.29082 -10.28089  -1.18730  -1.15750
 Alpha  occ. eigenvalues --   -1.13466  -1.12167  -1.12136  -1.10652  -1.09504
 Alpha  occ. eigenvalues --   -1.08862  -1.08379  -1.05802  -1.05021  -1.01760
 Alpha  occ. eigenvalues --   -1.01475  -1.01430  -0.99904  -0.98846  -0.98273
 Alpha  occ. eigenvalues --   -0.97118  -0.96584  -0.93535  -0.90109  -0.88338
 Alpha  occ. eigenvalues --   -0.88182  -0.87009  -0.84396  -0.83607  -0.82562
 Alpha  occ. eigenvalues --   -0.81412  -0.78023  -0.77310  -0.75256  -0.74866
 Alpha  occ. eigenvalues --   -0.74072  -0.73474  -0.72523  -0.71843  -0.70780
 Alpha  occ. eigenvalues --   -0.68945  -0.67203  -0.67109  -0.65934  -0.65814
 Alpha  occ. eigenvalues --   -0.64669  -0.63666  -0.63258  -0.62831  -0.62530
 Alpha  occ. eigenvalues --   -0.62307  -0.61859  -0.61214  -0.60863  -0.59980
 Alpha  occ. eigenvalues --   -0.59044  -0.58933  -0.58486  -0.58049  -0.56973
 Alpha  occ. eigenvalues --   -0.56890  -0.56368  -0.55516  -0.54434  -0.54392
 Alpha  occ. eigenvalues --   -0.53991  -0.53805  -0.53375  -0.52984  -0.52523
 Alpha  occ. eigenvalues --   -0.52255  -0.51922  -0.51401  -0.50777  -0.50479
 Alpha  occ. eigenvalues --   -0.50281  -0.49829  -0.49633  -0.49075  -0.48941
 Alpha  occ. eigenvalues --   -0.48566  -0.48045  -0.47896  -0.47643  -0.46890
 Alpha  occ. eigenvalues --   -0.46809  -0.45867  -0.43963  -0.42831  -0.42013
 Alpha  occ. eigenvalues --   -0.41140  -0.40770  -0.38899  -0.38264  -0.37910
 Alpha  occ. eigenvalues --   -0.37702  -0.37198  -0.36191  -0.35737  -0.35602
 Alpha  occ. eigenvalues --   -0.35042  -0.34629  -0.33899  -0.33458  -0.32671
 Alpha  occ. eigenvalues --   -0.32290  -0.31886  -0.31819  -0.31487  -0.30793
 Alpha  occ. eigenvalues --   -0.29402  -0.29248  -0.27900  -0.23051
 Alpha virt. eigenvalues --    0.02776   0.04562   0.05207   0.06188   0.06940
 Alpha virt. eigenvalues --    0.09851   0.10572   0.10829   0.11076   0.12207
 Alpha virt. eigenvalues --    0.12918   0.13657   0.14101   0.14770   0.14959
 Alpha virt. eigenvalues --    0.16041   0.16705   0.17170   0.17809   0.18056
 Alpha virt. eigenvalues --    0.18619   0.18830   0.19677   0.19813   0.20088
 Alpha virt. eigenvalues --    0.20449   0.20717   0.21361   0.21698   0.22278
 Alpha virt. eigenvalues --    0.22408   0.22700   0.22846   0.23351   0.23754
 Alpha virt. eigenvalues --    0.24801   0.25363   0.25503   0.25679   0.26835
 Alpha virt. eigenvalues --    0.27361   0.27521   0.28636   0.28964   0.29264
 Alpha virt. eigenvalues --    0.29575   0.30012   0.30314   0.31082   0.31926
 Alpha virt. eigenvalues --    0.32152   0.32778   0.33269   0.33488   0.34063
 Alpha virt. eigenvalues --    0.34869   0.35251   0.35881   0.36268   0.36936
 Alpha virt. eigenvalues --    0.37219   0.37741   0.38144   0.38712   0.39310
 Alpha virt. eigenvalues --    0.39566   0.40269   0.40796   0.41662   0.41973
 Alpha virt. eigenvalues --    0.42926   0.43614   0.43888   0.44557   0.44768
 Alpha virt. eigenvalues --    0.45105   0.45520   0.46344   0.46436   0.47195
 Alpha virt. eigenvalues --    0.47904   0.48329   0.48724   0.49782   0.49972
 Alpha virt. eigenvalues --    0.50426   0.50641   0.51147   0.51527   0.51761
 Alpha virt. eigenvalues --    0.52062   0.52281   0.52472   0.53204   0.53601
 Alpha virt. eigenvalues --    0.54841   0.54911   0.55554   0.55988   0.56500
 Alpha virt. eigenvalues --    0.56839   0.56847   0.57736   0.57883   0.58104
 Alpha virt. eigenvalues --    0.58759   0.58938   0.59420   0.59639   0.60052
 Alpha virt. eigenvalues --    0.61086   0.61289   0.61299   0.61686   0.62116
 Alpha virt. eigenvalues --    0.62581   0.63483   0.63815   0.63986   0.64726
 Alpha virt. eigenvalues --    0.64970   0.65377   0.66161   0.66853   0.67066
 Alpha virt. eigenvalues --    0.67737   0.68129   0.68487   0.69077   0.69378
 Alpha virt. eigenvalues --    0.70015   0.70364   0.70519   0.70987   0.71424
 Alpha virt. eigenvalues --    0.71919   0.72082   0.72845   0.72960   0.73013
 Alpha virt. eigenvalues --    0.73109   0.73945   0.74401   0.74655   0.75040
 Alpha virt. eigenvalues --    0.75317   0.75806   0.76234   0.76399   0.76584
 Alpha virt. eigenvalues --    0.76734   0.77521   0.77684   0.78423   0.78872
 Alpha virt. eigenvalues --    0.79266   0.79457   0.79693   0.80145   0.80411
 Alpha virt. eigenvalues --    0.80610   0.81119   0.81790   0.81943   0.82334
 Alpha virt. eigenvalues --    0.82523   0.83132   0.83277   0.83503   0.83946
 Alpha virt. eigenvalues --    0.84634   0.85225   0.85539   0.86206   0.86629
 Alpha virt. eigenvalues --    0.86876   0.87455   0.87584   0.88507   0.88775
 Alpha virt. eigenvalues --    0.89417   0.90347   0.90579   0.90734   0.91414
 Alpha virt. eigenvalues --    0.91555   0.92026   0.92861   0.92913   0.93202
 Alpha virt. eigenvalues --    0.93808   0.94150   0.94752   0.95268   0.95892
 Alpha virt. eigenvalues --    0.96396   0.96731   0.97340   0.98099   0.98187
 Alpha virt. eigenvalues --    0.98876   0.99739   0.99833   1.00222   1.00297
 Alpha virt. eigenvalues --    1.01438   1.01688   1.02684   1.03249   1.04021
 Alpha virt. eigenvalues --    1.04089   1.04170   1.04669   1.04807   1.05119
 Alpha virt. eigenvalues --    1.06158   1.06684   1.07134   1.07956   1.08238
 Alpha virt. eigenvalues --    1.09285   1.09640   1.09917   1.10687   1.11292
 Alpha virt. eigenvalues --    1.11746   1.12216   1.12807   1.13063   1.13448
 Alpha virt. eigenvalues --    1.13664   1.14180   1.14842   1.14984   1.15471
 Alpha virt. eigenvalues --    1.15856   1.16630   1.16800   1.16884   1.17304
 Alpha virt. eigenvalues --    1.17852   1.18207   1.19250   1.19781   1.19905
 Alpha virt. eigenvalues --    1.20434   1.21270   1.21570   1.21843   1.22352
 Alpha virt. eigenvalues --    1.22720   1.23331   1.23491   1.23588   1.24118
 Alpha virt. eigenvalues --    1.24620   1.25276   1.25943   1.26081   1.27237
 Alpha virt. eigenvalues --    1.27674   1.28101   1.28568   1.29185   1.29430
 Alpha virt. eigenvalues --    1.29597   1.30377   1.30553   1.31338   1.32198
 Alpha virt. eigenvalues --    1.33081   1.33246   1.33655   1.34243   1.34665
 Alpha virt. eigenvalues --    1.35446   1.36187   1.36789   1.37390   1.38266
 Alpha virt. eigenvalues --    1.38535   1.39092   1.39765   1.40246   1.40761
 Alpha virt. eigenvalues --    1.41531   1.42088   1.43080   1.43303   1.44334
 Alpha virt. eigenvalues --    1.45070   1.45420   1.45775   1.47064   1.48142
 Alpha virt. eigenvalues --    1.48429   1.49174   1.50403   1.51255   1.52085
 Alpha virt. eigenvalues --    1.52820   1.53403   1.53872   1.54551   1.55072
 Alpha virt. eigenvalues --    1.55296   1.56035   1.57146   1.58212   1.58278
 Alpha virt. eigenvalues --    1.58886   1.59755   1.60638   1.61160   1.62172
 Alpha virt. eigenvalues --    1.62688   1.62921   1.63369   1.63726   1.64657
 Alpha virt. eigenvalues --    1.64720   1.65750   1.65973   1.66503   1.66882
 Alpha virt. eigenvalues --    1.68269   1.68354   1.68606   1.68930   1.69751
 Alpha virt. eigenvalues --    1.70369   1.70851   1.70975   1.71198   1.71799
 Alpha virt. eigenvalues --    1.72243   1.72776   1.72852   1.73146   1.73734
 Alpha virt. eigenvalues --    1.73907   1.74413   1.74946   1.74988   1.75392
 Alpha virt. eigenvalues --    1.76118   1.76462   1.76652   1.77024   1.77149
 Alpha virt. eigenvalues --    1.77797   1.78168   1.78602   1.78808   1.79682
 Alpha virt. eigenvalues --    1.79917   1.80574   1.81386   1.82161   1.82495
 Alpha virt. eigenvalues --    1.83125   1.83364   1.83673   1.84366   1.84687
 Alpha virt. eigenvalues --    1.85145   1.85643   1.86482   1.87119   1.87204
 Alpha virt. eigenvalues --    1.87504   1.87699   1.88179   1.88590   1.88945
 Alpha virt. eigenvalues --    1.89350   1.89987   1.90307   1.90715   1.90878
 Alpha virt. eigenvalues --    1.91313   1.91912   1.92925   1.93349   1.93690
 Alpha virt. eigenvalues --    1.93891   1.94531   1.95701   1.95946   1.96461
 Alpha virt. eigenvalues --    1.96630   1.97935   1.98311   1.98661   1.99571
 Alpha virt. eigenvalues --    1.99687   2.00186   2.00813   2.01829   2.02491
 Alpha virt. eigenvalues --    2.03128   2.03344   2.04173   2.04787   2.04883
 Alpha virt. eigenvalues --    2.05552   2.07007   2.08192   2.08749   2.09062
 Alpha virt. eigenvalues --    2.09365   2.09860   2.10898   2.11514   2.12205
 Alpha virt. eigenvalues --    2.13157   2.13259   2.13678   2.13976   2.14583
 Alpha virt. eigenvalues --    2.15969   2.16893   2.17370   2.17745   2.18754
 Alpha virt. eigenvalues --    2.19169   2.19369   2.19987   2.20454   2.21455
 Alpha virt. eigenvalues --    2.23154   2.23605   2.23990   2.24397   2.24874
 Alpha virt. eigenvalues --    2.25279   2.26797   2.27540   2.27815   2.28360
 Alpha virt. eigenvalues --    2.28426   2.28915   2.29010   2.29313   2.30006
 Alpha virt. eigenvalues --    2.31004   2.31676   2.32499   2.32942   2.33543
 Alpha virt. eigenvalues --    2.33778   2.34278   2.35310   2.35757   2.36326
 Alpha virt. eigenvalues --    2.37010   2.37722   2.38022   2.38283   2.38984
 Alpha virt. eigenvalues --    2.39972   2.40892   2.41135   2.41254   2.41917
 Alpha virt. eigenvalues --    2.42498   2.43028   2.43447   2.43878   2.44267
 Alpha virt. eigenvalues --    2.44796   2.45039   2.46264   2.46870   2.46962
 Alpha virt. eigenvalues --    2.47465   2.48134   2.48911   2.50919   2.51252
 Alpha virt. eigenvalues --    2.52492   2.53035   2.53187   2.54786   2.54975
 Alpha virt. eigenvalues --    2.55381   2.57028   2.57890   2.58857   2.59194
 Alpha virt. eigenvalues --    2.59875   2.61710   2.62559   2.62787   2.63385
 Alpha virt. eigenvalues --    2.63889   2.64404   2.65608   2.66311   2.66687
 Alpha virt. eigenvalues --    2.67339   2.67835   2.68252   2.68432   2.69111
 Alpha virt. eigenvalues --    2.69807   2.70667   2.72128   2.72315   2.72889
 Alpha virt. eigenvalues --    2.73506   2.73674   2.74965   2.75981   2.76544
 Alpha virt. eigenvalues --    2.76976   2.77684   2.78025   2.78579   2.79401
 Alpha virt. eigenvalues --    2.80391   2.81173   2.81366   2.82179   2.82264
 Alpha virt. eigenvalues --    2.82855   2.83658   2.83922   2.84268   2.85218
 Alpha virt. eigenvalues --    2.85915   2.86795   2.87127   2.87584   2.87777
 Alpha virt. eigenvalues --    2.89856   2.91015   2.92076   2.93363   2.94040
 Alpha virt. eigenvalues --    2.95406   2.95642   2.96005   2.97575   3.00128
 Alpha virt. eigenvalues --    3.00843   3.02465   3.02885   3.04343   3.06526
 Alpha virt. eigenvalues --    3.06716   3.07635   3.09935   3.11010   3.12343
 Alpha virt. eigenvalues --    3.13411   3.15403   3.17277   3.17681   3.18693
 Alpha virt. eigenvalues --    3.19655   3.20829   3.21686   3.22332   3.23755
 Alpha virt. eigenvalues --    3.24768   3.25895   3.32947   3.34338   3.44874
 Alpha virt. eigenvalues --    3.47456   3.48922   3.50775   3.52799   3.54610
 Alpha virt. eigenvalues --    3.55514   3.57590   3.60723   3.61621   3.65334
 Alpha virt. eigenvalues --    3.73130   3.76326   3.76687
          Condensed to atoms (all electrons):
 Mulliken charges:
               1
     1  N   -0.308127
     2  C    0.267901
     3  C    0.083005
     4  N   -0.241338
     5  C    0.127116
     6  H    0.025492
     7  N   -0.272800
     8  C    0.128017
     9  H   -0.001684
    10  N   -0.235981
    11  C    0.192544
    12  C    0.050996
    13  N   -0.043203
    14  H    0.110649
    15  H    0.085334
    16  H    0.013663
    17  H    0.018933
    18  H   -0.021321
    19  N   -0.290379
    20  C    0.196877
    21  C    0.185283
    22  N   -0.086242
    23  H    0.120216
    24  H    0.124010
    25  N   -0.230044
    26  C    0.114137
    27  N   -0.085727
    28  H    0.119022
    29  C    0.152049
    30  O   -0.320565
    31  C    0.028256
    32  N   -0.211501
    33  C    0.106170
    34  H    0.018777
    35  H    0.010814
    36  H    0.031940
    37  H    0.009762
    38  H   -0.039552
    39  H    0.042838
    40  H    0.078371
    41  H    0.023435
    42  C   -0.096165
    43  O   -0.269211
    44  C    0.169056
    45  H    0.128431
    46  N   -0.102506
    47  O   -0.341170
    48  C    0.298410
    49  H    0.038447
    50  C    0.159440
    51  C    0.102318
    52  N   -0.261699
    53  H    0.022164
    54  H    0.045684
    55  H    0.020399
    56  H    0.122900
    57  H    0.121379
    58  N   -0.060917
    59  C    0.119378
    60  C    0.223920
    61  N   -0.287609
    62  H    0.011538
    63  C    0.182010
    64  N   -0.303357
    65  H    0.038781
    66  C    0.128116
    67  N   -0.250387
    68  C    0.046035
    69  C    0.243856
    70  N   -0.326387
 Sum of Mulliken charges =  -0.00000
 Mulliken charges with hydrogens summed into heavy atoms:
               1
     1  N   -0.308127
     2  C    0.279177
     3  C    0.083005
     4  N   -0.241338
     5  C    0.152608
     7  N   -0.272800
     8  C    0.126333
    10  N   -0.235981
    11  C    0.192544
    12  C    0.050996
    13  N    0.152780
    19  N   -0.290379
    20  C    0.196877
    21  C    0.237799
    22  N    0.157985
    25  N   -0.230044
    26  C    0.114137
    27  N    0.033296
    29  C    0.152049
    30  O   -0.320565
    31  C    0.028256
    32  N   -0.211501
    33  C    0.124946
    42  C   -0.072731
    43  O   -0.269211
    44  C    0.169056
    46  N    0.025926
    47  O   -0.341170
    48  C    0.298410
    50  C    0.197887
    51  C    0.183975
    52  N   -0.261699
    58  N    0.183362
    59  C    0.119378
    60  C    0.223920
    61  N   -0.287609
    63  C    0.193549
    64  N   -0.303357
    66  C    0.166897
    67  N   -0.250387
    68  C    0.046035
    69  C    0.332103
    70  N   -0.326387
 Electronic spatial extent (au):  <R**2>=          21732.5669
 Charge=             -0.0000 electrons
 Dipole moment (field-independent basis, Debye):
    X=             -4.3244    Y=              6.9115    Z=             -4.8304  Tot=              9.4764
 Quadrupole moment (field-independent basis, Debye-Ang):
   XX=           -145.0058   YY=           -229.3062   ZZ=           -264.9280
   XY=            -11.5680   XZ=             -2.4133   YZ=             13.3673
 Traceless Quadrupole moment (field-independent basis, Debye-Ang):
   XX=             68.0742   YY=            -16.2262   ZZ=            -51.8479
   XY=            -11.5680   XZ=             -2.4133   YZ=             13.3673
 Octapole moment (field-independent basis, Debye-Ang**2):
  XXX=             88.2537  YYY=             41.0927  ZZZ=            -16.7444  XYY=            -79.4325
  XXY=            126.4670  XXZ=            -42.2212  XZZ=            -24.2662  YZZ=             39.5087
  YYZ=            -66.9344  XYZ=              5.6152
 Hexadecapole moment (field-independent basis, Debye-Ang**3):
 XXXX=         -16553.8097 YYYY=          -3043.5705 ZZZZ=          -3517.8690 XXXY=           -853.1328
 XXXZ=            -78.3554 YYYX=            121.8090 YYYZ=             92.3499 ZZZX=             -8.3609
 ZZZY=             76.5887 XXYY=          -3936.4115 XXZZ=          -4178.9469 YYZZ=          -1227.7780
 XXYZ=            -72.3427 YYXZ=            105.3319 ZZXY=            -49.9867
 N-N= 5.714046559637D+03 E-N=-1.620892501338D+04  KE= 2.038934194554D+03
 No NMR shielding tensors so no spin-rotation constants.
 Leave Link  601 at Thu Jan 25 16:00:40 2018, MaxMem=  4294967296 cpu:             101.6 elap:               3.5
 (Enter /share/apps/g16/l9999.exe)
 1\1\GINC-COMPUTE-0-3\SP\RwB97XD\CC-pVDZ\C23H27N17O3\SATYA\25-Jan-2018\
 0\\#p wb97xd/cc-pvdz sp scf=(maxcycles=20)\\Base pair stacking\\0,1\N,
 0,-2.48652,3.98013,-5.38885\C,0,-3.10311,5.23354,-4.91261\C,0,-2.06283
 ,1.85851,-5.78448\N,0,-1.05653,2.57874,-6.41167\C,0,-1.35207,3.82811,-
 6.14822\H,0,-0.77149,4.68705,-6.48601\N,0,-3.40924,0.09299,-4.98882\C,
 0,-4.1778,1.03291,-4.42896\H,0,-5.04047,0.66077,-3.87798\N,0,-4.04137,
 2.35727,-4.44744\C,0,-2.95164,2.7087,-5.14988\C,0,-2.32018,0.47881,-5.
 68895\N,0,-1.55175,-0.45796,-6.24855\H,0,-0.73582,-0.21808,-6.77575\H,
 0,-1.76531,-1.43093,-6.15993\H,0,-3.35253,5.80265,-5.69624\H,0,-3.9228
 7,5.02174,-4.38134\H,0,-2.4533,5.72914,-4.33631\N,0,-1.4943,3.86211,-2
 .80971\C,0,-1.88104,2.5491,-2.68928\C,0,-2.36392,5.03289,-2.5779\N,0,-
 4.32694,0.18656,-1.9838\H,0,-4.40318,-0.80967,-1.95309\H,0,-5.14834,0.
 7116,-1.75936\N,0,-3.11055,2.11142,-2.34174\C,0,-3.17542,0.79215,-2.31
 115\N,0,-2.11825,-0.03688,-2.59857\H,0,-2.25925,-1.03422,-2.54975\C,0,
 -0.84433,0.3915,-2.95842\O,0,0.04022,-0.43983,-3.19761\C,0,-0.75919,1.
 80651,-2.99558\N,0,0.31032,2.63661,-3.30214\C,0,-0.17145,3.84365,-3.17
 9\H,0,0.39693,4.75918,-3.34641\H,0,-2.4226,5.57734,-3.41393\H,0,-3.277
 38,4.72104,-2.31983\H,0,-1.9836,5.59221,-1.84215\H,0,-3.77935,-5.88198
 ,-2.75292\H,0,-3.05541,-5.95911,-1.14836\H,0,-3.78974,-4.45776,-1.7123
 1\H,0,0.88292,-6.17657,-3.90313\C,0,0.16681,-5.43712,-3.5445\O,0,1.541
 4,-3.57813,-4.07531\C,0,0.49578,-4.04681,-3.62609\H,0,-0.28315,-2.2061
 4,-3.18617\N,0,-0.47932,-3.19638,-3.14526\O,0,-2.49461,-2.72005,-2.213
 11\C,0,-1.69492,-3.54751,-2.61369\H,0,-1.30917,-6.85485,-2.94672\C,0,-
 1.01108,-5.81063,-3.03102\C,0,-3.22527,-5.32927,-2.00889\N,0,-1.93881,
 -4.90609,-2.56896\H,0,-5.7161,-7.42696,-4.08825\H,0,-5.21398,-6.18388,
 -3.15834\H,0,-4.56642,-7.66832,-2.95538\H,0,-0.34208,-3.67077,-7.56337
 \H,0,-0.54009,-5.35779,-7.72107\N,0,-0.80717,-4.50585,-7.2693\C,0,-1.7
 4212,-4.48539,-6.31713\C,0,-3.36865,-5.45047,-4.87326\N,0,-3.7071,-4.2
 9177,-4.28396\H,0,-3.20961,-2.30523,-4.36623\C,0,-2.99689,-3.28567,-4.
 79019\N,0,-2.06002,-3.30413,-5.74387\H,0,-3.44111,-8.62622,-5.47454\C,
 0,-3.22661,-7.55718,-5.46486\N,0,-2.34443,-6.96715,-6.23382\C,0,-2.424
 38,-5.63105,-5.86889\C,0,-4.92847,-7.02018,-3.62547\N,0,-3.88335,-6.69
 918,-4.61677\\Version=EM64L-G16RevA.03\State=1-A\HF=-2048.5381069\RMSD
 =5.456e-09\Dipole=-3.3368497,-1.6165507,0.3905782\Quadrupole=-33.85342
 15,50.66711,-16.8136885,8.302375,-13.8060883,-3.8672116\PG=C01 [X(C23H
 27N17O3)]\\@


 WHERE THERE IS MUCH DESIRE TO LEARN, THERE OF NECESSITY WILL BE
 MUCH ARGUING, MUCH WRITING, MANY OPINIONS; FOR OPINION IN GOOD MEN
 IS BUT KNOWLEDGE IN THE MAKING. -- JOHN MILTON.
 Job cpu time:       0 days  7 hours 22 minutes 12.8 seconds.
 Elapsed time:       0 days  0 hours 14 minutes 17.6 seconds.
 File lengths (MBytes):  RWF=    298 Int=      0 D2E=      0 Chk=     33 Scr=      1
 Normal termination of Gaussian 16 at Thu Jan 25 16:00:41 2018.
