 Entering Gaussian System, Link 0=g16
 Input=str5.20.0.0.com
 Output=str5.20.0.0.log
 Initial command:
 /share/apps/g16/l1.exe "/state/partition1/scr/Gau-6487.inp" -scrdir="/state/partition1/scr/"
 Entering Link 1 = /share/apps/g16/l1.exe PID=      6488.
  
 Copyright (c) 1988,1990,1992,1993,1995,1998,2003,2009,2016,
            Gaussian, Inc.  All Rights Reserved.
  
 This is part of the Gaussian(R) 16 program.  It is based on
 the Gaussian(R) 09 system (copyright 2009, Gaussian, Inc.),
 the Gaussian(R) 03 system (copyright 2003, Gaussian, Inc.),
 the Gaussian(R) 98 system (copyright 1998, Gaussian, Inc.),
 the Gaussian(R) 94 system (copyright 1995, Gaussian, Inc.),
 the Gaussian 92(TM) system (copyright 1992, Gaussian, Inc.),
 the Gaussian 90(TM) system (copyright 1990, Gaussian, Inc.),
 the Gaussian 88(TM) system (copyright 1988, Gaussian, Inc.),
 the Gaussian 86(TM) system (copyright 1986, Carnegie Mellon
 University), and the Gaussian 82(TM) system (copyright 1983,
 Carnegie Mellon University). Gaussian is a federally registered
 trademark of Gaussian, Inc.
  
 This software contains proprietary and confidential information,
 including trade secrets, belonging to Gaussian, Inc.
  
 This software is provided under written license and may be
 used, copied, transmitted, or stored only in accord with that
 written license.
  
 The following legend is applicable only to US Government
 contracts under FAR:
  
                    RESTRICTED RIGHTS LEGEND
  
 Use, reproduction and disclosure by the US Government is
 subject to restrictions as set forth in subparagraphs (a)
 and (c) of the Commercial Computer Software - Restricted
 Rights clause in FAR 52.227-19.
  
 Gaussian, Inc.
 340 Quinnipiac St., Bldg. 40, Wallingford CT 06492
  
  
 ---------------------------------------------------------------
 Warning -- This program may not be used in any manner that
 competes with the business of Gaussian, Inc. or will provide
 assistance to any competitor of Gaussian, Inc.  The licensee
 of this program is prohibited from giving any competitor of
 Gaussian, Inc. access to this program.  By using this program,
 the user acknowledges that Gaussian, Inc. is engaged in the
 business of creating and licensing software in the field of
 computational chemistry and represents and warrants to the
 licensee that it is not a competitor of Gaussian, Inc. and that
 it will not use this program in any manner prohibited above.
 ---------------------------------------------------------------
  

 Cite this work as:
 Gaussian 16, Revision A.03,
 M. J. Frisch, G. W. Trucks, H. B. Schlegel, G. E. Scuseria, 
 M. A. Robb, J. R. Cheeseman, G. Scalmani, V. Barone, 
 G. A. Petersson, H. Nakatsuji, X. Li, M. Caricato, A. V. Marenich, 
 J. Bloino, B. G. Janesko, R. Gomperts, B. Mennucci, H. P. Hratchian, 
 J. V. Ortiz, A. F. Izmaylov, J. L. Sonnenberg, D. Williams-Young, 
 F. Ding, F. Lipparini, F. Egidi, J. Goings, B. Peng, A. Petrone, 
 T. Henderson, D. Ranasinghe, V. G. Zakrzewski, J. Gao, N. Rega, 
 G. Zheng, W. Liang, M. Hada, M. Ehara, K. Toyota, R. Fukuda, 
 J. Hasegawa, M. Ishida, T. Nakajima, Y. Honda, O. Kitao, H. Nakai, 
 T. Vreven, K. Throssell, J. A. Montgomery, Jr., J. E. Peralta, 
 F. Ogliaro, M. J. Bearpark, J. J. Heyd, E. N. Brothers, K. N. Kudin, 
 V. N. Staroverov, T. A. Keith, R. Kobayashi, J. Normand, 
 K. Raghavachari, A. P. Rendell, J. C. Burant, S. S. Iyengar, 
 J. Tomasi, M. Cossi, J. M. Millam, M. Klene, C. Adamo, R. Cammi, 
 J. W. Ochterski, R. L. Martin, K. Morokuma, O. Farkas, 
 J. B. Foresman, and D. J. Fox, Gaussian, Inc., Wallingford CT, 2016.
 
 ******************************************
 Gaussian 16:  EM64L-G16RevA.03 25-Dec-2016
                25-Jan-2018 
 ******************************************
 %nprocshared=32
 Will use up to   32 processors via shared memory.
 %mem=32GB
 %chk=allatoms_t.chk
 ---------------------------------------
 #p wb97xd/cc-pvdz sp scf=(maxcycles=20)
 ---------------------------------------
 1/38=1,172=1/1;
 2/12=2,17=6,18=5,40=1/2;
 3/5=16,11=2,25=1,30=1,74=-58/1,2,3;
 4//1;
 5/5=2,7=20,38=5/2;
 6/7=2,8=2,9=2,10=2,28=1/1;
 99/5=1,9=1/99;
 Leave Link    1 at Thu Jan 25 14:29:02 2018, MaxMem=  4294967296 cpu:               2.7 elap:               0.1
 (Enter /share/apps/g16/l101.exe)
 ------------------
 Base pair stacking
 ------------------
 Symbolic Z-matrix:
 Charge =  0 Multiplicity = 1
 N                     2.11961   5.73099  -6.49988 
 C                     1.63406   6.97227  -7.13351 
 C                     2.42508   3.62031  -5.96226 
 N                     3.27933   4.35461  -5.15245 
 C                     3.0611    5.59683  -5.50876 
 H                     3.56387   6.46297  -5.07751 
 N                     1.26418   1.83762  -6.98073 
 C                     0.64504   2.76371  -7.72006 
 H                    -0.0818    2.379    -8.43418 
 N                     0.78828   4.08744  -7.70976 
 C                     1.70378   4.45499  -6.79806 
 C                     2.17989   2.23949  -6.0724 
 N                     2.79898   1.31654  -5.33343 
 H                     3.48394   1.56855  -4.64892 
 H                     2.59935   0.34228  -5.43878 
 H                     2.3991    7.44749  -7.56832 
 H                     0.94654   6.74823  -7.82361 
 H                     1.22631   7.56575  -6.4396 
 N                    -0.28317   4.84202  -3.60422 
 C                    -0.67078   3.52905  -3.72225 
 C                    -1.08678   6.00984  -4.01785 
 N                    -3.02427   1.16238  -4.6823 
 H                    -3.11282   0.16669  -4.67906 
 H                    -3.79288   1.68505  -5.05212 
 N                    -1.84147   3.08874  -4.23181 
 C                    -1.9246    1.77029  -4.2121 
 N                    -0.93788   0.94441  -3.73062 
 H                    -1.08776  -0.05254  -3.75501 
 C                     0.27468   1.37553  -3.20175 
 O                     1.09801   0.54694  -2.79395 
 C                     0.37857   2.7897   -3.21625 
 N                     1.40432   3.62176  -2.78916 
 C                     0.96832   4.82675  -3.03838 
 H                     1.52127   5.74297  -2.82846 
 H                    -0.58992   6.52944  -4.71209 
 H                    -1.95632   5.69603  -4.39691 
 H                    -1.26109   6.59398  -3.22589 
 H                    -2.17412  -4.9197   -4.74659 
 H                    -2.64867  -4.94321  -3.04986 
 H                    -2.83466  -3.46639  -3.99632 
 H                     2.13723  -5.19859  -2.62973 
 C                     1.36554  -4.45665  -2.83529 
 O                     2.77989  -2.59944  -2.41398 
 C                     1.68473  -3.06591  -2.72675 
 H                     0.82419  -1.22159  -2.94188 
 N                     0.63715  -2.21223  -3.00792 
 O                    -1.50179  -1.73037  -3.59948 
 C                    -0.64     -2.56061  -3.36995 
 H                    -0.16493  -5.87194  -3.28295 
 C                     0.12869  -4.82753  -3.18636 
 C                    -2.22049  -4.34013  -3.83664 
 N                    -0.86995  -3.91981  -3.45309 
 H                    -0.61088  -5.72229  -8.39991 
 H                    -1.33591  -4.36563  -7.85593 
 H                    -1.52775  -5.77238  -7.05073 
 H                     4.06752  -1.90172  -4.08931 
 H                     4.05822  -3.6062   -4.15826 
 N                     3.63067  -2.73941  -4.41729 
 C                     2.527    -2.70334  -5.16682 
 C                     0.73975  -3.65354  -6.41765 
 N                     0.18744  -2.47504  -6.7501 
 H                     0.50965  -0.47228  -6.45731 
 C                     0.89025  -1.46826  -6.23498 
 N                     1.9959   -1.50234  -5.48402 
 H                     1.07583  -6.8671   -6.30706 
 C                     1.18656  -5.78846  -6.1921 
 N                     2.14707  -5.20568  -5.51722 
 C                     1.87563  -3.85185  -5.65216 
 C                    -0.88873  -5.2169   -7.58298 
 N                     0.29935  -4.90913  -6.76339 
 
 ITRead=  0  0  0  0  0  0  0  0  0  0  0  0  0  0  0  0  0  0  0  0
 ITRead=  0  0  0  0  0  0  0  0  0  0  0  0  0  0  0  0  0  0  0  0
 ITRead=  0  0  0  0  0  0  0  0  0  0  0  0  0  0  0  0  0  0  0  0
 ITRead=  0  0  0  0  0  0  0  0  0  0
 MicOpt= -1 -1 -1 -1 -1 -1 -1 -1 -1 -1 -1 -1 -1 -1 -1 -1 -1 -1 -1 -1
 MicOpt= -1 -1 -1 -1 -1 -1 -1 -1 -1 -1 -1 -1 -1 -1 -1 -1 -1 -1 -1 -1
 MicOpt= -1 -1 -1 -1 -1 -1 -1 -1 -1 -1 -1 -1 -1 -1 -1 -1 -1 -1 -1 -1
 MicOpt= -1 -1 -1 -1 -1 -1 -1 -1 -1 -1
 NAtoms=     70 NQM=       70 NQMF=       0 NMMI=      0 NMMIF=      0
                NMic=       0 NMicF=      0.
                    Isotopes and Nuclear Properties:
 (Nuclear quadrupole moments (NQMom) in fm**2, nuclear magnetic moments (NMagM)
  in nuclear magnetons)

  Atom         1           2           3           4           5           6           7           8           9          10
 IAtWgt=          14          12          12          14          12           1          14          12           1          14
 AtmWgt=  14.0030740  12.0000000  12.0000000  14.0030740  12.0000000   1.0078250  14.0030740  12.0000000   1.0078250  14.0030740
 NucSpn=           2           0           0           2           0           1           2           0           1           2
 AtZEff=  -0.0000000  -0.0000000  -0.0000000  -0.0000000  -0.0000000  -0.0000000  -0.0000000  -0.0000000  -0.0000000  -0.0000000
 NQMom=    2.0440000   0.0000000   0.0000000   2.0440000   0.0000000   0.0000000   2.0440000   0.0000000   0.0000000   2.0440000
 NMagM=    0.4037610   0.0000000   0.0000000   0.4037610   0.0000000   2.7928460   0.4037610   0.0000000   2.7928460   0.4037610
 AtZNuc=   7.0000000   6.0000000   6.0000000   7.0000000   6.0000000   1.0000000   7.0000000   6.0000000   1.0000000   7.0000000

  Atom        11          12          13          14          15          16          17          18          19          20
 IAtWgt=          12          12          14           1           1           1           1           1          14          12
 AtmWgt=  12.0000000  12.0000000  14.0030740   1.0078250   1.0078250   1.0078250   1.0078250   1.0078250  14.0030740  12.0000000
 NucSpn=           0           0           2           1           1           1           1           1           2           0
 AtZEff=  -0.0000000  -0.0000000  -0.0000000  -0.0000000  -0.0000000  -0.0000000  -0.0000000  -0.0000000  -0.0000000  -0.0000000
 NQMom=    0.0000000   0.0000000   2.0440000   0.0000000   0.0000000   0.0000000   0.0000000   0.0000000   2.0440000   0.0000000
 NMagM=    0.0000000   0.0000000   0.4037610   2.7928460   2.7928460   2.7928460   2.7928460   2.7928460   0.4037610   0.0000000
 AtZNuc=   6.0000000   6.0000000   7.0000000   1.0000000   1.0000000   1.0000000   1.0000000   1.0000000   7.0000000   6.0000000

  Atom        21          22          23          24          25          26          27          28          29          30
 IAtWgt=          12          14           1           1          14          12          14           1          12          16
 AtmWgt=  12.0000000  14.0030740   1.0078250   1.0078250  14.0030740  12.0000000  14.0030740   1.0078250  12.0000000  15.9949146
 NucSpn=           0           2           1           1           2           0           2           1           0           0
 AtZEff=  -0.0000000  -0.0000000  -0.0000000  -0.0000000  -0.0000000  -0.0000000  -0.0000000  -0.0000000  -0.0000000  -0.0000000
 NQMom=    0.0000000   2.0440000   0.0000000   0.0000000   2.0440000   0.0000000   2.0440000   0.0000000   0.0000000   0.0000000
 NMagM=    0.0000000   0.4037610   2.7928460   2.7928460   0.4037610   0.0000000   0.4037610   2.7928460   0.0000000   0.0000000
 AtZNuc=   6.0000000   7.0000000   1.0000000   1.0000000   7.0000000   6.0000000   7.0000000   1.0000000   6.0000000   8.0000000

  Atom        31          32          33          34          35          36          37          38          39          40
 IAtWgt=          12          14          12           1           1           1           1           1           1           1
 AtmWgt=  12.0000000  14.0030740  12.0000000   1.0078250   1.0078250   1.0078250   1.0078250   1.0078250   1.0078250   1.0078250
 NucSpn=           0           2           0           1           1           1           1           1           1           1
 AtZEff=  -0.0000000  -0.0000000  -0.0000000  -0.0000000  -0.0000000  -0.0000000  -0.0000000  -0.0000000  -0.0000000  -0.0000000
 NQMom=    0.0000000   2.0440000   0.0000000   0.0000000   0.0000000   0.0000000   0.0000000   0.0000000   0.0000000   0.0000000
 NMagM=    0.0000000   0.4037610   0.0000000   2.7928460   2.7928460   2.7928460   2.7928460   2.7928460   2.7928460   2.7928460
 AtZNuc=   6.0000000   7.0000000   6.0000000   1.0000000   1.0000000   1.0000000   1.0000000   1.0000000   1.0000000   1.0000000

  Atom        41          42          43          44          45          46          47          48          49          50
 IAtWgt=           1          12          16          12           1          14          16          12           1          12
 AtmWgt=   1.0078250  12.0000000  15.9949146  12.0000000   1.0078250  14.0030740  15.9949146  12.0000000   1.0078250  12.0000000
 NucSpn=           1           0           0           0           1           2           0           0           1           0
 AtZEff=  -0.0000000  -0.0000000  -0.0000000  -0.0000000  -0.0000000  -0.0000000  -0.0000000  -0.0000000  -0.0000000  -0.0000000
 NQMom=    0.0000000   0.0000000   0.0000000   0.0000000   0.0000000   2.0440000   0.0000000   0.0000000   0.0000000   0.0000000
 NMagM=    2.7928460   0.0000000   0.0000000   0.0000000   2.7928460   0.4037610   0.0000000   0.0000000   2.7928460   0.0000000
 AtZNuc=   1.0000000   6.0000000   8.0000000   6.0000000   1.0000000   7.0000000   8.0000000   6.0000000   1.0000000   6.0000000

  Atom        51          52          53          54          55          56          57          58          59          60
 IAtWgt=          12          14           1           1           1           1           1          14          12          12
 AtmWgt=  12.0000000  14.0030740   1.0078250   1.0078250   1.0078250   1.0078250   1.0078250  14.0030740  12.0000000  12.0000000
 NucSpn=           0           2           1           1           1           1           1           2           0           0
 AtZEff=  -0.0000000  -0.0000000  -0.0000000  -0.0000000  -0.0000000  -0.0000000  -0.0000000  -0.0000000  -0.0000000  -0.0000000
 NQMom=    0.0000000   2.0440000   0.0000000   0.0000000   0.0000000   0.0000000   0.0000000   2.0440000   0.0000000   0.0000000
 NMagM=    0.0000000   0.4037610   2.7928460   2.7928460   2.7928460   2.7928460   2.7928460   0.4037610   0.0000000   0.0000000
 AtZNuc=   6.0000000   7.0000000   1.0000000   1.0000000   1.0000000   1.0000000   1.0000000   7.0000000   6.0000000   6.0000000

  Atom        61          62          63          64          65          66          67          68          69          70
 IAtWgt=          14           1          12          14           1          12          14          12          12          14
 AtmWgt=  14.0030740   1.0078250  12.0000000  14.0030740   1.0078250  12.0000000  14.0030740  12.0000000  12.0000000  14.0030740
 NucSpn=           2           1           0           2           1           0           2           0           0           2
 AtZEff=  -0.0000000  -0.0000000  -0.0000000  -0.0000000  -0.0000000  -0.0000000  -0.0000000  -0.0000000  -0.0000000  -0.0000000
 NQMom=    2.0440000   0.0000000   0.0000000   2.0440000   0.0000000   0.0000000   2.0440000   0.0000000   0.0000000   2.0440000
 NMagM=    0.4037610   2.7928460   0.0000000   0.4037610   2.7928460   0.0000000   0.4037610   0.0000000   0.0000000   0.4037610
 AtZNuc=   7.0000000   1.0000000   6.0000000   7.0000000   1.0000000   6.0000000   7.0000000   6.0000000   6.0000000   7.0000000
 Leave Link  101 at Thu Jan 25 14:29:02 2018, MaxMem=  4294967296 cpu:               7.7 elap:               0.3
 (Enter /share/apps/g16/l202.exe)
 Stoichiometry    C23H27N17O3
 Framework group  C1[X(C23H27N17O3)]
 Deg. of freedom   204
 Full point group                 C1      NOp   1
 Largest Abelian subgroup         C1      NOp   1
 Largest concise Abelian subgroup C1      NOp   1
                         Standard orientation:                         
 ---------------------------------------------------------------------
 Center     Atomic      Atomic             Coordinates (Angstroms)
 Number     Number       Type             X           Y           Z
 ---------------------------------------------------------------------
      1          7           0       -5.692621   -1.743616    0.334859
      2          6           0       -6.941139   -1.674542    1.118729
      3          6           0       -3.573411   -1.792561   -0.251546
      4          7           0       -4.303701   -1.902014   -1.426036
      5          6           0       -5.551221   -1.868143   -1.025737
      6          1           0       -6.416298   -1.930775   -1.686547
      7          7           0       -1.793823   -1.647051    1.289508
      8          6           0       -2.727179   -1.561688    2.243000
      9          1           0       -2.346599   -1.467568    3.259152
     10          7           0       -4.053827   -1.575085    2.130257
     11          6           0       -4.415826   -1.694123    0.842151
     12          6           0       -2.190243   -1.765976    0.003508
     13          7           0       -1.260036   -1.851307   -0.949707
     14          1           0       -1.507824   -1.940470   -1.915048
     15          1           0       -0.284313   -1.829042   -0.731528
     16          1           0       -7.473812   -2.508489    0.973907
     17          1           0       -6.721424   -1.584933    2.089714
     18          1           0       -7.477767   -0.883232    0.825730
     19          7           0       -4.541800    1.871375   -0.410737
     20          6           0       -3.220041    2.008653   -0.061208
     21          6           0       -5.690617    2.320217    0.401324
     22          7           0       -0.798879    3.078851    2.186988
     23          1           0        0.198679    3.080832    2.251214
     24          1           0       -1.303493    3.483046    2.950338
     25          7           0       -2.752477    2.572110    1.073666
     26          6           0       -1.432351    2.557774    1.125335
     27          7           0       -0.629681    2.032333    0.141896
     28          1           0        0.370569    2.064761    0.266056
     29          6           0       -1.089035    1.447672   -1.034129
     30          8           0       -0.279840    1.003345   -1.857848
     31          6           0       -2.505347    1.455723   -1.103941
     32          7           0       -3.361198    0.980865   -2.088279
     33          6           0       -4.555762    1.248515   -1.634863
     34          1           0       -5.484713    1.012278   -2.154980
     35          1           0       -6.268521    1.536439    0.626138
     36          1           0       -5.356562    2.739286    1.244563
     37          1           0       -6.223765    2.990222   -0.114090
     38          1           0        5.224917    1.955247    1.774689
     39          1           0        5.359272    3.381075    0.748235
     40          1           0        3.845393    3.038141    1.586055
     41          1           0        5.411296   -0.101701   -2.570520
     42          6           0        4.696677    0.422502   -1.935881
     43          8           0        2.799664   -0.287544   -3.170503
     44          6           0        3.300056    0.337979   -2.236093
     45          1           0        1.489450    1.001798   -1.550982
     46          7           0        2.482975    1.037633   -1.371157
     47          8           0        2.071817    2.367893    0.422876
     48          6           0        2.871540    1.782350   -0.285819
     49          1           0        6.156937    1.237171   -0.613104
     50          6           0        5.106367    1.141111   -0.884047
     51          6           0        4.696484    2.598868    1.087250
     52          7           0        4.233836    1.815400   -0.061607
     53          1           0        5.761315   -1.595565    3.655811
     54          1           0        4.470455   -0.597768    3.669546
     55          1           0        5.924795   -0.043818    3.177481
     56          1           0        1.955712   -2.286496   -2.677075
     57          1           0        3.652819   -2.440357   -2.598027
     58          7           0        2.794710   -2.208840   -2.138386
     59          6           0        2.771389   -1.814183   -0.863676
     60          6           0        3.737809   -1.268089    1.240969
     61          7           0        2.570782   -0.963591    1.832374
     62          1           0        0.573134   -0.893177    1.379562
     63          6           0        1.560401   -1.119966    0.979394
     64          7           0        1.581718   -1.515136   -0.297693
     65          1           0        6.933434   -1.683546    0.981115
     66          6           0        5.858264   -1.623355    0.809863
     67          7           0        5.267084   -1.910186   -0.324116
     68          6           0        3.922291   -1.689121   -0.064490
     69          6           0        5.312888   -0.834817    3.186589
     70          7           0        4.992914   -1.227700    1.800500
 ---------------------------------------------------------------------
 Rotational constants (GHZ):           0.1653331           0.0523764           0.0496695
 Leave Link  202 at Thu Jan 25 14:29:03 2018, MaxMem=  4294967296 cpu:               6.7 elap:               0.3
 (Enter /share/apps/g16/l301.exe)
 Standard basis: CC-pVDZ (5D, 7F)
 Ernie: Thresh=  0.10000D-02 Tol=  0.10000D-05 Strict=F.
 Ernie:  86 primitive shells out of 1081 were deleted.
 There are   780 symmetry adapted cartesian basis functions of A   symmetry.
 There are   737 symmetry adapted basis functions of A   symmetry.
   737 basis functions,  1608 primitive gaussians,   780 cartesian basis functions
   154 alpha electrons      154 beta electrons
       nuclear repulsion energy      5554.2526187100 Hartrees.
 IExCor= 4639 DFT=T Ex+Corr=wB97XD ExCW=0 ScaHFX=  1.000000
 ScaDFX=  1.000000  1.000000  1.000000  1.000000 ScalE2=  1.000000  1.000000
 IRadAn=      5 IRanWt=     -1 IRanGd=            0 ICorTp=0 IEmpDi=121
 HFx  wShort=  0.000000 wLong=  0.200000 cFull=  0.222036 cShort=  0.000000 cLong=  0.777964
 DFx  wShort=  0.000000 wLong=  0.200000 cFull=  0.000000 cShort=  0.000000 cLong=  1.000000
 NAtoms=   70 NActive=   70 NUniq=   70 SFac= 1.00D+00 NAtFMM=   60 NAOKFM=T Big=T
 Integral buffers will be    131072 words long.
 Raffenetti 2 integral format.
 Two-electron integral symmetry is turned on.
 R6Disp:  Grimme-D2 Dispersion energy=       -0.0735467200 Hartrees.
 Nuclear repulsion after empirical dispersion term =     5554.1790719900 Hartrees.
 Leave Link  301 at Thu Jan 25 14:29:03 2018, MaxMem=  4294967296 cpu:               5.5 elap:               0.2
 (Enter /share/apps/g16/l302.exe)
 NPDir=0 NMtPBC=     1 NCelOv=     1 NCel=       1 NClECP=     1 NCelD=      1
         NCelK=      1 NCelE2=     1 NClLst=     1 CellRange=     0.0.
 One-electron integrals computed using PRISM.
 One-electron integral symmetry used in STVInt
 NBasis=   737 RedAO= T EigKep=  6.43D-04  NBF=   737
 NBsUse=   737 1.00D-06 EigRej= -1.00D+00 NBFU=   737
 Precomputing XC quadrature grid using
 IXCGrd= 4 IRadAn=           5 IRanWt=          -1 IRanGd=           0 AccXCQ= 0.00D+00.
 Generated NRdTot=       0 NPtTot=           0 NUsed=           0 NTot=          32
 NSgBfM=   771   771   771   771   771 MxSgAt=    70 MxSgA2=    70.
 Leave Link  302 at Thu Jan 25 14:29:07 2018, MaxMem=  4294967296 cpu:             138.8 elap:               4.4
 (Enter /share/apps/g16/l303.exe)
 DipDrv:  MaxL=1.
 Leave Link  303 at Thu Jan 25 14:29:08 2018, MaxMem=  4294967296 cpu:              12.7 elap:               0.4
 (Enter /share/apps/g16/l401.exe)
 ExpMin= 1.22D-01 ExpMax= 1.17D+04 ExpMxC= 4.01D+02 IAcc=3 IRadAn=         5 AccDes= 0.00D+00
 Harris functional with IExCor= 4639 and IRadAn=       5 diagonalized for initial guess.
 HarFok:  IExCor= 4639 AccDes= 0.00D+00 IRadAn=         5 IDoV= 1 UseB2=F ITyADJ=14
 ICtDFT=  3500011 ScaDFX=  1.000000  1.000000  1.000000  1.000000
 FoFCou: FMM=F IPFlag=           0 FMFlag=      100000 FMFlg1=        2001
         NFxFlg=           0 DoJE=T BraDBF=F KetDBF=T FulRan=T
         wScrn=  0.000000 ICntrl=       500 IOpCl=  0 I1Cent=   200000004 NGrid=           0
         NMat0=    1 NMatS0=      1 NMatT0=    0 NMatD0=    1 NMtDS0=    0 NMtDT0=    0
 Petite list used in FoFCou.
 Harris En= -1963.83780653834    
 JPrj=0 DoOrth=F DoCkMO=F.
 Leave Link  401 at Thu Jan 25 14:29:20 2018, MaxMem=  4294967296 cpu:             403.1 elap:              12.6
 (Enter /share/apps/g16/l502.exe)
 Integral symmetry usage will be decided dynamically.
 Closed shell SCF:
 Using DIIS extrapolation, IDIIS=  1040.
 NGot=  4294967296 LenX=  4293717438 LenY=  4293108258
 Requested convergence on RMS density matrix=1.00D-08 within  20 cycles.
 Requested convergence on MAX density matrix=1.00D-06.
 Requested convergence on             energy=1.00D-06.
 No special actions if energy rises.
 Fock matrices will be formed incrementally for  20 cycles.
 Integral accuracy reduced to 1.0D-05 until final iterations.

 Cycle   1  Pass 0  IDiag  1:
 FoFJK:  IHMeth= 1 ICntrl=       0 DoSepK=T KAlg= 0 I1Cent=           0 FoldK=F
 IRaf=         1 NMat=       1 IRICut=       1 DoRegI=T DoRafI=F ISym2E= 0 IDoP0=0 IntGTp=1.
 FoFCou: FMM=T IPFlag=           0 FMFlag=      100000 FMFlg1=        2001
         NFxFlg=           0 DoJE=T BraDBF=F KetDBF=F FulRan=T
         wScrn=  0.000000 ICntrl=       500 IOpCl=  0 I1Cent=           0 NGrid=           0
         NMat0=    1 NMatS0=      1 NMatT0=    0 NMatD0=    1 NMtDS0=    0 NMtDT0=    0
 Symmetry not used in FoFCou.
 FMM levels:  10  Number of levels for PrismC:   9
 E= -2048.27410700891    
 DIIS: error= 2.26D-02 at cycle   1 NSaved=   1.
 NSaved= 1 IEnMin= 1 EnMin= -2048.27410700891     IErMin= 1 ErrMin= 2.26D-02
 ErrMax= 2.26D-02  0.00D+00 EMaxC= 1.00D-01 BMatC= 8.38D-01 BMatP= 8.38D-01
 IDIUse=3 WtCom= 7.74D-01 WtEn= 2.26D-01
 Coeff-Com:  0.100D+01
 Coeff-En:   0.100D+01
 Coeff:      0.100D+01
 Gap=     0.261 Goal=   None    Shift=    0.000
 GapD=    0.261 DampG=1.000 DampE=0.500 DampFc=0.5000 IDamp=-1.
 Damping current iteration by 5.00D-01
 RMSDP=1.60D-03 MaxDP=1.22D-01              OVMax= 1.72D-01

 Cycle   2  Pass 0  IDiag  1:
 RMSU=  8.02D-04    CP:  9.98D-01
 E= -2048.46783253350     Delta-E=       -0.193725524587 Rises=F Damp=T
 DIIS: error= 1.24D-02 at cycle   2 NSaved=   2.
 NSaved= 2 IEnMin= 2 EnMin= -2048.46783253350     IErMin= 2 ErrMin= 1.24D-02
 ErrMax= 1.24D-02  0.00D+00 EMaxC= 1.00D-01 BMatC= 1.47D-01 BMatP= 8.38D-01
 IDIUse=3 WtCom= 8.76D-01 WtEn= 1.24D-01
 Coeff-Com: -0.171D+00 0.117D+01
 Coeff-En:   0.000D+00 0.100D+01
 Coeff:     -0.150D+00 0.115D+01
 Gap=     0.354 Goal=   None    Shift=    0.000
 RMSDP=6.18D-04 MaxDP=3.31D-02 DE=-1.94D-01 OVMax= 1.17D-01

 Cycle   3  Pass 0  IDiag  1:
 RMSU=  6.13D-04    CP:  9.94D-01  1.08D+00
 E= -2048.64384390399     Delta-E=       -0.176011370495 Rises=F Damp=F
 DIIS: error= 6.06D-03 at cycle   3 NSaved=   3.
 NSaved= 3 IEnMin= 3 EnMin= -2048.64384390399     IErMin= 3 ErrMin= 6.06D-03
 ErrMax= 6.06D-03  0.00D+00 EMaxC= 1.00D-01 BMatC= 7.48D-02 BMatP= 1.47D-01
 IDIUse=3 WtCom= 9.39D-01 WtEn= 6.06D-02
 Coeff-Com: -0.232D+00 0.565D+00 0.668D+00
 Coeff-En:   0.000D+00 0.000D+00 0.100D+01
 Coeff:     -0.218D+00 0.530D+00 0.688D+00
 Gap=     0.276 Goal=   None    Shift=    0.000
 RMSDP=4.02D-04 MaxDP=2.86D-02 DE=-1.76D-01 OVMax= 7.19D-02

 Cycle   4  Pass 0  IDiag  1:
 RMSU=  2.23D-04    CP:  9.94D-01  1.39D+00  6.35D-01
 E= -2048.70092643518     Delta-E=       -0.057082531182 Rises=F Damp=F
 DIIS: error= 2.51D-03 at cycle   4 NSaved=   4.
 NSaved= 4 IEnMin= 4 EnMin= -2048.70092643518     IErMin= 4 ErrMin= 2.51D-03
 ErrMax= 2.51D-03  0.00D+00 EMaxC= 1.00D-01 BMatC= 1.06D-02 BMatP= 7.48D-02
 IDIUse=3 WtCom= 9.75D-01 WtEn= 2.51D-02
 Coeff-Com: -0.987D-01 0.191D+00 0.371D+00 0.536D+00
 Coeff-En:   0.000D+00 0.000D+00 0.724D-01 0.928D+00
 Coeff:     -0.962D-01 0.186D+00 0.364D+00 0.546D+00
 Gap=     0.278 Goal=   None    Shift=    0.000
 RMSDP=1.39D-04 MaxDP=1.11D-02 DE=-5.71D-02 OVMax= 1.94D-02

 Cycle   5  Pass 0  IDiag  1:
 RMSU=  6.19D-05    CP:  9.94D-01  1.36D+00  7.79D-01  6.27D-01
 E= -2048.70988987446     Delta-E=       -0.008963439282 Rises=F Damp=F
 DIIS: error= 4.16D-04 at cycle   5 NSaved=   5.
 NSaved= 5 IEnMin= 5 EnMin= -2048.70988987446     IErMin= 5 ErrMin= 4.16D-04
 ErrMax= 4.16D-04  0.00D+00 EMaxC= 1.00D-01 BMatC= 3.04D-04 BMatP= 1.06D-02
 IDIUse=3 WtCom= 9.96D-01 WtEn= 4.16D-03
 Coeff-Com: -0.255D-01 0.436D-01 0.117D+00 0.234D+00 0.632D+00
 Coeff-En:   0.000D+00 0.000D+00 0.000D+00 0.000D+00 0.100D+01
 Coeff:     -0.254D-01 0.434D-01 0.116D+00 0.233D+00 0.633D+00
 Gap=     0.278 Goal=   None    Shift=    0.000
 RMSDP=2.81D-05 MaxDP=1.93D-03 DE=-8.96D-03 OVMax= 3.95D-03

 Failed to achieve initial convergence to 1.0D-08 in  6 cycles.
 Switch to full accuracy anyway.
 Cycle   6  Pass 1  IDiag  1:
 E= -2048.71015920540     Delta-E=       -0.000269330943 Rises=F Damp=F
 DIIS: error= 4.10D-04 at cycle   1 NSaved=   1.
 NSaved= 1 IEnMin= 1 EnMin= -2048.71015920540     IErMin= 1 ErrMin= 4.10D-04
 ErrMax= 4.10D-04  0.00D+00 EMaxC= 1.00D-01 BMatC= 8.02D-05 BMatP= 8.02D-05
 IDIUse=3 WtCom= 9.96D-01 WtEn= 4.10D-03
 Coeff-Com:  0.100D+01
 Coeff-En:   0.100D+01
 Coeff:      0.100D+01
 Gap=     0.278 Goal=   None    Shift=    0.000
 RMSDP=2.81D-05 MaxDP=1.93D-03 DE=-2.69D-04 OVMax= 2.71D-03

 Cycle   7  Pass 1  IDiag  1:
 RMSU=  1.18D-04    CP:  1.00D+00
 E= -2048.71021824291     Delta-E=       -0.000059037515 Rises=F Damp=F
 DIIS: error= 2.01D-04 at cycle   2 NSaved=   2.
 NSaved= 2 IEnMin= 2 EnMin= -2048.71021824291     IErMin= 2 ErrMin= 2.01D-04
 ErrMax= 2.01D-04  0.00D+00 EMaxC= 1.00D-01 BMatC= 5.01D-05 BMatP= 8.02D-05
 IDIUse=3 WtCom= 9.98D-01 WtEn= 2.01D-03
 Coeff-Com:  0.422D+00 0.578D+00
 Coeff-En:   0.000D+00 0.100D+01
 Coeff:      0.421D+00 0.579D+00
 Gap=     0.278 Goal=   None    Shift=    0.000
 RMSDP=1.23D-05 MaxDP=1.32D-03 DE=-5.90D-05 OVMax= 1.69D-03

 Cycle   8  Pass 1  IDiag  1:
 RMSU=  1.20D-05    CP:  1.00D+00  1.02D+00
 E= -2048.71025501457     Delta-E=       -0.000036771654 Rises=F Damp=F
 DIIS: error= 9.44D-05 at cycle   3 NSaved=   3.
 NSaved= 3 IEnMin= 3 EnMin= -2048.71025501457     IErMin= 3 ErrMin= 9.44D-05
 ErrMax= 9.44D-05  0.00D+00 EMaxC= 1.00D-01 BMatC= 1.09D-05 BMatP= 5.01D-05
 IDIUse=1 WtCom= 1.00D+00 WtEn= 0.00D+00
 Coeff-Com: -0.176D-01 0.304D+00 0.714D+00
 Coeff:     -0.176D-01 0.304D+00 0.714D+00
 Gap=     0.278 Goal=   None    Shift=    0.000
 RMSDP=6.07D-06 MaxDP=5.44D-04 DE=-3.68D-05 OVMax= 8.46D-04

 Cycle   9  Pass 1  IDiag  1:
 RMSU=  4.26D-06    CP:  1.00D+00  1.05D+00  7.77D-01
 E= -2048.71026536697     Delta-E=       -0.000010352401 Rises=F Damp=F
 DIIS: error= 2.55D-05 at cycle   4 NSaved=   4.
 NSaved= 4 IEnMin= 4 EnMin= -2048.71026536697     IErMin= 4 ErrMin= 2.55D-05
 ErrMax= 2.55D-05  0.00D+00 EMaxC= 1.00D-01 BMatC= 6.42D-07 BMatP= 1.09D-05
 IDIUse=1 WtCom= 1.00D+00 WtEn= 0.00D+00
 Coeff-Com: -0.336D-01 0.864D-01 0.272D+00 0.675D+00
 Coeff:     -0.336D-01 0.864D-01 0.272D+00 0.675D+00
 Gap=     0.278 Goal=   None    Shift=    0.000
 RMSDP=1.72D-06 MaxDP=1.39D-04 DE=-1.04D-05 OVMax= 5.40D-04

 Cycle  10  Pass 1  IDiag  1:
 RMSU=  1.52D-06    CP:  1.00D+00  1.05D+00  8.15D-01  1.12D+00
 E= -2048.71026646675     Delta-E=       -0.000001099776 Rises=F Damp=F
 DIIS: error= 1.15D-05 at cycle   5 NSaved=   5.
 NSaved= 5 IEnMin= 5 EnMin= -2048.71026646675     IErMin= 5 ErrMin= 1.15D-05
 ErrMax= 1.15D-05  0.00D+00 EMaxC= 1.00D-01 BMatC= 1.75D-07 BMatP= 6.42D-07
 IDIUse=1 WtCom= 1.00D+00 WtEn= 0.00D+00
 Coeff-Com: -0.506D-02-0.517D-01-0.121D+00 0.235D+00 0.942D+00
 Coeff:     -0.506D-02-0.517D-01-0.121D+00 0.235D+00 0.942D+00
 Gap=     0.278 Goal=   None    Shift=    0.000
 RMSDP=1.44D-06 MaxDP=8.22D-05 DE=-1.10D-06 OVMax= 3.07D-04

 Cycle  11  Pass 1  IDiag  1:
 RMSU=  5.82D-07    CP:  1.00D+00  1.05D+00  8.25D-01  1.42D+00  1.18D+00
 E= -2048.71026684277     Delta-E=       -0.000000376027 Rises=F Damp=F
 DIIS: error= 5.40D-06 at cycle   6 NSaved=   6.
 NSaved= 6 IEnMin= 6 EnMin= -2048.71026684277     IErMin= 6 ErrMin= 5.40D-06
 ErrMax= 5.40D-06  0.00D+00 EMaxC= 1.00D-01 BMatC= 4.01D-08 BMatP= 1.75D-07
 IDIUse=1 WtCom= 1.00D+00 WtEn= 0.00D+00
 Coeff-Com:  0.528D-02-0.467D-01-0.131D+00 0.433D-03 0.511D+00 0.660D+00
 Coeff:      0.528D-02-0.467D-01-0.131D+00 0.433D-03 0.511D+00 0.660D+00
 Gap=     0.278 Goal=   None    Shift=    0.000
 RMSDP=5.26D-07 MaxDP=2.82D-05 DE=-3.76D-07 OVMax= 1.49D-04

 Cycle  12  Pass 1  IDiag  1:
 RMSU=  2.37D-07    CP:  1.00D+00  1.05D+00  8.28D-01  1.52D+00  1.33D+00
                    CP:  9.73D-01
 E= -2048.71026690826     Delta-E=       -0.000000065487 Rises=F Damp=F
 DIIS: error= 1.46D-06 at cycle   7 NSaved=   7.
 NSaved= 7 IEnMin= 7 EnMin= -2048.71026690826     IErMin= 7 ErrMin= 1.46D-06
 ErrMax= 1.46D-06  0.00D+00 EMaxC= 1.00D-01 BMatC= 1.34D-09 BMatP= 4.01D-08
 IDIUse=1 WtCom= 1.00D+00 WtEn= 0.00D+00
 Coeff-Com:  0.137D-02-0.780D-02-0.250D-01-0.661D-02 0.594D-01 0.145D+00
 Coeff-Com:  0.833D+00
 Coeff:      0.137D-02-0.780D-02-0.250D-01-0.661D-02 0.594D-01 0.145D+00
 Coeff:      0.833D+00
 Gap=     0.278 Goal=   None    Shift=    0.000
 RMSDP=1.17D-07 MaxDP=5.41D-06 DE=-6.55D-08 OVMax= 3.42D-05

 Cycle  13  Pass 1  IDiag  1:
 RMSU=  6.79D-08    CP:  1.00D+00  1.05D+00  8.27D-01  1.53D+00  1.35D+00
                    CP:  1.07D+00  1.15D+00
 E= -2048.71026691126     Delta-E=       -0.000000003002 Rises=F Damp=F
 DIIS: error= 9.13D-07 at cycle   8 NSaved=   8.
 NSaved= 8 IEnMin= 8 EnMin= -2048.71026691126     IErMin= 8 ErrMin= 9.13D-07
 ErrMax= 9.13D-07  0.00D+00 EMaxC= 1.00D-01 BMatC= 5.59D-10 BMatP= 1.34D-09
 IDIUse=1 WtCom= 1.00D+00 WtEn= 0.00D+00
 Coeff-Com: -0.919D-03 0.105D-01 0.267D-01-0.960D-03-0.127D+00-0.127D+00
 Coeff-Com:  0.424D+00 0.795D+00
 Coeff:     -0.919D-03 0.105D-01 0.267D-01-0.960D-03-0.127D+00-0.127D+00
 Coeff:      0.424D+00 0.795D+00
 Gap=     0.278 Goal=   None    Shift=    0.000
 RMSDP=7.33D-08 MaxDP=4.29D-06 DE=-3.00D-09 OVMax= 2.15D-05

 Cycle  14  Pass 1  IDiag  1:
 RMSU=  3.63D-08    CP:  1.00D+00  1.05D+00  8.27D-01  1.54D+00  1.36D+00
                    CP:  1.13D+00  1.34D+00  1.12D+00
 E= -2048.71026691230     Delta-E=       -0.000000001041 Rises=F Damp=F
 DIIS: error= 1.85D-07 at cycle   9 NSaved=   9.
 NSaved= 9 IEnMin= 9 EnMin= -2048.71026691230     IErMin= 9 ErrMin= 1.85D-07
 ErrMax= 1.85D-07  0.00D+00 EMaxC= 1.00D-01 BMatC= 4.44D-11 BMatP= 5.59D-10
 IDIUse=1 WtCom= 1.00D+00 WtEn= 0.00D+00
 Coeff-Com: -0.509D-03 0.507D-02 0.132D-01 0.660D-03-0.565D-01-0.662D-01
 Coeff-Com:  0.824D-01 0.297D+00 0.725D+00
 Coeff:     -0.509D-03 0.507D-02 0.132D-01 0.660D-03-0.565D-01-0.662D-01
 Coeff:      0.824D-01 0.297D+00 0.725D+00
 Gap=     0.278 Goal=   None    Shift=    0.000
 RMSDP=1.89D-08 MaxDP=8.73D-07 DE=-1.04D-09 OVMax= 5.57D-06

 Cycle  15  Pass 1  IDiag  1:
 RMSU=  1.12D-08    CP:  1.00D+00  1.05D+00  8.27D-01  1.54D+00  1.37D+00
                    CP:  1.14D+00  1.37D+00  1.26D+00  1.15D+00
 E= -2048.71026691219     Delta-E=        0.000000000110 Rises=F Damp=F
 DIIS: error= 8.75D-08 at cycle  10 NSaved=  10.
 NSaved=10 IEnMin= 9 EnMin= -2048.71026691230     IErMin=10 ErrMin= 8.75D-08
 ErrMax= 8.75D-08  0.00D+00 EMaxC= 1.00D-01 BMatC= 7.29D-12 BMatP= 4.44D-11
 IDIUse=1 WtCom= 1.00D+00 WtEn= 0.00D+00
 Coeff-Com:  0.173D-04-0.445D-03-0.108D-02 0.196D-03 0.686D-02 0.354D-02
 Coeff-Com: -0.526D-01-0.624D-01 0.258D+00 0.848D+00
 Coeff:      0.173D-04-0.445D-03-0.108D-02 0.196D-03 0.686D-02 0.354D-02
 Coeff:     -0.526D-01-0.624D-01 0.258D+00 0.848D+00
 Gap=     0.278 Goal=   None    Shift=    0.000
 RMSDP=9.00D-09 MaxDP=4.76D-07 DE= 1.10D-10 OVMax= 2.95D-06

 SCF Done:  E(RwB97XD) =  -2048.71026691     A.U. after   15 cycles
            NFock= 15  Conv=0.90D-08     -V/T= 2.0053
 KE= 2.037978643368D+03 PE=-1.588961493955D+04 EE= 6.248746957276D+03
 Leave Link  502 at Thu Jan 25 14:40:57 2018, MaxMem=  4294967296 cpu:           21532.7 elap:             696.3
 (Enter /share/apps/g16/l601.exe)
 Copying SCF densities to generalized density rwf, IOpCl= 0 IROHF=0.

 **********************************************************************

            Population analysis using the SCF density.

 **********************************************************************

 Orbital symmetries:
       Occupied  (A) (A) (A) (A) (A) (A) (A) (A) (A) (A) (A) (A)
                 (A) (A) (A) (A) (A) (A) (A) (A) (A) (A) (A) (A)
                 (A) (A) (A) (A) (A) (A) (A) (A) (A) (A) (A) (A)
                 (A) (A) (A) (A) (A) (A) (A) (A) (A) (A) (A) (A)
                 (A) (A) (A) (A) (A) (A) (A) (A) (A) (A) (A) (A)
                 (A) (A) (A) (A) (A) (A) (A) (A) (A) (A) (A) (A)
                 (A) (A) (A) (A) (A) (A) (A) (A) (A) (A) (A) (A)
                 (A) (A) (A) (A) (A) (A) (A) (A) (A) (A) (A) (A)
                 (A) (A) (A) (A) (A) (A) (A) (A) (A) (A) (A) (A)
                 (A) (A) (A) (A) (A) (A) (A) (A) (A) (A) (A) (A)
                 (A) (A) (A) (A) (A) (A) (A) (A) (A) (A) (A) (A)
                 (A) (A) (A) (A) (A) (A) (A) (A) (A) (A) (A) (A)
                 (A) (A) (A) (A) (A) (A) (A) (A) (A) (A)
       Virtual   (A) (A) (A) (A) (A) (A) (A) (A) (A) (A) (A) (A)
                 (A) (A) (A) (A) (A) (A) (A) (A) (A) (A) (A) (A)
                 (A) (A) (A) (A) (A) (A) (A) (A) (A) (A) (A) (A)
                 (A) (A) (A) (A) (A) (A) (A) (A) (A) (A) (A) (A)
                 (A) (A) (A) (A) (A) (A) (A) (A) (A) (A) (A) (A)
                 (A) (A) (A) (A) (A) (A) (A) (A) (A) (A) (A) (A)
                 (A) (A) (A) (A) (A) (A) (A) (A) (A) (A) (A) (A)
                 (A) (A) (A) (A) (A) (A) (A) (A) (A) (A) (A) (A)
                 (A) (A) (A) (A) (A) (A) (A) (A) (A) (A) (A) (A)
                 (A) (A) (A) (A) (A) (A) (A) (A) (A) (A) (A) (A)
                 (A) (A) (A) (A) (A) (A) (A) (A) (A) (A) (A) (A)
                 (A) (A) (A) (A) (A) (A) (A) (A) (A) (A) (A) (A)
                 (A) (A) (A) (A) (A) (A) (A) (A) (A) (A) (A) (A)
                 (A) (A) (A) (A) (A) (A) (A) (A) (A) (A) (A) (A)
                 (A) (A) (A) (A) (A) (A) (A) (A) (A) (A) (A) (A)
                 (A) (A) (A) (A) (A) (A) (A) (A) (A) (A) (A) (A)
                 (A) (A) (A) (A) (A) (A) (A) (A) (A) (A) (A) (A)
                 (A) (A) (A) (A) (A) (A) (A) (A) (A) (A) (A) (A)
                 (A) (A) (A) (A) (A) (A) (A) (A) (A) (A) (A) (A)
                 (A) (A) (A) (A) (A) (A) (A) (A) (A) (A) (A) (A)
                 (A) (A) (A) (A) (A) (A) (A) (A) (A) (A) (A) (A)
                 (A) (A) (A) (A) (A) (A) (A) (A) (A) (A) (A) (A)
                 (A) (A) (A) (A) (A) (A) (A) (A) (A) (A) (A) (A)
                 (A) (A) (A) (A) (A) (A) (A) (A) (A) (A) (A) (A)
                 (A) (A) (A) (A) (A) (A) (A) (A) (A) (A) (A) (A)
                 (A) (A) (A) (A) (A) (A) (A) (A) (A) (A) (A) (A)
                 (A) (A) (A) (A) (A) (A) (A) (A) (A) (A) (A) (A)
                 (A) (A) (A) (A) (A) (A) (A) (A) (A) (A) (A) (A)
                 (A) (A) (A) (A) (A) (A) (A) (A) (A) (A) (A) (A)
                 (A) (A) (A) (A) (A) (A) (A) (A) (A) (A) (A) (A)
                 (A) (A) (A) (A) (A) (A) (A) (A) (A) (A) (A) (A)
                 (A) (A) (A) (A) (A) (A) (A) (A) (A) (A) (A) (A)
                 (A) (A) (A) (A) (A) (A) (A) (A) (A) (A) (A) (A)
                 (A) (A) (A) (A) (A) (A) (A) (A) (A) (A) (A) (A)
                 (A) (A) (A) (A) (A) (A) (A) (A) (A) (A) (A) (A)
                 (A) (A) (A) (A) (A) (A) (A) (A) (A) (A) (A) (A)
                 (A) (A) (A) (A) (A) (A) (A) (A) (A) (A) (A) (A)
                 (A) (A) (A) (A) (A) (A) (A) (A) (A) (A) (A) (A)
                 (A) (A) (A) (A) (A) (A) (A) (A) (A) (A) (A) (A)
                 (A) (A) (A) (A) (A) (A) (A) (A) (A) (A) (A) (A)
                 (A) (A) (A) (A) (A) (A) (A) (A) (A) (A) (A) (A)
                 (A) (A) (A) (A) (A) (A) (A) (A) (A) (A) (A) (A)
                 (A) (A) (A) (A) (A) (A) (A) (A) (A) (A) (A) (A)
                 (A) (A) (A) (A) (A) (A) (A) (A) (A) (A) (A) (A)
                 (A) (A) (A) (A) (A) (A) (A) (A) (A) (A) (A) (A)
                 (A) (A) (A) (A) (A) (A) (A) (A) (A) (A) (A) (A)
                 (A) (A) (A) (A) (A) (A) (A) (A) (A) (A) (A) (A)
                 (A) (A) (A) (A) (A) (A) (A) (A) (A) (A) (A) (A)
                 (A) (A) (A) (A) (A) (A) (A)
 The electronic state is 1-A.
 Alpha  occ. eigenvalues --  -19.25505 -19.21811 -19.20786 -14.52196 -14.51670
 Alpha  occ. eigenvalues --  -14.49259 -14.48980 -14.47553 -14.47019 -14.46751
 Alpha  occ. eigenvalues --  -14.45527 -14.44381 -14.43215 -14.42852 -14.42344
 Alpha  occ. eigenvalues --  -14.42103 -14.41697 -14.41226 -14.40840 -14.40544
 Alpha  occ. eigenvalues --  -10.45146 -10.41314 -10.39660 -10.38397 -10.38049
 Alpha  occ. eigenvalues --  -10.37103 -10.37005 -10.36249 -10.35738 -10.35302
 Alpha  occ. eigenvalues --  -10.34779 -10.34464 -10.34409 -10.33792 -10.33507
 Alpha  occ. eigenvalues --  -10.33431 -10.33403 -10.31645 -10.31481 -10.31233
 Alpha  occ. eigenvalues --  -10.30488 -10.28891 -10.28218  -1.19134  -1.14351
 Alpha  occ. eigenvalues --   -1.13519  -1.13324  -1.11794  -1.10727  -1.09114
 Alpha  occ. eigenvalues --   -1.08679  -1.07735  -1.05350  -1.03417  -1.02330
 Alpha  occ. eigenvalues --   -1.00704  -0.99914  -0.99836  -0.98628  -0.97359
 Alpha  occ. eigenvalues --   -0.96711  -0.95468  -0.92966  -0.90601  -0.86704
 Alpha  occ. eigenvalues --   -0.85175  -0.84442  -0.84205  -0.83544  -0.82835
 Alpha  occ. eigenvalues --   -0.82673  -0.78567  -0.75917  -0.74746  -0.73742
 Alpha  occ. eigenvalues --   -0.73669  -0.73274  -0.73091  -0.71399  -0.69216
 Alpha  occ. eigenvalues --   -0.67478  -0.66649  -0.66263  -0.65587  -0.64428
 Alpha  occ. eigenvalues --   -0.63745  -0.63156  -0.62886  -0.62671  -0.61835
 Alpha  occ. eigenvalues --   -0.60614  -0.60546  -0.59377  -0.59186  -0.58459
 Alpha  occ. eigenvalues --   -0.58359  -0.58316  -0.57613  -0.56860  -0.56327
 Alpha  occ. eigenvalues --   -0.55839  -0.55636  -0.55524  -0.54527  -0.54244
 Alpha  occ. eigenvalues --   -0.53801  -0.53696  -0.53059  -0.52753  -0.52309
 Alpha  occ. eigenvalues --   -0.52179  -0.51972  -0.51820  -0.51262  -0.50619
 Alpha  occ. eigenvalues --   -0.50563  -0.50161  -0.49535  -0.49296  -0.48999
 Alpha  occ. eigenvalues --   -0.48813  -0.48483  -0.47770  -0.47501  -0.47307
 Alpha  occ. eigenvalues --   -0.47284  -0.46156  -0.45131  -0.43212  -0.41863
 Alpha  occ. eigenvalues --   -0.41403  -0.39729  -0.39222  -0.38160  -0.37607
 Alpha  occ. eigenvalues --   -0.37319  -0.37104  -0.36446  -0.35539  -0.34521
 Alpha  occ. eigenvalues --   -0.33934  -0.33649  -0.33592  -0.33260  -0.33085
 Alpha  occ. eigenvalues --   -0.32780  -0.32489  -0.31977  -0.31259  -0.30983
 Alpha  occ. eigenvalues --   -0.30664  -0.26975  -0.26499  -0.25090
 Alpha virt. eigenvalues --    0.02740   0.04691   0.07332   0.08281   0.09109
 Alpha virt. eigenvalues --    0.09361   0.09655   0.10687   0.11086   0.11894
 Alpha virt. eigenvalues --    0.12897   0.14024   0.14218   0.14632   0.14807
 Alpha virt. eigenvalues --    0.15985   0.16212   0.17488   0.17796   0.18509
 Alpha virt. eigenvalues --    0.19075   0.19183   0.19270   0.20217   0.20502
 Alpha virt. eigenvalues --    0.21252   0.21471   0.21704   0.22051   0.22286
 Alpha virt. eigenvalues --    0.22397   0.22659   0.22942   0.23531   0.23714
 Alpha virt. eigenvalues --    0.24026   0.24171   0.24606   0.25721   0.26361
 Alpha virt. eigenvalues --    0.26984   0.27563   0.27715   0.28052   0.28441
 Alpha virt. eigenvalues --    0.28748   0.29217   0.29836   0.30131   0.30519
 Alpha virt. eigenvalues --    0.31384   0.32162   0.32348   0.32974   0.33787
 Alpha virt. eigenvalues --    0.33992   0.34682   0.35090   0.35889   0.36303
 Alpha virt. eigenvalues --    0.36782   0.37641   0.37733   0.38066   0.39680
 Alpha virt. eigenvalues --    0.40228   0.40738   0.40854   0.42213   0.42223
 Alpha virt. eigenvalues --    0.42394   0.43070   0.43412   0.43794   0.44097
 Alpha virt. eigenvalues --    0.44979   0.45669   0.45929   0.46482   0.47223
 Alpha virt. eigenvalues --    0.47242   0.47413   0.48141   0.48676   0.49624
 Alpha virt. eigenvalues --    0.50276   0.50317   0.50543   0.51170   0.51600
 Alpha virt. eigenvalues --    0.52039   0.52557   0.52756   0.53223   0.53502
 Alpha virt. eigenvalues --    0.54290   0.54306   0.54611   0.54993   0.55090
 Alpha virt. eigenvalues --    0.55676   0.55900   0.56879   0.57295   0.57545
 Alpha virt. eigenvalues --    0.57979   0.58434   0.59231   0.59635   0.60391
 Alpha virt. eigenvalues --    0.60927   0.60955   0.61162   0.61406   0.61569
 Alpha virt. eigenvalues --    0.62126   0.62541   0.62907   0.63340   0.63679
 Alpha virt. eigenvalues --    0.64416   0.64600   0.64763   0.65587   0.65861
 Alpha virt. eigenvalues --    0.65973   0.66208   0.66706   0.67469   0.67785
 Alpha virt. eigenvalues --    0.68151   0.68801   0.68996   0.70001   0.70386
 Alpha virt. eigenvalues --    0.70912   0.71164   0.71708   0.72043   0.72544
 Alpha virt. eigenvalues --    0.73242   0.73614   0.73753   0.74011   0.74313
 Alpha virt. eigenvalues --    0.74552   0.74900   0.75290   0.75775   0.75912
 Alpha virt. eigenvalues --    0.76291   0.76523   0.76774   0.77009   0.77906
 Alpha virt. eigenvalues --    0.78148   0.78273   0.79002   0.79448   0.79733
 Alpha virt. eigenvalues --    0.80301   0.80374   0.80651   0.81095   0.81767
 Alpha virt. eigenvalues --    0.82246   0.82597   0.82942   0.83593   0.83662
 Alpha virt. eigenvalues --    0.83949   0.84254   0.85041   0.85544   0.85644
 Alpha virt. eigenvalues --    0.85895   0.86164   0.86797   0.87349   0.87957
 Alpha virt. eigenvalues --    0.88290   0.88693   0.88888   0.89077   0.89713
 Alpha virt. eigenvalues --    0.90441   0.91009   0.91374   0.91497   0.92556
 Alpha virt. eigenvalues --    0.92884   0.93561   0.93737   0.93891   0.94569
 Alpha virt. eigenvalues --    0.95291   0.95593   0.96302   0.96584   0.96752
 Alpha virt. eigenvalues --    0.97039   0.98027   0.98341   0.98463   0.99047
 Alpha virt. eigenvalues --    0.99102   0.99641   1.00512   1.00887   1.01430
 Alpha virt. eigenvalues --    1.01858   1.02050   1.02284   1.02903   1.03189
 Alpha virt. eigenvalues --    1.04516   1.04691   1.04997   1.05442   1.05816
 Alpha virt. eigenvalues --    1.06428   1.07498   1.07914   1.08059   1.09007
 Alpha virt. eigenvalues --    1.09252   1.10145   1.10315   1.10613   1.11605
 Alpha virt. eigenvalues --    1.11894   1.12531   1.12951   1.13322   1.13768
 Alpha virt. eigenvalues --    1.14471   1.14720   1.15416   1.15505   1.15835
 Alpha virt. eigenvalues --    1.15993   1.16547   1.16853   1.17421   1.17956
 Alpha virt. eigenvalues --    1.18545   1.19008   1.19763   1.20250   1.20574
 Alpha virt. eigenvalues --    1.21226   1.21478   1.21739   1.21896   1.22417
 Alpha virt. eigenvalues --    1.22736   1.23043   1.23294   1.23447   1.23773
 Alpha virt. eigenvalues --    1.24255   1.24299   1.25124   1.25380   1.25646
 Alpha virt. eigenvalues --    1.26929   1.27679   1.28580   1.28908   1.29018
 Alpha virt. eigenvalues --    1.30040   1.30710   1.31404   1.32466   1.32645
 Alpha virt. eigenvalues --    1.33351   1.33877   1.34769   1.35010   1.35526
 Alpha virt. eigenvalues --    1.36116   1.36373   1.37009   1.37279   1.37931
 Alpha virt. eigenvalues --    1.39167   1.40010   1.40475   1.40913   1.41226
 Alpha virt. eigenvalues --    1.42019   1.43262   1.43342   1.44892   1.45076
 Alpha virt. eigenvalues --    1.45849   1.46486   1.46975   1.47598   1.48308
 Alpha virt. eigenvalues --    1.49002   1.49843   1.50214   1.50311   1.52181
 Alpha virt. eigenvalues --    1.52393   1.52900   1.53559   1.54602   1.55054
 Alpha virt. eigenvalues --    1.55697   1.56009   1.57025   1.57287   1.57743
 Alpha virt. eigenvalues --    1.58490   1.59645   1.60054   1.60788   1.60953
 Alpha virt. eigenvalues --    1.61630   1.62302   1.62872   1.63740   1.64547
 Alpha virt. eigenvalues --    1.65247   1.65739   1.66117   1.66730   1.67845
 Alpha virt. eigenvalues --    1.67914   1.69040   1.69073   1.69229   1.69833
 Alpha virt. eigenvalues --    1.70521   1.71165   1.71445   1.71965   1.72023
 Alpha virt. eigenvalues --    1.72249   1.72796   1.73270   1.73394   1.74592
 Alpha virt. eigenvalues --    1.74773   1.75549   1.76131   1.76282   1.76302
 Alpha virt. eigenvalues --    1.76501   1.76807   1.77037   1.77864   1.78045
 Alpha virt. eigenvalues --    1.78745   1.78780   1.79023   1.79562   1.79847
 Alpha virt. eigenvalues --    1.80007   1.80448   1.80737   1.81146   1.81335
 Alpha virt. eigenvalues --    1.81748   1.81935   1.81981   1.82975   1.83510
 Alpha virt. eigenvalues --    1.84042   1.84101   1.84475   1.84922   1.85359
 Alpha virt. eigenvalues --    1.86004   1.86529   1.86624   1.87245   1.87765
 Alpha virt. eigenvalues --    1.88271   1.88960   1.89734   1.89989   1.90231
 Alpha virt. eigenvalues --    1.90717   1.91724   1.91960   1.92327   1.92456
 Alpha virt. eigenvalues --    1.92815   1.93336   1.93574   1.94235   1.94915
 Alpha virt. eigenvalues --    1.95527   1.96661   1.97009   1.97914   1.98567
 Alpha virt. eigenvalues --    1.99615   1.99880   2.00475   2.00728   2.01833
 Alpha virt. eigenvalues --    2.02457   2.03486   2.03875   2.04179   2.05142
 Alpha virt. eigenvalues --    2.05720   2.06033   2.07294   2.07704   2.07933
 Alpha virt. eigenvalues --    2.08086   2.08707   2.09136   2.09516   2.10027
 Alpha virt. eigenvalues --    2.11550   2.12293   2.12695   2.13132   2.14402
 Alpha virt. eigenvalues --    2.15391   2.15460   2.17901   2.18056   2.18688
 Alpha virt. eigenvalues --    2.20098   2.20185   2.21257   2.21599   2.21866
 Alpha virt. eigenvalues --    2.22843   2.23097   2.23666   2.23752   2.24354
 Alpha virt. eigenvalues --    2.24630   2.25758   2.26186   2.26594   2.27143
 Alpha virt. eigenvalues --    2.28197   2.28785   2.29246   2.29558   2.29582
 Alpha virt. eigenvalues --    2.29871   2.30850   2.31305   2.31502   2.32315
 Alpha virt. eigenvalues --    2.33179   2.33680   2.33934   2.34393   2.34633
 Alpha virt. eigenvalues --    2.34663   2.34943   2.36488   2.37177   2.37958
 Alpha virt. eigenvalues --    2.39391   2.39790   2.40361   2.41417   2.41702
 Alpha virt. eigenvalues --    2.42530   2.43215   2.43638   2.44581   2.45273
 Alpha virt. eigenvalues --    2.45520   2.46504   2.46617   2.47166   2.48398
 Alpha virt. eigenvalues --    2.48723   2.49893   2.50186   2.51658   2.52213
 Alpha virt. eigenvalues --    2.53772   2.54419   2.54750   2.56281   2.56896
 Alpha virt. eigenvalues --    2.57347   2.57669   2.59185   2.60093   2.60286
 Alpha virt. eigenvalues --    2.61384   2.61980   2.62151   2.63026   2.64603
 Alpha virt. eigenvalues --    2.64924   2.65124   2.65914   2.66368   2.66732
 Alpha virt. eigenvalues --    2.67143   2.67994   2.68659   2.68669   2.69670
 Alpha virt. eigenvalues --    2.70860   2.70949   2.71431   2.72180   2.73216
 Alpha virt. eigenvalues --    2.73506   2.74608   2.75242   2.76559   2.76699
 Alpha virt. eigenvalues --    2.77795   2.78331   2.78786   2.79292   2.80203
 Alpha virt. eigenvalues --    2.80881   2.81298   2.81575   2.81979   2.82405
 Alpha virt. eigenvalues --    2.82726   2.83016   2.83954   2.84661   2.84895
 Alpha virt. eigenvalues --    2.85599   2.86583   2.86738   2.86889   2.87633
 Alpha virt. eigenvalues --    2.88455   2.89088   2.90758   2.90921   2.93561
 Alpha virt. eigenvalues --    2.94528   2.96788   2.97703   2.98937   2.99388
 Alpha virt. eigenvalues --    3.00512   3.01051   3.02813   3.05260   3.06215
 Alpha virt. eigenvalues --    3.09425   3.10201   3.13548   3.14615   3.15279
 Alpha virt. eigenvalues --    3.15606   3.16301   3.17410   3.19121   3.21407
 Alpha virt. eigenvalues --    3.22919   3.23075   3.23939   3.27001   3.28029
 Alpha virt. eigenvalues --    3.46965   3.47267   3.47892   3.49919   3.51324
 Alpha virt. eigenvalues --    3.53072   3.55657   3.56087   3.57785   3.60247
 Alpha virt. eigenvalues --    3.62932   3.70756   3.75889
          Condensed to atoms (all electrons):
 Mulliken charges:
               1
     1  N   -0.307266
     2  C    0.179304
     3  C    0.037646
     4  N   -0.232747
     5  C    0.111534
     6  H    0.023872
     7  N   -0.292837
     8  C    0.137584
     9  H    0.012964
    10  N   -0.289386
    11  C    0.242729
    12  C    0.088758
    13  N   -0.038900
    14  H    0.115063
    15  H    0.091525
    16  H    0.028164
    17  H    0.035712
    18  H    0.019958
    19  N   -0.306065
    20  C    0.257045
    21  C    0.183689
    22  N   -0.124742
    23  H    0.117326
    24  H    0.119257
    25  N   -0.310693
    26  C    0.249162
    27  N   -0.148094
    28  H    0.118973
    29  C    0.193713
    30  O   -0.330782
    31  C   -0.027509
    32  N   -0.215175
    33  C    0.132886
    34  H    0.019418
    35  H    0.016876
    36  H    0.032431
    37  H    0.024916
    38  H    0.046198
    39  H    0.060261
    40  H    0.077328
    41  H    0.020970
    42  C   -0.057770
    43  O   -0.285023
    44  C    0.136921
    45  H    0.132907
    46  N   -0.107951
    47  O   -0.351592
    48  C    0.345672
    49  H    0.038660
    50  C    0.168668
    51  C    0.044866
    52  N   -0.281342
    53  H    0.034023
    54  H    0.040987
    55  H    0.022713
    56  H    0.123359
    57  H    0.112041
    58  N    0.008540
    59  C    0.048862
    60  C    0.240752
    61  N   -0.273221
    62  H    0.027430
    63  C    0.157688
    64  N   -0.295212
    65  H    0.031363
    66  C    0.114718
    67  N   -0.247127
    68  C    0.027046
    69  C    0.177960
    70  N   -0.307006
 Sum of Mulliken charges =  -0.00000
 Mulliken charges with hydrogens summed into heavy atoms:
               1
     1  N   -0.307266
     2  C    0.263138
     3  C    0.037646
     4  N   -0.232747
     5  C    0.135406
     7  N   -0.292837
     8  C    0.150548
    10  N   -0.289386
    11  C    0.242729
    12  C    0.088758
    13  N    0.167688
    19  N   -0.306065
    20  C    0.257045
    21  C    0.257912
    22  N    0.111841
    25  N   -0.310693
    26  C    0.249162
    27  N   -0.029120
    29  C    0.193713
    30  O   -0.330782
    31  C   -0.027509
    32  N   -0.215175
    33  C    0.152303
    42  C   -0.036799
    43  O   -0.285023
    44  C    0.136921
    46  N    0.024956
    47  O   -0.351592
    48  C    0.345672
    50  C    0.207328
    51  C    0.228653
    52  N   -0.281342
    58  N    0.243940
    59  C    0.048862
    60  C    0.240752
    61  N   -0.273221
    63  C    0.185118
    64  N   -0.295212
    66  C    0.146081
    67  N   -0.247127
    68  C    0.027046
    69  C    0.275683
    70  N   -0.307006
 Electronic spatial extent (au):  <R**2>=          22426.2748
 Charge=             -0.0000 electrons
 Dipole moment (field-independent basis, Debye):
    X=              4.2682    Y=              3.6131    Z=              6.3550  Tot=              8.4652
 Quadrupole moment (field-independent basis, Debye-Ang):
   XX=           -145.4470   YY=           -235.5328   ZZ=           -247.3060
   XY=              4.4753   XZ=             14.6912   YZ=             16.0238
 Traceless Quadrupole moment (field-independent basis, Debye-Ang):
   XX=             63.9816   YY=            -26.1042   ZZ=            -37.8774
   XY=              4.4753   XZ=             14.6912   YZ=             16.0238
 Octapole moment (field-independent basis, Debye-Ang**2):
  XXX=            -90.7175  YYY=             54.8395  ZZZ=             79.9671  XYY=             12.0004
  XXY=             55.0943  XXZ=            107.4126  XZZ=             79.4758  YZZ=              5.2376
  YYZ=             14.6627  XYZ=             -1.3319
 Hexadecapole moment (field-independent basis, Debye-Ang**3):
 XXXX=         -16220.7592 YYYY=          -4658.6524 ZZZZ=          -3361.2113 XXXY=            338.5796
 XXXZ=            611.8109 YYYX=             43.7099 YYYZ=            181.9854 ZZZX=            155.2150
 ZZZY=            215.3870 XXYY=          -4116.8301 XXZZ=          -3936.7215 YYZZ=          -1193.0672
 XXYZ=            -47.2758 YYXZ=             -8.8994 ZZXY=           -123.2758
 N-N= 5.554179071990D+03 E-N=-1.588961494276D+04  KE= 2.037978643368D+03
 No NMR shielding tensors so no spin-rotation constants.
 Leave Link  601 at Thu Jan 25 14:40:58 2018, MaxMem=  4294967296 cpu:              47.8 elap:               1.7
 (Enter /share/apps/g16/l9999.exe)
 1\1\GINC-COMPUTE-0-3\SP\RwB97XD\CC-pVDZ\C23H27N17O3\SATYA\25-Jan-2018\
 0\\#p wb97xd/cc-pvdz sp scf=(maxcycles=20)\\Base pair stacking\\0,1\N,
 0,2.11961,5.73099,-6.49988\C,0,1.63406,6.97227,-7.13351\C,0,2.42508,3.
 62031,-5.96226\N,0,3.27933,4.35461,-5.15245\C,0,3.0611,5.59683,-5.5087
 6\H,0,3.56387,6.46297,-5.07751\N,0,1.26418,1.83762,-6.98073\C,0,0.6450
 4,2.76371,-7.72006\H,0,-0.0818,2.379,-8.43418\N,0,0.78828,4.08744,-7.7
 0976\C,0,1.70378,4.45499,-6.79806\C,0,2.17989,2.23949,-6.0724\N,0,2.79
 898,1.31654,-5.33343\H,0,3.48394,1.56855,-4.64892\H,0,2.59935,0.34228,
 -5.43878\H,0,2.3991,7.44749,-7.56832\H,0,0.94654,6.74823,-7.82361\H,0,
 1.22631,7.56575,-6.4396\N,0,-0.28317,4.84202,-3.60422\C,0,-0.67078,3.5
 2905,-3.72225\C,0,-1.08678,6.00984,-4.01785\N,0,-3.02427,1.16238,-4.68
 23\H,0,-3.11282,0.16669,-4.67906\H,0,-3.79288,1.68505,-5.05212\N,0,-1.
 84147,3.08874,-4.23181\C,0,-1.9246,1.77029,-4.2121\N,0,-0.93788,0.9444
 1,-3.73062\H,0,-1.08776,-0.05254,-3.75501\C,0,0.27468,1.37553,-3.20175
 \O,0,1.09801,0.54694,-2.79395\C,0,0.37857,2.7897,-3.21625\N,0,1.40432,
 3.62176,-2.78916\C,0,0.96832,4.82675,-3.03838\H,0,1.52127,5.74297,-2.8
 2846\H,0,-0.58992,6.52944,-4.71209\H,0,-1.95632,5.69603,-4.39691\H,0,-
 1.26109,6.59398,-3.22589\H,0,-2.17412,-4.9197,-4.74659\H,0,-2.64867,-4
 .94321,-3.04986\H,0,-2.83466,-3.46639,-3.99632\H,0,2.13723,-5.19859,-2
 .62973\C,0,1.36554,-4.45665,-2.83529\O,0,2.77989,-2.59944,-2.41398\C,0
 ,1.68473,-3.06591,-2.72675\H,0,0.82419,-1.22159,-2.94188\N,0,0.63715,-
 2.21223,-3.00792\O,0,-1.50179,-1.73037,-3.59948\C,0,-0.64,-2.56061,-3.
 36995\H,0,-0.16493,-5.87194,-3.28295\C,0,0.12869,-4.82753,-3.18636\C,0
 ,-2.22049,-4.34013,-3.83664\N,0,-0.86995,-3.91981,-3.45309\H,0,-0.6108
 8,-5.72229,-8.39991\H,0,-1.33591,-4.36563,-7.85593\H,0,-1.52775,-5.772
 38,-7.05073\H,0,4.06752,-1.90172,-4.08931\H,0,4.05822,-3.6062,-4.15826
 \N,0,3.63067,-2.73941,-4.41729\C,0,2.527,-2.70334,-5.16682\C,0,0.73975
 ,-3.65354,-6.41765\N,0,0.18744,-2.47504,-6.7501\H,0,0.50965,-0.47228,-
 6.45731\C,0,0.89025,-1.46826,-6.23498\N,0,1.9959,-1.50234,-5.48402\H,0
 ,1.07583,-6.8671,-6.30706\C,0,1.18656,-5.78846,-6.1921\N,0,2.14707,-5.
 20568,-5.51722\C,0,1.87563,-3.85185,-5.65216\C,0,-0.88873,-5.2169,-7.5
 8298\N,0,0.29935,-4.90913,-6.76339\\Version=EM64L-G16RevA.03\State=1-A
 \HF=-2048.7102669\RMSD=9.003e-09\Dipole=-2.7499288,-1.6051228,-0.97640
 08\Quadrupole=-10.1933718,47.0070378,-36.813666,12.0590533,-2.0348076,
 2.139196\PG=C01 [X(C23H27N17O3)]\\@


 HE WHO LAUGHS LAST PROBABLY DIDN'T GET THE JOKE.
 Job cpu time:       0 days  6 hours  9 minutes 20.2 seconds.
 Elapsed time:       0 days  0 hours 11 minutes 56.4 seconds.
 File lengths (MBytes):  RWF=    298 Int=      0 D2E=      0 Chk=     33 Scr=      1
 Normal termination of Gaussian 16 at Thu Jan 25 14:40:59 2018.
