 Entering Gaussian System, Link 0=g16
 Input=str5.20.1.5.com
 Output=str5.20.1.5.log
 Initial command:
 /share/apps/g16/l1.exe "/state/partition1/scr/Gau-20008.inp" -scrdir="/state/partition1/scr/"
 Entering Link 1 = /share/apps/g16/l1.exe PID=     20009.
  
 Copyright (c) 1988,1990,1992,1993,1995,1998,2003,2009,2016,
            Gaussian, Inc.  All Rights Reserved.
  
 This is part of the Gaussian(R) 16 program.  It is based on
 the Gaussian(R) 09 system (copyright 2009, Gaussian, Inc.),
 the Gaussian(R) 03 system (copyright 2003, Gaussian, Inc.),
 the Gaussian(R) 98 system (copyright 1998, Gaussian, Inc.),
 the Gaussian(R) 94 system (copyright 1995, Gaussian, Inc.),
 the Gaussian 92(TM) system (copyright 1992, Gaussian, Inc.),
 the Gaussian 90(TM) system (copyright 1990, Gaussian, Inc.),
 the Gaussian 88(TM) system (copyright 1988, Gaussian, Inc.),
 the Gaussian 86(TM) system (copyright 1986, Carnegie Mellon
 University), and the Gaussian 82(TM) system (copyright 1983,
 Carnegie Mellon University). Gaussian is a federally registered
 trademark of Gaussian, Inc.
  
 This software contains proprietary and confidential information,
 including trade secrets, belonging to Gaussian, Inc.
  
 This software is provided under written license and may be
 used, copied, transmitted, or stored only in accord with that
 written license.
  
 The following legend is applicable only to US Government
 contracts under FAR:
  
                    RESTRICTED RIGHTS LEGEND
  
 Use, reproduction and disclosure by the US Government is
 subject to restrictions as set forth in subparagraphs (a)
 and (c) of the Commercial Computer Software - Restricted
 Rights clause in FAR 52.227-19.
  
 Gaussian, Inc.
 340 Quinnipiac St., Bldg. 40, Wallingford CT 06492
  
  
 ---------------------------------------------------------------
 Warning -- This program may not be used in any manner that
 competes with the business of Gaussian, Inc. or will provide
 assistance to any competitor of Gaussian, Inc.  The licensee
 of this program is prohibited from giving any competitor of
 Gaussian, Inc. access to this program.  By using this program,
 the user acknowledges that Gaussian, Inc. is engaged in the
 business of creating and licensing software in the field of
 computational chemistry and represents and warrants to the
 licensee that it is not a competitor of Gaussian, Inc. and that
 it will not use this program in any manner prohibited above.
 ---------------------------------------------------------------
  

 Cite this work as:
 Gaussian 16, Revision A.03,
 M. J. Frisch, G. W. Trucks, H. B. Schlegel, G. E. Scuseria, 
 M. A. Robb, J. R. Cheeseman, G. Scalmani, V. Barone, 
 G. A. Petersson, H. Nakatsuji, X. Li, M. Caricato, A. V. Marenich, 
 J. Bloino, B. G. Janesko, R. Gomperts, B. Mennucci, H. P. Hratchian, 
 J. V. Ortiz, A. F. Izmaylov, J. L. Sonnenberg, D. Williams-Young, 
 F. Ding, F. Lipparini, F. Egidi, J. Goings, B. Peng, A. Petrone, 
 T. Henderson, D. Ranasinghe, V. G. Zakrzewski, J. Gao, N. Rega, 
 G. Zheng, W. Liang, M. Hada, M. Ehara, K. Toyota, R. Fukuda, 
 J. Hasegawa, M. Ishida, T. Nakajima, Y. Honda, O. Kitao, H. Nakai, 
 T. Vreven, K. Throssell, J. A. Montgomery, Jr., J. E. Peralta, 
 F. Ogliaro, M. J. Bearpark, J. J. Heyd, E. N. Brothers, K. N. Kudin, 
 V. N. Staroverov, T. A. Keith, R. Kobayashi, J. Normand, 
 K. Raghavachari, A. P. Rendell, J. C. Burant, S. S. Iyengar, 
 J. Tomasi, M. Cossi, J. M. Millam, M. Klene, C. Adamo, R. Cammi, 
 J. W. Ochterski, R. L. Martin, K. Morokuma, O. Farkas, 
 J. B. Foresman, and D. J. Fox, Gaussian, Inc., Wallingford CT, 2016.
 
 ******************************************
 Gaussian 16:  EM64L-G16RevA.03 25-Dec-2016
                25-Jan-2018 
 ******************************************
 %nprocshared=32
 Will use up to   32 processors via shared memory.
 %mem=32GB
 %chk=allatoms_t.chk
 ---------------------------------------
 #p wb97xd/cc-pvdz sp scf=(maxcycles=20)
 ---------------------------------------
 1/38=1,172=1/1;
 2/12=2,17=6,18=5,40=1/2;
 3/5=16,11=2,25=1,30=1,74=-58/1,2,3;
 4//1;
 5/5=2,7=20,38=5/2;
 6/7=2,8=2,9=2,10=2,28=1/1;
 99/5=1,9=1/99;
 Leave Link    1 at Thu Jan 25 17:03:56 2018, MaxMem=  4294967296 cpu:               2.7 elap:               0.1
 (Enter /share/apps/g16/l101.exe)
 ------------------
 Base pair stacking
 ------------------
 Symbolic Z-matrix:
 Charge =  0 Multiplicity = 1
 N                     1.87144   2.79046  -6.56568 
 C                     1.3859    4.03174  -7.19931 
 C                     2.17691   0.67978  -6.02806 
 N                     3.03116   1.41408  -5.21825 
 C                     2.81294   2.6563   -5.57456 
 H                     3.3157    3.52244  -5.14331 
 N                     1.01601  -1.10291  -7.04653 
 C                     0.39688  -0.17682  -7.78586 
 H                    -0.32997  -0.56153  -8.49998 
 N                     0.54012   1.14692  -7.77556 
 C                     1.45562   1.51446  -6.86386 
 C                     1.93172  -0.70104  -6.1382 
 N                     2.55082  -1.62398  -5.39923 
 H                     3.23577  -1.37198  -4.71472 
 H                     2.35119  -2.59825  -5.50458 
 H                     2.15094   4.50696  -7.63412 
 H                     0.69837   3.8077   -7.88941 
 H                     0.97814   4.62523  -6.5054 
 N                    -0.34726   3.3662   -3.61526 
 C                    -0.73487   2.05323  -3.73328 
 C                    -1.15087   4.53403  -4.02889 
 N                    -3.08835  -0.31344  -4.69334 
 H                    -3.17691  -1.30912  -4.69009 
 H                    -3.85697   0.20923  -5.06315 
 N                    -1.90556   1.61292  -4.24285 
 C                    -1.98869   0.29447  -4.22313 
 N                    -1.00197  -0.53141  -3.74165 
 H                    -1.15185  -1.52836  -3.76604 
 C                     0.21059  -0.10029  -3.21278 
 O                     1.03392  -0.92888  -2.80498 
 C                     0.31448   1.31388  -3.22728 
 N                     1.34023   2.14594  -2.80019 
 C                     0.90424   3.35093  -3.04941 
 H                     1.45718   4.26715  -2.83949 
 H                    -0.65401   5.05362  -4.72312 
 H                    -2.02041   4.22021  -4.40794 
 H                    -1.32518   5.11816  -3.23692 
 H                    -2.2382   -6.39552  -4.75762 
 H                    -2.71276  -6.41903  -3.06089 
 H                    -2.89875  -4.94221  -4.00735 
 H                     2.07314  -6.67441  -2.64076 
 C                     1.30145  -5.93247  -2.84632 
 O                     2.7158   -4.07526  -2.42501 
 C                     1.62064  -4.54172  -2.73778 
 H                     0.7601   -2.69741  -2.95292 
 N                     0.57306  -3.68805  -3.01895 
 O                    -1.56588  -3.20619  -3.61051 
 C                    -0.70409  -4.03643  -3.38098 
 H                    -0.22902  -7.34776  -3.29398 
 C                     0.0646   -6.30334  -3.19739 
 C                    -2.28458  -5.81595  -3.84767 
 N                    -0.93403  -5.39563  -3.46412 
 H                    -0.85905  -8.66282  -8.46571 
 H                    -1.58408  -7.30616  -7.92173 
 H                    -1.77591  -8.71291  -7.11653 
 H                     3.81936  -4.84225  -4.15511 
 H                     3.81005  -6.54673  -4.22406 
 N                     3.3825   -5.67994  -4.48309 
 C                     2.27884  -5.64387  -5.23262 
 C                     0.49158  -6.59407  -6.48345 
 N                    -0.06073  -5.41557  -6.8159 
 H                     0.26149  -3.41281  -6.52312 
 C                     0.64208  -4.40879  -6.30078 
 N                     1.74774  -4.44287  -5.54982 
 H                     0.82766  -9.80763  -6.37286 
 C                     0.93839  -8.72899  -6.2579 
 N                     1.89891  -8.1462   -5.58302 
 C                     1.62746  -6.79238  -5.71796 
 C                    -1.1369   -8.15743  -7.64878 
 N                     0.05119  -7.84966  -6.82919 
 
 ITRead=  0  0  0  0  0  0  0  0  0  0  0  0  0  0  0  0  0  0  0  0
 ITRead=  0  0  0  0  0  0  0  0  0  0  0  0  0  0  0  0  0  0  0  0
 ITRead=  0  0  0  0  0  0  0  0  0  0  0  0  0  0  0  0  0  0  0  0
 ITRead=  0  0  0  0  0  0  0  0  0  0
 MicOpt= -1 -1 -1 -1 -1 -1 -1 -1 -1 -1 -1 -1 -1 -1 -1 -1 -1 -1 -1 -1
 MicOpt= -1 -1 -1 -1 -1 -1 -1 -1 -1 -1 -1 -1 -1 -1 -1 -1 -1 -1 -1 -1
 MicOpt= -1 -1 -1 -1 -1 -1 -1 -1 -1 -1 -1 -1 -1 -1 -1 -1 -1 -1 -1 -1
 MicOpt= -1 -1 -1 -1 -1 -1 -1 -1 -1 -1
 NAtoms=     70 NQM=       70 NQMF=       0 NMMI=      0 NMMIF=      0
                NMic=       0 NMicF=      0.
                    Isotopes and Nuclear Properties:
 (Nuclear quadrupole moments (NQMom) in fm**2, nuclear magnetic moments (NMagM)
  in nuclear magnetons)

  Atom         1           2           3           4           5           6           7           8           9          10
 IAtWgt=          14          12          12          14          12           1          14          12           1          14
 AtmWgt=  14.0030740  12.0000000  12.0000000  14.0030740  12.0000000   1.0078250  14.0030740  12.0000000   1.0078250  14.0030740
 NucSpn=           2           0           0           2           0           1           2           0           1           2
 AtZEff=  -0.0000000  -0.0000000  -0.0000000  -0.0000000  -0.0000000  -0.0000000  -0.0000000  -0.0000000  -0.0000000  -0.0000000
 NQMom=    2.0440000   0.0000000   0.0000000   2.0440000   0.0000000   0.0000000   2.0440000   0.0000000   0.0000000   2.0440000
 NMagM=    0.4037610   0.0000000   0.0000000   0.4037610   0.0000000   2.7928460   0.4037610   0.0000000   2.7928460   0.4037610
 AtZNuc=   7.0000000   6.0000000   6.0000000   7.0000000   6.0000000   1.0000000   7.0000000   6.0000000   1.0000000   7.0000000

  Atom        11          12          13          14          15          16          17          18          19          20
 IAtWgt=          12          12          14           1           1           1           1           1          14          12
 AtmWgt=  12.0000000  12.0000000  14.0030740   1.0078250   1.0078250   1.0078250   1.0078250   1.0078250  14.0030740  12.0000000
 NucSpn=           0           0           2           1           1           1           1           1           2           0
 AtZEff=  -0.0000000  -0.0000000  -0.0000000  -0.0000000  -0.0000000  -0.0000000  -0.0000000  -0.0000000  -0.0000000  -0.0000000
 NQMom=    0.0000000   0.0000000   2.0440000   0.0000000   0.0000000   0.0000000   0.0000000   0.0000000   2.0440000   0.0000000
 NMagM=    0.0000000   0.0000000   0.4037610   2.7928460   2.7928460   2.7928460   2.7928460   2.7928460   0.4037610   0.0000000
 AtZNuc=   6.0000000   6.0000000   7.0000000   1.0000000   1.0000000   1.0000000   1.0000000   1.0000000   7.0000000   6.0000000

  Atom        21          22          23          24          25          26          27          28          29          30
 IAtWgt=          12          14           1           1          14          12          14           1          12          16
 AtmWgt=  12.0000000  14.0030740   1.0078250   1.0078250  14.0030740  12.0000000  14.0030740   1.0078250  12.0000000  15.9949146
 NucSpn=           0           2           1           1           2           0           2           1           0           0
 AtZEff=  -0.0000000  -0.0000000  -0.0000000  -0.0000000  -0.0000000  -0.0000000  -0.0000000  -0.0000000  -0.0000000  -0.0000000
 NQMom=    0.0000000   2.0440000   0.0000000   0.0000000   2.0440000   0.0000000   2.0440000   0.0000000   0.0000000   0.0000000
 NMagM=    0.0000000   0.4037610   2.7928460   2.7928460   0.4037610   0.0000000   0.4037610   2.7928460   0.0000000   0.0000000
 AtZNuc=   6.0000000   7.0000000   1.0000000   1.0000000   7.0000000   6.0000000   7.0000000   1.0000000   6.0000000   8.0000000

  Atom        31          32          33          34          35          36          37          38          39          40
 IAtWgt=          12          14          12           1           1           1           1           1           1           1
 AtmWgt=  12.0000000  14.0030740  12.0000000   1.0078250   1.0078250   1.0078250   1.0078250   1.0078250   1.0078250   1.0078250
 NucSpn=           0           2           0           1           1           1           1           1           1           1
 AtZEff=  -0.0000000  -0.0000000  -0.0000000  -0.0000000  -0.0000000  -0.0000000  -0.0000000  -0.0000000  -0.0000000  -0.0000000
 NQMom=    0.0000000   2.0440000   0.0000000   0.0000000   0.0000000   0.0000000   0.0000000   0.0000000   0.0000000   0.0000000
 NMagM=    0.0000000   0.4037610   0.0000000   2.7928460   2.7928460   2.7928460   2.7928460   2.7928460   2.7928460   2.7928460
 AtZNuc=   6.0000000   7.0000000   6.0000000   1.0000000   1.0000000   1.0000000   1.0000000   1.0000000   1.0000000   1.0000000

  Atom        41          42          43          44          45          46          47          48          49          50
 IAtWgt=           1          12          16          12           1          14          16          12           1          12
 AtmWgt=   1.0078250  12.0000000  15.9949146  12.0000000   1.0078250  14.0030740  15.9949146  12.0000000   1.0078250  12.0000000
 NucSpn=           1           0           0           0           1           2           0           0           1           0
 AtZEff=  -0.0000000  -0.0000000  -0.0000000  -0.0000000  -0.0000000  -0.0000000  -0.0000000  -0.0000000  -0.0000000  -0.0000000
 NQMom=    0.0000000   0.0000000   0.0000000   0.0000000   0.0000000   2.0440000   0.0000000   0.0000000   0.0000000   0.0000000
 NMagM=    2.7928460   0.0000000   0.0000000   0.0000000   2.7928460   0.4037610   0.0000000   0.0000000   2.7928460   0.0000000
 AtZNuc=   1.0000000   6.0000000   8.0000000   6.0000000   1.0000000   7.0000000   8.0000000   6.0000000   1.0000000   6.0000000

  Atom        51          52          53          54          55          56          57          58          59          60
 IAtWgt=          12          14           1           1           1           1           1          14          12          12
 AtmWgt=  12.0000000  14.0030740   1.0078250   1.0078250   1.0078250   1.0078250   1.0078250  14.0030740  12.0000000  12.0000000
 NucSpn=           0           2           1           1           1           1           1           2           0           0
 AtZEff=  -0.0000000  -0.0000000  -0.0000000  -0.0000000  -0.0000000  -0.0000000  -0.0000000  -0.0000000  -0.0000000  -0.0000000
 NQMom=    0.0000000   2.0440000   0.0000000   0.0000000   0.0000000   0.0000000   0.0000000   2.0440000   0.0000000   0.0000000
 NMagM=    0.0000000   0.4037610   2.7928460   2.7928460   2.7928460   2.7928460   2.7928460   0.4037610   0.0000000   0.0000000
 AtZNuc=   6.0000000   7.0000000   1.0000000   1.0000000   1.0000000   1.0000000   1.0000000   7.0000000   6.0000000   6.0000000

  Atom        61          62          63          64          65          66          67          68          69          70
 IAtWgt=          14           1          12          14           1          12          14          12          12          14
 AtmWgt=  14.0030740   1.0078250  12.0000000  14.0030740   1.0078250  12.0000000  14.0030740  12.0000000  12.0000000  14.0030740
 NucSpn=           2           1           0           2           1           0           2           0           0           2
 AtZEff=  -0.0000000  -0.0000000  -0.0000000  -0.0000000  -0.0000000  -0.0000000  -0.0000000  -0.0000000  -0.0000000  -0.0000000
 NQMom=    2.0440000   0.0000000   0.0000000   2.0440000   0.0000000   0.0000000   2.0440000   0.0000000   0.0000000   2.0440000
 NMagM=    0.4037610   2.7928460   0.0000000   0.4037610   2.7928460   0.0000000   0.4037610   0.0000000   0.0000000   0.4037610
 AtZNuc=   7.0000000   1.0000000   6.0000000   7.0000000   1.0000000   6.0000000   7.0000000   6.0000000   6.0000000   7.0000000
 Leave Link  101 at Thu Jan 25 17:03:57 2018, MaxMem=  4294967296 cpu:               6.9 elap:               0.2
 (Enter /share/apps/g16/l202.exe)
 Stoichiometry    C23H27N17O3
 Framework group  C1[X(C23H27N17O3)]
 Deg. of freedom   204
 Full point group                 C1      NOp   1
 Largest Abelian subgroup         C1      NOp   1
 Largest concise Abelian subgroup C1      NOp   1
                         Standard orientation:                         
 ---------------------------------------------------------------------
 Center     Atomic      Atomic             Coordinates (Angstroms)
 Number     Number       Type             X           Y           Z
 ---------------------------------------------------------------------
      1          7           0        4.757326   -2.280454   -0.244197
      2          6           0        5.979864   -2.455901   -1.052055
      3          6           0        2.664194   -2.025671    0.381262
      4          7           0        3.418839   -2.033881    1.545382
      5          6           0        4.649673   -2.187055    1.121975
      6          1           0        5.525909   -2.239012    1.768856
      7          7           0        0.857253   -1.929281   -1.131559
      8          6           0        1.762286   -2.081686   -2.103804
      9          1           0        1.359226   -2.100765   -3.115466
     10          7           0        3.084240   -2.213445   -2.014434
     11          6           0        3.475399   -2.176705   -0.729884
     12          6           0        1.282599   -1.896251    0.150267
     13          7           0        0.380702   -1.744189    1.122192
     14          1           0        0.650473   -1.714205    2.085281
     15          1           0       -0.594848   -1.655104    0.920900
     16          1           0        6.432674   -3.309126   -0.792923
     17          1           0        5.737861   -2.489130   -2.021312
     18          1           0        6.600976   -1.688809   -0.891432
     19          7           0        5.456119    1.372079    0.116047
     20          6           0        4.143323    1.590143   -0.226115
     21          6           0        6.615819    1.576209   -0.775094
     22          7           0        1.765474    2.556841   -2.565568
     23          1           0        0.771352    2.651012   -2.611239
     24          1           0        2.281665    2.789967   -3.390140
     25          7           0        3.695844    2.024029   -1.424262
     26          6           0        2.379694    2.136892   -1.449199
     27          7           0        1.562469    1.847494   -0.383408
     28          1           0        0.566654    1.963001   -0.492857
     29          6           0        2.001069    1.399675    0.858750
     30          8           0        1.180005    1.167082    1.754568
     31          6           0        3.412874    1.273515    0.900828
     32          7           0        4.250241    0.864893    1.929777
     33          6           0        5.449574    0.939222    1.419605
     34          1           0        6.367634    0.689141    1.952421
     35          1           0        7.106250    0.712992   -0.889691
     36          1           0        6.296646    1.897647   -1.665637
     37          1           0        7.228940    2.257265   -0.376277
     38          1           0       -4.322451    2.126844   -1.879378
     39          1           0       -4.282111    3.695146   -1.077222
     40          1           0       -2.837849    3.079364   -1.881148
     41          1           0       -4.565251    0.765893    2.728809
     42          6           0       -3.824136    1.114704    2.009563
     43          8           0       -1.965961    0.405625    3.302432
     44          6           0       -2.433334    0.933605    2.293678
     45          1           0       -0.590118    1.300520    1.483603
     46          7           0       -1.580758    1.410456    1.318506
     47          8           0       -1.100917    2.411442   -0.662650
     48          6           0       -1.930236    2.021936    0.140582
     49          1           0       -5.240571    1.869111    0.605866
     50          6           0       -4.196063    1.707615    0.869072
     51          6           0       -3.710884    2.807900   -1.306482
     52          7           0       -3.289412    2.160147   -0.061273
     53          1           0       -6.730819   -1.458670   -3.341049
     54          1           0       -5.349475   -0.610794   -3.528405
     55          1           0       -6.725305    0.155287   -3.099099
     56          1           0       -2.803065   -1.588584    2.953505
     57          1           0       -4.508764   -1.578587    2.929359
     58          7           0       -3.647829   -1.506409    2.424579
     59          6           0       -3.628269   -1.309335    1.104753
     60          6           0       -4.605842   -0.985258   -1.040259
     61          7           0       -3.434869   -0.892301   -1.691881
     62          1           0       -1.426014   -0.959689   -1.291189
     63          6           0       -2.416924   -1.022839   -0.843563
     64          7           0       -2.434463   -1.220283    0.478668
     65          1           0       -7.816404   -1.029614   -0.662800
     66          6           0       -6.735422   -1.054676   -0.522120
     67          7           0       -6.137875   -1.229195    0.631217
     68          6           0       -4.787263   -1.187298    0.316867
     69          6           0       -6.194586   -0.686560   -3.000031
     70          7           0       -5.868825   -0.900413   -1.576601
 ---------------------------------------------------------------------
 Rotational constants (GHZ):           0.1670489           0.0505559           0.0484756
 Leave Link  202 at Thu Jan 25 17:03:57 2018, MaxMem=  4294967296 cpu:               0.3 elap:               0.0
 (Enter /share/apps/g16/l301.exe)
 Standard basis: CC-pVDZ (5D, 7F)
 Ernie: Thresh=  0.10000D-02 Tol=  0.10000D-05 Strict=F.
 Ernie:  86 primitive shells out of 1081 were deleted.
 There are   780 symmetry adapted cartesian basis functions of A   symmetry.
 There are   737 symmetry adapted basis functions of A   symmetry.
   737 basis functions,  1608 primitive gaussians,   780 cartesian basis functions
   154 alpha electrons      154 beta electrons
       nuclear repulsion energy      5518.8271586234 Hartrees.
 IExCor= 4639 DFT=T Ex+Corr=wB97XD ExCW=0 ScaHFX=  1.000000
 ScaDFX=  1.000000  1.000000  1.000000  1.000000 ScalE2=  1.000000  1.000000
 IRadAn=      5 IRanWt=     -1 IRanGd=            0 ICorTp=0 IEmpDi=121
 HFx  wShort=  0.000000 wLong=  0.200000 cFull=  0.222036 cShort=  0.000000 cLong=  0.777964
 DFx  wShort=  0.000000 wLong=  0.200000 cFull=  0.000000 cShort=  0.000000 cLong=  1.000000
 NAtoms=   70 NActive=   70 NUniq=   70 SFac= 1.00D+00 NAtFMM=   60 NAOKFM=T Big=T
 Integral buffers will be    131072 words long.
 Raffenetti 2 integral format.
 Two-electron integral symmetry is turned on.
 R6Disp:  Grimme-D2 Dispersion energy=       -0.0723245855 Hartrees.
 Nuclear repulsion after empirical dispersion term =     5518.7548340379 Hartrees.
 Leave Link  301 at Thu Jan 25 17:03:57 2018, MaxMem=  4294967296 cpu:               2.1 elap:               0.1
 (Enter /share/apps/g16/l302.exe)
 NPDir=0 NMtPBC=     1 NCelOv=     1 NCel=       1 NClECP=     1 NCelD=      1
         NCelK=      1 NCelE2=     1 NClLst=     1 CellRange=     0.0.
 One-electron integrals computed using PRISM.
 One-electron integral symmetry used in STVInt
 NBasis=   737 RedAO= T EigKep=  6.55D-04  NBF=   737
 NBsUse=   737 1.00D-06 EigRej= -1.00D+00 NBFU=   737
 Precomputing XC quadrature grid using
 IXCGrd= 4 IRadAn=           5 IRanWt=          -1 IRanGd=           0 AccXCQ= 0.00D+00.
 Generated NRdTot=       0 NPtTot=           0 NUsed=           0 NTot=          32
 NSgBfM=   765   756   761   762   765 MxSgAt=    70 MxSgA2=    70.
 Leave Link  302 at Thu Jan 25 17:04:06 2018, MaxMem=  4294967296 cpu:             267.6 elap:               8.6
 (Enter /share/apps/g16/l303.exe)
 DipDrv:  MaxL=1.
 Leave Link  303 at Thu Jan 25 17:04:06 2018, MaxMem=  4294967296 cpu:              21.5 elap:               0.7
 (Enter /share/apps/g16/l401.exe)
 ExpMin= 1.22D-01 ExpMax= 1.17D+04 ExpMxC= 4.01D+02 IAcc=3 IRadAn=         5 AccDes= 0.00D+00
 Harris functional with IExCor= 4639 and IRadAn=       5 diagonalized for initial guess.
 HarFok:  IExCor= 4639 AccDes= 0.00D+00 IRadAn=         5 IDoV= 1 UseB2=F ITyADJ=14
 ICtDFT=  3500011 ScaDFX=  1.000000  1.000000  1.000000  1.000000
 FoFCou: FMM=F IPFlag=           0 FMFlag=      100000 FMFlg1=        2001
         NFxFlg=           0 DoJE=T BraDBF=F KetDBF=T FulRan=T
         wScrn=  0.000000 ICntrl=       500 IOpCl=  0 I1Cent=   200000004 NGrid=           0
         NMat0=    1 NMatS0=      1 NMatT0=    0 NMatD0=    1 NMtDS0=    0 NMtDT0=    0
 Petite list used in FoFCou.
 Harris En= -1963.85703428988    
 JPrj=0 DoOrth=F DoCkMO=F.
 Leave Link  401 at Thu Jan 25 17:04:19 2018, MaxMem=  4294967296 cpu:             397.7 elap:              12.5
 (Enter /share/apps/g16/l502.exe)
 Integral symmetry usage will be decided dynamically.
 Closed shell SCF:
 Using DIIS extrapolation, IDIIS=  1040.
 NGot=  4294967296 LenX=  4293717438 LenY=  4293108258
 Requested convergence on RMS density matrix=1.00D-08 within  20 cycles.
 Requested convergence on MAX density matrix=1.00D-06.
 Requested convergence on             energy=1.00D-06.
 No special actions if energy rises.
 Fock matrices will be formed incrementally for  20 cycles.
 Integral accuracy reduced to 1.0D-05 until final iterations.

 Cycle   1  Pass 0  IDiag  1:
 FoFJK:  IHMeth= 1 ICntrl=       0 DoSepK=T KAlg= 0 I1Cent=           0 FoldK=F
 IRaf=         1 NMat=       1 IRICut=       1 DoRegI=T DoRafI=F ISym2E= 0 IDoP0=0 IntGTp=1.
 FoFCou: FMM=T IPFlag=           0 FMFlag=      100000 FMFlg1=        2001
         NFxFlg=           0 DoJE=T BraDBF=F KetDBF=F FulRan=T
         wScrn=  0.000000 ICntrl=       500 IOpCl=  0 I1Cent=           0 NGrid=           0
         NMat0=    1 NMatS0=      1 NMatT0=    0 NMatD0=    1 NMtDS0=    0 NMtDT0=    0
 Symmetry not used in FoFCou.
 FMM levels:  10  Number of levels for PrismC:   9
 E= -2048.29904949276    
 DIIS: error= 2.45D-02 at cycle   1 NSaved=   1.
 NSaved= 1 IEnMin= 1 EnMin= -2048.29904949276     IErMin= 1 ErrMin= 2.45D-02
 ErrMax= 2.45D-02  0.00D+00 EMaxC= 1.00D-01 BMatC= 8.33D-01 BMatP= 8.33D-01
 IDIUse=3 WtCom= 7.55D-01 WtEn= 2.45D-01
 Coeff-Com:  0.100D+01
 Coeff-En:   0.100D+01
 Coeff:      0.100D+01
 Gap=     0.258 Goal=   None    Shift=    0.000
 GapD=    0.258 DampG=1.000 DampE=0.500 DampFc=0.5000 IDamp=-1.
 Damping current iteration by 5.00D-01
 RMSDP=1.58D-03 MaxDP=1.22D-01              OVMax= 1.41D-01

 Cycle   2  Pass 0  IDiag  1:
 RMSU=  7.90D-04    CP:  9.97D-01
 E= -2048.49331727163     Delta-E=       -0.194267778867 Rises=F Damp=T
 DIIS: error= 1.35D-02 at cycle   2 NSaved=   2.
 NSaved= 2 IEnMin= 2 EnMin= -2048.49331727163     IErMin= 2 ErrMin= 1.35D-02
 ErrMax= 1.35D-02  0.00D+00 EMaxC= 1.00D-01 BMatC= 1.46D-01 BMatP= 8.33D-01
 IDIUse=3 WtCom= 8.65D-01 WtEn= 1.35D-01
 Coeff-Com: -0.188D+00 0.119D+01
 Coeff-En:   0.000D+00 0.100D+01
 Coeff:     -0.163D+00 0.116D+01
 Gap=     0.345 Goal=   None    Shift=    0.000
 RMSDP=6.02D-04 MaxDP=3.24D-02 DE=-1.94D-01 OVMax= 1.36D-01

 Cycle   3  Pass 0  IDiag  1:
 RMSU=  5.93D-04    CP:  9.94D-01  1.12D+00
 E= -2048.66844091541     Delta-E=       -0.175123643779 Rises=F Damp=F
 DIIS: error= 6.43D-03 at cycle   3 NSaved=   3.
 NSaved= 3 IEnMin= 3 EnMin= -2048.66844091541     IErMin= 3 ErrMin= 6.43D-03
 ErrMax= 6.43D-03  0.00D+00 EMaxC= 1.00D-01 BMatC= 6.91D-02 BMatP= 1.46D-01
 IDIUse=3 WtCom= 9.36D-01 WtEn= 6.43D-02
 Coeff-Com: -0.233D+00 0.561D+00 0.672D+00
 Coeff-En:   0.000D+00 0.000D+00 0.100D+01
 Coeff:     -0.218D+00 0.525D+00 0.693D+00
 Gap=     0.275 Goal=   None    Shift=    0.000
 RMSDP=3.83D-04 MaxDP=2.85D-02 DE=-1.75D-01 OVMax= 5.35D-02

 Cycle   4  Pass 0  IDiag  1:
 RMSU=  2.15D-04    CP:  9.94D-01  1.42D+00  6.43D-01
 E= -2048.72098535202     Delta-E=       -0.052544436614 Rises=F Damp=F
 DIIS: error= 2.24D-03 at cycle   4 NSaved=   4.
 NSaved= 4 IEnMin= 4 EnMin= -2048.72098535202     IErMin= 4 ErrMin= 2.24D-03
 ErrMax= 2.24D-03  0.00D+00 EMaxC= 1.00D-01 BMatC= 9.81D-03 BMatP= 6.91D-02
 IDIUse=3 WtCom= 9.78D-01 WtEn= 2.24D-02
 Coeff-Com: -0.973D-01 0.188D+00 0.372D+00 0.537D+00
 Coeff-En:   0.000D+00 0.000D+00 0.725D-01 0.927D+00
 Coeff:     -0.951D-01 0.184D+00 0.366D+00 0.546D+00
 Gap=     0.278 Goal=   None    Shift=    0.000
 RMSDP=1.32D-04 MaxDP=9.94D-03 DE=-5.25D-02 OVMax= 1.52D-02

 Cycle   5  Pass 0  IDiag  1:
 RMSU=  6.07D-05    CP:  9.94D-01  1.39D+00  7.82D-01  6.28D-01
 E= -2048.72936743668     Delta-E=       -0.008382084662 Rises=F Damp=F
 DIIS: error= 4.08D-04 at cycle   5 NSaved=   5.
 NSaved= 5 IEnMin= 5 EnMin= -2048.72936743668     IErMin= 5 ErrMin= 4.08D-04
 ErrMax= 4.08D-04  0.00D+00 EMaxC= 1.00D-01 BMatC= 2.66D-04 BMatP= 9.81D-03
 IDIUse=3 WtCom= 9.96D-01 WtEn= 4.08D-03
 Coeff-Com: -0.244D-01 0.416D-01 0.115D+00 0.228D+00 0.639D+00
 Coeff-En:   0.000D+00 0.000D+00 0.000D+00 0.000D+00 0.100D+01
 Coeff:     -0.243D-01 0.414D-01 0.115D+00 0.228D+00 0.641D+00
 Gap=     0.278 Goal=   None    Shift=    0.000
 RMSDP=2.67D-05 MaxDP=1.47D-03 DE=-8.38D-03 OVMax= 2.92D-03

 Failed to achieve initial convergence to 1.0D-08 in  6 cycles.
 Switch to full accuracy anyway.
 Cycle   6  Pass 1  IDiag  1:
 E= -2048.72960176595     Delta-E=       -0.000234329273 Rises=F Damp=F
 DIIS: error= 2.77D-04 at cycle   1 NSaved=   1.
 NSaved= 1 IEnMin= 1 EnMin= -2048.72960176595     IErMin= 1 ErrMin= 2.77D-04
 ErrMax= 2.77D-04  0.00D+00 EMaxC= 1.00D-01 BMatC= 7.54D-05 BMatP= 7.54D-05
 IDIUse=3 WtCom= 9.97D-01 WtEn= 2.77D-03
 Coeff-Com:  0.100D+01
 Coeff-En:   0.100D+01
 Coeff:      0.100D+01
 Gap=     0.278 Goal=   None    Shift=    0.000
 RMSDP=2.67D-05 MaxDP=1.47D-03 DE=-2.34D-04 OVMax= 2.42D-03

 Cycle   7  Pass 1  IDiag  1:
 RMSU=  1.24D-04    CP:  1.00D+00
 E= -2048.72966063893     Delta-E=       -0.000058872974 Rises=F Damp=F
 DIIS: error= 1.97D-04 at cycle   2 NSaved=   2.
 NSaved= 2 IEnMin= 2 EnMin= -2048.72966063893     IErMin= 2 ErrMin= 1.97D-04
 ErrMax= 1.97D-04  0.00D+00 EMaxC= 1.00D-01 BMatC= 4.09D-05 BMatP= 7.54D-05
 IDIUse=3 WtCom= 9.98D-01 WtEn= 1.97D-03
 Coeff-Com:  0.397D+00 0.603D+00
 Coeff-En:   0.000D+00 0.100D+01
 Coeff:      0.396D+00 0.604D+00
 Gap=     0.279 Goal=   None    Shift=    0.000
 RMSDP=1.20D-05 MaxDP=9.42D-04 DE=-5.89D-05 OVMax= 1.62D-03

 Cycle   8  Pass 1  IDiag  1:
 RMSU=  1.15D-05    CP:  1.00D+00  1.03D+00
 E= -2048.72969062342     Delta-E=       -0.000029984494 Rises=F Damp=F
 DIIS: error= 9.28D-05 at cycle   3 NSaved=   3.
 NSaved= 3 IEnMin= 3 EnMin= -2048.72969062342     IErMin= 3 ErrMin= 9.28D-05
 ErrMax= 9.28D-05  0.00D+00 EMaxC= 1.00D-01 BMatC= 1.04D-05 BMatP= 4.09D-05
 IDIUse=1 WtCom= 1.00D+00 WtEn= 0.00D+00
 Coeff-Com: -0.191D-01 0.322D+00 0.697D+00
 Coeff:     -0.191D-01 0.322D+00 0.697D+00
 Gap=     0.279 Goal=   None    Shift=    0.000
 RMSDP=5.94D-06 MaxDP=3.48D-04 DE=-3.00D-05 OVMax= 6.01D-04

 Cycle   9  Pass 1  IDiag  1:
 RMSU=  3.90D-06    CP:  1.00D+00  1.05D+00  7.53D-01
 E= -2048.72970070292     Delta-E=       -0.000010079501 Rises=F Damp=F
 DIIS: error= 2.83D-05 at cycle   4 NSaved=   4.
 NSaved= 4 IEnMin= 4 EnMin= -2048.72970070292     IErMin= 4 ErrMin= 2.83D-05
 ErrMax= 2.83D-05  0.00D+00 EMaxC= 1.00D-01 BMatC= 5.40D-07 BMatP= 1.04D-05
 IDIUse=1 WtCom= 1.00D+00 WtEn= 0.00D+00
 Coeff-Com: -0.303D-01 0.911D-01 0.267D+00 0.672D+00
 Coeff:     -0.303D-01 0.911D-01 0.267D+00 0.672D+00
 Gap=     0.279 Goal=   None    Shift=    0.000
 RMSDP=1.52D-06 MaxDP=9.43D-05 DE=-1.01D-05 OVMax= 4.02D-04

 Cycle  10  Pass 1  IDiag  1:
 RMSU=  1.33D-06    CP:  1.00D+00  1.06D+00  7.95D-01  1.11D+00
 E= -2048.72970159355     Delta-E=       -0.000000890621 Rises=F Damp=F
 DIIS: error= 1.16D-05 at cycle   5 NSaved=   5.
 NSaved= 5 IEnMin= 5 EnMin= -2048.72970159355     IErMin= 5 ErrMin= 1.16D-05
 ErrMax= 1.16D-05  0.00D+00 EMaxC= 1.00D-01 BMatC= 1.24D-07 BMatP= 5.40D-07
 IDIUse=1 WtCom= 1.00D+00 WtEn= 0.00D+00
 Coeff-Com: -0.329D-02-0.567D-01-0.113D+00 0.205D+00 0.969D+00
 Coeff:     -0.329D-02-0.567D-01-0.113D+00 0.205D+00 0.969D+00
 Gap=     0.279 Goal=   None    Shift=    0.000
 RMSDP=1.24D-06 MaxDP=6.50D-05 DE=-8.91D-07 OVMax= 2.41D-04

 Cycle  11  Pass 1  IDiag  1:
 RMSU=  5.20D-07    CP:  1.00D+00  1.06D+00  8.08D-01  1.38D+00  1.20D+00
 E= -2048.72970187420     Delta-E=       -0.000000280652 Rises=F Damp=F
 DIIS: error= 7.26D-06 at cycle   6 NSaved=   6.
 NSaved= 6 IEnMin= 6 EnMin= -2048.72970187420     IErMin= 6 ErrMin= 7.26D-06
 ErrMax= 7.26D-06  0.00D+00 EMaxC= 1.00D-01 BMatC= 3.17D-08 BMatP= 1.24D-07
 IDIUse=1 WtCom= 1.00D+00 WtEn= 0.00D+00
 Coeff-Com:  0.506D-02-0.495D-01-0.119D+00-0.114D-01 0.529D+00 0.646D+00
 Coeff:      0.506D-02-0.495D-01-0.119D+00-0.114D-01 0.529D+00 0.646D+00
 Gap=     0.279 Goal=   None    Shift=    0.000
 RMSDP=4.32D-07 MaxDP=2.92D-05 DE=-2.81D-07 OVMax= 1.17D-04

 Cycle  12  Pass 1  IDiag  1:
 RMSU=  2.12D-07    CP:  1.00D+00  1.06D+00  8.11D-01  1.46D+00  1.34D+00
                    CP:  9.82D-01
 E= -2048.72970192253     Delta-E=       -0.000000048330 Rises=F Damp=F
 DIIS: error= 1.14D-06 at cycle   7 NSaved=   7.
 NSaved= 7 IEnMin= 7 EnMin= -2048.72970192253     IErMin= 7 ErrMin= 1.14D-06
 ErrMax= 1.14D-06  0.00D+00 EMaxC= 1.00D-01 BMatC= 8.06D-10 BMatP= 3.17D-08
 IDIUse=1 WtCom= 1.00D+00 WtEn= 0.00D+00
 Coeff-Com:  0.116D-02-0.777D-02-0.199D-01-0.106D-01 0.591D-01 0.129D+00
 Coeff-Com:  0.849D+00
 Coeff:      0.116D-02-0.777D-02-0.199D-01-0.106D-01 0.591D-01 0.129D+00
 Coeff:      0.849D+00
 Gap=     0.279 Goal=   None    Shift=    0.000
 RMSDP=9.47D-08 MaxDP=4.58D-06 DE=-4.83D-08 OVMax= 2.35D-05

 Cycle  13  Pass 1  IDiag  1:
 RMSU=  6.01D-08    CP:  1.00D+00  1.06D+00  8.11D-01  1.47D+00  1.36D+00
                    CP:  1.07D+00  1.12D+00
 E= -2048.72970192427     Delta-E=       -0.000000001743 Rises=F Damp=F
 DIIS: error= 5.69D-07 at cycle   8 NSaved=   8.
 NSaved= 8 IEnMin= 8 EnMin= -2048.72970192427     IErMin= 8 ErrMin= 5.69D-07
 ErrMax= 5.69D-07  0.00D+00 EMaxC= 1.00D-01 BMatC= 4.10D-10 BMatP= 8.06D-10
 IDIUse=1 WtCom= 1.00D+00 WtEn= 0.00D+00
 Coeff-Com: -0.836D-03 0.101D-01 0.237D-01-0.133D-02-0.120D+00-0.119D+00
 Coeff-Com:  0.446D+00 0.761D+00
 Coeff:     -0.836D-03 0.101D-01 0.237D-01-0.133D-02-0.120D+00-0.119D+00
 Coeff:      0.446D+00 0.761D+00
 Gap=     0.279 Goal=   None    Shift=    0.000
 RMSDP=5.72D-08 MaxDP=3.37D-06 DE=-1.74D-09 OVMax= 1.20D-05

 Cycle  14  Pass 1  IDiag  1:
 RMSU=  3.19D-08    CP:  1.00D+00  1.06D+00  8.11D-01  1.48D+00  1.37D+00
                    CP:  1.12D+00  1.28D+00  1.04D+00
 E= -2048.72970192483     Delta-E=       -0.000000000557 Rises=F Damp=F
 DIIS: error= 1.80D-07 at cycle   9 NSaved=   9.
 NSaved= 9 IEnMin= 9 EnMin= -2048.72970192483     IErMin= 9 ErrMin= 1.80D-07
 ErrMax= 1.80D-07  0.00D+00 EMaxC= 1.00D-01 BMatC= 2.73D-11 BMatP= 4.10D-10
 IDIUse=1 WtCom= 1.00D+00 WtEn= 0.00D+00
 Coeff-Com: -0.423D-03 0.448D-02 0.107D-01 0.573D-03-0.489D-01-0.564D-01
 Coeff-Com:  0.839D-01 0.261D+00 0.745D+00
 Coeff:     -0.423D-03 0.448D-02 0.107D-01 0.573D-03-0.489D-01-0.564D-01
 Coeff:      0.839D-01 0.261D+00 0.745D+00
 Gap=     0.279 Goal=   None    Shift=    0.000
 RMSDP=1.45D-08 MaxDP=7.77D-07 DE=-5.57D-10 OVMax= 3.44D-06

 Cycle  15  Pass 1  IDiag  1:
 RMSU=  9.54D-09    CP:  1.00D+00  1.06D+00  8.11D-01  1.48D+00  1.37D+00
                    CP:  1.13D+00  1.30D+00  1.17D+00  1.13D+00
 E= -2048.72970192508     Delta-E=       -0.000000000256 Rises=F Damp=F
 DIIS: error= 6.27D-08 at cycle  10 NSaved=  10.
 NSaved=10 IEnMin=10 EnMin= -2048.72970192508     IErMin=10 ErrMin= 6.27D-08
 ErrMax= 6.27D-08  0.00D+00 EMaxC= 1.00D-01 BMatC= 5.74D-12 BMatP= 2.73D-11
 IDIUse=1 WtCom= 1.00D+00 WtEn= 0.00D+00
 Coeff-Com:  0.199D-04-0.470D-03-0.994D-03 0.257D-03 0.701D-02 0.377D-02
 Coeff-Com: -0.597D-01-0.730D-01 0.273D+00 0.850D+00
 Coeff:      0.199D-04-0.470D-03-0.994D-03 0.257D-03 0.701D-02 0.377D-02
 Coeff:     -0.597D-01-0.730D-01 0.273D+00 0.850D+00
 Gap=     0.279 Goal=   None    Shift=    0.000
 RMSDP=7.57D-09 MaxDP=3.81D-07 DE=-2.56D-10 OVMax= 1.62D-06

 SCF Done:  E(RwB97XD) =  -2048.72970193     A.U. after   15 cycles
            NFock= 15  Conv=0.76D-08     -V/T= 2.0053
 KE= 2.037880105024D+03 PE=-1.581816205338D+04 EE= 6.212797412392D+03
 Leave Link  502 at Thu Jan 25 17:15:46 2018, MaxMem=  4294967296 cpu:           21214.3 elap:             686.8
 (Enter /share/apps/g16/l601.exe)
 Copying SCF densities to generalized density rwf, IOpCl= 0 IROHF=0.

 **********************************************************************

            Population analysis using the SCF density.

 **********************************************************************

 Orbital symmetries:
       Occupied  (A) (A) (A) (A) (A) (A) (A) (A) (A) (A) (A) (A)
                 (A) (A) (A) (A) (A) (A) (A) (A) (A) (A) (A) (A)
                 (A) (A) (A) (A) (A) (A) (A) (A) (A) (A) (A) (A)
                 (A) (A) (A) (A) (A) (A) (A) (A) (A) (A) (A) (A)
                 (A) (A) (A) (A) (A) (A) (A) (A) (A) (A) (A) (A)
                 (A) (A) (A) (A) (A) (A) (A) (A) (A) (A) (A) (A)
                 (A) (A) (A) (A) (A) (A) (A) (A) (A) (A) (A) (A)
                 (A) (A) (A) (A) (A) (A) (A) (A) (A) (A) (A) (A)
                 (A) (A) (A) (A) (A) (A) (A) (A) (A) (A) (A) (A)
                 (A) (A) (A) (A) (A) (A) (A) (A) (A) (A) (A) (A)
                 (A) (A) (A) (A) (A) (A) (A) (A) (A) (A) (A) (A)
                 (A) (A) (A) (A) (A) (A) (A) (A) (A) (A) (A) (A)
                 (A) (A) (A) (A) (A) (A) (A) (A) (A) (A)
       Virtual   (A) (A) (A) (A) (A) (A) (A) (A) (A) (A) (A) (A)
                 (A) (A) (A) (A) (A) (A) (A) (A) (A) (A) (A) (A)
                 (A) (A) (A) (A) (A) (A) (A) (A) (A) (A) (A) (A)
                 (A) (A) (A) (A) (A) (A) (A) (A) (A) (A) (A) (A)
                 (A) (A) (A) (A) (A) (A) (A) (A) (A) (A) (A) (A)
                 (A) (A) (A) (A) (A) (A) (A) (A) (A) (A) (A) (A)
                 (A) (A) (A) (A) (A) (A) (A) (A) (A) (A) (A) (A)
                 (A) (A) (A) (A) (A) (A) (A) (A) (A) (A) (A) (A)
                 (A) (A) (A) (A) (A) (A) (A) (A) (A) (A) (A) (A)
                 (A) (A) (A) (A) (A) (A) (A) (A) (A) (A) (A) (A)
                 (A) (A) (A) (A) (A) (A) (A) (A) (A) (A) (A) (A)
                 (A) (A) (A) (A) (A) (A) (A) (A) (A) (A) (A) (A)
                 (A) (A) (A) (A) (A) (A) (A) (A) (A) (A) (A) (A)
                 (A) (A) (A) (A) (A) (A) (A) (A) (A) (A) (A) (A)
                 (A) (A) (A) (A) (A) (A) (A) (A) (A) (A) (A) (A)
                 (A) (A) (A) (A) (A) (A) (A) (A) (A) (A) (A) (A)
                 (A) (A) (A) (A) (A) (A) (A) (A) (A) (A) (A) (A)
                 (A) (A) (A) (A) (A) (A) (A) (A) (A) (A) (A) (A)
                 (A) (A) (A) (A) (A) (A) (A) (A) (A) (A) (A) (A)
                 (A) (A) (A) (A) (A) (A) (A) (A) (A) (A) (A) (A)
                 (A) (A) (A) (A) (A) (A) (A) (A) (A) (A) (A) (A)
                 (A) (A) (A) (A) (A) (A) (A) (A) (A) (A) (A) (A)
                 (A) (A) (A) (A) (A) (A) (A) (A) (A) (A) (A) (A)
                 (A) (A) (A) (A) (A) (A) (A) (A) (A) (A) (A) (A)
                 (A) (A) (A) (A) (A) (A) (A) (A) (A) (A) (A) (A)
                 (A) (A) (A) (A) (A) (A) (A) (A) (A) (A) (A) (A)
                 (A) (A) (A) (A) (A) (A) (A) (A) (A) (A) (A) (A)
                 (A) (A) (A) (A) (A) (A) (A) (A) (A) (A) (A) (A)
                 (A) (A) (A) (A) (A) (A) (A) (A) (A) (A) (A) (A)
                 (A) (A) (A) (A) (A) (A) (A) (A) (A) (A) (A) (A)
                 (A) (A) (A) (A) (A) (A) (A) (A) (A) (A) (A) (A)
                 (A) (A) (A) (A) (A) (A) (A) (A) (A) (A) (A) (A)
                 (A) (A) (A) (A) (A) (A) (A) (A) (A) (A) (A) (A)
                 (A) (A) (A) (A) (A) (A) (A) (A) (A) (A) (A) (A)
                 (A) (A) (A) (A) (A) (A) (A) (A) (A) (A) (A) (A)
                 (A) (A) (A) (A) (A) (A) (A) (A) (A) (A) (A) (A)
                 (A) (A) (A) (A) (A) (A) (A) (A) (A) (A) (A) (A)
                 (A) (A) (A) (A) (A) (A) (A) (A) (A) (A) (A) (A)
                 (A) (A) (A) (A) (A) (A) (A) (A) (A) (A) (A) (A)
                 (A) (A) (A) (A) (A) (A) (A) (A) (A) (A) (A) (A)
                 (A) (A) (A) (A) (A) (A) (A) (A) (A) (A) (A) (A)
                 (A) (A) (A) (A) (A) (A) (A) (A) (A) (A) (A) (A)
                 (A) (A) (A) (A) (A) (A) (A) (A) (A) (A) (A) (A)
                 (A) (A) (A) (A) (A) (A) (A) (A) (A) (A) (A) (A)
                 (A) (A) (A) (A) (A) (A) (A) (A) (A) (A) (A) (A)
                 (A) (A) (A) (A) (A) (A) (A) (A) (A) (A) (A) (A)
                 (A) (A) (A) (A) (A) (A) (A) (A) (A) (A) (A) (A)
                 (A) (A) (A) (A) (A) (A) (A) (A) (A) (A) (A) (A)
                 (A) (A) (A) (A) (A) (A) (A)
 The electronic state is 1-A.
 Alpha  occ. eigenvalues --  -19.25552 -19.22149 -19.20966 -14.52103 -14.52079
 Alpha  occ. eigenvalues --  -14.49335 -14.48851 -14.47554 -14.47168 -14.46922
 Alpha  occ. eigenvalues --  -14.46799 -14.44931 -14.43976 -14.43805 -14.42320
 Alpha  occ. eigenvalues --  -14.42271 -14.41273 -14.41130 -14.41048 -14.40542
 Alpha  occ. eigenvalues --  -10.45117 -10.41545 -10.40149 -10.39231 -10.38588
 Alpha  occ. eigenvalues --  -10.37490 -10.37137 -10.36664 -10.35585 -10.35508
 Alpha  occ. eigenvalues --  -10.34899 -10.34780 -10.33953 -10.33750 -10.33672
 Alpha  occ. eigenvalues --  -10.33482 -10.33297 -10.32032 -10.31686 -10.31361
 Alpha  occ. eigenvalues --  -10.30470 -10.28614 -10.28508  -1.19129  -1.14763
 Alpha  occ. eigenvalues --   -1.13550  -1.13309  -1.11388  -1.11047  -1.09073
 Alpha  occ. eigenvalues --   -1.08880  -1.08725  -1.05234  -1.04249  -1.02322
 Alpha  occ. eigenvalues --   -1.00545  -1.00453  -1.00025  -0.98890  -0.97146
 Alpha  occ. eigenvalues --   -0.96895  -0.96369  -0.92879  -0.90723  -0.87163
 Alpha  occ. eigenvalues --   -0.85514  -0.84638  -0.84043  -0.83361  -0.83072
 Alpha  occ. eigenvalues --   -0.82488  -0.78606  -0.76491  -0.75046  -0.74482
 Alpha  occ. eigenvalues --   -0.73934  -0.73071  -0.73009  -0.71183  -0.69801
 Alpha  occ. eigenvalues --   -0.67732  -0.66528  -0.66395  -0.66036  -0.64717
 Alpha  occ. eigenvalues --   -0.63918  -0.63600  -0.62898  -0.62800  -0.62097
 Alpha  occ. eigenvalues --   -0.60449  -0.60354  -0.59912  -0.59217  -0.59106
 Alpha  occ. eigenvalues --   -0.58793  -0.58632  -0.57845  -0.56679  -0.56146
 Alpha  occ. eigenvalues --   -0.55979  -0.55524  -0.54896  -0.54819  -0.54377
 Alpha  occ. eigenvalues --   -0.54077  -0.53873  -0.53341  -0.53261  -0.52758
 Alpha  occ. eigenvalues --   -0.52334  -0.52107  -0.51895  -0.50944  -0.50620
 Alpha  occ. eigenvalues --   -0.50406  -0.49967  -0.49677  -0.49291  -0.49128
 Alpha  occ. eigenvalues --   -0.48974  -0.48734  -0.48350  -0.47574  -0.47105
 Alpha  occ. eigenvalues --   -0.46915  -0.46209  -0.44882  -0.44341  -0.43224
 Alpha  occ. eigenvalues --   -0.41185  -0.40292  -0.39289  -0.37817  -0.37659
 Alpha  occ. eigenvalues --   -0.37550  -0.37073  -0.36978  -0.35675  -0.34656
 Alpha  occ. eigenvalues --   -0.34151  -0.33940  -0.33767  -0.33575  -0.33397
 Alpha  occ. eigenvalues --   -0.33033  -0.32422  -0.31880  -0.31575  -0.31049
 Alpha  occ. eigenvalues --   -0.30507  -0.29002  -0.26795  -0.24897
 Alpha virt. eigenvalues --    0.02970   0.04809   0.06494   0.07382   0.08693
 Alpha virt. eigenvalues --    0.09508   0.09674   0.10928   0.11085   0.11727
 Alpha virt. eigenvalues --    0.12649   0.13787   0.14210   0.14297   0.15159
 Alpha virt. eigenvalues --    0.15834   0.16466   0.17092   0.17621   0.18438
 Alpha virt. eigenvalues --    0.19052   0.19296   0.19663   0.20040   0.20851
 Alpha virt. eigenvalues --    0.21159   0.21439   0.21620   0.22032   0.22138
 Alpha virt. eigenvalues --    0.22298   0.22675   0.22902   0.23391   0.23837
 Alpha virt. eigenvalues --    0.23929   0.24226   0.24467   0.24792   0.25410
 Alpha virt. eigenvalues --    0.26569   0.26961   0.27469   0.27524   0.28980
 Alpha virt. eigenvalues --    0.29143   0.29406   0.29573   0.30416   0.30651
 Alpha virt. eigenvalues --    0.31511   0.32194   0.32823   0.33299   0.33507
 Alpha virt. eigenvalues --    0.34399   0.34732   0.35252   0.35977   0.36371
 Alpha virt. eigenvalues --    0.36793   0.37058   0.37430   0.37811   0.39806
 Alpha virt. eigenvalues --    0.40084   0.40383   0.40434   0.41131   0.41867
 Alpha virt. eigenvalues --    0.42293   0.43279   0.43624   0.44084   0.44358
 Alpha virt. eigenvalues --    0.44997   0.45150   0.45868   0.45957   0.46631
 Alpha virt. eigenvalues --    0.47111   0.47456   0.47813   0.48576   0.49091
 Alpha virt. eigenvalues --    0.49988   0.50287   0.50368   0.51027   0.51293
 Alpha virt. eigenvalues --    0.51534   0.51804   0.52365   0.52716   0.53070
 Alpha virt. eigenvalues --    0.53354   0.53727   0.54357   0.54880   0.55282
 Alpha virt. eigenvalues --    0.55705   0.55957   0.56485   0.56974   0.57388
 Alpha virt. eigenvalues --    0.57991   0.58167   0.59174   0.59510   0.59632
 Alpha virt. eigenvalues --    0.59903   0.60157   0.60646   0.61276   0.61762
 Alpha virt. eigenvalues --    0.61884   0.62142   0.62774   0.63461   0.63555
 Alpha virt. eigenvalues --    0.63909   0.64681   0.65090   0.65560   0.65799
 Alpha virt. eigenvalues --    0.66171   0.66518   0.66800   0.66942   0.67137
 Alpha virt. eigenvalues --    0.67608   0.68741   0.69048   0.69295   0.69611
 Alpha virt. eigenvalues --    0.70342   0.70815   0.71524   0.71998   0.72207
 Alpha virt. eigenvalues --    0.72673   0.73119   0.73225   0.73690   0.73958
 Alpha virt. eigenvalues --    0.74334   0.74663   0.75170   0.75507   0.75738
 Alpha virt. eigenvalues --    0.76005   0.76499   0.77014   0.77035   0.77597
 Alpha virt. eigenvalues --    0.78400   0.78425   0.78664   0.79036   0.79684
 Alpha virt. eigenvalues --    0.80274   0.80416   0.80640   0.81064   0.81374
 Alpha virt. eigenvalues --    0.81541   0.81939   0.82225   0.82896   0.83185
 Alpha virt. eigenvalues --    0.83950   0.84351   0.85002   0.85070   0.85290
 Alpha virt. eigenvalues --    0.85435   0.85893   0.86125   0.86512   0.87200
 Alpha virt. eigenvalues --    0.87673   0.88498   0.88777   0.89150   0.89394
 Alpha virt. eigenvalues --    0.90289   0.90774   0.90803   0.90889   0.91849
 Alpha virt. eigenvalues --    0.92736   0.92840   0.93397   0.93838   0.94128
 Alpha virt. eigenvalues --    0.94602   0.95482   0.95693   0.96220   0.96305
 Alpha virt. eigenvalues --    0.97143   0.97257   0.97532   0.98054   0.98464
 Alpha virt. eigenvalues --    0.98681   0.98950   0.99567   1.00116   1.00426
 Alpha virt. eigenvalues --    1.01561   1.02019   1.02326   1.02836   1.03239
 Alpha virt. eigenvalues --    1.04056   1.04340   1.04645   1.04949   1.05339
 Alpha virt. eigenvalues --    1.06199   1.06769   1.07237   1.07792   1.08274
 Alpha virt. eigenvalues --    1.08727   1.09194   1.09799   1.10193   1.10862
 Alpha virt. eigenvalues --    1.11857   1.12351   1.12753   1.13352   1.13813
 Alpha virt. eigenvalues --    1.14589   1.14597   1.15307   1.15622   1.15939
 Alpha virt. eigenvalues --    1.16484   1.16701   1.17417   1.18096   1.18556
 Alpha virt. eigenvalues --    1.18822   1.18939   1.19446   1.19793   1.20156
 Alpha virt. eigenvalues --    1.20678   1.20874   1.21445   1.21865   1.22004
 Alpha virt. eigenvalues --    1.22463   1.22793   1.23022   1.23316   1.23776
 Alpha virt. eigenvalues --    1.24061   1.25005   1.25318   1.25886   1.26367
 Alpha virt. eigenvalues --    1.27014   1.27462   1.27826   1.28409   1.29122
 Alpha virt. eigenvalues --    1.29286   1.29529   1.30705   1.31630   1.32228
 Alpha virt. eigenvalues --    1.32488   1.33396   1.33627   1.34580   1.35483
 Alpha virt. eigenvalues --    1.35676   1.36279   1.36553   1.36863   1.37767
 Alpha virt. eigenvalues --    1.38441   1.39099   1.40009   1.40715   1.41309
 Alpha virt. eigenvalues --    1.42162   1.42873   1.43224   1.44949   1.45667
 Alpha virt. eigenvalues --    1.46177   1.46456   1.46569   1.47229   1.47696
 Alpha virt. eigenvalues --    1.47979   1.48526   1.49542   1.51159   1.51504
 Alpha virt. eigenvalues --    1.51917   1.52498   1.53479   1.53567   1.54990
 Alpha virt. eigenvalues --    1.55175   1.55963   1.56401   1.56586   1.56948
 Alpha virt. eigenvalues --    1.58241   1.59112   1.59593   1.59960   1.60550
 Alpha virt. eigenvalues --    1.60850   1.61664   1.62200   1.63900   1.64627
 Alpha virt. eigenvalues --    1.65111   1.65955   1.66504   1.66742   1.67291
 Alpha virt. eigenvalues --    1.67592   1.68359   1.68654   1.68944   1.69842
 Alpha virt. eigenvalues --    1.70084   1.70950   1.71015   1.71605   1.71845
 Alpha virt. eigenvalues --    1.72251   1.72870   1.73134   1.73524   1.74033
 Alpha virt. eigenvalues --    1.74091   1.74780   1.75138   1.75379   1.75636
 Alpha virt. eigenvalues --    1.75908   1.76357   1.76607   1.77195   1.77617
 Alpha virt. eigenvalues --    1.77825   1.78665   1.79097   1.79438   1.79625
 Alpha virt. eigenvalues --    1.79752   1.79791   1.80497   1.81024   1.81259
 Alpha virt. eigenvalues --    1.81495   1.82025   1.82397   1.82700   1.83174
 Alpha virt. eigenvalues --    1.83663   1.83735   1.84508   1.85276   1.85411
 Alpha virt. eigenvalues --    1.85850   1.86236   1.86841   1.87085   1.87660
 Alpha virt. eigenvalues --    1.87840   1.88318   1.88627   1.89419   1.89877
 Alpha virt. eigenvalues --    1.90275   1.91234   1.91537   1.91904   1.92664
 Alpha virt. eigenvalues --    1.93248   1.93741   1.94815   1.94823   1.95855
 Alpha virt. eigenvalues --    1.96257   1.96519   1.96998   1.97665   1.98431
 Alpha virt. eigenvalues --    1.98836   2.00075   2.00906   2.01296   2.01911
 Alpha virt. eigenvalues --    2.02099   2.02396   2.03006   2.03581   2.04103
 Alpha virt. eigenvalues --    2.04294   2.04813   2.06835   2.07267   2.07636
 Alpha virt. eigenvalues --    2.07847   2.08795   2.09123   2.10136   2.10558
 Alpha virt. eigenvalues --    2.10911   2.11635   2.11882   2.12272   2.13694
 Alpha virt. eigenvalues --    2.14729   2.15384   2.16855   2.17732   2.18857
 Alpha virt. eigenvalues --    2.19736   2.20339   2.20948   2.21882   2.21933
 Alpha virt. eigenvalues --    2.22163   2.22624   2.23050   2.23419   2.24009
 Alpha virt. eigenvalues --    2.24796   2.25754   2.25971   2.27230   2.27548
 Alpha virt. eigenvalues --    2.27959   2.28277   2.28817   2.29197   2.29938
 Alpha virt. eigenvalues --    2.30248   2.31248   2.31540   2.32267   2.32697
 Alpha virt. eigenvalues --    2.32997   2.33267   2.33720   2.33952   2.34261
 Alpha virt. eigenvalues --    2.34951   2.35523   2.35666   2.36734   2.37792
 Alpha virt. eigenvalues --    2.38397   2.38792   2.40169   2.41096   2.41889
 Alpha virt. eigenvalues --    2.42272   2.43538   2.43737   2.43849   2.44622
 Alpha virt. eigenvalues --    2.45299   2.45689   2.45945   2.47005   2.48049
 Alpha virt. eigenvalues --    2.49200   2.50049   2.50710   2.51246   2.51979
 Alpha virt. eigenvalues --    2.52513   2.53244   2.54861   2.55536   2.55830
 Alpha virt. eigenvalues --    2.56870   2.58322   2.59042   2.59109   2.60399
 Alpha virt. eigenvalues --    2.61154   2.61973   2.62407   2.63174   2.64368
 Alpha virt. eigenvalues --    2.64513   2.64868   2.65155   2.65481   2.66020
 Alpha virt. eigenvalues --    2.67291   2.68371   2.68436   2.68966   2.69378
 Alpha virt. eigenvalues --    2.69674   2.70439   2.70811   2.72726   2.73466
 Alpha virt. eigenvalues --    2.73851   2.74409   2.75686   2.76312   2.77101
 Alpha virt. eigenvalues --    2.77450   2.78327   2.78504   2.78908   2.79434
 Alpha virt. eigenvalues --    2.79819   2.79888   2.80948   2.81076   2.81920
 Alpha virt. eigenvalues --    2.82553   2.82710   2.83102   2.83728   2.84588
 Alpha virt. eigenvalues --    2.85192   2.85901   2.86478   2.86619   2.87375
 Alpha virt. eigenvalues --    2.87705   2.88267   2.89357   2.91322   2.94083
 Alpha virt. eigenvalues --    2.94475   2.95926   2.96662   2.98039   2.99400
 Alpha virt. eigenvalues --    3.00183   3.01434   3.02126   3.04912   3.06098
 Alpha virt. eigenvalues --    3.06994   3.10527   3.11558   3.14058   3.14535
 Alpha virt. eigenvalues --    3.15495   3.16047   3.16815   3.18215   3.20982
 Alpha virt. eigenvalues --    3.21401   3.23627   3.23983   3.24112   3.28524
 Alpha virt. eigenvalues --    3.45584   3.47022   3.47470   3.49900   3.50486
 Alpha virt. eigenvalues --    3.53181   3.55365   3.55926   3.57726   3.60130
 Alpha virt. eigenvalues --    3.62838   3.70554   3.75520
          Condensed to atoms (all electrons):
 Mulliken charges:
               1
     1  N   -0.307363
     2  C    0.184467
     3  C    0.032852
     4  N   -0.230234
     5  C    0.137574
     6  H    0.022970
     7  N   -0.295444
     8  C    0.130116
     9  H    0.010471
    10  N   -0.287132
    11  C    0.246207
    12  C    0.080491
    13  N   -0.044154
    14  H    0.119136
    15  H    0.088296
    16  H    0.026936
    17  H    0.036050
    18  H    0.010434
    19  N   -0.305448
    20  C    0.257628
    21  C    0.181833
    22  N   -0.123800
    23  H    0.118064
    24  H    0.119961
    25  N   -0.311655
    26  C    0.251665
    27  N   -0.146917
    28  H    0.120808
    29  C    0.190859
    30  O   -0.323630
    31  C   -0.016218
    32  N   -0.206363
    33  C    0.105624
    34  H    0.020716
    35  H    0.015566
    36  H    0.033029
    37  H    0.027568
    38  H    0.053696
    39  H    0.056950
    40  H    0.075364
    41  H    0.016765
    42  C   -0.102946
    43  O   -0.290451
    44  C    0.182324
    45  H    0.126870
    46  N   -0.107069
    47  O   -0.352059
    48  C    0.338742
    49  H    0.045265
    50  C    0.180784
    51  C    0.046191
    52  N   -0.277622
    53  H    0.035355
    54  H    0.041349
    55  H    0.026228
    56  H    0.128406
    57  H    0.114467
    58  N   -0.023223
    59  C    0.042069
    60  C    0.229980
    61  N   -0.269675
    62  H    0.031313
    63  C    0.158816
    64  N   -0.297732
    65  H    0.036138
    66  C    0.128973
    67  N   -0.256486
    68  C    0.042861
    69  C    0.178228
    70  N   -0.310833
 Sum of Mulliken charges =  -0.00000
 Mulliken charges with hydrogens summed into heavy atoms:
               1
     1  N   -0.307363
     2  C    0.257887
     3  C    0.032852
     4  N   -0.230234
     5  C    0.160544
     7  N   -0.295444
     8  C    0.140587
    10  N   -0.287132
    11  C    0.246207
    12  C    0.080491
    13  N    0.163278
    19  N   -0.305448
    20  C    0.257628
    21  C    0.257995
    22  N    0.114224
    25  N   -0.311655
    26  C    0.251665
    27  N   -0.026108
    29  C    0.190859
    30  O   -0.323630
    31  C   -0.016218
    32  N   -0.206363
    33  C    0.126340
    42  C   -0.086181
    43  O   -0.290451
    44  C    0.182324
    46  N    0.019801
    47  O   -0.352059
    48  C    0.338742
    50  C    0.226049
    51  C    0.232201
    52  N   -0.277622
    58  N    0.219650
    59  C    0.042069
    60  C    0.229980
    61  N   -0.269675
    63  C    0.190128
    64  N   -0.297732
    66  C    0.165111
    67  N   -0.256486
    68  C    0.042861
    69  C    0.281161
    70  N   -0.310833
 Electronic spatial extent (au):  <R**2>=          22944.1190
 Charge=              0.0000 electrons
 Dipole moment (field-independent basis, Debye):
    X=             -4.2173    Y=              3.2441    Z=             -7.1861  Tot=              8.9415
 Quadrupole moment (field-independent basis, Debye-Ang):
   XX=           -146.0229   YY=           -238.7863   ZZ=           -245.4544
   XY=            -10.0934   XZ=              6.0023   YZ=            -17.1636
 Traceless Quadrupole moment (field-independent basis, Debye-Ang):
   XX=             64.0650   YY=            -28.6984   ZZ=            -35.3666
   XY=            -10.0934   XZ=              6.0023   YZ=            -17.1636
 Octapole moment (field-independent basis, Debye-Ang**2):
  XXX=             95.9705  YYY=             48.4656  ZZZ=            -86.9161  XYY=             -6.2524
  XXY=             12.6167  XXZ=           -143.8501  XZZ=            -90.2080  YZZ=              9.6644
  YYZ=            -17.2365  XYZ=             -8.5054
 Hexadecapole moment (field-independent basis, Debye-Ang**3):
 XXXX=         -16985.3856 YYYY=          -4545.1965 ZZZZ=          -3371.8752 XXXY=           -296.5858
 XXXZ=            805.1643 YYYX=           -114.8558 YYYZ=           -112.1877 ZZZX=             -6.4754
 ZZZY=           -253.4708 XXYY=          -4194.8549 XXZZ=          -3938.6318 YYZZ=          -1244.2117
 XXYZ=             -0.8877 YYXZ=            -11.8532 ZZXY=            136.9981
 N-N= 5.518754834038D+03 E-N=-1.581816204198D+04  KE= 2.037880105024D+03
 No NMR shielding tensors so no spin-rotation constants.
 Leave Link  601 at Thu Jan 25 17:15:47 2018, MaxMem=  4294967296 cpu:              48.7 elap:               1.7
 (Enter /share/apps/g16/l9999.exe)
 1\1\GINC-COMPUTE-0-3\SP\RwB97XD\CC-pVDZ\C23H27N17O3\SATYA\25-Jan-2018\
 0\\#p wb97xd/cc-pvdz sp scf=(maxcycles=20)\\Base pair stacking\\0,1\N,
 0,1.87144,2.79046,-6.56568\C,0,1.3859,4.03174,-7.19931\C,0,2.17691,0.6
 7978,-6.02806\N,0,3.03116,1.41408,-5.21825\C,0,2.81294,2.6563,-5.57456
 \H,0,3.3157,3.52244,-5.14331\N,0,1.01601,-1.10291,-7.04653\C,0,0.39688
 ,-0.17682,-7.78586\H,0,-0.32997,-0.56153,-8.49998\N,0,0.54012,1.14692,
 -7.77556\C,0,1.45562,1.51446,-6.86386\C,0,1.93172,-0.70104,-6.1382\N,0
 ,2.55082,-1.62398,-5.39923\H,0,3.23577,-1.37198,-4.71472\H,0,2.35119,-
 2.59825,-5.50458\H,0,2.15094,4.50696,-7.63412\H,0,0.69837,3.8077,-7.88
 941\H,0,0.97814,4.62523,-6.5054\N,0,-0.34726,3.3662,-3.61526\C,0,-0.73
 487,2.05323,-3.73328\C,0,-1.15087,4.53403,-4.02889\N,0,-3.08835,-0.313
 44,-4.69334\H,0,-3.17691,-1.30912,-4.69009\H,0,-3.85697,0.20923,-5.063
 15\N,0,-1.90556,1.61292,-4.24285\C,0,-1.98869,0.29447,-4.22313\N,0,-1.
 00197,-0.53141,-3.74165\H,0,-1.15185,-1.52836,-3.76604\C,0,0.21059,-0.
 10029,-3.21278\O,0,1.03392,-0.92888,-2.80498\C,0,0.31448,1.31388,-3.22
 728\N,0,1.34023,2.14594,-2.80019\C,0,0.90424,3.35093,-3.04941\H,0,1.45
 718,4.26715,-2.83949\H,0,-0.65401,5.05362,-4.72312\H,0,-2.02041,4.2202
 1,-4.40794\H,0,-1.32518,5.11816,-3.23692\H,0,-2.2382,-6.39552,-4.75762
 \H,0,-2.71276,-6.41903,-3.06089\H,0,-2.89875,-4.94221,-4.00735\H,0,2.0
 7314,-6.67441,-2.64076\C,0,1.30145,-5.93247,-2.84632\O,0,2.7158,-4.075
 26,-2.42501\C,0,1.62064,-4.54172,-2.73778\H,0,0.7601,-2.69741,-2.95292
 \N,0,0.57306,-3.68805,-3.01895\O,0,-1.56588,-3.20619,-3.61051\C,0,-0.7
 0409,-4.03643,-3.38098\H,0,-0.22902,-7.34776,-3.29398\C,0,0.0646,-6.30
 334,-3.19739\C,0,-2.28458,-5.81595,-3.84767\N,0,-0.93403,-5.39563,-3.4
 6412\H,0,-0.85905,-8.66282,-8.46571\H,0,-1.58408,-7.30616,-7.92173\H,0
 ,-1.77591,-8.71291,-7.11653\H,0,3.81936,-4.84225,-4.15511\H,0,3.81005,
 -6.54673,-4.22406\N,0,3.3825,-5.67994,-4.48309\C,0,2.27884,-5.64387,-5
 .23262\C,0,0.49158,-6.59407,-6.48345\N,0,-0.06073,-5.41557,-6.8159\H,0
 ,0.26149,-3.41281,-6.52312\C,0,0.64208,-4.40879,-6.30078\N,0,1.74774,-
 4.44287,-5.54982\H,0,0.82766,-9.80763,-6.37286\C,0,0.93839,-8.72899,-6
 .2579\N,0,1.89891,-8.1462,-5.58302\C,0,1.62746,-6.79238,-5.71796\C,0,-
 1.1369,-8.15743,-7.64878\N,0,0.05119,-7.84966,-6.82919\\Version=EM64L-
 G16RevA.03\State=1-A\HF=-2048.7297019\RMSD=7.566e-09\Dipole=-2.9283033
 ,-1.6499626,-1.0382323\Quadrupole=-11.4384421,47.8483865,-36.4099445,7
 .9591107,-3.1916569,0.4403967\PG=C01 [X(C23H27N17O3)]\\@


 OPTIMIST - A PESSIMIST WHO LACKS EXPERIENCE
 Job cpu time:       0 days  6 hours  6 minutes  4.3 seconds.
 Elapsed time:       0 days  0 hours 11 minutes 50.9 seconds.
 File lengths (MBytes):  RWF=    298 Int=      0 D2E=      0 Chk=     33 Scr=      1
 Normal termination of Gaussian 16 at Thu Jan 25 17:15:48 2018.
