 Entering Gaussian System, Link 0=g16
 Input=str5.-20.-2.0.com
 Output=str5.-20.-2.0.log
 Initial command:
 /share/apps/g16/l1.exe "/state/partition1/scr/Gau-21068.inp" -scrdir="/state/partition1/scr/"
 Entering Link 1 = /share/apps/g16/l1.exe PID=     21069.
  
 Copyright (c) 1988,1990,1992,1993,1995,1998,2003,2009,2016,
            Gaussian, Inc.  All Rights Reserved.
  
 This is part of the Gaussian(R) 16 program.  It is based on
 the Gaussian(R) 09 system (copyright 2009, Gaussian, Inc.),
 the Gaussian(R) 03 system (copyright 2003, Gaussian, Inc.),
 the Gaussian(R) 98 system (copyright 1998, Gaussian, Inc.),
 the Gaussian(R) 94 system (copyright 1995, Gaussian, Inc.),
 the Gaussian 92(TM) system (copyright 1992, Gaussian, Inc.),
 the Gaussian 90(TM) system (copyright 1990, Gaussian, Inc.),
 the Gaussian 88(TM) system (copyright 1988, Gaussian, Inc.),
 the Gaussian 86(TM) system (copyright 1986, Carnegie Mellon
 University), and the Gaussian 82(TM) system (copyright 1983,
 Carnegie Mellon University). Gaussian is a federally registered
 trademark of Gaussian, Inc.
  
 This software contains proprietary and confidential information,
 including trade secrets, belonging to Gaussian, Inc.
  
 This software is provided under written license and may be
 used, copied, transmitted, or stored only in accord with that
 written license.
  
 The following legend is applicable only to US Government
 contracts under FAR:
  
                    RESTRICTED RIGHTS LEGEND
  
 Use, reproduction and disclosure by the US Government is
 subject to restrictions as set forth in subparagraphs (a)
 and (c) of the Commercial Computer Software - Restricted
 Rights clause in FAR 52.227-19.
  
 Gaussian, Inc.
 340 Quinnipiac St., Bldg. 40, Wallingford CT 06492
  
  
 ---------------------------------------------------------------
 Warning -- This program may not be used in any manner that
 competes with the business of Gaussian, Inc. or will provide
 assistance to any competitor of Gaussian, Inc.  The licensee
 of this program is prohibited from giving any competitor of
 Gaussian, Inc. access to this program.  By using this program,
 the user acknowledges that Gaussian, Inc. is engaged in the
 business of creating and licensing software in the field of
 computational chemistry and represents and warrants to the
 licensee that it is not a competitor of Gaussian, Inc. and that
 it will not use this program in any manner prohibited above.
 ---------------------------------------------------------------
  

 Cite this work as:
 Gaussian 16, Revision A.03,
 M. J. Frisch, G. W. Trucks, H. B. Schlegel, G. E. Scuseria, 
 M. A. Robb, J. R. Cheeseman, G. Scalmani, V. Barone, 
 G. A. Petersson, H. Nakatsuji, X. Li, M. Caricato, A. V. Marenich, 
 J. Bloino, B. G. Janesko, R. Gomperts, B. Mennucci, H. P. Hratchian, 
 J. V. Ortiz, A. F. Izmaylov, J. L. Sonnenberg, D. Williams-Young, 
 F. Ding, F. Lipparini, F. Egidi, J. Goings, B. Peng, A. Petrone, 
 T. Henderson, D. Ranasinghe, V. G. Zakrzewski, J. Gao, N. Rega, 
 G. Zheng, W. Liang, M. Hada, M. Ehara, K. Toyota, R. Fukuda, 
 J. Hasegawa, M. Ishida, T. Nakajima, Y. Honda, O. Kitao, H. Nakai, 
 T. Vreven, K. Throssell, J. A. Montgomery, Jr., J. E. Peralta, 
 F. Ogliaro, M. J. Bearpark, J. J. Heyd, E. N. Brothers, K. N. Kudin, 
 V. N. Staroverov, T. A. Keith, R. Kobayashi, J. Normand, 
 K. Raghavachari, A. P. Rendell, J. C. Burant, S. S. Iyengar, 
 J. Tomasi, M. Cossi, J. M. Millam, M. Klene, C. Adamo, R. Cammi, 
 J. W. Ochterski, R. L. Martin, K. Morokuma, O. Farkas, 
 J. B. Foresman, and D. J. Fox, Gaussian, Inc., Wallingford CT, 2016.
 
 ******************************************
 Gaussian 16:  EM64L-G16RevA.03 25-Dec-2016
                25-Jan-2018 
 ******************************************
 %nprocshared=32
 Will use up to   32 processors via shared memory.
 %mem=32GB
 %chk=allatoms_t.chk
 ---------------------------------------
 #p wb97xd/cc-pvdz sp scf=(maxcycles=20)
 ---------------------------------------
 1/38=1,172=1/1;
 2/12=2,17=6,18=5,40=1/2;
 3/5=16,11=2,25=1,30=1,74=-58/1,2,3;
 4//1;
 5/5=2,7=20,38=5/2;
 6/7=2,8=2,9=2,10=2,28=1/1;
 99/5=1,9=1/99;
 Leave Link    1 at Thu Jan 25 17:15:48 2018, MaxMem=  4294967296 cpu:               2.7 elap:               0.1
 (Enter /share/apps/g16/l101.exe)
 ------------------
 Base pair stacking
 ------------------
 Symbolic Z-matrix:
 Charge =  0 Multiplicity = 1
 N                    -1.99014   9.86118  -5.52048 
 C                    -2.60672   11.11459  -5.04424 
 C                    -1.56645   7.73956  -5.91611 
 N                    -0.56015   8.45979  -6.5433 
 C                    -0.85568   9.70916  -6.27984 
 H                    -0.27511   10.5681  -6.61763 
 N                    -2.91285   5.97404  -5.12044 
 C                    -3.68142   6.91396  -4.56059 
 H                    -4.54409   6.54182  -4.00961 
 N                    -3.54499   8.23833  -4.57906 
 C                    -2.45526   8.58975  -5.2815 
 C                    -1.8238    6.35986  -5.82057 
 N                    -1.05536   5.4231   -6.38017 
 H                    -0.23944   5.66298  -6.90738 
 H                    -1.26893   4.45012  -6.29156 
 H                    -2.85615   11.68371  -5.82787 
 H                    -3.42649   10.90279  -4.51297 
 H                    -1.95691   11.61019  -4.46794 
 N                    -1.3661    6.81374  -2.83178 
 C                    -1.75283   5.50073  -2.71135 
 C                    -2.23571   7.98452  -2.59997 
 N                    -4.19874   3.1382   -2.00587 
 H                    -4.27497   2.14196  -1.97516 
 H                    -5.02013   3.66323  -1.78143 
 N                    -2.98234   5.06305  -2.36381 
 C                    -3.04721   3.74378  -2.33322 
 N                    -1.99004   2.91476  -2.62064 
 H                    -2.13105   1.91741  -2.57182 
 C                    -0.71612   3.34313  -2.98049 
 O                     0.16842   2.5118   -3.21968 
 C                    -0.63099   4.75814  -3.01765 
 N                     0.43853   5.58824  -3.32421 
 C                    -0.04324   6.79528  -3.20107 
 H                     0.52514   7.71081  -3.36848 
 H                    -2.29439   8.52897  -3.436 
 H                    -3.14917   7.67267  -2.3419 
 H                    -1.8554    8.54384  -1.86422 
 H                    -3.65114  -2.93035  -2.77498 
 H                    -2.92721  -3.00748  -1.17043 
 H                    -3.66154  -1.50612  -1.73438 
 H                     1.01113  -3.22494  -3.9252 
 C                     0.29502  -2.48548  -3.56657 
 O                     1.66961  -0.62649  -4.09738 
 C                     0.62399  -1.09518  -3.64816 
 H                    -0.15495   0.74549  -3.20823 
 N                    -0.35111  -0.24475  -3.16733 
 O                    -2.36641   0.23158  -2.23518 
 C                    -1.56671  -0.59588  -2.63576 
 H                    -1.18096  -3.90321  -2.96879 
 C                    -0.88288  -2.859    -3.05309 
 C                    -3.09706  -2.37764  -2.03096 
 N                    -1.8106   -1.95445  -2.59103 
 H                    -5.21972  -1.54591  -4.21988 
 H                    -4.7176   -0.30283  -3.28997 
 H                    -4.07004  -1.78726  -3.087 
 H                     0.15431   2.21028  -7.69499 
 H                    -0.0437    0.52326  -7.85269 
 N                    -0.31079   1.3752   -7.40093 
 C                    -1.24573   1.39566  -6.44876 
 C                    -2.87226   0.43058  -5.00488 
 N                    -3.21072   1.58929  -4.41558 
 H                    -2.71323   3.57583  -4.49785 
 C                    -2.50051   2.59538  -4.92181 
 N                    -1.56364   2.57693  -5.8755 
 H                    -2.94473  -2.74516  -5.60616 
 C                    -2.73022  -1.67613  -5.59648 
 N                    -1.84804  -1.08609  -6.36544 
 C                    -1.928     0.25001  -6.00052 
 C                    -4.43209  -1.13913  -3.75709 
 N                    -3.38697  -0.81813  -4.7484 
 
 ITRead=  0  0  0  0  0  0  0  0  0  0  0  0  0  0  0  0  0  0  0  0
 ITRead=  0  0  0  0  0  0  0  0  0  0  0  0  0  0  0  0  0  0  0  0
 ITRead=  0  0  0  0  0  0  0  0  0  0  0  0  0  0  0  0  0  0  0  0
 ITRead=  0  0  0  0  0  0  0  0  0  0
 MicOpt= -1 -1 -1 -1 -1 -1 -1 -1 -1 -1 -1 -1 -1 -1 -1 -1 -1 -1 -1 -1
 MicOpt= -1 -1 -1 -1 -1 -1 -1 -1 -1 -1 -1 -1 -1 -1 -1 -1 -1 -1 -1 -1
 MicOpt= -1 -1 -1 -1 -1 -1 -1 -1 -1 -1 -1 -1 -1 -1 -1 -1 -1 -1 -1 -1
 MicOpt= -1 -1 -1 -1 -1 -1 -1 -1 -1 -1
 NAtoms=     70 NQM=       70 NQMF=       0 NMMI=      0 NMMIF=      0
                NMic=       0 NMicF=      0.
                    Isotopes and Nuclear Properties:
 (Nuclear quadrupole moments (NQMom) in fm**2, nuclear magnetic moments (NMagM)
  in nuclear magnetons)

  Atom         1           2           3           4           5           6           7           8           9          10
 IAtWgt=          14          12          12          14          12           1          14          12           1          14
 AtmWgt=  14.0030740  12.0000000  12.0000000  14.0030740  12.0000000   1.0078250  14.0030740  12.0000000   1.0078250  14.0030740
 NucSpn=           2           0           0           2           0           1           2           0           1           2
 AtZEff=  -0.0000000  -0.0000000  -0.0000000  -0.0000000  -0.0000000  -0.0000000  -0.0000000  -0.0000000  -0.0000000  -0.0000000
 NQMom=    2.0440000   0.0000000   0.0000000   2.0440000   0.0000000   0.0000000   2.0440000   0.0000000   0.0000000   2.0440000
 NMagM=    0.4037610   0.0000000   0.0000000   0.4037610   0.0000000   2.7928460   0.4037610   0.0000000   2.7928460   0.4037610
 AtZNuc=   7.0000000   6.0000000   6.0000000   7.0000000   6.0000000   1.0000000   7.0000000   6.0000000   1.0000000   7.0000000

  Atom        11          12          13          14          15          16          17          18          19          20
 IAtWgt=          12          12          14           1           1           1           1           1          14          12
 AtmWgt=  12.0000000  12.0000000  14.0030740   1.0078250   1.0078250   1.0078250   1.0078250   1.0078250  14.0030740  12.0000000
 NucSpn=           0           0           2           1           1           1           1           1           2           0
 AtZEff=  -0.0000000  -0.0000000  -0.0000000  -0.0000000  -0.0000000  -0.0000000  -0.0000000  -0.0000000  -0.0000000  -0.0000000
 NQMom=    0.0000000   0.0000000   2.0440000   0.0000000   0.0000000   0.0000000   0.0000000   0.0000000   2.0440000   0.0000000
 NMagM=    0.0000000   0.0000000   0.4037610   2.7928460   2.7928460   2.7928460   2.7928460   2.7928460   0.4037610   0.0000000
 AtZNuc=   6.0000000   6.0000000   7.0000000   1.0000000   1.0000000   1.0000000   1.0000000   1.0000000   7.0000000   6.0000000

  Atom        21          22          23          24          25          26          27          28          29          30
 IAtWgt=          12          14           1           1          14          12          14           1          12          16
 AtmWgt=  12.0000000  14.0030740   1.0078250   1.0078250  14.0030740  12.0000000  14.0030740   1.0078250  12.0000000  15.9949146
 NucSpn=           0           2           1           1           2           0           2           1           0           0
 AtZEff=  -0.0000000  -0.0000000  -0.0000000  -0.0000000  -0.0000000  -0.0000000  -0.0000000  -0.0000000  -0.0000000  -0.0000000
 NQMom=    0.0000000   2.0440000   0.0000000   0.0000000   2.0440000   0.0000000   2.0440000   0.0000000   0.0000000   0.0000000
 NMagM=    0.0000000   0.4037610   2.7928460   2.7928460   0.4037610   0.0000000   0.4037610   2.7928460   0.0000000   0.0000000
 AtZNuc=   6.0000000   7.0000000   1.0000000   1.0000000   7.0000000   6.0000000   7.0000000   1.0000000   6.0000000   8.0000000

  Atom        31          32          33          34          35          36          37          38          39          40
 IAtWgt=          12          14          12           1           1           1           1           1           1           1
 AtmWgt=  12.0000000  14.0030740  12.0000000   1.0078250   1.0078250   1.0078250   1.0078250   1.0078250   1.0078250   1.0078250
 NucSpn=           0           2           0           1           1           1           1           1           1           1
 AtZEff=  -0.0000000  -0.0000000  -0.0000000  -0.0000000  -0.0000000  -0.0000000  -0.0000000  -0.0000000  -0.0000000  -0.0000000
 NQMom=    0.0000000   2.0440000   0.0000000   0.0000000   0.0000000   0.0000000   0.0000000   0.0000000   0.0000000   0.0000000
 NMagM=    0.0000000   0.4037610   0.0000000   2.7928460   2.7928460   2.7928460   2.7928460   2.7928460   2.7928460   2.7928460
 AtZNuc=   6.0000000   7.0000000   6.0000000   1.0000000   1.0000000   1.0000000   1.0000000   1.0000000   1.0000000   1.0000000

  Atom        41          42          43          44          45          46          47          48          49          50
 IAtWgt=           1          12          16          12           1          14          16          12           1          12
 AtmWgt=   1.0078250  12.0000000  15.9949146  12.0000000   1.0078250  14.0030740  15.9949146  12.0000000   1.0078250  12.0000000
 NucSpn=           1           0           0           0           1           2           0           0           1           0
 AtZEff=  -0.0000000  -0.0000000  -0.0000000  -0.0000000  -0.0000000  -0.0000000  -0.0000000  -0.0000000  -0.0000000  -0.0000000
 NQMom=    0.0000000   0.0000000   0.0000000   0.0000000   0.0000000   2.0440000   0.0000000   0.0000000   0.0000000   0.0000000
 NMagM=    2.7928460   0.0000000   0.0000000   0.0000000   2.7928460   0.4037610   0.0000000   0.0000000   2.7928460   0.0000000
 AtZNuc=   1.0000000   6.0000000   8.0000000   6.0000000   1.0000000   7.0000000   8.0000000   6.0000000   1.0000000   6.0000000

  Atom        51          52          53          54          55          56          57          58          59          60
 IAtWgt=          12          14           1           1           1           1           1          14          12          12
 AtmWgt=  12.0000000  14.0030740   1.0078250   1.0078250   1.0078250   1.0078250   1.0078250  14.0030740  12.0000000  12.0000000
 NucSpn=           0           2           1           1           1           1           1           2           0           0
 AtZEff=  -0.0000000  -0.0000000  -0.0000000  -0.0000000  -0.0000000  -0.0000000  -0.0000000  -0.0000000  -0.0000000  -0.0000000
 NQMom=    0.0000000   2.0440000   0.0000000   0.0000000   0.0000000   0.0000000   0.0000000   2.0440000   0.0000000   0.0000000
 NMagM=    0.0000000   0.4037610   2.7928460   2.7928460   2.7928460   2.7928460   2.7928460   0.4037610   0.0000000   0.0000000
 AtZNuc=   6.0000000   7.0000000   1.0000000   1.0000000   1.0000000   1.0000000   1.0000000   7.0000000   6.0000000   6.0000000

  Atom        61          62          63          64          65          66          67          68          69          70
 IAtWgt=          14           1          12          14           1          12          14          12          12          14
 AtmWgt=  14.0030740   1.0078250  12.0000000  14.0030740   1.0078250  12.0000000  14.0030740  12.0000000  12.0000000  14.0030740
 NucSpn=           2           1           0           2           1           0           2           0           0           2
 AtZEff=  -0.0000000  -0.0000000  -0.0000000  -0.0000000  -0.0000000  -0.0000000  -0.0000000  -0.0000000  -0.0000000  -0.0000000
 NQMom=    2.0440000   0.0000000   0.0000000   2.0440000   0.0000000   0.0000000   2.0440000   0.0000000   0.0000000   2.0440000
 NMagM=    0.4037610   2.7928460   0.0000000   0.4037610   2.7928460   0.0000000   0.4037610   0.0000000   0.0000000   0.4037610
 AtZNuc=   7.0000000   1.0000000   6.0000000   7.0000000   1.0000000   6.0000000   7.0000000   6.0000000   6.0000000   7.0000000
 Leave Link  101 at Thu Jan 25 17:15:48 2018, MaxMem=  4294967296 cpu:               7.1 elap:               0.3
 (Enter /share/apps/g16/l202.exe)
 Stoichiometry    C23H27N17O3
 Framework group  C1[X(C23H27N17O3)]
 Deg. of freedom   204
 Full point group                 C1      NOp   1
 Largest Abelian subgroup         C1      NOp   1
 Largest concise Abelian subgroup C1      NOp   1
                         Standard orientation:                         
 ---------------------------------------------------------------------
 Center     Atomic      Atomic             Coordinates (Angstroms)
 Number     Number       Type             X           Y           Z
 ---------------------------------------------------------------------
      1          7           0       -6.734059    0.481998   -0.417642
      2          6           0       -7.946881   -0.350243   -0.537849
      3          6           0       -4.654271    1.195059   -0.475363
      4          7           0       -5.410148    2.243502    0.028777
      5          6           0       -6.632888    1.771944    0.043380
      6          1           0       -7.507489    2.327157    0.383606
      7          7           0       -2.849925   -0.117913   -1.239161
      8          6           0       -3.746139   -1.085567   -1.458312
      9          1           0       -3.340727   -2.011842   -1.863185
     10          7           0       -5.061772   -1.080843   -1.253376
     11          6           0       -5.456534    0.102526   -0.755152
     12          6           0       -3.278678    1.060846   -0.737396
     13          7           0       -2.385585    2.028007   -0.517952
     14          1           0       -2.658175    2.916647   -0.147504
     15          1           0       -1.414112    1.897365   -0.716262
     16          1           0       -8.598921    0.095118   -1.151598
     17          1           0       -7.701895   -1.246338   -0.906799
     18          1           0       -8.365137   -0.465618    0.363119
     19          7           0       -3.413783   -1.107748    1.413722
     20          6           0       -2.105110   -1.342745    1.067009
     21          6           0       -4.575527   -1.886475    0.939784
     22          7           0        0.257065   -3.189704   -0.685303
     23          1           0        1.249090   -3.191257   -0.808318
     24          1           0       -0.262078   -3.889984   -1.176028
     25          7           0       -1.664191   -2.316700    0.241755
     26          6           0       -0.350657   -2.289397    0.102115
     27          7           0        0.470087   -1.378794    0.722336
     28          1           0        1.463493   -1.433000    0.557472
     29          6           0        0.038248   -0.368139    1.575540
     30          8           0        0.862025    0.402131    2.084271
     31          6           0       -1.370677   -0.384762    1.735338
     32          7           0       -2.201546    0.435172    2.486525
     33          6           0       -3.401036   -0.030145    2.265358
     34          1           0       -4.314814    0.376804    2.699731
     35          1           0       -5.203756   -1.284911    0.447581
     36          1           0       -4.261211   -2.610874    0.327648
     37          1           0       -5.047409   -2.293308    1.721204
     38          1           0        6.226861   -1.833228   -1.175408
     39          1           0        6.484958   -2.693952    0.340225
     40          1           0        4.916492   -2.774728   -0.462739
     41          1           0        6.515496    1.858491    1.896149
     42          6           0        5.799363    1.097479    1.585916
     43          8           0        3.929790    2.207353    2.534589
     44          6           0        4.416391    1.261904    1.914801
     45          1           0        2.611905    0.323182    1.689002
     46          7           0        3.596094    0.242395    1.475524
     47          8           0        3.168676   -1.727524    0.429599
     48          6           0        3.970068   -0.877495    0.775859
     49          1           0        7.234490   -0.156179    0.629586
     50          6           0        6.194671    0.015886    0.904363
     51          6           0        5.766612   -2.143949   -0.249296
     52          7           0        5.319786   -0.964305    0.496715
     53          1           0        4.664481   -1.687746   -3.176072
     54          1           0        3.535394   -2.225941   -2.128401
     55          1           0        5.048062   -1.906691   -1.604971
     56          1           0        0.704595    4.018711   -0.564329
     57          1           0        2.361393    4.144388   -0.950771
     58          7           0        1.553804    3.565078   -0.834901
     59          6           0        1.607993    2.246319   -1.032627
     60          6           0        2.675707    0.191663   -1.580482
     61          7           0        1.575353   -0.561401   -1.417523
     62          1           0       -0.396547   -0.337937   -0.905391
     63          6           0        0.540362    0.195749   -1.059192
     64          7           0        0.484065    1.516732   -0.860634
     65          1           0        5.770760    0.850220   -2.243103
     66          6           0        4.713826    0.895693   -1.978989
     67          7           0        4.069933    1.994123   -1.668277
     68          6           0        2.776531    1.561859   -1.413363
     69          6           0        4.326309   -1.624484   -2.237114
     70          7           0        3.931221   -0.232655   -1.946027
 ---------------------------------------------------------------------
 Rotational constants (GHZ):           0.2054874           0.0496126           0.0479759
 Leave Link  202 at Thu Jan 25 17:15:48 2018, MaxMem=  4294967296 cpu:               0.3 elap:               0.0
 (Enter /share/apps/g16/l301.exe)
 Standard basis: CC-pVDZ (5D, 7F)
 Ernie: Thresh=  0.10000D-02 Tol=  0.10000D-05 Strict=F.
 Ernie:  86 primitive shells out of 1081 were deleted.
 There are   780 symmetry adapted cartesian basis functions of A   symmetry.
 There are   737 symmetry adapted basis functions of A   symmetry.
   737 basis functions,  1608 primitive gaussians,   780 cartesian basis functions
   154 alpha electrons      154 beta electrons
       nuclear repulsion energy      5659.1920530411 Hartrees.
 IExCor= 4639 DFT=T Ex+Corr=wB97XD ExCW=0 ScaHFX=  1.000000
 ScaDFX=  1.000000  1.000000  1.000000  1.000000 ScalE2=  1.000000  1.000000
 IRadAn=      5 IRanWt=     -1 IRanGd=            0 ICorTp=0 IEmpDi=121
 HFx  wShort=  0.000000 wLong=  0.200000 cFull=  0.222036 cShort=  0.000000 cLong=  0.777964
 DFx  wShort=  0.000000 wLong=  0.200000 cFull=  0.000000 cShort=  0.000000 cLong=  1.000000
 NAtoms=   70 NActive=   70 NUniq=   70 SFac= 1.00D+00 NAtFMM=   60 NAOKFM=T Big=T
 Integral buffers will be    131072 words long.
 Raffenetti 2 integral format.
 Two-electron integral symmetry is turned on.
 R6Disp:  Grimme-D2 Dispersion energy=       -0.0818391348 Hartrees.
 Nuclear repulsion after empirical dispersion term =     5659.1102139063 Hartrees.
 Leave Link  301 at Thu Jan 25 17:15:48 2018, MaxMem=  4294967296 cpu:               2.1 elap:               0.1
 (Enter /share/apps/g16/l302.exe)
 NPDir=0 NMtPBC=     1 NCelOv=     1 NCel=       1 NClECP=     1 NCelD=      1
         NCelK=      1 NCelE2=     1 NClLst=     1 CellRange=     0.0.
 One-electron integrals computed using PRISM.
 One-electron integral symmetry used in STVInt
 NBasis=   737 RedAO= T EigKep=  6.33D-04  NBF=   737
 NBsUse=   737 1.00D-06 EigRej= -1.00D+00 NBFU=   737
 Precomputing XC quadrature grid using
 IXCGrd= 4 IRadAn=           5 IRanWt=          -1 IRanGd=           0 AccXCQ= 0.00D+00.
 Generated NRdTot=       0 NPtTot=           0 NUsed=           0 NTot=          32
 NSgBfM=   763   761   761   763   763 MxSgAt=    70 MxSgA2=    70.
 Leave Link  302 at Thu Jan 25 17:15:53 2018, MaxMem=  4294967296 cpu:             135.8 elap:               4.3
 (Enter /share/apps/g16/l303.exe)
 DipDrv:  MaxL=1.
 Leave Link  303 at Thu Jan 25 17:15:53 2018, MaxMem=  4294967296 cpu:              12.6 elap:               0.4
 (Enter /share/apps/g16/l401.exe)
 ExpMin= 1.22D-01 ExpMax= 1.17D+04 ExpMxC= 4.01D+02 IAcc=3 IRadAn=         5 AccDes= 0.00D+00
 Harris functional with IExCor= 4639 and IRadAn=       5 diagonalized for initial guess.
 HarFok:  IExCor= 4639 AccDes= 0.00D+00 IRadAn=         5 IDoV= 1 UseB2=F ITyADJ=14
 ICtDFT=  3500011 ScaDFX=  1.000000  1.000000  1.000000  1.000000
 FoFCou: FMM=F IPFlag=           0 FMFlag=      100000 FMFlg1=        2001
         NFxFlg=           0 DoJE=T BraDBF=F KetDBF=T FulRan=T
         wScrn=  0.000000 ICntrl=       500 IOpCl=  0 I1Cent=   200000004 NGrid=           0
         NMat0=    1 NMatS0=      1 NMatT0=    0 NMatD0=    1 NMtDS0=    0 NMtDT0=    0
 Petite list used in FoFCou.
 Harris En= -1963.69438282469    
 JPrj=0 DoOrth=F DoCkMO=F.
 Leave Link  401 at Thu Jan 25 17:16:06 2018, MaxMem=  4294967296 cpu:             417.8 elap:              13.1
 (Enter /share/apps/g16/l502.exe)
 Integral symmetry usage will be decided dynamically.
 Closed shell SCF:
 Using DIIS extrapolation, IDIIS=  1040.
 NGot=  4294967296 LenX=  4293717438 LenY=  4293108258
 Requested convergence on RMS density matrix=1.00D-08 within  20 cycles.
 Requested convergence on MAX density matrix=1.00D-06.
 Requested convergence on             energy=1.00D-06.
 No special actions if energy rises.
 Fock matrices will be formed incrementally for  20 cycles.
 Integral accuracy reduced to 1.0D-05 until final iterations.

 Cycle   1  Pass 0  IDiag  1:
 FoFJK:  IHMeth= 1 ICntrl=       0 DoSepK=T KAlg= 0 I1Cent=           0 FoldK=F
 IRaf=         1 NMat=       1 IRICut=       1 DoRegI=T DoRafI=F ISym2E= 0 IDoP0=0 IntGTp=1.
 FoFCou: FMM=T IPFlag=           0 FMFlag=      100000 FMFlg1=        2001
         NFxFlg=           0 DoJE=T BraDBF=F KetDBF=F FulRan=T
         wScrn=  0.000000 ICntrl=       500 IOpCl=  0 I1Cent=           0 NGrid=           0
         NMat0=    1 NMatS0=      1 NMatT0=    0 NMatD0=    1 NMtDS0=    0 NMtDT0=    0
 Symmetry not used in FoFCou.
 FMM levels:  10  Number of levels for PrismC:   9
 E= -2048.14173552564    
 DIIS: error= 2.51D-02 at cycle   1 NSaved=   1.
 NSaved= 1 IEnMin= 1 EnMin= -2048.14173552564     IErMin= 1 ErrMin= 2.51D-02
 ErrMax= 2.51D-02  0.00D+00 EMaxC= 1.00D-01 BMatC= 8.51D-01 BMatP= 8.51D-01
 IDIUse=3 WtCom= 7.49D-01 WtEn= 2.51D-01
 Coeff-Com:  0.100D+01
 Coeff-En:   0.100D+01
 Coeff:      0.100D+01
 Gap=     0.241 Goal=   None    Shift=    0.000
 GapD=    0.241 DampG=1.000 DampE=0.500 DampFc=0.5000 IDamp=-1.
 Damping current iteration by 5.00D-01
 RMSDP=1.69D-03 MaxDP=1.25D-01              OVMax= 2.18D-01

 Cycle   2  Pass 0  IDiag  1:
 RMSU=  8.44D-04    CP:  9.97D-01
 E= -2048.34419138187     Delta-E=       -0.202455856231 Rises=F Damp=T
 DIIS: error= 1.21D-02 at cycle   2 NSaved=   2.
 NSaved= 2 IEnMin= 2 EnMin= -2048.34419138187     IErMin= 2 ErrMin= 1.21D-02
 ErrMax= 1.21D-02  0.00D+00 EMaxC= 1.00D-01 BMatC= 1.48D-01 BMatP= 8.51D-01
 IDIUse=3 WtCom= 8.79D-01 WtEn= 1.21D-01
 Coeff-Com: -0.170D+00 0.117D+01
 Coeff-En:   0.000D+00 0.100D+01
 Coeff:     -0.149D+00 0.115D+01
 Gap=     0.361 Goal=   None    Shift=    0.000
 RMSDP=6.27D-04 MaxDP=3.49D-02 DE=-2.02D-01 OVMax= 1.54D-01

 Cycle   3  Pass 0  IDiag  1:
 RMSU=  6.17D-04    CP:  9.93D-01  1.11D+00
 E= -2048.53081799113     Delta-E=       -0.186626609261 Rises=F Damp=F
 DIIS: error= 5.38D-03 at cycle   3 NSaved=   3.
 NSaved= 3 IEnMin= 3 EnMin= -2048.53081799113     IErMin= 3 ErrMin= 5.38D-03
 ErrMax= 5.38D-03  0.00D+00 EMaxC= 1.00D-01 BMatC= 7.12D-02 BMatP= 1.48D-01
 IDIUse=3 WtCom= 9.46D-01 WtEn= 5.38D-02
 Coeff-Com: -0.227D+00 0.552D+00 0.675D+00
 Coeff-En:   0.000D+00 0.000D+00 0.100D+01
 Coeff:     -0.214D+00 0.522D+00 0.692D+00
 Gap=     0.269 Goal=   None    Shift=    0.000
 RMSDP=3.87D-04 MaxDP=3.24D-02 DE=-1.87D-01 OVMax= 5.84D-02

 Cycle   4  Pass 0  IDiag  1:
 RMSU=  2.21D-04    CP:  9.93D-01  1.40D+00  6.63D-01
 E= -2048.58509692790     Delta-E=       -0.054278936767 Rises=F Damp=F
 DIIS: error= 2.18D-03 at cycle   4 NSaved=   4.
 NSaved= 4 IEnMin= 4 EnMin= -2048.58509692790     IErMin= 4 ErrMin= 2.18D-03
 ErrMax= 2.18D-03  0.00D+00 EMaxC= 1.00D-01 BMatC= 9.70D-03 BMatP= 7.12D-02
 IDIUse=3 WtCom= 9.78D-01 WtEn= 2.18D-02
 Coeff-Com: -0.959D-01 0.186D+00 0.369D+00 0.541D+00
 Coeff-En:   0.000D+00 0.000D+00 0.568D-01 0.943D+00
 Coeff:     -0.938D-01 0.182D+00 0.362D+00 0.550D+00
 Gap=     0.276 Goal=   None    Shift=    0.000
 RMSDP=1.34D-04 MaxDP=1.30D-02 DE=-5.43D-02 OVMax= 1.63D-02

 Cycle   5  Pass 0  IDiag  1:
 RMSU=  6.50D-05    CP:  9.92D-01  1.38D+00  7.96D-01  6.29D-01
 E= -2048.59315819820     Delta-E=       -0.008061270302 Rises=F Damp=F
 DIIS: error= 4.27D-04 at cycle   5 NSaved=   5.
 NSaved= 5 IEnMin= 5 EnMin= -2048.59315819820     IErMin= 5 ErrMin= 4.27D-04
 ErrMax= 4.27D-04  0.00D+00 EMaxC= 1.00D-01 BMatC= 3.18D-04 BMatP= 9.70D-03
 IDIUse=3 WtCom= 9.96D-01 WtEn= 4.27D-03
 Coeff-Com: -0.257D-01 0.439D-01 0.120D+00 0.241D+00 0.621D+00
 Coeff-En:   0.000D+00 0.000D+00 0.000D+00 0.000D+00 0.100D+01
 Coeff:     -0.256D-01 0.437D-01 0.119D+00 0.240D+00 0.623D+00
 Gap=     0.276 Goal=   None    Shift=    0.000
 RMSDP=2.74D-05 MaxDP=2.26D-03 DE=-8.06D-03 OVMax= 3.62D-03

 Failed to achieve initial convergence to 1.0D-08 in  6 cycles.
 Switch to full accuracy anyway.
 Cycle   6  Pass 1  IDiag  1:
 E= -2048.59348863554     Delta-E=       -0.000330437339 Rises=F Damp=F
 DIIS: error= 2.15D-04 at cycle   1 NSaved=   1.
 NSaved= 1 IEnMin= 1 EnMin= -2048.59348863554     IErMin= 1 ErrMin= 2.15D-04
 ErrMax= 2.15D-04  0.00D+00 EMaxC= 1.00D-01 BMatC= 8.47D-05 BMatP= 8.47D-05
 IDIUse=3 WtCom= 9.98D-01 WtEn= 2.15D-03
 Coeff-Com:  0.100D+01
 Coeff-En:   0.100D+01
 Coeff:      0.100D+01
 Gap=     0.276 Goal=   None    Shift=    0.000
 RMSDP=2.74D-05 MaxDP=2.26D-03 DE=-3.30D-04 OVMax= 2.26D-03

 Cycle   7  Pass 1  IDiag  1:
 RMSU=  1.25D-04    CP:  1.00D+00
 E= -2048.59354959071     Delta-E=       -0.000060955168 Rises=F Damp=F
 DIIS: error= 2.17D-04 at cycle   2 NSaved=   2.
 NSaved= 2 IEnMin= 2 EnMin= -2048.59354959071     IErMin= 1 ErrMin= 2.15D-04
 ErrMax= 2.17D-04  0.00D+00 EMaxC= 1.00D-01 BMatC= 4.83D-05 BMatP= 8.47D-05
 IDIUse=3 WtCom= 9.98D-01 WtEn= 2.17D-03
 Coeff-Com:  0.406D+00 0.594D+00
 Coeff-En:   0.000D+00 0.100D+01
 Coeff:      0.405D+00 0.595D+00
 Gap=     0.276 Goal=   None    Shift=    0.000
 RMSDP=1.22D-05 MaxDP=1.44D-03 DE=-6.10D-05 OVMax= 1.61D-03

 Cycle   8  Pass 1  IDiag  1:
 RMSU=  1.18D-05    CP:  1.00D+00  1.02D+00
 E= -2048.59358329358     Delta-E=       -0.000033702877 Rises=F Damp=F
 DIIS: error= 1.15D-04 at cycle   3 NSaved=   3.
 NSaved= 3 IEnMin= 3 EnMin= -2048.59358329358     IErMin= 3 ErrMin= 1.15D-04
 ErrMax= 1.15D-04  0.00D+00 EMaxC= 1.00D-01 BMatC= 1.19D-05 BMatP= 4.83D-05
 IDIUse=3 WtCom= 9.99D-01 WtEn= 1.15D-03
 Coeff-Com: -0.188D-01 0.320D+00 0.699D+00
 Coeff-En:   0.000D+00 0.146D+00 0.854D+00
 Coeff:     -0.188D-01 0.319D+00 0.699D+00
 Gap=     0.276 Goal=   None    Shift=    0.000
 RMSDP=6.12D-06 MaxDP=5.87D-04 DE=-3.37D-05 OVMax= 6.18D-04

 Cycle   9  Pass 1  IDiag  1:
 RMSU=  4.16D-06    CP:  1.00D+00  1.05D+00  7.60D-01
 E= -2048.59359397872     Delta-E=       -0.000010685135 Rises=F Damp=F
 DIIS: error= 2.64D-05 at cycle   4 NSaved=   4.
 NSaved= 4 IEnMin= 4 EnMin= -2048.59359397872     IErMin= 4 ErrMin= 2.64D-05
 ErrMax= 2.64D-05  0.00D+00 EMaxC= 1.00D-01 BMatC= 5.74D-07 BMatP= 1.19D-05
 IDIUse=1 WtCom= 1.00D+00 WtEn= 0.00D+00
 Coeff-Com: -0.298D-01 0.923D-01 0.265D+00 0.672D+00
 Coeff:     -0.298D-01 0.923D-01 0.265D+00 0.672D+00
 Gap=     0.276 Goal=   None    Shift=    0.000
 RMSDP=1.52D-06 MaxDP=1.32D-04 DE=-1.07D-05 OVMax= 4.81D-04

 Cycle  10  Pass 1  IDiag  1:
 RMSU=  1.38D-06    CP:  1.00D+00  1.06D+00  7.92D-01  1.08D+00
 E= -2048.59359488101     Delta-E=       -0.000000902289 Rises=F Damp=F
 DIIS: error= 9.22D-06 at cycle   5 NSaved=   5.
 NSaved= 5 IEnMin= 5 EnMin= -2048.59359488101     IErMin= 5 ErrMin= 9.22D-06
 ErrMax= 9.22D-06  0.00D+00 EMaxC= 1.00D-01 BMatC= 1.35D-07 BMatP= 5.74D-07
 IDIUse=1 WtCom= 1.00D+00 WtEn= 0.00D+00
 Coeff-Com: -0.369D-02-0.528D-01-0.109D+00 0.213D+00 0.952D+00
 Coeff:     -0.369D-02-0.528D-01-0.109D+00 0.213D+00 0.952D+00
 Gap=     0.276 Goal=   None    Shift=    0.000
 RMSDP=1.26D-06 MaxDP=7.27D-05 DE=-9.02D-07 OVMax= 2.54D-04

 Cycle  11  Pass 1  IDiag  1:
 RMSU=  5.43D-07    CP:  1.00D+00  1.06D+00  8.02D-01  1.35D+00  1.16D+00
 E= -2048.59359515482     Delta-E=       -0.000000273817 Rises=F Damp=F
 DIIS: error= 4.61D-06 at cycle   6 NSaved=   6.
 NSaved= 6 IEnMin= 6 EnMin= -2048.59359515482     IErMin= 6 ErrMin= 4.61D-06
 ErrMax= 4.61D-06  0.00D+00 EMaxC= 1.00D-01 BMatC= 3.30D-08 BMatP= 1.35D-07
 IDIUse=1 WtCom= 1.00D+00 WtEn= 0.00D+00
 Coeff-Com:  0.452D-02-0.466D-01-0.114D+00-0.191D-02 0.516D+00 0.642D+00
 Coeff:      0.452D-02-0.466D-01-0.114D+00-0.191D-02 0.516D+00 0.642D+00
 Gap=     0.276 Goal=   None    Shift=    0.000
 RMSDP=4.14D-07 MaxDP=3.04D-05 DE=-2.74D-07 OVMax= 1.27D-04

 Cycle  12  Pass 1  IDiag  1:
 RMSU=  2.00D-07    CP:  1.00D+00  1.06D+00  8.04D-01  1.42D+00  1.29D+00
                    CP:  9.29D-01
 E= -2048.59359520254     Delta-E=       -0.000000047715 Rises=F Damp=F
 DIIS: error= 9.04D-07 at cycle   7 NSaved=   7.
 NSaved= 7 IEnMin= 7 EnMin= -2048.59359520254     IErMin= 7 ErrMin= 9.04D-07
 ErrMax= 9.04D-07  0.00D+00 EMaxC= 1.00D-01 BMatC= 8.64D-10 BMatP= 3.30D-08
 IDIUse=1 WtCom= 1.00D+00 WtEn= 0.00D+00
 Coeff-Com:  0.112D-02-0.826D-02-0.217D-01-0.721D-02 0.630D-01 0.144D+00
 Coeff-Com:  0.829D+00
 Coeff:      0.112D-02-0.826D-02-0.217D-01-0.721D-02 0.630D-01 0.144D+00
 Coeff:      0.829D+00
 Gap=     0.276 Goal=   None    Shift=    0.000
 RMSDP=8.68D-08 MaxDP=4.37D-06 DE=-4.77D-08 OVMax= 2.29D-05

 Cycle  13  Pass 1  IDiag  1:
 RMSU=  5.25D-08    CP:  1.00D+00  1.06D+00  8.04D-01  1.43D+00  1.31D+00
                    CP:  1.01D+00  1.13D+00
 E= -2048.59359520404     Delta-E=       -0.000000001503 Rises=F Damp=F
 DIIS: error= 5.73D-07 at cycle   8 NSaved=   8.
 NSaved= 8 IEnMin= 8 EnMin= -2048.59359520404     IErMin= 8 ErrMin= 5.73D-07
 ErrMax= 5.73D-07  0.00D+00 EMaxC= 1.00D-01 BMatC= 3.54D-10 BMatP= 8.64D-10
 IDIUse=1 WtCom= 1.00D+00 WtEn= 0.00D+00
 Coeff-Com: -0.676D-03 0.874D-02 0.203D-01-0.101D-02-0.110D+00-0.998D-01
 Coeff-Com:  0.423D+00 0.760D+00
 Coeff:     -0.676D-03 0.874D-02 0.203D-01-0.101D-02-0.110D+00-0.998D-01
 Coeff:      0.423D+00 0.760D+00
 Gap=     0.276 Goal=   None    Shift=    0.000
 RMSDP=4.92D-08 MaxDP=2.74D-06 DE=-1.50D-09 OVMax= 1.06D-05

 Cycle  14  Pass 1  IDiag  1:
 RMSU=  2.88D-08    CP:  1.00D+00  1.06D+00  8.04D-01  1.44D+00  1.31D+00
                    CP:  1.05D+00  1.27D+00  1.06D+00
 E= -2048.59359520472     Delta-E=       -0.000000000679 Rises=F Damp=F
 DIIS: error= 1.07D-07 at cycle   9 NSaved=   9.
 NSaved= 9 IEnMin= 9 EnMin= -2048.59359520472     IErMin= 9 ErrMin= 1.07D-07
 ErrMax= 1.07D-07  0.00D+00 EMaxC= 1.00D-01 BMatC= 2.53D-11 BMatP= 3.54D-10
 IDIUse=1 WtCom= 1.00D+00 WtEn= 0.00D+00
 Coeff-Com: -0.373D-03 0.420D-02 0.100D-01 0.553D-03-0.481D-01-0.529D-01
 Coeff-Com:  0.785D-01 0.270D+00 0.738D+00
 Coeff:     -0.373D-03 0.420D-02 0.100D-01 0.553D-03-0.481D-01-0.529D-01
 Coeff:      0.785D-01 0.270D+00 0.738D+00
 Gap=     0.276 Goal=   None    Shift=    0.000
 RMSDP=1.33D-08 MaxDP=6.41D-07 DE=-6.79D-10 OVMax= 3.17D-06

 Cycle  15  Pass 1  IDiag  1:
 RMSU=  8.90D-09    CP:  1.00D+00  1.06D+00  8.04D-01  1.44D+00  1.32D+00
                    CP:  1.06D+00  1.30D+00  1.19D+00  1.13D+00
 E= -2048.59359520472     Delta-E=        0.000000000003 Rises=F Damp=F
 DIIS: error= 6.01D-08 at cycle  10 NSaved=  10.
 NSaved=10 IEnMin= 9 EnMin= -2048.59359520472     IErMin=10 ErrMin= 6.01D-08
 ErrMax= 6.01D-08  0.00D+00 EMaxC= 1.00D-01 BMatC= 4.37D-12 BMatP= 2.53D-11
 IDIUse=1 WtCom= 1.00D+00 WtEn= 0.00D+00
 Coeff-Com:  0.128D-04-0.377D-03-0.797D-03 0.127D-03 0.609D-02 0.230D-02
 Coeff-Com: -0.528D-01-0.666D-01 0.258D+00 0.854D+00
 Coeff:      0.128D-04-0.377D-03-0.797D-03 0.127D-03 0.609D-02 0.230D-02
 Coeff:     -0.528D-01-0.666D-01 0.258D+00 0.854D+00
 Gap=     0.276 Goal=   None    Shift=    0.000
 RMSDP=6.49D-09 MaxDP=3.50D-07 DE= 2.73D-12 OVMax= 1.41D-06

 SCF Done:  E(RwB97XD) =  -2048.59359520     A.U. after   15 cycles
            NFock= 15  Conv=0.65D-08     -V/T= 2.0049
 KE= 2.038679247747D+03 PE=-1.609908485011D+04 EE= 6.352701793248D+03
 Leave Link  502 at Thu Jan 25 17:29:00 2018, MaxMem=  4294967296 cpu:           24011.6 elap:             773.7
 (Enter /share/apps/g16/l601.exe)
 Copying SCF densities to generalized density rwf, IOpCl= 0 IROHF=0.

 **********************************************************************

            Population analysis using the SCF density.

 **********************************************************************

 Orbital symmetries:
       Occupied  (A) (A) (A) (A) (A) (A) (A) (A) (A) (A) (A) (A)
                 (A) (A) (A) (A) (A) (A) (A) (A) (A) (A) (A) (A)
                 (A) (A) (A) (A) (A) (A) (A) (A) (A) (A) (A) (A)
                 (A) (A) (A) (A) (A) (A) (A) (A) (A) (A) (A) (A)
                 (A) (A) (A) (A) (A) (A) (A) (A) (A) (A) (A) (A)
                 (A) (A) (A) (A) (A) (A) (A) (A) (A) (A) (A) (A)
                 (A) (A) (A) (A) (A) (A) (A) (A) (A) (A) (A) (A)
                 (A) (A) (A) (A) (A) (A) (A) (A) (A) (A) (A) (A)
                 (A) (A) (A) (A) (A) (A) (A) (A) (A) (A) (A) (A)
                 (A) (A) (A) (A) (A) (A) (A) (A) (A) (A) (A) (A)
                 (A) (A) (A) (A) (A) (A) (A) (A) (A) (A) (A) (A)
                 (A) (A) (A) (A) (A) (A) (A) (A) (A) (A) (A) (A)
                 (A) (A) (A) (A) (A) (A) (A) (A) (A) (A)
       Virtual   (A) (A) (A) (A) (A) (A) (A) (A) (A) (A) (A) (A)
                 (A) (A) (A) (A) (A) (A) (A) (A) (A) (A) (A) (A)
                 (A) (A) (A) (A) (A) (A) (A) (A) (A) (A) (A) (A)
                 (A) (A) (A) (A) (A) (A) (A) (A) (A) (A) (A) (A)
                 (A) (A) (A) (A) (A) (A) (A) (A) (A) (A) (A) (A)
                 (A) (A) (A) (A) (A) (A) (A) (A) (A) (A) (A) (A)
                 (A) (A) (A) (A) (A) (A) (A) (A) (A) (A) (A) (A)
                 (A) (A) (A) (A) (A) (A) (A) (A) (A) (A) (A) (A)
                 (A) (A) (A) (A) (A) (A) (A) (A) (A) (A) (A) (A)
                 (A) (A) (A) (A) (A) (A) (A) (A) (A) (A) (A) (A)
                 (A) (A) (A) (A) (A) (A) (A) (A) (A) (A) (A) (A)
                 (A) (A) (A) (A) (A) (A) (A) (A) (A) (A) (A) (A)
                 (A) (A) (A) (A) (A) (A) (A) (A) (A) (A) (A) (A)
                 (A) (A) (A) (A) (A) (A) (A) (A) (A) (A) (A) (A)
                 (A) (A) (A) (A) (A) (A) (A) (A) (A) (A) (A) (A)
                 (A) (A) (A) (A) (A) (A) (A) (A) (A) (A) (A) (A)
                 (A) (A) (A) (A) (A) (A) (A) (A) (A) (A) (A) (A)
                 (A) (A) (A) (A) (A) (A) (A) (A) (A) (A) (A) (A)
                 (A) (A) (A) (A) (A) (A) (A) (A) (A) (A) (A) (A)
                 (A) (A) (A) (A) (A) (A) (A) (A) (A) (A) (A) (A)
                 (A) (A) (A) (A) (A) (A) (A) (A) (A) (A) (A) (A)
                 (A) (A) (A) (A) (A) (A) (A) (A) (A) (A) (A) (A)
                 (A) (A) (A) (A) (A) (A) (A) (A) (A) (A) (A) (A)
                 (A) (A) (A) (A) (A) (A) (A) (A) (A) (A) (A) (A)
                 (A) (A) (A) (A) (A) (A) (A) (A) (A) (A) (A) (A)
                 (A) (A) (A) (A) (A) (A) (A) (A) (A) (A) (A) (A)
                 (A) (A) (A) (A) (A) (A) (A) (A) (A) (A) (A) (A)
                 (A) (A) (A) (A) (A) (A) (A) (A) (A) (A) (A) (A)
                 (A) (A) (A) (A) (A) (A) (A) (A) (A) (A) (A) (A)
                 (A) (A) (A) (A) (A) (A) (A) (A) (A) (A) (A) (A)
                 (A) (A) (A) (A) (A) (A) (A) (A) (A) (A) (A) (A)
                 (A) (A) (A) (A) (A) (A) (A) (A) (A) (A) (A) (A)
                 (A) (A) (A) (A) (A) (A) (A) (A) (A) (A) (A) (A)
                 (A) (A) (A) (A) (A) (A) (A) (A) (A) (A) (A) (A)
                 (A) (A) (A) (A) (A) (A) (A) (A) (A) (A) (A) (A)
                 (A) (A) (A) (A) (A) (A) (A) (A) (A) (A) (A) (A)
                 (A) (A) (A) (A) (A) (A) (A) (A) (A) (A) (A) (A)
                 (A) (A) (A) (A) (A) (A) (A) (A) (A) (A) (A) (A)
                 (A) (A) (A) (A) (A) (A) (A) (A) (A) (A) (A) (A)
                 (A) (A) (A) (A) (A) (A) (A) (A) (A) (A) (A) (A)
                 (A) (A) (A) (A) (A) (A) (A) (A) (A) (A) (A) (A)
                 (A) (A) (A) (A) (A) (A) (A) (A) (A) (A) (A) (A)
                 (A) (A) (A) (A) (A) (A) (A) (A) (A) (A) (A) (A)
                 (A) (A) (A) (A) (A) (A) (A) (A) (A) (A) (A) (A)
                 (A) (A) (A) (A) (A) (A) (A) (A) (A) (A) (A) (A)
                 (A) (A) (A) (A) (A) (A) (A) (A) (A) (A) (A) (A)
                 (A) (A) (A) (A) (A) (A) (A) (A) (A) (A) (A) (A)
                 (A) (A) (A) (A) (A) (A) (A) (A) (A) (A) (A) (A)
                 (A) (A) (A) (A) (A) (A) (A)
 The electronic state is 1-A.
 Alpha  occ. eigenvalues --  -19.26189 -19.22208 -19.20538 -14.53207 -14.51112
 Alpha  occ. eigenvalues --  -14.50660 -14.48160 -14.47912 -14.46813 -14.46085
 Alpha  occ. eigenvalues --  -14.46003 -14.44047 -14.43527 -14.43187 -14.43053
 Alpha  occ. eigenvalues --  -14.42795 -14.42018 -14.41657 -14.41173 -14.40429
 Alpha  occ. eigenvalues --  -10.45902 -10.40620 -10.40280 -10.38599 -10.38109
 Alpha  occ. eigenvalues --  -10.37912 -10.36786 -10.36714 -10.36648 -10.35838
 Alpha  occ. eigenvalues --  -10.35785 -10.34799 -10.34710 -10.34028 -10.33883
 Alpha  occ. eigenvalues --  -10.32920 -10.32523 -10.31443 -10.31146 -10.30902
 Alpha  occ. eigenvalues --  -10.30282 -10.27978 -10.27776  -1.20138  -1.13913
 Alpha  occ. eigenvalues --   -1.13325  -1.13211  -1.13046  -1.10324  -1.10109
 Alpha  occ. eigenvalues --   -1.08340  -1.07925  -1.06590  -1.03611  -1.03047
 Alpha  occ. eigenvalues --   -1.02372  -0.99718  -0.99304  -0.98682  -0.98234
 Alpha  occ. eigenvalues --   -0.95972  -0.95634  -0.94314  -0.92248  -0.88300
 Alpha  occ. eigenvalues --   -0.86031  -0.85676  -0.83973  -0.83520  -0.83203
 Alpha  occ. eigenvalues --   -0.81429  -0.79436  -0.75922  -0.74544  -0.74263
 Alpha  occ. eigenvalues --   -0.74018  -0.73800  -0.73326  -0.72805  -0.69565
 Alpha  occ. eigenvalues --   -0.67945  -0.67357  -0.66966  -0.66549  -0.65186
 Alpha  occ. eigenvalues --   -0.64334  -0.63954  -0.63318  -0.63063  -0.62466
 Alpha  occ. eigenvalues --   -0.61658  -0.61321  -0.60299  -0.59723  -0.59448
 Alpha  occ. eigenvalues --   -0.58799  -0.58034  -0.57854  -0.57141  -0.56986
 Alpha  occ. eigenvalues --   -0.56772  -0.56604  -0.55951  -0.55163  -0.54740
 Alpha  occ. eigenvalues --   -0.54405  -0.53671  -0.53178  -0.53016  -0.52390
 Alpha  occ. eigenvalues --   -0.52089  -0.51638  -0.51465  -0.50581  -0.50458
 Alpha  occ. eigenvalues --   -0.50249  -0.49738  -0.49525  -0.49140  -0.48675
 Alpha  occ. eigenvalues --   -0.48477  -0.48317  -0.47911  -0.47382  -0.47130
 Alpha  occ. eigenvalues --   -0.47006  -0.45938  -0.45314  -0.43363  -0.42731
 Alpha  occ. eigenvalues --   -0.40395  -0.39900  -0.39769  -0.38870  -0.37170
 Alpha  occ. eigenvalues --   -0.36944  -0.36453  -0.36316  -0.35903  -0.35251
 Alpha  occ. eigenvalues --   -0.34853  -0.33875  -0.33502  -0.33353  -0.33259
 Alpha  occ. eigenvalues --   -0.32543  -0.32407  -0.31778  -0.31681  -0.31626
 Alpha  occ. eigenvalues --   -0.30896  -0.27962  -0.26750  -0.25163
 Alpha virt. eigenvalues --    0.02455   0.05224   0.06198   0.07835   0.08339
 Alpha virt. eigenvalues --    0.08718   0.09649   0.10603   0.10905   0.11859
 Alpha virt. eigenvalues --    0.12050   0.12791   0.14557   0.14771   0.14848
 Alpha virt. eigenvalues --    0.15254   0.16086   0.16622   0.17754   0.18157
 Alpha virt. eigenvalues --    0.18265   0.19076   0.19193   0.19676   0.19911
 Alpha virt. eigenvalues --    0.20664   0.21102   0.21453   0.22093   0.22188
 Alpha virt. eigenvalues --    0.22518   0.22850   0.23440   0.23822   0.24480
 Alpha virt. eigenvalues --    0.25001   0.25359   0.26005   0.26301   0.26656
 Alpha virt. eigenvalues --    0.27261   0.27624   0.28248   0.28747   0.28865
 Alpha virt. eigenvalues --    0.29106   0.29482   0.30406   0.30721   0.32206
 Alpha virt. eigenvalues --    0.32645   0.33141   0.33413   0.33739   0.34196
 Alpha virt. eigenvalues --    0.35095   0.35535   0.35974   0.36511   0.36941
 Alpha virt. eigenvalues --    0.37609   0.37635   0.38548   0.39079   0.39425
 Alpha virt. eigenvalues --    0.39953   0.40877   0.41379   0.41600   0.42073
 Alpha virt. eigenvalues --    0.42381   0.42860   0.43392   0.44182   0.44947
 Alpha virt. eigenvalues --    0.45513   0.46218   0.46610   0.47285   0.47510
 Alpha virt. eigenvalues --    0.47733   0.48553   0.49000   0.49065   0.49900
 Alpha virt. eigenvalues --    0.50254   0.50780   0.51038   0.51635   0.52045
 Alpha virt. eigenvalues --    0.52287   0.52631   0.53027   0.53723   0.54022
 Alpha virt. eigenvalues --    0.54582   0.54879   0.55283   0.55620   0.56255
 Alpha virt. eigenvalues --    0.56789   0.57156   0.57628   0.57777   0.58695
 Alpha virt. eigenvalues --    0.58890   0.59563   0.59689   0.60213   0.60617
 Alpha virt. eigenvalues --    0.60938   0.61190   0.61768   0.62006   0.62385
 Alpha virt. eigenvalues --    0.62822   0.63394   0.63687   0.63854   0.64129
 Alpha virt. eigenvalues --    0.64295   0.64660   0.65225   0.65917   0.66392
 Alpha virt. eigenvalues --    0.66771   0.67171   0.67518   0.67922   0.68293
 Alpha virt. eigenvalues --    0.68618   0.69099   0.69314   0.70833   0.70919
 Alpha virt. eigenvalues --    0.71542   0.72176   0.72444   0.72723   0.73173
 Alpha virt. eigenvalues --    0.73614   0.74035   0.74386   0.74589   0.74948
 Alpha virt. eigenvalues --    0.75404   0.75655   0.76047   0.76083   0.76452
 Alpha virt. eigenvalues --    0.76724   0.77345   0.77573   0.77991   0.78139
 Alpha virt. eigenvalues --    0.78694   0.78786   0.78900   0.79276   0.79856
 Alpha virt. eigenvalues --    0.80118   0.80571   0.81252   0.81542   0.81741
 Alpha virt. eigenvalues --    0.82171   0.82829   0.83175   0.83380   0.83740
 Alpha virt. eigenvalues --    0.83790   0.84093   0.84937   0.85086   0.85667
 Alpha virt. eigenvalues --    0.86416   0.87268   0.87551   0.87878   0.88228
 Alpha virt. eigenvalues --    0.88808   0.89243   0.89356   0.89864   0.90372
 Alpha virt. eigenvalues --    0.90774   0.91305   0.91692   0.92506   0.92617
 Alpha virt. eigenvalues --    0.93854   0.94093   0.94664   0.95046   0.95671
 Alpha virt. eigenvalues --    0.96015   0.96721   0.96938   0.97678   0.98233
 Alpha virt. eigenvalues --    0.98389   0.98935   0.99610   1.00439   1.00549
 Alpha virt. eigenvalues --    1.00664   1.01629   1.02351   1.02483   1.02571
 Alpha virt. eigenvalues --    1.03467   1.03666   1.04328   1.04974   1.05484
 Alpha virt. eigenvalues --    1.05673   1.05867   1.06472   1.08152   1.08679
 Alpha virt. eigenvalues --    1.08966   1.08999   1.09449   1.09925   1.10842
 Alpha virt. eigenvalues --    1.11533   1.11669   1.12230   1.12795   1.13530
 Alpha virt. eigenvalues --    1.14110   1.14361   1.15065   1.15365   1.15587
 Alpha virt. eigenvalues --    1.15937   1.16220   1.16769   1.17616   1.17812
 Alpha virt. eigenvalues --    1.18144   1.19019   1.19143   1.19632   1.19827
 Alpha virt. eigenvalues --    1.20203   1.20588   1.21008   1.21500   1.21797
 Alpha virt. eigenvalues --    1.22193   1.22605   1.23271   1.23869   1.24126
 Alpha virt. eigenvalues --    1.24573   1.25029   1.25805   1.25860   1.26255
 Alpha virt. eigenvalues --    1.27093   1.27491   1.27748   1.27852   1.28311
 Alpha virt. eigenvalues --    1.28795   1.30334   1.30776   1.31356   1.31736
 Alpha virt. eigenvalues --    1.32352   1.32655   1.33150   1.33768   1.34020
 Alpha virt. eigenvalues --    1.34959   1.35006   1.35148   1.36379   1.36912
 Alpha virt. eigenvalues --    1.37741   1.38376   1.39087   1.39767   1.40216
 Alpha virt. eigenvalues --    1.41251   1.41685   1.42018   1.43131   1.43481
 Alpha virt. eigenvalues --    1.43805   1.44713   1.45461   1.45884   1.46392
 Alpha virt. eigenvalues --    1.48004   1.48792   1.49042   1.49857   1.49899
 Alpha virt. eigenvalues --    1.51382   1.51946   1.52380   1.52776   1.54451
 Alpha virt. eigenvalues --    1.54949   1.55122   1.55323   1.56578   1.57459
 Alpha virt. eigenvalues --    1.58024   1.58193   1.59917   1.60753   1.61258
 Alpha virt. eigenvalues --    1.61557   1.62326   1.62797   1.63424   1.63617
 Alpha virt. eigenvalues --    1.64120   1.64912   1.65367   1.65722   1.66380
 Alpha virt. eigenvalues --    1.66713   1.67671   1.67785   1.68203   1.68831
 Alpha virt. eigenvalues --    1.69156   1.69983   1.70320   1.70663   1.71222
 Alpha virt. eigenvalues --    1.71779   1.72102   1.72511   1.72684   1.72756
 Alpha virt. eigenvalues --    1.74034   1.74177   1.74391   1.75367   1.75447
 Alpha virt. eigenvalues --    1.75740   1.76129   1.76543   1.76861   1.77029
 Alpha virt. eigenvalues --    1.77385   1.77780   1.78425   1.78660   1.78869
 Alpha virt. eigenvalues --    1.79394   1.79754   1.80395   1.80791   1.80872
 Alpha virt. eigenvalues --    1.81132   1.81676   1.82218   1.82939   1.83118
 Alpha virt. eigenvalues --    1.83486   1.83928   1.84022   1.84758   1.85070
 Alpha virt. eigenvalues --    1.85762   1.85920   1.86400   1.87637   1.87969
 Alpha virt. eigenvalues --    1.88339   1.88865   1.88982   1.89451   1.90063
 Alpha virt. eigenvalues --    1.90394   1.90482   1.91366   1.91812   1.91974
 Alpha virt. eigenvalues --    1.92301   1.93237   1.93859   1.94020   1.94842
 Alpha virt. eigenvalues --    1.95333   1.96046   1.96485   1.96857   1.97695
 Alpha virt. eigenvalues --    1.98243   1.98636   1.99217   1.99752   2.00324
 Alpha virt. eigenvalues --    2.00821   2.01651   2.02569   2.02893   2.03956
 Alpha virt. eigenvalues --    2.04033   2.05377   2.05976   2.06266   2.07171
 Alpha virt. eigenvalues --    2.08066   2.08642   2.09200   2.10678   2.10806
 Alpha virt. eigenvalues --    2.11136   2.11759   2.12500   2.13195   2.13645
 Alpha virt. eigenvalues --    2.14752   2.14862   2.15677   2.15925   2.16510
 Alpha virt. eigenvalues --    2.16818   2.18474   2.19361   2.19944   2.20370
 Alpha virt. eigenvalues --    2.21272   2.22283   2.22750   2.23272   2.23420
 Alpha virt. eigenvalues --    2.24212   2.25307   2.26185   2.26472   2.26825
 Alpha virt. eigenvalues --    2.27001   2.27862   2.28651   2.29190   2.29857
 Alpha virt. eigenvalues --    2.30498   2.30945   2.31343   2.31751   2.32068
 Alpha virt. eigenvalues --    2.32974   2.33337   2.34126   2.34556   2.34822
 Alpha virt. eigenvalues --    2.35812   2.36442   2.37024   2.37357   2.37797
 Alpha virt. eigenvalues --    2.38983   2.39290   2.39840   2.40073   2.41168
 Alpha virt. eigenvalues --    2.41201   2.41839   2.42228   2.42730   2.43428
 Alpha virt. eigenvalues --    2.43649   2.44122   2.44703   2.45563   2.46234
 Alpha virt. eigenvalues --    2.47219   2.47579   2.48097   2.49394   2.49667
 Alpha virt. eigenvalues --    2.50955   2.51510   2.51931   2.53408   2.53825
 Alpha virt. eigenvalues --    2.54042   2.54794   2.55972   2.56748   2.57302
 Alpha virt. eigenvalues --    2.57933   2.58849   2.59924   2.60742   2.61350
 Alpha virt. eigenvalues --    2.63146   2.63920   2.64323   2.64715   2.65401
 Alpha virt. eigenvalues --    2.66550   2.67023   2.67380   2.68036   2.68776
 Alpha virt. eigenvalues --    2.68969   2.69924   2.70329   2.71360   2.71722
 Alpha virt. eigenvalues --    2.72702   2.73151   2.74077   2.74835   2.75541
 Alpha virt. eigenvalues --    2.75975   2.77134   2.78166   2.78316   2.79607
 Alpha virt. eigenvalues --    2.79832   2.80406   2.80913   2.81669   2.81982
 Alpha virt. eigenvalues --    2.82239   2.82778   2.83533   2.84468   2.84757
 Alpha virt. eigenvalues --    2.85097   2.86047   2.86342   2.87067   2.87850
 Alpha virt. eigenvalues --    2.88466   2.89100   2.89597   2.90961   2.92244
 Alpha virt. eigenvalues --    2.93535   2.94738   2.95278   2.97366   2.97963
 Alpha virt. eigenvalues --    2.99272   3.00244   3.00583   3.00862   3.02694
 Alpha virt. eigenvalues --    3.05069   3.06095   3.07844   3.08740   3.09768
 Alpha virt. eigenvalues --    3.10993   3.11581   3.14608   3.14995   3.15627
 Alpha virt. eigenvalues --    3.16741   3.17543   3.20206   3.22202   3.22685
 Alpha virt. eigenvalues --    3.23498   3.23996   3.24981   3.28574   3.33890
 Alpha virt. eigenvalues --    3.45853   3.47857   3.49275   3.50132   3.50805
 Alpha virt. eigenvalues --    3.53525   3.54566   3.56733   3.58833   3.60431
 Alpha virt. eigenvalues --    3.64091   3.71389   3.75034
          Condensed to atoms (all electrons):
 Mulliken charges:
               1
     1  N   -0.308620
     2  C    0.179489
     3  C    0.061721
     4  N   -0.251152
     5  C    0.129802
     6  H    0.031125
     7  N   -0.252129
     8  C    0.103904
     9  H    0.019036
    10  N   -0.292563
    11  C    0.214127
    12  C    0.077112
    13  N   -0.034896
    14  H    0.106409
    15  H    0.087793
    16  H    0.031924
    17  H    0.037539
    18  H    0.028094
    19  N   -0.291150
    20  C    0.221135
    21  C    0.253447
    22  N   -0.093185
    23  H    0.112358
    24  H    0.112720
    25  N   -0.277712
    26  C    0.187626
    27  N   -0.130150
    28  H    0.138187
    29  C    0.143058
    30  O   -0.325087
    31  C    0.026204
    32  N   -0.225053
    33  C    0.116485
    34  H    0.022873
    35  H   -0.005422
    36  H    0.020820
    37  H   -0.001017
    38  H    0.044789
    39  H    0.048310
    40  H    0.068218
    41  H    0.033531
    42  C   -0.081437
    43  O   -0.258844
    44  C    0.182252
    45  H    0.132445
    46  N   -0.119081
    47  O   -0.335048
    48  C    0.324606
    49  H    0.045307
    50  C    0.147269
    51  C    0.148616
    52  N   -0.297070
    53  H    0.021754
    54  H    0.032189
    55  H   -0.074045
    56  H    0.116305
    57  H    0.121256
    58  N   -0.069106
    59  C    0.137017
    60  C    0.205446
    61  N   -0.295917
    62  H    0.023305
    63  C    0.189541
    64  N   -0.313224
    65  H    0.023356
    66  C    0.116677
    67  N   -0.250387
    68  C    0.038717
    69  C    0.207099
    70  N   -0.288695
 Sum of Mulliken charges =  -0.00000
 Mulliken charges with hydrogens summed into heavy atoms:
               1
     1  N   -0.308620
     2  C    0.277046
     3  C    0.061721
     4  N   -0.251152
     5  C    0.160927
     7  N   -0.252129
     8  C    0.122940
    10  N   -0.292563
    11  C    0.214127
    12  C    0.077112
    13  N    0.159306
    19  N   -0.291150
    20  C    0.221135
    21  C    0.267828
    22  N    0.131894
    25  N   -0.277712
    26  C    0.187626
    27  N    0.008037
    29  C    0.143058
    30  O   -0.325087
    31  C    0.026204
    32  N   -0.225053
    33  C    0.139358
    42  C   -0.047906
    43  O   -0.258844
    44  C    0.182252
    46  N    0.013365
    47  O   -0.335048
    48  C    0.324606
    50  C    0.192576
    51  C    0.309933
    52  N   -0.297070
    58  N    0.168454
    59  C    0.137017
    60  C    0.205446
    61  N   -0.295917
    63  C    0.212845
    64  N   -0.313224
    66  C    0.140033
    67  N   -0.250387
    68  C    0.038717
    69  C    0.186997
    70  N   -0.288695
 Electronic spatial extent (au):  <R**2>=          22691.5847
 Charge=             -0.0000 electrons
 Dipole moment (field-independent basis, Debye):
    X=              3.6047    Y=             -5.2414    Z=             -5.5330  Tot=              8.4309
 Quadrupole moment (field-independent basis, Debye-Ang):
   XX=           -140.1024   YY=           -226.2832   ZZ=           -264.1295
   XY=            -19.8282   XZ=            -18.4032   YZ=             -3.5349
 Traceless Quadrupole moment (field-independent basis, Debye-Ang):
   XX=             70.0693   YY=            -16.1115   ZZ=            -53.9578
   XY=            -19.8282   XZ=            -18.4032   YZ=             -3.5349
 Octapole moment (field-independent basis, Debye-Ang**2):
  XXX=            -52.2980  YYY=              9.5951  ZZZ=            -41.2849  XYY=             36.9310
  XXY=           -128.0740  XXZ=            -11.8555  XZZ=              7.2199  YZZ=            -50.8009
  YYZ=            -47.7655  XYZ=             12.5086
 Hexadecapole moment (field-independent basis, Debye-Ang**3):
 XXXX=         -16398.4010 YYYY=          -3175.9191 ZZZZ=          -3004.8828 XXXY=           -558.0572
 XXXZ=           -306.3327 YYYX=            -44.2322 YYYZ=             57.0157 ZZZX=           -104.3594
 ZZZY=            -20.3738 XXYY=          -4532.7301 XXZZ=          -4390.1701 YYZZ=          -1145.4391
 XXYZ=             40.9082 YYXZ=            -83.1125 ZZXY=           -113.9780
 N-N= 5.659110213906D+03 E-N=-1.609908484173D+04  KE= 2.038679247747D+03
 No NMR shielding tensors so no spin-rotation constants.
 Leave Link  601 at Thu Jan 25 17:29:02 2018, MaxMem=  4294967296 cpu:              46.6 elap:               1.6
 (Enter /share/apps/g16/l9999.exe)
 1\1\GINC-COMPUTE-0-3\SP\RwB97XD\CC-pVDZ\C23H27N17O3\SATYA\25-Jan-2018\
 0\\#p wb97xd/cc-pvdz sp scf=(maxcycles=20)\\Base pair stacking\\0,1\N,
 0,-1.99014,9.86118,-5.52048\C,0,-2.60672,11.11459,-5.04424\C,0,-1.5664
 5,7.73956,-5.91611\N,0,-0.56015,8.45979,-6.5433\C,0,-0.85568,9.70916,-
 6.27984\H,0,-0.27511,10.5681,-6.61763\N,0,-2.91285,5.97404,-5.12044\C,
 0,-3.68142,6.91396,-4.56059\H,0,-4.54409,6.54182,-4.00961\N,0,-3.54499
 ,8.23833,-4.57906\C,0,-2.45526,8.58975,-5.2815\C,0,-1.8238,6.35986,-5.
 82057\N,0,-1.05536,5.4231,-6.38017\H,0,-0.23944,5.66298,-6.90738\H,0,-
 1.26893,4.45012,-6.29156\H,0,-2.85615,11.68371,-5.82787\H,0,-3.42649,1
 0.90279,-4.51297\H,0,-1.95691,11.61019,-4.46794\N,0,-1.3661,6.81374,-2
 .83178\C,0,-1.75283,5.50073,-2.71135\C,0,-2.23571,7.98452,-2.59997\N,0
 ,-4.19874,3.1382,-2.00587\H,0,-4.27497,2.14196,-1.97516\H,0,-5.02013,3
 .66323,-1.78143\N,0,-2.98234,5.06305,-2.36381\C,0,-3.04721,3.74378,-2.
 33322\N,0,-1.99004,2.91476,-2.62064\H,0,-2.13105,1.91741,-2.57182\C,0,
 -0.71612,3.34313,-2.98049\O,0,0.16842,2.5118,-3.21968\C,0,-0.63099,4.7
 5814,-3.01765\N,0,0.43853,5.58824,-3.32421\C,0,-0.04324,6.79528,-3.201
 07\H,0,0.52514,7.71081,-3.36848\H,0,-2.29439,8.52897,-3.436\H,0,-3.149
 17,7.67267,-2.3419\H,0,-1.8554,8.54384,-1.86422\H,0,-3.65114,-2.93035,
 -2.77498\H,0,-2.92721,-3.00748,-1.17043\H,0,-3.66154,-1.50612,-1.73438
 \H,0,1.01113,-3.22494,-3.9252\C,0,0.29502,-2.48548,-3.56657\O,0,1.6696
 1,-0.62649,-4.09738\C,0,0.62399,-1.09518,-3.64816\H,0,-0.15495,0.74549
 ,-3.20823\N,0,-0.35111,-0.24475,-3.16733\O,0,-2.36641,0.23158,-2.23518
 \C,0,-1.56671,-0.59588,-2.63576\H,0,-1.18096,-3.90321,-2.96879\C,0,-0.
 88288,-2.859,-3.05309\C,0,-3.09706,-2.37764,-2.03096\N,0,-1.8106,-1.95
 445,-2.59103\H,0,-5.21972,-1.54591,-4.21988\H,0,-4.7176,-0.30283,-3.28
 997\H,0,-4.07004,-1.78726,-3.087\H,0,0.15431,2.21028,-7.69499\H,0,-0.0
 437,0.52326,-7.85269\N,0,-0.31079,1.3752,-7.40093\C,0,-1.24573,1.39566
 ,-6.44876\C,0,-2.87226,0.43058,-5.00488\N,0,-3.21072,1.58929,-4.41558\
 H,0,-2.71323,3.57583,-4.49785\C,0,-2.50051,2.59538,-4.92181\N,0,-1.563
 64,2.57693,-5.8755\H,0,-2.94473,-2.74516,-5.60616\C,0,-2.73022,-1.6761
 3,-5.59648\N,0,-1.84804,-1.08609,-6.36544\C,0,-1.928,0.25001,-6.00052\
 C,0,-4.43209,-1.13913,-3.75709\N,0,-3.38697,-0.81813,-4.7484\\Version=
 EM64L-G16RevA.03\State=1-A\HF=-2048.5935952\RMSD=6.486e-09\Dipole=-2.9
 384861,-1.4428654,0.5344924\Quadrupole=-33.7643874,51.4037173,-17.6393
 3,16.2882251,-14.2293442,-11.4116433\PG=C01 [X(C23H27N17O3)]\\@


 Once you get people laughing, they're
 listening and you can tell them almost anything.
                                 -- Herb Gardner
 Job cpu time:       0 days  6 hours 50 minutes 39.1 seconds.
 Elapsed time:       0 days  0 hours 13 minutes 13.8 seconds.
 File lengths (MBytes):  RWF=    298 Int=      0 D2E=      0 Chk=     33 Scr=      1
 Normal termination of Gaussian 16 at Thu Jan 25 17:29:02 2018.
