 Entering Gaussian System, Link 0=g16
 Input=str5.-5.0.0.com
 Output=str5.-5.0.0.log
 Initial command:
 /share/apps/g16/l1.exe "/state/partition1/scr/Gau-457.inp" -scrdir="/state/partition1/scr/"
 Entering Link 1 = /share/apps/g16/l1.exe PID=       458.
  
 Copyright (c) 1988,1990,1992,1993,1995,1998,2003,2009,2016,
            Gaussian, Inc.  All Rights Reserved.
  
 This is part of the Gaussian(R) 16 program.  It is based on
 the Gaussian(R) 09 system (copyright 2009, Gaussian, Inc.),
 the Gaussian(R) 03 system (copyright 2003, Gaussian, Inc.),
 the Gaussian(R) 98 system (copyright 1998, Gaussian, Inc.),
 the Gaussian(R) 94 system (copyright 1995, Gaussian, Inc.),
 the Gaussian 92(TM) system (copyright 1992, Gaussian, Inc.),
 the Gaussian 90(TM) system (copyright 1990, Gaussian, Inc.),
 the Gaussian 88(TM) system (copyright 1988, Gaussian, Inc.),
 the Gaussian 86(TM) system (copyright 1986, Carnegie Mellon
 University), and the Gaussian 82(TM) system (copyright 1983,
 Carnegie Mellon University). Gaussian is a federally registered
 trademark of Gaussian, Inc.
  
 This software contains proprietary and confidential information,
 including trade secrets, belonging to Gaussian, Inc.
  
 This software is provided under written license and may be
 used, copied, transmitted, or stored only in accord with that
 written license.
  
 The following legend is applicable only to US Government
 contracts under FAR:
  
                    RESTRICTED RIGHTS LEGEND
  
 Use, reproduction and disclosure by the US Government is
 subject to restrictions as set forth in subparagraphs (a)
 and (c) of the Commercial Computer Software - Restricted
 Rights clause in FAR 52.227-19.
  
 Gaussian, Inc.
 340 Quinnipiac St., Bldg. 40, Wallingford CT 06492
  
  
 ---------------------------------------------------------------
 Warning -- This program may not be used in any manner that
 competes with the business of Gaussian, Inc. or will provide
 assistance to any competitor of Gaussian, Inc.  The licensee
 of this program is prohibited from giving any competitor of
 Gaussian, Inc. access to this program.  By using this program,
 the user acknowledges that Gaussian, Inc. is engaged in the
 business of creating and licensing software in the field of
 computational chemistry and represents and warrants to the
 licensee that it is not a competitor of Gaussian, Inc. and that
 it will not use this program in any manner prohibited above.
 ---------------------------------------------------------------
  

 Cite this work as:
 Gaussian 16, Revision A.03,
 M. J. Frisch, G. W. Trucks, H. B. Schlegel, G. E. Scuseria, 
 M. A. Robb, J. R. Cheeseman, G. Scalmani, V. Barone, 
 G. A. Petersson, H. Nakatsuji, X. Li, M. Caricato, A. V. Marenich, 
 J. Bloino, B. G. Janesko, R. Gomperts, B. Mennucci, H. P. Hratchian, 
 J. V. Ortiz, A. F. Izmaylov, J. L. Sonnenberg, D. Williams-Young, 
 F. Ding, F. Lipparini, F. Egidi, J. Goings, B. Peng, A. Petrone, 
 T. Henderson, D. Ranasinghe, V. G. Zakrzewski, J. Gao, N. Rega, 
 G. Zheng, W. Liang, M. Hada, M. Ehara, K. Toyota, R. Fukuda, 
 J. Hasegawa, M. Ishida, T. Nakajima, Y. Honda, O. Kitao, H. Nakai, 
 T. Vreven, K. Throssell, J. A. Montgomery, Jr., J. E. Peralta, 
 F. Ogliaro, M. J. Bearpark, J. J. Heyd, E. N. Brothers, K. N. Kudin, 
 V. N. Staroverov, T. A. Keith, R. Kobayashi, J. Normand, 
 K. Raghavachari, A. P. Rendell, J. C. Burant, S. S. Iyengar, 
 J. Tomasi, M. Cossi, J. M. Millam, M. Klene, C. Adamo, R. Cammi, 
 J. W. Ochterski, R. L. Martin, K. Morokuma, O. Farkas, 
 J. B. Foresman, and D. J. Fox, Gaussian, Inc., Wallingford CT, 2016.
 
 ******************************************
 Gaussian 16:  EM64L-G16RevA.03 25-Dec-2016
                25-Jan-2018 
 ******************************************
 %nprocshared=32
 Will use up to   32 processors via shared memory.
 %mem=32GB
 %chk=allatoms_t.chk
 ---------------------------------------
 #p wb97xd/cc-pvdz sp scf=(maxcycles=20)
 ---------------------------------------
 1/38=1,172=1/1;
 2/12=2,17=6,18=5,40=1/2;
 3/5=16,11=2,25=1,30=1,74=-58/1,2,3;
 4//1;
 5/5=2,7=20,38=5/2;
 6/7=2,8=2,9=2,10=2,28=1/1;
 99/5=1,9=1/99;
 Leave Link    1 at Thu Jan 25 19:27:34 2018, MaxMem=  4294967296 cpu:               2.7 elap:               0.1
 (Enter /share/apps/g16/l101.exe)
 ------------------
 Base pair stacking
 ------------------
 Symbolic Z-matrix:
 Charge =  0 Multiplicity = 1
 N                    -0.90748   5.87606  -6.29099 
 C                    -1.67515   7.13551  -6.24156 
 C                    -0.35008   3.74878  -6.3272 
 N                     0.83724   4.46241  -6.40295 
 C                     0.45391   5.71546  -6.3781 
 H                     1.1284    6.57112  -6.42102 
 N                    -1.91967   1.99112  -6.22727 
 C                    -2.86181   2.93784  -6.16677 
 H                    -3.88548   2.57165  -6.10139 
 N                    -2.72992   4.26278  -6.17485 
 C                    -1.43401   4.60655  -6.25765 
 C                    -0.62538   2.36934  -6.30996 
 N                     0.31654   1.42578  -6.37045 
 H                     1.28739   1.6599   -6.43248 
 H                     0.084     0.45323  -6.35583 
 H                    -1.49977   7.66712  -7.0703 
 H                    -2.65127   6.92953  -6.17918 
 H                    -1.39657   7.66693  -5.44157 
 N                    -1.08766   4.84568  -3.16091 
 C                    -1.49197   3.53282  -3.12943 
 C                    -1.988     6.0161   -3.17514 
 N                    -4.03637   1.17022  -3.05281 
 H                    -4.11764   0.17414  -3.03141 
 H                    -4.88803   1.69501  -3.05427 
 N                    -2.76939   3.09498  -3.10638 
 C                    -2.83955   1.77593  -3.07844 
 N                    -1.74376   0.94724  -3.0734 
 H                    -1.89229  -0.04996  -3.05123 
 C                    -0.42026   1.37579  -3.09676 
 O                     0.49631   0.54477  -3.08971 
 C                    -0.32885   2.79057  -3.12691 
 N                     0.7833    3.62074  -3.15623 
 C                     0.2857    4.82748  -3.17562 
 H                     0.87775   5.74296  -3.20098 
 H                    -1.82882   6.55111  -4.00413 
 H                    -2.93703   5.70412  -3.15829 
 H                    -1.8109    6.58472  -2.37257 
 H                    -3.30675  -4.9046   -3.58458 
 H                    -3.022    -4.9617   -1.84668 
 H                    -3.58613  -3.46905  -2.59843 
 H                     1.49449  -5.19661  -3.48761 
 C                     0.7098   -4.45559  -3.3347 
 O                     2.17429  -2.59808  -3.51363 
 C                     1.04825  -3.0652   -3.34448 
 H                     0.18152  -1.22236  -3.14193 
 N                    -0.01825  -2.21272  -3.14173 
 O                    -2.20612  -1.73274  -2.7675 
 C                    -1.32981  -2.56195  -2.93831 
 H                    -0.87008  -5.87147  -3.12236 
 C                    -0.56066  -4.82728  -3.13876 
 C                    -2.96392  -4.34193  -2.72905 
 N                    -1.57656  -3.92074  -2.94252 
 H                    -4.39349  -5.52963  -6.25366 
 H                    -4.4165   -4.23996  -5.2545 
 H                    -3.96063  -5.70184  -4.68956 
 H                     2.00946  -1.81369  -6.76302 
 H                     1.91062  -3.50931  -6.9218 
 N                     1.45697  -2.64503  -6.70166 
 C                     0.1723   -2.60406  -6.34235 
 C                    -1.96015  -3.54111  -5.85623 
 N                    -2.54313  -2.36617  -5.56628 
 H                    -2.06413  -0.37526  -5.48009 
 C                    -1.6719   -1.36784  -5.69734 
 N                    -0.3848   -1.40683  -6.05711 
 H                    -1.73429  -6.73959  -6.26961 
 C                    -1.54952  -5.66704  -6.20294 
 N                    -0.39977  -5.0917   -6.45735 
 C                    -0.6463   -3.74363  -6.24132 
 C                    -3.93918  -5.08888  -5.47949 
 N                    -2.53834  -4.78818  -5.83339 
 
 ITRead=  0  0  0  0  0  0  0  0  0  0  0  0  0  0  0  0  0  0  0  0
 ITRead=  0  0  0  0  0  0  0  0  0  0  0  0  0  0  0  0  0  0  0  0
 ITRead=  0  0  0  0  0  0  0  0  0  0  0  0  0  0  0  0  0  0  0  0
 ITRead=  0  0  0  0  0  0  0  0  0  0
 MicOpt= -1 -1 -1 -1 -1 -1 -1 -1 -1 -1 -1 -1 -1 -1 -1 -1 -1 -1 -1 -1
 MicOpt= -1 -1 -1 -1 -1 -1 -1 -1 -1 -1 -1 -1 -1 -1 -1 -1 -1 -1 -1 -1
 MicOpt= -1 -1 -1 -1 -1 -1 -1 -1 -1 -1 -1 -1 -1 -1 -1 -1 -1 -1 -1 -1
 MicOpt= -1 -1 -1 -1 -1 -1 -1 -1 -1 -1
 NAtoms=     70 NQM=       70 NQMF=       0 NMMI=      0 NMMIF=      0
                NMic=       0 NMicF=      0.
                    Isotopes and Nuclear Properties:
 (Nuclear quadrupole moments (NQMom) in fm**2, nuclear magnetic moments (NMagM)
  in nuclear magnetons)

  Atom         1           2           3           4           5           6           7           8           9          10
 IAtWgt=          14          12          12          14          12           1          14          12           1          14
 AtmWgt=  14.0030740  12.0000000  12.0000000  14.0030740  12.0000000   1.0078250  14.0030740  12.0000000   1.0078250  14.0030740
 NucSpn=           2           0           0           2           0           1           2           0           1           2
 AtZEff=  -0.0000000  -0.0000000  -0.0000000  -0.0000000  -0.0000000  -0.0000000  -0.0000000  -0.0000000  -0.0000000  -0.0000000
 NQMom=    2.0440000   0.0000000   0.0000000   2.0440000   0.0000000   0.0000000   2.0440000   0.0000000   0.0000000   2.0440000
 NMagM=    0.4037610   0.0000000   0.0000000   0.4037610   0.0000000   2.7928460   0.4037610   0.0000000   2.7928460   0.4037610
 AtZNuc=   7.0000000   6.0000000   6.0000000   7.0000000   6.0000000   1.0000000   7.0000000   6.0000000   1.0000000   7.0000000

  Atom        11          12          13          14          15          16          17          18          19          20
 IAtWgt=          12          12          14           1           1           1           1           1          14          12
 AtmWgt=  12.0000000  12.0000000  14.0030740   1.0078250   1.0078250   1.0078250   1.0078250   1.0078250  14.0030740  12.0000000
 NucSpn=           0           0           2           1           1           1           1           1           2           0
 AtZEff=  -0.0000000  -0.0000000  -0.0000000  -0.0000000  -0.0000000  -0.0000000  -0.0000000  -0.0000000  -0.0000000  -0.0000000
 NQMom=    0.0000000   0.0000000   2.0440000   0.0000000   0.0000000   0.0000000   0.0000000   0.0000000   2.0440000   0.0000000
 NMagM=    0.0000000   0.0000000   0.4037610   2.7928460   2.7928460   2.7928460   2.7928460   2.7928460   0.4037610   0.0000000
 AtZNuc=   6.0000000   6.0000000   7.0000000   1.0000000   1.0000000   1.0000000   1.0000000   1.0000000   7.0000000   6.0000000

  Atom        21          22          23          24          25          26          27          28          29          30
 IAtWgt=          12          14           1           1          14          12          14           1          12          16
 AtmWgt=  12.0000000  14.0030740   1.0078250   1.0078250  14.0030740  12.0000000  14.0030740   1.0078250  12.0000000  15.9949146
 NucSpn=           0           2           1           1           2           0           2           1           0           0
 AtZEff=  -0.0000000  -0.0000000  -0.0000000  -0.0000000  -0.0000000  -0.0000000  -0.0000000  -0.0000000  -0.0000000  -0.0000000
 NQMom=    0.0000000   2.0440000   0.0000000   0.0000000   2.0440000   0.0000000   2.0440000   0.0000000   0.0000000   0.0000000
 NMagM=    0.0000000   0.4037610   2.7928460   2.7928460   0.4037610   0.0000000   0.4037610   2.7928460   0.0000000   0.0000000
 AtZNuc=   6.0000000   7.0000000   1.0000000   1.0000000   7.0000000   6.0000000   7.0000000   1.0000000   6.0000000   8.0000000

  Atom        31          32          33          34          35          36          37          38          39          40
 IAtWgt=          12          14          12           1           1           1           1           1           1           1
 AtmWgt=  12.0000000  14.0030740  12.0000000   1.0078250   1.0078250   1.0078250   1.0078250   1.0078250   1.0078250   1.0078250
 NucSpn=           0           2           0           1           1           1           1           1           1           1
 AtZEff=  -0.0000000  -0.0000000  -0.0000000  -0.0000000  -0.0000000  -0.0000000  -0.0000000  -0.0000000  -0.0000000  -0.0000000
 NQMom=    0.0000000   2.0440000   0.0000000   0.0000000   0.0000000   0.0000000   0.0000000   0.0000000   0.0000000   0.0000000
 NMagM=    0.0000000   0.4037610   0.0000000   2.7928460   2.7928460   2.7928460   2.7928460   2.7928460   2.7928460   2.7928460
 AtZNuc=   6.0000000   7.0000000   6.0000000   1.0000000   1.0000000   1.0000000   1.0000000   1.0000000   1.0000000   1.0000000

  Atom        41          42          43          44          45          46          47          48          49          50
 IAtWgt=           1          12          16          12           1          14          16          12           1          12
 AtmWgt=   1.0078250  12.0000000  15.9949146  12.0000000   1.0078250  14.0030740  15.9949146  12.0000000   1.0078250  12.0000000
 NucSpn=           1           0           0           0           1           2           0           0           1           0
 AtZEff=  -0.0000000  -0.0000000  -0.0000000  -0.0000000  -0.0000000  -0.0000000  -0.0000000  -0.0000000  -0.0000000  -0.0000000
 NQMom=    0.0000000   0.0000000   0.0000000   0.0000000   0.0000000   2.0440000   0.0000000   0.0000000   0.0000000   0.0000000
 NMagM=    2.7928460   0.0000000   0.0000000   0.0000000   2.7928460   0.4037610   0.0000000   0.0000000   2.7928460   0.0000000
 AtZNuc=   1.0000000   6.0000000   8.0000000   6.0000000   1.0000000   7.0000000   8.0000000   6.0000000   1.0000000   6.0000000

  Atom        51          52          53          54          55          56          57          58          59          60
 IAtWgt=          12          14           1           1           1           1           1          14          12          12
 AtmWgt=  12.0000000  14.0030740   1.0078250   1.0078250   1.0078250   1.0078250   1.0078250  14.0030740  12.0000000  12.0000000
 NucSpn=           0           2           1           1           1           1           1           2           0           0
 AtZEff=  -0.0000000  -0.0000000  -0.0000000  -0.0000000  -0.0000000  -0.0000000  -0.0000000  -0.0000000  -0.0000000  -0.0000000
 NQMom=    0.0000000   2.0440000   0.0000000   0.0000000   0.0000000   0.0000000   0.0000000   2.0440000   0.0000000   0.0000000
 NMagM=    0.0000000   0.4037610   2.7928460   2.7928460   2.7928460   2.7928460   2.7928460   0.4037610   0.0000000   0.0000000
 AtZNuc=   6.0000000   7.0000000   1.0000000   1.0000000   1.0000000   1.0000000   1.0000000   7.0000000   6.0000000   6.0000000

  Atom        61          62          63          64          65          66          67          68          69          70
 IAtWgt=          14           1          12          14           1          12          14          12          12          14
 AtmWgt=  14.0030740   1.0078250  12.0000000  14.0030740   1.0078250  12.0000000  14.0030740  12.0000000  12.0000000  14.0030740
 NucSpn=           2           1           0           2           1           0           2           0           0           2
 AtZEff=  -0.0000000  -0.0000000  -0.0000000  -0.0000000  -0.0000000  -0.0000000  -0.0000000  -0.0000000  -0.0000000  -0.0000000
 NQMom=    2.0440000   0.0000000   0.0000000   2.0440000   0.0000000   0.0000000   2.0440000   0.0000000   0.0000000   2.0440000
 NMagM=    0.4037610   2.7928460   0.0000000   0.4037610   2.7928460   0.0000000   0.4037610   0.0000000   0.0000000   0.4037610
 AtZNuc=   7.0000000   1.0000000   6.0000000   7.0000000   1.0000000   6.0000000   7.0000000   6.0000000   6.0000000   7.0000000
 Leave Link  101 at Thu Jan 25 19:27:35 2018, MaxMem=  4294967296 cpu:               7.2 elap:               0.3
 (Enter /share/apps/g16/l202.exe)
 Stoichiometry    C23H27N17O3
 Framework group  C1[X(C23H27N17O3)]
 Deg. of freedom   204
 Full point group                 C1      NOp   1
 Largest Abelian subgroup         C1      NOp   1
 Largest concise Abelian subgroup C1      NOp   1
                         Standard orientation:                         
 ---------------------------------------------------------------------
 Center     Atomic      Atomic             Coordinates (Angstroms)
 Number     Number       Type             X           Y           Z
 ---------------------------------------------------------------------
      1          7           0        5.681042   -1.194745   -0.873020
      2          6           0        6.931427   -0.620923   -1.407099
      3          6           0        3.560913   -1.645506   -0.499933
      4          7           0        4.287315   -2.458150    0.358371
      5          6           0        5.535546   -2.154059    0.099251
      6          1           0        6.398250   -2.603044    0.592289
      7          7           0        1.786750   -0.594121   -1.644443
      8          6           0        2.722626    0.093263   -2.307169
      9          1           0        2.345307    0.800909   -3.044148
     10          7           0        4.048400    0.038035   -2.196721
     11          6           0        4.406315   -0.861177   -1.265199
     12          6           0        2.179081   -1.491229   -0.713665
     13          7           0        1.246362   -2.178375   -0.051061
     14          1           0        1.491089   -2.852685    0.646523
     15          1           0        0.271701   -2.042637   -0.229256
     16          1           0        7.488398   -1.347862   -1.808993
     17          1           0        6.714768    0.057880   -2.108110
     18          1           0        7.441997   -0.182461   -0.667460
     19          7           0        4.558851    1.263288    1.021791
     20          6           0        3.241971    1.514437    0.720444
     21          6           0        5.720872    1.873064    0.344606
     22          7           0        0.854867    3.167768   -1.184799
     23          1           0       -0.142119    3.209212   -1.244283
     24          1           0        1.371633    3.737395   -1.824494
     25          7           0        2.791930    2.353723   -0.237208
     26          6           0        1.472035    2.383843   -0.287868
     27          7           0        0.653649    1.649039    0.535428
     28          1           0       -0.345097    1.734951    0.425493
     29          6           0        1.094837    0.779172    1.527666
     30          8           0        0.272417    0.162842    2.216511
     31          6           0        2.510677    0.736178    1.594121
     32          7           0        3.351530    0.011012    2.427199
     33          6           0        4.553703    0.354936    2.052099
     34          1           0        5.474934   -0.025260    2.494879
     35          1           0        6.281100    1.156608   -0.069680
     36          1           0        5.399829    2.496757   -0.366880
     37          1           0        6.267618    2.380777    1.009518
     38          1           0       -5.195049    2.119225   -1.052002
     39          1           0       -5.299827    3.247128    0.297626
     40          1           0       -3.791282    3.088151   -0.602593
     41          1           0       -5.445622   -0.950414    2.644092
     42          6           0       -4.716580   -0.301632    2.158487
     43          8           0       -2.841292   -1.341401    3.173015
     44          6           0       -3.323439   -0.491190    2.425049
     45          1           0       -1.495278    0.279502    1.922888
     46          7           0       -2.487022    0.382431    1.759884
     47          8           0       -2.038199    2.107620    0.352942
     48          6           0       -2.854030    1.383006    0.895195
     49          1           0       -6.152470    0.851100    1.083659
     50          6           0       -5.105444    0.665818    1.319774
     51          6           0       -4.654261    2.558646   -0.227067
     52          7           0       -4.214338    1.502983    0.689328
     53          1           0       -5.752492    0.791104   -3.625134
     54          1           0       -4.492559    1.598411   -2.974809
     55          1           0       -5.965934    1.687537   -2.278181
     56          1           0       -1.964693   -3.671342    0.936071
     57          1           0       -3.655841   -3.774342    0.737282
     58          7           0       -2.802502   -3.287378    0.547761
     59          6           0       -2.783757   -2.175470   -0.190120
     60          6           0       -3.754042   -0.441351   -1.498973
     61          7           0       -2.593395    0.191572   -1.737153
     62          1           0       -0.601499   -0.000344   -1.294310
     63          6           0       -1.583727   -0.448600   -1.150953
     64          7           0       -1.600457   -1.562388   -0.411508
     65          1           0       -6.937001   -0.991035   -1.636033
     66          6           0       -5.865179   -1.031261   -1.439748
     67          7           0       -5.272175   -1.958464   -0.728197
     68          6           0       -3.933247   -1.596336   -0.757754
     69          6           0       -5.330188    1.092750   -2.770344
     70          7           0       -5.006509   -0.081372   -1.936865
 ---------------------------------------------------------------------
 Rotational constants (GHZ):           0.1844730           0.0522811           0.0512295
 Leave Link  202 at Thu Jan 25 19:27:35 2018, MaxMem=  4294967296 cpu:               0.3 elap:               0.0
 (Enter /share/apps/g16/l301.exe)
 Standard basis: CC-pVDZ (5D, 7F)
 Ernie: Thresh=  0.10000D-02 Tol=  0.10000D-05 Strict=F.
 Ernie:  86 primitive shells out of 1081 were deleted.
 There are   780 symmetry adapted cartesian basis functions of A   symmetry.
 There are   737 symmetry adapted basis functions of A   symmetry.
   737 basis functions,  1608 primitive gaussians,   780 cartesian basis functions
   154 alpha electrons      154 beta electrons
       nuclear repulsion energy      5644.9741778547 Hartrees.
 IExCor= 4639 DFT=T Ex+Corr=wB97XD ExCW=0 ScaHFX=  1.000000
 ScaDFX=  1.000000  1.000000  1.000000  1.000000 ScalE2=  1.000000  1.000000
 IRadAn=      5 IRanWt=     -1 IRanGd=            0 ICorTp=0 IEmpDi=121
 HFx  wShort=  0.000000 wLong=  0.200000 cFull=  0.222036 cShort=  0.000000 cLong=  0.777964
 DFx  wShort=  0.000000 wLong=  0.200000 cFull=  0.000000 cShort=  0.000000 cLong=  1.000000
 NAtoms=   70 NActive=   70 NUniq=   70 SFac= 1.00D+00 NAtFMM=   60 NAOKFM=T Big=T
 Integral buffers will be    131072 words long.
 Raffenetti 2 integral format.
 Two-electron integral symmetry is turned on.
 R6Disp:  Grimme-D2 Dispersion energy=       -0.0826310493 Hartrees.
 Nuclear repulsion after empirical dispersion term =     5644.8915468054 Hartrees.
 Leave Link  301 at Thu Jan 25 19:27:35 2018, MaxMem=  4294967296 cpu:               2.1 elap:               0.1
 (Enter /share/apps/g16/l302.exe)
 NPDir=0 NMtPBC=     1 NCelOv=     1 NCel=       1 NClECP=     1 NCelD=      1
         NCelK=      1 NCelE2=     1 NClLst=     1 CellRange=     0.0.
 One-electron integrals computed using PRISM.
 One-electron integral symmetry used in STVInt
 NBasis=   737 RedAO= T EigKep=  6.52D-04  NBF=   737
 NBsUse=   737 1.00D-06 EigRej= -1.00D+00 NBFU=   737
 Precomputing XC quadrature grid using
 IXCGrd= 4 IRadAn=           5 IRanWt=          -1 IRanGd=           0 AccXCQ= 0.00D+00.
 Generated NRdTot=       0 NPtTot=           0 NUsed=           0 NTot=          32
 NSgBfM=   768   768   768   768   768 MxSgAt=    70 MxSgA2=    70.
 Leave Link  302 at Thu Jan 25 19:27:39 2018, MaxMem=  4294967296 cpu:             134.5 elap:               4.2
 (Enter /share/apps/g16/l303.exe)
 DipDrv:  MaxL=1.
 Leave Link  303 at Thu Jan 25 19:27:40 2018, MaxMem=  4294967296 cpu:              12.6 elap:               0.4
 (Enter /share/apps/g16/l401.exe)
 ExpMin= 1.22D-01 ExpMax= 1.17D+04 ExpMxC= 4.01D+02 IAcc=3 IRadAn=         5 AccDes= 0.00D+00
 Harris functional with IExCor= 4639 and IRadAn=       5 diagonalized for initial guess.
 HarFok:  IExCor= 4639 AccDes= 0.00D+00 IRadAn=         5 IDoV= 1 UseB2=F ITyADJ=14
 ICtDFT=  3500011 ScaDFX=  1.000000  1.000000  1.000000  1.000000
 FoFCou: FMM=F IPFlag=           0 FMFlag=      100000 FMFlg1=        2001
         NFxFlg=           0 DoJE=T BraDBF=F KetDBF=T FulRan=T
         wScrn=  0.000000 ICntrl=       500 IOpCl=  0 I1Cent=   200000004 NGrid=           0
         NMat0=    1 NMatS0=      1 NMatT0=    0 NMatD0=    1 NMtDS0=    0 NMtDT0=    0
 Petite list used in FoFCou.
 Harris En= -1963.86371263235    
 JPrj=0 DoOrth=F DoCkMO=F.
 Leave Link  401 at Thu Jan 25 19:27:53 2018, MaxMem=  4294967296 cpu:             420.6 elap:              13.2
 (Enter /share/apps/g16/l502.exe)
 Integral symmetry usage will be decided dynamically.
 Closed shell SCF:
 Using DIIS extrapolation, IDIIS=  1040.
 NGot=  4294967296 LenX=  4293717438 LenY=  4293108258
 Requested convergence on RMS density matrix=1.00D-08 within  20 cycles.
 Requested convergence on MAX density matrix=1.00D-06.
 Requested convergence on             energy=1.00D-06.
 No special actions if energy rises.
 Fock matrices will be formed incrementally for  20 cycles.
 Integral accuracy reduced to 1.0D-05 until final iterations.

 Cycle   1  Pass 0  IDiag  1:
 FoFJK:  IHMeth= 1 ICntrl=       0 DoSepK=T KAlg= 0 I1Cent=           0 FoldK=F
 IRaf=         1 NMat=       1 IRICut=       1 DoRegI=T DoRafI=F ISym2E= 0 IDoP0=0 IntGTp=1.
 FoFCou: FMM=T IPFlag=           0 FMFlag=      100000 FMFlg1=        2001
         NFxFlg=           0 DoJE=T BraDBF=F KetDBF=F FulRan=T
         wScrn=  0.000000 ICntrl=       500 IOpCl=  0 I1Cent=           0 NGrid=           0
         NMat0=    1 NMatS0=      1 NMatT0=    0 NMatD0=    1 NMtDS0=    0 NMtDT0=    0
 Symmetry not used in FoFCou.
 FMM levels:  10  Number of levels for PrismC:   9
 E= -2048.29600996135    
 DIIS: error= 2.52D-02 at cycle   1 NSaved=   1.
 NSaved= 1 IEnMin= 1 EnMin= -2048.29600996135     IErMin= 1 ErrMin= 2.52D-02
 ErrMax= 2.52D-02  0.00D+00 EMaxC= 1.00D-01 BMatC= 8.40D-01 BMatP= 8.40D-01
 IDIUse=3 WtCom= 7.48D-01 WtEn= 2.52D-01
 Coeff-Com:  0.100D+01
 Coeff-En:   0.100D+01
 Coeff:      0.100D+01
 Gap=     0.252 Goal=   None    Shift=    0.000
 GapD=    0.252 DampG=1.000 DampE=0.500 DampFc=0.5000 IDamp=-1.
 Damping current iteration by 5.00D-01
 RMSDP=1.64D-03 MaxDP=1.15D-01              OVMax= 1.90D-01

 Cycle   2  Pass 0  IDiag  1:
 RMSU=  8.19D-04    CP:  9.97D-01
 E= -2048.49011480081     Delta-E=       -0.194104839457 Rises=F Damp=T
 DIIS: error= 1.21D-02 at cycle   2 NSaved=   2.
 NSaved= 2 IEnMin= 2 EnMin= -2048.49011480081     IErMin= 2 ErrMin= 1.21D-02
 ErrMax= 1.21D-02  0.00D+00 EMaxC= 1.00D-01 BMatC= 1.48D-01 BMatP= 8.40D-01
 IDIUse=3 WtCom= 8.79D-01 WtEn= 1.21D-01
 Coeff-Com: -0.169D+00 0.117D+01
 Coeff-En:   0.000D+00 0.100D+01
 Coeff:     -0.149D+00 0.115D+01
 Gap=     0.347 Goal=   None    Shift=    0.000
 RMSDP=6.27D-04 MaxDP=3.37D-02 DE=-1.94D-01 OVMax= 1.53D-01

 Cycle   3  Pass 0  IDiag  1:
 RMSU=  6.20D-04    CP:  9.94D-01  1.09D+00
 E= -2048.66689730888     Delta-E=       -0.176782508075 Rises=F Damp=F
 DIIS: error= 6.36D-03 at cycle   3 NSaved=   3.
 NSaved= 3 IEnMin= 3 EnMin= -2048.66689730888     IErMin= 3 ErrMin= 6.36D-03
 ErrMax= 6.36D-03  0.00D+00 EMaxC= 1.00D-01 BMatC= 7.56D-02 BMatP= 1.48D-01
 IDIUse=3 WtCom= 9.36D-01 WtEn= 6.36D-02
 Coeff-Com: -0.233D+00 0.565D+00 0.668D+00
 Coeff-En:   0.000D+00 0.000D+00 0.100D+01
 Coeff:     -0.218D+00 0.529D+00 0.689D+00
 Gap=     0.282 Goal=   None    Shift=    0.000
 RMSDP=4.02D-04 MaxDP=2.70D-02 DE=-1.77D-01 OVMax= 7.93D-02

 Cycle   4  Pass 0  IDiag  1:
 RMSU=  2.19D-04    CP:  9.94D-01  1.40D+00  6.44D-01
 E= -2048.72442567676     Delta-E=       -0.057528367878 Rises=F Damp=F
 DIIS: error= 2.21D-03 at cycle   4 NSaved=   4.
 NSaved= 4 IEnMin= 4 EnMin= -2048.72442567676     IErMin= 4 ErrMin= 2.21D-03
 ErrMax= 2.21D-03  0.00D+00 EMaxC= 1.00D-01 BMatC= 1.04D-02 BMatP= 7.56D-02
 IDIUse=3 WtCom= 9.78D-01 WtEn= 2.21D-02
 Coeff-Com: -0.978D-01 0.190D+00 0.370D+00 0.538D+00
 Coeff-En:   0.000D+00 0.000D+00 0.689D-01 0.931D+00
 Coeff:     -0.956D-01 0.185D+00 0.363D+00 0.547D+00
 Gap=     0.283 Goal=   None    Shift=    0.000
 RMSDP=1.37D-04 MaxDP=1.12D-02 DE=-5.75D-02 OVMax= 1.60D-02

 Cycle   5  Pass 0  IDiag  1:
 RMSU=  6.31D-05    CP:  9.93D-01  1.37D+00  7.82D-01  6.26D-01
 E= -2048.73321018842     Delta-E=       -0.008784511661 Rises=F Damp=F
 DIIS: error= 4.66D-04 at cycle   5 NSaved=   5.
 NSaved= 5 IEnMin= 5 EnMin= -2048.73321018842     IErMin= 5 ErrMin= 4.66D-04
 ErrMax= 4.66D-04  0.00D+00 EMaxC= 1.00D-01 BMatC= 2.99D-04 BMatP= 1.04D-02
 IDIUse=3 WtCom= 9.95D-01 WtEn= 4.66D-03
 Coeff-Com: -0.255D-01 0.438D-01 0.118D+00 0.235D+00 0.629D+00
 Coeff-En:   0.000D+00 0.000D+00 0.000D+00 0.000D+00 0.100D+01
 Coeff:     -0.254D-01 0.436D-01 0.117D+00 0.234D+00 0.631D+00
 Gap=     0.283 Goal=   None    Shift=    0.000
 RMSDP=2.77D-05 MaxDP=1.49D-03 DE=-8.78D-03 OVMax= 3.32D-03

 Failed to achieve initial convergence to 1.0D-08 in  6 cycles.
 Switch to full accuracy anyway.
 Cycle   6  Pass 1  IDiag  1:
 E= -2048.73334137959     Delta-E=       -0.000131191168 Rises=F Damp=F
 DIIS: error= 4.86D-04 at cycle   1 NSaved=   1.
 NSaved= 1 IEnMin= 1 EnMin= -2048.73334137959     IErMin= 1 ErrMin= 4.86D-04
 ErrMax= 4.86D-04  0.00D+00 EMaxC= 1.00D-01 BMatC= 8.52D-05 BMatP= 8.52D-05
 IDIUse=3 WtCom= 9.95D-01 WtEn= 4.86D-03
 Coeff-Com:  0.100D+01
 Coeff-En:   0.100D+01
 Coeff:      0.100D+01
 Gap=     0.283 Goal=   None    Shift=    0.000
 RMSDP=2.77D-05 MaxDP=1.49D-03 DE=-1.31D-04 OVMax= 2.54D-03

 Cycle   7  Pass 1  IDiag  1:
 RMSU=  1.30D-04    CP:  1.00D+00
 E= -2048.73340360569     Delta-E=       -0.000062226099 Rises=F Damp=F
 DIIS: error= 1.95D-04 at cycle   2 NSaved=   2.
 NSaved= 2 IEnMin= 2 EnMin= -2048.73340360569     IErMin= 2 ErrMin= 1.95D-04
 ErrMax= 1.95D-04  0.00D+00 EMaxC= 1.00D-01 BMatC= 4.50D-05 BMatP= 8.52D-05
 IDIUse=3 WtCom= 9.98D-01 WtEn= 1.95D-03
 Coeff-Com:  0.392D+00 0.608D+00
 Coeff-En:   0.000D+00 0.100D+01
 Coeff:      0.391D+00 0.609D+00
 Gap=     0.283 Goal=   None    Shift=    0.000
 RMSDP=1.25D-05 MaxDP=9.02D-04 DE=-6.22D-05 OVMax= 1.65D-03

 Cycle   8  Pass 1  IDiag  1:
 RMSU=  1.21D-05    CP:  1.00D+00  1.02D+00
 E= -2048.73343577548     Delta-E=       -0.000032169792 Rises=F Damp=F
 DIIS: error= 1.02D-04 at cycle   3 NSaved=   3.
 NSaved= 3 IEnMin= 3 EnMin= -2048.73343577548     IErMin= 3 ErrMin= 1.02D-04
 ErrMax= 1.02D-04  0.00D+00 EMaxC= 1.00D-01 BMatC= 1.19D-05 BMatP= 4.50D-05
 IDIUse=3 WtCom= 9.99D-01 WtEn= 1.02D-03
 Coeff-Com: -0.185D-01 0.328D+00 0.691D+00
 Coeff-En:   0.000D+00 0.165D+00 0.835D+00
 Coeff:     -0.185D-01 0.328D+00 0.691D+00
 Gap=     0.283 Goal=   None    Shift=    0.000
 RMSDP=6.16D-06 MaxDP=4.62D-04 DE=-3.22D-05 OVMax= 6.18D-04

 Cycle   9  Pass 1  IDiag  1:
 RMSU=  4.03D-06    CP:  1.00D+00  1.05D+00  7.40D-01
 E= -2048.73344693608     Delta-E=       -0.000011160600 Rises=F Damp=F
 DIIS: error= 2.89D-05 at cycle   4 NSaved=   4.
 NSaved= 4 IEnMin= 4 EnMin= -2048.73344693608     IErMin= 4 ErrMin= 2.89D-05
 ErrMax= 2.89D-05  0.00D+00 EMaxC= 1.00D-01 BMatC= 5.99D-07 BMatP= 1.19D-05
 IDIUse=1 WtCom= 1.00D+00 WtEn= 0.00D+00
 Coeff-Com: -0.285D-01 0.997D-01 0.273D+00 0.656D+00
 Coeff:     -0.285D-01 0.997D-01 0.273D+00 0.656D+00
 Gap=     0.283 Goal=   None    Shift=    0.000
 RMSDP=1.53D-06 MaxDP=9.56D-05 DE=-1.12D-05 OVMax= 5.14D-04

 Cycle  10  Pass 1  IDiag  1:
 RMSU=  1.38D-06    CP:  1.00D+00  1.05D+00  7.78D-01  1.07D+00
 E= -2048.73344784532     Delta-E=       -0.000000909244 Rises=F Damp=F
 DIIS: error= 1.14D-05 at cycle   5 NSaved=   5.
 NSaved= 5 IEnMin= 5 EnMin= -2048.73344784532     IErMin= 5 ErrMin= 1.14D-05
 ErrMax= 1.14D-05  0.00D+00 EMaxC= 1.00D-01 BMatC= 1.41D-07 BMatP= 5.99D-07
 IDIUse=1 WtCom= 1.00D+00 WtEn= 0.00D+00
 Coeff-Com: -0.395D-02-0.521D-01-0.101D+00 0.224D+00 0.933D+00
 Coeff:     -0.395D-02-0.521D-01-0.101D+00 0.224D+00 0.933D+00
 Gap=     0.283 Goal=   None    Shift=    0.000
 RMSDP=1.22D-06 MaxDP=6.56D-05 DE=-9.09D-07 OVMax= 2.74D-04

 Cycle  11  Pass 1  IDiag  1:
 RMSU=  5.26D-07    CP:  1.00D+00  1.05D+00  7.88D-01  1.34D+00  1.16D+00
 E= -2048.73344812943     Delta-E=       -0.000000284109 Rises=F Damp=F
 DIIS: error= 6.88D-06 at cycle   6 NSaved=   6.
 NSaved= 6 IEnMin= 6 EnMin= -2048.73344812943     IErMin= 6 ErrMin= 6.88D-06
 ErrMax= 6.88D-06  0.00D+00 EMaxC= 1.00D-01 BMatC= 3.38D-08 BMatP= 1.41D-07
 IDIUse=1 WtCom= 1.00D+00 WtEn= 0.00D+00
 Coeff-Com:  0.467D-02-0.500D-01-0.118D+00-0.356D-02 0.507D+00 0.659D+00
 Coeff:      0.467D-02-0.500D-01-0.118D+00-0.356D-02 0.507D+00 0.659D+00
 Gap=     0.283 Goal=   None    Shift=    0.000
 RMSDP=4.46D-07 MaxDP=2.31D-05 DE=-2.84D-07 OVMax= 1.47D-04

 Cycle  12  Pass 1  IDiag  1:
 RMSU=  2.11D-07    CP:  1.00D+00  1.05D+00  7.90D-01  1.42D+00  1.30D+00
                    CP:  9.72D-01
 E= -2048.73344818103     Delta-E=       -0.000000051598 Rises=F Damp=F
 DIIS: error= 1.06D-06 at cycle   7 NSaved=   7.
 NSaved= 7 IEnMin= 7 EnMin= -2048.73344818103     IErMin= 7 ErrMin= 1.06D-06
 ErrMax= 1.06D-06  0.00D+00 EMaxC= 1.00D-01 BMatC= 8.84D-10 BMatP= 3.38D-08
 IDIUse=1 WtCom= 1.00D+00 WtEn= 0.00D+00
 Coeff-Com:  0.120D-02-0.939D-02-0.236D-01-0.878D-02 0.681D-01 0.147D+00
 Coeff-Com:  0.825D+00
 Coeff:      0.120D-02-0.939D-02-0.236D-01-0.878D-02 0.681D-01 0.147D+00
 Coeff:      0.825D+00
 Gap=     0.283 Goal=   None    Shift=    0.000
 RMSDP=9.02D-08 MaxDP=3.52D-06 DE=-5.16D-08 OVMax= 2.76D-05

 Cycle  13  Pass 1  IDiag  1:
 RMSU=  5.58D-08    CP:  1.00D+00  1.05D+00  7.90D-01  1.43D+00  1.32D+00
                    CP:  1.05D+00  1.13D+00
 E= -2048.73344818331     Delta-E=       -0.000000002283 Rises=F Damp=F
 DIIS: error= 5.05D-07 at cycle   8 NSaved=   8.
 NSaved= 8 IEnMin= 8 EnMin= -2048.73344818331     IErMin= 8 ErrMin= 5.05D-07
 ErrMax= 5.05D-07  0.00D+00 EMaxC= 1.00D-01 BMatC= 3.74D-10 BMatP= 8.84D-10
 IDIUse=1 WtCom= 1.00D+00 WtEn= 0.00D+00
 Coeff-Com: -0.726D-03 0.957D-02 0.215D-01-0.149D-02-0.109D+00-0.113D+00
 Coeff-Com:  0.409D+00 0.784D+00
 Coeff:     -0.726D-03 0.957D-02 0.215D-01-0.149D-02-0.109D+00-0.113D+00
 Coeff:      0.409D+00 0.784D+00
 Gap=     0.283 Goal=   None    Shift=    0.000
 RMSDP=5.41D-08 MaxDP=2.96D-06 DE=-2.28D-09 OVMax= 1.26D-05

 Cycle  14  Pass 1  IDiag  1:
 RMSU=  3.07D-08    CP:  1.00D+00  1.05D+00  7.90D-01  1.43D+00  1.32D+00
                    CP:  1.10D+00  1.28D+00  1.07D+00
 E= -2048.73344818358     Delta-E=       -0.000000000267 Rises=F Damp=F
 DIIS: error= 1.50D-07 at cycle   9 NSaved=   9.
 NSaved= 9 IEnMin= 9 EnMin= -2048.73344818358     IErMin= 9 ErrMin= 1.50D-07
 ErrMax= 1.50D-07  0.00D+00 EMaxC= 1.00D-01 BMatC= 2.90D-11 BMatP= 3.74D-10
 IDIUse=1 WtCom= 1.00D+00 WtEn= 0.00D+00
 Coeff-Com: -0.401D-03 0.464D-02 0.106D-01 0.467D-03-0.476D-01-0.586D-01
 Coeff-Com:  0.768D-01 0.282D+00 0.732D+00
 Coeff:     -0.401D-03 0.464D-02 0.106D-01 0.467D-03-0.476D-01-0.586D-01
 Coeff:      0.768D-01 0.282D+00 0.732D+00
 Gap=     0.283 Goal=   None    Shift=    0.000
 RMSDP=1.42D-08 MaxDP=6.47D-07 DE=-2.67D-10 OVMax= 3.54D-06

 Cycle  15  Pass 1  IDiag  1:
 RMSU=  9.82D-09    CP:  1.00D+00  1.05D+00  7.90D-01  1.43D+00  1.32D+00
                    CP:  1.11D+00  1.31D+00  1.20D+00  1.12D+00
 E= -2048.73344818340     Delta-E=        0.000000000180 Rises=F Damp=F
 DIIS: error= 7.18D-08 at cycle  10 NSaved=  10.
 NSaved=10 IEnMin= 9 EnMin= -2048.73344818358     IErMin=10 ErrMin= 7.18D-08
 ErrMax= 7.18D-08  0.00D+00 EMaxC= 1.00D-01 BMatC= 5.31D-12 BMatP= 2.90D-11
 IDIUse=1 WtCom= 1.00D+00 WtEn= 0.00D+00
 Coeff-Com:  0.159D-04-0.433D-03-0.901D-03 0.172D-03 0.650D-02 0.317D-02
 Coeff-Com: -0.564D-01-0.753D-01 0.255D+00 0.869D+00
 Coeff:      0.159D-04-0.433D-03-0.901D-03 0.172D-03 0.650D-02 0.317D-02
 Coeff:     -0.564D-01-0.753D-01 0.255D+00 0.869D+00
 Gap=     0.283 Goal=   None    Shift=    0.000
 RMSDP=7.38D-09 MaxDP=2.89D-07 DE= 1.80D-10 OVMax= 1.72D-06

 SCF Done:  E(RwB97XD) =  -2048.73344818     A.U. after   15 cycles
            NFock= 15  Conv=0.74D-08     -V/T= 2.0053
 KE= 2.037901233603D+03 PE=-1.607041597799D+04 EE= 6.338889749401D+03
 Leave Link  502 at Thu Jan 25 19:40:18 2018, MaxMem=  4294967296 cpu:           23112.9 elap:             744.8
 (Enter /share/apps/g16/l601.exe)
 Copying SCF densities to generalized density rwf, IOpCl= 0 IROHF=0.

 **********************************************************************

            Population analysis using the SCF density.

 **********************************************************************

 Orbital symmetries:
       Occupied  (A) (A) (A) (A) (A) (A) (A) (A) (A) (A) (A) (A)
                 (A) (A) (A) (A) (A) (A) (A) (A) (A) (A) (A) (A)
                 (A) (A) (A) (A) (A) (A) (A) (A) (A) (A) (A) (A)
                 (A) (A) (A) (A) (A) (A) (A) (A) (A) (A) (A) (A)
                 (A) (A) (A) (A) (A) (A) (A) (A) (A) (A) (A) (A)
                 (A) (A) (A) (A) (A) (A) (A) (A) (A) (A) (A) (A)
                 (A) (A) (A) (A) (A) (A) (A) (A) (A) (A) (A) (A)
                 (A) (A) (A) (A) (A) (A) (A) (A) (A) (A) (A) (A)
                 (A) (A) (A) (A) (A) (A) (A) (A) (A) (A) (A) (A)
                 (A) (A) (A) (A) (A) (A) (A) (A) (A) (A) (A) (A)
                 (A) (A) (A) (A) (A) (A) (A) (A) (A) (A) (A) (A)
                 (A) (A) (A) (A) (A) (A) (A) (A) (A) (A) (A) (A)
                 (A) (A) (A) (A) (A) (A) (A) (A) (A) (A)
       Virtual   (A) (A) (A) (A) (A) (A) (A) (A) (A) (A) (A) (A)
                 (A) (A) (A) (A) (A) (A) (A) (A) (A) (A) (A) (A)
                 (A) (A) (A) (A) (A) (A) (A) (A) (A) (A) (A) (A)
                 (A) (A) (A) (A) (A) (A) (A) (A) (A) (A) (A) (A)
                 (A) (A) (A) (A) (A) (A) (A) (A) (A) (A) (A) (A)
                 (A) (A) (A) (A) (A) (A) (A) (A) (A) (A) (A) (A)
                 (A) (A) (A) (A) (A) (A) (A) (A) (A) (A) (A) (A)
                 (A) (A) (A) (A) (A) (A) (A) (A) (A) (A) (A) (A)
                 (A) (A) (A) (A) (A) (A) (A) (A) (A) (A) (A) (A)
                 (A) (A) (A) (A) (A) (A) (A) (A) (A) (A) (A) (A)
                 (A) (A) (A) (A) (A) (A) (A) (A) (A) (A) (A) (A)
                 (A) (A) (A) (A) (A) (A) (A) (A) (A) (A) (A) (A)
                 (A) (A) (A) (A) (A) (A) (A) (A) (A) (A) (A) (A)
                 (A) (A) (A) (A) (A) (A) (A) (A) (A) (A) (A) (A)
                 (A) (A) (A) (A) (A) (A) (A) (A) (A) (A) (A) (A)
                 (A) (A) (A) (A) (A) (A) (A) (A) (A) (A) (A) (A)
                 (A) (A) (A) (A) (A) (A) (A) (A) (A) (A) (A) (A)
                 (A) (A) (A) (A) (A) (A) (A) (A) (A) (A) (A) (A)
                 (A) (A) (A) (A) (A) (A) (A) (A) (A) (A) (A) (A)
                 (A) (A) (A) (A) (A) (A) (A) (A) (A) (A) (A) (A)
                 (A) (A) (A) (A) (A) (A) (A) (A) (A) (A) (A) (A)
                 (A) (A) (A) (A) (A) (A) (A) (A) (A) (A) (A) (A)
                 (A) (A) (A) (A) (A) (A) (A) (A) (A) (A) (A) (A)
                 (A) (A) (A) (A) (A) (A) (A) (A) (A) (A) (A) (A)
                 (A) (A) (A) (A) (A) (A) (A) (A) (A) (A) (A) (A)
                 (A) (A) (A) (A) (A) (A) (A) (A) (A) (A) (A) (A)
                 (A) (A) (A) (A) (A) (A) (A) (A) (A) (A) (A) (A)
                 (A) (A) (A) (A) (A) (A) (A) (A) (A) (A) (A) (A)
                 (A) (A) (A) (A) (A) (A) (A) (A) (A) (A) (A) (A)
                 (A) (A) (A) (A) (A) (A) (A) (A) (A) (A) (A) (A)
                 (A) (A) (A) (A) (A) (A) (A) (A) (A) (A) (A) (A)
                 (A) (A) (A) (A) (A) (A) (A) (A) (A) (A) (A) (A)
                 (A) (A) (A) (A) (A) (A) (A) (A) (A) (A) (A) (A)
                 (A) (A) (A) (A) (A) (A) (A) (A) (A) (A) (A) (A)
                 (A) (A) (A) (A) (A) (A) (A) (A) (A) (A) (A) (A)
                 (A) (A) (A) (A) (A) (A) (A) (A) (A) (A) (A) (A)
                 (A) (A) (A) (A) (A) (A) (A) (A) (A) (A) (A) (A)
                 (A) (A) (A) (A) (A) (A) (A) (A) (A) (A) (A) (A)
                 (A) (A) (A) (A) (A) (A) (A) (A) (A) (A) (A) (A)
                 (A) (A) (A) (A) (A) (A) (A) (A) (A) (A) (A) (A)
                 (A) (A) (A) (A) (A) (A) (A) (A) (A) (A) (A) (A)
                 (A) (A) (A) (A) (A) (A) (A) (A) (A) (A) (A) (A)
                 (A) (A) (A) (A) (A) (A) (A) (A) (A) (A) (A) (A)
                 (A) (A) (A) (A) (A) (A) (A) (A) (A) (A) (A) (A)
                 (A) (A) (A) (A) (A) (A) (A) (A) (A) (A) (A) (A)
                 (A) (A) (A) (A) (A) (A) (A) (A) (A) (A) (A) (A)
                 (A) (A) (A) (A) (A) (A) (A) (A) (A) (A) (A) (A)
                 (A) (A) (A) (A) (A) (A) (A) (A) (A) (A) (A) (A)
                 (A) (A) (A) (A) (A) (A) (A)
 The electronic state is 1-A.
 Alpha  occ. eigenvalues --  -19.24990 -19.21491 -19.20468 -14.52350 -14.51864
 Alpha  occ. eigenvalues --  -14.49698 -14.48786 -14.47264 -14.47204 -14.46658
 Alpha  occ. eigenvalues --  -14.46513 -14.44997 -14.43903 -14.43796 -14.43030
 Alpha  occ. eigenvalues --  -14.42174 -14.41757 -14.41553 -14.41002 -14.40766
 Alpha  occ. eigenvalues --  -10.44753 -10.40977 -10.39564 -10.39296 -10.38105
 Alpha  occ. eigenvalues --  -10.37692 -10.37078 -10.36916 -10.36270 -10.35476
 Alpha  occ. eigenvalues --  -10.34836 -10.34536 -10.34324 -10.34214 -10.34190
 Alpha  occ. eigenvalues --  -10.33867 -10.33328 -10.32220 -10.32179 -10.30858
 Alpha  occ. eigenvalues --  -10.30397 -10.29283 -10.28012  -1.18758  -1.15015
 Alpha  occ. eigenvalues --   -1.13067  -1.12480  -1.12243  -1.10506  -1.08809
 Alpha  occ. eigenvalues --   -1.08658  -1.08386  -1.05832  -1.04228  -1.01978
 Alpha  occ. eigenvalues --   -1.01219  -1.00771  -0.99558  -0.98358  -0.97910
 Alpha  occ. eigenvalues --   -0.96497  -0.96377  -0.93474  -0.90422  -0.87644
 Alpha  occ. eigenvalues --   -0.86247  -0.85006  -0.83987  -0.83446  -0.83146
 Alpha  occ. eigenvalues --   -0.82385  -0.78299  -0.76647  -0.74565  -0.74410
 Alpha  occ. eigenvalues --   -0.73755  -0.73439  -0.72830  -0.71852  -0.70074
 Alpha  occ. eigenvalues --   -0.67298  -0.67108  -0.66480  -0.66024  -0.64288
 Alpha  occ. eigenvalues --   -0.64034  -0.63621  -0.63512  -0.62465  -0.62417
 Alpha  occ. eigenvalues --   -0.61600  -0.61121  -0.60215  -0.59395  -0.59192
 Alpha  occ. eigenvalues --   -0.59025  -0.58225  -0.58106  -0.57401  -0.56280
 Alpha  occ. eigenvalues --   -0.55572  -0.55439  -0.55362  -0.55048  -0.53959
 Alpha  occ. eigenvalues --   -0.53784  -0.53528  -0.53373  -0.52795  -0.52756
 Alpha  occ. eigenvalues --   -0.52631  -0.52137  -0.51492  -0.51052  -0.50687
 Alpha  occ. eigenvalues --   -0.50059  -0.49924  -0.49480  -0.49263  -0.48947
 Alpha  occ. eigenvalues --   -0.48562  -0.48346  -0.48097  -0.47821  -0.47381
 Alpha  occ. eigenvalues --   -0.47095  -0.46121  -0.45378  -0.43691  -0.42598
 Alpha  occ. eigenvalues --   -0.41819  -0.40376  -0.38801  -0.37869  -0.37638
 Alpha  occ. eigenvalues --   -0.37151  -0.37010  -0.36723  -0.35870  -0.34671
 Alpha  occ. eigenvalues --   -0.34489  -0.34266  -0.33758  -0.33619  -0.32808
 Alpha  occ. eigenvalues --   -0.32442  -0.32211  -0.31834  -0.31700  -0.31106
 Alpha  occ. eigenvalues --   -0.31015  -0.29303  -0.27090  -0.24778
 Alpha virt. eigenvalues --    0.03540   0.04344   0.06997   0.07538   0.08894
 Alpha virt. eigenvalues --    0.09280   0.09902   0.10252   0.10599   0.12367
 Alpha virt. eigenvalues --    0.12946   0.13870   0.14529   0.14693   0.14873
 Alpha virt. eigenvalues --    0.15276   0.16223   0.17807   0.18136   0.18207
 Alpha virt. eigenvalues --    0.18501   0.19325   0.19365   0.19584   0.20597
 Alpha virt. eigenvalues --    0.20990   0.21268   0.21414   0.21715   0.21969
 Alpha virt. eigenvalues --    0.22433   0.22528   0.22878   0.23458   0.23638
 Alpha virt. eigenvalues --    0.24154   0.24855   0.24922   0.25486   0.25836
 Alpha virt. eigenvalues --    0.27405   0.27739   0.28062   0.28267   0.28580
 Alpha virt. eigenvalues --    0.29251   0.29357   0.30025   0.30443   0.30727
 Alpha virt. eigenvalues --    0.31538   0.32066   0.32499   0.33100   0.33711
 Alpha virt. eigenvalues --    0.34102   0.34587   0.34788   0.35682   0.36479
 Alpha virt. eigenvalues --    0.36845   0.37339   0.37649   0.38188   0.39361
 Alpha virt. eigenvalues --    0.39979   0.40373   0.40528   0.41439   0.42310
 Alpha virt. eigenvalues --    0.42632   0.42972   0.43219   0.43800   0.44126
 Alpha virt. eigenvalues --    0.45371   0.45575   0.46777   0.46872   0.47172
 Alpha virt. eigenvalues --    0.47366   0.48004   0.48389   0.48776   0.49289
 Alpha virt. eigenvalues --    0.49998   0.50362   0.50796   0.50929   0.51654
 Alpha virt. eigenvalues --    0.51821   0.52663   0.52737   0.52931   0.53226
 Alpha virt. eigenvalues --    0.53992   0.54516   0.54951   0.55423   0.55462
 Alpha virt. eigenvalues --    0.55838   0.56372   0.56924   0.57480   0.57720
 Alpha virt. eigenvalues --    0.57942   0.58819   0.59399   0.59663   0.60434
 Alpha virt. eigenvalues --    0.60582   0.61054   0.61468   0.61791   0.61836
 Alpha virt. eigenvalues --    0.62255   0.63107   0.63300   0.63582   0.64256
 Alpha virt. eigenvalues --    0.64498   0.64735   0.65449   0.65567   0.65870
 Alpha virt. eigenvalues --    0.66760   0.67250   0.67831   0.68243   0.68402
 Alpha virt. eigenvalues --    0.68918   0.70038   0.70301   0.70585   0.70886
 Alpha virt. eigenvalues --    0.71454   0.71679   0.71910   0.72476   0.72711
 Alpha virt. eigenvalues --    0.73289   0.73504   0.73858   0.74594   0.74777
 Alpha virt. eigenvalues --    0.74923   0.75409   0.75630   0.76508   0.76656
 Alpha virt. eigenvalues --    0.76896   0.77526   0.77816   0.78391   0.78623
 Alpha virt. eigenvalues --    0.78738   0.79040   0.79294   0.79599   0.79627
 Alpha virt. eigenvalues --    0.80166   0.80536   0.80844   0.81270   0.81727
 Alpha virt. eigenvalues --    0.82577   0.82712   0.83077   0.83319   0.83670
 Alpha virt. eigenvalues --    0.84347   0.85181   0.85336   0.85477   0.86323
 Alpha virt. eigenvalues --    0.86397   0.86601   0.87097   0.87731   0.88456
 Alpha virt. eigenvalues --    0.89043   0.89276   0.89994   0.90557   0.90742
 Alpha virt. eigenvalues --    0.91206   0.91833   0.92508   0.92947   0.93148
 Alpha virt. eigenvalues --    0.93494   0.94440   0.94775   0.95037   0.95377
 Alpha virt. eigenvalues --    0.95619   0.96316   0.96597   0.96884   0.97084
 Alpha virt. eigenvalues --    0.98289   0.98973   0.99042   0.99954   1.00094
 Alpha virt. eigenvalues --    1.00417   1.00928   1.01587   1.01902   1.02320
 Alpha virt. eigenvalues --    1.02574   1.03355   1.03684   1.04301   1.04472
 Alpha virt. eigenvalues --    1.05049   1.06090   1.06295   1.06860   1.07245
 Alpha virt. eigenvalues --    1.07990   1.08140   1.08830   1.09389   1.10148
 Alpha virt. eigenvalues --    1.10386   1.10988   1.11514   1.11807   1.12295
 Alpha virt. eigenvalues --    1.13435   1.13510   1.13846   1.13961   1.14398
 Alpha virt. eigenvalues --    1.15194   1.15870   1.15944   1.16266   1.16877
 Alpha virt. eigenvalues --    1.17264   1.17563   1.17910   1.18872   1.19241
 Alpha virt. eigenvalues --    1.19764   1.20160   1.20435   1.20617   1.20914
 Alpha virt. eigenvalues --    1.21204   1.21565   1.21948   1.22143   1.22511
 Alpha virt. eigenvalues --    1.22961   1.23143   1.23747   1.24228   1.24440
 Alpha virt. eigenvalues --    1.24734   1.25223   1.25308   1.26510   1.27082
 Alpha virt. eigenvalues --    1.27224   1.28334   1.29161   1.29296   1.29996
 Alpha virt. eigenvalues --    1.30526   1.31269   1.31920   1.32262   1.32772
 Alpha virt. eigenvalues --    1.33330   1.33724   1.33879   1.34621   1.35478
 Alpha virt. eigenvalues --    1.36162   1.36651   1.37384   1.37975   1.38656
 Alpha virt. eigenvalues --    1.38852   1.39626   1.40003   1.40671   1.41590
 Alpha virt. eigenvalues --    1.42809   1.43501   1.43795   1.44813   1.45076
 Alpha virt. eigenvalues --    1.45715   1.46566   1.47265   1.47592   1.48728
 Alpha virt. eigenvalues --    1.49042   1.49548   1.49938   1.51234   1.52123
 Alpha virt. eigenvalues --    1.52562   1.54115   1.54356   1.55020   1.55766
 Alpha virt. eigenvalues --    1.56942   1.57639   1.58233   1.58697   1.59014
 Alpha virt. eigenvalues --    1.59226   1.60555   1.61590   1.61928   1.62333
 Alpha virt. eigenvalues --    1.63043   1.64061   1.64896   1.65338   1.65656
 Alpha virt. eigenvalues --    1.66042   1.66561   1.67411   1.67836   1.68262
 Alpha virt. eigenvalues --    1.68947   1.69283   1.69820   1.70065   1.70486
 Alpha virt. eigenvalues --    1.70876   1.71296   1.71892   1.72451   1.72643
 Alpha virt. eigenvalues --    1.73083   1.73735   1.73859   1.74775   1.75072
 Alpha virt. eigenvalues --    1.75261   1.75780   1.76233   1.76387   1.76705
 Alpha virt. eigenvalues --    1.77375   1.77443   1.77878   1.78329   1.78441
 Alpha virt. eigenvalues --    1.78860   1.79551   1.79835   1.80528   1.81194
 Alpha virt. eigenvalues --    1.81317   1.81695   1.82104   1.82319   1.82500
 Alpha virt. eigenvalues --    1.82770   1.83201   1.83634   1.83921   1.84730
 Alpha virt. eigenvalues --    1.85199   1.85901   1.85934   1.86762   1.87224
 Alpha virt. eigenvalues --    1.87304   1.87691   1.88202   1.88677   1.88934
 Alpha virt. eigenvalues --    1.89279   1.89487   1.90559   1.90688   1.91612
 Alpha virt. eigenvalues --    1.91815   1.92265   1.92667   1.92988   1.93545
 Alpha virt. eigenvalues --    1.94096   1.94194   1.95045   1.95528   1.95755
 Alpha virt. eigenvalues --    1.96726   1.97715   1.99317   1.99792   2.00015
 Alpha virt. eigenvalues --    2.00501   2.02124   2.02769   2.02947   2.03071
 Alpha virt. eigenvalues --    2.03591   2.04269   2.04915   2.05441   2.06005
 Alpha virt. eigenvalues --    2.06213   2.07108   2.07644   2.08061   2.09133
 Alpha virt. eigenvalues --    2.10457   2.10601   2.11225   2.11506   2.11710
 Alpha virt. eigenvalues --    2.12428   2.13169   2.13667   2.14829   2.15005
 Alpha virt. eigenvalues --    2.16589   2.17020   2.18300   2.18728   2.19125
 Alpha virt. eigenvalues --    2.20016   2.20048   2.20701   2.21233   2.22412
 Alpha virt. eigenvalues --    2.23595   2.23996   2.24360   2.24782   2.25278
 Alpha virt. eigenvalues --    2.26071   2.26432   2.26881   2.28006   2.28225
 Alpha virt. eigenvalues --    2.28583   2.29581   2.30168   2.30488   2.30964
 Alpha virt. eigenvalues --    2.31781   2.32020   2.32781   2.33333   2.33507
 Alpha virt. eigenvalues --    2.34190   2.34976   2.35222   2.35447   2.35926
 Alpha virt. eigenvalues --    2.36567   2.37247   2.38049   2.38627   2.38800
 Alpha virt. eigenvalues --    2.39414   2.39924   2.40699   2.41551   2.42475
 Alpha virt. eigenvalues --    2.42602   2.43384   2.43843   2.43972   2.45157
 Alpha virt. eigenvalues --    2.45581   2.46024   2.46236   2.48373   2.48820
 Alpha virt. eigenvalues --    2.49159   2.50375   2.50822   2.52615   2.53287
 Alpha virt. eigenvalues --    2.53470   2.54178   2.55320   2.56483   2.57737
 Alpha virt. eigenvalues --    2.58564   2.58785   2.59683   2.60859   2.61234
 Alpha virt. eigenvalues --    2.62166   2.62386   2.63842   2.64948   2.65155
 Alpha virt. eigenvalues --    2.65778   2.66407   2.66701   2.67770   2.68104
 Alpha virt. eigenvalues --    2.68449   2.69340   2.69716   2.70458   2.71015
 Alpha virt. eigenvalues --    2.71796   2.72620   2.72923   2.73210   2.73890
 Alpha virt. eigenvalues --    2.74655   2.75676   2.76044   2.77374   2.78155
 Alpha virt. eigenvalues --    2.78278   2.79548   2.79842   2.80184   2.80875
 Alpha virt. eigenvalues --    2.81452   2.81825   2.82005   2.82390   2.82709
 Alpha virt. eigenvalues --    2.83075   2.83523   2.85088   2.85403   2.86128
 Alpha virt. eigenvalues --    2.86611   2.87059   2.87509   2.87979   2.88540
 Alpha virt. eigenvalues --    2.89425   2.90018   2.90631   2.93840   2.94384
 Alpha virt. eigenvalues --    2.96202   2.97051   2.98778   2.99712   3.00293
 Alpha virt. eigenvalues --    3.01400   3.02007   3.02402   3.05739   3.06572
 Alpha virt. eigenvalues --    3.07950   3.10489   3.11266   3.13760   3.14918
 Alpha virt. eigenvalues --    3.15860   3.16318   3.17346   3.18484   3.20678
 Alpha virt. eigenvalues --    3.22568   3.23124   3.24188   3.24848   3.27422
 Alpha virt. eigenvalues --    3.45461   3.47420   3.48202   3.49426   3.51202
 Alpha virt. eigenvalues --    3.52792   3.55676   3.56696   3.58539   3.60722
 Alpha virt. eigenvalues --    3.64283   3.71068   3.76279
          Condensed to atoms (all electrons):
 Mulliken charges:
               1
     1  N   -0.306625
     2  C    0.191364
     3  C    0.056618
     4  N   -0.238026
     5  C    0.115873
     6  H    0.026063
     7  N   -0.284227
     8  C    0.142537
     9  H    0.007934
    10  N   -0.273888
    11  C    0.220437
    12  C    0.076176
    13  N   -0.040871
    14  H    0.112214
    15  H    0.088848
    16  H    0.024768
    17  H    0.035027
    18  H    0.031567
    19  N   -0.292676
    20  C    0.232815
    21  C    0.214708
    22  N   -0.117029
    23  H    0.117451
    24  H    0.117817
    25  N   -0.292320
    26  C    0.227220
    27  N   -0.133439
    28  H    0.115111
    29  C    0.176598
    30  O   -0.324550
    31  C   -0.008138
    32  N   -0.215905
    33  C    0.125692
    34  H    0.018269
    35  H   -0.046896
    36  H    0.038694
    37  H    0.025703
    38  H   -0.002168
    39  H    0.056220
    40  H    0.080795
    41  H    0.023828
    42  C   -0.076994
    43  O   -0.271711
    44  C    0.158044
    45  H    0.131875
    46  N   -0.111730
    47  O   -0.342287
    48  C    0.331585
    49  H    0.037625
    50  C    0.156708
    51  C    0.056726
    52  N   -0.268502
    53  H    0.025471
    54  H    0.036672
    55  H    0.028047
    56  H    0.122462
    57  H    0.119497
    58  N   -0.045485
    59  C    0.100898
    60  C    0.214372
    61  N   -0.260300
    62  H    0.023958
    63  C    0.156562
    64  N   -0.294841
    65  H    0.034716
    66  C    0.117253
    67  N   -0.245120
    68  C    0.037256
    69  C    0.216458
    70  N   -0.312805
 Sum of Mulliken charges =  -0.00000
 Mulliken charges with hydrogens summed into heavy atoms:
               1
     1  N   -0.306625
     2  C    0.282727
     3  C    0.056618
     4  N   -0.238026
     5  C    0.141936
     7  N   -0.284227
     8  C    0.150470
    10  N   -0.273888
    11  C    0.220437
    12  C    0.076176
    13  N    0.160191
    19  N   -0.292676
    20  C    0.232815
    21  C    0.232208
    22  N    0.118239
    25  N   -0.292320
    26  C    0.227220
    27  N   -0.018328
    29  C    0.176598
    30  O   -0.324550
    31  C   -0.008138
    32  N   -0.215905
    33  C    0.143961
    42  C   -0.053166
    43  O   -0.271711
    44  C    0.158044
    46  N    0.020145
    47  O   -0.342287
    48  C    0.331585
    50  C    0.194333
    51  C    0.191573
    52  N   -0.268502
    58  N    0.196474
    59  C    0.100898
    60  C    0.214372
    61  N   -0.260300
    63  C    0.180521
    64  N   -0.294841
    66  C    0.151969
    67  N   -0.245120
    68  C    0.037256
    69  C    0.306647
    70  N   -0.312805
 Electronic spatial extent (au):  <R**2>=          21840.1550
 Charge=             -0.0000 electrons
 Dipole moment (field-independent basis, Debye):
    X=             -4.1027    Y=              4.4800    Z=             -6.3978  Tot=              8.8224
 Quadrupole moment (field-independent basis, Debye-Ang):
   XX=           -145.8306   YY=           -225.0472   ZZ=           -262.8690
   XY=            -11.3734   XZ=             12.0929   YZ=             -6.2958
 Traceless Quadrupole moment (field-independent basis, Debye-Ang):
   XX=             65.4183   YY=            -13.7983   ZZ=            -51.6200
   XY=            -11.3734   XZ=             12.0929   YZ=             -6.2958
 Octapole moment (field-independent basis, Debye-Ang**2):
  XXX=             88.9806  YYY=              4.0644  ZZZ=            -84.8132  XYY=            -38.8454
  XXY=             98.0139  XXZ=            -76.1603  XZZ=            -46.8462  YZZ=             47.1278
  YYZ=             -9.0168  XYZ=             26.9248
 Hexadecapole moment (field-independent basis, Debye-Ang**3):
 XXXX=         -16235.4115 YYYY=          -3508.2781 ZZZZ=          -3600.3564 XXXY=           -637.7193
 XXXZ=            382.0308 YYYX=            104.8189 YYYZ=           -246.9513 ZZZX=            185.3032
 ZZZY=            -17.8545 XXYY=          -4102.7109 XXZZ=          -3977.6811 YYZZ=          -1165.5645
 XXYZ=            -45.9527 YYXZ=            -46.5054 ZZXY=            -67.4472
 N-N= 5.644891546805D+03 E-N=-1.607041596953D+04  KE= 2.037901233603D+03
 No NMR shielding tensors so no spin-rotation constants.
 Leave Link  601 at Thu Jan 25 19:40:20 2018, MaxMem=  4294967296 cpu:              48.7 elap:               1.7
 (Enter /share/apps/g16/l9999.exe)
 1\1\GINC-COMPUTE-0-3\SP\RwB97XD\CC-pVDZ\C23H27N17O3\SATYA\25-Jan-2018\
 0\\#p wb97xd/cc-pvdz sp scf=(maxcycles=20)\\Base pair stacking\\0,1\N,
 0,-0.90748,5.87606,-6.29099\C,0,-1.67515,7.13551,-6.24156\C,0,-0.35008
 ,3.74878,-6.3272\N,0,0.83724,4.46241,-6.40295\C,0,0.45391,5.71546,-6.3
 781\H,0,1.1284,6.57112,-6.42102\N,0,-1.91967,1.99112,-6.22727\C,0,-2.8
 6181,2.93784,-6.16677\H,0,-3.88548,2.57165,-6.10139\N,0,-2.72992,4.262
 78,-6.17485\C,0,-1.43401,4.60655,-6.25765\C,0,-0.62538,2.36934,-6.3099
 6\N,0,0.31654,1.42578,-6.37045\H,0,1.28739,1.6599,-6.43248\H,0,0.084,0
 .45323,-6.35583\H,0,-1.49977,7.66712,-7.0703\H,0,-2.65127,6.92953,-6.1
 7918\H,0,-1.39657,7.66693,-5.44157\N,0,-1.08766,4.84568,-3.16091\C,0,-
 1.49197,3.53282,-3.12943\C,0,-1.988,6.0161,-3.17514\N,0,-4.03637,1.170
 22,-3.05281\H,0,-4.11764,0.17414,-3.03141\H,0,-4.88803,1.69501,-3.0542
 7\N,0,-2.76939,3.09498,-3.10638\C,0,-2.83955,1.77593,-3.07844\N,0,-1.7
 4376,0.94724,-3.0734\H,0,-1.89229,-0.04996,-3.05123\C,0,-0.42026,1.375
 79,-3.09676\O,0,0.49631,0.54477,-3.08971\C,0,-0.32885,2.79057,-3.12691
 \N,0,0.7833,3.62074,-3.15623\C,0,0.2857,4.82748,-3.17562\H,0,0.87775,5
 .74296,-3.20098\H,0,-1.82882,6.55111,-4.00413\H,0,-2.93703,5.70412,-3.
 15829\H,0,-1.8109,6.58472,-2.37257\H,0,-3.30675,-4.9046,-3.58458\H,0,-
 3.022,-4.9617,-1.84668\H,0,-3.58613,-3.46905,-2.59843\H,0,1.49449,-5.1
 9661,-3.48761\C,0,0.7098,-4.45559,-3.3347\O,0,2.17429,-2.59808,-3.5136
 3\C,0,1.04825,-3.0652,-3.34448\H,0,0.18152,-1.22236,-3.14193\N,0,-0.01
 825,-2.21272,-3.14173\O,0,-2.20612,-1.73274,-2.7675\C,0,-1.32981,-2.56
 195,-2.93831\H,0,-0.87008,-5.87147,-3.12236\C,0,-0.56066,-4.82728,-3.1
 3876\C,0,-2.96392,-4.34193,-2.72905\N,0,-1.57656,-3.92074,-2.94252\H,0
 ,-4.39349,-5.52963,-6.25366\H,0,-4.4165,-4.23996,-5.2545\H,0,-3.96063,
 -5.70184,-4.68956\H,0,2.00946,-1.81369,-6.76302\H,0,1.91062,-3.50931,-
 6.9218\N,0,1.45697,-2.64503,-6.70166\C,0,0.1723,-2.60406,-6.34235\C,0,
 -1.96015,-3.54111,-5.85623\N,0,-2.54313,-2.36617,-5.56628\H,0,-2.06413
 ,-0.37526,-5.48009\C,0,-1.6719,-1.36784,-5.69734\N,0,-0.3848,-1.40683,
 -6.05711\H,0,-1.73429,-6.73959,-6.26961\C,0,-1.54952,-5.66704,-6.20294
 \N,0,-0.39977,-5.0917,-6.45735\C,0,-0.6463,-3.74363,-6.24132\C,0,-3.93
 918,-5.08888,-5.47949\N,0,-2.53834,-4.78818,-5.83339\\Version=EM64L-G1
 6RevA.03\State=1-A\HF=-2048.7334482\RMSD=7.378e-09\Dipole=-3.0720268,-
 1.5942221,-0.2625499\Quadrupole=-21.5270548,48.3181499,-26.7910952,12.
 5473358,-14.9697381,-2.577944\PG=C01 [X(C23H27N17O3)]\\@


 SUCCESS IS COUNTED SWEETEST
 BY THOSE WHO NE'ER SUCCEED.
 TO COMPREHEND NECTAR
 REQUIRES SOREST NEED.
           EMILY DICKINSON
 Job cpu time:       0 days  6 hours 35 minutes 44.0 seconds.
 Elapsed time:       0 days  0 hours 12 minutes 45.0 seconds.
 File lengths (MBytes):  RWF=    298 Int=      0 D2E=      0 Chk=     33 Scr=      1
 Normal termination of Gaussian 16 at Thu Jan 25 19:40:20 2018.
