 Entering Gaussian System, Link 0=g16
 Input=str50.10.-1.5.com
 Output=str50.10.-1.5.log
 Initial command:
 /share/apps/g16/l1.exe "/state/partition1/scr/Gau-29592.inp" -scrdir="/state/partition1/scr/"
 Entering Link 1 = /share/apps/g16/l1.exe PID=     29593.
  
 Copyright (c) 1988,1990,1992,1993,1995,1998,2003,2009,2016,
            Gaussian, Inc.  All Rights Reserved.
  
 This is part of the Gaussian(R) 16 program.  It is based on
 the Gaussian(R) 09 system (copyright 2009, Gaussian, Inc.),
 the Gaussian(R) 03 system (copyright 2003, Gaussian, Inc.),
 the Gaussian(R) 98 system (copyright 1998, Gaussian, Inc.),
 the Gaussian(R) 94 system (copyright 1995, Gaussian, Inc.),
 the Gaussian 92(TM) system (copyright 1992, Gaussian, Inc.),
 the Gaussian 90(TM) system (copyright 1990, Gaussian, Inc.),
 the Gaussian 88(TM) system (copyright 1988, Gaussian, Inc.),
 the Gaussian 86(TM) system (copyright 1986, Carnegie Mellon
 University), and the Gaussian 82(TM) system (copyright 1983,
 Carnegie Mellon University). Gaussian is a federally registered
 trademark of Gaussian, Inc.
  
 This software contains proprietary and confidential information,
 including trade secrets, belonging to Gaussian, Inc.
  
 This software is provided under written license and may be
 used, copied, transmitted, or stored only in accord with that
 written license.
  
 The following legend is applicable only to US Government
 contracts under FAR:
  
                    RESTRICTED RIGHTS LEGEND
  
 Use, reproduction and disclosure by the US Government is
 subject to restrictions as set forth in subparagraphs (a)
 and (c) of the Commercial Computer Software - Restricted
 Rights clause in FAR 52.227-19.
  
 Gaussian, Inc.
 340 Quinnipiac St., Bldg. 40, Wallingford CT 06492
  
  
 ---------------------------------------------------------------
 Warning -- This program may not be used in any manner that
 competes with the business of Gaussian, Inc. or will provide
 assistance to any competitor of Gaussian, Inc.  The licensee
 of this program is prohibited from giving any competitor of
 Gaussian, Inc. access to this program.  By using this program,
 the user acknowledges that Gaussian, Inc. is engaged in the
 business of creating and licensing software in the field of
 computational chemistry and represents and warrants to the
 licensee that it is not a competitor of Gaussian, Inc. and that
 it will not use this program in any manner prohibited above.
 ---------------------------------------------------------------
  

 Cite this work as:
 Gaussian 16, Revision A.03,
 M. J. Frisch, G. W. Trucks, H. B. Schlegel, G. E. Scuseria, 
 M. A. Robb, J. R. Cheeseman, G. Scalmani, V. Barone, 
 G. A. Petersson, H. Nakatsuji, X. Li, M. Caricato, A. V. Marenich, 
 J. Bloino, B. G. Janesko, R. Gomperts, B. Mennucci, H. P. Hratchian, 
 J. V. Ortiz, A. F. Izmaylov, J. L. Sonnenberg, D. Williams-Young, 
 F. Ding, F. Lipparini, F. Egidi, J. Goings, B. Peng, A. Petrone, 
 T. Henderson, D. Ranasinghe, V. G. Zakrzewski, J. Gao, N. Rega, 
 G. Zheng, W. Liang, M. Hada, M. Ehara, K. Toyota, R. Fukuda, 
 J. Hasegawa, M. Ishida, T. Nakajima, Y. Honda, O. Kitao, H. Nakai, 
 T. Vreven, K. Throssell, J. A. Montgomery, Jr., J. E. Peralta, 
 F. Ogliaro, M. J. Bearpark, J. J. Heyd, E. N. Brothers, K. N. Kudin, 
 V. N. Staroverov, T. A. Keith, R. Kobayashi, J. Normand, 
 K. Raghavachari, A. P. Rendell, J. C. Burant, S. S. Iyengar, 
 J. Tomasi, M. Cossi, J. M. Millam, M. Klene, C. Adamo, R. Cammi, 
 J. W. Ochterski, R. L. Martin, K. Morokuma, O. Farkas, 
 J. B. Foresman, and D. J. Fox, Gaussian, Inc., Wallingford CT, 2016.
 
 ******************************************
 Gaussian 16:  EM64L-G16RevA.03 25-Dec-2016
                24-Jan-2018 
 ******************************************
 %nprocshared=32
 Will use up to   32 processors via shared memory.
 %mem=32GB
 %chk=allatoms_t.chk
 ---------------------------------------
 #p wb97xd/cc-pvdz sp scf=(maxcycles=20)
 ---------------------------------------
 1/38=1,172=1/1;
 2/12=2,17=6,18=5,40=1/2;
 3/5=16,11=2,25=1,30=1,74=-58/1,2,3;
 4//1;
 5/5=2,7=20,38=5/2;
 6/7=2,8=2,9=2,10=2,28=1/1;
 99/5=1,9=1/99;
 Leave Link    1 at Wed Jan 24 12:58:05 2018, MaxMem=  4294967296 cpu:               2.7 elap:               0.1
 (Enter /share/apps/g16/l101.exe)
 ------------------
 Base pair stacking
 ------------------
 Symbolic Z-matrix:
 Charge =  0 Multiplicity = 1
 N                     8.74066   1.66598  -5.07664 
 C                     10.02317   2.39545  -5.10876 
 C                     6.61408   1.13494  -5.25824 
 N                     7.25379   0.00973  -4.75885 
 C                     8.50938   0.37469  -4.66943 
 H                     9.31657  -0.26401  -4.30965 
 N                     4.96587   2.62152  -6.05599 
 C                     5.94949   3.5161   -6.19662 
 H                     5.64345   4.48651  -6.58509 
 N                     7.2483    3.39252  -5.93067 
 C                     7.51765   2.1639   -5.45913 
 C                     5.26924   1.39447  -5.57915 
 N                     4.28874   0.50011  -5.43806 
 H                     4.46744  -0.42036  -5.08875 
 H                     3.34264   0.71954  -5.67658 
 H                     10.66551   1.91688  -5.70754 
 H                     9.87249   3.32095  -5.45499 
 H                     10.40423   2.44471  -4.18552 
 N                     3.6795    5.43882  -3.07427 
 C                     2.47182   4.79638  -3.20399 
 C                     3.89642   6.89019  -3.23904 
 N                    -0.9404    4.90638  -3.8415 
 H                    -1.70292   4.26181  -3.88977 
 H                    -1.14861   5.86932  -4.01501 
 N                     1.28992   5.37839  -3.50137 
 C                     0.30569   4.49872  -3.55696 
 N                     0.46464   3.1517   -3.33836 
 H                    -0.34454   2.55321  -3.40161 
 C                     1.67136   2.53103  -3.031 
 O                     1.70644   1.30727  -2.85234 
 C                     2.73803   3.46328  -2.96779 
 N                     4.08573   3.27264  -2.69528 
 C                     4.60307   4.46892  -2.76937 
 H                     5.65668   4.70078  -2.60994 
 H                     4.54776   7.04954  -3.9801 
 H                     3.02781   7.33195  -3.45957 
 H                     4.25785   7.27342  -2.38974 
 H                    -4.62574   0.03691  -4.49353 
 H                    -4.81954   0.02498  -2.74226 
 H                    -3.99939   1.37413  -3.5287 
 H                    -1.58775  -3.4959   -3.29499 
 C                    -1.62866  -2.40661  -3.2921 
 O                     0.71349  -2.13583  -3.03106 
 C                    -0.41536  -1.66075  -3.15275 
 H                     0.25571   0.27066  -3.06533 
 N                    -0.57909  -0.29022  -3.16154 
 O                    -1.80218   1.61931  -3.28388 
 C                    -1.75767   0.40166  -3.28725 
 H                    -3.74421  -2.28072  -3.52536 
 C                    -2.79365  -1.76017  -3.41662 
 C                    -4.16644   0.30757  -3.55446 
 N                    -2.88354  -0.38748  -3.41722 
 H                    -2.28556   4.88924  -8.28231 
 H                    -1.16906   5.29412  -7.16356 
 H                    -2.72727   5.08759  -6.72379 
 H                     1.04937  -1.21755  -5.7034 
 H                    -0.59083  -1.18873  -6.17137 
 N                     0.25551  -0.68448  -5.99624 
 C                     0.32147   0.63996  -6.14684 
 C                    -0.54246   2.79518  -6.66682 
 N                     0.60741   3.44595  -6.4245 
 H                     2.52584   3.03843  -5.82938 
 C                     1.55649   2.59189  -6.0467 
 N                     1.49239   1.26504  -5.89527 
 H                    -3.64485   2.42503  -7.4977 
 C                    -2.60985   2.28094  -7.18631 
 N                    -2.07614   1.12193  -6.88711 
 C                    -0.76548   1.43374  -6.55596 
 C                    -2.00102   4.76616  -7.33158 
 N                    -1.73844   3.33682  -7.07459 
 
 ITRead=  0  0  0  0  0  0  0  0  0  0  0  0  0  0  0  0  0  0  0  0
 ITRead=  0  0  0  0  0  0  0  0  0  0  0  0  0  0  0  0  0  0  0  0
 ITRead=  0  0  0  0  0  0  0  0  0  0  0  0  0  0  0  0  0  0  0  0
 ITRead=  0  0  0  0  0  0  0  0  0  0
 MicOpt= -1 -1 -1 -1 -1 -1 -1 -1 -1 -1 -1 -1 -1 -1 -1 -1 -1 -1 -1 -1
 MicOpt= -1 -1 -1 -1 -1 -1 -1 -1 -1 -1 -1 -1 -1 -1 -1 -1 -1 -1 -1 -1
 MicOpt= -1 -1 -1 -1 -1 -1 -1 -1 -1 -1 -1 -1 -1 -1 -1 -1 -1 -1 -1 -1
 MicOpt= -1 -1 -1 -1 -1 -1 -1 -1 -1 -1
 NAtoms=     70 NQM=       70 NQMF=       0 NMMI=      0 NMMIF=      0
                NMic=       0 NMicF=      0.
                    Isotopes and Nuclear Properties:
 (Nuclear quadrupole moments (NQMom) in fm**2, nuclear magnetic moments (NMagM)
  in nuclear magnetons)

  Atom         1           2           3           4           5           6           7           8           9          10
 IAtWgt=          14          12          12          14          12           1          14          12           1          14
 AtmWgt=  14.0030740  12.0000000  12.0000000  14.0030740  12.0000000   1.0078250  14.0030740  12.0000000   1.0078250  14.0030740
 NucSpn=           2           0           0           2           0           1           2           0           1           2
 AtZEff=  -0.0000000  -0.0000000  -0.0000000  -0.0000000  -0.0000000  -0.0000000  -0.0000000  -0.0000000  -0.0000000  -0.0000000
 NQMom=    2.0440000   0.0000000   0.0000000   2.0440000   0.0000000   0.0000000   2.0440000   0.0000000   0.0000000   2.0440000
 NMagM=    0.4037610   0.0000000   0.0000000   0.4037610   0.0000000   2.7928460   0.4037610   0.0000000   2.7928460   0.4037610
 AtZNuc=   7.0000000   6.0000000   6.0000000   7.0000000   6.0000000   1.0000000   7.0000000   6.0000000   1.0000000   7.0000000

  Atom        11          12          13          14          15          16          17          18          19          20
 IAtWgt=          12          12          14           1           1           1           1           1          14          12
 AtmWgt=  12.0000000  12.0000000  14.0030740   1.0078250   1.0078250   1.0078250   1.0078250   1.0078250  14.0030740  12.0000000
 NucSpn=           0           0           2           1           1           1           1           1           2           0
 AtZEff=  -0.0000000  -0.0000000  -0.0000000  -0.0000000  -0.0000000  -0.0000000  -0.0000000  -0.0000000  -0.0000000  -0.0000000
 NQMom=    0.0000000   0.0000000   2.0440000   0.0000000   0.0000000   0.0000000   0.0000000   0.0000000   2.0440000   0.0000000
 NMagM=    0.0000000   0.0000000   0.4037610   2.7928460   2.7928460   2.7928460   2.7928460   2.7928460   0.4037610   0.0000000
 AtZNuc=   6.0000000   6.0000000   7.0000000   1.0000000   1.0000000   1.0000000   1.0000000   1.0000000   7.0000000   6.0000000

  Atom        21          22          23          24          25          26          27          28          29          30
 IAtWgt=          12          14           1           1          14          12          14           1          12          16
 AtmWgt=  12.0000000  14.0030740   1.0078250   1.0078250  14.0030740  12.0000000  14.0030740   1.0078250  12.0000000  15.9949146
 NucSpn=           0           2           1           1           2           0           2           1           0           0
 AtZEff=  -0.0000000  -0.0000000  -0.0000000  -0.0000000  -0.0000000  -0.0000000  -0.0000000  -0.0000000  -0.0000000  -0.0000000
 NQMom=    0.0000000   2.0440000   0.0000000   0.0000000   2.0440000   0.0000000   2.0440000   0.0000000   0.0000000   0.0000000
 NMagM=    0.0000000   0.4037610   2.7928460   2.7928460   0.4037610   0.0000000   0.4037610   2.7928460   0.0000000   0.0000000
 AtZNuc=   6.0000000   7.0000000   1.0000000   1.0000000   7.0000000   6.0000000   7.0000000   1.0000000   6.0000000   8.0000000

  Atom        31          32          33          34          35          36          37          38          39          40
 IAtWgt=          12          14          12           1           1           1           1           1           1           1
 AtmWgt=  12.0000000  14.0030740  12.0000000   1.0078250   1.0078250   1.0078250   1.0078250   1.0078250   1.0078250   1.0078250
 NucSpn=           0           2           0           1           1           1           1           1           1           1
 AtZEff=  -0.0000000  -0.0000000  -0.0000000  -0.0000000  -0.0000000  -0.0000000  -0.0000000  -0.0000000  -0.0000000  -0.0000000
 NQMom=    0.0000000   2.0440000   0.0000000   0.0000000   0.0000000   0.0000000   0.0000000   0.0000000   0.0000000   0.0000000
 NMagM=    0.0000000   0.4037610   0.0000000   2.7928460   2.7928460   2.7928460   2.7928460   2.7928460   2.7928460   2.7928460
 AtZNuc=   6.0000000   7.0000000   6.0000000   1.0000000   1.0000000   1.0000000   1.0000000   1.0000000   1.0000000   1.0000000

  Atom        41          42          43          44          45          46          47          48          49          50
 IAtWgt=           1          12          16          12           1          14          16          12           1          12
 AtmWgt=   1.0078250  12.0000000  15.9949146  12.0000000   1.0078250  14.0030740  15.9949146  12.0000000   1.0078250  12.0000000
 NucSpn=           1           0           0           0           1           2           0           0           1           0
 AtZEff=  -0.0000000  -0.0000000  -0.0000000  -0.0000000  -0.0000000  -0.0000000  -0.0000000  -0.0000000  -0.0000000  -0.0000000
 NQMom=    0.0000000   0.0000000   0.0000000   0.0000000   0.0000000   2.0440000   0.0000000   0.0000000   0.0000000   0.0000000
 NMagM=    2.7928460   0.0000000   0.0000000   0.0000000   2.7928460   0.4037610   0.0000000   0.0000000   2.7928460   0.0000000
 AtZNuc=   1.0000000   6.0000000   8.0000000   6.0000000   1.0000000   7.0000000   8.0000000   6.0000000   1.0000000   6.0000000

  Atom        51          52          53          54          55          56          57          58          59          60
 IAtWgt=          12          14           1           1           1           1           1          14          12          12
 AtmWgt=  12.0000000  14.0030740   1.0078250   1.0078250   1.0078250   1.0078250   1.0078250  14.0030740  12.0000000  12.0000000
 NucSpn=           0           2           1           1           1           1           1           2           0           0
 AtZEff=  -0.0000000  -0.0000000  -0.0000000  -0.0000000  -0.0000000  -0.0000000  -0.0000000  -0.0000000  -0.0000000  -0.0000000
 NQMom=    0.0000000   2.0440000   0.0000000   0.0000000   0.0000000   0.0000000   0.0000000   2.0440000   0.0000000   0.0000000
 NMagM=    0.0000000   0.4037610   2.7928460   2.7928460   2.7928460   2.7928460   2.7928460   0.4037610   0.0000000   0.0000000
 AtZNuc=   6.0000000   7.0000000   1.0000000   1.0000000   1.0000000   1.0000000   1.0000000   7.0000000   6.0000000   6.0000000

  Atom        61          62          63          64          65          66          67          68          69          70
 IAtWgt=          14           1          12          14           1          12          14          12          12          14
 AtmWgt=  14.0030740   1.0078250  12.0000000  14.0030740   1.0078250  12.0000000  14.0030740  12.0000000  12.0000000  14.0030740
 NucSpn=           2           1           0           2           1           0           2           0           0           2
 AtZEff=  -0.0000000  -0.0000000  -0.0000000  -0.0000000  -0.0000000  -0.0000000  -0.0000000  -0.0000000  -0.0000000  -0.0000000
 NQMom=    2.0440000   0.0000000   0.0000000   2.0440000   0.0000000   0.0000000   2.0440000   0.0000000   0.0000000   2.0440000
 NMagM=    0.4037610   2.7928460   0.0000000   0.4037610   2.7928460   0.0000000   0.4037610   0.0000000   0.0000000   0.4037610
 AtZNuc=   7.0000000   1.0000000   6.0000000   7.0000000   1.0000000   6.0000000   7.0000000   6.0000000   6.0000000   7.0000000
 Leave Link  101 at Wed Jan 24 12:58:05 2018, MaxMem=  4294967296 cpu:               7.8 elap:               0.3
 (Enter /share/apps/g16/l202.exe)
 Stoichiometry    C23H27N17O3
 Framework group  C1[X(C23H27N17O3)]
 Deg. of freedom   204
 Full point group                 C1      NOp   1
 Largest Abelian subgroup         C1      NOp   1
 Largest concise Abelian subgroup C1      NOp   1
                         Standard orientation:                         
 ---------------------------------------------------------------------
 Center     Atomic      Atomic             Coordinates (Angstroms)
 Number     Number       Type             X           Y           Z
 ---------------------------------------------------------------------
      1          7           0       -6.720992   -1.585710    0.374775
      2          6           0       -8.115704   -1.104310    0.342794
      3          6           0       -4.538375   -1.704079    0.618694
      4          7           0       -4.948737   -2.955961    0.183825
      5          6           0       -6.247266   -2.834552    0.054278
      6          1           0       -6.914725   -3.631548   -0.274705
      7          7           0       -3.210432    0.106085    1.341739
      8          6           0       -4.344315    0.811070    1.411491
      9          1           0       -4.230790    1.842932    1.741093
     10          7           0       -5.591527    0.434567    1.136506
     11          6           0       -5.619677   -0.848877    0.741048
     12          6           0       -3.272172   -1.182404    0.940434
     13          7           0       -2.141384   -1.887775    0.870167
     14          1           0       -2.139875   -2.844825    0.578160
     15          1           0       -1.257666   -1.483852    1.106882
     16          1           0       -8.674437   -1.655872    0.962281
     17          1           0       -8.145594   -0.147671    0.631027
     18          1           0       -8.476113   -1.182004   -0.586762
     19          7           0       -2.386944    2.926478   -1.796705
     20          6           0       -1.085748    2.526466   -1.609815
     21          6           0       -2.869774    4.320343   -1.728189
     22          7           0        2.231718    3.301312   -0.934685
     23          1           0        3.097836    2.812306   -0.834940
     24          1           0        2.255843    4.294827   -0.820423
     25          7           0       -0.038088    3.333077   -1.334411
     26          6           0        1.088754    2.654701   -1.209311
     27          7           0        1.184435    1.290734   -1.343297
     28          1           0        2.087607    0.856433   -1.230927
     29          6           0        0.119705    0.441022   -1.626518
     30          8           0        0.313576   -0.776796   -1.726875
     31          6           0       -1.097589    1.155338   -1.763703
     32          7           0       -2.380418    0.703647   -2.041598
     33          6           0       -3.109566    1.786452   -2.051279
     34          1           0       -4.183485    1.810246   -2.239435
     35          1           0       -3.557616    4.401552   -1.007713
     36          1           0       -2.102436    4.927021   -1.524712
     37          1           0       -3.273838    4.578372   -2.605092
     38          1           0        6.728194   -0.757701    0.077602
     39          1           0        6.964682   -0.839650   -1.666533
     40          1           0        5.892133    0.380452   -0.979270
     41          1           0        4.418741   -4.855463   -0.933043
     42          6           0        4.259744   -3.779473   -1.005154
     43          8           0        1.914864   -3.960931   -1.314579
     44          6           0        2.934346   -3.279620   -1.208354
     45          1           0        1.923669   -1.513707   -1.428365
     46          7           0        2.844314   -1.904399   -1.285169
     47          8           0        3.693979    0.201551   -1.268914
     48          6           0        3.872908   -1.000999   -1.188150
     49          1           0        6.310048   -3.252277   -0.751918
     50          6           0        5.283324   -2.923225   -0.906595
     51          6           0        6.250784   -0.633560   -0.882989
     52          7           0        5.120532   -1.559979   -0.992717
     53          1           0        3.445721    3.800835    3.515845
     54          1           0        2.302354    3.924757    2.358496
     55          1           0        3.882562    3.982491    1.953921
     56          1           0        1.349874   -2.960270    1.288673
     57          1           0        2.944885   -2.601643    1.775921
     58          7           0        2.025233   -2.273405    1.557446
     59          6           0        1.714343   -0.977121    1.621991
     60          6           0        2.156122    1.327773    2.014448
     61          7           0        0.913037    1.739792    1.715447
     62          1           0       -0.882956    0.950718    1.121827
     63          6           0        0.145977    0.704301    1.380364
     64          7           0        0.455501   -0.594741    1.315121
     65          1           0        5.252084    1.586216    2.909113
     66          6           0        4.269036    1.235425    2.593657
     67          7           0        3.964023   -0.017987    2.362144
     68          6           0        2.627146    0.026517    1.994048
     69          6           0        3.212389    3.570181    2.571200
     70          7           0        3.222242    2.104049    2.402782
 ---------------------------------------------------------------------
 Rotational constants (GHZ):           0.1265908           0.0542368           0.0473187
 Leave Link  202 at Wed Jan 24 12:58:05 2018, MaxMem=  4294967296 cpu:               0.4 elap:               0.0
 (Enter /share/apps/g16/l301.exe)
 Standard basis: CC-pVDZ (5D, 7F)
 Ernie: Thresh=  0.10000D-02 Tol=  0.10000D-05 Strict=F.
 Ernie:  86 primitive shells out of 1081 were deleted.
 There are   780 symmetry adapted cartesian basis functions of A   symmetry.
 There are   737 symmetry adapted basis functions of A   symmetry.
   737 basis functions,  1608 primitive gaussians,   780 cartesian basis functions
   154 alpha electrons      154 beta electrons
       nuclear repulsion energy      5427.6350714614 Hartrees.
 IExCor= 4639 DFT=T Ex+Corr=wB97XD ExCW=0 ScaHFX=  1.000000
 ScaDFX=  1.000000  1.000000  1.000000  1.000000 ScalE2=  1.000000  1.000000
 IRadAn=      5 IRanWt=     -1 IRanGd=            0 ICorTp=0 IEmpDi=121
 HFx  wShort=  0.000000 wLong=  0.200000 cFull=  0.222036 cShort=  0.000000 cLong=  0.777964
 DFx  wShort=  0.000000 wLong=  0.200000 cFull=  0.000000 cShort=  0.000000 cLong=  1.000000
 NAtoms=   70 NActive=   70 NUniq=   70 SFac= 1.00D+00 NAtFMM=   60 NAOKFM=T Big=T
 Integral buffers will be    131072 words long.
 Raffenetti 2 integral format.
 Two-electron integral symmetry is turned on.
 R6Disp:  Grimme-D2 Dispersion energy=       -0.0668614638 Hartrees.
 Nuclear repulsion after empirical dispersion term =     5427.5682099976 Hartrees.
 Leave Link  301 at Wed Jan 24 12:58:05 2018, MaxMem=  4294967296 cpu:               3.0 elap:               0.1
 (Enter /share/apps/g16/l302.exe)
 NPDir=0 NMtPBC=     1 NCelOv=     1 NCel=       1 NClECP=     1 NCelD=      1
         NCelK=      1 NCelE2=     1 NClLst=     1 CellRange=     0.0.
 One-electron integrals computed using PRISM.
 One-electron integral symmetry used in STVInt
 NBasis=   737 RedAO= T EigKep=  7.20D-04  NBF=   737
 NBsUse=   737 1.00D-06 EigRej= -1.00D+00 NBFU=   737
 Precomputing XC quadrature grid using
 IXCGrd= 4 IRadAn=           5 IRanWt=          -1 IRanGd=           0 AccXCQ= 0.00D+00.
 Generated NRdTot=       0 NPtTot=           0 NUsed=           0 NTot=          32
 NSgBfM=   767   767   767   767   767 MxSgAt=    70 MxSgA2=    70.
 Leave Link  302 at Wed Jan 24 12:58:10 2018, MaxMem=  4294967296 cpu:             135.6 elap:               4.3
 (Enter /share/apps/g16/l303.exe)
 DipDrv:  MaxL=1.
 Leave Link  303 at Wed Jan 24 12:58:10 2018, MaxMem=  4294967296 cpu:              12.4 elap:               0.4
 (Enter /share/apps/g16/l401.exe)
 ExpMin= 1.22D-01 ExpMax= 1.17D+04 ExpMxC= 4.01D+02 IAcc=3 IRadAn=         5 AccDes= 0.00D+00
 Harris functional with IExCor= 4639 and IRadAn=       5 diagonalized for initial guess.
 HarFok:  IExCor= 4639 AccDes= 0.00D+00 IRadAn=         5 IDoV= 1 UseB2=F ITyADJ=14
 ICtDFT=  3500011 ScaDFX=  1.000000  1.000000  1.000000  1.000000
 FoFCou: FMM=F IPFlag=           0 FMFlag=      100000 FMFlg1=        2001
         NFxFlg=           0 DoJE=T BraDBF=F KetDBF=T FulRan=T
         wScrn=  0.000000 ICntrl=       500 IOpCl=  0 I1Cent=   200000004 NGrid=           0
         NMat0=    1 NMatS0=      1 NMatT0=    0 NMatD0=    1 NMtDS0=    0 NMtDT0=    0
 Petite list used in FoFCou.
 Harris En= -1963.88292875672    
 JPrj=0 DoOrth=F DoCkMO=F.
 Leave Link  401 at Wed Jan 24 12:58:22 2018, MaxMem=  4294967296 cpu:             389.7 elap:              12.2
 (Enter /share/apps/g16/l502.exe)
 Integral symmetry usage will be decided dynamically.
 Closed shell SCF:
 Using DIIS extrapolation, IDIIS=  1040.
 NGot=  4294967296 LenX=  4293717438 LenY=  4293108258
 Requested convergence on RMS density matrix=1.00D-08 within  20 cycles.
 Requested convergence on MAX density matrix=1.00D-06.
 Requested convergence on             energy=1.00D-06.
 No special actions if energy rises.
 Fock matrices will be formed incrementally for  20 cycles.
 Integral accuracy reduced to 1.0D-05 until final iterations.

 Cycle   1  Pass 0  IDiag  1:
 FoFJK:  IHMeth= 1 ICntrl=       0 DoSepK=T KAlg= 0 I1Cent=           0 FoldK=F
 IRaf=         1 NMat=       1 IRICut=       1 DoRegI=T DoRafI=F ISym2E= 0 IDoP0=0 IntGTp=1.
 FoFCou: FMM=T IPFlag=           0 FMFlag=      100000 FMFlg1=        2001
         NFxFlg=           0 DoJE=T BraDBF=F KetDBF=F FulRan=T
         wScrn=  0.000000 ICntrl=       500 IOpCl=  0 I1Cent=           0 NGrid=           0
         NMat0=    1 NMatS0=      1 NMatT0=    0 NMatD0=    1 NMtDS0=    0 NMtDT0=    0
 Symmetry not used in FoFCou.
 FMM levels:  10  Number of levels for PrismC:   9
 E= -2048.31143042373    
 DIIS: error= 2.37D-02 at cycle   1 NSaved=   1.
 NSaved= 1 IEnMin= 1 EnMin= -2048.31143042373     IErMin= 1 ErrMin= 2.37D-02
 ErrMax= 2.37D-02  0.00D+00 EMaxC= 1.00D-01 BMatC= 8.32D-01 BMatP= 8.32D-01
 IDIUse=3 WtCom= 7.63D-01 WtEn= 2.37D-01
 Coeff-Com:  0.100D+01
 Coeff-En:   0.100D+01
 Coeff:      0.100D+01
 Gap=     0.251 Goal=   None    Shift=    0.000
 GapD=    0.251 DampG=1.000 DampE=0.500 DampFc=0.5000 IDamp=-1.
 Damping current iteration by 5.00D-01
 RMSDP=1.57D-03 MaxDP=1.31D-01              OVMax= 2.03D-01

 Cycle   2  Pass 0  IDiag  1:
 RMSU=  7.83D-04    CP:  9.98D-01
 E= -2048.50927402892     Delta-E=       -0.197843605190 Rises=F Damp=T
 DIIS: error= 1.32D-02 at cycle   2 NSaved=   2.
 NSaved= 2 IEnMin= 2 EnMin= -2048.50927402892     IErMin= 2 ErrMin= 1.32D-02
 ErrMax= 1.32D-02  0.00D+00 EMaxC= 1.00D-01 BMatC= 1.44D-01 BMatP= 8.32D-01
 IDIUse=3 WtCom= 8.68D-01 WtEn= 1.32D-01
 Coeff-Com: -0.200D+00 0.120D+01
 Coeff-En:   0.000D+00 0.100D+01
 Coeff:     -0.173D+00 0.117D+01
 Gap=     0.361 Goal=   None    Shift=    0.000
 RMSDP=5.82D-04 MaxDP=3.42D-02 DE=-1.98D-01 OVMax= 1.50D-01

 Cycle   3  Pass 0  IDiag  1:
 RMSU=  5.69D-04    CP:  9.94D-01  1.14D+00
 E= -2048.69021237102     Delta-E=       -0.180938342094 Rises=F Damp=F
 DIIS: error= 8.26D-03 at cycle   3 NSaved=   3.
 NSaved= 3 IEnMin= 3 EnMin= -2048.69021237102     IErMin= 3 ErrMin= 8.26D-03
 ErrMax= 8.26D-03  0.00D+00 EMaxC= 1.00D-01 BMatC= 6.08D-02 BMatP= 1.44D-01
 IDIUse=3 WtCom= 9.17D-01 WtEn= 8.26D-02
 Coeff-Com: -0.230D+00 0.544D+00 0.686D+00
 Coeff-En:   0.000D+00 0.000D+00 0.100D+01
 Coeff:     -0.211D+00 0.499D+00 0.712D+00
 Gap=     0.277 Goal=   None    Shift=    0.000
 RMSDP=3.49D-04 MaxDP=3.34D-02 DE=-1.81D-01 OVMax= 7.28D-02

 Cycle   4  Pass 0  IDiag  1:
 RMSU=  2.00D-04    CP:  9.94D-01  1.42D+00  6.76D-01
 E= -2048.73600010673     Delta-E=       -0.045787735714 Rises=F Damp=F
 DIIS: error= 3.04D-03 at cycle   4 NSaved=   4.
 NSaved= 4 IEnMin= 4 EnMin= -2048.73600010673     IErMin= 4 ErrMin= 3.04D-03
 ErrMax= 3.04D-03  0.00D+00 EMaxC= 1.00D-01 BMatC= 9.09D-03 BMatP= 6.08D-02
 IDIUse=3 WtCom= 9.70D-01 WtEn= 3.04D-02
 Coeff-Com: -0.943D-01 0.183D+00 0.382D+00 0.530D+00
 Coeff-En:   0.000D+00 0.000D+00 0.700D-01 0.930D+00
 Coeff:     -0.915D-01 0.177D+00 0.373D+00 0.542D+00
 Gap=     0.282 Goal=   None    Shift=    0.000
 RMSDP=1.26D-04 MaxDP=1.19D-02 DE=-4.58D-02 OVMax= 1.34D-02

 Cycle   5  Pass 0  IDiag  1:
 RMSU=  6.09D-05    CP:  9.94D-01  1.40D+00  8.10D-01  6.15D-01
 E= -2048.74346843179     Delta-E=       -0.007468325057 Rises=F Damp=F
 DIIS: error= 7.63D-04 at cycle   5 NSaved=   5.
 NSaved= 5 IEnMin= 5 EnMin= -2048.74346843179     IErMin= 5 ErrMin= 7.63D-04
 ErrMax= 7.63D-04  0.00D+00 EMaxC= 1.00D-01 BMatC= 3.01D-04 BMatP= 9.09D-03
 IDIUse=3 WtCom= 9.92D-01 WtEn= 7.63D-03
 Coeff-Com: -0.245D-01 0.419D-01 0.124D+00 0.243D+00 0.615D+00
 Coeff-En:   0.000D+00 0.000D+00 0.000D+00 0.000D+00 0.100D+01
 Coeff:     -0.243D-01 0.415D-01 0.123D+00 0.241D+00 0.618D+00
 Gap=     0.282 Goal=   None    Shift=    0.000
 RMSDP=2.61D-05 MaxDP=1.98D-03 DE=-7.47D-03 OVMax= 3.19D-03

 Failed to achieve initial convergence to 1.0D-08 in  6 cycles.
 Switch to full accuracy anyway.
 Cycle   6  Pass 1  IDiag  1:
 E= -2048.74387524339     Delta-E=       -0.000406811605 Rises=F Damp=F
 DIIS: error= 2.47D-04 at cycle   1 NSaved=   1.
 NSaved= 1 IEnMin= 1 EnMin= -2048.74387524339     IErMin= 1 ErrMin= 2.47D-04
 ErrMax= 2.47D-04  0.00D+00 EMaxC= 1.00D-01 BMatC= 7.27D-05 BMatP= 7.27D-05
 IDIUse=3 WtCom= 9.98D-01 WtEn= 2.47D-03
 Coeff-Com:  0.100D+01
 Coeff-En:   0.100D+01
 Coeff:      0.100D+01
 Gap=     0.282 Goal=   None    Shift=    0.000
 RMSDP=2.61D-05 MaxDP=1.98D-03 DE=-4.07D-04 OVMax= 2.44D-03

 Cycle   7  Pass 1  IDiag  1:
 RMSU=  1.13D-04    CP:  1.00D+00
 E= -2048.74393016951     Delta-E=       -0.000054926118 Rises=F Damp=F
 DIIS: error= 2.97D-04 at cycle   2 NSaved=   2.
 NSaved= 2 IEnMin= 2 EnMin= -2048.74393016951     IErMin= 1 ErrMin= 2.47D-04
 ErrMax= 2.97D-04  0.00D+00 EMaxC= 1.00D-01 BMatC= 4.11D-05 BMatP= 7.27D-05
 IDIUse=3 WtCom= 9.97D-01 WtEn= 2.97D-03
 Coeff-Com:  0.404D+00 0.596D+00
 Coeff-En:   0.000D+00 0.100D+01
 Coeff:      0.403D+00 0.597D+00
 Gap=     0.282 Goal=   None    Shift=    0.000
 RMSDP=1.11D-05 MaxDP=1.12D-03 DE=-5.49D-05 OVMax= 1.32D-03

 Cycle   8  Pass 1  IDiag  1:
 RMSU=  1.07D-05    CP:  1.00D+00  1.03D+00
 E= -2048.74395938913     Delta-E=       -0.000029219621 Rises=F Damp=F
 DIIS: error= 1.07D-04 at cycle   3 NSaved=   3.
 NSaved= 3 IEnMin= 3 EnMin= -2048.74395938913     IErMin= 3 ErrMin= 1.07D-04
 ErrMax= 1.07D-04  0.00D+00 EMaxC= 1.00D-01 BMatC= 1.01D-05 BMatP= 4.11D-05
 IDIUse=3 WtCom= 9.99D-01 WtEn= 1.07D-03
 Coeff-Com: -0.203D-01 0.318D+00 0.702D+00
 Coeff-En:   0.000D+00 0.140D+00 0.860D+00
 Coeff:     -0.203D-01 0.318D+00 0.702D+00
 Gap=     0.282 Goal=   None    Shift=    0.000
 RMSDP=5.53D-06 MaxDP=4.61D-04 DE=-2.92D-05 OVMax= 5.18D-04

 Cycle   9  Pass 1  IDiag  1:
 RMSU=  3.75D-06    CP:  1.00D+00  1.05D+00  7.61D-01
 E= -2048.74396861778     Delta-E=       -0.000009228655 Rises=F Damp=F
 DIIS: error= 3.54D-05 at cycle   4 NSaved=   4.
 NSaved= 4 IEnMin= 4 EnMin= -2048.74396861778     IErMin= 4 ErrMin= 3.54D-05
 ErrMax= 3.54D-05  0.00D+00 EMaxC= 1.00D-01 BMatC= 4.70D-07 BMatP= 1.01D-05
 IDIUse=1 WtCom= 1.00D+00 WtEn= 0.00D+00
 Coeff-Com: -0.304D-01 0.867D-01 0.256D+00 0.688D+00
 Coeff:     -0.304D-01 0.867D-01 0.256D+00 0.688D+00
 Gap=     0.282 Goal=   None    Shift=    0.000
 RMSDP=1.39D-06 MaxDP=1.38D-04 DE=-9.23D-06 OVMax= 4.89D-04

 Cycle  10  Pass 1  IDiag  1:
 RMSU=  1.24D-06    CP:  1.00D+00  1.06D+00  7.94D-01  1.10D+00
 E= -2048.74396940762     Delta-E=       -0.000000789838 Rises=F Damp=F
 DIIS: error= 1.60D-05 at cycle   5 NSaved=   5.
 NSaved= 5 IEnMin= 5 EnMin= -2048.74396940762     IErMin= 5 ErrMin= 1.60D-05
 ErrMax= 1.60D-05  0.00D+00 EMaxC= 1.00D-01 BMatC= 1.15D-07 BMatP= 4.70D-07
 IDIUse=1 WtCom= 1.00D+00 WtEn= 0.00D+00
 Coeff-Com: -0.245D-02-0.582D-01-0.125D+00 0.204D+00 0.982D+00
 Coeff:     -0.245D-02-0.582D-01-0.125D+00 0.204D+00 0.982D+00
 Gap=     0.282 Goal=   None    Shift=    0.000
 RMSDP=1.18D-06 MaxDP=7.66D-05 DE=-7.90D-07 OVMax= 2.40D-04

 Cycle  11  Pass 1  IDiag  1:
 RMSU=  4.82D-07    CP:  1.00D+00  1.06D+00  8.05D-01  1.38D+00  1.17D+00
 E= -2048.74396965300     Delta-E=       -0.000000245382 Rises=F Damp=F
 DIIS: error= 9.97D-06 at cycle   6 NSaved=   6.
 NSaved= 6 IEnMin= 6 EnMin= -2048.74396965300     IErMin= 6 ErrMin= 9.97D-06
 ErrMax= 9.97D-06  0.00D+00 EMaxC= 1.00D-01 BMatC= 2.56D-08 BMatP= 1.15D-07
 IDIUse=1 WtCom= 1.00D+00 WtEn= 0.00D+00
 Coeff-Com:  0.465D-02-0.453D-01-0.112D+00 0.160D-02 0.517D+00 0.635D+00
 Coeff:      0.465D-02-0.453D-01-0.112D+00 0.160D-02 0.517D+00 0.635D+00
 Gap=     0.282 Goal=   None    Shift=    0.000
 RMSDP=3.42D-07 MaxDP=3.62D-05 DE=-2.45D-07 OVMax= 1.21D-04

 Cycle  12  Pass 1  IDiag  1:
 RMSU=  1.75D-07    CP:  1.00D+00  1.06D+00  8.06D-01  1.45D+00  1.29D+00
                    CP:  9.40D-01
 E= -2048.74396968979     Delta-E=       -0.000000036781 Rises=F Damp=F
 DIIS: error= 1.02D-06 at cycle   7 NSaved=   7.
 NSaved= 7 IEnMin= 7 EnMin= -2048.74396968979     IErMin= 7 ErrMin= 1.02D-06
 ErrMax= 1.02D-06  0.00D+00 EMaxC= 1.00D-01 BMatC= 7.01D-10 BMatP= 2.56D-08
 IDIUse=1 WtCom= 1.00D+00 WtEn= 0.00D+00
 Coeff-Com:  0.950D-03-0.600D-02-0.164D-01-0.717D-02 0.392D-01 0.121D+00
 Coeff-Com:  0.869D+00
 Coeff:      0.950D-03-0.600D-02-0.164D-01-0.717D-02 0.392D-01 0.121D+00
 Coeff:      0.869D+00
 Gap=     0.282 Goal=   None    Shift=    0.000
 RMSDP=8.36D-08 MaxDP=5.26D-06 DE=-3.68D-08 OVMax= 2.23D-05

 Cycle  13  Pass 1  IDiag  1:
 RMSU=  4.79D-08    CP:  1.00D+00  1.06D+00  8.06D-01  1.45D+00  1.31D+00
                    CP:  1.03D+00  1.15D+00
 E= -2048.74396969125     Delta-E=       -0.000000001469 Rises=F Damp=F
 DIIS: error= 6.42D-07 at cycle   8 NSaved=   8.
 NSaved= 8 IEnMin= 8 EnMin= -2048.74396969125     IErMin= 8 ErrMin= 6.42D-07
 ErrMax= 6.42D-07  0.00D+00 EMaxC= 1.00D-01 BMatC= 2.84D-10 BMatP= 7.01D-10
 IDIUse=1 WtCom= 1.00D+00 WtEn= 0.00D+00
 Coeff-Com: -0.705D-03 0.863D-02 0.203D-01-0.200D-02-0.111D+00-0.958D-01
 Coeff-Com:  0.434D+00 0.746D+00
 Coeff:     -0.705D-03 0.863D-02 0.203D-01-0.200D-02-0.111D+00-0.958D-01
 Coeff:      0.434D+00 0.746D+00
 Gap=     0.282 Goal=   None    Shift=    0.000
 RMSDP=4.21D-08 MaxDP=2.51D-06 DE=-1.47D-09 OVMax= 1.03D-05

 Cycle  14  Pass 1  IDiag  1:
 RMSU=  2.55D-08    CP:  1.00D+00  1.06D+00  8.05D-01  1.46D+00  1.32D+00
                    CP:  1.07D+00  1.29D+00  1.08D+00
 E= -2048.74396969154     Delta-E=       -0.000000000283 Rises=F Damp=F
 DIIS: error= 1.87D-07 at cycle   9 NSaved=   9.
 NSaved= 9 IEnMin= 9 EnMin= -2048.74396969154     IErMin= 9 ErrMin= 1.87D-07
 ErrMax= 1.87D-07  0.00D+00 EMaxC= 1.00D-01 BMatC= 2.88D-11 BMatP= 2.84D-10
 IDIUse=1 WtCom= 1.00D+00 WtEn= 0.00D+00
 Coeff-Com: -0.413D-03 0.446D-02 0.107D-01 0.104D-03-0.526D-01-0.552D-01
 Coeff-Com:  0.908D-01 0.309D+00 0.693D+00
 Coeff:     -0.413D-03 0.446D-02 0.107D-01 0.104D-03-0.526D-01-0.552D-01
 Coeff:      0.908D-01 0.309D+00 0.693D+00
 Gap=     0.282 Goal=   None    Shift=    0.000
 RMSDP=1.27D-08 MaxDP=8.90D-07 DE=-2.83D-10 OVMax= 3.24D-06

 Cycle  15  Pass 1  IDiag  1:
 RMSU=  8.72D-09    CP:  1.00D+00  1.06D+00  8.05D-01  1.46D+00  1.32D+00
                    CP:  1.08D+00  1.31D+00  1.21D+00  1.10D+00
 E= -2048.74396969186     Delta-E=       -0.000000000321 Rises=F Damp=F
 DIIS: error= 7.98D-08 at cycle  10 NSaved=  10.
 NSaved=10 IEnMin=10 EnMin= -2048.74396969186     IErMin=10 ErrMin= 7.98D-08
 ErrMax= 7.98D-08  0.00D+00 EMaxC= 1.00D-01 BMatC= 5.18D-12 BMatP= 2.88D-11
 IDIUse=1 WtCom= 1.00D+00 WtEn= 0.00D+00
 Coeff-Com:  0.968D-05-0.351D-03-0.729D-03 0.161D-03 0.584D-02 0.181D-02
 Coeff-Com: -0.587D-01-0.565D-01 0.279D+00 0.829D+00
 Coeff:      0.968D-05-0.351D-03-0.729D-03 0.161D-03 0.584D-02 0.181D-02
 Coeff:     -0.587D-01-0.565D-01 0.279D+00 0.829D+00
 Gap=     0.282 Goal=   None    Shift=    0.000
 RMSDP=6.39D-09 MaxDP=3.95D-07 DE=-3.21D-10 OVMax= 1.43D-06

 SCF Done:  E(RwB97XD) =  -2048.74396969     A.U. after   15 cycles
            NFock= 15  Conv=0.64D-08     -V/T= 2.0054
 KE= 2.037705104119D+03 PE=-1.563609839480D+04 EE= 6.122081110995D+03
 Leave Link  502 at Wed Jan 24 13:09:17 2018, MaxMem=  4294967296 cpu:           20185.4 elap:             654.1
 (Enter /share/apps/g16/l601.exe)
 Copying SCF densities to generalized density rwf, IOpCl= 0 IROHF=0.

 **********************************************************************

            Population analysis using the SCF density.

 **********************************************************************

 Orbital symmetries:
       Occupied  (A) (A) (A) (A) (A) (A) (A) (A) (A) (A) (A) (A)
                 (A) (A) (A) (A) (A) (A) (A) (A) (A) (A) (A) (A)
                 (A) (A) (A) (A) (A) (A) (A) (A) (A) (A) (A) (A)
                 (A) (A) (A) (A) (A) (A) (A) (A) (A) (A) (A) (A)
                 (A) (A) (A) (A) (A) (A) (A) (A) (A) (A) (A) (A)
                 (A) (A) (A) (A) (A) (A) (A) (A) (A) (A) (A) (A)
                 (A) (A) (A) (A) (A) (A) (A) (A) (A) (A) (A) (A)
                 (A) (A) (A) (A) (A) (A) (A) (A) (A) (A) (A) (A)
                 (A) (A) (A) (A) (A) (A) (A) (A) (A) (A) (A) (A)
                 (A) (A) (A) (A) (A) (A) (A) (A) (A) (A) (A) (A)
                 (A) (A) (A) (A) (A) (A) (A) (A) (A) (A) (A) (A)
                 (A) (A) (A) (A) (A) (A) (A) (A) (A) (A) (A) (A)
                 (A) (A) (A) (A) (A) (A) (A) (A) (A) (A)
       Virtual   (A) (A) (A) (A) (A) (A) (A) (A) (A) (A) (A) (A)
                 (A) (A) (A) (A) (A) (A) (A) (A) (A) (A) (A) (A)
                 (A) (A) (A) (A) (A) (A) (A) (A) (A) (A) (A) (A)
                 (A) (A) (A) (A) (A) (A) (A) (A) (A) (A) (A) (A)
                 (A) (A) (A) (A) (A) (A) (A) (A) (A) (A) (A) (A)
                 (A) (A) (A) (A) (A) (A) (A) (A) (A) (A) (A) (A)
                 (A) (A) (A) (A) (A) (A) (A) (A) (A) (A) (A) (A)
                 (A) (A) (A) (A) (A) (A) (A) (A) (A) (A) (A) (A)
                 (A) (A) (A) (A) (A) (A) (A) (A) (A) (A) (A) (A)
                 (A) (A) (A) (A) (A) (A) (A) (A) (A) (A) (A) (A)
                 (A) (A) (A) (A) (A) (A) (A) (A) (A) (A) (A) (A)
                 (A) (A) (A) (A) (A) (A) (A) (A) (A) (A) (A) (A)
                 (A) (A) (A) (A) (A) (A) (A) (A) (A) (A) (A) (A)
                 (A) (A) (A) (A) (A) (A) (A) (A) (A) (A) (A) (A)
                 (A) (A) (A) (A) (A) (A) (A) (A) (A) (A) (A) (A)
                 (A) (A) (A) (A) (A) (A) (A) (A) (A) (A) (A) (A)
                 (A) (A) (A) (A) (A) (A) (A) (A) (A) (A) (A) (A)
                 (A) (A) (A) (A) (A) (A) (A) (A) (A) (A) (A) (A)
                 (A) (A) (A) (A) (A) (A) (A) (A) (A) (A) (A) (A)
                 (A) (A) (A) (A) (A) (A) (A) (A) (A) (A) (A) (A)
                 (A) (A) (A) (A) (A) (A) (A) (A) (A) (A) (A) (A)
                 (A) (A) (A) (A) (A) (A) (A) (A) (A) (A) (A) (A)
                 (A) (A) (A) (A) (A) (A) (A) (A) (A) (A) (A) (A)
                 (A) (A) (A) (A) (A) (A) (A) (A) (A) (A) (A) (A)
                 (A) (A) (A) (A) (A) (A) (A) (A) (A) (A) (A) (A)
                 (A) (A) (A) (A) (A) (A) (A) (A) (A) (A) (A) (A)
                 (A) (A) (A) (A) (A) (A) (A) (A) (A) (A) (A) (A)
                 (A) (A) (A) (A) (A) (A) (A) (A) (A) (A) (A) (A)
                 (A) (A) (A) (A) (A) (A) (A) (A) (A) (A) (A) (A)
                 (A) (A) (A) (A) (A) (A) (A) (A) (A) (A) (A) (A)
                 (A) (A) (A) (A) (A) (A) (A) (A) (A) (A) (A) (A)
                 (A) (A) (A) (A) (A) (A) (A) (A) (A) (A) (A) (A)
                 (A) (A) (A) (A) (A) (A) (A) (A) (A) (A) (A) (A)
                 (A) (A) (A) (A) (A) (A) (A) (A) (A) (A) (A) (A)
                 (A) (A) (A) (A) (A) (A) (A) (A) (A) (A) (A) (A)
                 (A) (A) (A) (A) (A) (A) (A) (A) (A) (A) (A) (A)
                 (A) (A) (A) (A) (A) (A) (A) (A) (A) (A) (A) (A)
                 (A) (A) (A) (A) (A) (A) (A) (A) (A) (A) (A) (A)
                 (A) (A) (A) (A) (A) (A) (A) (A) (A) (A) (A) (A)
                 (A) (A) (A) (A) (A) (A) (A) (A) (A) (A) (A) (A)
                 (A) (A) (A) (A) (A) (A) (A) (A) (A) (A) (A) (A)
                 (A) (A) (A) (A) (A) (A) (A) (A) (A) (A) (A) (A)
                 (A) (A) (A) (A) (A) (A) (A) (A) (A) (A) (A) (A)
                 (A) (A) (A) (A) (A) (A) (A) (A) (A) (A) (A) (A)
                 (A) (A) (A) (A) (A) (A) (A) (A) (A) (A) (A) (A)
                 (A) (A) (A) (A) (A) (A) (A) (A) (A) (A) (A) (A)
                 (A) (A) (A) (A) (A) (A) (A) (A) (A) (A) (A) (A)
                 (A) (A) (A) (A) (A) (A) (A) (A) (A) (A) (A) (A)
                 (A) (A) (A) (A) (A) (A) (A)
 The electronic state is 1-A.
 Alpha  occ. eigenvalues --  -19.26073 -19.22520 -19.20786 -14.52718 -14.51587
 Alpha  occ. eigenvalues --  -14.48879 -14.48697 -14.48108 -14.47213 -14.47084
 Alpha  occ. eigenvalues --  -14.46852 -14.44620 -14.43059 -14.43047 -14.42244
 Alpha  occ. eigenvalues --  -14.41989 -14.41355 -14.40888 -14.40792 -14.40012
 Alpha  occ. eigenvalues --  -10.45728 -10.41491 -10.40581 -10.38731 -10.38401
 Alpha  occ. eigenvalues --  -10.38209 -10.37182 -10.36122 -10.35372 -10.35260
 Alpha  occ. eigenvalues --  -10.34529 -10.34514 -10.34016 -10.33333 -10.33329
 Alpha  occ. eigenvalues --  -10.33272 -10.32976 -10.31653 -10.31470 -10.30969
 Alpha  occ. eigenvalues --  -10.30911 -10.28429 -10.28281  -1.19666  -1.14263
 Alpha  occ. eigenvalues --   -1.13505  -1.13408  -1.11271  -1.10716  -1.09606
 Alpha  occ. eigenvalues --   -1.08819  -1.08079  -1.04840  -1.03666  -1.02799
 Alpha  occ. eigenvalues --   -1.00282  -1.00177  -1.00017  -0.98708  -0.96875
 Alpha  occ. eigenvalues --   -0.96689  -0.95637  -0.92486  -0.91404  -0.86672
 Alpha  occ. eigenvalues --   -0.85102  -0.84263  -0.83857  -0.83854  -0.82623
 Alpha  occ. eigenvalues --   -0.82232  -0.79204  -0.76006  -0.74800  -0.73944
 Alpha  occ. eigenvalues --   -0.73702  -0.73657  -0.72785  -0.70944  -0.69400
 Alpha  occ. eigenvalues --   -0.67644  -0.66846  -0.66185  -0.65744  -0.64722
 Alpha  occ. eigenvalues --   -0.63976  -0.63235  -0.62879  -0.62559  -0.62030
 Alpha  occ. eigenvalues --   -0.60127  -0.59895  -0.59813  -0.59522  -0.59053
 Alpha  occ. eigenvalues --   -0.58718  -0.58582  -0.56775  -0.56417  -0.56326
 Alpha  occ. eigenvalues --   -0.56199  -0.55267  -0.54792  -0.54657  -0.54360
 Alpha  occ. eigenvalues --   -0.53862  -0.53646  -0.53137  -0.52852  -0.52672
 Alpha  occ. eigenvalues --   -0.52521  -0.51868  -0.51669  -0.50640  -0.50366
 Alpha  occ. eigenvalues --   -0.50092  -0.49715  -0.49180  -0.49129  -0.48936
 Alpha  occ. eigenvalues --   -0.48545  -0.48436  -0.48070  -0.47882  -0.47609
 Alpha  occ. eigenvalues --   -0.46856  -0.45621  -0.44958  -0.44432  -0.43406
 Alpha  occ. eigenvalues --   -0.41038  -0.39745  -0.39635  -0.37544  -0.37413
 Alpha  occ. eigenvalues --   -0.37078  -0.37003  -0.36521  -0.35773  -0.34512
 Alpha  occ. eigenvalues --   -0.33719  -0.33659  -0.33401  -0.33292  -0.33021
 Alpha  occ. eigenvalues --   -0.32840  -0.32542  -0.32341  -0.31955  -0.30806
 Alpha  occ. eigenvalues --   -0.30247  -0.28919  -0.25662  -0.25616
 Alpha virt. eigenvalues --    0.02609   0.04981   0.07565   0.08045   0.08508
 Alpha virt. eigenvalues --    0.09286   0.09434   0.11101   0.11480   0.11904
 Alpha virt. eigenvalues --    0.12597   0.14056   0.14677   0.14823   0.14956
 Alpha virt. eigenvalues --    0.15941   0.16273   0.16943   0.17463   0.17979
 Alpha virt. eigenvalues --    0.18553   0.19302   0.19868   0.20286   0.20338
 Alpha virt. eigenvalues --    0.20738   0.20780   0.21134   0.21514   0.22455
 Alpha virt. eigenvalues --    0.22627   0.22967   0.23251   0.23461   0.23858
 Alpha virt. eigenvalues --    0.23979   0.24095   0.24481   0.24803   0.25106
 Alpha virt. eigenvalues --    0.26024   0.26489   0.26681   0.27386   0.27847
 Alpha virt. eigenvalues --    0.29109   0.29374   0.29852   0.30690   0.30969
 Alpha virt. eigenvalues --    0.31112   0.31528   0.32517   0.33400   0.33653
 Alpha virt. eigenvalues --    0.33797   0.34512   0.35197   0.35657   0.36671
 Alpha virt. eigenvalues --    0.36968   0.37480   0.38348   0.39562   0.39632
 Alpha virt. eigenvalues --    0.40042   0.40270   0.41049   0.41403   0.41484
 Alpha virt. eigenvalues --    0.42282   0.42661   0.43665   0.44163   0.44588
 Alpha virt. eigenvalues --    0.45025   0.45391   0.45907   0.46068   0.46973
 Alpha virt. eigenvalues --    0.47488   0.47990   0.48220   0.48726   0.49494
 Alpha virt. eigenvalues --    0.49817   0.50081   0.50365   0.50716   0.51297
 Alpha virt. eigenvalues --    0.51627   0.51992   0.52272   0.52422   0.53515
 Alpha virt. eigenvalues --    0.53697   0.54012   0.54348   0.54976   0.55065
 Alpha virt. eigenvalues --    0.55840   0.56041   0.56552   0.56631   0.57374
 Alpha virt. eigenvalues --    0.57908   0.58444   0.58810   0.58865   0.59174
 Alpha virt. eigenvalues --    0.59866   0.60058   0.60367   0.61000   0.61501
 Alpha virt. eigenvalues --    0.61618   0.62018   0.62411   0.62755   0.63364
 Alpha virt. eigenvalues --    0.63779   0.64072   0.64705   0.64968   0.65142
 Alpha virt. eigenvalues --    0.65702   0.66220   0.66569   0.66684   0.67143
 Alpha virt. eigenvalues --    0.67880   0.68046   0.68236   0.68727   0.68852
 Alpha virt. eigenvalues --    0.69553   0.69976   0.70086   0.70376   0.70932
 Alpha virt. eigenvalues --    0.71302   0.71969   0.72295   0.72724   0.73256
 Alpha virt. eigenvalues --    0.73583   0.73918   0.74584   0.75071   0.75403
 Alpha virt. eigenvalues --    0.75715   0.75871   0.76073   0.76508   0.76831
 Alpha virt. eigenvalues --    0.76937   0.77356   0.77599   0.78122   0.78392
 Alpha virt. eigenvalues --    0.78728   0.79038   0.79698   0.79876   0.80470
 Alpha virt. eigenvalues --    0.81015   0.81608   0.82117   0.82241   0.82614
 Alpha virt. eigenvalues --    0.83203   0.83504   0.83723   0.84465   0.84700
 Alpha virt. eigenvalues --    0.85206   0.85722   0.86314   0.87404   0.87923
 Alpha virt. eigenvalues --    0.88228   0.88593   0.88982   0.89335   0.89784
 Alpha virt. eigenvalues --    0.90094   0.90851   0.91115   0.91305   0.91933
 Alpha virt. eigenvalues --    0.92298   0.93137   0.93311   0.93779   0.94041
 Alpha virt. eigenvalues --    0.94231   0.95295   0.95627   0.95709   0.96202
 Alpha virt. eigenvalues --    0.96405   0.97598   0.97894   0.98163   0.98453
 Alpha virt. eigenvalues --    0.99044   0.99282   0.99895   1.00072   1.01266
 Alpha virt. eigenvalues --    1.01425   1.01860   1.02422   1.02724   1.02976
 Alpha virt. eigenvalues --    1.03128   1.03894   1.04698   1.05045   1.05440
 Alpha virt. eigenvalues --    1.05722   1.05996   1.06563   1.06813   1.07714
 Alpha virt. eigenvalues --    1.08647   1.08771   1.09003   1.10105   1.10539
 Alpha virt. eigenvalues --    1.11224   1.11562   1.11869   1.12679   1.13494
 Alpha virt. eigenvalues --    1.13730   1.14084   1.14868   1.15135   1.15506
 Alpha virt. eigenvalues --    1.15759   1.16370   1.16530   1.17208   1.17700
 Alpha virt. eigenvalues --    1.18424   1.18828   1.19012   1.19348   1.19541
 Alpha virt. eigenvalues --    1.19728   1.20272   1.20531   1.20896   1.21371
 Alpha virt. eigenvalues --    1.22078   1.22243   1.22584   1.22635   1.23190
 Alpha virt. eigenvalues --    1.23340   1.23516   1.23831   1.24497   1.24737
 Alpha virt. eigenvalues --    1.25287   1.25659   1.26116   1.27311   1.27950
 Alpha virt. eigenvalues --    1.28448   1.28887   1.29300   1.30435   1.30762
 Alpha virt. eigenvalues --    1.31593   1.32131   1.32789   1.33318   1.33803
 Alpha virt. eigenvalues --    1.34018   1.34903   1.35527   1.35869   1.36106
 Alpha virt. eigenvalues --    1.37213   1.38170   1.38974   1.39167   1.39900
 Alpha virt. eigenvalues --    1.40925   1.41547   1.42232   1.43579   1.43822
 Alpha virt. eigenvalues --    1.44580   1.45062   1.46307   1.47889   1.48151
 Alpha virt. eigenvalues --    1.48359   1.48465   1.48953   1.49220   1.49309
 Alpha virt. eigenvalues --    1.50194   1.51185   1.51807   1.52768   1.53957
 Alpha virt. eigenvalues --    1.54577   1.55070   1.56102   1.56149   1.56945
 Alpha virt. eigenvalues --    1.57724   1.58691   1.59360   1.60259   1.60777
 Alpha virt. eigenvalues --    1.61387   1.61520   1.62330   1.63108   1.63582
 Alpha virt. eigenvalues --    1.64048   1.65116   1.65755   1.65871   1.66522
 Alpha virt. eigenvalues --    1.66726   1.67608   1.67934   1.68387   1.68702
 Alpha virt. eigenvalues --    1.69583   1.69820   1.70158   1.70457   1.70804
 Alpha virt. eigenvalues --    1.71576   1.71991   1.72300   1.73109   1.73273
 Alpha virt. eigenvalues --    1.73683   1.73850   1.74325   1.74629   1.75061
 Alpha virt. eigenvalues --    1.75267   1.75687   1.76051   1.76302   1.76593
 Alpha virt. eigenvalues --    1.77075   1.77250   1.77888   1.78306   1.78769
 Alpha virt. eigenvalues --    1.79831   1.80023   1.80082   1.80196   1.80350
 Alpha virt. eigenvalues --    1.80665   1.80954   1.81046   1.81513   1.82298
 Alpha virt. eigenvalues --    1.82636   1.83017   1.83188   1.83770   1.84166
 Alpha virt. eigenvalues --    1.84936   1.85868   1.86247   1.86378   1.86540
 Alpha virt. eigenvalues --    1.87117   1.87695   1.87945   1.88221   1.88964
 Alpha virt. eigenvalues --    1.89147   1.89511   1.90089   1.90291   1.91530
 Alpha virt. eigenvalues --    1.92491   1.92776   1.93041   1.93152   1.93441
 Alpha virt. eigenvalues --    1.93713   1.95065   1.95915   1.95979   1.96709
 Alpha virt. eigenvalues --    1.97779   1.98510   1.99264   1.99957   2.01086
 Alpha virt. eigenvalues --    2.01400   2.01537   2.01926   2.03044   2.03574
 Alpha virt. eigenvalues --    2.03915   2.04968   2.06050   2.06854   2.06958
 Alpha virt. eigenvalues --    2.07542   2.08142   2.08857   2.08912   2.09460
 Alpha virt. eigenvalues --    2.10772   2.11263   2.11280   2.11585   2.12639
 Alpha virt. eigenvalues --    2.12673   2.14194   2.14920   2.16444   2.16799
 Alpha virt. eigenvalues --    2.17727   2.19859   2.20094   2.20477   2.20713
 Alpha virt. eigenvalues --    2.21340   2.21972   2.22246   2.23053   2.23691
 Alpha virt. eigenvalues --    2.24055   2.24489   2.25081   2.25766   2.26686
 Alpha virt. eigenvalues --    2.27231   2.27531   2.28645   2.29230   2.29707
 Alpha virt. eigenvalues --    2.29915   2.30500   2.30639   2.31735   2.32113
 Alpha virt. eigenvalues --    2.32905   2.33516   2.34088   2.34283   2.34732
 Alpha virt. eigenvalues --    2.35023   2.35841   2.36218   2.36619   2.38073
 Alpha virt. eigenvalues --    2.38205   2.39491   2.40237   2.40613   2.41125
 Alpha virt. eigenvalues --    2.41842   2.42402   2.42841   2.43751   2.43882
 Alpha virt. eigenvalues --    2.44652   2.45188   2.45801   2.46267   2.46856
 Alpha virt. eigenvalues --    2.47219   2.47498   2.48859   2.50527   2.51443
 Alpha virt. eigenvalues --    2.51504   2.53496   2.54166   2.54368   2.55380
 Alpha virt. eigenvalues --    2.56078   2.56742   2.57304   2.57746   2.59182
 Alpha virt. eigenvalues --    2.60390   2.61262   2.61659   2.62050   2.62199
 Alpha virt. eigenvalues --    2.63662   2.64370   2.64933   2.65095   2.65182
 Alpha virt. eigenvalues --    2.66823   2.67711   2.68224   2.68625   2.68983
 Alpha virt. eigenvalues --    2.69466   2.70108   2.70656   2.70918   2.71917
 Alpha virt. eigenvalues --    2.73492   2.73624   2.74194   2.75229   2.75782
 Alpha virt. eigenvalues --    2.77207   2.78202   2.78838   2.79099   2.79413
 Alpha virt. eigenvalues --    2.79699   2.80117   2.80519   2.80725   2.81153
 Alpha virt. eigenvalues --    2.81956   2.82240   2.82760   2.83147   2.84232
 Alpha virt. eigenvalues --    2.84421   2.85007   2.85883   2.86465   2.86944
 Alpha virt. eigenvalues --    2.87426   2.87823   2.88907   2.91004   2.91652
 Alpha virt. eigenvalues --    2.94132   2.95852   2.96275   2.97578   2.99302
 Alpha virt. eigenvalues --    3.00062   3.00942   3.02481   3.04550   3.05729
 Alpha virt. eigenvalues --    3.06435   3.09848   3.10341   3.13534   3.14852
 Alpha virt. eigenvalues --    3.15441   3.15616   3.15826   3.17083   3.19326
 Alpha virt. eigenvalues --    3.21851   3.22356   3.23569   3.23905   3.25812
 Alpha virt. eigenvalues --    3.45824   3.46990   3.47733   3.49657   3.50098
 Alpha virt. eigenvalues --    3.53354   3.54161   3.55870   3.57690   3.59757
 Alpha virt. eigenvalues --    3.62357   3.70714   3.74318
          Condensed to atoms (all electrons):
 Mulliken charges:
               1
     1  N   -0.311164
     2  C    0.180986
     3  C    0.035037
     4  N   -0.258630
     5  C    0.133102
     6  H    0.026076
     7  N   -0.292599
     8  C    0.132944
     9  H    0.008740
    10  N   -0.291307
    11  C    0.241405
    12  C    0.125281
    13  N   -0.053688
    14  H    0.110223
    15  H    0.090478
    16  H    0.025279
    17  H    0.034091
    18  H    0.025530
    19  N   -0.311939
    20  C    0.244674
    21  C    0.181353
    22  N   -0.120245
    23  H    0.115162
    24  H    0.116411
    25  N   -0.301187
    26  C    0.235888
    27  N   -0.129409
    28  H    0.113833
    29  C    0.156637
    30  O   -0.318456
    31  C    0.005355
    32  N   -0.222707
    33  C    0.130647
    34  H    0.029805
    35  H    0.029920
    36  H    0.028162
    37  H    0.024851
    38  H    0.063812
    39  H    0.058864
    40  H    0.073449
    41  H    0.031756
    42  C   -0.112101
    43  O   -0.269706
    44  C    0.153130
    45  H    0.135997
    46  N   -0.123196
    47  O   -0.349231
    48  C    0.357447
    49  H    0.049970
    50  C    0.173494
    51  C    0.043218
    52  N   -0.291542
    53  H    0.033074
    54  H    0.044159
    55  H    0.016986
    56  H    0.128592
    57  H    0.112064
    58  N   -0.060108
    59  C    0.092931
    60  C    0.231889
    61  N   -0.260152
    62  H    0.049292
    63  C    0.156703
    64  N   -0.297933
    65  H    0.030423
    66  C    0.132549
    67  N   -0.269128
    68  C    0.027488
    69  C    0.176447
    70  N   -0.311174
 Sum of Mulliken charges =  -0.00000
 Mulliken charges with hydrogens summed into heavy atoms:
               1
     1  N   -0.311164
     2  C    0.265885
     3  C    0.035037
     4  N   -0.258630
     5  C    0.159179
     7  N   -0.292599
     8  C    0.141684
    10  N   -0.291307
    11  C    0.241405
    12  C    0.125281
    13  N    0.147013
    19  N   -0.311939
    20  C    0.244674
    21  C    0.264285
    22  N    0.111328
    25  N   -0.301187
    26  C    0.235888
    27  N   -0.015576
    29  C    0.156637
    30  O   -0.318456
    31  C    0.005355
    32  N   -0.222707
    33  C    0.160452
    42  C   -0.080345
    43  O   -0.269706
    44  C    0.153130
    46  N    0.012802
    47  O   -0.349231
    48  C    0.357447
    50  C    0.223465
    51  C    0.239343
    52  N   -0.291542
    58  N    0.180548
    59  C    0.092931
    60  C    0.231889
    61  N   -0.260152
    63  C    0.205994
    64  N   -0.297933
    66  C    0.162972
    67  N   -0.269128
    68  C    0.027488
    69  C    0.270666
    70  N   -0.311174
 Electronic spatial extent (au):  <R**2>=          23486.4463
 Charge=             -0.0000 electrons
 Dipole moment (field-independent basis, Debye):
    X=              8.6275    Y=              5.5697    Z=              1.7299  Tot=             10.4139
 Quadrupole moment (field-independent basis, Debye-Ang):
   XX=           -150.1414   YY=           -216.8974   ZZ=           -250.8757
   XY=              0.3390   XZ=              9.8209   YZ=             -6.3488
 Traceless Quadrupole moment (field-independent basis, Debye-Ang):
   XX=             55.8301   YY=            -10.9259   ZZ=            -44.9042
   XY=              0.3390   XZ=              9.8209   YZ=             -6.3488
 Octapole moment (field-independent basis, Debye-Ang**2):
  XXX=             15.2389  YYY=            135.2195  ZZZ=              4.1719  XYY=             79.7821
  XXY=            -67.7651  XXZ=            -67.0707  XZZ=             32.8317  YZZ=             42.4839
  YYZ=             34.7518  XYZ=             59.6827
 Hexadecapole moment (field-independent basis, Debye-Ang**3):
 XXXX=         -14999.7255 YYYY=          -6483.1788 ZZZZ=          -3540.1422 XXXY=            428.1224
 XXXZ=             94.5639 YYYX=            -80.9367 YYYZ=            -99.9836 ZZZX=             70.0851
 ZZZY=             64.2135 XXYY=          -3722.9332 XXZZ=          -3958.2589 YYZZ=          -1660.5503
 XXYZ=            118.0449 YYXZ=            224.4786 ZZXY=             59.5651
 N-N= 5.427568209998D+03 E-N=-1.563609839361D+04  KE= 2.037705104119D+03
 No NMR shielding tensors so no spin-rotation constants.
 Leave Link  601 at Wed Jan 24 13:09:18 2018, MaxMem=  4294967296 cpu:              49.1 elap:               1.7
 (Enter /share/apps/g16/l9999.exe)
 1\1\GINC-COMPUTE-0-3\SP\RwB97XD\CC-pVDZ\C23H27N17O3\SATYA\24-Jan-2018\
 0\\#p wb97xd/cc-pvdz sp scf=(maxcycles=20)\\Base pair stacking\\0,1\N,
 0,8.74066,1.66598,-5.07664\C,0,10.02317,2.39545,-5.10876\C,0,6.61408,1
 .13494,-5.25824\N,0,7.25379,0.00973,-4.75885\C,0,8.50938,0.37469,-4.66
 943\H,0,9.31657,-0.26401,-4.30965\N,0,4.96587,2.62152,-6.05599\C,0,5.9
 4949,3.5161,-6.19662\H,0,5.64345,4.48651,-6.58509\N,0,7.2483,3.39252,-
 5.93067\C,0,7.51765,2.1639,-5.45913\C,0,5.26924,1.39447,-5.57915\N,0,4
 .28874,0.50011,-5.43806\H,0,4.46744,-0.42036,-5.08875\H,0,3.34264,0.71
 954,-5.67658\H,0,10.66551,1.91688,-5.70754\H,0,9.87249,3.32095,-5.4549
 9\H,0,10.40423,2.44471,-4.18552\N,0,3.6795,5.43882,-3.07427\C,0,2.4718
 2,4.79638,-3.20399\C,0,3.89642,6.89019,-3.23904\N,0,-0.9404,4.90638,-3
 .8415\H,0,-1.70292,4.26181,-3.88977\H,0,-1.14861,5.86932,-4.01501\N,0,
 1.28992,5.37839,-3.50137\C,0,0.30569,4.49872,-3.55696\N,0,0.46464,3.15
 17,-3.33836\H,0,-0.34454,2.55321,-3.40161\C,0,1.67136,2.53103,-3.031\O
 ,0,1.70644,1.30727,-2.85234\C,0,2.73803,3.46328,-2.96779\N,0,4.08573,3
 .27264,-2.69528\C,0,4.60307,4.46892,-2.76937\H,0,5.65668,4.70078,-2.60
 994\H,0,4.54776,7.04954,-3.9801\H,0,3.02781,7.33195,-3.45957\H,0,4.257
 85,7.27342,-2.38974\H,0,-4.62574,0.03691,-4.49353\H,0,-4.81954,0.02498
 ,-2.74226\H,0,-3.99939,1.37413,-3.5287\H,0,-1.58775,-3.4959,-3.29499\C
 ,0,-1.62866,-2.40661,-3.2921\O,0,0.71349,-2.13583,-3.03106\C,0,-0.4153
 6,-1.66075,-3.15275\H,0,0.25571,0.27066,-3.06533\N,0,-0.57909,-0.29022
 ,-3.16154\O,0,-1.80218,1.61931,-3.28388\C,0,-1.75767,0.40166,-3.28725\
 H,0,-3.74421,-2.28072,-3.52536\C,0,-2.79365,-1.76017,-3.41662\C,0,-4.1
 6644,0.30757,-3.55446\N,0,-2.88354,-0.38748,-3.41722\H,0,-2.28556,4.88
 924,-8.28231\H,0,-1.16906,5.29412,-7.16356\H,0,-2.72727,5.08759,-6.723
 79\H,0,1.04937,-1.21755,-5.7034\H,0,-0.59083,-1.18873,-6.17137\N,0,0.2
 5551,-0.68448,-5.99624\C,0,0.32147,0.63996,-6.14684\C,0,-0.54246,2.795
 18,-6.66682\N,0,0.60741,3.44595,-6.4245\H,0,2.52584,3.03843,-5.82938\C
 ,0,1.55649,2.59189,-6.0467\N,0,1.49239,1.26504,-5.89527\H,0,-3.64485,2
 .42503,-7.4977\C,0,-2.60985,2.28094,-7.18631\N,0,-2.07614,1.12193,-6.8
 8711\C,0,-0.76548,1.43374,-6.55596\C,0,-2.00102,4.76616,-7.33158\N,0,-
 1.73844,3.33682,-7.07459\\Version=EM64L-G16RevA.03\State=1-A\HF=-2048.
 7439697\RMSD=6.392e-09\Dipole=-3.7486783,1.485177,-0.7267166\Quadrupol
 e=40.0729947,-5.8917984,-34.1811963,9.1516483,4.739723,4.0905557\PG=C0
 1 [X(C23H27N17O3)]\\@


 UNDER MOST GREENE GRASSE LY MOST GREATE SNAKES.
 -- PROVERBS AND REASONS OF THE YEAR 1585
           AS REPRINTED IN PAISLEY MAGAZINE 1828.
 Job cpu time:       0 days  5 hours 46 minutes 28.5 seconds.
 Elapsed time:       0 days  0 hours 11 minutes 13.4 seconds.
 File lengths (MBytes):  RWF=    298 Int=      0 D2E=      0 Chk=     33 Scr=      1
 Normal termination of Gaussian 16 at Wed Jan 24 13:09:19 2018.
