 Entering Gaussian System, Link 0=g16
 Input=str50.-5.2.5.com
 Output=str50.-5.2.5.log
 Initial command:
 /share/apps/g16/l1.exe "/state/partition1/scr/Gau-18215.inp" -scrdir="/state/partition1/scr/"
 Entering Link 1 = /share/apps/g16/l1.exe PID=     18216.
  
 Copyright (c) 1988,1990,1992,1993,1995,1998,2003,2009,2016,
            Gaussian, Inc.  All Rights Reserved.
  
 This is part of the Gaussian(R) 16 program.  It is based on
 the Gaussian(R) 09 system (copyright 2009, Gaussian, Inc.),
 the Gaussian(R) 03 system (copyright 2003, Gaussian, Inc.),
 the Gaussian(R) 98 system (copyright 1998, Gaussian, Inc.),
 the Gaussian(R) 94 system (copyright 1995, Gaussian, Inc.),
 the Gaussian 92(TM) system (copyright 1992, Gaussian, Inc.),
 the Gaussian 90(TM) system (copyright 1990, Gaussian, Inc.),
 the Gaussian 88(TM) system (copyright 1988, Gaussian, Inc.),
 the Gaussian 86(TM) system (copyright 1986, Carnegie Mellon
 University), and the Gaussian 82(TM) system (copyright 1983,
 Carnegie Mellon University). Gaussian is a federally registered
 trademark of Gaussian, Inc.
  
 This software contains proprietary and confidential information,
 including trade secrets, belonging to Gaussian, Inc.
  
 This software is provided under written license and may be
 used, copied, transmitted, or stored only in accord with that
 written license.
  
 The following legend is applicable only to US Government
 contracts under FAR:
  
                    RESTRICTED RIGHTS LEGEND
  
 Use, reproduction and disclosure by the US Government is
 subject to restrictions as set forth in subparagraphs (a)
 and (c) of the Commercial Computer Software - Restricted
 Rights clause in FAR 52.227-19.
  
 Gaussian, Inc.
 340 Quinnipiac St., Bldg. 40, Wallingford CT 06492
  
  
 ---------------------------------------------------------------
 Warning -- This program may not be used in any manner that
 competes with the business of Gaussian, Inc. or will provide
 assistance to any competitor of Gaussian, Inc.  The licensee
 of this program is prohibited from giving any competitor of
 Gaussian, Inc. access to this program.  By using this program,
 the user acknowledges that Gaussian, Inc. is engaged in the
 business of creating and licensing software in the field of
 computational chemistry and represents and warrants to the
 licensee that it is not a competitor of Gaussian, Inc. and that
 it will not use this program in any manner prohibited above.
 ---------------------------------------------------------------
  

 Cite this work as:
 Gaussian 16, Revision A.03,
 M. J. Frisch, G. W. Trucks, H. B. Schlegel, G. E. Scuseria, 
 M. A. Robb, J. R. Cheeseman, G. Scalmani, V. Barone, 
 G. A. Petersson, H. Nakatsuji, X. Li, M. Caricato, A. V. Marenich, 
 J. Bloino, B. G. Janesko, R. Gomperts, B. Mennucci, H. P. Hratchian, 
 J. V. Ortiz, A. F. Izmaylov, J. L. Sonnenberg, D. Williams-Young, 
 F. Ding, F. Lipparini, F. Egidi, J. Goings, B. Peng, A. Petrone, 
 T. Henderson, D. Ranasinghe, V. G. Zakrzewski, J. Gao, N. Rega, 
 G. Zheng, W. Liang, M. Hada, M. Ehara, K. Toyota, R. Fukuda, 
 J. Hasegawa, M. Ishida, T. Nakajima, Y. Honda, O. Kitao, H. Nakai, 
 T. Vreven, K. Throssell, J. A. Montgomery, Jr., J. E. Peralta, 
 F. Ogliaro, M. J. Bearpark, J. J. Heyd, E. N. Brothers, K. N. Kudin, 
 V. N. Staroverov, T. A. Keith, R. Kobayashi, J. Normand, 
 K. Raghavachari, A. P. Rendell, J. C. Burant, S. S. Iyengar, 
 J. Tomasi, M. Cossi, J. M. Millam, M. Klene, C. Adamo, R. Cammi, 
 J. W. Ochterski, R. L. Martin, K. Morokuma, O. Farkas, 
 J. B. Foresman, and D. J. Fox, Gaussian, Inc., Wallingford CT, 2016.
 
 ******************************************
 Gaussian 16:  EM64L-G16RevA.03 25-Dec-2016
                25-Jan-2018 
 ******************************************
 %nprocshared=32
 Will use up to   32 processors via shared memory.
 %mem=32GB
 %chk=allatoms_t.chk
 ---------------------------------------
 #p wb97xd/cc-pvdz sp scf=(maxcycles=20)
 ---------------------------------------
 1/38=1,172=1/1;
 2/12=2,17=6,18=5,40=1/2;
 3/5=16,11=2,25=1,30=1,74=-58/1,2,3;
 4//1;
 5/5=2,7=20,38=5/2;
 6/7=2,8=2,9=2,10=2,28=1/1;
 99/5=1,9=1/99;
 Leave Link    1 at Thu Jan 25 04:34:32 2018, MaxMem=  4294967296 cpu:               2.7 elap:               0.1
 (Enter /share/apps/g16/l101.exe)
 ------------------
 Base pair stacking
 ------------------
 Symbolic Z-matrix:
 Charge =  0 Multiplicity = 1
 N                     1.90541  -2.33008  -6.70007 
 C                     3.15596  -1.55791  -6.83384 
 C                    -0.20849  -2.89355  -6.47374 
 N                     0.50377  -4.08163  -6.5504 
 C                     1.74881  -3.69461  -6.68369 
 H                     2.60113  -4.36849  -6.7752 
 N                    -1.9597   -1.32484  -6.28567 
 C                    -1.0205   -0.37857  -6.38602 
 H                    -1.38693   0.64633  -6.34647 
 N                     0.29718  -0.50765  -6.52724 
 C                     0.64194  -1.80541  -6.56455 
 C                    -1.5807   -2.62089  -6.32665 
 N                    -2.51676  -3.56692  -6.22663 
 H                    -2.28176  -4.53921  -6.25208 
 H                    -3.4843   -3.33616  -6.12289 
 H                     3.5979   -1.78437  -7.70192 
 H                     2.94893  -0.58028  -6.81138 
 H                     3.77201  -1.78386  -6.07924 
 N                     1.55784   1.83404  -3.27599 
 C                     0.34476   1.19214  -3.20929 
 C                     1.74715   3.29728  -3.33766 
 N                    -3.12389   1.32088  -3.09242 
 H                    -3.88471   0.67452  -3.04142 
 H                    -3.35599   2.29353  -3.12086 
 N                    -0.86832   1.78551  -3.18904 
 C                    -1.84933   0.90309  -3.12143 
 N                    -1.65904  -0.45681  -3.07697 
 H                    -2.46825  -1.05644  -3.02603 
 C                    -0.41992  -1.08931  -3.09666 
 O                    -0.35811  -2.3242   -3.05239 
 C                     0.64371  -0.15427  -3.16915 
 N                     2.01685  -0.35364  -3.20983 
 C                     2.51679   0.85065  -3.27266 
 H                     3.58214   1.07911  -3.31863 
 H                     2.22717   3.53771  -4.18062 
 H                     0.85533   3.7475   -3.3233 
 H                     2.28435   3.599    -2.55078 
 H                    -6.90518  -3.50695  -3.42776 
 H                    -6.72185  -3.69501  -1.68544 
 H                    -6.07636  -2.26406  -2.48987 
 H                    -3.7121   -7.10181  -3.26078 
 C                    -3.74211  -6.01879  -3.14073 
 O                    -1.39584  -5.7451   -3.35806 
 C                    -2.5206   -5.27487  -3.18896 
 H                    -1.82977  -3.35317  -3.05423 
 N                    -2.67069  -3.91244  -3.02612 
 O                    -3.87537  -2.01611  -2.69469 
 C                    -3.84305  -3.22675  -2.82876 
 H                    -5.85767  -5.89763  -2.90506 
 C                    -4.90132  -5.37824  -2.94963 
 C                    -6.25421  -3.32488  -2.58565 
 N                    -4.9775   -4.01353  -2.79431 
 H                    -9.46268   1.12496  -5.66438 
 H                    -8.07425   1.21439  -4.8121 
 H                    -9.46351   0.79197  -4.06671 
 H                    -5.76411  -5.28883  -6.16368 
 H                    -7.46782  -5.20419  -6.14637 
 N                    -6.58918  -4.73548  -6.04878 
 C                    -6.52186  -3.43048  -5.77747 
 C                    -7.42116  -1.27361  -5.32923 
 N                    -6.22737  -0.67068  -5.20368 
 H                    -4.23433  -1.13864  -5.30062 
 C                    -5.24079  -1.54618  -5.38552 
 N                    -5.30617  -2.85363  -5.65734 
 H                    -10.64328  -1.53266  -5.38363 
 C                    -9.5681   -1.71034  -5.42039 
 N                    -9.01269  -2.87261  -5.66192 
 C                    -7.65158  -2.60975  -5.60704 
 C                    -8.93793   0.72178  -4.91466 
 N                    -8.66391  -0.69802  -5.20978 
 
 ITRead=  0  0  0  0  0  0  0  0  0  0  0  0  0  0  0  0  0  0  0  0
 ITRead=  0  0  0  0  0  0  0  0  0  0  0  0  0  0  0  0  0  0  0  0
 ITRead=  0  0  0  0  0  0  0  0  0  0  0  0  0  0  0  0  0  0  0  0
 ITRead=  0  0  0  0  0  0  0  0  0  0
 MicOpt= -1 -1 -1 -1 -1 -1 -1 -1 -1 -1 -1 -1 -1 -1 -1 -1 -1 -1 -1 -1
 MicOpt= -1 -1 -1 -1 -1 -1 -1 -1 -1 -1 -1 -1 -1 -1 -1 -1 -1 -1 -1 -1
 MicOpt= -1 -1 -1 -1 -1 -1 -1 -1 -1 -1 -1 -1 -1 -1 -1 -1 -1 -1 -1 -1
 MicOpt= -1 -1 -1 -1 -1 -1 -1 -1 -1 -1
 NAtoms=     70 NQM=       70 NQMF=       0 NMMI=      0 NMMIF=      0
                NMic=       0 NMicF=      0.
                    Isotopes and Nuclear Properties:
 (Nuclear quadrupole moments (NQMom) in fm**2, nuclear magnetic moments (NMagM)
  in nuclear magnetons)

  Atom         1           2           3           4           5           6           7           8           9          10
 IAtWgt=          14          12          12          14          12           1          14          12           1          14
 AtmWgt=  14.0030740  12.0000000  12.0000000  14.0030740  12.0000000   1.0078250  14.0030740  12.0000000   1.0078250  14.0030740
 NucSpn=           2           0           0           2           0           1           2           0           1           2
 AtZEff=  -0.0000000  -0.0000000  -0.0000000  -0.0000000  -0.0000000  -0.0000000  -0.0000000  -0.0000000  -0.0000000  -0.0000000
 NQMom=    2.0440000   0.0000000   0.0000000   2.0440000   0.0000000   0.0000000   2.0440000   0.0000000   0.0000000   2.0440000
 NMagM=    0.4037610   0.0000000   0.0000000   0.4037610   0.0000000   2.7928460   0.4037610   0.0000000   2.7928460   0.4037610
 AtZNuc=   7.0000000   6.0000000   6.0000000   7.0000000   6.0000000   1.0000000   7.0000000   6.0000000   1.0000000   7.0000000

  Atom        11          12          13          14          15          16          17          18          19          20
 IAtWgt=          12          12          14           1           1           1           1           1          14          12
 AtmWgt=  12.0000000  12.0000000  14.0030740   1.0078250   1.0078250   1.0078250   1.0078250   1.0078250  14.0030740  12.0000000
 NucSpn=           0           0           2           1           1           1           1           1           2           0
 AtZEff=  -0.0000000  -0.0000000  -0.0000000  -0.0000000  -0.0000000  -0.0000000  -0.0000000  -0.0000000  -0.0000000  -0.0000000
 NQMom=    0.0000000   0.0000000   2.0440000   0.0000000   0.0000000   0.0000000   0.0000000   0.0000000   2.0440000   0.0000000
 NMagM=    0.0000000   0.0000000   0.4037610   2.7928460   2.7928460   2.7928460   2.7928460   2.7928460   0.4037610   0.0000000
 AtZNuc=   6.0000000   6.0000000   7.0000000   1.0000000   1.0000000   1.0000000   1.0000000   1.0000000   7.0000000   6.0000000

  Atom        21          22          23          24          25          26          27          28          29          30
 IAtWgt=          12          14           1           1          14          12          14           1          12          16
 AtmWgt=  12.0000000  14.0030740   1.0078250   1.0078250  14.0030740  12.0000000  14.0030740   1.0078250  12.0000000  15.9949146
 NucSpn=           0           2           1           1           2           0           2           1           0           0
 AtZEff=  -0.0000000  -0.0000000  -0.0000000  -0.0000000  -0.0000000  -0.0000000  -0.0000000  -0.0000000  -0.0000000  -0.0000000
 NQMom=    0.0000000   2.0440000   0.0000000   0.0000000   2.0440000   0.0000000   2.0440000   0.0000000   0.0000000   0.0000000
 NMagM=    0.0000000   0.4037610   2.7928460   2.7928460   0.4037610   0.0000000   0.4037610   2.7928460   0.0000000   0.0000000
 AtZNuc=   6.0000000   7.0000000   1.0000000   1.0000000   7.0000000   6.0000000   7.0000000   1.0000000   6.0000000   8.0000000

  Atom        31          32          33          34          35          36          37          38          39          40
 IAtWgt=          12          14          12           1           1           1           1           1           1           1
 AtmWgt=  12.0000000  14.0030740  12.0000000   1.0078250   1.0078250   1.0078250   1.0078250   1.0078250   1.0078250   1.0078250
 NucSpn=           0           2           0           1           1           1           1           1           1           1
 AtZEff=  -0.0000000  -0.0000000  -0.0000000  -0.0000000  -0.0000000  -0.0000000  -0.0000000  -0.0000000  -0.0000000  -0.0000000
 NQMom=    0.0000000   2.0440000   0.0000000   0.0000000   0.0000000   0.0000000   0.0000000   0.0000000   0.0000000   0.0000000
 NMagM=    0.0000000   0.4037610   0.0000000   2.7928460   2.7928460   2.7928460   2.7928460   2.7928460   2.7928460   2.7928460
 AtZNuc=   6.0000000   7.0000000   6.0000000   1.0000000   1.0000000   1.0000000   1.0000000   1.0000000   1.0000000   1.0000000

  Atom        41          42          43          44          45          46          47          48          49          50
 IAtWgt=           1          12          16          12           1          14          16          12           1          12
 AtmWgt=   1.0078250  12.0000000  15.9949146  12.0000000   1.0078250  14.0030740  15.9949146  12.0000000   1.0078250  12.0000000
 NucSpn=           1           0           0           0           1           2           0           0           1           0
 AtZEff=  -0.0000000  -0.0000000  -0.0000000  -0.0000000  -0.0000000  -0.0000000  -0.0000000  -0.0000000  -0.0000000  -0.0000000
 NQMom=    0.0000000   0.0000000   0.0000000   0.0000000   0.0000000   2.0440000   0.0000000   0.0000000   0.0000000   0.0000000
 NMagM=    2.7928460   0.0000000   0.0000000   0.0000000   2.7928460   0.4037610   0.0000000   0.0000000   2.7928460   0.0000000
 AtZNuc=   1.0000000   6.0000000   8.0000000   6.0000000   1.0000000   7.0000000   8.0000000   6.0000000   1.0000000   6.0000000

  Atom        51          52          53          54          55          56          57          58          59          60
 IAtWgt=          12          14           1           1           1           1           1          14          12          12
 AtmWgt=  12.0000000  14.0030740   1.0078250   1.0078250   1.0078250   1.0078250   1.0078250  14.0030740  12.0000000  12.0000000
 NucSpn=           0           2           1           1           1           1           1           2           0           0
 AtZEff=  -0.0000000  -0.0000000  -0.0000000  -0.0000000  -0.0000000  -0.0000000  -0.0000000  -0.0000000  -0.0000000  -0.0000000
 NQMom=    0.0000000   2.0440000   0.0000000   0.0000000   0.0000000   0.0000000   0.0000000   2.0440000   0.0000000   0.0000000
 NMagM=    0.0000000   0.4037610   2.7928460   2.7928460   2.7928460   2.7928460   2.7928460   0.4037610   0.0000000   0.0000000
 AtZNuc=   6.0000000   7.0000000   1.0000000   1.0000000   1.0000000   1.0000000   1.0000000   7.0000000   6.0000000   6.0000000

  Atom        61          62          63          64          65          66          67          68          69          70
 IAtWgt=          14           1          12          14           1          12          14          12          12          14
 AtmWgt=  14.0030740   1.0078250  12.0000000  14.0030740   1.0078250  12.0000000  14.0030740  12.0000000  12.0000000  14.0030740
 NucSpn=           2           1           0           2           1           0           2           0           0           2
 AtZEff=  -0.0000000  -0.0000000  -0.0000000  -0.0000000  -0.0000000  -0.0000000  -0.0000000  -0.0000000  -0.0000000  -0.0000000
 NQMom=    2.0440000   0.0000000   0.0000000   2.0440000   0.0000000   0.0000000   2.0440000   0.0000000   0.0000000   2.0440000
 NMagM=    0.4037610   2.7928460   0.0000000   0.4037610   2.7928460   0.0000000   0.4037610   0.0000000   0.0000000   0.4037610
 AtZNuc=   7.0000000   1.0000000   6.0000000   7.0000000   1.0000000   6.0000000   7.0000000   6.0000000   6.0000000   7.0000000
 Leave Link  101 at Thu Jan 25 04:34:32 2018, MaxMem=  4294967296 cpu:               7.7 elap:               0.3
 (Enter /share/apps/g16/l202.exe)
 Stoichiometry    C23H27N17O3
 Framework group  C1[X(C23H27N17O3)]
 Deg. of freedom   204
 Full point group                 C1      NOp   1
 Largest Abelian subgroup         C1      NOp   1
 Largest concise Abelian subgroup C1      NOp   1
                         Standard orientation:                         
 ---------------------------------------------------------------------
 Center     Atomic      Atomic             Coordinates (Angstroms)
 Number     Number       Type             X           Y           Z
 ---------------------------------------------------------------------
      1          7           0        4.259269   -2.040964   -1.878169
      2          6           0        5.659906   -1.643244   -2.119106
      3          6           0        2.076428   -2.008617   -1.610854
      4          7           0        2.468703   -3.328458   -1.440952
      5          6           0        3.768084   -3.295123   -1.608802
      6          1           0        4.423764   -4.164116   -1.546573
      7          7           0        0.775105   -0.048241   -1.773455
      8          6           0        1.918275    0.598465   -2.023514
      9          1           0        1.819503    1.670436   -2.188979
     10          7           0        3.159292    0.122038   -2.099523
     11          6           0        3.169163   -1.203312   -1.880931
     12          6           0        0.818485   -1.381160   -1.557795
     13          7           0       -0.321590   -2.028480   -1.308013
     14          1           0       -0.336705   -3.015184   -1.142462
     15          1           0       -1.198969   -1.549479   -1.277851
     16          1           0        6.014643   -2.133108   -2.915569
     17          1           0        5.703376   -0.658977   -2.287790
     18          1           0        6.214735   -1.867216   -1.317861
     19          7           0        5.026096    2.651875    0.685862
     20          6           0        3.692891    2.355842    0.837437
     21          6           0        5.572664    3.983066    0.354337
     22          7           0        0.368551    3.361041    0.827224
     23          1           0       -0.528150    2.945565    0.977349
     24          1           0        0.385521    4.337118    0.608792
     25          7           0        2.666459    3.224324    0.710012
     26          6           0        1.498076    2.642416    0.914658
     27          7           0        1.344478    1.311921    1.220773
     28          1           0        0.412560    0.952828    1.360606
     29          6           0        2.386388    0.399915    1.356897
     30          8           0        2.139517   -0.779992    1.635479
     31          6           0        3.647784    1.010377    1.139915
     32          7           0        4.926940    0.472543    1.177482
     33          6           0        5.709768    1.480466    0.902757
     34          1           0        6.797352    1.424383    0.845365
     35          1           0        6.081048    3.932017   -0.504585
     36          1           0        4.821537    4.634739    0.257496
     37          1           0        6.183195    4.286018    1.085275
     38          1           0       -4.501806   -0.350302    1.300630
     39          1           0       -4.337440   -0.243062    3.051669
     40          1           0       -3.371561    0.803002    2.010414
     41          1           0       -2.302125   -4.525515    2.236397
     42          6           0       -2.059111   -3.466505    2.148724
     43          8           0        0.276729   -3.830053    1.951737
     44          6           0       -0.691976   -3.072144    1.996245
     45          1           0        0.458197   -1.392566    1.785417
     46          7           0       -0.494814   -1.709796    1.894295
     47          8           0       -1.182564    0.453432    1.826356
     48          6           0       -1.455398   -0.730041    1.924450
     49          1           0       -4.072856   -2.781657    2.295796
     50          6           0       -3.018326   -2.534081    2.181645
     51          6           0       -3.809845   -0.178729    2.111687
     52          7           0       -2.749176   -1.189337    2.074026
     53          1           0       -5.867777    4.258655   -1.844129
     54          1           0       -4.484618    4.161178   -0.984196
     55          1           0       -5.920627    4.246415   -0.213028
     56          1           0       -3.893636   -2.846331   -1.015049
     57          1           0       -5.521908   -2.339895   -1.063464
     58          7           0       -4.552498   -2.094139   -1.030754
     59          6           0       -4.157027   -0.819659   -1.009078
     60          6           0       -4.481928    1.537489   -1.002733
     61          7           0       -3.173390    1.837856   -0.958800
     62          1           0       -1.361976    0.880378   -0.907726
     63          6           0       -2.439672    0.726855   -0.943245
     64          7           0       -2.833884   -0.550530   -0.964902
     65          1           0       -7.667454    2.080592   -1.100634
     66          6           0       -6.671332    1.638040   -1.071959
     67          7           0       -6.427693    0.350279   -1.073312
     68          6           0       -5.043209    0.272664   -1.029636
     69          6           0       -5.445591    3.888063   -1.016834
     70          7           0       -5.539599    2.415311   -1.030289
 ---------------------------------------------------------------------
 Rotational constants (GHZ):           0.1267463           0.0563069           0.0489180
 Leave Link  202 at Thu Jan 25 04:34:32 2018, MaxMem=  4294967296 cpu:               0.4 elap:               0.0
 (Enter /share/apps/g16/l301.exe)
 Standard basis: CC-pVDZ (5D, 7F)
 Ernie: Thresh=  0.10000D-02 Tol=  0.10000D-05 Strict=F.
 Ernie:  86 primitive shells out of 1081 were deleted.
 There are   780 symmetry adapted cartesian basis functions of A   symmetry.
 There are   737 symmetry adapted basis functions of A   symmetry.
   737 basis functions,  1608 primitive gaussians,   780 cartesian basis functions
   154 alpha electrons      154 beta electrons
       nuclear repulsion energy      5452.9473039389 Hartrees.
 IExCor= 4639 DFT=T Ex+Corr=wB97XD ExCW=0 ScaHFX=  1.000000
 ScaDFX=  1.000000  1.000000  1.000000  1.000000 ScalE2=  1.000000  1.000000
 IRadAn=      5 IRanWt=     -1 IRanGd=            0 ICorTp=0 IEmpDi=121
 HFx  wShort=  0.000000 wLong=  0.200000 cFull=  0.222036 cShort=  0.000000 cLong=  0.777964
 DFx  wShort=  0.000000 wLong=  0.200000 cFull=  0.000000 cShort=  0.000000 cLong=  1.000000
 NAtoms=   70 NActive=   70 NUniq=   70 SFac= 1.00D+00 NAtFMM=   60 NAOKFM=T Big=T
 Integral buffers will be    131072 words long.
 Raffenetti 2 integral format.
 Two-electron integral symmetry is turned on.
 R6Disp:  Grimme-D2 Dispersion energy=       -0.0681992483 Hartrees.
 Nuclear repulsion after empirical dispersion term =     5452.8791046906 Hartrees.
 Leave Link  301 at Thu Jan 25 04:34:32 2018, MaxMem=  4294967296 cpu:               3.0 elap:               0.1
 (Enter /share/apps/g16/l302.exe)
 NPDir=0 NMtPBC=     1 NCelOv=     1 NCel=       1 NClECP=     1 NCelD=      1
         NCelK=      1 NCelE2=     1 NClLst=     1 CellRange=     0.0.
 One-electron integrals computed using PRISM.
 One-electron integral symmetry used in STVInt
 NBasis=   737 RedAO= T EigKep=  6.92D-04  NBF=   737
 NBsUse=   737 1.00D-06 EigRej= -1.00D+00 NBFU=   737
 Precomputing XC quadrature grid using
 IXCGrd= 4 IRadAn=           5 IRanWt=          -1 IRanGd=           0 AccXCQ= 0.00D+00.
 Generated NRdTot=       0 NPtTot=           0 NUsed=           0 NTot=          32
 NSgBfM=   757   757   757   757   757 MxSgAt=    70 MxSgA2=    70.
 Leave Link  302 at Thu Jan 25 04:34:37 2018, MaxMem=  4294967296 cpu:             134.3 elap:               4.2
 (Enter /share/apps/g16/l303.exe)
 DipDrv:  MaxL=1.
 Leave Link  303 at Thu Jan 25 04:34:37 2018, MaxMem=  4294967296 cpu:              12.6 elap:               0.4
 (Enter /share/apps/g16/l401.exe)
 ExpMin= 1.22D-01 ExpMax= 1.17D+04 ExpMxC= 4.01D+02 IAcc=3 IRadAn=         5 AccDes= 0.00D+00
 Harris functional with IExCor= 4639 and IRadAn=       5 diagonalized for initial guess.
 HarFok:  IExCor= 4639 AccDes= 0.00D+00 IRadAn=         5 IDoV= 1 UseB2=F ITyADJ=14
 ICtDFT=  3500011 ScaDFX=  1.000000  1.000000  1.000000  1.000000
 FoFCou: FMM=F IPFlag=           0 FMFlag=      100000 FMFlg1=        2001
         NFxFlg=           0 DoJE=T BraDBF=F KetDBF=T FulRan=T
         wScrn=  0.000000 ICntrl=       500 IOpCl=  0 I1Cent=   200000004 NGrid=           0
         NMat0=    1 NMatS0=      1 NMatT0=    0 NMatD0=    1 NMtDS0=    0 NMtDT0=    0
 Petite list used in FoFCou.
 Harris En= -1963.88798673220    
 JPrj=0 DoOrth=F DoCkMO=F.
 Leave Link  401 at Thu Jan 25 04:34:49 2018, MaxMem=  4294967296 cpu:             395.6 elap:              12.4
 (Enter /share/apps/g16/l502.exe)
 Integral symmetry usage will be decided dynamically.
 Closed shell SCF:
 Using DIIS extrapolation, IDIIS=  1040.
 NGot=  4294967296 LenX=  4293717438 LenY=  4293108258
 Requested convergence on RMS density matrix=1.00D-08 within  20 cycles.
 Requested convergence on MAX density matrix=1.00D-06.
 Requested convergence on             energy=1.00D-06.
 No special actions if energy rises.
 Fock matrices will be formed incrementally for  20 cycles.
 Integral accuracy reduced to 1.0D-05 until final iterations.

 Cycle   1  Pass 0  IDiag  1:
 FoFJK:  IHMeth= 1 ICntrl=       0 DoSepK=T KAlg= 0 I1Cent=           0 FoldK=F
 IRaf=         1 NMat=       1 IRICut=       1 DoRegI=T DoRafI=F ISym2E= 0 IDoP0=0 IntGTp=1.
 FoFCou: FMM=T IPFlag=           0 FMFlag=      100000 FMFlg1=        2001
         NFxFlg=           0 DoJE=T BraDBF=F KetDBF=F FulRan=T
         wScrn=  0.000000 ICntrl=       500 IOpCl=  0 I1Cent=           0 NGrid=           0
         NMat0=    1 NMatS0=      1 NMatT0=    0 NMatD0=    1 NMtDS0=    0 NMtDT0=    0
 Symmetry not used in FoFCou.
 FMM levels:  10  Number of levels for PrismC:   9
 E= -2048.31911138360    
 DIIS: error= 2.60D-02 at cycle   1 NSaved=   1.
 NSaved= 1 IEnMin= 1 EnMin= -2048.31911138360     IErMin= 1 ErrMin= 2.60D-02
 ErrMax= 2.60D-02  0.00D+00 EMaxC= 1.00D-01 BMatC= 8.28D-01 BMatP= 8.28D-01
 IDIUse=3 WtCom= 7.40D-01 WtEn= 2.60D-01
 Coeff-Com:  0.100D+01
 Coeff-En:   0.100D+01
 Coeff:      0.100D+01
 Gap=     0.262 Goal=   None    Shift=    0.000
 GapD=    0.262 DampG=1.000 DampE=0.500 DampFc=0.5000 IDamp=-1.
 Damping current iteration by 5.00D-01
 RMSDP=1.53D-03 MaxDP=1.33D-01              OVMax= 2.10D-01

 Cycle   2  Pass 0  IDiag  1:
 RMSU=  7.66D-04    CP:  9.98D-01
 E= -2048.51695738549     Delta-E=       -0.197846001898 Rises=F Damp=T
 DIIS: error= 1.45D-02 at cycle   2 NSaved=   2.
 NSaved= 2 IEnMin= 2 EnMin= -2048.51695738549     IErMin= 2 ErrMin= 1.45D-02
 ErrMax= 1.45D-02  0.00D+00 EMaxC= 1.00D-01 BMatC= 1.44D-01 BMatP= 8.28D-01
 IDIUse=3 WtCom= 8.55D-01 WtEn= 1.45D-01
 Coeff-Com: -0.210D+00 0.121D+01
 Coeff-En:   0.000D+00 0.100D+01
 Coeff:     -0.179D+00 0.118D+01
 Gap=     0.289 Goal=   None    Shift=    0.000
 RMSDP=5.79D-04 MaxDP=3.60D-02 DE=-1.98D-01 OVMax= 1.63D-01

 Cycle   3  Pass 0  IDiag  1:
 RMSU=  5.61D-04    CP:  9.94D-01  1.18D+00
 E= -2048.69765055868     Delta-E=       -0.180693173184 Rises=F Damp=F
 DIIS: error= 1.02D-02 at cycle   3 NSaved=   3.
 NSaved= 3 IEnMin= 3 EnMin= -2048.69765055868     IErMin= 3 ErrMin= 1.02D-02
 ErrMax= 1.02D-02  0.00D+00 EMaxC= 1.00D-01 BMatC= 5.82D-02 BMatP= 1.44D-01
 IDIUse=3 WtCom= 8.98D-01 WtEn= 1.02D-01
 Coeff-Com: -0.230D+00 0.542D+00 0.688D+00
 Coeff-En:   0.000D+00 0.000D+00 0.100D+01
 Coeff:     -0.207D+00 0.487D+00 0.719D+00
 Gap=     0.286 Goal=   None    Shift=    0.000
 RMSDP=3.40D-04 MaxDP=3.68D-02 DE=-1.81D-01 OVMax= 7.63D-02

 Cycle   4  Pass 0  IDiag  1:
 RMSU=  1.95D-04    CP:  9.94D-01  1.45D+00  6.74D-01
 E= -2048.74022992976     Delta-E=       -0.042579371081 Rises=F Damp=F
 DIIS: error= 4.38D-03 at cycle   4 NSaved=   4.
 NSaved= 4 IEnMin= 4 EnMin= -2048.74022992976     IErMin= 4 ErrMin= 4.38D-03
 ErrMax= 4.38D-03  0.00D+00 EMaxC= 1.00D-01 BMatC= 9.55D-03 BMatP= 5.82D-02
 IDIUse=3 WtCom= 9.56D-01 WtEn= 4.38D-02
 Coeff-Com: -0.911D-01 0.176D+00 0.387D+00 0.528D+00
 Coeff-En:   0.000D+00 0.000D+00 0.844D-01 0.916D+00
 Coeff:     -0.871D-01 0.168D+00 0.374D+00 0.545D+00
 Gap=     0.289 Goal=   None    Shift=    0.000
 RMSDP=1.27D-04 MaxDP=1.44D-02 DE=-4.26D-02 OVMax= 1.76D-02

 Cycle   5  Pass 0  IDiag  1:
 RMSU=  6.18D-05    CP:  9.94D-01  1.42D+00  8.14D-01  6.22D-01
 E= -2048.74774307150     Delta-E=       -0.007513141739 Rises=F Damp=F
 DIIS: error= 6.72D-04 at cycle   5 NSaved=   5.
 NSaved= 5 IEnMin= 5 EnMin= -2048.74774307150     IErMin= 5 ErrMin= 6.72D-04
 ErrMax= 6.72D-04  0.00D+00 EMaxC= 1.00D-01 BMatC= 3.22D-04 BMatP= 9.55D-03
 IDIUse=3 WtCom= 9.93D-01 WtEn= 6.72D-03
 Coeff-Com: -0.233D-01 0.397D-01 0.128D+00 0.250D+00 0.606D+00
 Coeff-En:   0.000D+00 0.000D+00 0.000D+00 0.000D+00 0.100D+01
 Coeff:     -0.232D-01 0.394D-01 0.127D+00 0.248D+00 0.609D+00
 Gap=     0.287 Goal=   None    Shift=    0.000
 RMSDP=2.53D-05 MaxDP=2.95D-03 DE=-7.51D-03 OVMax= 4.32D-03

 Failed to achieve initial convergence to 1.0D-08 in  6 cycles.
 Switch to full accuracy anyway.
 Cycle   6  Pass 1  IDiag  1:
 E= -2048.74799234589     Delta-E=       -0.000249274395 Rises=F Damp=F
 DIIS: error= 2.43D-04 at cycle   1 NSaved=   1.
 NSaved= 1 IEnMin= 1 EnMin= -2048.74799234589     IErMin= 1 ErrMin= 2.43D-04
 ErrMax= 2.43D-04  0.00D+00 EMaxC= 1.00D-01 BMatC= 7.49D-05 BMatP= 7.49D-05
 IDIUse=3 WtCom= 9.98D-01 WtEn= 2.43D-03
 Coeff-Com:  0.100D+01
 Coeff-En:   0.100D+01
 Coeff:      0.100D+01
 Gap=     0.287 Goal=   None    Shift=    0.000
 RMSDP=2.53D-05 MaxDP=2.95D-03 DE=-2.49D-04 OVMax= 2.23D-03

 Cycle   7  Pass 1  IDiag  1:
 RMSU=  1.09D-04    CP:  1.00D+00
 E= -2048.74804121468     Delta-E=       -0.000048868787 Rises=F Damp=F
 DIIS: error= 2.96D-04 at cycle   2 NSaved=   2.
 NSaved= 2 IEnMin= 2 EnMin= -2048.74804121468     IErMin= 1 ErrMin= 2.43D-04
 ErrMax= 2.96D-04  0.00D+00 EMaxC= 1.00D-01 BMatC= 5.21D-05 BMatP= 7.49D-05
 IDIUse=3 WtCom= 9.97D-01 WtEn= 2.96D-03
 Coeff-Com:  0.440D+00 0.560D+00
 Coeff-En:   0.680D-01 0.932D+00
 Coeff:      0.439D+00 0.561D+00
 Gap=     0.288 Goal=   None    Shift=    0.000
 RMSDP=1.10D-05 MaxDP=1.63D-03 DE=-4.89D-05 OVMax= 1.85D-03

 Cycle   8  Pass 1  IDiag  1:
 RMSU=  1.08D-05    CP:  1.00D+00  1.02D+00
 E= -2048.74807743910     Delta-E=       -0.000036224422 Rises=F Damp=F
 DIIS: error= 1.49D-04 at cycle   3 NSaved=   3.
 NSaved= 3 IEnMin= 3 EnMin= -2048.74807743910     IErMin= 3 ErrMin= 1.49D-04
 ErrMax= 1.49D-04  0.00D+00 EMaxC= 1.00D-01 BMatC= 9.96D-06 BMatP= 5.21D-05
 IDIUse=3 WtCom= 9.99D-01 WtEn= 1.49D-03
 Coeff-Com: -0.195D-01 0.291D+00 0.729D+00
 Coeff-En:   0.000D+00 0.105D+00 0.895D+00
 Coeff:     -0.195D-01 0.290D+00 0.729D+00
 Gap=     0.288 Goal=   None    Shift=    0.000
 RMSDP=5.56D-06 MaxDP=5.73D-04 DE=-3.62D-05 OVMax= 5.58D-04

 Cycle   9  Pass 1  IDiag  1:
 RMSU=  3.78D-06    CP:  1.00D+00  1.05D+00  7.77D-01
 E= -2048.74808622591     Delta-E=       -0.000008786808 Rises=F Damp=F
 DIIS: error= 3.47D-05 at cycle   4 NSaved=   4.
 NSaved= 4 IEnMin= 4 EnMin= -2048.74808622591     IErMin= 4 ErrMin= 3.47D-05
 ErrMax= 3.47D-05  0.00D+00 EMaxC= 1.00D-01 BMatC= 4.47D-07 BMatP= 9.96D-06
 IDIUse=1 WtCom= 1.00D+00 WtEn= 0.00D+00
 Coeff-Com: -0.316D-01 0.777D-01 0.257D+00 0.697D+00
 Coeff:     -0.316D-01 0.777D-01 0.257D+00 0.697D+00
 Gap=     0.288 Goal=   None    Shift=    0.000
 RMSDP=1.37D-06 MaxDP=1.37D-04 DE=-8.79D-06 OVMax= 5.01D-04

 Cycle  10  Pass 1  IDiag  1:
 RMSU=  1.21D-06    CP:  1.00D+00  1.05D+00  8.05D-01  1.12D+00
 E= -2048.74808699020     Delta-E=       -0.000000764292 Rises=F Damp=F
 DIIS: error= 1.25D-05 at cycle   5 NSaved=   5.
 NSaved= 5 IEnMin= 5 EnMin= -2048.74808699020     IErMin= 5 ErrMin= 1.25D-05
 ErrMax= 1.25D-05  0.00D+00 EMaxC= 1.00D-01 BMatC= 1.02D-07 BMatP= 4.47D-07
 IDIUse=1 WtCom= 1.00D+00 WtEn= 0.00D+00
 Coeff-Com: -0.251D-02-0.494D-01-0.126D+00 0.183D+00 0.995D+00
 Coeff:     -0.251D-02-0.494D-01-0.126D+00 0.183D+00 0.995D+00
 Gap=     0.288 Goal=   None    Shift=    0.000
 RMSDP=1.15D-06 MaxDP=7.31D-05 DE=-7.64D-07 OVMax= 2.41D-04

 Cycle  11  Pass 1  IDiag  1:
 RMSU=  4.68D-07    CP:  1.00D+00  1.06D+00  8.09D-01  1.39D+00  1.18D+00
 E= -2048.74808721310     Delta-E=       -0.000000222901 Rises=F Damp=F
 DIIS: error= 1.01D-05 at cycle   6 NSaved=   6.
 NSaved= 6 IEnMin= 6 EnMin= -2048.74808721310     IErMin= 6 ErrMin= 1.01D-05
 ErrMax= 1.01D-05  0.00D+00 EMaxC= 1.00D-01 BMatC= 2.72D-08 BMatP= 1.02D-07
 IDIUse=1 WtCom= 1.00D+00 WtEn= 0.00D+00
 Coeff-Com:  0.459D-02-0.392D-01-0.114D+00-0.738D-02 0.540D+00 0.616D+00
 Coeff:      0.459D-02-0.392D-01-0.114D+00-0.738D-02 0.540D+00 0.616D+00
 Gap=     0.288 Goal=   None    Shift=    0.000
 RMSDP=3.37D-07 MaxDP=3.64D-05 DE=-2.23D-07 OVMax= 1.21D-04

 Cycle  12  Pass 1  IDiag  1:
 RMSU=  1.80D-07    CP:  1.00D+00  1.06D+00  8.10D-01  1.45D+00  1.31D+00
                    CP:  9.05D-01
 E= -2048.74808724964     Delta-E=       -0.000000036537 Rises=F Damp=F
 DIIS: error= 1.17D-06 at cycle   7 NSaved=   7.
 NSaved= 7 IEnMin= 7 EnMin= -2048.74808724964     IErMin= 7 ErrMin= 1.17D-06
 ErrMax= 1.17D-06  0.00D+00 EMaxC= 1.00D-01 BMatC= 7.94D-10 BMatP= 2.72D-08
 IDIUse=1 WtCom= 1.00D+00 WtEn= 0.00D+00
 Coeff-Com:  0.112D-02-0.644D-02-0.209D-01-0.805D-02 0.636D-01 0.144D+00
 Coeff-Com:  0.827D+00
 Coeff:      0.112D-02-0.644D-02-0.209D-01-0.805D-02 0.636D-01 0.144D+00
 Coeff:      0.827D+00
 Gap=     0.288 Goal=   None    Shift=    0.000
 RMSDP=7.81D-08 MaxDP=5.22D-06 DE=-3.65D-08 OVMax= 2.25D-05

 Cycle  13  Pass 1  IDiag  1:
 RMSU=  4.93D-08    CP:  1.00D+00  1.05D+00  8.10D-01  1.46D+00  1.32D+00
                    CP:  9.92D-01  1.12D+00
 E= -2048.74808725143     Delta-E=       -0.000000001789 Rises=F Damp=F
 DIIS: error= 5.46D-07 at cycle   8 NSaved=   8.
 NSaved= 8 IEnMin= 8 EnMin= -2048.74808725143     IErMin= 8 ErrMin= 5.46D-07
 ErrMax= 5.46D-07  0.00D+00 EMaxC= 1.00D-01 BMatC= 3.01D-10 BMatP= 7.94D-10
 IDIUse=1 WtCom= 1.00D+00 WtEn= 0.00D+00
 Coeff-Com: -0.699D-03 0.767D-02 0.205D-01-0.288D-03-0.118D+00-0.939D-01
 Coeff-Com:  0.410D+00 0.775D+00
 Coeff:     -0.699D-03 0.767D-02 0.205D-01-0.288D-03-0.118D+00-0.939D-01
 Coeff:      0.410D+00 0.775D+00
 Gap=     0.288 Goal=   None    Shift=    0.000
 RMSDP=4.73D-08 MaxDP=2.88D-06 DE=-1.79D-09 OVMax= 1.20D-05

 Cycle  14  Pass 1  IDiag  1:
 RMSU=  2.64D-08    CP:  1.00D+00  1.05D+00  8.09D-01  1.46D+00  1.33D+00
                    CP:  1.04D+00  1.28D+00  1.09D+00
 E= -2048.74808725174     Delta-E=       -0.000000000314 Rises=F Damp=F
 DIIS: error= 2.27D-07 at cycle   9 NSaved=   9.
 NSaved= 9 IEnMin= 9 EnMin= -2048.74808725174     IErMin= 9 ErrMin= 2.27D-07
 ErrMax= 2.27D-07  0.00D+00 EMaxC= 1.00D-01 BMatC= 2.89D-11 BMatP= 3.01D-10
 IDIUse=1 WtCom= 1.00D+00 WtEn= 0.00D+00
 Coeff-Com: -0.419D-03 0.401D-02 0.111D-01 0.119D-02-0.562D-01-0.547D-01
 Coeff-Com:  0.856D-01 0.313D+00 0.696D+00
 Coeff:     -0.419D-03 0.401D-02 0.111D-01 0.119D-02-0.562D-01-0.547D-01
 Coeff:      0.856D-01 0.313D+00 0.696D+00
 Gap=     0.288 Goal=   None    Shift=    0.000
 RMSDP=1.27D-08 MaxDP=7.98D-07 DE=-3.14D-10 OVMax= 3.43D-06

 Cycle  15  Pass 1  IDiag  1:
 RMSU=  8.74D-09    CP:  1.00D+00  1.05D+00  8.09D-01  1.46D+00  1.33D+00
                    CP:  1.04D+00  1.30D+00  1.23D+00  1.10D+00
 E= -2048.74808725200     Delta-E=       -0.000000000253 Rises=F Damp=F
 DIIS: error= 6.06D-08 at cycle  10 NSaved=  10.
 NSaved=10 IEnMin=10 EnMin= -2048.74808725200     IErMin=10 ErrMin= 6.06D-08
 ErrMax= 6.06D-08  0.00D+00 EMaxC= 1.00D-01 BMatC= 4.73D-12 BMatP= 2.89D-11
 IDIUse=1 WtCom= 1.00D+00 WtEn= 0.00D+00
 Coeff-Com:  0.986D-05-0.333D-03-0.754D-03 0.118D-03 0.622D-02 0.170D-02
 Coeff-Com: -0.572D-01-0.638D-01 0.254D+00 0.860D+00
 Coeff:      0.986D-05-0.333D-03-0.754D-03 0.118D-03 0.622D-02 0.170D-02
 Coeff:     -0.572D-01-0.638D-01 0.254D+00 0.860D+00
 Gap=     0.288 Goal=   None    Shift=    0.000
 RMSDP=6.72D-09 MaxDP=3.91D-07 DE=-2.53D-10 OVMax= 1.61D-06

 SCF Done:  E(RwB97XD) =  -2048.74808725     A.U. after   15 cycles
            NFock= 15  Conv=0.67D-08     -V/T= 2.0054
 KE= 2.037685655943D+03 PE=-1.568639016608D+04 EE= 6.147077318189D+03
 Leave Link  502 at Thu Jan 25 04:45:47 2018, MaxMem=  4294967296 cpu:           20381.9 elap:             658.0
 (Enter /share/apps/g16/l601.exe)
 Copying SCF densities to generalized density rwf, IOpCl= 0 IROHF=0.

 **********************************************************************

            Population analysis using the SCF density.

 **********************************************************************

 Orbital symmetries:
       Occupied  (A) (A) (A) (A) (A) (A) (A) (A) (A) (A) (A) (A)
                 (A) (A) (A) (A) (A) (A) (A) (A) (A) (A) (A) (A)
                 (A) (A) (A) (A) (A) (A) (A) (A) (A) (A) (A) (A)
                 (A) (A) (A) (A) (A) (A) (A) (A) (A) (A) (A) (A)
                 (A) (A) (A) (A) (A) (A) (A) (A) (A) (A) (A) (A)
                 (A) (A) (A) (A) (A) (A) (A) (A) (A) (A) (A) (A)
                 (A) (A) (A) (A) (A) (A) (A) (A) (A) (A) (A) (A)
                 (A) (A) (A) (A) (A) (A) (A) (A) (A) (A) (A) (A)
                 (A) (A) (A) (A) (A) (A) (A) (A) (A) (A) (A) (A)
                 (A) (A) (A) (A) (A) (A) (A) (A) (A) (A) (A) (A)
                 (A) (A) (A) (A) (A) (A) (A) (A) (A) (A) (A) (A)
                 (A) (A) (A) (A) (A) (A) (A) (A) (A) (A) (A) (A)
                 (A) (A) (A) (A) (A) (A) (A) (A) (A) (A)
       Virtual   (A) (A) (A) (A) (A) (A) (A) (A) (A) (A) (A) (A)
                 (A) (A) (A) (A) (A) (A) (A) (A) (A) (A) (A) (A)
                 (A) (A) (A) (A) (A) (A) (A) (A) (A) (A) (A) (A)
                 (A) (A) (A) (A) (A) (A) (A) (A) (A) (A) (A) (A)
                 (A) (A) (A) (A) (A) (A) (A) (A) (A) (A) (A) (A)
                 (A) (A) (A) (A) (A) (A) (A) (A) (A) (A) (A) (A)
                 (A) (A) (A) (A) (A) (A) (A) (A) (A) (A) (A) (A)
                 (A) (A) (A) (A) (A) (A) (A) (A) (A) (A) (A) (A)
                 (A) (A) (A) (A) (A) (A) (A) (A) (A) (A) (A) (A)
                 (A) (A) (A) (A) (A) (A) (A) (A) (A) (A) (A) (A)
                 (A) (A) (A) (A) (A) (A) (A) (A) (A) (A) (A) (A)
                 (A) (A) (A) (A) (A) (A) (A) (A) (A) (A) (A) (A)
                 (A) (A) (A) (A) (A) (A) (A) (A) (A) (A) (A) (A)
                 (A) (A) (A) (A) (A) (A) (A) (A) (A) (A) (A) (A)
                 (A) (A) (A) (A) (A) (A) (A) (A) (A) (A) (A) (A)
                 (A) (A) (A) (A) (A) (A) (A) (A) (A) (A) (A) (A)
                 (A) (A) (A) (A) (A) (A) (A) (A) (A) (A) (A) (A)
                 (A) (A) (A) (A) (A) (A) (A) (A) (A) (A) (A) (A)
                 (A) (A) (A) (A) (A) (A) (A) (A) (A) (A) (A) (A)
                 (A) (A) (A) (A) (A) (A) (A) (A) (A) (A) (A) (A)
                 (A) (A) (A) (A) (A) (A) (A) (A) (A) (A) (A) (A)
                 (A) (A) (A) (A) (A) (A) (A) (A) (A) (A) (A) (A)
                 (A) (A) (A) (A) (A) (A) (A) (A) (A) (A) (A) (A)
                 (A) (A) (A) (A) (A) (A) (A) (A) (A) (A) (A) (A)
                 (A) (A) (A) (A) (A) (A) (A) (A) (A) (A) (A) (A)
                 (A) (A) (A) (A) (A) (A) (A) (A) (A) (A) (A) (A)
                 (A) (A) (A) (A) (A) (A) (A) (A) (A) (A) (A) (A)
                 (A) (A) (A) (A) (A) (A) (A) (A) (A) (A) (A) (A)
                 (A) (A) (A) (A) (A) (A) (A) (A) (A) (A) (A) (A)
                 (A) (A) (A) (A) (A) (A) (A) (A) (A) (A) (A) (A)
                 (A) (A) (A) (A) (A) (A) (A) (A) (A) (A) (A) (A)
                 (A) (A) (A) (A) (A) (A) (A) (A) (A) (A) (A) (A)
                 (A) (A) (A) (A) (A) (A) (A) (A) (A) (A) (A) (A)
                 (A) (A) (A) (A) (A) (A) (A) (A) (A) (A) (A) (A)
                 (A) (A) (A) (A) (A) (A) (A) (A) (A) (A) (A) (A)
                 (A) (A) (A) (A) (A) (A) (A) (A) (A) (A) (A) (A)
                 (A) (A) (A) (A) (A) (A) (A) (A) (A) (A) (A) (A)
                 (A) (A) (A) (A) (A) (A) (A) (A) (A) (A) (A) (A)
                 (A) (A) (A) (A) (A) (A) (A) (A) (A) (A) (A) (A)
                 (A) (A) (A) (A) (A) (A) (A) (A) (A) (A) (A) (A)
                 (A) (A) (A) (A) (A) (A) (A) (A) (A) (A) (A) (A)
                 (A) (A) (A) (A) (A) (A) (A) (A) (A) (A) (A) (A)
                 (A) (A) (A) (A) (A) (A) (A) (A) (A) (A) (A) (A)
                 (A) (A) (A) (A) (A) (A) (A) (A) (A) (A) (A) (A)
                 (A) (A) (A) (A) (A) (A) (A) (A) (A) (A) (A) (A)
                 (A) (A) (A) (A) (A) (A) (A) (A) (A) (A) (A) (A)
                 (A) (A) (A) (A) (A) (A) (A) (A) (A) (A) (A) (A)
                 (A) (A) (A) (A) (A) (A) (A) (A) (A) (A) (A) (A)
                 (A) (A) (A) (A) (A) (A) (A)
 The electronic state is 1-A.
 Alpha  occ. eigenvalues --  -19.25195 -19.21256 -19.20547 -14.52643 -14.51710
 Alpha  occ. eigenvalues --  -14.49154 -14.48933 -14.48133 -14.47093 -14.46687
 Alpha  occ. eigenvalues --  -14.46518 -14.45581 -14.45058 -14.44920 -14.43041
 Alpha  occ. eigenvalues --  -14.42010 -14.41167 -14.40924 -14.40836 -14.40559
 Alpha  occ. eigenvalues --  -10.44752 -10.41146 -10.40638 -10.39377 -10.38155
 Alpha  occ. eigenvalues --  -10.38149 -10.37611 -10.37317 -10.36383 -10.35698
 Alpha  occ. eigenvalues --  -10.34375 -10.34242 -10.33996 -10.33577 -10.33574
 Alpha  occ. eigenvalues --  -10.33103 -10.33054 -10.33039 -10.31091 -10.30623
 Alpha  occ. eigenvalues --  -10.30030 -10.28362 -10.28147  -1.18739  -1.15453
 Alpha  occ. eigenvalues --   -1.13135  -1.12277  -1.10829  -1.10656  -1.10007
 Alpha  occ. eigenvalues --   -1.08630  -1.08462  -1.05491  -1.05200  -1.01734
 Alpha  occ. eigenvalues --   -1.01234  -1.00697  -0.99617  -0.98522  -0.97509
 Alpha  occ. eigenvalues --   -0.96700  -0.96512  -0.92894  -0.90488  -0.88019
 Alpha  occ. eigenvalues --   -0.86140  -0.84198  -0.83538  -0.82903  -0.82581
 Alpha  occ. eigenvalues --   -0.81784  -0.78252  -0.77517  -0.75336  -0.74632
 Alpha  occ. eigenvalues --   -0.73533  -0.72864  -0.72669  -0.71015  -0.70843
 Alpha  occ. eigenvalues --   -0.67357  -0.67299  -0.66253  -0.65921  -0.64702
 Alpha  occ. eigenvalues --   -0.64280  -0.63414  -0.62729  -0.62515  -0.61715
 Alpha  occ. eigenvalues --   -0.60993  -0.60666  -0.60197  -0.59783  -0.59076
 Alpha  occ. eigenvalues --   -0.58969  -0.58229  -0.56798  -0.56505  -0.55763
 Alpha  occ. eigenvalues --   -0.55587  -0.55554  -0.55481  -0.54979  -0.54061
 Alpha  occ. eigenvalues --   -0.53936  -0.53582  -0.53283  -0.53144  -0.52910
 Alpha  occ. eigenvalues --   -0.52201  -0.51809  -0.51311  -0.50410  -0.50301
 Alpha  occ. eigenvalues --   -0.50100  -0.49878  -0.49467  -0.48985  -0.48776
 Alpha  occ. eigenvalues --   -0.48711  -0.48004  -0.47846  -0.47652  -0.47064
 Alpha  occ. eigenvalues --   -0.46698  -0.45575  -0.45445  -0.44734  -0.43367
 Alpha  occ. eigenvalues --   -0.41238  -0.41057  -0.38932  -0.38186  -0.38020
 Alpha  occ. eigenvalues --   -0.37342  -0.37254  -0.36892  -0.35366  -0.35218
 Alpha  occ. eigenvalues --   -0.34951  -0.34030  -0.33390  -0.33266  -0.32898
 Alpha  occ. eigenvalues --   -0.32568  -0.32350  -0.31856  -0.31230  -0.30643
 Alpha  occ. eigenvalues --   -0.30539  -0.30363  -0.26182  -0.25201
 Alpha virt. eigenvalues --    0.03565   0.03658   0.06526   0.08035   0.08971
 Alpha virt. eigenvalues --    0.09270   0.09797   0.10261   0.10888   0.11508
 Alpha virt. eigenvalues --    0.13644   0.14437   0.14607   0.14689   0.14771
 Alpha virt. eigenvalues --    0.15829   0.16355   0.16927   0.17148   0.17735
 Alpha virt. eigenvalues --    0.18973   0.19646   0.19861   0.20157   0.20573
 Alpha virt. eigenvalues --    0.20770   0.20988   0.21050   0.21412   0.21772
 Alpha virt. eigenvalues --    0.21952   0.22789   0.23386   0.23657   0.23856
 Alpha virt. eigenvalues --    0.24203   0.24459   0.24606   0.24765   0.24984
 Alpha virt. eigenvalues --    0.25598   0.25974   0.27448   0.27625   0.28278
 Alpha virt. eigenvalues --    0.28704   0.29077   0.29840   0.30496   0.31075
 Alpha virt. eigenvalues --    0.31554   0.32058   0.32552   0.33179   0.33262
 Alpha virt. eigenvalues --    0.33818   0.34674   0.34988   0.35738   0.36410
 Alpha virt. eigenvalues --    0.36778   0.37008   0.37917   0.38653   0.39285
 Alpha virt. eigenvalues --    0.39480   0.40290   0.40862   0.41252   0.41708
 Alpha virt. eigenvalues --    0.42183   0.42503   0.42836   0.43913   0.44171
 Alpha virt. eigenvalues --    0.45167   0.45571   0.45800   0.46088   0.47101
 Alpha virt. eigenvalues --    0.47289   0.47773   0.48358   0.48790   0.49313
 Alpha virt. eigenvalues --    0.49426   0.50266   0.50463   0.51147   0.51487
 Alpha virt. eigenvalues --    0.51672   0.51833   0.52498   0.52860   0.53271
 Alpha virt. eigenvalues --    0.53668   0.54155   0.54359   0.55058   0.55244
 Alpha virt. eigenvalues --    0.55750   0.56189   0.56399   0.56743   0.57278
 Alpha virt. eigenvalues --    0.57474   0.58071   0.58558   0.58957   0.59227
 Alpha virt. eigenvalues --    0.59669   0.60296   0.60554   0.60754   0.60905
 Alpha virt. eigenvalues --    0.61673   0.61782   0.62072   0.62566   0.62723
 Alpha virt. eigenvalues --    0.62947   0.63751   0.64225   0.64596   0.65124
 Alpha virt. eigenvalues --    0.65572   0.66024   0.66243   0.66723   0.67321
 Alpha virt. eigenvalues --    0.67550   0.67841   0.68947   0.69012   0.69594
 Alpha virt. eigenvalues --    0.69980   0.70119   0.70695   0.71089   0.71765
 Alpha virt. eigenvalues --    0.71855   0.72084   0.72455   0.73137   0.73628
 Alpha virt. eigenvalues --    0.73947   0.74331   0.74799   0.75118   0.75209
 Alpha virt. eigenvalues --    0.75957   0.76307   0.76457   0.76841   0.77027
 Alpha virt. eigenvalues --    0.77231   0.77539   0.78057   0.78211   0.78704
 Alpha virt. eigenvalues --    0.79695   0.79809   0.80040   0.80590   0.81099
 Alpha virt. eigenvalues --    0.81467   0.81744   0.81886   0.82310   0.83121
 Alpha virt. eigenvalues --    0.83450   0.84032   0.84538   0.84742   0.85376
 Alpha virt. eigenvalues --    0.85590   0.85899   0.86595   0.87130   0.87333
 Alpha virt. eigenvalues --    0.87463   0.88049   0.88767   0.89156   0.89540
 Alpha virt. eigenvalues --    0.89832   0.90609   0.91404   0.92091   0.92222
 Alpha virt. eigenvalues --    0.92553   0.93191   0.93501   0.93779   0.94189
 Alpha virt. eigenvalues --    0.94698   0.94923   0.95012   0.95631   0.96316
 Alpha virt. eigenvalues --    0.96720   0.97370   0.97857   0.98048   0.98402
 Alpha virt. eigenvalues --    0.99056   0.99576   1.00136   1.00593   1.00734
 Alpha virt. eigenvalues --    1.00941   1.01158   1.01849   1.02081   1.02630
 Alpha virt. eigenvalues --    1.03164   1.03292   1.04088   1.04787   1.05224
 Alpha virt. eigenvalues --    1.05312   1.05620   1.06438   1.06770   1.06941
 Alpha virt. eigenvalues --    1.07174   1.07588   1.09318   1.09654   1.10338
 Alpha virt. eigenvalues --    1.10869   1.11651   1.12545   1.12677   1.13332
 Alpha virt. eigenvalues --    1.13612   1.14215   1.14507   1.14635   1.15198
 Alpha virt. eigenvalues --    1.15698   1.16454   1.16674   1.16760   1.17138
 Alpha virt. eigenvalues --    1.17217   1.17899   1.18286   1.19033   1.19557
 Alpha virt. eigenvalues --    1.19692   1.19840   1.20201   1.20420   1.20572
 Alpha virt. eigenvalues --    1.21051   1.21420   1.21943   1.22476   1.22772
 Alpha virt. eigenvalues --    1.23116   1.23684   1.23820   1.23896   1.24434
 Alpha virt. eigenvalues --    1.24709   1.25323   1.26225   1.26688   1.27242
 Alpha virt. eigenvalues --    1.27914   1.28133   1.28798   1.29156   1.29292
 Alpha virt. eigenvalues --    1.30663   1.31433   1.32589   1.32928   1.33281
 Alpha virt. eigenvalues --    1.33958   1.34265   1.34729   1.35379   1.36029
 Alpha virt. eigenvalues --    1.36544   1.37373   1.38220   1.38536   1.39920
 Alpha virt. eigenvalues --    1.40408   1.41462   1.42051   1.42752   1.44121
 Alpha virt. eigenvalues --    1.45129   1.45473   1.46428   1.46894   1.47292
 Alpha virt. eigenvalues --    1.48187   1.49327   1.49687   1.50172   1.50649
 Alpha virt. eigenvalues --    1.51536   1.52307   1.52855   1.53363   1.53934
 Alpha virt. eigenvalues --    1.55177   1.55950   1.56274   1.57191   1.57330
 Alpha virt. eigenvalues --    1.57989   1.58666   1.59038   1.59852   1.60249
 Alpha virt. eigenvalues --    1.60846   1.61928   1.62199   1.62990   1.63571
 Alpha virt. eigenvalues --    1.63864   1.63995   1.64640   1.65563   1.66354
 Alpha virt. eigenvalues --    1.66540   1.67218   1.67776   1.68039   1.68601
 Alpha virt. eigenvalues --    1.69047   1.69271   1.70437   1.70839   1.71179
 Alpha virt. eigenvalues --    1.71579   1.72070   1.72501   1.72934   1.73449
 Alpha virt. eigenvalues --    1.73684   1.73784   1.74505   1.74999   1.75431
 Alpha virt. eigenvalues --    1.75811   1.76015   1.76396   1.77028   1.77107
 Alpha virt. eigenvalues --    1.77336   1.77533   1.77932   1.78347   1.78664
 Alpha virt. eigenvalues --    1.78851   1.79020   1.79697   1.80067   1.80225
 Alpha virt. eigenvalues --    1.80520   1.81024   1.81395   1.81615   1.81932
 Alpha virt. eigenvalues --    1.82426   1.82799   1.83473   1.84230   1.84576
 Alpha virt. eigenvalues --    1.84914   1.85679   1.85837   1.86373   1.86582
 Alpha virt. eigenvalues --    1.86639   1.87367   1.87815   1.88547   1.88702
 Alpha virt. eigenvalues --    1.88777   1.88972   1.89867   1.90495   1.91019
 Alpha virt. eigenvalues --    1.91919   1.92436   1.92964   1.93252   1.93625
 Alpha virt. eigenvalues --    1.94302   1.95070   1.95230   1.96110   1.97246
 Alpha virt. eigenvalues --    1.98069   1.99187   1.99827   1.99854   2.00782
 Alpha virt. eigenvalues --    2.01515   2.01679   2.02189   2.02921   2.03319
 Alpha virt. eigenvalues --    2.03990   2.04888   2.05227   2.05328   2.06662
 Alpha virt. eigenvalues --    2.07648   2.08064   2.08552   2.09002   2.09466
 Alpha virt. eigenvalues --    2.09736   2.10678   2.11432   2.11788   2.12597
 Alpha virt. eigenvalues --    2.12679   2.14264   2.14681   2.15892   2.16157
 Alpha virt. eigenvalues --    2.17167   2.17762   2.19837   2.20752   2.21051
 Alpha virt. eigenvalues --    2.21216   2.22208   2.22697   2.23496   2.23565
 Alpha virt. eigenvalues --    2.23724   2.24436   2.24890   2.26011   2.26209
 Alpha virt. eigenvalues --    2.26911   2.27570   2.28114   2.29181   2.29776
 Alpha virt. eigenvalues --    2.30101   2.30434   2.31609   2.31746   2.32081
 Alpha virt. eigenvalues --    2.32677   2.33207   2.33753   2.34298   2.34625
 Alpha virt. eigenvalues --    2.34692   2.35406   2.35876   2.36693   2.36895
 Alpha virt. eigenvalues --    2.37336   2.38750   2.38972   2.39310   2.40937
 Alpha virt. eigenvalues --    2.41928   2.42232   2.42856   2.42939   2.44227
 Alpha virt. eigenvalues --    2.44269   2.44986   2.45222   2.45389   2.46065
 Alpha virt. eigenvalues --    2.47090   2.48843   2.49648   2.50528   2.51385
 Alpha virt. eigenvalues --    2.51759   2.53051   2.54282   2.55728   2.55872
 Alpha virt. eigenvalues --    2.56875   2.57357   2.57588   2.58333   2.58975
 Alpha virt. eigenvalues --    2.61702   2.61928   2.62557   2.63318   2.63520
 Alpha virt. eigenvalues --    2.64738   2.64876   2.65126   2.65270   2.65868
 Alpha virt. eigenvalues --    2.66563   2.66991   2.67313   2.68969   2.69385
 Alpha virt. eigenvalues --    2.69901   2.70201   2.70876   2.70960   2.71813
 Alpha virt. eigenvalues --    2.72705   2.74069   2.75398   2.75964   2.76486
 Alpha virt. eigenvalues --    2.76791   2.77552   2.77723   2.78865   2.79211
 Alpha virt. eigenvalues --    2.79331   2.79970   2.80293   2.80606   2.81315
 Alpha virt. eigenvalues --    2.81782   2.82173   2.82390   2.83394   2.84185
 Alpha virt. eigenvalues --    2.84565   2.85338   2.86307   2.86860   2.86898
 Alpha virt. eigenvalues --    2.86960   2.88095   2.88981   2.91270   2.93752
 Alpha virt. eigenvalues --    2.94073   2.95173   2.96322   2.97504   2.98396
 Alpha virt. eigenvalues --    2.99623   3.00715   3.02313   3.04155   3.04773
 Alpha virt. eigenvalues --    3.05817   3.08816   3.10291   3.12272   3.14489
 Alpha virt. eigenvalues --    3.15076   3.15723   3.16607   3.18592   3.20044
 Alpha virt. eigenvalues --    3.20411   3.22846   3.24042   3.24596   3.25243
 Alpha virt. eigenvalues --    3.44047   3.46951   3.47581   3.48738   3.50792
 Alpha virt. eigenvalues --    3.52663   3.54939   3.56415   3.57915   3.60450
 Alpha virt. eigenvalues --    3.63476   3.71098   3.75080
          Condensed to atoms (all electrons):
 Mulliken charges:
               1
     1  N   -0.311057
     2  C    0.184686
     3  C    0.064300
     4  N   -0.259559
     5  C    0.146782
     6  H    0.028245
     7  N   -0.291002
     8  C    0.121853
     9  H    0.014835
    10  N   -0.274911
    11  C    0.255977
    12  C    0.080506
    13  N   -0.070464
    14  H    0.112474
    15  H    0.082212
    16  H    0.019269
    17  H    0.030920
    18  H    0.033893
    19  N   -0.311121
    20  C    0.254911
    21  C    0.181398
    22  N   -0.120885
    23  H    0.122084
    24  H    0.117192
    25  N   -0.309963
    26  C    0.235524
    27  N   -0.132620
    28  H    0.117641
    29  C    0.173832
    30  O   -0.319547
    31  C    0.001605
    32  N   -0.234151
    33  C    0.122790
    34  H    0.022085
    35  H    0.027068
    36  H    0.029796
    37  H    0.024788
    38  H    0.064648
    39  H    0.057167
    40  H    0.077388
    41  H    0.026993
    42  C   -0.117667
    43  O   -0.258477
    44  C    0.169206
    45  H    0.136140
    46  N   -0.126165
    47  O   -0.349311
    48  C    0.354079
    49  H    0.041170
    50  C    0.163306
    51  C    0.036354
    52  N   -0.278389
    53  H    0.034448
    54  H    0.039380
    55  H    0.031028
    56  H    0.117970
    57  H    0.120620
    58  N   -0.063896
    59  C    0.063399
    60  C    0.244750
    61  N   -0.272702
    62  H    0.024021
    63  C    0.180490
    64  N   -0.308461
    65  H    0.040131
    66  C    0.141629
    67  N   -0.258722
    68  C    0.029276
    69  C    0.180863
    70  N   -0.312051
 Sum of Mulliken charges =  -0.00000
 Mulliken charges with hydrogens summed into heavy atoms:
               1
     1  N   -0.311057
     2  C    0.268770
     3  C    0.064300
     4  N   -0.259559
     5  C    0.175027
     7  N   -0.291002
     8  C    0.136687
    10  N   -0.274911
    11  C    0.255977
    12  C    0.080506
    13  N    0.124222
    19  N   -0.311121
    20  C    0.254911
    21  C    0.263050
    22  N    0.118391
    25  N   -0.309963
    26  C    0.235524
    27  N   -0.014980
    29  C    0.173832
    30  O   -0.319547
    31  C    0.001605
    32  N   -0.234151
    33  C    0.144874
    42  C   -0.090674
    43  O   -0.258477
    44  C    0.169206
    46  N    0.009976
    47  O   -0.349311
    48  C    0.354079
    50  C    0.204476
    51  C    0.235555
    52  N   -0.278389
    58  N    0.174694
    59  C    0.063399
    60  C    0.244750
    61  N   -0.272702
    63  C    0.204510
    64  N   -0.308461
    66  C    0.181760
    67  N   -0.258722
    68  C    0.029276
    69  C    0.285719
    70  N   -0.312051
 Electronic spatial extent (au):  <R**2>=          22760.2478
 Charge=             -0.0000 electrons
 Dipole moment (field-independent basis, Debye):
    X=             -8.4204    Y=              6.4309    Z=             -1.0359  Tot=             10.6458
 Quadrupole moment (field-independent basis, Debye-Ang):
   XX=           -169.0758   YY=           -215.2650   ZZ=           -251.1165
   XY=              7.3131   XZ=            -18.3776   YZ=              7.8188
 Traceless Quadrupole moment (field-independent basis, Debye-Ang):
   XX=             42.7433   YY=             -3.4459   ZZ=            -39.2974
   XY=              7.3131   XZ=            -18.3776   YZ=              7.8188
 Octapole moment (field-independent basis, Debye-Ang**2):
  XXX=             53.2410  YYY=            154.2464  ZZZ=             21.2037  XYY=           -104.8745
  XXY=            124.6789  XXZ=            -55.5170  XZZ=            -33.9515  YZZ=              6.1092
  YYZ=            -38.6408  XYZ=             65.3034
 Hexadecapole moment (field-independent basis, Debye-Ang**3):
 XXXX=         -16389.9677 YYYY=          -6454.6097 ZZZZ=          -3558.0586 XXXY=           -371.1802
 XXXZ=           -345.0501 YYYX=             51.5046 YYYZ=             58.9682 ZZZX=           -100.5554
 ZZZY=             -3.4684 XXYY=          -3020.1235 XXZZ=          -3763.0360 YYZZ=          -1766.2298
 XXYZ=             35.8545 YYXZ=             16.9505 ZZXY=            -13.0937
 N-N= 5.452879104691D+03 E-N=-1.568639015896D+04  KE= 2.037685655943D+03
 No NMR shielding tensors so no spin-rotation constants.
 Leave Link  601 at Thu Jan 25 04:45:49 2018, MaxMem=  4294967296 cpu:              48.8 elap:               1.7
 (Enter /share/apps/g16/l9999.exe)
 1\1\GINC-COMPUTE-0-3\SP\RwB97XD\CC-pVDZ\C23H27N17O3\SATYA\25-Jan-2018\
 0\\#p wb97xd/cc-pvdz sp scf=(maxcycles=20)\\Base pair stacking\\0,1\N,
 0,1.90541,-2.33008,-6.70007\C,0,3.15596,-1.55791,-6.83384\C,0,-0.20849
 ,-2.89355,-6.47374\N,0,0.50377,-4.08163,-6.5504\C,0,1.74881,-3.69461,-
 6.68369\H,0,2.60113,-4.36849,-6.7752\N,0,-1.9597,-1.32484,-6.28567\C,0
 ,-1.0205,-0.37857,-6.38602\H,0,-1.38693,0.64633,-6.34647\N,0,0.29718,-
 0.50765,-6.52724\C,0,0.64194,-1.80541,-6.56455\C,0,-1.5807,-2.62089,-6
 .32665\N,0,-2.51676,-3.56692,-6.22663\H,0,-2.28176,-4.53921,-6.25208\H
 ,0,-3.4843,-3.33616,-6.12289\H,0,3.5979,-1.78437,-7.70192\H,0,2.94893,
 -0.58028,-6.81138\H,0,3.77201,-1.78386,-6.07924\N,0,1.55784,1.83404,-3
 .27599\C,0,0.34476,1.19214,-3.20929\C,0,1.74715,3.29728,-3.33766\N,0,-
 3.12389,1.32088,-3.09242\H,0,-3.88471,0.67452,-3.04142\H,0,-3.35599,2.
 29353,-3.12086\N,0,-0.86832,1.78551,-3.18904\C,0,-1.84933,0.90309,-3.1
 2143\N,0,-1.65904,-0.45681,-3.07697\H,0,-2.46825,-1.05644,-3.02603\C,0
 ,-0.41992,-1.08931,-3.09666\O,0,-0.35811,-2.3242,-3.05239\C,0,0.64371,
 -0.15427,-3.16915\N,0,2.01685,-0.35364,-3.20983\C,0,2.51679,0.85065,-3
 .27266\H,0,3.58214,1.07911,-3.31863\H,0,2.22717,3.53771,-4.18062\H,0,0
 .85533,3.7475,-3.3233\H,0,2.28435,3.599,-2.55078\H,0,-6.90518,-3.50695
 ,-3.42776\H,0,-6.72185,-3.69501,-1.68544\H,0,-6.07636,-2.26406,-2.4898
 7\H,0,-3.7121,-7.10181,-3.26078\C,0,-3.74211,-6.01879,-3.14073\O,0,-1.
 39584,-5.7451,-3.35806\C,0,-2.5206,-5.27487,-3.18896\H,0,-1.82977,-3.3
 5317,-3.05423\N,0,-2.67069,-3.91244,-3.02612\O,0,-3.87537,-2.01611,-2.
 69469\C,0,-3.84305,-3.22675,-2.82876\H,0,-5.85767,-5.89763,-2.90506\C,
 0,-4.90132,-5.37824,-2.94963\C,0,-6.25421,-3.32488,-2.58565\N,0,-4.977
 5,-4.01353,-2.79431\H,0,-9.46268,1.12496,-5.66438\H,0,-8.07425,1.21439
 ,-4.8121\H,0,-9.46351,0.79197,-4.06671\H,0,-5.76411,-5.28883,-6.16368\
 H,0,-7.46782,-5.20419,-6.14637\N,0,-6.58918,-4.73548,-6.04878\C,0,-6.5
 2186,-3.43048,-5.77747\C,0,-7.42116,-1.27361,-5.32923\N,0,-6.22737,-0.
 67068,-5.20368\H,0,-4.23433,-1.13864,-5.30062\C,0,-5.24079,-1.54618,-5
 .38552\N,0,-5.30617,-2.85363,-5.65734\H,0,-10.64328,-1.53266,-5.38363\
 C,0,-9.5681,-1.71034,-5.42039\N,0,-9.01269,-2.87261,-5.66192\C,0,-7.65
 158,-2.60975,-5.60704\C,0,-8.93793,0.72178,-4.91466\N,0,-8.66391,-0.69
 802,-5.20978\\Version=EM64L-G16RevA.03\State=1-A\HF=-2048.7480873\RMSD
 =6.716e-09\Dipole=-3.8474184,1.655145,0.0171072\Quadrupole=26.1491419,
 0.3888907,-26.5380326,15.9267549,-13.518183,7.3868594\PG=C01 [X(C23H27
 N17O3)]\\@


 NOTHING WILL BE ATTEMPTED IF ALL POSSIBLE OBJECTIONS
 MUST FIRST BE OVERCOME.

                               -- THE GOLDEN PRINCIPLE,
                    PAUL DICKSON'S "THE OFFICIAL RULES"
 Job cpu time:       0 days  5 hours 49 minutes 49.6 seconds.
 Elapsed time:       0 days  0 hours 11 minutes 17.4 seconds.
 File lengths (MBytes):  RWF=    298 Int=      0 D2E=      0 Chk=     33 Scr=      1
 Normal termination of Gaussian 16 at Thu Jan 25 04:45:50 2018.
