 Entering Gaussian System, Link 0=g16
 Input=str50.0.-2.0.com
 Output=str50.0.-2.0.log
 Initial command:
 /share/apps/g16/l1.exe "/state/partition1/scr/Gau-10814.inp" -scrdir="/state/partition1/scr/"
 Entering Link 1 = /share/apps/g16/l1.exe PID=     10815.
  
 Copyright (c) 1988,1990,1992,1993,1995,1998,2003,2009,2016,
            Gaussian, Inc.  All Rights Reserved.
  
 This is part of the Gaussian(R) 16 program.  It is based on
 the Gaussian(R) 09 system (copyright 2009, Gaussian, Inc.),
 the Gaussian(R) 03 system (copyright 2003, Gaussian, Inc.),
 the Gaussian(R) 98 system (copyright 1998, Gaussian, Inc.),
 the Gaussian(R) 94 system (copyright 1995, Gaussian, Inc.),
 the Gaussian 92(TM) system (copyright 1992, Gaussian, Inc.),
 the Gaussian 90(TM) system (copyright 1990, Gaussian, Inc.),
 the Gaussian 88(TM) system (copyright 1988, Gaussian, Inc.),
 the Gaussian 86(TM) system (copyright 1986, Carnegie Mellon
 University), and the Gaussian 82(TM) system (copyright 1983,
 Carnegie Mellon University). Gaussian is a federally registered
 trademark of Gaussian, Inc.
  
 This software contains proprietary and confidential information,
 including trade secrets, belonging to Gaussian, Inc.
  
 This software is provided under written license and may be
 used, copied, transmitted, or stored only in accord with that
 written license.
  
 The following legend is applicable only to US Government
 contracts under FAR:
  
                    RESTRICTED RIGHTS LEGEND
  
 Use, reproduction and disclosure by the US Government is
 subject to restrictions as set forth in subparagraphs (a)
 and (c) of the Commercial Computer Software - Restricted
 Rights clause in FAR 52.227-19.
  
 Gaussian, Inc.
 340 Quinnipiac St., Bldg. 40, Wallingford CT 06492
  
  
 ---------------------------------------------------------------
 Warning -- This program may not be used in any manner that
 competes with the business of Gaussian, Inc. or will provide
 assistance to any competitor of Gaussian, Inc.  The licensee
 of this program is prohibited from giving any competitor of
 Gaussian, Inc. access to this program.  By using this program,
 the user acknowledges that Gaussian, Inc. is engaged in the
 business of creating and licensing software in the field of
 computational chemistry and represents and warrants to the
 licensee that it is not a competitor of Gaussian, Inc. and that
 it will not use this program in any manner prohibited above.
 ---------------------------------------------------------------
  

 Cite this work as:
 Gaussian 16, Revision A.03,
 M. J. Frisch, G. W. Trucks, H. B. Schlegel, G. E. Scuseria, 
 M. A. Robb, J. R. Cheeseman, G. Scalmani, V. Barone, 
 G. A. Petersson, H. Nakatsuji, X. Li, M. Caricato, A. V. Marenich, 
 J. Bloino, B. G. Janesko, R. Gomperts, B. Mennucci, H. P. Hratchian, 
 J. V. Ortiz, A. F. Izmaylov, J. L. Sonnenberg, D. Williams-Young, 
 F. Ding, F. Lipparini, F. Egidi, J. Goings, B. Peng, A. Petrone, 
 T. Henderson, D. Ranasinghe, V. G. Zakrzewski, J. Gao, N. Rega, 
 G. Zheng, W. Liang, M. Hada, M. Ehara, K. Toyota, R. Fukuda, 
 J. Hasegawa, M. Ishida, T. Nakajima, Y. Honda, O. Kitao, H. Nakai, 
 T. Vreven, K. Throssell, J. A. Montgomery, Jr., J. E. Peralta, 
 F. Ogliaro, M. J. Bearpark, J. J. Heyd, E. N. Brothers, K. N. Kudin, 
 V. N. Staroverov, T. A. Keith, R. Kobayashi, J. Normand, 
 K. Raghavachari, A. P. Rendell, J. C. Burant, S. S. Iyengar, 
 J. Tomasi, M. Cossi, J. M. Millam, M. Klene, C. Adamo, R. Cammi, 
 J. W. Ochterski, R. L. Martin, K. Morokuma, O. Farkas, 
 J. B. Foresman, and D. J. Fox, Gaussian, Inc., Wallingford CT, 2016.
 
 ******************************************
 Gaussian 16:  EM64L-G16RevA.03 25-Dec-2016
                24-Jan-2018 
 ******************************************
 %nprocshared=32
 Will use up to   32 processors via shared memory.
 %mem=32GB
 %chk=allatoms_t.chk
 ---------------------------------------
 #p wb97xd/cc-pvdz sp scf=(maxcycles=20)
 ---------------------------------------
 1/38=1,172=1/1;
 2/12=2,17=6,18=5,40=1/2;
 3/5=16,11=2,25=1,30=1,74=-58/1,2,3;
 4//1;
 5/5=2,7=20,38=5/2;
 6/7=2,8=2,9=2,10=2,28=1/1;
 99/5=1,9=1/99;
 Leave Link    1 at Wed Jan 24 09:29:05 2018, MaxMem=  4294967296 cpu:               2.7 elap:               0.1
 (Enter /share/apps/g16/l101.exe)
 ------------------
 Base pair stacking
 ------------------
 Symbolic Z-matrix:
 Charge =  0 Multiplicity = 1
 N                     8.62796   2.68142  -6.47105 
 C                     9.88639   3.44551  -6.57363 
 C                     6.50156   2.12719  -6.37851 
 N                     7.21648   0.94421  -6.25948 
 C                     8.46895   1.32546  -6.32 
 H                     9.32529   0.65322  -6.25909 
 N                     4.7423    3.69143  -6.52372 
 C                     5.68783   4.62945  -6.6407 
 H                     5.3205    5.64926  -6.74702 
 N                     7.01276   4.49746  -6.64603 
 C                     7.35799   3.20648  -6.50964 
 C                     5.12196   2.40205  -6.38803 
 N                     4.17958   1.46427  -6.27112 
 H                     4.4148    0.49712  -6.1686 
 H                     3.20687   1.69634  -6.28203 
 H                     10.40587   3.12977  -7.36775 
 H                     9.67931   4.41789  -6.67715 
 H                     10.43035   3.30858  -5.74576 
 N                     3.60209   5.90817  -3.26456 
 C                     2.38706   5.26649  -3.26328 
 C                     3.79597   7.36891  -3.36129 
 N                    -1.08102   5.39233  -3.39872 
 H                    -1.84383   4.74655  -3.38065 
 H                    -1.31007   6.36304  -3.47605 
 N                     1.1759    5.85785  -3.34948 
 C                     0.19217   4.97627  -3.32272 
 N                     0.37819   3.61897  -3.21948 
 H                    -0.43285   3.0198   -3.20649 
 C                     1.61527   2.98857  -3.12957 
 O                     1.67322   1.75596  -3.03986 
 C                     2.68178   3.92275  -3.15705 
 N                     4.05423   3.7248   -3.09292 
 C                     4.55792   4.9273   -3.16 
 H                     5.62393   5.15616  -3.13738 
 H                     4.33507   7.58208  -4.17537 
 H                     2.9056    7.81763  -3.42565 
 H                     4.27574   7.69769  -2.54855 
 H                    -4.83084   0.54869  -3.84208 
 H                    -4.77251   0.41907  -2.08582 
 H                    -4.07058   1.8237   -2.88935 
 H                    -1.65944  -3.03242  -3.32784 
 C                    -1.69747  -1.94607  -3.2464 
 O                     0.65845  -1.67522  -3.30466 
 C                    -0.4753   -1.2018   -3.23206 
 H                     0.20499   0.72465  -3.11248 
 N                    -0.63604   0.16499  -3.12585 
 O                    -1.86047   2.06897  -2.94466 
 C                    -1.81919   0.85461  -3.03565 
 H                    -3.8244   -1.82124  -3.16654 
 C                    -2.86709  -1.30177  -3.16 
 C                    -4.2416    0.75995  -2.96218 
 N                    -2.95356   0.06721  -3.05609 
 H                    -2.78322   6.12756  -6.86174 
 H                    -1.47874   6.32163  -5.90113 
 H                    -2.93101   5.9706   -5.24405 
 H                     0.93817  -0.26933  -6.31721 
 H                    -0.75984  -0.19845  -6.46493 
 N                     0.10668   0.28589  -6.33931 
 C                     0.15033   1.61323  -6.20724 
 C                    -0.78382   3.79801  -6.08142 
 N                     0.39411   4.42161  -5.91402 
 H                     2.3871    3.9636   -5.77681 
 C                     1.3922    3.54032  -5.90822 
 N                     1.35052   2.21051  -6.04035 
 H                    -3.98766   3.50595  -6.40123 
 C                    -2.91385   3.33488  -6.32 
 N                    -2.33996   2.15821  -6.38132 
 C                    -0.98932   2.43757  -6.23142 
 C                    -2.32993   5.81312  -6.02768 
 N                    -2.03162   4.37212  -6.1396 
 
 ITRead=  0  0  0  0  0  0  0  0  0  0  0  0  0  0  0  0  0  0  0  0
 ITRead=  0  0  0  0  0  0  0  0  0  0  0  0  0  0  0  0  0  0  0  0
 ITRead=  0  0  0  0  0  0  0  0  0  0  0  0  0  0  0  0  0  0  0  0
 ITRead=  0  0  0  0  0  0  0  0  0  0
 MicOpt= -1 -1 -1 -1 -1 -1 -1 -1 -1 -1 -1 -1 -1 -1 -1 -1 -1 -1 -1 -1
 MicOpt= -1 -1 -1 -1 -1 -1 -1 -1 -1 -1 -1 -1 -1 -1 -1 -1 -1 -1 -1 -1
 MicOpt= -1 -1 -1 -1 -1 -1 -1 -1 -1 -1 -1 -1 -1 -1 -1 -1 -1 -1 -1 -1
 MicOpt= -1 -1 -1 -1 -1 -1 -1 -1 -1 -1
 NAtoms=     70 NQM=       70 NQMF=       0 NMMI=      0 NMMIF=      0
                NMic=       0 NMicF=      0.
                    Isotopes and Nuclear Properties:
 (Nuclear quadrupole moments (NQMom) in fm**2, nuclear magnetic moments (NMagM)
  in nuclear magnetons)

  Atom         1           2           3           4           5           6           7           8           9          10
 IAtWgt=          14          12          12          14          12           1          14          12           1          14
 AtmWgt=  14.0030740  12.0000000  12.0000000  14.0030740  12.0000000   1.0078250  14.0030740  12.0000000   1.0078250  14.0030740
 NucSpn=           2           0           0           2           0           1           2           0           1           2
 AtZEff=  -0.0000000  -0.0000000  -0.0000000  -0.0000000  -0.0000000  -0.0000000  -0.0000000  -0.0000000  -0.0000000  -0.0000000
 NQMom=    2.0440000   0.0000000   0.0000000   2.0440000   0.0000000   0.0000000   2.0440000   0.0000000   0.0000000   2.0440000
 NMagM=    0.4037610   0.0000000   0.0000000   0.4037610   0.0000000   2.7928460   0.4037610   0.0000000   2.7928460   0.4037610
 AtZNuc=   7.0000000   6.0000000   6.0000000   7.0000000   6.0000000   1.0000000   7.0000000   6.0000000   1.0000000   7.0000000

  Atom        11          12          13          14          15          16          17          18          19          20
 IAtWgt=          12          12          14           1           1           1           1           1          14          12
 AtmWgt=  12.0000000  12.0000000  14.0030740   1.0078250   1.0078250   1.0078250   1.0078250   1.0078250  14.0030740  12.0000000
 NucSpn=           0           0           2           1           1           1           1           1           2           0
 AtZEff=  -0.0000000  -0.0000000  -0.0000000  -0.0000000  -0.0000000  -0.0000000  -0.0000000  -0.0000000  -0.0000000  -0.0000000
 NQMom=    0.0000000   0.0000000   2.0440000   0.0000000   0.0000000   0.0000000   0.0000000   0.0000000   2.0440000   0.0000000
 NMagM=    0.0000000   0.0000000   0.4037610   2.7928460   2.7928460   2.7928460   2.7928460   2.7928460   0.4037610   0.0000000
 AtZNuc=   6.0000000   6.0000000   7.0000000   1.0000000   1.0000000   1.0000000   1.0000000   1.0000000   7.0000000   6.0000000

  Atom        21          22          23          24          25          26          27          28          29          30
 IAtWgt=          12          14           1           1          14          12          14           1          12          16
 AtmWgt=  12.0000000  14.0030740   1.0078250   1.0078250  14.0030740  12.0000000  14.0030740   1.0078250  12.0000000  15.9949146
 NucSpn=           0           2           1           1           2           0           2           1           0           0
 AtZEff=  -0.0000000  -0.0000000  -0.0000000  -0.0000000  -0.0000000  -0.0000000  -0.0000000  -0.0000000  -0.0000000  -0.0000000
 NQMom=    0.0000000   2.0440000   0.0000000   0.0000000   2.0440000   0.0000000   2.0440000   0.0000000   0.0000000   0.0000000
 NMagM=    0.0000000   0.4037610   2.7928460   2.7928460   0.4037610   0.0000000   0.4037610   2.7928460   0.0000000   0.0000000
 AtZNuc=   6.0000000   7.0000000   1.0000000   1.0000000   7.0000000   6.0000000   7.0000000   1.0000000   6.0000000   8.0000000

  Atom        31          32          33          34          35          36          37          38          39          40
 IAtWgt=          12          14          12           1           1           1           1           1           1           1
 AtmWgt=  12.0000000  14.0030740  12.0000000   1.0078250   1.0078250   1.0078250   1.0078250   1.0078250   1.0078250   1.0078250
 NucSpn=           0           2           0           1           1           1           1           1           1           1
 AtZEff=  -0.0000000  -0.0000000  -0.0000000  -0.0000000  -0.0000000  -0.0000000  -0.0000000  -0.0000000  -0.0000000  -0.0000000
 NQMom=    0.0000000   2.0440000   0.0000000   0.0000000   0.0000000   0.0000000   0.0000000   0.0000000   0.0000000   0.0000000
 NMagM=    0.0000000   0.4037610   0.0000000   2.7928460   2.7928460   2.7928460   2.7928460   2.7928460   2.7928460   2.7928460
 AtZNuc=   6.0000000   7.0000000   6.0000000   1.0000000   1.0000000   1.0000000   1.0000000   1.0000000   1.0000000   1.0000000

  Atom        41          42          43          44          45          46          47          48          49          50
 IAtWgt=           1          12          16          12           1          14          16          12           1          12
 AtmWgt=   1.0078250  12.0000000  15.9949146  12.0000000   1.0078250  14.0030740  15.9949146  12.0000000   1.0078250  12.0000000
 NucSpn=           1           0           0           0           1           2           0           0           1           0
 AtZEff=  -0.0000000  -0.0000000  -0.0000000  -0.0000000  -0.0000000  -0.0000000  -0.0000000  -0.0000000  -0.0000000  -0.0000000
 NQMom=    0.0000000   0.0000000   0.0000000   0.0000000   0.0000000   2.0440000   0.0000000   0.0000000   0.0000000   0.0000000
 NMagM=    2.7928460   0.0000000   0.0000000   0.0000000   2.7928460   0.4037610   0.0000000   0.0000000   2.7928460   0.0000000
 AtZNuc=   1.0000000   6.0000000   8.0000000   6.0000000   1.0000000   7.0000000   8.0000000   6.0000000   1.0000000   6.0000000

  Atom        51          52          53          54          55          56          57          58          59          60
 IAtWgt=          12          14           1           1           1           1           1          14          12          12
 AtmWgt=  12.0000000  14.0030740   1.0078250   1.0078250   1.0078250   1.0078250   1.0078250  14.0030740  12.0000000  12.0000000
 NucSpn=           0           2           1           1           1           1           1           2           0           0
 AtZEff=  -0.0000000  -0.0000000  -0.0000000  -0.0000000  -0.0000000  -0.0000000  -0.0000000  -0.0000000  -0.0000000  -0.0000000
 NQMom=    0.0000000   2.0440000   0.0000000   0.0000000   0.0000000   0.0000000   0.0000000   2.0440000   0.0000000   0.0000000
 NMagM=    0.0000000   0.4037610   2.7928460   2.7928460   2.7928460   2.7928460   2.7928460   0.4037610   0.0000000   0.0000000
 AtZNuc=   6.0000000   7.0000000   1.0000000   1.0000000   1.0000000   1.0000000   1.0000000   7.0000000   6.0000000   6.0000000

  Atom        61          62          63          64          65          66          67          68          69          70
 IAtWgt=          14           1          12          14           1          12          14          12          12          14
 AtmWgt=  14.0030740   1.0078250  12.0000000  14.0030740   1.0078250  12.0000000  14.0030740  12.0000000  12.0000000  14.0030740
 NucSpn=           2           1           0           2           1           0           2           0           0           2
 AtZEff=  -0.0000000  -0.0000000  -0.0000000  -0.0000000  -0.0000000  -0.0000000  -0.0000000  -0.0000000  -0.0000000  -0.0000000
 NQMom=    2.0440000   0.0000000   0.0000000   2.0440000   0.0000000   0.0000000   2.0440000   0.0000000   0.0000000   2.0440000
 NMagM=    0.4037610   2.7928460   0.0000000   0.4037610   2.7928460   0.0000000   0.4037610   0.0000000   0.0000000   0.4037610
 AtZNuc=   7.0000000   1.0000000   6.0000000   7.0000000   1.0000000   6.0000000   7.0000000   6.0000000   6.0000000   7.0000000
 Leave Link  101 at Wed Jan 24 09:29:06 2018, MaxMem=  4294967296 cpu:               7.5 elap:               0.3
 (Enter /share/apps/g16/l202.exe)
 Stoichiometry    C23H27N17O3
 Framework group  C1[X(C23H27N17O3)]
 Deg. of freedom   204
 Full point group                 C1      NOp   1
 Largest Abelian subgroup         C1      NOp   1
 Largest concise Abelian subgroup C1      NOp   1
                         Standard orientation:                         
 ---------------------------------------------------------------------
 Center     Atomic      Atomic             Coordinates (Angstroms)
 Number     Number       Type             X           Y           Z
 ---------------------------------------------------------------------
      1          7           0       -6.944682   -1.543116    0.253084
      2          6           0       -8.328478   -1.050292    0.110822
      3          6           0       -4.774031   -1.659924    0.587657
      4          7           0       -5.192414   -2.951049    0.300131
      5          6           0       -6.483413   -2.829003    0.110074
      6          1           0       -7.153931   -3.651950   -0.139122
      7          7           0       -3.438182    0.208720    1.123012
      8          6           0       -4.560669    0.932579    1.062644
      9          1           0       -4.439395    1.996245    1.263029
     10          7           0       -5.804619    0.541604    0.793168
     11          6           0       -5.842972   -0.781142    0.562327
     12          6           0       -3.510006   -1.119299    0.885821
     13          7           0       -2.390602   -1.843549    0.945615
     14          1           0       -2.396824   -2.829854    0.777150
     15          1           0       -1.508085   -1.425185    1.160734
     16          1           0       -8.917725   -1.510927    0.774735
     17          1           0       -8.350504   -0.064486    0.274597
     18          1           0       -8.658816   -1.240342   -0.813715
     19          7           0       -2.160138    2.804449   -1.786445
     20          6           0       -0.863078    2.416546   -1.551457
     21          6           0       -2.665713    4.189332   -1.701592
     22          7           0        2.408848    3.215791   -0.704421
     23          1           0        3.276561    2.735659   -0.578777
     24          1           0        2.413380    4.205922   -0.561797
     25          7           0        0.159241    3.228829   -1.206339
     26          6           0        1.288975    2.562141   -1.048691
     27          7           0        1.410369    1.203880   -1.215775
     28          1           0        2.313720    0.778556   -1.074302
     29          6           0        0.371969    0.348516   -1.570646
     30          8           0        0.587800   -0.863312   -1.695639
     31          6           0       -0.848086    1.050283   -1.743501
     32          7           0       -2.110342    0.589698   -2.092053
     33          6           0       -2.853907    1.662615   -2.105114
     34          1           0       -3.918437    1.677521   -2.341376
     35          1           0       -3.386570    4.241057   -1.011312
     36          1           0       -1.917242    4.800097   -1.446626
     37          1           0       -3.033361    4.466650   -2.588582
     38          1           0        6.913203   -0.810415    0.399675
     39          1           0        7.229575   -0.839952   -1.333441
     40          1           0        6.109448    0.345975   -0.662437
     41          1           0        4.711469   -4.908165   -0.828080
     42          6           0        4.540329   -3.832763   -0.877648
     43          8           0        2.214740   -4.036383   -1.298699
     44          6           0        3.218381   -3.344931   -1.127278
     45          1           0        2.193238   -1.587018   -1.344367
     46          7           0        3.112017   -1.969401   -1.170134
     47          8           0        3.929477    0.146290   -1.056969
     48          6           0        4.121973   -1.055586   -1.001353
     49          1           0        6.569212   -3.285881   -0.516612
     50          6           0        5.545896   -2.966193   -0.708857
     51          6           0        6.478024   -0.665521   -0.577916
     52          7           0        5.367434   -1.603322   -0.764663
     53          1           0        3.207754    4.056573    3.048630
     54          1           0        2.106371    4.048477    1.844888
     55          1           0        3.700071    4.032387    1.492854
     56          1           0        1.064381   -2.902727    1.620500
     57          1           0        2.648424   -2.507384    2.115064
     58          7           0        1.742804   -2.196770    1.824216
     59          6           0        1.453722   -0.898576    1.713290
     60          6           0        1.924224    1.431117    1.826813
     61          7           0        0.699643    1.819103    1.434018
     62          1           0       -1.089545    0.986131    0.881233
     63          6           0       -0.074569    0.760236    1.205354
     64          7           0        0.213121   -0.540767    1.315884
     65          1           0        4.992593    1.757926    2.791426
     66          6           0        4.014444    1.383644    2.487999
     67          7           0        3.694462    0.115356    2.406024
     68          6           0        2.371739    0.131374    1.987828
     69          6           0        3.002089    3.711132    2.133003
     70          7           0        2.990731    2.235491    2.151681
 ---------------------------------------------------------------------
 Rotational constants (GHZ):           0.1322700           0.0528069           0.0456468
 Leave Link  202 at Wed Jan 24 09:29:06 2018, MaxMem=  4294967296 cpu:               0.3 elap:               0.0
 (Enter /share/apps/g16/l301.exe)
 Standard basis: CC-pVDZ (5D, 7F)
 Ernie: Thresh=  0.10000D-02 Tol=  0.10000D-05 Strict=F.
 Ernie:  86 primitive shells out of 1081 were deleted.
 There are   780 symmetry adapted cartesian basis functions of A   symmetry.
 There are   737 symmetry adapted basis functions of A   symmetry.
   737 basis functions,  1608 primitive gaussians,   780 cartesian basis functions
   154 alpha electrons      154 beta electrons
       nuclear repulsion energy      5439.2867568530 Hartrees.
 IExCor= 4639 DFT=T Ex+Corr=wB97XD ExCW=0 ScaHFX=  1.000000
 ScaDFX=  1.000000  1.000000  1.000000  1.000000 ScalE2=  1.000000  1.000000
 IRadAn=      5 IRanWt=     -1 IRanGd=            0 ICorTp=0 IEmpDi=121
 HFx  wShort=  0.000000 wLong=  0.200000 cFull=  0.222036 cShort=  0.000000 cLong=  0.777964
 DFx  wShort=  0.000000 wLong=  0.200000 cFull=  0.000000 cShort=  0.000000 cLong=  1.000000
 NAtoms=   70 NActive=   70 NUniq=   70 SFac= 1.00D+00 NAtFMM=   60 NAOKFM=T Big=T
 Integral buffers will be    131072 words long.
 Raffenetti 2 integral format.
 Two-electron integral symmetry is turned on.
 R6Disp:  Grimme-D2 Dispersion energy=       -0.0686796766 Hartrees.
 Nuclear repulsion after empirical dispersion term =     5439.2180771765 Hartrees.
 Leave Link  301 at Wed Jan 24 09:29:06 2018, MaxMem=  4294967296 cpu:               2.1 elap:               0.1
 (Enter /share/apps/g16/l302.exe)
 NPDir=0 NMtPBC=     1 NCelOv=     1 NCel=       1 NClECP=     1 NCelD=      1
         NCelK=      1 NCelE2=     1 NClLst=     1 CellRange=     0.0.
 One-electron integrals computed using PRISM.
 One-electron integral symmetry used in STVInt
 NBasis=   737 RedAO= T EigKep=  7.06D-04  NBF=   737
 NBsUse=   737 1.00D-06 EigRej= -1.00D+00 NBFU=   737
 Precomputing XC quadrature grid using
 IXCGrd= 4 IRadAn=           5 IRanWt=          -1 IRanGd=           0 AccXCQ= 0.00D+00.
 Generated NRdTot=       0 NPtTot=           0 NUsed=           0 NTot=          32
 NSgBfM=   764   764   764   764   764 MxSgAt=    70 MxSgA2=    70.
 Leave Link  302 at Wed Jan 24 09:29:10 2018, MaxMem=  4294967296 cpu:             133.7 elap:               4.2
 (Enter /share/apps/g16/l303.exe)
 DipDrv:  MaxL=1.
 Leave Link  303 at Wed Jan 24 09:29:10 2018, MaxMem=  4294967296 cpu:              12.3 elap:               0.4
 (Enter /share/apps/g16/l401.exe)
 ExpMin= 1.22D-01 ExpMax= 1.17D+04 ExpMxC= 4.01D+02 IAcc=3 IRadAn=         5 AccDes= 0.00D+00
 Harris functional with IExCor= 4639 and IRadAn=       5 diagonalized for initial guess.
 HarFok:  IExCor= 4639 AccDes= 0.00D+00 IRadAn=         5 IDoV= 1 UseB2=F ITyADJ=14
 ICtDFT=  3500011 ScaDFX=  1.000000  1.000000  1.000000  1.000000
 FoFCou: FMM=F IPFlag=           0 FMFlag=      100000 FMFlg1=        2001
         NFxFlg=           0 DoJE=T BraDBF=F KetDBF=T FulRan=T
         wScrn=  0.000000 ICntrl=       500 IOpCl=  0 I1Cent=   200000004 NGrid=           0
         NMat0=    1 NMatS0=      1 NMatT0=    0 NMatD0=    1 NMtDS0=    0 NMtDT0=    0
 Petite list used in FoFCou.
 Harris En= -1963.87029327610    
 JPrj=0 DoOrth=F DoCkMO=F.
 Leave Link  401 at Wed Jan 24 09:29:23 2018, MaxMem=  4294967296 cpu:             391.5 elap:              12.3
 (Enter /share/apps/g16/l502.exe)
 Integral symmetry usage will be decided dynamically.
 Closed shell SCF:
 Using DIIS extrapolation, IDIIS=  1040.
 NGot=  4294967296 LenX=  4293717438 LenY=  4293108258
 Requested convergence on RMS density matrix=1.00D-08 within  20 cycles.
 Requested convergence on MAX density matrix=1.00D-06.
 Requested convergence on             energy=1.00D-06.
 No special actions if energy rises.
 Fock matrices will be formed incrementally for  20 cycles.
 Integral accuracy reduced to 1.0D-05 until final iterations.

 Cycle   1  Pass 0  IDiag  1:
 FoFJK:  IHMeth= 1 ICntrl=       0 DoSepK=T KAlg= 0 I1Cent=           0 FoldK=F
 IRaf=         1 NMat=       1 IRICut=       1 DoRegI=T DoRafI=F ISym2E= 0 IDoP0=0 IntGTp=1.
 FoFCou: FMM=T IPFlag=           0 FMFlag=      100000 FMFlg1=        2001
         NFxFlg=           0 DoJE=T BraDBF=F KetDBF=F FulRan=T
         wScrn=  0.000000 ICntrl=       500 IOpCl=  0 I1Cent=           0 NGrid=           0
         NMat0=    1 NMatS0=      1 NMatT0=    0 NMatD0=    1 NMtDS0=    0 NMtDT0=    0
 Symmetry not used in FoFCou.
 FMM levels:  10  Number of levels for PrismC:   9
 E= -2048.29979858920    
 DIIS: error= 2.36D-02 at cycle   1 NSaved=   1.
 NSaved= 1 IEnMin= 1 EnMin= -2048.29979858920     IErMin= 1 ErrMin= 2.36D-02
 ErrMax= 2.36D-02  0.00D+00 EMaxC= 1.00D-01 BMatC= 8.32D-01 BMatP= 8.32D-01
 IDIUse=3 WtCom= 7.64D-01 WtEn= 2.36D-01
 Coeff-Com:  0.100D+01
 Coeff-En:   0.100D+01
 Coeff:      0.100D+01
 Gap=     0.255 Goal=   None    Shift=    0.000
 GapD=    0.255 DampG=1.000 DampE=0.500 DampFc=0.5000 IDamp=-1.
 Damping current iteration by 5.00D-01
 RMSDP=1.58D-03 MaxDP=1.30D-01              OVMax= 2.07D-01

 Cycle   2  Pass 0  IDiag  1:
 RMSU=  7.88D-04    CP:  9.98D-01
 E= -2048.49776470025     Delta-E=       -0.197966111048 Rises=F Damp=T
 DIIS: error= 1.30D-02 at cycle   2 NSaved=   2.
 NSaved= 2 IEnMin= 2 EnMin= -2048.49776470025     IErMin= 2 ErrMin= 1.30D-02
 ErrMax= 1.30D-02  0.00D+00 EMaxC= 1.00D-01 BMatC= 1.45D-01 BMatP= 8.32D-01
 IDIUse=3 WtCom= 8.70D-01 WtEn= 1.30D-01
 Coeff-Com: -0.197D+00 0.120D+01
 Coeff-En:   0.000D+00 0.100D+01
 Coeff:     -0.171D+00 0.117D+01
 Gap=     0.367 Goal=   None    Shift=    0.000
 RMSDP=5.87D-04 MaxDP=3.38D-02 DE=-1.98D-01 OVMax= 1.52D-01

 Cycle   3  Pass 0  IDiag  1:
 RMSU=  5.75D-04    CP:  9.94D-01  1.14D+00
 E= -2048.67925798164     Delta-E=       -0.181493281396 Rises=F Damp=F
 DIIS: error= 6.65D-03 at cycle   3 NSaved=   3.
 NSaved= 3 IEnMin= 3 EnMin= -2048.67925798164     IErMin= 3 ErrMin= 6.65D-03
 ErrMax= 6.65D-03  0.00D+00 EMaxC= 1.00D-01 BMatC= 6.14D-02 BMatP= 1.45D-01
 IDIUse=3 WtCom= 9.34D-01 WtEn= 6.65D-02
 Coeff-Com: -0.230D+00 0.544D+00 0.686D+00
 Coeff-En:   0.000D+00 0.000D+00 0.100D+01
 Coeff:     -0.215D+00 0.508D+00 0.707D+00
 Gap=     0.280 Goal=   None    Shift=    0.000
 RMSDP=3.48D-04 MaxDP=3.30D-02 DE=-1.81D-01 OVMax= 6.67D-02

 Cycle   4  Pass 0  IDiag  1:
 RMSU=  2.01D-04    CP:  9.94D-01  1.41D+00  6.83D-01
 E= -2048.72611213476     Delta-E=       -0.046854153112 Rises=F Damp=F
 DIIS: error= 2.72D-03 at cycle   4 NSaved=   4.
 NSaved= 4 IEnMin= 4 EnMin= -2048.72611213476     IErMin= 4 ErrMin= 2.72D-03
 ErrMax= 2.72D-03  0.00D+00 EMaxC= 1.00D-01 BMatC= 8.52D-03 BMatP= 6.14D-02
 IDIUse=3 WtCom= 9.73D-01 WtEn= 2.72D-02
 Coeff-Com: -0.965D-01 0.187D+00 0.377D+00 0.533D+00
 Coeff-En:   0.000D+00 0.000D+00 0.517D-01 0.948D+00
 Coeff:     -0.938D-01 0.182D+00 0.368D+00 0.544D+00
 Gap=     0.284 Goal=   None    Shift=    0.000
 RMSDP=1.24D-04 MaxDP=1.18D-02 DE=-4.69D-02 OVMax= 1.26D-02

 Cycle   5  Pass 0  IDiag  1:
 RMSU=  6.16D-05    CP:  9.94D-01  1.39D+00  8.10D-01  6.17D-01
 E= -2048.73312266495     Delta-E=       -0.007010530196 Rises=F Damp=F
 DIIS: error= 6.17D-04 at cycle   5 NSaved=   5.
 NSaved= 5 IEnMin= 5 EnMin= -2048.73312266495     IErMin= 5 ErrMin= 6.17D-04
 ErrMax= 6.17D-04  0.00D+00 EMaxC= 1.00D-01 BMatC= 3.02D-04 BMatP= 8.52D-03
 IDIUse=3 WtCom= 9.94D-01 WtEn= 6.17D-03
 Coeff-Com: -0.255D-01 0.440D-01 0.122D+00 0.244D+00 0.615D+00
 Coeff-En:   0.000D+00 0.000D+00 0.000D+00 0.000D+00 0.100D+01
 Coeff:     -0.254D-01 0.437D-01 0.121D+00 0.243D+00 0.618D+00
 Gap=     0.284 Goal=   None    Shift=    0.000
 RMSDP=2.65D-05 MaxDP=1.97D-03 DE=-7.01D-03 OVMax= 3.33D-03

 Failed to achieve initial convergence to 1.0D-08 in  6 cycles.
 Switch to full accuracy anyway.
 Cycle   6  Pass 1  IDiag  1:
 E= -2048.73354086619     Delta-E=       -0.000418201243 Rises=F Damp=F
 DIIS: error= 2.06D-04 at cycle   1 NSaved=   1.
 NSaved= 1 IEnMin= 1 EnMin= -2048.73354086619     IErMin= 1 ErrMin= 2.06D-04
 ErrMax= 2.06D-04  0.00D+00 EMaxC= 1.00D-01 BMatC= 7.03D-05 BMatP= 7.03D-05
 IDIUse=3 WtCom= 9.98D-01 WtEn= 2.06D-03
 Coeff-Com:  0.100D+01
 Coeff-En:   0.100D+01
 Coeff:      0.100D+01
 Gap=     0.284 Goal=   None    Shift=    0.000
 RMSDP=2.65D-05 MaxDP=1.97D-03 DE=-4.18D-04 OVMax= 2.58D-03

 Cycle   7  Pass 1  IDiag  1:
 RMSU=  1.04D-04    CP:  1.00D+00
 E= -2048.73359202946     Delta-E=       -0.000051163262 Rises=F Damp=F
 DIIS: error= 2.57D-04 at cycle   2 NSaved=   2.
 NSaved= 2 IEnMin= 2 EnMin= -2048.73359202946     IErMin= 1 ErrMin= 2.06D-04
 ErrMax= 2.57D-04  0.00D+00 EMaxC= 1.00D-01 BMatC= 4.24D-05 BMatP= 7.03D-05
 IDIUse=3 WtCom= 9.97D-01 WtEn= 2.57D-03
 Coeff-Com:  0.416D+00 0.584D+00
 Coeff-En:   0.000D+00 0.100D+01
 Coeff:      0.414D+00 0.586D+00
 Gap=     0.284 Goal=   None    Shift=    0.000
 RMSDP=1.11D-05 MaxDP=1.07D-03 DE=-5.12D-05 OVMax= 1.47D-03

 Cycle   8  Pass 1  IDiag  1:
 RMSU=  1.09D-05    CP:  1.00D+00  1.02D+00
 E= -2048.73362308460     Delta-E=       -0.000031055146 Rises=F Damp=F
 DIIS: error= 1.03D-04 at cycle   3 NSaved=   3.
 NSaved= 3 IEnMin= 3 EnMin= -2048.73362308460     IErMin= 3 ErrMin= 1.03D-04
 ErrMax= 1.03D-04  0.00D+00 EMaxC= 1.00D-01 BMatC= 9.36D-06 BMatP= 4.24D-05
 IDIUse=3 WtCom= 9.99D-01 WtEn= 1.03D-03
 Coeff-Com: -0.195D-01 0.305D+00 0.714D+00
 Coeff-En:   0.000D+00 0.120D+00 0.880D+00
 Coeff:     -0.195D-01 0.305D+00 0.715D+00
 Gap=     0.284 Goal=   None    Shift=    0.000
 RMSDP=5.47D-06 MaxDP=4.38D-04 DE=-3.11D-05 OVMax= 5.41D-04

 Cycle   9  Pass 1  IDiag  1:
 RMSU=  3.80D-06    CP:  1.00D+00  1.05D+00  7.70D-01
 E= -2048.73363190746     Delta-E=       -0.000008822854 Rises=F Damp=F
 DIIS: error= 3.45D-05 at cycle   4 NSaved=   4.
 NSaved= 4 IEnMin= 4 EnMin= -2048.73363190746     IErMin= 4 ErrMin= 3.45D-05
 ErrMax= 3.45D-05  0.00D+00 EMaxC= 1.00D-01 BMatC= 4.93D-07 BMatP= 9.36D-06
 IDIUse=1 WtCom= 1.00D+00 WtEn= 0.00D+00
 Coeff-Com: -0.325D-01 0.822D-01 0.265D+00 0.685D+00
 Coeff:     -0.325D-01 0.822D-01 0.265D+00 0.685D+00
 Gap=     0.284 Goal=   None    Shift=    0.000
 RMSDP=1.42D-06 MaxDP=1.30D-04 DE=-8.82D-06 OVMax= 5.03D-04

 Cycle  10  Pass 1  IDiag  1:
 RMSU=  1.27D-06    CP:  1.00D+00  1.06D+00  8.05D-01  1.10D+00
 E= -2048.73363272894     Delta-E=       -0.000000821480 Rises=F Damp=F
 DIIS: error= 1.60D-05 at cycle   5 NSaved=   5.
 NSaved= 5 IEnMin= 5 EnMin= -2048.73363272894     IErMin= 5 ErrMin= 1.60D-05
 ErrMax= 1.60D-05  0.00D+00 EMaxC= 1.00D-01 BMatC= 1.14D-07 BMatP= 4.93D-07
 IDIUse=1 WtCom= 1.00D+00 WtEn= 0.00D+00
 Coeff-Com: -0.327D-02-0.549D-01-0.123D+00 0.199D+00 0.982D+00
 Coeff:     -0.327D-02-0.549D-01-0.123D+00 0.199D+00 0.982D+00
 Gap=     0.284 Goal=   None    Shift=    0.000
 RMSDP=1.18D-06 MaxDP=7.52D-05 DE=-8.21D-07 OVMax= 2.48D-04

 Cycle  11  Pass 1  IDiag  1:
 RMSU=  4.68D-07    CP:  1.00D+00  1.06D+00  8.14D-01  1.38D+00  1.18D+00
 E= -2048.73363297497     Delta-E=       -0.000000246034 Rises=F Damp=F
 DIIS: error= 9.22D-06 at cycle   6 NSaved=   6.
 NSaved= 6 IEnMin= 6 EnMin= -2048.73363297497     IErMin= 6 ErrMin= 9.22D-06
 ErrMax= 9.22D-06  0.00D+00 EMaxC= 1.00D-01 BMatC= 2.63D-08 BMatP= 1.14D-07
 IDIUse=1 WtCom= 1.00D+00 WtEn= 0.00D+00
 Coeff-Com:  0.463D-02-0.428D-01-0.113D+00-0.820D-03 0.519D+00 0.633D+00
 Coeff:      0.463D-02-0.428D-01-0.113D+00-0.820D-03 0.519D+00 0.633D+00
 Gap=     0.284 Goal=   None    Shift=    0.000
 RMSDP=3.43D-07 MaxDP=3.46D-05 DE=-2.46D-07 OVMax= 1.22D-04

 Cycle  12  Pass 1  IDiag  1:
 RMSU=  1.72D-07    CP:  1.00D+00  1.06D+00  8.16D-01  1.44D+00  1.30D+00
                    CP:  9.18D-01
 E= -2048.73363301245     Delta-E=       -0.000000037479 Rises=F Damp=F
 DIIS: error= 1.04D-06 at cycle   7 NSaved=   7.
 NSaved= 7 IEnMin= 7 EnMin= -2048.73363301245     IErMin= 7 ErrMin= 1.04D-06
 ErrMax= 1.04D-06  0.00D+00 EMaxC= 1.00D-01 BMatC= 6.44D-10 BMatP= 2.63D-08
 IDIUse=1 WtCom= 1.00D+00 WtEn= 0.00D+00
 Coeff-Com:  0.876D-03-0.478D-02-0.142D-01-0.769D-02 0.290D-01 0.105D+00
 Coeff-Com:  0.891D+00
 Coeff:      0.876D-03-0.478D-02-0.142D-01-0.769D-02 0.290D-01 0.105D+00
 Coeff:      0.891D+00
 Gap=     0.284 Goal=   None    Shift=    0.000
 RMSDP=8.35D-08 MaxDP=5.33D-06 DE=-3.75D-08 OVMax= 2.38D-05

 Cycle  13  Pass 1  IDiag  1:
 RMSU=  4.72D-08    CP:  1.00D+00  1.06D+00  8.15D-01  1.45D+00  1.32D+00
                    CP:  1.01D+00  1.17D+00
 E= -2048.73363301402     Delta-E=       -0.000000001573 Rises=F Damp=F
 DIIS: error= 5.06D-07 at cycle   8 NSaved=   8.
 NSaved= 8 IEnMin= 8 EnMin= -2048.73363301402     IErMin= 8 ErrMin= 5.06D-07
 ErrMax= 5.06D-07  0.00D+00 EMaxC= 1.00D-01 BMatC= 2.52D-10 BMatP= 6.44D-10
 IDIUse=1 WtCom= 1.00D+00 WtEn= 0.00D+00
 Coeff-Com: -0.723D-03 0.843D-02 0.212D-01-0.132D-02-0.113D+00-0.103D+00
 Coeff-Com:  0.419D+00 0.769D+00
 Coeff:     -0.723D-03 0.843D-02 0.212D-01-0.132D-02-0.113D+00-0.103D+00
 Coeff:      0.419D+00 0.769D+00
 Gap=     0.284 Goal=   None    Shift=    0.000
 RMSDP=4.09D-08 MaxDP=2.33D-06 DE=-1.57D-09 OVMax= 9.98D-06

 Cycle  14  Pass 1  IDiag  1:
 RMSU=  2.40D-08    CP:  1.00D+00  1.06D+00  8.15D-01  1.46D+00  1.32D+00
                    CP:  1.05D+00  1.31D+00  1.11D+00
 E= -2048.73363301442     Delta-E=       -0.000000000400 Rises=F Damp=F
 DIIS: error= 1.88D-07 at cycle   9 NSaved=   9.
 NSaved= 9 IEnMin= 9 EnMin= -2048.73363301442     IErMin= 9 ErrMin= 1.88D-07
 ErrMax= 1.88D-07  0.00D+00 EMaxC= 1.00D-01 BMatC= 1.99D-11 BMatP= 2.52D-10
 IDIUse=1 WtCom= 1.00D+00 WtEn= 0.00D+00
 Coeff-Com: -0.353D-03 0.358D-02 0.920D-02 0.304D-03-0.442D-01-0.483D-01
 Coeff-Com:  0.685D-01 0.267D+00 0.744D+00
 Coeff:     -0.353D-03 0.358D-02 0.920D-02 0.304D-03-0.442D-01-0.483D-01
 Coeff:      0.685D-01 0.267D+00 0.744D+00
 Gap=     0.284 Goal=   None    Shift=    0.000
 RMSDP=1.18D-08 MaxDP=7.61D-07 DE=-4.00D-10 OVMax= 3.29D-06

 Cycle  15  Pass 1  IDiag  1:
 RMSU=  7.87D-09    CP:  1.00D+00  1.06D+00  8.15D-01  1.46D+00  1.32D+00
                    CP:  1.05D+00  1.34D+00  1.24D+00  1.12D+00
 E= -2048.73363301466     Delta-E=       -0.000000000235 Rises=F Damp=F
 DIIS: error= 9.50D-08 at cycle  10 NSaved=  10.
 NSaved=10 IEnMin=10 EnMin= -2048.73363301466     IErMin=10 ErrMin= 9.50D-08
 ErrMax= 9.50D-08  0.00D+00 EMaxC= 1.00D-01 BMatC= 4.81D-12 BMatP= 1.99D-11
 IDIUse=1 WtCom= 1.00D+00 WtEn= 0.00D+00
 Coeff-Com:  0.259D-04-0.514D-03-0.120D-02 0.118D-03 0.811D-02 0.433D-02
 Coeff-Com: -0.628D-01-0.740D-01 0.307D+00 0.819D+00
 Coeff:      0.259D-04-0.514D-03-0.120D-02 0.118D-03 0.811D-02 0.433D-02
 Coeff:     -0.628D-01-0.740D-01 0.307D+00 0.819D+00
 Gap=     0.284 Goal=   None    Shift=    0.000
 RMSDP=5.99D-09 MaxDP=3.44D-07 DE=-2.35D-10 OVMax= 1.21D-06

 SCF Done:  E(RwB97XD) =  -2048.73363301     A.U. after   15 cycles
            NFock= 15  Conv=0.60D-08     -V/T= 2.0054
 KE= 2.037788724281D+03 PE=-1.565935375573D+04 EE= 6.133613321262D+03
 Leave Link  502 at Wed Jan 24 09:40:18 2018, MaxMem=  4294967296 cpu:           20305.0 elap:             655.5
 (Enter /share/apps/g16/l601.exe)
 Copying SCF densities to generalized density rwf, IOpCl= 0 IROHF=0.

 **********************************************************************

            Population analysis using the SCF density.

 **********************************************************************

 Orbital symmetries:
       Occupied  (A) (A) (A) (A) (A) (A) (A) (A) (A) (A) (A) (A)
                 (A) (A) (A) (A) (A) (A) (A) (A) (A) (A) (A) (A)
                 (A) (A) (A) (A) (A) (A) (A) (A) (A) (A) (A) (A)
                 (A) (A) (A) (A) (A) (A) (A) (A) (A) (A) (A) (A)
                 (A) (A) (A) (A) (A) (A) (A) (A) (A) (A) (A) (A)
                 (A) (A) (A) (A) (A) (A) (A) (A) (A) (A) (A) (A)
                 (A) (A) (A) (A) (A) (A) (A) (A) (A) (A) (A) (A)
                 (A) (A) (A) (A) (A) (A) (A) (A) (A) (A) (A) (A)
                 (A) (A) (A) (A) (A) (A) (A) (A) (A) (A) (A) (A)
                 (A) (A) (A) (A) (A) (A) (A) (A) (A) (A) (A) (A)
                 (A) (A) (A) (A) (A) (A) (A) (A) (A) (A) (A) (A)
                 (A) (A) (A) (A) (A) (A) (A) (A) (A) (A) (A) (A)
                 (A) (A) (A) (A) (A) (A) (A) (A) (A) (A)
       Virtual   (A) (A) (A) (A) (A) (A) (A) (A) (A) (A) (A) (A)
                 (A) (A) (A) (A) (A) (A) (A) (A) (A) (A) (A) (A)
                 (A) (A) (A) (A) (A) (A) (A) (A) (A) (A) (A) (A)
                 (A) (A) (A) (A) (A) (A) (A) (A) (A) (A) (A) (A)
                 (A) (A) (A) (A) (A) (A) (A) (A) (A) (A) (A) (A)
                 (A) (A) (A) (A) (A) (A) (A) (A) (A) (A) (A) (A)
                 (A) (A) (A) (A) (A) (A) (A) (A) (A) (A) (A) (A)
                 (A) (A) (A) (A) (A) (A) (A) (A) (A) (A) (A) (A)
                 (A) (A) (A) (A) (A) (A) (A) (A) (A) (A) (A) (A)
                 (A) (A) (A) (A) (A) (A) (A) (A) (A) (A) (A) (A)
                 (A) (A) (A) (A) (A) (A) (A) (A) (A) (A) (A) (A)
                 (A) (A) (A) (A) (A) (A) (A) (A) (A) (A) (A) (A)
                 (A) (A) (A) (A) (A) (A) (A) (A) (A) (A) (A) (A)
                 (A) (A) (A) (A) (A) (A) (A) (A) (A) (A) (A) (A)
                 (A) (A) (A) (A) (A) (A) (A) (A) (A) (A) (A) (A)
                 (A) (A) (A) (A) (A) (A) (A) (A) (A) (A) (A) (A)
                 (A) (A) (A) (A) (A) (A) (A) (A) (A) (A) (A) (A)
                 (A) (A) (A) (A) (A) (A) (A) (A) (A) (A) (A) (A)
                 (A) (A) (A) (A) (A) (A) (A) (A) (A) (A) (A) (A)
                 (A) (A) (A) (A) (A) (A) (A) (A) (A) (A) (A) (A)
                 (A) (A) (A) (A) (A) (A) (A) (A) (A) (A) (A) (A)
                 (A) (A) (A) (A) (A) (A) (A) (A) (A) (A) (A) (A)
                 (A) (A) (A) (A) (A) (A) (A) (A) (A) (A) (A) (A)
                 (A) (A) (A) (A) (A) (A) (A) (A) (A) (A) (A) (A)
                 (A) (A) (A) (A) (A) (A) (A) (A) (A) (A) (A) (A)
                 (A) (A) (A) (A) (A) (A) (A) (A) (A) (A) (A) (A)
                 (A) (A) (A) (A) (A) (A) (A) (A) (A) (A) (A) (A)
                 (A) (A) (A) (A) (A) (A) (A) (A) (A) (A) (A) (A)
                 (A) (A) (A) (A) (A) (A) (A) (A) (A) (A) (A) (A)
                 (A) (A) (A) (A) (A) (A) (A) (A) (A) (A) (A) (A)
                 (A) (A) (A) (A) (A) (A) (A) (A) (A) (A) (A) (A)
                 (A) (A) (A) (A) (A) (A) (A) (A) (A) (A) (A) (A)
                 (A) (A) (A) (A) (A) (A) (A) (A) (A) (A) (A) (A)
                 (A) (A) (A) (A) (A) (A) (A) (A) (A) (A) (A) (A)
                 (A) (A) (A) (A) (A) (A) (A) (A) (A) (A) (A) (A)
                 (A) (A) (A) (A) (A) (A) (A) (A) (A) (A) (A) (A)
                 (A) (A) (A) (A) (A) (A) (A) (A) (A) (A) (A) (A)
                 (A) (A) (A) (A) (A) (A) (A) (A) (A) (A) (A) (A)
                 (A) (A) (A) (A) (A) (A) (A) (A) (A) (A) (A) (A)
                 (A) (A) (A) (A) (A) (A) (A) (A) (A) (A) (A) (A)
                 (A) (A) (A) (A) (A) (A) (A) (A) (A) (A) (A) (A)
                 (A) (A) (A) (A) (A) (A) (A) (A) (A) (A) (A) (A)
                 (A) (A) (A) (A) (A) (A) (A) (A) (A) (A) (A) (A)
                 (A) (A) (A) (A) (A) (A) (A) (A) (A) (A) (A) (A)
                 (A) (A) (A) (A) (A) (A) (A) (A) (A) (A) (A) (A)
                 (A) (A) (A) (A) (A) (A) (A) (A) (A) (A) (A) (A)
                 (A) (A) (A) (A) (A) (A) (A) (A) (A) (A) (A) (A)
                 (A) (A) (A) (A) (A) (A) (A) (A) (A) (A) (A) (A)
                 (A) (A) (A) (A) (A) (A) (A)
 The electronic state is 1-A.
 Alpha  occ. eigenvalues --  -19.25976 -19.22236 -19.20715 -14.52576 -14.51576
 Alpha  occ. eigenvalues --  -14.48979 -14.48868 -14.48047 -14.47249 -14.46938
 Alpha  occ. eigenvalues --  -14.46876 -14.44527 -14.42977 -14.42759 -14.42333
 Alpha  occ. eigenvalues --  -14.42117 -14.41661 -14.41113 -14.40862 -14.40325
 Alpha  occ. eigenvalues --  -10.45629 -10.41453 -10.40340 -10.38708 -10.38350
 Alpha  occ. eigenvalues --  -10.37992 -10.37126 -10.35997 -10.35592 -10.35370
 Alpha  occ. eigenvalues --  -10.34470 -10.34355 -10.34316 -10.33587 -10.33432
 Alpha  occ. eigenvalues --  -10.33348 -10.33298 -10.31590 -10.31280 -10.31111
 Alpha  occ. eigenvalues --  -10.30944 -10.28762 -10.28288  -1.19554  -1.14282
 Alpha  occ. eigenvalues --   -1.13367  -1.13237  -1.11570  -1.10700  -1.09466
 Alpha  occ. eigenvalues --   -1.08856  -1.08019  -1.05165  -1.03588  -1.02676
 Alpha  occ. eigenvalues --   -1.00612  -1.00463  -0.99830  -0.98637  -0.97167
 Alpha  occ. eigenvalues --   -0.96668  -0.95591  -0.92812  -0.91225  -0.86686
 Alpha  occ. eigenvalues --   -0.85166  -0.84264  -0.84143  -0.83787  -0.82623
 Alpha  occ. eigenvalues --   -0.82505  -0.79044  -0.75975  -0.74800  -0.73999
 Alpha  occ. eigenvalues --   -0.73642  -0.73528  -0.73097  -0.71260  -0.69389
 Alpha  occ. eigenvalues --   -0.67679  -0.66715  -0.66494  -0.65738  -0.64621
 Alpha  occ. eigenvalues --   -0.63930  -0.63280  -0.62866  -0.62837  -0.62196
 Alpha  occ. eigenvalues --   -0.60396  -0.59791  -0.59691  -0.59548  -0.59288
 Alpha  occ. eigenvalues --   -0.58844  -0.58576  -0.56877  -0.56682  -0.56563
 Alpha  occ. eigenvalues --   -0.56106  -0.55575  -0.55081  -0.54559  -0.54368
 Alpha  occ. eigenvalues --   -0.53805  -0.53505  -0.53102  -0.52846  -0.52587
 Alpha  occ. eigenvalues --   -0.52324  -0.51914  -0.51849  -0.50926  -0.50371
 Alpha  occ. eigenvalues --   -0.50288  -0.49580  -0.49350  -0.48985  -0.48747
 Alpha  occ. eigenvalues --   -0.48724  -0.48403  -0.48094  -0.47791  -0.47533
 Alpha  occ. eigenvalues --   -0.47157  -0.45552  -0.45262  -0.44209  -0.43065
 Alpha  occ. eigenvalues --   -0.41372  -0.39654  -0.39510  -0.37688  -0.37384
 Alpha  occ. eigenvalues --   -0.37347  -0.36745  -0.36436  -0.35759  -0.34799
 Alpha  occ. eigenvalues --   -0.33778  -0.33663  -0.33398  -0.33243  -0.32893
 Alpha  occ. eigenvalues --   -0.32772  -0.32460  -0.32141  -0.31941  -0.31119
 Alpha  occ. eigenvalues --   -0.30542  -0.28821  -0.25972  -0.25533
 Alpha virt. eigenvalues --    0.02888   0.04895   0.07671   0.07757   0.08346
 Alpha virt. eigenvalues --    0.09395   0.09526   0.10774   0.11358   0.12246
 Alpha virt. eigenvalues --    0.12767   0.13816   0.14580   0.14660   0.14751
 Alpha virt. eigenvalues --    0.15845   0.16296   0.16756   0.17008   0.18068
 Alpha virt. eigenvalues --    0.18835   0.19336   0.19737   0.20197   0.20357
 Alpha virt. eigenvalues --    0.20700   0.20758   0.20864   0.21393   0.22285
 Alpha virt. eigenvalues --    0.22921   0.23129   0.23312   0.23595   0.23749
 Alpha virt. eigenvalues --    0.23902   0.23931   0.24313   0.25188   0.25420
 Alpha virt. eigenvalues --    0.26016   0.26599   0.27459   0.27692   0.27921
 Alpha virt. eigenvalues --    0.28905   0.29462   0.29734   0.30721   0.30839
 Alpha virt. eigenvalues --    0.31304   0.31604   0.32694   0.33358   0.33777
 Alpha virt. eigenvalues --    0.33891   0.34771   0.35295   0.35750   0.36742
 Alpha virt. eigenvalues --    0.37058   0.37720   0.38400   0.39815   0.40031
 Alpha virt. eigenvalues --    0.40195   0.40461   0.40902   0.41386   0.41685
 Alpha virt. eigenvalues --    0.42314   0.42785   0.43645   0.43990   0.44771
 Alpha virt. eigenvalues --    0.45197   0.45425   0.45978   0.46434   0.47342
 Alpha virt. eigenvalues --    0.47654   0.48039   0.48718   0.49467   0.49722
 Alpha virt. eigenvalues --    0.50059   0.50350   0.50471   0.51042   0.51490
 Alpha virt. eigenvalues --    0.51765   0.52135   0.52324   0.52458   0.53484
 Alpha virt. eigenvalues --    0.53787   0.54120   0.54303   0.55314   0.55400
 Alpha virt. eigenvalues --    0.55826   0.56522   0.56772   0.57270   0.57828
 Alpha virt. eigenvalues --    0.58017   0.58451   0.59074   0.59220   0.59507
 Alpha virt. eigenvalues --    0.59732   0.60029   0.60464   0.61034   0.61615
 Alpha virt. eigenvalues --    0.61812   0.61925   0.62422   0.62614   0.63361
 Alpha virt. eigenvalues --    0.63773   0.64278   0.64481   0.64996   0.65149
 Alpha virt. eigenvalues --    0.65565   0.66106   0.66291   0.66500   0.67353
 Alpha virt. eigenvalues --    0.67834   0.67853   0.68236   0.68633   0.68986
 Alpha virt. eigenvalues --    0.69423   0.69679   0.70255   0.70709   0.71069
 Alpha virt. eigenvalues --    0.71241   0.72099   0.72699   0.72937   0.73487
 Alpha virt. eigenvalues --    0.73846   0.74404   0.74748   0.75225   0.75284
 Alpha virt. eigenvalues --    0.75722   0.75922   0.76272   0.76514   0.76761
 Alpha virt. eigenvalues --    0.77389   0.77892   0.78030   0.78108   0.78867
 Alpha virt. eigenvalues --    0.78906   0.79695   0.79949   0.80223   0.80551
 Alpha virt. eigenvalues --    0.80990   0.81753   0.81850   0.82330   0.83293
 Alpha virt. eigenvalues --    0.83519   0.83659   0.83858   0.84534   0.84921
 Alpha virt. eigenvalues --    0.85353   0.85864   0.86005   0.87321   0.87897
 Alpha virt. eigenvalues --    0.88396   0.88538   0.88793   0.89364   0.89664
 Alpha virt. eigenvalues --    0.90165   0.90850   0.91328   0.91541   0.91745
 Alpha virt. eigenvalues --    0.92345   0.93101   0.93428   0.93962   0.94532
 Alpha virt. eigenvalues --    0.94709   0.95094   0.95316   0.96010   0.96565
 Alpha virt. eigenvalues --    0.96957   0.97152   0.97773   0.98095   0.98591
 Alpha virt. eigenvalues --    0.99170   0.99458   1.00178   1.00635   1.01576
 Alpha virt. eigenvalues --    1.02036   1.02292   1.02788   1.02953   1.03266
 Alpha virt. eigenvalues --    1.03586   1.04079   1.05033   1.05171   1.05717
 Alpha virt. eigenvalues --    1.05997   1.06310   1.07104   1.08238   1.08559
 Alpha virt. eigenvalues --    1.09101   1.09304   1.09480   1.10132   1.10731
 Alpha virt. eigenvalues --    1.11505   1.11784   1.13044   1.13410   1.13807
 Alpha virt. eigenvalues --    1.14174   1.14365   1.15173   1.15338   1.15688
 Alpha virt. eigenvalues --    1.16095   1.16820   1.17076   1.17392   1.17666
 Alpha virt. eigenvalues --    1.18350   1.18603   1.19027   1.19599   1.19933
 Alpha virt. eigenvalues --    1.20400   1.20513   1.20851   1.21292   1.21697
 Alpha virt. eigenvalues --    1.22305   1.22510   1.22753   1.22953   1.23217
 Alpha virt. eigenvalues --    1.24024   1.24307   1.24751   1.24842   1.25478
 Alpha virt. eigenvalues --    1.25869   1.26636   1.26958   1.27893   1.28257
 Alpha virt. eigenvalues --    1.28854   1.29725   1.29854   1.30499   1.31317
 Alpha virt. eigenvalues --    1.32129   1.32300   1.33558   1.34022   1.34749
 Alpha virt. eigenvalues --    1.34851   1.35896   1.36168   1.37088   1.37639
 Alpha virt. eigenvalues --    1.38290   1.38749   1.38886   1.39452   1.40678
 Alpha virt. eigenvalues --    1.42453   1.42984   1.43119   1.44371   1.44581
 Alpha virt. eigenvalues --    1.44876   1.46857   1.47551   1.47992   1.48346
 Alpha virt. eigenvalues --    1.48605   1.48955   1.49115   1.49770   1.50581
 Alpha virt. eigenvalues --    1.51102   1.51802   1.52157   1.52970   1.53600
 Alpha virt. eigenvalues --    1.54822   1.55966   1.56114   1.56377   1.57870
 Alpha virt. eigenvalues --    1.58532   1.59138   1.59223   1.60132   1.61214
 Alpha virt. eigenvalues --    1.61780   1.62208   1.62662   1.63052   1.63914
 Alpha virt. eigenvalues --    1.65260   1.65484   1.66160   1.66551   1.66930
 Alpha virt. eigenvalues --    1.67366   1.67922   1.68348   1.68524   1.69113
 Alpha virt. eigenvalues --    1.69637   1.69932   1.70120   1.70394   1.71160
 Alpha virt. eigenvalues --    1.71679   1.72171   1.72444   1.73186   1.73519
 Alpha virt. eigenvalues --    1.73754   1.74434   1.74816   1.74995   1.75237
 Alpha virt. eigenvalues --    1.75549   1.75941   1.76135   1.76555   1.77254
 Alpha virt. eigenvalues --    1.77639   1.78089   1.78344   1.78880   1.79653
 Alpha virt. eigenvalues --    1.79877   1.79991   1.80094   1.80149   1.80641
 Alpha virt. eigenvalues --    1.81089   1.81485   1.81718   1.81991   1.82528
 Alpha virt. eigenvalues --    1.82827   1.83480   1.83666   1.83819   1.84474
 Alpha virt. eigenvalues --    1.85614   1.85866   1.86516   1.86850   1.87584
 Alpha virt. eigenvalues --    1.87636   1.88054   1.88386   1.88781   1.89168
 Alpha virt. eigenvalues --    1.89236   1.89983   1.90549   1.91200   1.91509
 Alpha virt. eigenvalues --    1.92355   1.93062   1.93345   1.93668   1.93809
 Alpha virt. eigenvalues --    1.94231   1.95239   1.95867   1.95982   1.96739
 Alpha virt. eigenvalues --    1.98287   1.99274   1.99755   2.00599   2.00925
 Alpha virt. eigenvalues --    2.01499   2.01659   2.02497   2.04046   2.04248
 Alpha virt. eigenvalues --    2.05036   2.05719   2.06153   2.06784   2.07597
 Alpha virt. eigenvalues --    2.07964   2.08601   2.08800   2.09760   2.10036
 Alpha virt. eigenvalues --    2.10629   2.11215   2.12263   2.12497   2.12881
 Alpha virt. eigenvalues --    2.14097   2.14361   2.16056   2.16317   2.17575
 Alpha virt. eigenvalues --    2.18939   2.19539   2.19816   2.20197   2.21013
 Alpha virt. eigenvalues --    2.21814   2.22295   2.22797   2.23701   2.23999
 Alpha virt. eigenvalues --    2.24448   2.25597   2.25913   2.26399   2.27200
 Alpha virt. eigenvalues --    2.28072   2.28759   2.29341   2.29445   2.29746
 Alpha virt. eigenvalues --    2.30004   2.30823   2.31085   2.32300   2.32634
 Alpha virt. eigenvalues --    2.33482   2.34115   2.34203   2.34399   2.34894
 Alpha virt. eigenvalues --    2.35257   2.35880   2.36187   2.37360   2.37649
 Alpha virt. eigenvalues --    2.38656   2.38832   2.40335   2.41274   2.41527
 Alpha virt. eigenvalues --    2.42251   2.42683   2.43268   2.43511   2.44405
 Alpha virt. eigenvalues --    2.45355   2.45764   2.45935   2.46376   2.47327
 Alpha virt. eigenvalues --    2.47831   2.49001   2.49966   2.50768   2.51671
 Alpha virt. eigenvalues --    2.51878   2.53525   2.54497   2.54514   2.56098
 Alpha virt. eigenvalues --    2.56590   2.57094   2.57344   2.58600   2.59514
 Alpha virt. eigenvalues --    2.60352   2.61154   2.61566   2.62204   2.63316
 Alpha virt. eigenvalues --    2.64161   2.64739   2.65312   2.65457   2.66313
 Alpha virt. eigenvalues --    2.67193   2.67981   2.68343   2.68515   2.69274
 Alpha virt. eigenvalues --    2.69990   2.70535   2.71143   2.72273   2.73173
 Alpha virt. eigenvalues --    2.73391   2.73947   2.74488   2.75397   2.75992
 Alpha virt. eigenvalues --    2.78281   2.78540   2.79119   2.79523   2.79753
 Alpha virt. eigenvalues --    2.79894   2.80395   2.80545   2.81415   2.81470
 Alpha virt. eigenvalues --    2.82091   2.82317   2.82726   2.83777   2.84212
 Alpha virt. eigenvalues --    2.84944   2.85759   2.86265   2.86893   2.87079
 Alpha virt. eigenvalues --    2.87786   2.88354   2.89203   2.91668   2.92038
 Alpha virt. eigenvalues --    2.94375   2.96106   2.97552   2.98253   2.99047
 Alpha virt. eigenvalues --    2.99918   3.01871   3.03461   3.04657   3.05748
 Alpha virt. eigenvalues --    3.07929   3.09973   3.10413   3.13717   3.14652
 Alpha virt. eigenvalues --    3.15309   3.15535   3.16035   3.17846   3.20428
 Alpha virt. eigenvalues --    3.21937   3.22381   3.23598   3.23781   3.26367
 Alpha virt. eigenvalues --    3.46011   3.46996   3.47771   3.49986   3.50286
 Alpha virt. eigenvalues --    3.53149   3.53863   3.56084   3.58014   3.59906
 Alpha virt. eigenvalues --    3.62430   3.71064   3.74393
          Condensed to atoms (all electrons):
 Mulliken charges:
               1
     1  N   -0.311232
     2  C    0.180955
     3  C    0.032336
     4  N   -0.259146
     5  C    0.133924
     6  H    0.027196
     7  N   -0.289516
     8  C    0.129862
     9  H    0.009216
    10  N   -0.289369
    11  C    0.242301
    12  C    0.125432
    13  N   -0.055688
    14  H    0.108538
    15  H    0.089158
    16  H    0.025779
    17  H    0.034692
    18  H    0.026334
    19  N   -0.310516
    20  C    0.236430
    21  C    0.181579
    22  N   -0.111414
    23  H    0.117095
    24  H    0.115164
    25  N   -0.285754
    26  C    0.215044
    27  N   -0.115114
    28  H    0.115858
    29  C    0.147104
    30  O   -0.318202
    31  C    0.001319
    32  N   -0.220248
    33  C    0.130171
    34  H    0.031054
    35  H    0.029583
    36  H    0.027843
    37  H    0.024875
    38  H    0.062350
    39  H    0.059181
    40  H    0.072898
    41  H    0.031789
    42  C   -0.113697
    43  O   -0.268104
    44  C    0.168994
    45  H    0.136376
    46  N   -0.134800
    47  O   -0.349754
    48  C    0.362247
    49  H    0.048810
    50  C    0.173777
    51  C    0.043553
    52  N   -0.295337
    53  H    0.033712
    54  H    0.043997
    55  H    0.006192
    56  H    0.125530
    57  H    0.113953
    58  N   -0.062890
    59  C    0.102723
    60  C    0.224486
    61  N   -0.257941
    62  H    0.058282
    63  C    0.148434
    64  N   -0.296746
    65  H    0.028963
    66  C    0.128924
    67  N   -0.267276
    68  C    0.030628
    69  C    0.175740
    70  N   -0.307639
 Sum of Mulliken charges =  -0.00000
 Mulliken charges with hydrogens summed into heavy atoms:
               1
     1  N   -0.311232
     2  C    0.267759
     3  C    0.032336
     4  N   -0.259146
     5  C    0.161120
     7  N   -0.289516
     8  C    0.139078
    10  N   -0.289369
    11  C    0.242301
    12  C    0.125432
    13  N    0.142008
    19  N   -0.310516
    20  C    0.236430
    21  C    0.263881
    22  N    0.120844
    25  N   -0.285754
    26  C    0.215044
    27  N    0.000744
    29  C    0.147104
    30  O   -0.318202
    31  C    0.001319
    32  N   -0.220248
    33  C    0.161225
    42  C   -0.081908
    43  O   -0.268104
    44  C    0.168994
    46  N    0.001576
    47  O   -0.349754
    48  C    0.362247
    50  C    0.222587
    51  C    0.237982
    52  N   -0.295337
    58  N    0.176593
    59  C    0.102723
    60  C    0.224486
    61  N   -0.257941
    63  C    0.206716
    64  N   -0.296746
    66  C    0.157887
    67  N   -0.267276
    68  C    0.030628
    69  C    0.259642
    70  N   -0.307639
 Electronic spatial extent (au):  <R**2>=          23928.5268
 Charge=             -0.0000 electrons
 Dipole moment (field-independent basis, Debye):
    X=              8.1047    Y=              5.4106    Z=              2.4516  Tot=             10.0484
 Quadrupole moment (field-independent basis, Debye-Ang):
   XX=           -148.0414   YY=           -218.1700   ZZ=           -251.9093
   XY=              2.3326   XZ=             12.1527   YZ=             -9.0538
 Traceless Quadrupole moment (field-independent basis, Debye-Ang):
   XX=             57.9988   YY=            -12.1297   ZZ=            -45.8691
   XY=              2.3326   XZ=             12.1527   YZ=             -9.0538
 Octapole moment (field-independent basis, Debye-Ang**2):
  XXX=             27.4977  YYY=            134.7097  ZZZ=              0.3924  XYY=             79.2415
  XXY=            -90.8048  XXZ=            -63.3396  XZZ=             17.8443  YZZ=             32.4202
  YYZ=             44.3603  XYZ=             44.8348
 Hexadecapole moment (field-independent basis, Debye-Ang**3):
 XXXX=         -15427.2775 YYYY=          -6484.1524 ZZZZ=          -3175.8093 XXXY=            430.4541
 XXXZ=            181.5117 YYYX=            -30.7343 YYYZ=           -112.4812 ZZZX=             42.1289
 ZZZY=             18.8330 XXYY=          -3922.4932 XXZZ=          -4107.6723 YYZZ=          -1602.0943
 XXYZ=            100.8484 YYXZ=            238.9920 ZZXY=             27.8451
 N-N= 5.439218077176D+03 E-N=-1.565935375466D+04  KE= 2.037788724281D+03
 No NMR shielding tensors so no spin-rotation constants.
 Leave Link  601 at Wed Jan 24 09:40:20 2018, MaxMem=  4294967296 cpu:              47.3 elap:               1.7
 (Enter /share/apps/g16/l9999.exe)
 1\1\GINC-COMPUTE-0-3\SP\RwB97XD\CC-pVDZ\C23H27N17O3\SATYA\24-Jan-2018\
 0\\#p wb97xd/cc-pvdz sp scf=(maxcycles=20)\\Base pair stacking\\0,1\N,
 0,8.62796,2.68142,-6.47105\C,0,9.88639,3.44551,-6.57363\C,0,6.50156,2.
 12719,-6.37851\N,0,7.21648,0.94421,-6.25948\C,0,8.46895,1.32546,-6.32\
 H,0,9.32529,0.65322,-6.25909\N,0,4.7423,3.69143,-6.52372\C,0,5.68783,4
 .62945,-6.6407\H,0,5.3205,5.64926,-6.74702\N,0,7.01276,4.49746,-6.6460
 3\C,0,7.35799,3.20648,-6.50964\C,0,5.12196,2.40205,-6.38803\N,0,4.1795
 8,1.46427,-6.27112\H,0,4.4148,0.49712,-6.1686\H,0,3.20687,1.69634,-6.2
 8203\H,0,10.40587,3.12977,-7.36775\H,0,9.67931,4.41789,-6.67715\H,0,10
 .43035,3.30858,-5.74576\N,0,3.60209,5.90817,-3.26456\C,0,2.38706,5.266
 49,-3.26328\C,0,3.79597,7.36891,-3.36129\N,0,-1.08102,5.39233,-3.39872
 \H,0,-1.84383,4.74655,-3.38065\H,0,-1.31007,6.36304,-3.47605\N,0,1.175
 9,5.85785,-3.34948\C,0,0.19217,4.97627,-3.32272\N,0,0.37819,3.61897,-3
 .21948\H,0,-0.43285,3.0198,-3.20649\C,0,1.61527,2.98857,-3.12957\O,0,1
 .67322,1.75596,-3.03986\C,0,2.68178,3.92275,-3.15705\N,0,4.05423,3.724
 8,-3.09292\C,0,4.55792,4.9273,-3.16\H,0,5.62393,5.15616,-3.13738\H,0,4
 .33507,7.58208,-4.17537\H,0,2.9056,7.81763,-3.42565\H,0,4.27574,7.6976
 9,-2.54855\H,0,-4.83084,0.54869,-3.84208\H,0,-4.77251,0.41907,-2.08582
 \H,0,-4.07058,1.8237,-2.88935\H,0,-1.65944,-3.03242,-3.32784\C,0,-1.69
 747,-1.94607,-3.2464\O,0,0.65845,-1.67522,-3.30466\C,0,-0.4753,-1.2018
 ,-3.23206\H,0,0.20499,0.72465,-3.11248\N,0,-0.63604,0.16499,-3.12585\O
 ,0,-1.86047,2.06897,-2.94466\C,0,-1.81919,0.85461,-3.03565\H,0,-3.8244
 ,-1.82124,-3.16654\C,0,-2.86709,-1.30177,-3.16\C,0,-4.2416,0.75995,-2.
 96218\N,0,-2.95356,0.06721,-3.05609\H,0,-2.78322,6.12756,-6.86174\H,0,
 -1.47874,6.32163,-5.90113\H,0,-2.93101,5.9706,-5.24405\H,0,0.93817,-0.
 26933,-6.31721\H,0,-0.75984,-0.19845,-6.46493\N,0,0.10668,0.28589,-6.3
 3931\C,0,0.15033,1.61323,-6.20724\C,0,-0.78382,3.79801,-6.08142\N,0,0.
 39411,4.42161,-5.91402\H,0,2.3871,3.9636,-5.77681\C,0,1.3922,3.54032,-
 5.90822\N,0,1.35052,2.21051,-6.04035\H,0,-3.98766,3.50595,-6.40123\C,0
 ,-2.91385,3.33488,-6.32\N,0,-2.33996,2.15821,-6.38132\C,0,-0.98932,2.4
 3757,-6.23142\C,0,-2.32993,5.81312,-6.02768\N,0,-2.03162,4.37212,-6.13
 96\\Version=EM64L-G16RevA.03\State=1-A\HF=-2048.733633\RMSD=5.987e-09\
 Dipole=-3.6747392,1.4460751,-0.1844331\Quadrupole=41.5020432,-7.864936
 9,-33.6371063,10.4210419,-8.1487385,6.9957185\PG=C01 [X(C23H27N17O3)]\
 \@


 In the race for quality, there is no finish line.
                               -- David T. Kearns
 Job cpu time:       0 days  5 hours 48 minutes 25.0 seconds.
 Elapsed time:       0 days  0 hours 11 minutes 14.7 seconds.
 File lengths (MBytes):  RWF=    298 Int=      0 D2E=      0 Chk=     33 Scr=      1
 Normal termination of Gaussian 16 at Wed Jan 24 09:40:21 2018.
