 Entering Gaussian System, Link 0=g16
 Input=str50.10.1.5.com
 Output=str50.10.1.5.log
 Initial command:
 /share/apps/g16/l1.exe "/state/partition1/scr/Gau-30613.inp" -scrdir="/state/partition1/scr/"
 Entering Link 1 = /share/apps/g16/l1.exe PID=     30614.
  
 Copyright (c) 1988,1990,1992,1993,1995,1998,2003,2009,2016,
            Gaussian, Inc.  All Rights Reserved.
  
 This is part of the Gaussian(R) 16 program.  It is based on
 the Gaussian(R) 09 system (copyright 2009, Gaussian, Inc.),
 the Gaussian(R) 03 system (copyright 2003, Gaussian, Inc.),
 the Gaussian(R) 98 system (copyright 1998, Gaussian, Inc.),
 the Gaussian(R) 94 system (copyright 1995, Gaussian, Inc.),
 the Gaussian 92(TM) system (copyright 1992, Gaussian, Inc.),
 the Gaussian 90(TM) system (copyright 1990, Gaussian, Inc.),
 the Gaussian 88(TM) system (copyright 1988, Gaussian, Inc.),
 the Gaussian 86(TM) system (copyright 1986, Carnegie Mellon
 University), and the Gaussian 82(TM) system (copyright 1983,
 Carnegie Mellon University). Gaussian is a federally registered
 trademark of Gaussian, Inc.
  
 This software contains proprietary and confidential information,
 including trade secrets, belonging to Gaussian, Inc.
  
 This software is provided under written license and may be
 used, copied, transmitted, or stored only in accord with that
 written license.
  
 The following legend is applicable only to US Government
 contracts under FAR:
  
                    RESTRICTED RIGHTS LEGEND
  
 Use, reproduction and disclosure by the US Government is
 subject to restrictions as set forth in subparagraphs (a)
 and (c) of the Commercial Computer Software - Restricted
 Rights clause in FAR 52.227-19.
  
 Gaussian, Inc.
 340 Quinnipiac St., Bldg. 40, Wallingford CT 06492
  
  
 ---------------------------------------------------------------
 Warning -- This program may not be used in any manner that
 competes with the business of Gaussian, Inc. or will provide
 assistance to any competitor of Gaussian, Inc.  The licensee
 of this program is prohibited from giving any competitor of
 Gaussian, Inc. access to this program.  By using this program,
 the user acknowledges that Gaussian, Inc. is engaged in the
 business of creating and licensing software in the field of
 computational chemistry and represents and warrants to the
 licensee that it is not a competitor of Gaussian, Inc. and that
 it will not use this program in any manner prohibited above.
 ---------------------------------------------------------------
  

 Cite this work as:
 Gaussian 16, Revision A.03,
 M. J. Frisch, G. W. Trucks, H. B. Schlegel, G. E. Scuseria, 
 M. A. Robb, J. R. Cheeseman, G. Scalmani, V. Barone, 
 G. A. Petersson, H. Nakatsuji, X. Li, M. Caricato, A. V. Marenich, 
 J. Bloino, B. G. Janesko, R. Gomperts, B. Mennucci, H. P. Hratchian, 
 J. V. Ortiz, A. F. Izmaylov, J. L. Sonnenberg, D. Williams-Young, 
 F. Ding, F. Lipparini, F. Egidi, J. Goings, B. Peng, A. Petrone, 
 T. Henderson, D. Ranasinghe, V. G. Zakrzewski, J. Gao, N. Rega, 
 G. Zheng, W. Liang, M. Hada, M. Ehara, K. Toyota, R. Fukuda, 
 J. Hasegawa, M. Ishida, T. Nakajima, Y. Honda, O. Kitao, H. Nakai, 
 T. Vreven, K. Throssell, J. A. Montgomery, Jr., J. E. Peralta, 
 F. Ogliaro, M. J. Bearpark, J. J. Heyd, E. N. Brothers, K. N. Kudin, 
 V. N. Staroverov, T. A. Keith, R. Kobayashi, J. Normand, 
 K. Raghavachari, A. P. Rendell, J. C. Burant, S. S. Iyengar, 
 J. Tomasi, M. Cossi, J. M. Millam, M. Klene, C. Adamo, R. Cammi, 
 J. W. Ochterski, R. L. Martin, K. Morokuma, O. Farkas, 
 J. B. Foresman, and D. J. Fox, Gaussian, Inc., Wallingford CT, 2016.
 
 ******************************************
 Gaussian 16:  EM64L-G16RevA.03 25-Dec-2016
                24-Jan-2018 
 ******************************************
 %nprocshared=32
 Will use up to   32 processors via shared memory.
 %mem=32GB
 %chk=allatoms_t.chk
 ---------------------------------------
 #p wb97xd/cc-pvdz sp scf=(maxcycles=20)
 ---------------------------------------
 1/38=1,172=1/1;
 2/12=2,17=6,18=5,40=1/2;
 3/5=16,11=2,25=1,30=1,74=-58/1,2,3;
 4//1;
 5/5=2,7=20,38=5/2;
 6/7=2,8=2,9=2,10=2,28=1/1;
 99/5=1,9=1/99;
 Leave Link    1 at Wed Jan 24 13:09:19 2018, MaxMem=  4294967296 cpu:               2.7 elap:               0.1
 (Enter /share/apps/g16/l101.exe)
 ------------------
 Base pair stacking
 ------------------
 Symbolic Z-matrix:
 Charge =  0 Multiplicity = 1
 N                     4.6374   -1.83067  -5.65565 
 C                     5.91991  -1.10119  -5.68777 
 C                     2.51082  -2.3617   -5.83725 
 N                     3.15053  -3.48692  -5.33786 
 C                     4.40611  -3.12196  -5.24844 
 H                     5.2133   -3.76066  -4.88867 
 N                     0.8626   -0.87513  -6.63501 
 C                     1.84623   0.01946  -6.77564 
 H                     1.54019   0.98986  -7.16411 
 N                     3.14503  -0.10413  -6.50969 
 C                     3.41438  -1.33275  -6.03814 
 C                     1.16598  -2.10218  -6.15816 
 N                     0.18547  -2.99654  -6.01708 
 H                     0.36417  -3.91701  -5.66777 
 H                    -0.76063  -2.77711  -6.25559 
 H                     6.56224  -1.57977  -6.28656 
 H                     5.76923  -0.1757   -6.03401 
 H                     6.30096  -1.05194  -4.76454 
 N                     2.42101   2.73002  -3.18425 
 C                     1.21332   2.08759  -3.31396 
 C                     2.63793   4.1814   -3.34902 
 N                    -2.19889   2.19759  -3.95147 
 H                    -2.96142   1.55302  -3.99974 
 H                    -2.4071    3.16053  -4.12499 
 N                     0.03143   2.66959  -3.61135 
 C                    -0.9528    1.78992  -3.66693 
 N                    -0.79385   0.4429   -3.44833 
 H                    -1.60303  -0.15558  -3.51159 
 C                     0.41287  -0.17776  -3.14098 
 O                     0.44795  -1.40152  -2.96231 
 C                     1.47954   0.75449  -3.07777 
 N                     2.82724   0.56385  -2.80525 
 C                     3.34458   1.76012  -2.87935 
 H                     4.39819   1.99199  -2.71992 
 H                     3.28927   4.34075  -4.09007 
 H                     1.76932   4.62316  -3.56955 
 H                     2.99936   4.56463  -2.49971 
 H                    -5.88423  -2.67188  -4.6035 
 H                    -6.07803  -2.68381  -2.85223 
 H                    -5.25788  -1.33466  -3.63868 
 H                    -2.84625  -6.20469  -3.40497 
 C                    -2.88715  -5.1154   -3.40208 
 O                    -0.54501  -4.84462  -3.14104 
 C                    -1.67385  -4.36954  -3.26273 
 H                    -1.00279  -2.43813  -3.17531 
 N                    -1.83758  -2.99901  -3.27151 
 O                    -3.06067  -1.08948  -3.39386 
 C                    -3.01616  -2.30714  -3.39723 
 H                    -5.0027   -4.98951  -3.63533 
 C                    -4.05215  -4.46896  -3.5266 
 C                    -5.42493  -2.40123  -3.66443 
 N                    -4.14203  -3.09627  -3.52719 
 H                    -6.38883   1.39259  -8.86133 
 H                    -5.27233   1.79747  -7.74258 
 H                    -6.83054   1.59094  -7.30281 
 H                    -3.05389  -4.7142   -6.28241 
 H                    -4.6941   -4.68538  -6.75038 
 N                    -3.84776  -4.18113  -6.57526 
 C                    -3.7818   -2.85669  -6.72585 
 C                    -4.64573  -0.70147  -7.24584 
 N                    -3.49586  -0.0507   -7.00352 
 H                    -1.57743  -0.45822  -6.4084 
 C                    -2.54678  -0.90476  -6.62572 
 N                    -2.61087  -2.23161  -6.47429 
 H                    -7.74812  -1.07161  -8.07671 
 C                    -6.71312  -1.21571  -7.76533 
 N                    -6.17941  -2.37472  -7.46613 
 C                    -4.86874  -2.0629   -7.13497 
 C                    -6.10429   1.26951  -7.9106 
 N                    -5.8417   -0.15983  -7.6536 
 
 ITRead=  0  0  0  0  0  0  0  0  0  0  0  0  0  0  0  0  0  0  0  0
 ITRead=  0  0  0  0  0  0  0  0  0  0  0  0  0  0  0  0  0  0  0  0
 ITRead=  0  0  0  0  0  0  0  0  0  0  0  0  0  0  0  0  0  0  0  0
 ITRead=  0  0  0  0  0  0  0  0  0  0
 MicOpt= -1 -1 -1 -1 -1 -1 -1 -1 -1 -1 -1 -1 -1 -1 -1 -1 -1 -1 -1 -1
 MicOpt= -1 -1 -1 -1 -1 -1 -1 -1 -1 -1 -1 -1 -1 -1 -1 -1 -1 -1 -1 -1
 MicOpt= -1 -1 -1 -1 -1 -1 -1 -1 -1 -1 -1 -1 -1 -1 -1 -1 -1 -1 -1 -1
 MicOpt= -1 -1 -1 -1 -1 -1 -1 -1 -1 -1
 NAtoms=     70 NQM=       70 NQMF=       0 NMMI=      0 NMMIF=      0
                NMic=       0 NMicF=      0.
                    Isotopes and Nuclear Properties:
 (Nuclear quadrupole moments (NQMom) in fm**2, nuclear magnetic moments (NMagM)
  in nuclear magnetons)

  Atom         1           2           3           4           5           6           7           8           9          10
 IAtWgt=          14          12          12          14          12           1          14          12           1          14
 AtmWgt=  14.0030740  12.0000000  12.0000000  14.0030740  12.0000000   1.0078250  14.0030740  12.0000000   1.0078250  14.0030740
 NucSpn=           2           0           0           2           0           1           2           0           1           2
 AtZEff=  -0.0000000  -0.0000000  -0.0000000  -0.0000000  -0.0000000  -0.0000000  -0.0000000  -0.0000000  -0.0000000  -0.0000000
 NQMom=    2.0440000   0.0000000   0.0000000   2.0440000   0.0000000   0.0000000   2.0440000   0.0000000   0.0000000   2.0440000
 NMagM=    0.4037610   0.0000000   0.0000000   0.4037610   0.0000000   2.7928460   0.4037610   0.0000000   2.7928460   0.4037610
 AtZNuc=   7.0000000   6.0000000   6.0000000   7.0000000   6.0000000   1.0000000   7.0000000   6.0000000   1.0000000   7.0000000

  Atom        11          12          13          14          15          16          17          18          19          20
 IAtWgt=          12          12          14           1           1           1           1           1          14          12
 AtmWgt=  12.0000000  12.0000000  14.0030740   1.0078250   1.0078250   1.0078250   1.0078250   1.0078250  14.0030740  12.0000000
 NucSpn=           0           0           2           1           1           1           1           1           2           0
 AtZEff=  -0.0000000  -0.0000000  -0.0000000  -0.0000000  -0.0000000  -0.0000000  -0.0000000  -0.0000000  -0.0000000  -0.0000000
 NQMom=    0.0000000   0.0000000   2.0440000   0.0000000   0.0000000   0.0000000   0.0000000   0.0000000   2.0440000   0.0000000
 NMagM=    0.0000000   0.0000000   0.4037610   2.7928460   2.7928460   2.7928460   2.7928460   2.7928460   0.4037610   0.0000000
 AtZNuc=   6.0000000   6.0000000   7.0000000   1.0000000   1.0000000   1.0000000   1.0000000   1.0000000   7.0000000   6.0000000

  Atom        21          22          23          24          25          26          27          28          29          30
 IAtWgt=          12          14           1           1          14          12          14           1          12          16
 AtmWgt=  12.0000000  14.0030740   1.0078250   1.0078250  14.0030740  12.0000000  14.0030740   1.0078250  12.0000000  15.9949146
 NucSpn=           0           2           1           1           2           0           2           1           0           0
 AtZEff=  -0.0000000  -0.0000000  -0.0000000  -0.0000000  -0.0000000  -0.0000000  -0.0000000  -0.0000000  -0.0000000  -0.0000000
 NQMom=    0.0000000   2.0440000   0.0000000   0.0000000   2.0440000   0.0000000   2.0440000   0.0000000   0.0000000   0.0000000
 NMagM=    0.0000000   0.4037610   2.7928460   2.7928460   0.4037610   0.0000000   0.4037610   2.7928460   0.0000000   0.0000000
 AtZNuc=   6.0000000   7.0000000   1.0000000   1.0000000   7.0000000   6.0000000   7.0000000   1.0000000   6.0000000   8.0000000

  Atom        31          32          33          34          35          36          37          38          39          40
 IAtWgt=          12          14          12           1           1           1           1           1           1           1
 AtmWgt=  12.0000000  14.0030740  12.0000000   1.0078250   1.0078250   1.0078250   1.0078250   1.0078250   1.0078250   1.0078250
 NucSpn=           0           2           0           1           1           1           1           1           1           1
 AtZEff=  -0.0000000  -0.0000000  -0.0000000  -0.0000000  -0.0000000  -0.0000000  -0.0000000  -0.0000000  -0.0000000  -0.0000000
 NQMom=    0.0000000   2.0440000   0.0000000   0.0000000   0.0000000   0.0000000   0.0000000   0.0000000   0.0000000   0.0000000
 NMagM=    0.0000000   0.4037610   0.0000000   2.7928460   2.7928460   2.7928460   2.7928460   2.7928460   2.7928460   2.7928460
 AtZNuc=   6.0000000   7.0000000   6.0000000   1.0000000   1.0000000   1.0000000   1.0000000   1.0000000   1.0000000   1.0000000

  Atom        41          42          43          44          45          46          47          48          49          50
 IAtWgt=           1          12          16          12           1          14          16          12           1          12
 AtmWgt=   1.0078250  12.0000000  15.9949146  12.0000000   1.0078250  14.0030740  15.9949146  12.0000000   1.0078250  12.0000000
 NucSpn=           1           0           0           0           1           2           0           0           1           0
 AtZEff=  -0.0000000  -0.0000000  -0.0000000  -0.0000000  -0.0000000  -0.0000000  -0.0000000  -0.0000000  -0.0000000  -0.0000000
 NQMom=    0.0000000   0.0000000   0.0000000   0.0000000   0.0000000   2.0440000   0.0000000   0.0000000   0.0000000   0.0000000
 NMagM=    2.7928460   0.0000000   0.0000000   0.0000000   2.7928460   0.4037610   0.0000000   0.0000000   2.7928460   0.0000000
 AtZNuc=   1.0000000   6.0000000   8.0000000   6.0000000   1.0000000   7.0000000   8.0000000   6.0000000   1.0000000   6.0000000

  Atom        51          52          53          54          55          56          57          58          59          60
 IAtWgt=          12          14           1           1           1           1           1          14          12          12
 AtmWgt=  12.0000000  14.0030740   1.0078250   1.0078250   1.0078250   1.0078250   1.0078250  14.0030740  12.0000000  12.0000000
 NucSpn=           0           2           1           1           1           1           1           2           0           0
 AtZEff=  -0.0000000  -0.0000000  -0.0000000  -0.0000000  -0.0000000  -0.0000000  -0.0000000  -0.0000000  -0.0000000  -0.0000000
 NQMom=    0.0000000   2.0440000   0.0000000   0.0000000   0.0000000   0.0000000   0.0000000   2.0440000   0.0000000   0.0000000
 NMagM=    0.0000000   0.4037610   2.7928460   2.7928460   2.7928460   2.7928460   2.7928460   0.4037610   0.0000000   0.0000000
 AtZNuc=   6.0000000   7.0000000   1.0000000   1.0000000   1.0000000   1.0000000   1.0000000   7.0000000   6.0000000   6.0000000

  Atom        61          62          63          64          65          66          67          68          69          70
 IAtWgt=          14           1          12          14           1          12          14          12          12          14
 AtmWgt=  14.0030740   1.0078250  12.0000000  14.0030740   1.0078250  12.0000000  14.0030740  12.0000000  12.0000000  14.0030740
 NucSpn=           2           1           0           2           1           0           2           0           0           2
 AtZEff=  -0.0000000  -0.0000000  -0.0000000  -0.0000000  -0.0000000  -0.0000000  -0.0000000  -0.0000000  -0.0000000  -0.0000000
 NQMom=    2.0440000   0.0000000   0.0000000   2.0440000   0.0000000   0.0000000   2.0440000   0.0000000   0.0000000   2.0440000
 NMagM=    0.4037610   2.7928460   0.0000000   0.4037610   2.7928460   0.0000000   0.4037610   0.0000000   0.0000000   0.4037610
 AtZNuc=   7.0000000   1.0000000   6.0000000   7.0000000   1.0000000   6.0000000   7.0000000   6.0000000   6.0000000   7.0000000
 Leave Link  101 at Wed Jan 24 13:09:19 2018, MaxMem=  4294967296 cpu:               7.7 elap:               0.3
 (Enter /share/apps/g16/l202.exe)
 Stoichiometry    C23H27N17O3
 Framework group  C1[X(C23H27N17O3)]
 Deg. of freedom   204
 Full point group                 C1      NOp   1
 Largest Abelian subgroup         C1      NOp   1
 Largest concise Abelian subgroup C1      NOp   1
                         Standard orientation:                         
 ---------------------------------------------------------------------
 Center     Atomic      Atomic             Coordinates (Angstroms)
 Number     Number       Type             X           Y           Z
 ---------------------------------------------------------------------
      1          7           0        4.916617   -2.107744   -1.585237
      2          6           0        6.312070   -1.726801   -1.877810
      3          6           0        2.728319   -2.084277   -1.365884
      4          7           0        3.148832   -3.331940   -0.928567
      5          6           0        4.450367   -3.296143   -1.078221
      6          1           0        5.125505   -4.116307   -0.832361
      7          7           0        1.383488   -0.233468   -1.939358
      8          6           0        2.515746    0.382241   -2.295011
      9          1           0        2.394523    1.396302   -2.673470
     10          7           0        3.769361   -0.064543   -2.253535
     11          6           0        3.806746   -1.318659   -1.773732
     12          6           0        1.454608   -1.494648   -1.460355
     13          7           0        0.325457   -2.110921   -1.104815
     14          1           0        0.330768   -3.044670   -0.745230
     15          1           0       -0.563782   -1.660530   -1.185703
     16          1           0        6.695927   -2.355729   -2.554034
     17          1           0        6.335225   -0.795270   -2.239518
     18          1           0        6.854565   -1.770402   -1.038896
     19          7           0        4.386917    2.879240    0.997300
     20          6           0        3.054852    2.562664    1.113227
     21          6           0        4.923210    4.227515    0.722977
     22          7           0       -0.280755    3.529098    1.075457
     23          1           0       -1.174941    3.098244    1.193985
     24          1           0       -0.271693    4.512391    0.891700
     25          7           0        2.020419    3.423160    0.996932
     26          6           0        0.855653    2.820933    1.158980
     27          7           0        0.712689    1.478792    1.415364
     28          1           0       -0.217186    1.104248    1.524917
     29          6           0        1.762976    0.574667    1.539110
     30          8           0        1.525440   -0.617103    1.771494
     31          6           0        3.020613    1.206940    1.367496
     32          7           0        4.305332    0.682950    1.410349
     33          6           0        5.080734    1.708901    1.185914
     34          1           0        6.169795    1.667454    1.147139
     35          1           0        5.447946    4.212656   -0.127448
     36          1           0        4.166091    4.873483    0.634852
     37          1           0        5.516402    4.511565    1.475481
     38          1           0       -5.113315   -0.252690    1.326564
     39          1           0       -4.982632   -0.205329    3.083074
     40          1           0       -4.010551    0.887875    2.097519
     41          1           0       -2.880447   -4.432567    2.156904
     42          6           0       -2.648809   -3.368392    2.110973
     43          8           0       -0.305470   -3.697742    1.945519
     44          6           0       -1.284015   -2.953121    1.998239
     45          1           0       -0.150757   -1.253974    1.868113
     46          7           0       -1.101665   -1.585846    1.947809
     47          8           0       -1.814421    0.570349    1.942692
     48          6           0       -2.074533   -0.618931    1.994110
     49          1           0       -4.673142   -2.712486    2.243901
     50          6           0       -3.619799   -2.448858    2.158419
     51          6           0       -4.438595   -0.101818    2.156052
     52          7           0       -3.365149   -1.098137    2.103059
     53          1           0       -5.359220    3.783139   -2.981019
     54          1           0       -3.993193    3.898547   -2.096286
     55          1           0       -5.447330    4.095589   -1.381630
     56          1           0       -3.231144   -2.954266   -0.712934
     57          1           0       -4.869831   -2.513893   -0.888692
     58          7           0       -3.907638   -2.239285   -0.889889
     59          6           0       -3.543893   -0.975529   -1.117439
     60          6           0       -3.926181    1.325215   -1.588790
     61          7           0       -2.626619    1.665126   -1.584332
     62          1           0       -0.793961    0.788690   -1.312601
     63          6           0       -1.866570    0.600808   -1.334422
     64          7           0       -2.228980   -0.665749   -1.106248
     65          1           0       -7.121104    1.747648   -1.846064
     66          6           0       -6.115358    1.348043   -1.712880
     67          7           0       -5.840451    0.093393   -1.452210
     68          6           0       -4.455760    0.065198   -1.371025
     69          6           0       -4.946291    3.597402   -2.089397
     70          7           0       -5.004063    2.149608   -1.809093
 ---------------------------------------------------------------------
 Rotational constants (GHZ):           0.1188038           0.0579865           0.0511296
 Leave Link  202 at Wed Jan 24 13:09:19 2018, MaxMem=  4294967296 cpu:               0.3 elap:               0.0
 (Enter /share/apps/g16/l301.exe)
 Standard basis: CC-pVDZ (5D, 7F)
 Ernie: Thresh=  0.10000D-02 Tol=  0.10000D-05 Strict=F.
 Ernie:  86 primitive shells out of 1081 were deleted.
 There are   780 symmetry adapted cartesian basis functions of A   symmetry.
 There are   737 symmetry adapted basis functions of A   symmetry.
   737 basis functions,  1608 primitive gaussians,   780 cartesian basis functions
   154 alpha electrons      154 beta electrons
       nuclear repulsion energy      5438.7631132773 Hartrees.
 IExCor= 4639 DFT=T Ex+Corr=wB97XD ExCW=0 ScaHFX=  1.000000
 ScaDFX=  1.000000  1.000000  1.000000  1.000000 ScalE2=  1.000000  1.000000
 IRadAn=      5 IRanWt=     -1 IRanGd=            0 ICorTp=0 IEmpDi=121
 HFx  wShort=  0.000000 wLong=  0.200000 cFull=  0.222036 cShort=  0.000000 cLong=  0.777964
 DFx  wShort=  0.000000 wLong=  0.200000 cFull=  0.000000 cShort=  0.000000 cLong=  1.000000
 NAtoms=   70 NActive=   70 NUniq=   70 SFac= 1.00D+00 NAtFMM=   60 NAOKFM=T Big=T
 Integral buffers will be    131072 words long.
 Raffenetti 2 integral format.
 Two-electron integral symmetry is turned on.
 R6Disp:  Grimme-D2 Dispersion energy=       -0.0657223665 Hartrees.
 Nuclear repulsion after empirical dispersion term =     5438.6973909107 Hartrees.
 Leave Link  301 at Wed Jan 24 13:09:19 2018, MaxMem=  4294967296 cpu:               2.2 elap:               0.1
 (Enter /share/apps/g16/l302.exe)
 NPDir=0 NMtPBC=     1 NCelOv=     1 NCel=       1 NClECP=     1 NCelD=      1
         NCelK=      1 NCelE2=     1 NClLst=     1 CellRange=     0.0.
 One-electron integrals computed using PRISM.
 One-electron integral symmetry used in STVInt
 NBasis=   737 RedAO= T EigKep=  7.26D-04  NBF=   737
 NBsUse=   737 1.00D-06 EigRej= -1.00D+00 NBFU=   737
 Precomputing XC quadrature grid using
 IXCGrd= 4 IRadAn=           5 IRanWt=          -1 IRanGd=           0 AccXCQ= 0.00D+00.
 Generated NRdTot=       0 NPtTot=           0 NUsed=           0 NTot=          32
 NSgBfM=   761   761   761   761   761 MxSgAt=    70 MxSgA2=    70.
 Leave Link  302 at Wed Jan 24 13:09:24 2018, MaxMem=  4294967296 cpu:             134.0 elap:               4.2
 (Enter /share/apps/g16/l303.exe)
 DipDrv:  MaxL=1.
 Leave Link  303 at Wed Jan 24 13:09:24 2018, MaxMem=  4294967296 cpu:              12.8 elap:               0.5
 (Enter /share/apps/g16/l401.exe)
 ExpMin= 1.22D-01 ExpMax= 1.17D+04 ExpMxC= 4.01D+02 IAcc=3 IRadAn=         5 AccDes= 0.00D+00
 Harris functional with IExCor= 4639 and IRadAn=       5 diagonalized for initial guess.
 HarFok:  IExCor= 4639 AccDes= 0.00D+00 IRadAn=         5 IDoV= 1 UseB2=F ITyADJ=14
 ICtDFT=  3500011 ScaDFX=  1.000000  1.000000  1.000000  1.000000
 FoFCou: FMM=F IPFlag=           0 FMFlag=      100000 FMFlg1=        2001
         NFxFlg=           0 DoJE=T BraDBF=F KetDBF=T FulRan=T
         wScrn=  0.000000 ICntrl=       500 IOpCl=  0 I1Cent=   200000004 NGrid=           0
         NMat0=    1 NMatS0=      1 NMatT0=    0 NMatD0=    1 NMtDS0=    0 NMtDT0=    0
 Petite list used in FoFCou.
 Harris En= -1963.88884584823    
 JPrj=0 DoOrth=F DoCkMO=F.
 Leave Link  401 at Wed Jan 24 13:09:37 2018, MaxMem=  4294967296 cpu:             418.0 elap:              13.3
 (Enter /share/apps/g16/l502.exe)
 Integral symmetry usage will be decided dynamically.
 Closed shell SCF:
 Using DIIS extrapolation, IDIIS=  1040.
 NGot=  4294967296 LenX=  4293717438 LenY=  4293108258
 Requested convergence on RMS density matrix=1.00D-08 within  20 cycles.
 Requested convergence on MAX density matrix=1.00D-06.
 Requested convergence on             energy=1.00D-06.
 No special actions if energy rises.
 Fock matrices will be formed incrementally for  20 cycles.
 Integral accuracy reduced to 1.0D-05 until final iterations.

 Cycle   1  Pass 0  IDiag  1:
 FoFJK:  IHMeth= 1 ICntrl=       0 DoSepK=T KAlg= 0 I1Cent=           0 FoldK=F
 IRaf=         1 NMat=       1 IRICut=       1 DoRegI=T DoRafI=F ISym2E= 0 IDoP0=0 IntGTp=1.
 FoFCou: FMM=T IPFlag=           0 FMFlag=      100000 FMFlg1=        2001
         NFxFlg=           0 DoJE=T BraDBF=F KetDBF=F FulRan=T
         wScrn=  0.000000 ICntrl=       500 IOpCl=  0 I1Cent=           0 NGrid=           0
         NMat0=    1 NMatS0=      1 NMatT0=    0 NMatD0=    1 NMtDS0=    0 NMtDT0=    0
 Symmetry not used in FoFCou.
 FMM levels:  10  Number of levels for PrismC:   9
 E= -2048.31768089825    
 DIIS: error= 2.71D-02 at cycle   1 NSaved=   1.
 NSaved= 1 IEnMin= 1 EnMin= -2048.31768089825     IErMin= 1 ErrMin= 2.71D-02
 ErrMax= 2.71D-02  0.00D+00 EMaxC= 1.00D-01 BMatC= 8.29D-01 BMatP= 8.29D-01
 IDIUse=3 WtCom= 7.29D-01 WtEn= 2.71D-01
 Coeff-Com:  0.100D+01
 Coeff-En:   0.100D+01
 Coeff:      0.100D+01
 Gap=     0.254 Goal=   None    Shift=    0.000
 GapD=    0.254 DampG=1.000 DampE=0.500 DampFc=0.5000 IDamp=-1.
 Damping current iteration by 5.00D-01
 RMSDP=1.54D-03 MaxDP=1.31D-01              OVMax= 1.65D-01

 Cycle   2  Pass 0  IDiag  1:
 RMSU=  7.69D-04    CP:  9.98D-01
 E= -2048.51523222282     Delta-E=       -0.197551324574 Rises=F Damp=T
 DIIS: error= 1.51D-02 at cycle   2 NSaved=   2.
 NSaved= 2 IEnMin= 2 EnMin= -2048.51523222282     IErMin= 2 ErrMin= 1.51D-02
 ErrMax= 1.51D-02  0.00D+00 EMaxC= 1.00D-01 BMatC= 1.44D-01 BMatP= 8.29D-01
 IDIUse=3 WtCom= 8.49D-01 WtEn= 1.51D-01
 Coeff-Com: -0.206D+00 0.121D+01
 Coeff-En:   0.000D+00 0.100D+01
 Coeff:     -0.175D+00 0.117D+01
 Gap=     0.293 Goal=   None    Shift=    0.000
 RMSDP=5.72D-04 MaxDP=3.54D-02 DE=-1.98D-01 OVMax= 1.41D-01

 Cycle   3  Pass 0  IDiag  1:
 RMSU=  5.57D-04    CP:  9.94D-01  1.16D+00
 E= -2048.69654568238     Delta-E=       -0.181313459559 Rises=F Damp=F
 DIIS: error= 9.10D-03 at cycle   3 NSaved=   3.
 NSaved= 3 IEnMin= 3 EnMin= -2048.69654568238     IErMin= 3 ErrMin= 9.10D-03
 ErrMax= 9.10D-03  0.00D+00 EMaxC= 1.00D-01 BMatC= 5.87D-02 BMatP= 1.44D-01
 IDIUse=3 WtCom= 9.09D-01 WtEn= 9.10D-02
 Coeff-Com: -0.229D+00 0.541D+00 0.688D+00
 Coeff-En:   0.000D+00 0.000D+00 0.100D+01
 Coeff:     -0.208D+00 0.492D+00 0.716D+00
 Gap=     0.272 Goal=   None    Shift=    0.000
 RMSDP=3.40D-04 MaxDP=3.52D-02 DE=-1.81D-01 OVMax= 7.11D-02

 Cycle   4  Pass 0  IDiag  1:
 RMSU=  1.96D-04    CP:  9.95D-01  1.44D+00  6.79D-01
 E= -2048.73991073606     Delta-E=       -0.043365053682 Rises=F Damp=F
 DIIS: error= 3.71D-03 at cycle   4 NSaved=   4.
 NSaved= 4 IEnMin= 4 EnMin= -2048.73991073606     IErMin= 4 ErrMin= 3.71D-03
 ErrMax= 3.71D-03  0.00D+00 EMaxC= 1.00D-01 BMatC= 9.19D-03 BMatP= 5.87D-02
 IDIUse=3 WtCom= 9.63D-01 WtEn= 3.71D-02
 Coeff-Com: -0.923D-01 0.179D+00 0.384D+00 0.529D+00
 Coeff-En:   0.000D+00 0.000D+00 0.753D-01 0.925D+00
 Coeff:     -0.888D-01 0.172D+00 0.373D+00 0.544D+00
 Gap=     0.278 Goal=   None    Shift=    0.000
 RMSDP=1.25D-04 MaxDP=1.34D-02 DE=-4.34D-02 OVMax= 1.52D-02

 Cycle   5  Pass 0  IDiag  1:
 RMSU=  6.18D-05    CP:  9.94D-01  1.41D+00  8.14D-01  6.19D-01
 E= -2048.74721850288     Delta-E=       -0.007307766817 Rises=F Damp=F
 DIIS: error= 8.48D-04 at cycle   5 NSaved=   5.
 NSaved= 5 IEnMin= 5 EnMin= -2048.74721850288     IErMin= 5 ErrMin= 8.48D-04
 ErrMax= 8.48D-04  0.00D+00 EMaxC= 1.00D-01 BMatC= 3.12D-04 BMatP= 9.19D-03
 IDIUse=3 WtCom= 9.92D-01 WtEn= 8.48D-03
 Coeff-Com: -0.236D-01 0.403D-01 0.125D+00 0.247D+00 0.611D+00
 Coeff-En:   0.000D+00 0.000D+00 0.000D+00 0.000D+00 0.100D+01
 Coeff:     -0.234D-01 0.399D-01 0.124D+00 0.245D+00 0.615D+00
 Gap=     0.278 Goal=   None    Shift=    0.000
 RMSDP=2.51D-05 MaxDP=2.63D-03 DE=-7.31D-03 OVMax= 3.73D-03

 Failed to achieve initial convergence to 1.0D-08 in  6 cycles.
 Switch to full accuracy anyway.
 Cycle   6  Pass 1  IDiag  1:
 E= -2048.74755787152     Delta-E=       -0.000339368643 Rises=F Damp=F
 DIIS: error= 2.60D-04 at cycle   1 NSaved=   1.
 NSaved= 1 IEnMin= 1 EnMin= -2048.74755787152     IErMin= 1 ErrMin= 2.60D-04
 ErrMax= 2.60D-04  0.00D+00 EMaxC= 1.00D-01 BMatC= 7.58D-05 BMatP= 7.58D-05
 IDIUse=3 WtCom= 9.97D-01 WtEn= 2.60D-03
 Coeff-Com:  0.100D+01
 Coeff-En:   0.100D+01
 Coeff:      0.100D+01
 Gap=     0.278 Goal=   None    Shift=    0.000
 RMSDP=2.51D-05 MaxDP=2.63D-03 DE=-3.39D-04 OVMax= 2.04D-03

 Cycle   7  Pass 1  IDiag  1:
 RMSU=  1.15D-04    CP:  1.00D+00
 E= -2048.74761188450     Delta-E=       -0.000054012976 Rises=F Damp=F
 DIIS: error= 3.57D-04 at cycle   2 NSaved=   2.
 NSaved= 2 IEnMin= 2 EnMin= -2048.74761188450     IErMin= 1 ErrMin= 2.60D-04
 ErrMax= 3.57D-04  0.00D+00 EMaxC= 1.00D-01 BMatC= 4.82D-05 BMatP= 7.58D-05
 IDIUse=3 WtCom= 9.96D-01 WtEn= 3.57D-03
 Coeff-Com:  0.424D+00 0.576D+00
 Coeff-En:   0.000D+00 0.100D+01
 Coeff:      0.423D+00 0.577D+00
 Gap=     0.278 Goal=   None    Shift=    0.000
 RMSDP=1.10D-05 MaxDP=1.52D-03 DE=-5.40D-05 OVMax= 1.76D-03

 Cycle   8  Pass 1  IDiag  1:
 RMSU=  1.07D-05    CP:  1.00D+00  1.02D+00
 E= -2048.74764512419     Delta-E=       -0.000033239686 Rises=F Damp=F
 DIIS: error= 1.34D-04 at cycle   3 NSaved=   3.
 NSaved= 3 IEnMin= 3 EnMin= -2048.74764512419     IErMin= 3 ErrMin= 1.34D-04
 ErrMax= 1.34D-04  0.00D+00 EMaxC= 1.00D-01 BMatC= 1.05D-05 BMatP= 4.82D-05
 IDIUse=3 WtCom= 9.99D-01 WtEn= 1.34D-03
 Coeff-Com: -0.199D-01 0.305D+00 0.714D+00
 Coeff-En:   0.000D+00 0.126D+00 0.874D+00
 Coeff:     -0.198D-01 0.305D+00 0.715D+00
 Gap=     0.278 Goal=   None    Shift=    0.000
 RMSDP=5.60D-06 MaxDP=5.55D-04 DE=-3.32D-05 OVMax= 5.83D-04

 Cycle   9  Pass 1  IDiag  1:
 RMSU=  3.75D-06    CP:  1.00D+00  1.05D+00  7.64D-01
 E= -2048.74765434052     Delta-E=       -0.000009216335 Rises=F Damp=F
 DIIS: error= 3.24D-05 at cycle   4 NSaved=   4.
 NSaved= 4 IEnMin= 4 EnMin= -2048.74765434052     IErMin= 4 ErrMin= 3.24D-05
 ErrMax= 3.24D-05  0.00D+00 EMaxC= 1.00D-01 BMatC= 4.68D-07 BMatP= 1.05D-05
 IDIUse=1 WtCom= 1.00D+00 WtEn= 0.00D+00
 Coeff-Com: -0.307D-01 0.845D-01 0.258D+00 0.688D+00
 Coeff:     -0.307D-01 0.845D-01 0.258D+00 0.688D+00
 Gap=     0.278 Goal=   None    Shift=    0.000
 RMSDP=1.38D-06 MaxDP=1.41D-04 DE=-9.22D-06 OVMax= 4.73D-04

 Cycle  10  Pass 1  IDiag  1:
 RMSU=  1.23D-06    CP:  1.00D+00  1.06D+00  7.94D-01  1.11D+00
 E= -2048.74765511864     Delta-E=       -0.000000778121 Rises=F Damp=F
 DIIS: error= 1.50D-05 at cycle   5 NSaved=   5.
 NSaved= 5 IEnMin= 5 EnMin= -2048.74765511864     IErMin= 5 ErrMin= 1.50D-05
 ErrMax= 1.50D-05  0.00D+00 EMaxC= 1.00D-01 BMatC= 1.08D-07 BMatP= 4.68D-07
 IDIUse=1 WtCom= 1.00D+00 WtEn= 0.00D+00
 Coeff-Com: -0.255D-02-0.519D-01-0.121D+00 0.194D+00 0.982D+00
 Coeff:     -0.255D-02-0.519D-01-0.121D+00 0.194D+00 0.982D+00
 Gap=     0.278 Goal=   None    Shift=    0.000
 RMSDP=1.15D-06 MaxDP=7.45D-05 DE=-7.78D-07 OVMax= 2.24D-04

 Cycle  11  Pass 1  IDiag  1:
 RMSU=  4.79D-07    CP:  1.00D+00  1.06D+00  8.00D-01  1.38D+00  1.17D+00
 E= -2048.74765535309     Delta-E=       -0.000000234452 Rises=F Damp=F
 DIIS: error= 8.81D-06 at cycle   6 NSaved=   6.
 NSaved= 6 IEnMin= 6 EnMin= -2048.74765535309     IErMin= 6 ErrMin= 8.81D-06
 ErrMax= 8.81D-06  0.00D+00 EMaxC= 1.00D-01 BMatC= 2.72D-08 BMatP= 1.08D-07
 IDIUse=1 WtCom= 1.00D+00 WtEn= 0.00D+00
 Coeff-Com:  0.470D-02-0.425D-01-0.114D+00-0.668D-02 0.527D+00 0.631D+00
 Coeff:      0.470D-02-0.425D-01-0.114D+00-0.668D-02 0.527D+00 0.631D+00
 Gap=     0.278 Goal=   None    Shift=    0.000
 RMSDP=3.57D-07 MaxDP=3.64D-05 DE=-2.34D-07 OVMax= 1.18D-04

 Cycle  12  Pass 1  IDiag  1:
 RMSU=  1.82D-07    CP:  1.00D+00  1.06D+00  8.01D-01  1.45D+00  1.30D+00
                    CP:  9.14D-01
 E= -2048.74765539138     Delta-E=       -0.000000038289 Rises=F Damp=F
 DIIS: error= 1.06D-06 at cycle   7 NSaved=   7.
 NSaved= 7 IEnMin= 7 EnMin= -2048.74765539138     IErMin= 7 ErrMin= 1.06D-06
 ErrMax= 1.06D-06  0.00D+00 EMaxC= 1.00D-01 BMatC= 8.10D-10 BMatP= 2.72D-08
 IDIUse=1 WtCom= 1.00D+00 WtEn= 0.00D+00
 Coeff-Com:  0.116D-02-0.728D-02-0.214D-01-0.757D-02 0.644D-01 0.148D+00
 Coeff-Com:  0.823D+00
 Coeff:      0.116D-02-0.728D-02-0.214D-01-0.757D-02 0.644D-01 0.148D+00
 Coeff:      0.823D+00
 Gap=     0.278 Goal=   None    Shift=    0.000
 RMSDP=7.87D-08 MaxDP=5.18D-06 DE=-3.83D-08 OVMax= 2.20D-05

 Cycle  13  Pass 1  IDiag  1:
 RMSU=  4.96D-08    CP:  1.00D+00  1.06D+00  8.00D-01  1.46D+00  1.32D+00
                    CP:  1.00D+00  1.12D+00
 E= -2048.74765539314     Delta-E=       -0.000000001753 Rises=F Damp=F
 DIIS: error= 6.13D-07 at cycle   8 NSaved=   8.
 NSaved= 8 IEnMin= 8 EnMin= -2048.74765539314     IErMin= 8 ErrMin= 6.13D-07
 ErrMax= 6.13D-07  0.00D+00 EMaxC= 1.00D-01 BMatC= 3.21D-10 BMatP= 8.10D-10
 IDIUse=1 WtCom= 1.00D+00 WtEn= 0.00D+00
 Coeff-Com: -0.727D-03 0.828D-02 0.207D-01-0.396D-03-0.117D+00-0.977D-01
 Coeff-Com:  0.416D+00 0.770D+00
 Coeff:     -0.727D-03 0.828D-02 0.207D-01-0.396D-03-0.117D+00-0.977D-01
 Coeff:      0.416D+00 0.770D+00
 Gap=     0.278 Goal=   None    Shift=    0.000
 RMSDP=4.86D-08 MaxDP=2.94D-06 DE=-1.75D-09 OVMax= 1.19D-05

 Cycle  14  Pass 1  IDiag  1:
 RMSU=  2.74D-08    CP:  1.00D+00  1.06D+00  8.00D-01  1.46D+00  1.32D+00
                    CP:  1.04D+00  1.28D+00  1.08D+00
 E= -2048.74765539361     Delta-E=       -0.000000000478 Rises=F Damp=F
 DIIS: error= 1.91D-07 at cycle   9 NSaved=   9.
 NSaved= 9 IEnMin= 9 EnMin= -2048.74765539361     IErMin= 9 ErrMin= 1.91D-07
 ErrMax= 1.91D-07  0.00D+00 EMaxC= 1.00D-01 BMatC= 3.26D-11 BMatP= 3.21D-10
 IDIUse=1 WtCom= 1.00D+00 WtEn= 0.00D+00
 Coeff-Com: -0.450D-03 0.451D-02 0.116D-01 0.116D-02-0.576D-01-0.588D-01
 Coeff-Com:  0.897D-01 0.322D+00 0.687D+00
 Coeff:     -0.450D-03 0.451D-02 0.116D-01 0.116D-02-0.576D-01-0.588D-01
 Coeff:      0.897D-01 0.322D+00 0.687D+00
 Gap=     0.278 Goal=   None    Shift=    0.000
 RMSDP=1.32D-08 MaxDP=8.16D-07 DE=-4.78D-10 OVMax= 3.39D-06

 Cycle  15  Pass 1  IDiag  1:
 RMSU=  9.02D-09    CP:  1.00D+00  1.06D+00  8.00D-01  1.46D+00  1.32D+00
                    CP:  1.05D+00  1.31D+00  1.23D+00  1.09D+00
 E= -2048.74765539374     Delta-E=       -0.000000000127 Rises=F Damp=F
 DIIS: error= 6.68D-08 at cycle  10 NSaved=  10.
 NSaved=10 IEnMin=10 EnMin= -2048.74765539374     IErMin=10 ErrMin= 6.68D-08
 ErrMax= 6.68D-08  0.00D+00 EMaxC= 1.00D-01 BMatC= 4.79D-12 BMatP= 3.26D-11
 IDIUse=1 WtCom= 1.00D+00 WtEn= 0.00D+00
 Coeff-Com:  0.116D-04-0.358D-03-0.758D-03 0.857D-04 0.618D-02 0.198D-02
 Coeff-Com: -0.573D-01-0.626D-01 0.242D+00 0.871D+00
 Coeff:      0.116D-04-0.358D-03-0.758D-03 0.857D-04 0.618D-02 0.198D-02
 Coeff:     -0.573D-01-0.626D-01 0.242D+00 0.871D+00
 Gap=     0.278 Goal=   None    Shift=    0.000
 RMSDP=6.91D-09 MaxDP=4.02D-07 DE=-1.27D-10 OVMax= 1.60D-06

 SCF Done:  E(RwB97XD) =  -2048.74765539     A.U. after   15 cycles
            NFock= 15  Conv=0.69D-08     -V/T= 2.0054
 KE= 2.037663611618D+03 PE=-1.565816376928D+04 EE= 6.133055111356D+03
 Leave Link  502 at Wed Jan 24 13:20:28 2018, MaxMem=  4294967296 cpu:           20007.3 elap:             650.2
 (Enter /share/apps/g16/l601.exe)
 Copying SCF densities to generalized density rwf, IOpCl= 0 IROHF=0.

 **********************************************************************

            Population analysis using the SCF density.

 **********************************************************************

 Orbital symmetries:
       Occupied  (A) (A) (A) (A) (A) (A) (A) (A) (A) (A) (A) (A)
                 (A) (A) (A) (A) (A) (A) (A) (A) (A) (A) (A) (A)
                 (A) (A) (A) (A) (A) (A) (A) (A) (A) (A) (A) (A)
                 (A) (A) (A) (A) (A) (A) (A) (A) (A) (A) (A) (A)
                 (A) (A) (A) (A) (A) (A) (A) (A) (A) (A) (A) (A)
                 (A) (A) (A) (A) (A) (A) (A) (A) (A) (A) (A) (A)
                 (A) (A) (A) (A) (A) (A) (A) (A) (A) (A) (A) (A)
                 (A) (A) (A) (A) (A) (A) (A) (A) (A) (A) (A) (A)
                 (A) (A) (A) (A) (A) (A) (A) (A) (A) (A) (A) (A)
                 (A) (A) (A) (A) (A) (A) (A) (A) (A) (A) (A) (A)
                 (A) (A) (A) (A) (A) (A) (A) (A) (A) (A) (A) (A)
                 (A) (A) (A) (A) (A) (A) (A) (A) (A) (A) (A) (A)
                 (A) (A) (A) (A) (A) (A) (A) (A) (A) (A)
       Virtual   (A) (A) (A) (A) (A) (A) (A) (A) (A) (A) (A) (A)
                 (A) (A) (A) (A) (A) (A) (A) (A) (A) (A) (A) (A)
                 (A) (A) (A) (A) (A) (A) (A) (A) (A) (A) (A) (A)
                 (A) (A) (A) (A) (A) (A) (A) (A) (A) (A) (A) (A)
                 (A) (A) (A) (A) (A) (A) (A) (A) (A) (A) (A) (A)
                 (A) (A) (A) (A) (A) (A) (A) (A) (A) (A) (A) (A)
                 (A) (A) (A) (A) (A) (A) (A) (A) (A) (A) (A) (A)
                 (A) (A) (A) (A) (A) (A) (A) (A) (A) (A) (A) (A)
                 (A) (A) (A) (A) (A) (A) (A) (A) (A) (A) (A) (A)
                 (A) (A) (A) (A) (A) (A) (A) (A) (A) (A) (A) (A)
                 (A) (A) (A) (A) (A) (A) (A) (A) (A) (A) (A) (A)
                 (A) (A) (A) (A) (A) (A) (A) (A) (A) (A) (A) (A)
                 (A) (A) (A) (A) (A) (A) (A) (A) (A) (A) (A) (A)
                 (A) (A) (A) (A) (A) (A) (A) (A) (A) (A) (A) (A)
                 (A) (A) (A) (A) (A) (A) (A) (A) (A) (A) (A) (A)
                 (A) (A) (A) (A) (A) (A) (A) (A) (A) (A) (A) (A)
                 (A) (A) (A) (A) (A) (A) (A) (A) (A) (A) (A) (A)
                 (A) (A) (A) (A) (A) (A) (A) (A) (A) (A) (A) (A)
                 (A) (A) (A) (A) (A) (A) (A) (A) (A) (A) (A) (A)
                 (A) (A) (A) (A) (A) (A) (A) (A) (A) (A) (A) (A)
                 (A) (A) (A) (A) (A) (A) (A) (A) (A) (A) (A) (A)
                 (A) (A) (A) (A) (A) (A) (A) (A) (A) (A) (A) (A)
                 (A) (A) (A) (A) (A) (A) (A) (A) (A) (A) (A) (A)
                 (A) (A) (A) (A) (A) (A) (A) (A) (A) (A) (A) (A)
                 (A) (A) (A) (A) (A) (A) (A) (A) (A) (A) (A) (A)
                 (A) (A) (A) (A) (A) (A) (A) (A) (A) (A) (A) (A)
                 (A) (A) (A) (A) (A) (A) (A) (A) (A) (A) (A) (A)
                 (A) (A) (A) (A) (A) (A) (A) (A) (A) (A) (A) (A)
                 (A) (A) (A) (A) (A) (A) (A) (A) (A) (A) (A) (A)
                 (A) (A) (A) (A) (A) (A) (A) (A) (A) (A) (A) (A)
                 (A) (A) (A) (A) (A) (A) (A) (A) (A) (A) (A) (A)
                 (A) (A) (A) (A) (A) (A) (A) (A) (A) (A) (A) (A)
                 (A) (A) (A) (A) (A) (A) (A) (A) (A) (A) (A) (A)
                 (A) (A) (A) (A) (A) (A) (A) (A) (A) (A) (A) (A)
                 (A) (A) (A) (A) (A) (A) (A) (A) (A) (A) (A) (A)
                 (A) (A) (A) (A) (A) (A) (A) (A) (A) (A) (A) (A)
                 (A) (A) (A) (A) (A) (A) (A) (A) (A) (A) (A) (A)
                 (A) (A) (A) (A) (A) (A) (A) (A) (A) (A) (A) (A)
                 (A) (A) (A) (A) (A) (A) (A) (A) (A) (A) (A) (A)
                 (A) (A) (A) (A) (A) (A) (A) (A) (A) (A) (A) (A)
                 (A) (A) (A) (A) (A) (A) (A) (A) (A) (A) (A) (A)
                 (A) (A) (A) (A) (A) (A) (A) (A) (A) (A) (A) (A)
                 (A) (A) (A) (A) (A) (A) (A) (A) (A) (A) (A) (A)
                 (A) (A) (A) (A) (A) (A) (A) (A) (A) (A) (A) (A)
                 (A) (A) (A) (A) (A) (A) (A) (A) (A) (A) (A) (A)
                 (A) (A) (A) (A) (A) (A) (A) (A) (A) (A) (A) (A)
                 (A) (A) (A) (A) (A) (A) (A) (A) (A) (A) (A) (A)
                 (A) (A) (A) (A) (A) (A) (A) (A) (A) (A) (A) (A)
                 (A) (A) (A) (A) (A) (A) (A)
 The electronic state is 1-A.
 Alpha  occ. eigenvalues --  -19.25636 -19.21933 -19.20579 -14.52493 -14.52308
 Alpha  occ. eigenvalues --  -14.48906 -14.48622 -14.47909 -14.47596 -14.46895
 Alpha  occ. eigenvalues --  -14.46671 -14.45523 -14.44607 -14.44489 -14.42100
 Alpha  occ. eigenvalues --  -14.42069 -14.41028 -14.40519 -14.40388 -14.39938
 Alpha  occ. eigenvalues --  -10.45297 -10.41277 -10.40229 -10.40053 -10.38234
 Alpha  occ. eigenvalues --  -10.38083 -10.37970 -10.37324 -10.35946 -10.35053
 Alpha  occ. eigenvalues --  -10.34860 -10.34436 -10.33876 -10.33467 -10.33270
 Alpha  occ. eigenvalues --  -10.32843 -10.32660 -10.32601 -10.31119 -10.31049
 Alpha  occ. eigenvalues --  -10.30192 -10.28187 -10.27865  -1.19220  -1.15265
 Alpha  occ. eigenvalues --   -1.13215  -1.12931  -1.10660  -1.10524  -1.09609
 Alpha  occ. eigenvalues --   -1.09157  -1.08575  -1.05087  -1.04587  -1.02282
 Alpha  occ. eigenvalues --   -1.01072  -1.00021  -0.99753  -0.98590  -0.97097
 Alpha  occ. eigenvalues --   -0.96694  -0.96200  -0.92281  -0.91085  -0.87730
 Alpha  occ. eigenvalues --   -0.85953  -0.84207  -0.83407  -0.83221  -0.82600
 Alpha  occ. eigenvalues --   -0.81623  -0.78827  -0.77206  -0.74998  -0.74688
 Alpha  occ. eigenvalues --   -0.73662  -0.73204  -0.72373  -0.70632  -0.70451
 Alpha  occ. eigenvalues --   -0.67419  -0.67032  -0.66428  -0.65770  -0.64489
 Alpha  occ. eigenvalues --   -0.64386  -0.63774  -0.62675  -0.62203  -0.61802
 Alpha  occ. eigenvalues --   -0.60728  -0.60350  -0.60108  -0.59499  -0.59348
 Alpha  occ. eigenvalues --   -0.59270  -0.58375  -0.56721  -0.56101  -0.55883
 Alpha  occ. eigenvalues --   -0.55537  -0.55371  -0.55050  -0.54482  -0.54202
 Alpha  occ. eigenvalues --   -0.53780  -0.53654  -0.53533  -0.53079  -0.52976
 Alpha  occ. eigenvalues --   -0.52899  -0.52259  -0.51124  -0.50250  -0.50120
 Alpha  occ. eigenvalues --   -0.49978  -0.49596  -0.49440  -0.49285  -0.48849
 Alpha  occ. eigenvalues --   -0.48419  -0.48355  -0.48214  -0.47791  -0.47292
 Alpha  occ. eigenvalues --   -0.46355  -0.45722  -0.45435  -0.44288  -0.43669
 Alpha  occ. eigenvalues --   -0.40823  -0.40645  -0.39271  -0.37772  -0.37730
 Alpha  occ. eigenvalues --   -0.37348  -0.37336  -0.36488  -0.35714  -0.34960
 Alpha  occ. eigenvalues --   -0.34546  -0.34001  -0.33189  -0.32929  -0.32769
 Alpha  occ. eigenvalues --   -0.32687  -0.32552  -0.32142  -0.31922  -0.30295
 Alpha  occ. eigenvalues --   -0.30184  -0.29930  -0.25564  -0.25279
 Alpha virt. eigenvalues --    0.02556   0.04329   0.06616   0.08520   0.08878
 Alpha virt. eigenvalues --    0.09181   0.09740   0.10427   0.11380   0.11503
 Alpha virt. eigenvalues --    0.13283   0.14487   0.14710   0.14753   0.15072
 Alpha virt. eigenvalues --    0.15637   0.16382   0.17090   0.17126   0.17518
 Alpha virt. eigenvalues --    0.18546   0.19722   0.19818   0.20343   0.20726
 Alpha virt. eigenvalues --    0.20921   0.20980   0.21093   0.21313   0.21841
 Alpha virt. eigenvalues --    0.22231   0.22936   0.23359   0.23575   0.23741
 Alpha virt. eigenvalues --    0.24293   0.24434   0.24609   0.24761   0.25072
 Alpha virt. eigenvalues --    0.25364   0.25912   0.27348   0.27682   0.28000
 Alpha virt. eigenvalues --    0.29025   0.29239   0.29539   0.30585   0.30968
 Alpha virt. eigenvalues --    0.31518   0.32033   0.32251   0.33077   0.33266
 Alpha virt. eigenvalues --    0.33841   0.34320   0.34789   0.36029   0.36105
 Alpha virt. eigenvalues --    0.36633   0.37289   0.37745   0.38716   0.39319
 Alpha virt. eigenvalues --    0.39637   0.40248   0.40669   0.41458   0.41683
 Alpha virt. eigenvalues --    0.42030   0.42575   0.43290   0.43797   0.44042
 Alpha virt. eigenvalues --    0.44517   0.45697   0.46101   0.46524   0.47138
 Alpha virt. eigenvalues --    0.47309   0.47677   0.48314   0.48647   0.49017
 Alpha virt. eigenvalues --    0.49853   0.50216   0.50505   0.50911   0.50996
 Alpha virt. eigenvalues --    0.51377   0.51589   0.52245   0.52735   0.52872
 Alpha virt. eigenvalues --    0.53970   0.54325   0.54440   0.54882   0.55332
 Alpha virt. eigenvalues --    0.55856   0.56276   0.56563   0.57153   0.57449
 Alpha virt. eigenvalues --    0.57795   0.58257   0.58279   0.59335   0.59517
 Alpha virt. eigenvalues --    0.59829   0.60174   0.60244   0.60507   0.60982
 Alpha virt. eigenvalues --    0.61279   0.61682   0.62112   0.62799   0.62848
 Alpha virt. eigenvalues --    0.63282   0.63672   0.63980   0.65155   0.65369
 Alpha virt. eigenvalues --    0.65790   0.65912   0.66499   0.66799   0.67011
 Alpha virt. eigenvalues --    0.67196   0.67341   0.67731   0.68666   0.68974
 Alpha virt. eigenvalues --    0.69534   0.69841   0.70717   0.71104   0.71236
 Alpha virt. eigenvalues --    0.71874   0.72423   0.72748   0.72999   0.73733
 Alpha virt. eigenvalues --    0.73829   0.74299   0.74407   0.74853   0.75062
 Alpha virt. eigenvalues --    0.75305   0.75851   0.76112   0.76505   0.76741
 Alpha virt. eigenvalues --    0.77159   0.77667   0.77772   0.78458   0.78864
 Alpha virt. eigenvalues --    0.79013   0.79221   0.79759   0.80398   0.80585
 Alpha virt. eigenvalues --    0.80780   0.81300   0.81608   0.82256   0.82729
 Alpha virt. eigenvalues --    0.83467   0.83653   0.84256   0.84611   0.84807
 Alpha virt. eigenvalues --    0.84953   0.85915   0.86222   0.86765   0.87548
 Alpha virt. eigenvalues --    0.87960   0.88205   0.88947   0.89319   0.89616
 Alpha virt. eigenvalues --    0.90018   0.90375   0.91584   0.91850   0.92051
 Alpha virt. eigenvalues --    0.92180   0.92599   0.92745   0.93306   0.93868
 Alpha virt. eigenvalues --    0.94286   0.94475   0.95216   0.95402   0.96191
 Alpha virt. eigenvalues --    0.96714   0.97315   0.97739   0.98005   0.98268
 Alpha virt. eigenvalues --    0.98830   0.99202   1.00078   1.00175   1.00629
 Alpha virt. eigenvalues --    1.00812   1.01378   1.01669   1.01772   1.02634
 Alpha virt. eigenvalues --    1.02762   1.03093   1.04098   1.04389   1.04595
 Alpha virt. eigenvalues --    1.05241   1.05793   1.06277   1.06967   1.07178
 Alpha virt. eigenvalues --    1.07435   1.08088   1.08802   1.09024   1.09469
 Alpha virt. eigenvalues --    1.10655   1.11120   1.11584   1.12943   1.13146
 Alpha virt. eigenvalues --    1.13498   1.13699   1.13794   1.14552   1.14917
 Alpha virt. eigenvalues --    1.15616   1.15968   1.16394   1.17168   1.17396
 Alpha virt. eigenvalues --    1.17703   1.17942   1.18189   1.18712   1.18857
 Alpha virt. eigenvalues --    1.19572   1.19906   1.20259   1.20488   1.20992
 Alpha virt. eigenvalues --    1.21253   1.22255   1.22645   1.22915   1.23210
 Alpha virt. eigenvalues --    1.23435   1.23735   1.23910   1.24222   1.24604
 Alpha virt. eigenvalues --    1.25002   1.25450   1.26238   1.26574   1.26654
 Alpha virt. eigenvalues --    1.27835   1.28143   1.29128   1.29423   1.30189
 Alpha virt. eigenvalues --    1.30554   1.31382   1.31931   1.32159   1.32892
 Alpha virt. eigenvalues --    1.33370   1.34159   1.34404   1.35269   1.35832
 Alpha virt. eigenvalues --    1.36566   1.37649   1.37979   1.38358   1.39703
 Alpha virt. eigenvalues --    1.40451   1.41241   1.41891   1.42130   1.43217
 Alpha virt. eigenvalues --    1.43887   1.45345   1.45499   1.46361   1.47535
 Alpha virt. eigenvalues --    1.47665   1.48241   1.49386   1.49790   1.50678
 Alpha virt. eigenvalues --    1.51132   1.51323   1.52311   1.53328   1.53412
 Alpha virt. eigenvalues --    1.53845   1.54618   1.55955   1.56600   1.56878
 Alpha virt. eigenvalues --    1.57396   1.58242   1.58560   1.59530   1.59862
 Alpha virt. eigenvalues --    1.61282   1.61651   1.61916   1.62246   1.62823
 Alpha virt. eigenvalues --    1.63003   1.63687   1.64582   1.64852   1.65393
 Alpha virt. eigenvalues --    1.65552   1.66369   1.67222   1.68453   1.68733
 Alpha virt. eigenvalues --    1.68941   1.69549   1.69621   1.70208   1.70962
 Alpha virt. eigenvalues --    1.71640   1.72237   1.72354   1.72800   1.73170
 Alpha virt. eigenvalues --    1.73792   1.74038   1.74340   1.74999   1.75343
 Alpha virt. eigenvalues --    1.75687   1.75886   1.76158   1.76179   1.76713
 Alpha virt. eigenvalues --    1.76845   1.77091   1.77263   1.77817   1.78366
 Alpha virt. eigenvalues --    1.78827   1.79104   1.79399   1.79653   1.79929
 Alpha virt. eigenvalues --    1.80300   1.80904   1.80997   1.81623   1.81846
 Alpha virt. eigenvalues --    1.82246   1.82746   1.82782   1.83480   1.84239
 Alpha virt. eigenvalues --    1.84427   1.84877   1.85269   1.85490   1.86203
 Alpha virt. eigenvalues --    1.86526   1.86863   1.87594   1.88402   1.88581
 Alpha virt. eigenvalues --    1.88859   1.89202   1.89722   1.90382   1.90847
 Alpha virt. eigenvalues --    1.91482   1.91724   1.92897   1.93039   1.93334
 Alpha virt. eigenvalues --    1.94237   1.94548   1.95521   1.96224   1.96944
 Alpha virt. eigenvalues --    1.97702   1.98163   1.98806   1.99952   2.00373
 Alpha virt. eigenvalues --    2.01082   2.01643   2.02222   2.02726   2.02760
 Alpha virt. eigenvalues --    2.03576   2.03959   2.04969   2.06059   2.06283
 Alpha virt. eigenvalues --    2.07061   2.07534   2.07940   2.08375   2.09719
 Alpha virt. eigenvalues --    2.09792   2.10308   2.10768   2.11525   2.11544
 Alpha virt. eigenvalues --    2.12913   2.14211   2.14308   2.15435   2.16297
 Alpha virt. eigenvalues --    2.17678   2.18191   2.19550   2.20255   2.20838
 Alpha virt. eigenvalues --    2.21465   2.22251   2.22528   2.22967   2.23321
 Alpha virt. eigenvalues --    2.24144   2.24636   2.25157   2.25402   2.26392
 Alpha virt. eigenvalues --    2.26712   2.27395   2.28269   2.28888   2.29692
 Alpha virt. eigenvalues --    2.30205   2.30365   2.30841   2.31451   2.31876
 Alpha virt. eigenvalues --    2.32163   2.33035   2.33416   2.33742   2.33949
 Alpha virt. eigenvalues --    2.34445   2.35276   2.35358   2.35755   2.37092
 Alpha virt. eigenvalues --    2.37423   2.37891   2.39105   2.39476   2.40041
 Alpha virt. eigenvalues --    2.41672   2.42222   2.43124   2.43512   2.43649
 Alpha virt. eigenvalues --    2.44301   2.44945   2.45268   2.45698   2.45972
 Alpha virt. eigenvalues --    2.47304   2.47970   2.49373   2.50659   2.51410
 Alpha virt. eigenvalues --    2.52016   2.52581   2.54555   2.54913   2.55573
 Alpha virt. eigenvalues --    2.56506   2.56707   2.57397   2.58384   2.59841
 Alpha virt. eigenvalues --    2.60553   2.61801   2.62202   2.62716   2.62838
 Alpha virt. eigenvalues --    2.63226   2.64197   2.64866   2.65150   2.65563
 Alpha virt. eigenvalues --    2.65981   2.66485   2.67466   2.67905   2.68523
 Alpha virt. eigenvalues --    2.69038   2.69835   2.70405   2.70847   2.72026
 Alpha virt. eigenvalues --    2.72532   2.74275   2.74971   2.76237   2.76407
 Alpha virt. eigenvalues --    2.76821   2.77012   2.78113   2.78626   2.79122
 Alpha virt. eigenvalues --    2.79297   2.79796   2.80228   2.80409   2.80890
 Alpha virt. eigenvalues --    2.81775   2.81885   2.82147   2.83563   2.83575
 Alpha virt. eigenvalues --    2.84118   2.85044   2.85915   2.86517   2.86893
 Alpha virt. eigenvalues --    2.87344   2.88054   2.88768   2.90141   2.92392
 Alpha virt. eigenvalues --    2.93466   2.94564   2.95063   2.96373   2.98284
 Alpha virt. eigenvalues --    3.00082   3.00694   3.01077   3.03671   3.04726
 Alpha virt. eigenvalues --    3.05528   3.08871   3.10656   3.12385   3.14725
 Alpha virt. eigenvalues --    3.15881   3.16106   3.16758   3.17240   3.19515
 Alpha virt. eigenvalues --    3.20494   3.22468   3.23537   3.24670   3.25162
 Alpha virt. eigenvalues --    3.44075   3.47120   3.47324   3.49191   3.50292
 Alpha virt. eigenvalues --    3.53606   3.54429   3.56147   3.57615   3.59946
 Alpha virt. eigenvalues --    3.62870   3.70613   3.74739
          Condensed to atoms (all electrons):
 Mulliken charges:
               1
     1  N   -0.312662
     2  C    0.182868
     3  C    0.052704
     4  N   -0.256697
     5  C    0.141364
     6  H    0.025491
     7  N   -0.299551
     8  C    0.133505
     9  H    0.009322
    10  N   -0.286537
    11  C    0.259589
    12  C    0.100614
    13  N   -0.065881
    14  H    0.114217
    15  H    0.082582
    16  H    0.021651
    17  H    0.031036
    18  H    0.028222
    19  N   -0.311004
    20  C    0.252329
    21  C    0.180745
    22  N   -0.120620
    23  H    0.116418
    24  H    0.117108
    25  N   -0.311978
    26  C    0.247481
    27  N   -0.147870
    28  H    0.118724
    29  C    0.195961
    30  O   -0.321671
    31  C   -0.014810
    32  N   -0.228350
    33  C    0.128892
    34  H    0.022048
    35  H    0.028581
    36  H    0.029329
    37  H    0.024652
    38  H    0.060890
    39  H    0.059714
    40  H    0.074152
    41  H    0.028235
    42  C   -0.124826
    43  O   -0.262991
    44  C    0.171297
    45  H    0.132442
    46  N   -0.123824
    47  O   -0.346718
    48  C    0.346245
    49  H    0.043166
    50  C    0.166036
    51  C    0.036728
    52  N   -0.277325
    53  H    0.034455
    54  H    0.041183
    55  H    0.029097
    56  H    0.118062
    57  H    0.115360
    58  N   -0.058255
    59  C    0.091140
    60  C    0.254763
    61  N   -0.275065
    62  H    0.035648
    63  C    0.177063
    64  N   -0.315340
    65  H    0.039006
    66  C    0.139008
    67  N   -0.266258
    68  C    0.021877
    69  C    0.180155
    70  N   -0.312922
 Sum of Mulliken charges =  -0.00000
 Mulliken charges with hydrogens summed into heavy atoms:
               1
     1  N   -0.312662
     2  C    0.263776
     3  C    0.052704
     4  N   -0.256697
     5  C    0.166855
     7  N   -0.299551
     8  C    0.142827
    10  N   -0.286537
    11  C    0.259589
    12  C    0.100614
    13  N    0.130918
    19  N   -0.311004
    20  C    0.252329
    21  C    0.263307
    22  N    0.112906
    25  N   -0.311978
    26  C    0.247481
    27  N   -0.029146
    29  C    0.195961
    30  O   -0.321671
    31  C   -0.014810
    32  N   -0.228350
    33  C    0.150940
    42  C   -0.096591
    43  O   -0.262991
    44  C    0.171297
    46  N    0.008618
    47  O   -0.346718
    48  C    0.346245
    50  C    0.209202
    51  C    0.231485
    52  N   -0.277325
    58  N    0.175166
    59  C    0.091140
    60  C    0.254763
    61  N   -0.275065
    63  C    0.212711
    64  N   -0.315340
    66  C    0.178014
    67  N   -0.266258
    68  C    0.021877
    69  C    0.284891
    70  N   -0.312922
 Electronic spatial extent (au):  <R**2>=          22376.3238
 Charge=             -0.0000 electrons
 Dipole moment (field-independent basis, Debye):
    X=             -8.6186    Y=              6.4643    Z=             -0.6255  Tot=             10.7916
 Quadrupole moment (field-independent basis, Debye-Ang):
   XX=           -163.4574   YY=           -214.7790   ZZ=           -250.8784
   XY=              4.1294   XZ=            -11.3654   YZ=              3.3874
 Traceless Quadrupole moment (field-independent basis, Debye-Ang):
   XX=             46.2475   YY=             -5.0740   ZZ=            -41.1735
   XY=              4.1294   XZ=            -11.3654   YZ=              3.3874
 Octapole moment (field-independent basis, Debye-Ang**2):
  XXX=             72.8580  YYY=            147.0941  ZZZ=             18.4425  XYY=            -77.2663
  XXY=             75.0749  XXZ=            -27.7241  XZZ=            -62.5752  YZZ=             24.2579
  YYZ=            -35.2813  XYZ=             87.0370
 Hexadecapole moment (field-independent basis, Debye-Ang**3):
 XXXX=         -15104.9077 YYYY=          -6531.5581 ZZZZ=          -4122.5552 XXXY=           -470.8516
 XXXZ=           -213.4341 YYYX=            109.9353 YYYZ=             29.0761 ZZZX=            -32.7108
 ZZZY=            -51.7005 XXYY=          -3006.6549 XXZZ=          -3560.3273 YYZZ=          -1839.5953
 XXYZ=           -112.5218 YYXZ=             90.6307 ZZXY=            -78.9748
 N-N= 5.438697390911D+03 E-N=-1.565816376660D+04  KE= 2.037663611618D+03
 No NMR shielding tensors so no spin-rotation constants.
 Leave Link  601 at Wed Jan 24 13:20:29 2018, MaxMem=  4294967296 cpu:              49.6 elap:               1.7
 (Enter /share/apps/g16/l9999.exe)
 1\1\GINC-COMPUTE-0-3\SP\RwB97XD\CC-pVDZ\C23H27N17O3\SATYA\24-Jan-2018\
 0\\#p wb97xd/cc-pvdz sp scf=(maxcycles=20)\\Base pair stacking\\0,1\N,
 0,4.6374,-1.83067,-5.65565\C,0,5.91991,-1.10119,-5.68777\C,0,2.51082,-
 2.3617,-5.83725\N,0,3.15053,-3.48692,-5.33786\C,0,4.40611,-3.12196,-5.
 24844\H,0,5.2133,-3.76066,-4.88867\N,0,0.8626,-0.87513,-6.63501\C,0,1.
 84623,0.01946,-6.77564\H,0,1.54019,0.98986,-7.16411\N,0,3.14503,-0.104
 13,-6.50969\C,0,3.41438,-1.33275,-6.03814\C,0,1.16598,-2.10218,-6.1581
 6\N,0,0.18547,-2.99654,-6.01708\H,0,0.36417,-3.91701,-5.66777\H,0,-0.7
 6063,-2.77711,-6.25559\H,0,6.56224,-1.57977,-6.28656\H,0,5.76923,-0.17
 57,-6.03401\H,0,6.30096,-1.05194,-4.76454\N,0,2.42101,2.73002,-3.18425
 \C,0,1.21332,2.08759,-3.31396\C,0,2.63793,4.1814,-3.34902\N,0,-2.19889
 ,2.19759,-3.95147\H,0,-2.96142,1.55302,-3.99974\H,0,-2.4071,3.16053,-4
 .12499\N,0,0.03143,2.66959,-3.61135\C,0,-0.9528,1.78992,-3.66693\N,0,-
 0.79385,0.4429,-3.44833\H,0,-1.60303,-0.15558,-3.51159\C,0,0.41287,-0.
 17776,-3.14098\O,0,0.44795,-1.40152,-2.96231\C,0,1.47954,0.75449,-3.07
 777\N,0,2.82724,0.56385,-2.80525\C,0,3.34458,1.76012,-2.87935\H,0,4.39
 819,1.99199,-2.71992\H,0,3.28927,4.34075,-4.09007\H,0,1.76932,4.62316,
 -3.56955\H,0,2.99936,4.56463,-2.49971\H,0,-5.88423,-2.67188,-4.6035\H,
 0,-6.07803,-2.68381,-2.85223\H,0,-5.25788,-1.33466,-3.63868\H,0,-2.846
 25,-6.20469,-3.40497\C,0,-2.88715,-5.1154,-3.40208\O,0,-0.54501,-4.844
 62,-3.14104\C,0,-1.67385,-4.36954,-3.26273\H,0,-1.00279,-2.43813,-3.17
 531\N,0,-1.83758,-2.99901,-3.27151\O,0,-3.06067,-1.08948,-3.39386\C,0,
 -3.01616,-2.30714,-3.39723\H,0,-5.0027,-4.98951,-3.63533\C,0,-4.05215,
 -4.46896,-3.5266\C,0,-5.42493,-2.40123,-3.66443\N,0,-4.14203,-3.09627,
 -3.52719\H,0,-6.38883,1.39259,-8.86133\H,0,-5.27233,1.79747,-7.74258\H
 ,0,-6.83054,1.59094,-7.30281\H,0,-3.05389,-4.7142,-6.28241\H,0,-4.6941
 ,-4.68538,-6.75038\N,0,-3.84776,-4.18113,-6.57526\C,0,-3.7818,-2.85669
 ,-6.72585\C,0,-4.64573,-0.70147,-7.24584\N,0,-3.49586,-0.0507,-7.00352
 \H,0,-1.57743,-0.45822,-6.4084\C,0,-2.54678,-0.90476,-6.62572\N,0,-2.6
 1087,-2.23161,-6.47429\H,0,-7.74812,-1.07161,-8.07671\C,0,-6.71312,-1.
 21571,-7.76533\N,0,-6.17941,-2.37472,-7.46613\C,0,-4.86874,-2.0629,-7.
 13497\C,0,-6.10429,1.26951,-7.9106\N,0,-5.8417,-0.15983,-7.6536\\Versi
 on=EM64L-G16RevA.03\State=1-A\HF=-2048.7476554\RMSD=6.906e-09\Dipole=-
 3.8275172,1.6324672,-0.8435091\Quadrupole=31.5115545,-0.0607691,-31.45
 07854,11.7806683,2.8013314,4.0301133\PG=C01 [X(C23H27N17O3)]\\@


 ... IT CAN BE VERY DIFFICULT, IN THESE COMPLEX TIMES,
 TO UNDERSTAND JUST HOW SCIENTISTS DO WHAT THEY DO.

                     DON MOSER IN THE FEBRUARY 1979 SMITHSONIAN
 Job cpu time:       0 days  5 hours 43 minutes 57.1 seconds.
 Elapsed time:       0 days  0 hours 11 minutes 10.4 seconds.
 File lengths (MBytes):  RWF=    298 Int=      0 D2E=      0 Chk=     33 Scr=      1
 Normal termination of Gaussian 16 at Wed Jan 24 13:20:30 2018.
