 Entering Gaussian System, Link 0=g16
 Input=str50.5.1.0.com
 Output=str50.5.1.0.log
 Initial command:
 /share/apps/g16/l1.exe "/state/partition1/scr/Gau-7352.inp" -scrdir="/state/partition1/scr/"
 Entering Link 1 = /share/apps/g16/l1.exe PID=      7353.
  
 Copyright (c) 1988,1990,1992,1993,1995,1998,2003,2009,2016,
            Gaussian, Inc.  All Rights Reserved.
  
 This is part of the Gaussian(R) 16 program.  It is based on
 the Gaussian(R) 09 system (copyright 2009, Gaussian, Inc.),
 the Gaussian(R) 03 system (copyright 2003, Gaussian, Inc.),
 the Gaussian(R) 98 system (copyright 1998, Gaussian, Inc.),
 the Gaussian(R) 94 system (copyright 1995, Gaussian, Inc.),
 the Gaussian 92(TM) system (copyright 1992, Gaussian, Inc.),
 the Gaussian 90(TM) system (copyright 1990, Gaussian, Inc.),
 the Gaussian 88(TM) system (copyright 1988, Gaussian, Inc.),
 the Gaussian 86(TM) system (copyright 1986, Carnegie Mellon
 University), and the Gaussian 82(TM) system (copyright 1983,
 Carnegie Mellon University). Gaussian is a federally registered
 trademark of Gaussian, Inc.
  
 This software contains proprietary and confidential information,
 including trade secrets, belonging to Gaussian, Inc.
  
 This software is provided under written license and may be
 used, copied, transmitted, or stored only in accord with that
 written license.
  
 The following legend is applicable only to US Government
 contracts under FAR:
  
                    RESTRICTED RIGHTS LEGEND
  
 Use, reproduction and disclosure by the US Government is
 subject to restrictions as set forth in subparagraphs (a)
 and (c) of the Commercial Computer Software - Restricted
 Rights clause in FAR 52.227-19.
  
 Gaussian, Inc.
 340 Quinnipiac St., Bldg. 40, Wallingford CT 06492
  
  
 ---------------------------------------------------------------
 Warning -- This program may not be used in any manner that
 competes with the business of Gaussian, Inc. or will provide
 assistance to any competitor of Gaussian, Inc.  The licensee
 of this program is prohibited from giving any competitor of
 Gaussian, Inc. access to this program.  By using this program,
 the user acknowledges that Gaussian, Inc. is engaged in the
 business of creating and licensing software in the field of
 computational chemistry and represents and warrants to the
 licensee that it is not a competitor of Gaussian, Inc. and that
 it will not use this program in any manner prohibited above.
 ---------------------------------------------------------------
  

 Cite this work as:
 Gaussian 16, Revision A.03,
 M. J. Frisch, G. W. Trucks, H. B. Schlegel, G. E. Scuseria, 
 M. A. Robb, J. R. Cheeseman, G. Scalmani, V. Barone, 
 G. A. Petersson, H. Nakatsuji, X. Li, M. Caricato, A. V. Marenich, 
 J. Bloino, B. G. Janesko, R. Gomperts, B. Mennucci, H. P. Hratchian, 
 J. V. Ortiz, A. F. Izmaylov, J. L. Sonnenberg, D. Williams-Young, 
 F. Ding, F. Lipparini, F. Egidi, J. Goings, B. Peng, A. Petrone, 
 T. Henderson, D. Ranasinghe, V. G. Zakrzewski, J. Gao, N. Rega, 
 G. Zheng, W. Liang, M. Hada, M. Ehara, K. Toyota, R. Fukuda, 
 J. Hasegawa, M. Ishida, T. Nakajima, Y. Honda, O. Kitao, H. Nakai, 
 T. Vreven, K. Throssell, J. A. Montgomery, Jr., J. E. Peralta, 
 F. Ogliaro, M. J. Bearpark, J. J. Heyd, E. N. Brothers, K. N. Kudin, 
 V. N. Staroverov, T. A. Keith, R. Kobayashi, J. Normand, 
 K. Raghavachari, A. P. Rendell, J. C. Burant, S. S. Iyengar, 
 J. Tomasi, M. Cossi, J. M. Millam, M. Klene, C. Adamo, R. Cammi, 
 J. W. Ochterski, R. L. Martin, K. Morokuma, O. Farkas, 
 J. B. Foresman, and D. J. Fox, Gaussian, Inc., Wallingford CT, 2016.
 
 ******************************************
 Gaussian 16:  EM64L-G16RevA.03 25-Dec-2016
                25-Jan-2018 
 ******************************************
 %nprocshared=32
 Will use up to   32 processors via shared memory.
 %mem=32GB
 %chk=allatoms_t.chk
 ---------------------------------------
 #p wb97xd/cc-pvdz sp scf=(maxcycles=20)
 ---------------------------------------
 1/38=1,172=1/1;
 2/12=2,17=6,18=5,40=1/2;
 3/5=16,11=2,25=1,30=1,74=-58/1,2,3;
 4//1;
 5/5=2,7=20,38=5/2;
 6/7=2,8=2,9=2,10=2,28=1/1;
 99/5=1,9=1/99;
 Leave Link    1 at Thu Jan 25 02:40:45 2018, MaxMem=  4294967296 cpu:               7.3 elap:               0.2
 (Enter /share/apps/g16/l101.exe)
 ------------------
 Base pair stacking
 ------------------
 Symbolic Z-matrix:
 Charge =  0 Multiplicity = 1
 N                     4.90987  -1.03625  -6.04234 
 C                     6.17916  -0.2865   -6.11165 
 C                     2.77907  -1.57949  -6.08546 
 N                     3.46959  -2.74155  -5.77319 
 C                     4.72569  -2.36776  -5.75971 
 H                     5.56688  -3.02833  -5.54762 
 N                     1.05439  -0.04252  -6.56101 
 C                     2.01495   0.87817  -6.69223 
 H                     1.66794   1.87984  -6.94226 
 N                     3.33361   0.74793  -6.56156 
 C                     3.65345  -0.52002  -6.25425 
 C                     1.4086   -1.30892  -6.2514 
 N                     0.45119  -2.22939  -6.11999 
 H                     0.66745  -3.17927  -5.89157 
 H                    -0.51436  -2.00102  -6.24532 
 H                     6.76615  -0.68654  -6.81562 
 H                     5.99104   0.6685   -6.33904 
 H                     6.64399  -0.3315   -5.2274 
 N                     2.48058   3.18533  -3.219 
 C                     1.26732   2.54352  -3.28315 
 C                     2.68371   4.64212  -3.35019 
 N                    -2.18199   2.66323  -3.67004 
 H                    -2.94539   2.01807  -3.68502 
 H                    -2.40305   3.63072  -3.79579 
 N                     0.06655   3.13114  -3.47526 
 C                    -0.91828   2.2505   -3.4895 
 N                    -0.74274   0.89748  -3.32813 
 H                    -1.5538    0.29872  -3.35316 
 C                     0.48354   0.27098  -3.12916 
 O                     0.53255  -0.95794  -2.99458 
 C                     1.5511    1.20419  -3.11148 
 N                     2.91508   1.0091   -2.94295 
 C                     3.42461   2.20892  -3.01386 
 H                     4.48673   2.43888  -2.92279 
 H                     3.27996   4.82828  -4.13033 
 H                     1.80107   5.08806  -3.49287 
 H                     3.10486   4.99802  -2.51666 
 H                    -5.89997  -2.19416  -4.21865 
 H                    -5.96742  -2.26515  -2.45937 
 H                    -5.20719  -0.88776  -3.25701 
 H                    -2.78032  -5.75473  -3.36034 
 C                    -2.82196  -4.66629  -3.31802 
 O                    -0.46737  -4.39648  -3.21685 
 C                    -1.6025   -3.92141  -3.24121 
 H                    -0.92875  -1.99174  -3.13751 
 N                    -1.76776  -2.55191  -3.19229 
 O                    -2.99831  -0.64349  -3.16246 
 C                    -2.95299  -1.8602   -3.20982 
 H                    -4.94892  -4.53981  -3.39447 
 C                    -3.99351  -4.01998  -3.33686 
 C                    -5.37464  -1.95343  -3.30643 
 N                    -4.08453  -2.64834  -3.285 
 H                    -6.38686   2.33339  -7.85142 
 H                    -5.17389   2.63279  -6.80206 
 H                    -6.68317   2.354    -6.24668 
 H                    -2.78775  -3.96138  -6.27415 
 H                    -4.46448  -3.90902  -6.58387 
 N                    -3.60878  -3.41286  -6.4328 
 C                    -3.56558  -2.07898  -6.44267 
 C                    -4.48786   0.10538  -6.64184 
 N                    -3.32465   0.74491  -6.436 
 H                    -1.35667   0.30693  -6.06745 
 C                    -2.33913  -0.12932  -6.24269 
 N                    -2.38038  -1.46565  -6.23243 
 H                    -7.65158  -0.22357  -7.22052 
 C                    -6.59123  -0.3835   -7.02296 
 N                    -6.02462  -1.55917  -6.90282 
 C                    -4.69089  -1.26354  -6.66096 
 C                    -6.01446   2.11252  -6.95002 
 N                    -5.71999   0.66826  -6.87645 
 
 ITRead=  0  0  0  0  0  0  0  0  0  0  0  0  0  0  0  0  0  0  0  0
 ITRead=  0  0  0  0  0  0  0  0  0  0  0  0  0  0  0  0  0  0  0  0
 ITRead=  0  0  0  0  0  0  0  0  0  0  0  0  0  0  0  0  0  0  0  0
 ITRead=  0  0  0  0  0  0  0  0  0  0
 MicOpt= -1 -1 -1 -1 -1 -1 -1 -1 -1 -1 -1 -1 -1 -1 -1 -1 -1 -1 -1 -1
 MicOpt= -1 -1 -1 -1 -1 -1 -1 -1 -1 -1 -1 -1 -1 -1 -1 -1 -1 -1 -1 -1
 MicOpt= -1 -1 -1 -1 -1 -1 -1 -1 -1 -1 -1 -1 -1 -1 -1 -1 -1 -1 -1 -1
 MicOpt= -1 -1 -1 -1 -1 -1 -1 -1 -1 -1
 NAtoms=     70 NQM=       70 NQMF=       0 NMMI=      0 NMMIF=      0
                NMic=       0 NMicF=      0.
                    Isotopes and Nuclear Properties:
 (Nuclear quadrupole moments (NQMom) in fm**2, nuclear magnetic moments (NMagM)
  in nuclear magnetons)

  Atom         1           2           3           4           5           6           7           8           9          10
 IAtWgt=          14          12          12          14          12           1          14          12           1          14
 AtmWgt=  14.0030740  12.0000000  12.0000000  14.0030740  12.0000000   1.0078250  14.0030740  12.0000000   1.0078250  14.0030740
 NucSpn=           2           0           0           2           0           1           2           0           1           2
 AtZEff=  -0.0000000  -0.0000000  -0.0000000  -0.0000000  -0.0000000  -0.0000000  -0.0000000  -0.0000000  -0.0000000  -0.0000000
 NQMom=    2.0440000   0.0000000   0.0000000   2.0440000   0.0000000   0.0000000   2.0440000   0.0000000   0.0000000   2.0440000
 NMagM=    0.4037610   0.0000000   0.0000000   0.4037610   0.0000000   2.7928460   0.4037610   0.0000000   2.7928460   0.4037610
 AtZNuc=   7.0000000   6.0000000   6.0000000   7.0000000   6.0000000   1.0000000   7.0000000   6.0000000   1.0000000   7.0000000

  Atom        11          12          13          14          15          16          17          18          19          20
 IAtWgt=          12          12          14           1           1           1           1           1          14          12
 AtmWgt=  12.0000000  12.0000000  14.0030740   1.0078250   1.0078250   1.0078250   1.0078250   1.0078250  14.0030740  12.0000000
 NucSpn=           0           0           2           1           1           1           1           1           2           0
 AtZEff=  -0.0000000  -0.0000000  -0.0000000  -0.0000000  -0.0000000  -0.0000000  -0.0000000  -0.0000000  -0.0000000  -0.0000000
 NQMom=    0.0000000   0.0000000   2.0440000   0.0000000   0.0000000   0.0000000   0.0000000   0.0000000   2.0440000   0.0000000
 NMagM=    0.0000000   0.0000000   0.4037610   2.7928460   2.7928460   2.7928460   2.7928460   2.7928460   0.4037610   0.0000000
 AtZNuc=   6.0000000   6.0000000   7.0000000   1.0000000   1.0000000   1.0000000   1.0000000   1.0000000   7.0000000   6.0000000

  Atom        21          22          23          24          25          26          27          28          29          30
 IAtWgt=          12          14           1           1          14          12          14           1          12          16
 AtmWgt=  12.0000000  14.0030740   1.0078250   1.0078250  14.0030740  12.0000000  14.0030740   1.0078250  12.0000000  15.9949146
 NucSpn=           0           2           1           1           2           0           2           1           0           0
 AtZEff=  -0.0000000  -0.0000000  -0.0000000  -0.0000000  -0.0000000  -0.0000000  -0.0000000  -0.0000000  -0.0000000  -0.0000000
 NQMom=    0.0000000   2.0440000   0.0000000   0.0000000   2.0440000   0.0000000   2.0440000   0.0000000   0.0000000   0.0000000
 NMagM=    0.0000000   0.4037610   2.7928460   2.7928460   0.4037610   0.0000000   0.4037610   2.7928460   0.0000000   0.0000000
 AtZNuc=   6.0000000   7.0000000   1.0000000   1.0000000   7.0000000   6.0000000   7.0000000   1.0000000   6.0000000   8.0000000

  Atom        31          32          33          34          35          36          37          38          39          40
 IAtWgt=          12          14          12           1           1           1           1           1           1           1
 AtmWgt=  12.0000000  14.0030740  12.0000000   1.0078250   1.0078250   1.0078250   1.0078250   1.0078250   1.0078250   1.0078250
 NucSpn=           0           2           0           1           1           1           1           1           1           1
 AtZEff=  -0.0000000  -0.0000000  -0.0000000  -0.0000000  -0.0000000  -0.0000000  -0.0000000  -0.0000000  -0.0000000  -0.0000000
 NQMom=    0.0000000   2.0440000   0.0000000   0.0000000   0.0000000   0.0000000   0.0000000   0.0000000   0.0000000   0.0000000
 NMagM=    0.0000000   0.4037610   0.0000000   2.7928460   2.7928460   2.7928460   2.7928460   2.7928460   2.7928460   2.7928460
 AtZNuc=   6.0000000   7.0000000   6.0000000   1.0000000   1.0000000   1.0000000   1.0000000   1.0000000   1.0000000   1.0000000

  Atom        41          42          43          44          45          46          47          48          49          50
 IAtWgt=           1          12          16          12           1          14          16          12           1          12
 AtmWgt=   1.0078250  12.0000000  15.9949146  12.0000000   1.0078250  14.0030740  15.9949146  12.0000000   1.0078250  12.0000000
 NucSpn=           1           0           0           0           1           2           0           0           1           0
 AtZEff=  -0.0000000  -0.0000000  -0.0000000  -0.0000000  -0.0000000  -0.0000000  -0.0000000  -0.0000000  -0.0000000  -0.0000000
 NQMom=    0.0000000   0.0000000   0.0000000   0.0000000   0.0000000   2.0440000   0.0000000   0.0000000   0.0000000   0.0000000
 NMagM=    2.7928460   0.0000000   0.0000000   0.0000000   2.7928460   0.4037610   0.0000000   0.0000000   2.7928460   0.0000000
 AtZNuc=   1.0000000   6.0000000   8.0000000   6.0000000   1.0000000   7.0000000   8.0000000   6.0000000   1.0000000   6.0000000

  Atom        51          52          53          54          55          56          57          58          59          60
 IAtWgt=          12          14           1           1           1           1           1          14          12          12
 AtmWgt=  12.0000000  14.0030740   1.0078250   1.0078250   1.0078250   1.0078250   1.0078250  14.0030740  12.0000000  12.0000000
 NucSpn=           0           2           1           1           1           1           1           2           0           0
 AtZEff=  -0.0000000  -0.0000000  -0.0000000  -0.0000000  -0.0000000  -0.0000000  -0.0000000  -0.0000000  -0.0000000  -0.0000000
 NQMom=    0.0000000   2.0440000   0.0000000   0.0000000   0.0000000   0.0000000   0.0000000   2.0440000   0.0000000   0.0000000
 NMagM=    0.0000000   0.4037610   2.7928460   2.7928460   2.7928460   2.7928460   2.7928460   0.4037610   0.0000000   0.0000000
 AtZNuc=   6.0000000   7.0000000   1.0000000   1.0000000   1.0000000   1.0000000   1.0000000   7.0000000   6.0000000   6.0000000

  Atom        61          62          63          64          65          66          67          68          69          70
 IAtWgt=          14           1          12          14           1          12          14          12          12          14
 AtmWgt=  14.0030740   1.0078250  12.0000000  14.0030740   1.0078250  12.0000000  14.0030740  12.0000000  12.0000000  14.0030740
 NucSpn=           2           1           0           2           1           0           2           0           0           2
 AtZEff=  -0.0000000  -0.0000000  -0.0000000  -0.0000000  -0.0000000  -0.0000000  -0.0000000  -0.0000000  -0.0000000  -0.0000000
 NQMom=    2.0440000   0.0000000   0.0000000   2.0440000   0.0000000   0.0000000   2.0440000   0.0000000   0.0000000   2.0440000
 NMagM=    0.4037610   2.7928460   0.0000000   0.4037610   2.7928460   0.0000000   0.4037610   0.0000000   0.0000000   0.4037610
 AtZNuc=   7.0000000   1.0000000   6.0000000   7.0000000   1.0000000   6.0000000   7.0000000   6.0000000   6.0000000   7.0000000
 Leave Link  101 at Thu Jan 25 02:40:45 2018, MaxMem=  4294967296 cpu:               7.7 elap:               0.3
 (Enter /share/apps/g16/l202.exe)
 Stoichiometry    C23H27N17O3
 Framework group  C1[X(C23H27N17O3)]
 Deg. of freedom   204
 Full point group                 C1      NOp   1
 Largest Abelian subgroup         C1      NOp   1
 Largest concise Abelian subgroup C1      NOp   1
                         Standard orientation:                         
 ---------------------------------------------------------------------
 Center     Atomic      Atomic             Coordinates (Angstroms)
 Number     Number       Type             X           Y           Z
 ---------------------------------------------------------------------
      1          7           0        5.244573   -1.970503   -1.410895
      2          6           0        6.646635   -1.550481   -1.600179
      3          6           0        3.047724   -1.992544   -1.307705
      4          7           0        3.466285   -3.263041   -0.939798
      5          6           0        4.773061   -3.198917   -1.016691
      6          1           0        5.448486   -4.025704   -0.794972
      7          7           0        1.702945   -0.123032   -1.817060
      8          6           0        2.841440    0.532164   -2.066281
      9          1           0        2.722674    1.569454   -2.376439
     10          7           0        4.098716    0.100454   -1.990235
     11          6           0        4.132611   -1.184750   -1.600959
     12          6           0        1.770693   -1.414768   -1.427288
     13          7           0        0.635318   -2.070489   -1.178048
     14          1           0        0.637945   -3.027853   -0.887078
     15          1           0       -0.256126   -1.627386   -1.273624
     16          1           0        7.076177   -2.123110   -2.298572
     17          1           0        6.672571   -0.594787   -1.891893
     18          1           0        7.145157   -1.647942   -0.738804
     19          7           0        4.061142    2.880352    1.189708
     20          6           0        2.729902    2.543029    1.234953
     21          6           0        4.590297    4.235395    0.935613
     22          7           0       -0.613492    3.455242    1.008364
     23          1           0       -1.505902    3.010749    1.080923
     24          1           0       -0.609904    4.437409    0.818491
     25          7           0        1.689922    3.385993    1.056330
     26          6           0        0.527687    2.766044    1.158767
     27          7           0        0.392112    1.423371    1.416381
     28          1           0       -0.536339    1.034545    1.477637
     29          6           0        1.448194    0.537096    1.603624
     30          8           0        1.217145   -0.656911    1.831050
     31          6           0        2.703202    1.188520    1.496485
     32          7           0        3.991762    0.685605    1.613079
     33          6           0        4.761995    1.722549    1.424119
     34          1           0        5.852064    1.698441    1.445147
     35          1           0        5.160923    4.223774    0.115224
     36          1           0        3.829027    4.868502    0.801761
     37          1           0        5.136881    4.533598    1.717358
     38          1           0       -5.392265   -0.402443    1.021823
     39          1           0       -5.358613   -0.342189    2.782474
     40          1           0       -4.351447    0.760491    1.843808
     41          1           0       -3.142460   -4.540551    2.002130
     42          6           0       -2.925487   -3.473080    1.961448
     43          8           0       -0.571691   -3.765570    1.926478
     44          6           0       -1.563292   -3.036532    1.920472
     45          1           0       -0.451568   -1.320142    1.840488
     46          7           0       -1.400062   -1.666827    1.870472
     47          8           0       -2.145404    0.477509    1.811334
     48          6           0       -2.389141   -0.715472    1.856818
     49          1           0       -4.964157   -2.849130    1.979053
     50          6           0       -3.912001   -2.569064    1.949363
     51          6           0       -4.766386   -0.235598    1.885829
     52          7           0       -3.676061   -1.214769    1.898508
     53          1           0       -5.044466    3.867913   -2.924806
     54          1           0       -3.728812    3.936744   -1.962306
     55          1           0       -5.221554    4.061490   -1.314035
     56          1           0       -2.921811   -2.987943   -1.038785
     57          1           0       -4.556418   -2.557976   -1.269613
     58          7           0       -3.600375   -2.271113   -1.199537
     59          6           0       -3.247128   -0.989325   -1.315454
     60          6           0       -3.643955    1.334346   -1.639148
     61          7           0       -2.352481    1.690474   -1.540688
     62          1           0       -0.521678    0.821242   -1.235403
     63          6           0       -1.588260    0.621060   -1.328043
     64          7           0       -1.940162   -0.663541   -1.211641
     65          1           0       -6.827868    1.731450   -2.035648
     66          6           0       -5.823707    1.336749   -1.878100
     67          7           0       -5.541160    0.070215   -1.694414
     68          6           0       -4.162344    0.054783   -1.541582
     69          6           0       -4.675613    3.623114   -2.028142
     70          7           0       -4.722936    2.158069   -1.856635
 ---------------------------------------------------------------------
 Rotational constants (GHZ):           0.1207218           0.0589008           0.0516272
 Leave Link  202 at Thu Jan 25 02:40:45 2018, MaxMem=  4294967296 cpu:               0.4 elap:               0.0
 (Enter /share/apps/g16/l301.exe)
 Standard basis: CC-pVDZ (5D, 7F)
 Ernie: Thresh=  0.10000D-02 Tol=  0.10000D-05 Strict=F.
 Ernie:  86 primitive shells out of 1081 were deleted.
 There are   780 symmetry adapted cartesian basis functions of A   symmetry.
 There are   737 symmetry adapted basis functions of A   symmetry.
   737 basis functions,  1608 primitive gaussians,   780 cartesian basis functions
   154 alpha electrons      154 beta electrons
       nuclear repulsion energy      5465.0020203104 Hartrees.
 IExCor= 4639 DFT=T Ex+Corr=wB97XD ExCW=0 ScaHFX=  1.000000
 ScaDFX=  1.000000  1.000000  1.000000  1.000000 ScalE2=  1.000000  1.000000
 IRadAn=      5 IRanWt=     -1 IRanGd=            0 ICorTp=0 IEmpDi=121
 HFx  wShort=  0.000000 wLong=  0.200000 cFull=  0.222036 cShort=  0.000000 cLong=  0.777964
 DFx  wShort=  0.000000 wLong=  0.200000 cFull=  0.000000 cShort=  0.000000 cLong=  1.000000
 NAtoms=   70 NActive=   70 NUniq=   70 SFac= 1.00D+00 NAtFMM=   60 NAOKFM=T Big=T
 Integral buffers will be    131072 words long.
 Raffenetti 2 integral format.
 Two-electron integral symmetry is turned on.
 R6Disp:  Grimme-D2 Dispersion energy=       -0.0673120498 Hartrees.
 Nuclear repulsion after empirical dispersion term =     5464.9347082606 Hartrees.
 Leave Link  301 at Thu Jan 25 02:40:46 2018, MaxMem=  4294967296 cpu:               2.9 elap:               0.1
 (Enter /share/apps/g16/l302.exe)
 NPDir=0 NMtPBC=     1 NCelOv=     1 NCel=       1 NClECP=     1 NCelD=      1
         NCelK=      1 NCelE2=     1 NClLst=     1 CellRange=     0.0.
 One-electron integrals computed using PRISM.
 One-electron integral symmetry used in STVInt
 NBasis=   737 RedAO= T EigKep=  7.12D-04  NBF=   737
 NBsUse=   737 1.00D-06 EigRej= -1.00D+00 NBFU=   737
 Precomputing XC quadrature grid using
 IXCGrd= 4 IRadAn=           5 IRanWt=          -1 IRanGd=           0 AccXCQ= 0.00D+00.
 Generated NRdTot=       0 NPtTot=           0 NUsed=           0 NTot=          32
 NSgBfM=   761   761   761   761   761 MxSgAt=    70 MxSgA2=    70.
 Leave Link  302 at Thu Jan 25 02:40:54 2018, MaxMem=  4294967296 cpu:             270.9 elap:               8.8
 (Enter /share/apps/g16/l303.exe)
 DipDrv:  MaxL=1.
 Leave Link  303 at Thu Jan 25 02:40:55 2018, MaxMem=  4294967296 cpu:              12.6 elap:               0.4
 (Enter /share/apps/g16/l401.exe)
 ExpMin= 1.22D-01 ExpMax= 1.17D+04 ExpMxC= 4.01D+02 IAcc=3 IRadAn=         5 AccDes= 0.00D+00
 Harris functional with IExCor= 4639 and IRadAn=       5 diagonalized for initial guess.
 HarFok:  IExCor= 4639 AccDes= 0.00D+00 IRadAn=         5 IDoV= 1 UseB2=F ITyADJ=14
 ICtDFT=  3500011 ScaDFX=  1.000000  1.000000  1.000000  1.000000
 FoFCou: FMM=F IPFlag=           0 FMFlag=      100000 FMFlg1=        2001
         NFxFlg=           0 DoJE=T BraDBF=F KetDBF=T FulRan=T
         wScrn=  0.000000 ICntrl=       500 IOpCl=  0 I1Cent=   200000004 NGrid=           0
         NMat0=    1 NMatS0=      1 NMatT0=    0 NMatD0=    1 NMtDS0=    0 NMtDT0=    0
 Petite list used in FoFCou.
 Harris En= -1963.89065058532    
 JPrj=0 DoOrth=F DoCkMO=F.
 Leave Link  401 at Thu Jan 25 02:41:07 2018, MaxMem=  4294967296 cpu:             395.3 elap:              12.4
 (Enter /share/apps/g16/l502.exe)
 Integral symmetry usage will be decided dynamically.
 Closed shell SCF:
 Using DIIS extrapolation, IDIIS=  1040.
 NGot=  4294967296 LenX=  4293717438 LenY=  4293108258
 Requested convergence on RMS density matrix=1.00D-08 within  20 cycles.
 Requested convergence on MAX density matrix=1.00D-06.
 Requested convergence on             energy=1.00D-06.
 No special actions if energy rises.
 Fock matrices will be formed incrementally for  20 cycles.
 Integral accuracy reduced to 1.0D-05 until final iterations.

 Cycle   1  Pass 0  IDiag  1:
 FoFJK:  IHMeth= 1 ICntrl=       0 DoSepK=T KAlg= 0 I1Cent=           0 FoldK=F
 IRaf=         1 NMat=       1 IRICut=       1 DoRegI=T DoRafI=F ISym2E= 0 IDoP0=0 IntGTp=1.
 FoFCou: FMM=T IPFlag=           0 FMFlag=      100000 FMFlg1=        2001
         NFxFlg=           0 DoJE=T BraDBF=F KetDBF=F FulRan=T
         wScrn=  0.000000 ICntrl=       500 IOpCl=  0 I1Cent=           0 NGrid=           0
         NMat0=    1 NMatS0=      1 NMatT0=    0 NMatD0=    1 NMtDS0=    0 NMtDT0=    0
 Symmetry not used in FoFCou.
 FMM levels:  10  Number of levels for PrismC:   9
 E= -2048.31786561430    
 DIIS: error= 2.69D-02 at cycle   1 NSaved=   1.
 NSaved= 1 IEnMin= 1 EnMin= -2048.31786561430     IErMin= 1 ErrMin= 2.69D-02
 ErrMax= 2.69D-02  0.00D+00 EMaxC= 1.00D-01 BMatC= 8.31D-01 BMatP= 8.31D-01
 IDIUse=3 WtCom= 7.31D-01 WtEn= 2.69D-01
 Coeff-Com:  0.100D+01
 Coeff-En:   0.100D+01
 Coeff:      0.100D+01
 Gap=     0.250 Goal=   None    Shift=    0.000
 GapD=    0.250 DampG=1.000 DampE=0.500 DampFc=0.5000 IDamp=-1.
 Damping current iteration by 5.00D-01
 RMSDP=1.54D-03 MaxDP=1.32D-01              OVMax= 2.02D-01

 Cycle   2  Pass 0  IDiag  1:
 RMSU=  7.71D-04    CP:  9.98D-01
 E= -2048.51586108788     Delta-E=       -0.197995473574 Rises=F Damp=T
 DIIS: error= 1.50D-02 at cycle   2 NSaved=   2.
 NSaved= 2 IEnMin= 2 EnMin= -2048.51586108788     IErMin= 2 ErrMin= 1.50D-02
 ErrMax= 1.50D-02  0.00D+00 EMaxC= 1.00D-01 BMatC= 1.44D-01 BMatP= 8.31D-01
 IDIUse=3 WtCom= 8.50D-01 WtEn= 1.50D-01
 Coeff-Com: -0.204D+00 0.120D+01
 Coeff-En:   0.000D+00 0.100D+01
 Coeff:     -0.173D+00 0.117D+01
 Gap=     0.310 Goal=   None    Shift=    0.000
 RMSDP=5.71D-04 MaxDP=3.55D-02 DE=-1.98D-01 OVMax= 1.39D-01

 Cycle   3  Pass 0  IDiag  1:
 RMSU=  5.57D-04    CP:  9.94D-01  1.15D+00
 E= -2048.69786839556     Delta-E=       -0.182007307686 Rises=F Damp=F
 DIIS: error= 7.13D-03 at cycle   3 NSaved=   3.
 NSaved= 3 IEnMin= 3 EnMin= -2048.69786839556     IErMin= 3 ErrMin= 7.13D-03
 ErrMax= 7.13D-03  0.00D+00 EMaxC= 1.00D-01 BMatC= 5.88D-02 BMatP= 1.44D-01
 IDIUse=3 WtCom= 9.29D-01 WtEn= 7.13D-02
 Coeff-Com: -0.228D+00 0.540D+00 0.688D+00
 Coeff-En:   0.000D+00 0.000D+00 0.100D+01
 Coeff:     -0.212D+00 0.501D+00 0.711D+00
 Gap=     0.275 Goal=   None    Shift=    0.000
 RMSDP=3.35D-04 MaxDP=3.45D-02 DE=-1.82D-01 OVMax= 7.11D-02

 Cycle   4  Pass 0  IDiag  1:
 RMSU=  1.95D-04    CP:  9.95D-01  1.42D+00  6.86D-01
 E= -2048.74195127539     Delta-E=       -0.044082879830 Rises=F Damp=F
 DIIS: error= 2.78D-03 at cycle   4 NSaved=   4.
 NSaved= 4 IEnMin= 4 EnMin= -2048.74195127539     IErMin= 4 ErrMin= 2.78D-03
 ErrMax= 2.78D-03  0.00D+00 EMaxC= 1.00D-01 BMatC= 8.48D-03 BMatP= 5.88D-02
 IDIUse=3 WtCom= 9.72D-01 WtEn= 2.78D-02
 Coeff-Com: -0.943D-01 0.183D+00 0.378D+00 0.533D+00
 Coeff-En:   0.000D+00 0.000D+00 0.550D-01 0.945D+00
 Coeff:     -0.917D-01 0.178D+00 0.369D+00 0.545D+00
 Gap=     0.279 Goal=   None    Shift=    0.000
 RMSDP=1.21D-04 MaxDP=1.28D-02 DE=-4.41D-02 OVMax= 1.40D-02

 Cycle   5  Pass 0  IDiag  1:
 RMSU=  6.14D-05    CP:  9.94D-01  1.40D+00  8.14D-01  6.25D-01
 E= -2048.74872805411     Delta-E=       -0.006776778717 Rises=F Damp=F
 DIIS: error= 6.10D-04 at cycle   5 NSaved=   5.
 NSaved= 5 IEnMin= 5 EnMin= -2048.74872805411     IErMin= 5 ErrMin= 6.10D-04
 ErrMax= 6.10D-04  0.00D+00 EMaxC= 1.00D-01 BMatC= 2.95D-04 BMatP= 8.48D-03
 IDIUse=3 WtCom= 9.94D-01 WtEn= 6.10D-03
 Coeff-Com: -0.246D-01 0.421D-01 0.122D+00 0.244D+00 0.616D+00
 Coeff-En:   0.000D+00 0.000D+00 0.000D+00 0.000D+00 0.100D+01
 Coeff:     -0.244D-01 0.419D-01 0.122D+00 0.242D+00 0.618D+00
 Gap=     0.279 Goal=   None    Shift=    0.000
 RMSDP=2.48D-05 MaxDP=2.47D-03 DE=-6.78D-03 OVMax= 3.47D-03

 Failed to achieve initial convergence to 1.0D-08 in  6 cycles.
 Switch to full accuracy anyway.
 Cycle   6  Pass 1  IDiag  1:
 E= -2048.74916491371     Delta-E=       -0.000436859595 Rises=F Damp=F
 DIIS: error= 2.69D-04 at cycle   1 NSaved=   1.
 NSaved= 1 IEnMin= 1 EnMin= -2048.74916491371     IErMin= 1 ErrMin= 2.69D-04
 ErrMax= 2.69D-04  0.00D+00 EMaxC= 1.00D-01 BMatC= 7.48D-05 BMatP= 7.48D-05
 IDIUse=3 WtCom= 9.97D-01 WtEn= 2.69D-03
 Coeff-Com:  0.100D+01
 Coeff-En:   0.100D+01
 Coeff:      0.100D+01
 Gap=     0.279 Goal=   None    Shift=    0.000
 RMSDP=2.48D-05 MaxDP=2.47D-03 DE=-4.37D-04 OVMax= 1.98D-03

 Cycle   7  Pass 1  IDiag  1:
 RMSU=  1.12D-04    CP:  1.00D+00
 E= -2048.74921917082     Delta-E=       -0.000054257111 Rises=F Damp=F
 DIIS: error= 2.81D-04 at cycle   2 NSaved=   2.
 NSaved= 2 IEnMin= 2 EnMin= -2048.74921917082     IErMin= 1 ErrMin= 2.69D-04
 ErrMax= 2.81D-04  0.00D+00 EMaxC= 1.00D-01 BMatC= 4.60D-05 BMatP= 7.48D-05
 IDIUse=3 WtCom= 9.97D-01 WtEn= 2.81D-03
 Coeff-Com:  0.418D+00 0.582D+00
 Coeff-En:   0.000D+00 0.100D+01
 Coeff:      0.417D+00 0.583D+00
 Gap=     0.279 Goal=   None    Shift=    0.000
 RMSDP=1.09D-05 MaxDP=1.47D-03 DE=-5.43D-05 OVMax= 1.71D-03

 Cycle   8  Pass 1  IDiag  1:
 RMSU=  1.05D-05    CP:  1.00D+00  1.03D+00
 E= -2048.74925092616     Delta-E=       -0.000031755341 Rises=F Damp=F
 DIIS: error= 1.33D-04 at cycle   3 NSaved=   3.
 NSaved= 3 IEnMin= 3 EnMin= -2048.74925092616     IErMin= 3 ErrMin= 1.33D-04
 ErrMax= 1.33D-04  0.00D+00 EMaxC= 1.00D-01 BMatC= 1.05D-05 BMatP= 4.60D-05
 IDIUse=3 WtCom= 9.99D-01 WtEn= 1.33D-03
 Coeff-Com: -0.194D-01 0.310D+00 0.709D+00
 Coeff-En:   0.000D+00 0.131D+00 0.869D+00
 Coeff:     -0.194D-01 0.310D+00 0.709D+00
 Gap=     0.279 Goal=   None    Shift=    0.000
 RMSDP=5.56D-06 MaxDP=5.61D-04 DE=-3.18D-05 OVMax= 5.83D-04

 Cycle   9  Pass 1  IDiag  1:
 RMSU=  3.75D-06    CP:  1.00D+00  1.05D+00  7.61D-01
 E= -2048.74926014225     Delta-E=       -0.000009216094 Rises=F Damp=F
 DIIS: error= 2.53D-05 at cycle   4 NSaved=   4.
 NSaved= 4 IEnMin= 4 EnMin= -2048.74926014225     IErMin= 4 ErrMin= 2.53D-05
 ErrMax= 2.53D-05  0.00D+00 EMaxC= 1.00D-01 BMatC= 4.82D-07 BMatP= 1.05D-05
 IDIUse=1 WtCom= 1.00D+00 WtEn= 0.00D+00
 Coeff-Com: -0.310D-01 0.863D-01 0.259D+00 0.685D+00
 Coeff:     -0.310D-01 0.863D-01 0.259D+00 0.685D+00
 Gap=     0.279 Goal=   None    Shift=    0.000
 RMSDP=1.39D-06 MaxDP=1.41D-04 DE=-9.22D-06 OVMax= 4.60D-04

 Cycle  10  Pass 1  IDiag  1:
 RMSU=  1.24D-06    CP:  1.00D+00  1.06D+00  7.92D-01  1.11D+00
 E= -2048.74926093553     Delta-E=       -0.000000793282 Rises=F Damp=F
 DIIS: error= 1.48D-05 at cycle   5 NSaved=   5.
 NSaved= 5 IEnMin= 5 EnMin= -2048.74926093553     IErMin= 5 ErrMin= 1.48D-05
 ErrMax= 1.48D-05  0.00D+00 EMaxC= 1.00D-01 BMatC= 1.10D-07 BMatP= 4.82D-07
 IDIUse=1 WtCom= 1.00D+00 WtEn= 0.00D+00
 Coeff-Com: -0.267D-02-0.529D-01-0.120D+00 0.194D+00 0.982D+00
 Coeff:     -0.267D-02-0.529D-01-0.120D+00 0.194D+00 0.982D+00
 Gap=     0.279 Goal=   None    Shift=    0.000
 RMSDP=1.16D-06 MaxDP=7.63D-05 DE=-7.93D-07 OVMax= 2.21D-04

 Cycle  11  Pass 1  IDiag  1:
 RMSU=  4.82D-07    CP:  1.00D+00  1.06D+00  7.99D-01  1.38D+00  1.17D+00
 E= -2048.74926117479     Delta-E=       -0.000000239253 Rises=F Damp=F
 DIIS: error= 6.28D-06 at cycle   6 NSaved=   6.
 NSaved= 6 IEnMin= 6 EnMin= -2048.74926117479     IErMin= 6 ErrMin= 6.28D-06
 ErrMax= 6.28D-06  0.00D+00 EMaxC= 1.00D-01 BMatC= 2.74D-08 BMatP= 1.10D-07
 IDIUse=1 WtCom= 1.00D+00 WtEn= 0.00D+00
 Coeff-Com:  0.470D-02-0.435D-01-0.113D+00-0.663D-02 0.526D+00 0.633D+00
 Coeff:      0.470D-02-0.435D-01-0.113D+00-0.663D-02 0.526D+00 0.633D+00
 Gap=     0.279 Goal=   None    Shift=    0.000
 RMSDP=3.62D-07 MaxDP=3.69D-05 DE=-2.39D-07 OVMax= 1.15D-04

 Cycle  12  Pass 1  IDiag  1:
 RMSU=  1.84D-07    CP:  1.00D+00  1.06D+00  7.99D-01  1.45D+00  1.30D+00
                    CP:  9.08D-01
 E= -2048.74926121375     Delta-E=       -0.000000038963 Rises=F Damp=F
 DIIS: error= 1.11D-06 at cycle   7 NSaved=   7.
 NSaved= 7 IEnMin= 7 EnMin= -2048.74926121375     IErMin= 7 ErrMin= 1.11D-06
 ErrMax= 1.11D-06  0.00D+00 EMaxC= 1.00D-01 BMatC= 8.47D-10 BMatP= 2.74D-08
 IDIUse=1 WtCom= 1.00D+00 WtEn= 0.00D+00
 Coeff-Com:  0.121D-02-0.792D-02-0.225D-01-0.763D-02 0.694D-01 0.155D+00
 Coeff-Com:  0.812D+00
 Coeff:      0.121D-02-0.792D-02-0.225D-01-0.763D-02 0.694D-01 0.155D+00
 Coeff:      0.812D+00
 Gap=     0.279 Goal=   None    Shift=    0.000
 RMSDP=7.89D-08 MaxDP=5.29D-06 DE=-3.90D-08 OVMax= 2.12D-05

 Cycle  13  Pass 1  IDiag  1:
 RMSU=  4.97D-08    CP:  1.00D+00  1.06D+00  7.99D-01  1.46D+00  1.32D+00
                    CP:  9.95D-01  1.12D+00
 E= -2048.74926121540     Delta-E=       -0.000000001648 Rises=F Damp=F
 DIIS: error= 6.00D-07 at cycle   8 NSaved=   8.
 NSaved= 8 IEnMin= 8 EnMin= -2048.74926121540     IErMin= 8 ErrMin= 6.00D-07
 ErrMax= 6.00D-07  0.00D+00 EMaxC= 1.00D-01 BMatC= 3.27D-10 BMatP= 8.47D-10
 IDIUse=1 WtCom= 1.00D+00 WtEn= 0.00D+00
 Coeff-Com: -0.703D-03 0.826D-02 0.201D-01-0.505D-03-0.114D+00-0.948D-01
 Coeff-Com:  0.409D+00 0.773D+00
 Coeff:     -0.703D-03 0.826D-02 0.201D-01-0.505D-03-0.114D+00-0.948D-01
 Coeff:      0.409D+00 0.773D+00
 Gap=     0.279 Goal=   None    Shift=    0.000
 RMSDP=4.93D-08 MaxDP=2.98D-06 DE=-1.65D-09 OVMax= 1.17D-05

 Cycle  14  Pass 1  IDiag  1:
 RMSU=  2.76D-08    CP:  1.00D+00  1.06D+00  7.98D-01  1.46D+00  1.33D+00
                    CP:  1.04D+00  1.28D+00  1.07D+00
 E= -2048.74926121597     Delta-E=       -0.000000000571 Rises=F Damp=F
 DIIS: error= 1.40D-07 at cycle   9 NSaved=   9.
 NSaved= 9 IEnMin= 9 EnMin= -2048.74926121597     IErMin= 9 ErrMin= 1.40D-07
 ErrMax= 1.40D-07  0.00D+00 EMaxC= 1.00D-01 BMatC= 3.48D-11 BMatP= 3.27D-10
 IDIUse=1 WtCom= 1.00D+00 WtEn= 0.00D+00
 Coeff-Com: -0.452D-03 0.464D-02 0.116D-01 0.119D-02-0.580D-01-0.591D-01
 Coeff-Com:  0.897D-01 0.331D+00 0.679D+00
 Coeff:     -0.452D-03 0.464D-02 0.116D-01 0.119D-02-0.580D-01-0.591D-01
 Coeff:      0.897D-01 0.331D+00 0.679D+00
 Gap=     0.279 Goal=   None    Shift=    0.000
 RMSDP=1.32D-08 MaxDP=8.28D-07 DE=-5.71D-10 OVMax= 3.27D-06

 Cycle  15  Pass 1  IDiag  1:
 RMSU=  9.19D-09    CP:  1.00D+00  1.06D+00  7.98D-01  1.46D+00  1.33D+00
                    CP:  1.04D+00  1.30D+00  1.21D+00  1.08D+00
 E= -2048.74926121605     Delta-E=       -0.000000000086 Rises=F Damp=F
 DIIS: error= 6.93D-08 at cycle  10 NSaved=  10.
 NSaved=10 IEnMin=10 EnMin= -2048.74926121605     IErMin=10 ErrMin= 6.93D-08
 ErrMax= 6.93D-08  0.00D+00 EMaxC= 1.00D-01 BMatC= 4.68D-12 BMatP= 3.48D-11
 IDIUse=1 WtCom= 1.00D+00 WtEn= 0.00D+00
 Coeff-Com:  0.690D-05-0.317D-03-0.646D-03 0.859D-04 0.559D-02 0.144D-02
 Coeff-Com: -0.552D-01-0.595D-01 0.231D+00 0.878D+00
 Coeff:      0.690D-05-0.317D-03-0.646D-03 0.859D-04 0.559D-02 0.144D-02
 Coeff:     -0.552D-01-0.595D-01 0.231D+00 0.878D+00
 Gap=     0.279 Goal=   None    Shift=    0.000
 RMSDP=6.91D-09 MaxDP=4.07D-07 DE=-8.64D-11 OVMax= 1.60D-06

 SCF Done:  E(RwB97XD) =  -2048.74926122     A.U. after   15 cycles
            NFock= 15  Conv=0.69D-08     -V/T= 2.0054
 KE= 2.037666984105D+03 PE=-1.571069131748D+04 EE= 6.159340363899D+03
 Leave Link  502 at Thu Jan 25 02:52:07 2018, MaxMem=  4294967296 cpu:           20369.5 elap:             660.2
 (Enter /share/apps/g16/l601.exe)
 Copying SCF densities to generalized density rwf, IOpCl= 0 IROHF=0.

 **********************************************************************

            Population analysis using the SCF density.

 **********************************************************************

 Orbital symmetries:
       Occupied  (A) (A) (A) (A) (A) (A) (A) (A) (A) (A) (A) (A)
                 (A) (A) (A) (A) (A) (A) (A) (A) (A) (A) (A) (A)
                 (A) (A) (A) (A) (A) (A) (A) (A) (A) (A) (A) (A)
                 (A) (A) (A) (A) (A) (A) (A) (A) (A) (A) (A) (A)
                 (A) (A) (A) (A) (A) (A) (A) (A) (A) (A) (A) (A)
                 (A) (A) (A) (A) (A) (A) (A) (A) (A) (A) (A) (A)
                 (A) (A) (A) (A) (A) (A) (A) (A) (A) (A) (A) (A)
                 (A) (A) (A) (A) (A) (A) (A) (A) (A) (A) (A) (A)
                 (A) (A) (A) (A) (A) (A) (A) (A) (A) (A) (A) (A)
                 (A) (A) (A) (A) (A) (A) (A) (A) (A) (A) (A) (A)
                 (A) (A) (A) (A) (A) (A) (A) (A) (A) (A) (A) (A)
                 (A) (A) (A) (A) (A) (A) (A) (A) (A) (A) (A) (A)
                 (A) (A) (A) (A) (A) (A) (A) (A) (A) (A)
       Virtual   (A) (A) (A) (A) (A) (A) (A) (A) (A) (A) (A) (A)
                 (A) (A) (A) (A) (A) (A) (A) (A) (A) (A) (A) (A)
                 (A) (A) (A) (A) (A) (A) (A) (A) (A) (A) (A) (A)
                 (A) (A) (A) (A) (A) (A) (A) (A) (A) (A) (A) (A)
                 (A) (A) (A) (A) (A) (A) (A) (A) (A) (A) (A) (A)
                 (A) (A) (A) (A) (A) (A) (A) (A) (A) (A) (A) (A)
                 (A) (A) (A) (A) (A) (A) (A) (A) (A) (A) (A) (A)
                 (A) (A) (A) (A) (A) (A) (A) (A) (A) (A) (A) (A)
                 (A) (A) (A) (A) (A) (A) (A) (A) (A) (A) (A) (A)
                 (A) (A) (A) (A) (A) (A) (A) (A) (A) (A) (A) (A)
                 (A) (A) (A) (A) (A) (A) (A) (A) (A) (A) (A) (A)
                 (A) (A) (A) (A) (A) (A) (A) (A) (A) (A) (A) (A)
                 (A) (A) (A) (A) (A) (A) (A) (A) (A) (A) (A) (A)
                 (A) (A) (A) (A) (A) (A) (A) (A) (A) (A) (A) (A)
                 (A) (A) (A) (A) (A) (A) (A) (A) (A) (A) (A) (A)
                 (A) (A) (A) (A) (A) (A) (A) (A) (A) (A) (A) (A)
                 (A) (A) (A) (A) (A) (A) (A) (A) (A) (A) (A) (A)
                 (A) (A) (A) (A) (A) (A) (A) (A) (A) (A) (A) (A)
                 (A) (A) (A) (A) (A) (A) (A) (A) (A) (A) (A) (A)
                 (A) (A) (A) (A) (A) (A) (A) (A) (A) (A) (A) (A)
                 (A) (A) (A) (A) (A) (A) (A) (A) (A) (A) (A) (A)
                 (A) (A) (A) (A) (A) (A) (A) (A) (A) (A) (A) (A)
                 (A) (A) (A) (A) (A) (A) (A) (A) (A) (A) (A) (A)
                 (A) (A) (A) (A) (A) (A) (A) (A) (A) (A) (A) (A)
                 (A) (A) (A) (A) (A) (A) (A) (A) (A) (A) (A) (A)
                 (A) (A) (A) (A) (A) (A) (A) (A) (A) (A) (A) (A)
                 (A) (A) (A) (A) (A) (A) (A) (A) (A) (A) (A) (A)
                 (A) (A) (A) (A) (A) (A) (A) (A) (A) (A) (A) (A)
                 (A) (A) (A) (A) (A) (A) (A) (A) (A) (A) (A) (A)
                 (A) (A) (A) (A) (A) (A) (A) (A) (A) (A) (A) (A)
                 (A) (A) (A) (A) (A) (A) (A) (A) (A) (A) (A) (A)
                 (A) (A) (A) (A) (A) (A) (A) (A) (A) (A) (A) (A)
                 (A) (A) (A) (A) (A) (A) (A) (A) (A) (A) (A) (A)
                 (A) (A) (A) (A) (A) (A) (A) (A) (A) (A) (A) (A)
                 (A) (A) (A) (A) (A) (A) (A) (A) (A) (A) (A) (A)
                 (A) (A) (A) (A) (A) (A) (A) (A) (A) (A) (A) (A)
                 (A) (A) (A) (A) (A) (A) (A) (A) (A) (A) (A) (A)
                 (A) (A) (A) (A) (A) (A) (A) (A) (A) (A) (A) (A)
                 (A) (A) (A) (A) (A) (A) (A) (A) (A) (A) (A) (A)
                 (A) (A) (A) (A) (A) (A) (A) (A) (A) (A) (A) (A)
                 (A) (A) (A) (A) (A) (A) (A) (A) (A) (A) (A) (A)
                 (A) (A) (A) (A) (A) (A) (A) (A) (A) (A) (A) (A)
                 (A) (A) (A) (A) (A) (A) (A) (A) (A) (A) (A) (A)
                 (A) (A) (A) (A) (A) (A) (A) (A) (A) (A) (A) (A)
                 (A) (A) (A) (A) (A) (A) (A) (A) (A) (A) (A) (A)
                 (A) (A) (A) (A) (A) (A) (A) (A) (A) (A) (A) (A)
                 (A) (A) (A) (A) (A) (A) (A) (A) (A) (A) (A) (A)
                 (A) (A) (A) (A) (A) (A) (A) (A) (A) (A) (A) (A)
                 (A) (A) (A) (A) (A) (A) (A)
 The electronic state is 1-A.
 Alpha  occ. eigenvalues --  -19.25638 -19.21946 -19.20508 -14.52541 -14.52309
 Alpha  occ. eigenvalues --  -14.48762 -14.48534 -14.48085 -14.47636 -14.46815
 Alpha  occ. eigenvalues --  -14.46501 -14.45589 -14.44483 -14.44459 -14.42086
 Alpha  occ. eigenvalues --  -14.41945 -14.40852 -14.40714 -14.40461 -14.39951
 Alpha  occ. eigenvalues --  -10.45295 -10.41147 -10.40158 -10.40058 -10.38141
 Alpha  occ. eigenvalues --  -10.38127 -10.37882 -10.37319 -10.35879 -10.35089
 Alpha  occ. eigenvalues --  -10.34802 -10.34291 -10.33970 -10.33440 -10.33304
 Alpha  occ. eigenvalues --  -10.32819 -10.32776 -10.32668 -10.31119 -10.30928
 Alpha  occ. eigenvalues --  -10.30390 -10.28044 -10.27969  -1.19239  -1.15292
 Alpha  occ. eigenvalues --   -1.13110  -1.12940  -1.10681  -1.10532  -1.09512
 Alpha  occ. eigenvalues --   -1.09168  -1.08457  -1.05028  -1.04627  -1.02304
 Alpha  occ. eigenvalues --   -1.01104  -1.00063  -0.99606  -0.98474  -0.97033
 Alpha  occ. eigenvalues --   -0.96556  -0.96348  -0.92318  -0.91043  -0.87731
 Alpha  occ. eigenvalues --   -0.85999  -0.84063  -0.83384  -0.83356  -0.82473
 Alpha  occ. eigenvalues --   -0.81770  -0.78816  -0.77178  -0.74978  -0.74555
 Alpha  occ. eigenvalues --   -0.73540  -0.73201  -0.72460  -0.70642  -0.70511
 Alpha  occ. eigenvalues --   -0.67284  -0.67000  -0.66409  -0.65858  -0.64446
 Alpha  occ. eigenvalues --   -0.64352  -0.63703  -0.62593  -0.62288  -0.61659
 Alpha  occ. eigenvalues --   -0.60697  -0.60332  -0.60195  -0.59474  -0.59386
 Alpha  occ. eigenvalues --   -0.59276  -0.58228  -0.56617  -0.56184  -0.55846
 Alpha  occ. eigenvalues --   -0.55723  -0.55421  -0.55094  -0.54436  -0.54129
 Alpha  occ. eigenvalues --   -0.53832  -0.53581  -0.53486  -0.53115  -0.52929
 Alpha  occ. eigenvalues --   -0.52855  -0.52226  -0.51266  -0.50231  -0.50117
 Alpha  occ. eigenvalues --   -0.50008  -0.49664  -0.49432  -0.49237  -0.48773
 Alpha  occ. eigenvalues --   -0.48473  -0.48322  -0.48156  -0.47628  -0.47244
 Alpha  occ. eigenvalues --   -0.46458  -0.45706  -0.45374  -0.44302  -0.43699
 Alpha  occ. eigenvalues --   -0.40858  -0.40681  -0.39264  -0.37756  -0.37702
 Alpha  occ. eigenvalues --   -0.37226  -0.37199  -0.36605  -0.35739  -0.34911
 Alpha  occ. eigenvalues --   -0.34531  -0.33828  -0.33169  -0.33033  -0.32889
 Alpha  occ. eigenvalues --   -0.32613  -0.32394  -0.32124  -0.31823  -0.30413
 Alpha  occ. eigenvalues --   -0.30145  -0.30003  -0.25460  -0.25270
 Alpha virt. eigenvalues --    0.02622   0.04247   0.06684   0.08440   0.08816
 Alpha virt. eigenvalues --    0.09291   0.09858   0.10372   0.11441   0.11587
 Alpha virt. eigenvalues --    0.12840   0.14443   0.14611   0.14940   0.15057
 Alpha virt. eigenvalues --    0.15580   0.16303   0.17166   0.17331   0.17424
 Alpha virt. eigenvalues --    0.18493   0.19647   0.20059   0.20436   0.20510
 Alpha virt. eigenvalues --    0.20889   0.20966   0.21088   0.21403   0.21783
 Alpha virt. eigenvalues --    0.22216   0.23001   0.23505   0.23690   0.23883
 Alpha virt. eigenvalues --    0.24292   0.24392   0.24546   0.24721   0.25160
 Alpha virt. eigenvalues --    0.25334   0.25780   0.27226   0.27755   0.28139
 Alpha virt. eigenvalues --    0.28946   0.29180   0.29602   0.30511   0.30831
 Alpha virt. eigenvalues --    0.31586   0.31867   0.32245   0.32942   0.33474
 Alpha virt. eigenvalues --    0.33931   0.34210   0.34895   0.35953   0.36008
 Alpha virt. eigenvalues --    0.36896   0.37142   0.37792   0.38812   0.39218
 Alpha virt. eigenvalues --    0.39828   0.40213   0.40600   0.41525   0.41784
 Alpha virt. eigenvalues --    0.41909   0.42669   0.43374   0.43619   0.44155
 Alpha virt. eigenvalues --    0.44373   0.45194   0.46074   0.46677   0.47197
 Alpha virt. eigenvalues --    0.47597   0.47704   0.48324   0.48529   0.49193
 Alpha virt. eigenvalues --    0.49745   0.50225   0.50536   0.50676   0.51146
 Alpha virt. eigenvalues --    0.51431   0.51790   0.52065   0.52669   0.53123
 Alpha virt. eigenvalues --    0.53614   0.54185   0.54367   0.55041   0.55531
 Alpha virt. eigenvalues --    0.56025   0.56413   0.56500   0.57315   0.57457
 Alpha virt. eigenvalues --    0.58012   0.58221   0.58594   0.59388   0.59589
 Alpha virt. eigenvalues --    0.59720   0.60162   0.60386   0.60736   0.61069
 Alpha virt. eigenvalues --    0.61459   0.62014   0.62283   0.62713   0.62885
 Alpha virt. eigenvalues --    0.63181   0.63778   0.64328   0.65226   0.65579
 Alpha virt. eigenvalues --    0.65635   0.65861   0.66318   0.66924   0.67073
 Alpha virt. eigenvalues --    0.67411   0.67724   0.68360   0.68618   0.68784
 Alpha virt. eigenvalues --    0.69708   0.70214   0.70666   0.71066   0.71472
 Alpha virt. eigenvalues --    0.71892   0.72838   0.73059   0.73353   0.73779
 Alpha virt. eigenvalues --    0.74015   0.74333   0.74629   0.74748   0.75252
 Alpha virt. eigenvalues --    0.75946   0.76151   0.76197   0.76476   0.76631
 Alpha virt. eigenvalues --    0.77428   0.77714   0.78042   0.78662   0.79079
 Alpha virt. eigenvalues --    0.79346   0.79528   0.79972   0.80623   0.80791
 Alpha virt. eigenvalues --    0.80902   0.81699   0.81887   0.82176   0.83197
 Alpha virt. eigenvalues --    0.83304   0.83708   0.84293   0.84446   0.84629
 Alpha virt. eigenvalues --    0.85332   0.85442   0.86039   0.86521   0.87481
 Alpha virt. eigenvalues --    0.87872   0.88126   0.88354   0.89218   0.89701
 Alpha virt. eigenvalues --    0.89984   0.90515   0.91146   0.91574   0.92052
 Alpha virt. eigenvalues --    0.92429   0.92714   0.92973   0.93397   0.93793
 Alpha virt. eigenvalues --    0.94391   0.94712   0.95408   0.96216   0.96268
 Alpha virt. eigenvalues --    0.96966   0.97044   0.97782   0.98204   0.98841
 Alpha virt. eigenvalues --    0.99024   0.99305   0.99790   0.99983   1.00536
 Alpha virt. eigenvalues --    1.00972   1.01763   1.02018   1.02122   1.02507
 Alpha virt. eigenvalues --    1.03197   1.03291   1.04246   1.04439   1.05095
 Alpha virt. eigenvalues --    1.05158   1.05670   1.06418   1.06706   1.07334
 Alpha virt. eigenvalues --    1.08014   1.08170   1.09088   1.09541   1.10571
 Alpha virt. eigenvalues --    1.10829   1.11116   1.11858   1.12433   1.13339
 Alpha virt. eigenvalues --    1.13584   1.14091   1.14145   1.14298   1.15340
 Alpha virt. eigenvalues --    1.15692   1.16151   1.16523   1.17034   1.17264
 Alpha virt. eigenvalues --    1.17966   1.18162   1.18743   1.19180   1.19444
 Alpha virt. eigenvalues --    1.19823   1.20404   1.20670   1.20787   1.21022
 Alpha virt. eigenvalues --    1.21534   1.21839   1.22623   1.23003   1.23036
 Alpha virt. eigenvalues --    1.23468   1.23756   1.23987   1.24632   1.24864
 Alpha virt. eigenvalues --    1.24992   1.25411   1.26380   1.26794   1.27667
 Alpha virt. eigenvalues --    1.27978   1.28483   1.29138   1.29380   1.30013
 Alpha virt. eigenvalues --    1.30714   1.32070   1.32234   1.32291   1.33303
 Alpha virt. eigenvalues --    1.33645   1.34492   1.34723   1.35243   1.36343
 Alpha virt. eigenvalues --    1.36562   1.38024   1.38352   1.39235   1.39570
 Alpha virt. eigenvalues --    1.40673   1.41097   1.41483   1.41901   1.43654
 Alpha virt. eigenvalues --    1.44750   1.45626   1.45726   1.46711   1.47392
 Alpha virt. eigenvalues --    1.47779   1.49121   1.49602   1.49909   1.50557
 Alpha virt. eigenvalues --    1.51334   1.52087   1.52667   1.53271   1.53698
 Alpha virt. eigenvalues --    1.54604   1.54941   1.56070   1.56656   1.56892
 Alpha virt. eigenvalues --    1.57558   1.58262   1.58959   1.59695   1.60297
 Alpha virt. eigenvalues --    1.61082   1.61562   1.61992   1.62859   1.63088
 Alpha virt. eigenvalues --    1.63394   1.64178   1.64807   1.65163   1.65865
 Alpha virt. eigenvalues --    1.66057   1.67253   1.67756   1.68283   1.68565
 Alpha virt. eigenvalues --    1.68916   1.69392   1.69857   1.70417   1.71258
 Alpha virt. eigenvalues --    1.71520   1.72132   1.72439   1.73120   1.73360
 Alpha virt. eigenvalues --    1.73807   1.74240   1.74788   1.75116   1.75537
 Alpha virt. eigenvalues --    1.75848   1.76134   1.76432   1.76671   1.77001
 Alpha virt. eigenvalues --    1.77291   1.77339   1.77392   1.77878   1.78455
 Alpha virt. eigenvalues --    1.78604   1.79250   1.79445   1.79935   1.80191
 Alpha virt. eigenvalues --    1.80470   1.80554   1.80842   1.81482   1.81625
 Alpha virt. eigenvalues --    1.82088   1.82421   1.82742   1.83756   1.84136
 Alpha virt. eigenvalues --    1.84477   1.84881   1.85539   1.85679   1.86191
 Alpha virt. eigenvalues --    1.86807   1.87230   1.87831   1.88550   1.88676
 Alpha virt. eigenvalues --    1.89131   1.89683   1.90365   1.90516   1.90991
 Alpha virt. eigenvalues --    1.91555   1.92006   1.93154   1.93275   1.93731
 Alpha virt. eigenvalues --    1.94146   1.94598   1.95291   1.95830   1.96894
 Alpha virt. eigenvalues --    1.98094   1.98343   1.99028   2.00705   2.00820
 Alpha virt. eigenvalues --    2.01127   2.01583   2.02724   2.02865   2.03099
 Alpha virt. eigenvalues --    2.03589   2.04065   2.05087   2.06095   2.06955
 Alpha virt. eigenvalues --    2.07155   2.07600   2.08404   2.08667   2.09509
 Alpha virt. eigenvalues --    2.10122   2.10419   2.10850   2.11843   2.12518
 Alpha virt. eigenvalues --    2.12683   2.14145   2.14718   2.15652   2.16422
 Alpha virt. eigenvalues --    2.17848   2.18731   2.19124   2.20399   2.20964
 Alpha virt. eigenvalues --    2.21609   2.22408   2.22506   2.22755   2.23340
 Alpha virt. eigenvalues --    2.24423   2.24585   2.25434   2.25605   2.26345
 Alpha virt. eigenvalues --    2.27278   2.27446   2.28550   2.29059   2.29363
 Alpha virt. eigenvalues --    2.30132   2.30320   2.30967   2.31711   2.32123
 Alpha virt. eigenvalues --    2.32404   2.33319   2.33674   2.33810   2.34189
 Alpha virt. eigenvalues --    2.35054   2.35362   2.35565   2.35908   2.36974
 Alpha virt. eigenvalues --    2.37403   2.38080   2.38853   2.39903   2.40568
 Alpha virt. eigenvalues --    2.41698   2.42123   2.43026   2.43597   2.43849
 Alpha virt. eigenvalues --    2.44450   2.44828   2.45093   2.45598   2.46271
 Alpha virt. eigenvalues --    2.47131   2.48098   2.49581   2.50460   2.51544
 Alpha virt. eigenvalues --    2.52537   2.53414   2.54705   2.55178   2.55544
 Alpha virt. eigenvalues --    2.56368   2.57151   2.57308   2.58840   2.59571
 Alpha virt. eigenvalues --    2.60631   2.61559   2.62140   2.62741   2.62954
 Alpha virt. eigenvalues --    2.63736   2.64576   2.64910   2.65271   2.65586
 Alpha virt. eigenvalues --    2.65642   2.67585   2.67961   2.68482   2.68818
 Alpha virt. eigenvalues --    2.69065   2.69842   2.70604   2.71155   2.72022
 Alpha virt. eigenvalues --    2.72631   2.74030   2.75174   2.75983   2.76251
 Alpha virt. eigenvalues --    2.76836   2.77308   2.78248   2.78838   2.79200
 Alpha virt. eigenvalues --    2.79405   2.79986   2.80341   2.80531   2.80761
 Alpha virt. eigenvalues --    2.81642   2.81974   2.82238   2.83479   2.83844
 Alpha virt. eigenvalues --    2.84346   2.85206   2.85935   2.86491   2.86963
 Alpha virt. eigenvalues --    2.87518   2.87901   2.88918   2.91515   2.92633
 Alpha virt. eigenvalues --    2.93935   2.94859   2.95533   2.96720   2.98860
 Alpha virt. eigenvalues --    2.99954   3.00582   3.01343   3.03774   3.04876
 Alpha virt. eigenvalues --    3.06072   3.09046   3.10851   3.12445   3.14836
 Alpha virt. eigenvalues --    3.15739   3.15934   3.16633   3.17198   3.19978
 Alpha virt. eigenvalues --    3.20645   3.22580   3.23604   3.24506   3.25382
 Alpha virt. eigenvalues --    3.44262   3.47087   3.47423   3.49286   3.50333
 Alpha virt. eigenvalues --    3.53585   3.54267   3.56247   3.57685   3.60006
 Alpha virt. eigenvalues --    3.63025   3.70787   3.74721
          Condensed to atoms (all electrons):
 Mulliken charges:
               1
     1  N   -0.312941
     2  C    0.182309
     3  C    0.050864
     4  N   -0.258674
     5  C    0.139406
     6  H    0.025465
     7  N   -0.299115
     8  C    0.135126
     9  H    0.009487
    10  N   -0.287675
    11  C    0.259514
    12  C    0.106035
    13  N   -0.060773
    14  H    0.113009
    15  H    0.081844
    16  H    0.022631
    17  H    0.031155
    18  H    0.027471
    19  N   -0.310559
    20  C    0.250937
    21  C    0.180656
    22  N   -0.113757
    23  H    0.113226
    24  H    0.115590
    25  N   -0.310684
    26  C    0.240137
    27  N   -0.147623
    28  H    0.120411
    29  C    0.194254
    30  O   -0.322488
    31  C   -0.016281
    32  N   -0.226203
    33  C    0.130970
    34  H    0.021363
    35  H    0.029023
    36  H    0.028774
    37  H    0.024192
    38  H    0.060569
    39  H    0.059586
    40  H    0.072876
    41  H    0.028522
    42  C   -0.121097
    43  O   -0.263960
    44  C    0.170369
    45  H    0.131742
    46  N   -0.121657
    47  O   -0.343000
    48  C    0.338441
    49  H    0.044292
    50  C    0.165188
    51  C    0.037506
    52  N   -0.277819
    53  H    0.034936
    54  H    0.040165
    55  H    0.028854
    56  H    0.120530
    57  H    0.114826
    58  N   -0.056220
    59  C    0.088988
    60  C    0.254496
    61  N   -0.275324
    62  H    0.038517
    63  C    0.170699
    64  N   -0.310314
    65  H    0.038674
    66  C    0.138570
    67  N   -0.267214
    68  C    0.024501
    69  C    0.179740
    70  N   -0.313057
 Sum of Mulliken charges =  -0.00000
 Mulliken charges with hydrogens summed into heavy atoms:
               1
     1  N   -0.312941
     2  C    0.263566
     3  C    0.050864
     4  N   -0.258674
     5  C    0.164871
     7  N   -0.299115
     8  C    0.144613
    10  N   -0.287675
    11  C    0.259514
    12  C    0.106035
    13  N    0.134080
    19  N   -0.310559
    20  C    0.250937
    21  C    0.262645
    22  N    0.115059
    25  N   -0.310684
    26  C    0.240137
    27  N   -0.027212
    29  C    0.194254
    30  O   -0.322488
    31  C   -0.016281
    32  N   -0.226203
    33  C    0.152333
    42  C   -0.092576
    43  O   -0.263960
    44  C    0.170369
    46  N    0.010086
    47  O   -0.343000
    48  C    0.338441
    50  C    0.209480
    51  C    0.230537
    52  N   -0.277819
    58  N    0.179135
    59  C    0.088988
    60  C    0.254496
    61  N   -0.275324
    63  C    0.209216
    64  N   -0.310314
    66  C    0.177244
    67  N   -0.267214
    68  C    0.024501
    69  C    0.283695
    70  N   -0.313057
 Electronic spatial extent (au):  <R**2>=          22102.8093
 Charge=              0.0000 electrons
 Dipole moment (field-independent basis, Debye):
    X=             -8.6778    Y=              6.1923    Z=             -1.2618  Tot=             10.7350
 Quadrupole moment (field-independent basis, Debye-Ang):
   XX=           -160.6868   YY=           -215.1956   ZZ=           -252.5836
   XY=              3.5644   XZ=             -7.8311   YZ=              5.0883
 Traceless Quadrupole moment (field-independent basis, Debye-Ang):
   XX=             48.8019   YY=             -5.7070   ZZ=            -43.0949
   XY=              3.5644   XZ=             -7.8311   YZ=              5.0883
 Octapole moment (field-independent basis, Debye-Ang**2):
  XXX=             74.0409  YYY=            143.6510  ZZZ=             11.2955  XYY=            -82.7365
  XXY=             50.9176  XXZ=             -8.4611  XZZ=            -57.3352  YZZ=             25.8424
  YYZ=            -39.1260  XYZ=             81.2317
 Hexadecapole moment (field-independent basis, Debye-Ang**3):
 XXXX=         -14731.9320 YYYY=          -6507.7862 ZZZZ=          -3995.6525 XXXY=           -498.0232
 XXXZ=           -222.0538 YYYX=            113.5625 YYYZ=             50.2545 ZZZX=            -20.8326
 ZZZY=            -43.1726 XXYY=          -3040.1171 XXZZ=          -3542.1951 YYZZ=          -1812.7964
 XXYZ=            -89.0043 YYXZ=            134.8966 ZZXY=            -56.7635
 N-N= 5.464934708261D+03 E-N=-1.571069131426D+04  KE= 2.037666984105D+03
 No NMR shielding tensors so no spin-rotation constants.
 Leave Link  601 at Thu Jan 25 02:52:09 2018, MaxMem=  4294967296 cpu:              48.2 elap:               1.7
 (Enter /share/apps/g16/l9999.exe)
 1\1\GINC-COMPUTE-0-3\SP\RwB97XD\CC-pVDZ\C23H27N17O3\SATYA\25-Jan-2018\
 0\\#p wb97xd/cc-pvdz sp scf=(maxcycles=20)\\Base pair stacking\\0,1\N,
 0,4.90987,-1.03625,-6.04234\C,0,6.17916,-0.2865,-6.11165\C,0,2.77907,-
 1.57949,-6.08546\N,0,3.46959,-2.74155,-5.77319\C,0,4.72569,-2.36776,-5
 .75971\H,0,5.56688,-3.02833,-5.54762\N,0,1.05439,-0.04252,-6.56101\C,0
 ,2.01495,0.87817,-6.69223\H,0,1.66794,1.87984,-6.94226\N,0,3.33361,0.7
 4793,-6.56156\C,0,3.65345,-0.52002,-6.25425\C,0,1.4086,-1.30892,-6.251
 4\N,0,0.45119,-2.22939,-6.11999\H,0,0.66745,-3.17927,-5.89157\H,0,-0.5
 1436,-2.00102,-6.24532\H,0,6.76615,-0.68654,-6.81562\H,0,5.99104,0.668
 5,-6.33904\H,0,6.64399,-0.3315,-5.2274\N,0,2.48058,3.18533,-3.219\C,0,
 1.26732,2.54352,-3.28315\C,0,2.68371,4.64212,-3.35019\N,0,-2.18199,2.6
 6323,-3.67004\H,0,-2.94539,2.01807,-3.68502\H,0,-2.40305,3.63072,-3.79
 579\N,0,0.06655,3.13114,-3.47526\C,0,-0.91828,2.2505,-3.4895\N,0,-0.74
 274,0.89748,-3.32813\H,0,-1.5538,0.29872,-3.35316\C,0,0.48354,0.27098,
 -3.12916\O,0,0.53255,-0.95794,-2.99458\C,0,1.5511,1.20419,-3.11148\N,0
 ,2.91508,1.0091,-2.94295\C,0,3.42461,2.20892,-3.01386\H,0,4.48673,2.43
 888,-2.92279\H,0,3.27996,4.82828,-4.13033\H,0,1.80107,5.08806,-3.49287
 \H,0,3.10486,4.99802,-2.51666\H,0,-5.89997,-2.19416,-4.21865\H,0,-5.96
 742,-2.26515,-2.45937\H,0,-5.20719,-0.88776,-3.25701\H,0,-2.78032,-5.7
 5473,-3.36034\C,0,-2.82196,-4.66629,-3.31802\O,0,-0.46737,-4.39648,-3.
 21685\C,0,-1.6025,-3.92141,-3.24121\H,0,-0.92875,-1.99174,-3.13751\N,0
 ,-1.76776,-2.55191,-3.19229\O,0,-2.99831,-0.64349,-3.16246\C,0,-2.9529
 9,-1.8602,-3.20982\H,0,-4.94892,-4.53981,-3.39447\C,0,-3.99351,-4.0199
 8,-3.33686\C,0,-5.37464,-1.95343,-3.30643\N,0,-4.08453,-2.64834,-3.285
 \H,0,-6.38686,2.33339,-7.85142\H,0,-5.17389,2.63279,-6.80206\H,0,-6.68
 317,2.354,-6.24668\H,0,-2.78775,-3.96138,-6.27415\H,0,-4.46448,-3.9090
 2,-6.58387\N,0,-3.60878,-3.41286,-6.4328\C,0,-3.56558,-2.07898,-6.4426
 7\C,0,-4.48786,0.10538,-6.64184\N,0,-3.32465,0.74491,-6.436\H,0,-1.356
 67,0.30693,-6.06745\C,0,-2.33913,-0.12932,-6.24269\N,0,-2.38038,-1.465
 65,-6.23243\H,0,-7.65158,-0.22357,-7.22052\C,0,-6.59123,-0.3835,-7.022
 96\N,0,-6.02462,-1.55917,-6.90282\C,0,-4.69089,-1.26354,-6.66096\C,0,-
 6.01446,2.11252,-6.95002\N,0,-5.71999,0.66826,-6.87645\\Version=EM64L-
 G16RevA.03\State=1-A\HF=-2048.7492612\RMSD=6.914e-09\Dipole=-3.867533,
 1.6011986,-0.5623361\Quadrupole=33.2387976,-1.3527251,-31.8860725,11.8
 312951,-2.4569651,5.2953702\PG=C01 [X(C23H27N17O3)]\\@


 NATURE GIVES TO EVERY TIME AND SEASON SOME BEAUTY OF ITS OWN.

                                                    --DICKENS
 Job cpu time:       0 days  5 hours 51 minutes 57.4 seconds.
 Elapsed time:       0 days  0 hours 11 minutes 24.3 seconds.
 File lengths (MBytes):  RWF=    298 Int=      0 D2E=      0 Chk=     33 Scr=      1
 Normal termination of Gaussian 16 at Thu Jan 25 02:52:10 2018.
