 Entering Gaussian System, Link 0=g16
 Input=str50.-15.-2.0.com
 Output=str50.-15.-2.0.log
 Initial command:
 /share/apps/g16/l1.exe "/state/partition1/scr/Gau-24447.inp" -scrdir="/state/partition1/scr/"
 Entering Link 1 = /share/apps/g16/l1.exe PID=     24448.
  
 Copyright (c) 1988,1990,1992,1993,1995,1998,2003,2009,2016,
            Gaussian, Inc.  All Rights Reserved.
  
 This is part of the Gaussian(R) 16 program.  It is based on
 the Gaussian(R) 09 system (copyright 2009, Gaussian, Inc.),
 the Gaussian(R) 03 system (copyright 2003, Gaussian, Inc.),
 the Gaussian(R) 98 system (copyright 1998, Gaussian, Inc.),
 the Gaussian(R) 94 system (copyright 1995, Gaussian, Inc.),
 the Gaussian 92(TM) system (copyright 1992, Gaussian, Inc.),
 the Gaussian 90(TM) system (copyright 1990, Gaussian, Inc.),
 the Gaussian 88(TM) system (copyright 1988, Gaussian, Inc.),
 the Gaussian 86(TM) system (copyright 1986, Carnegie Mellon
 University), and the Gaussian 82(TM) system (copyright 1983,
 Carnegie Mellon University). Gaussian is a federally registered
 trademark of Gaussian, Inc.
  
 This software contains proprietary and confidential information,
 including trade secrets, belonging to Gaussian, Inc.
  
 This software is provided under written license and may be
 used, copied, transmitted, or stored only in accord with that
 written license.
  
 The following legend is applicable only to US Government
 contracts under FAR:
  
                    RESTRICTED RIGHTS LEGEND
  
 Use, reproduction and disclosure by the US Government is
 subject to restrictions as set forth in subparagraphs (a)
 and (c) of the Commercial Computer Software - Restricted
 Rights clause in FAR 52.227-19.
  
 Gaussian, Inc.
 340 Quinnipiac St., Bldg. 40, Wallingford CT 06492
  
  
 ---------------------------------------------------------------
 Warning -- This program may not be used in any manner that
 competes with the business of Gaussian, Inc. or will provide
 assistance to any competitor of Gaussian, Inc.  The licensee
 of this program is prohibited from giving any competitor of
 Gaussian, Inc. access to this program.  By using this program,
 the user acknowledges that Gaussian, Inc. is engaged in the
 business of creating and licensing software in the field of
 computational chemistry and represents and warrants to the
 licensee that it is not a competitor of Gaussian, Inc. and that
 it will not use this program in any manner prohibited above.
 ---------------------------------------------------------------
  

 Cite this work as:
 Gaussian 16, Revision A.03,
 M. J. Frisch, G. W. Trucks, H. B. Schlegel, G. E. Scuseria, 
 M. A. Robb, J. R. Cheeseman, G. Scalmani, V. Barone, 
 G. A. Petersson, H. Nakatsuji, X. Li, M. Caricato, A. V. Marenich, 
 J. Bloino, B. G. Janesko, R. Gomperts, B. Mennucci, H. P. Hratchian, 
 J. V. Ortiz, A. F. Izmaylov, J. L. Sonnenberg, D. Williams-Young, 
 F. Ding, F. Lipparini, F. Egidi, J. Goings, B. Peng, A. Petrone, 
 T. Henderson, D. Ranasinghe, V. G. Zakrzewski, J. Gao, N. Rega, 
 G. Zheng, W. Liang, M. Hada, M. Ehara, K. Toyota, R. Fukuda, 
 J. Hasegawa, M. Ishida, T. Nakajima, Y. Honda, O. Kitao, H. Nakai, 
 T. Vreven, K. Throssell, J. A. Montgomery, Jr., J. E. Peralta, 
 F. Ogliaro, M. J. Bearpark, J. J. Heyd, E. N. Brothers, K. N. Kudin, 
 V. N. Staroverov, T. A. Keith, R. Kobayashi, J. Normand, 
 K. Raghavachari, A. P. Rendell, J. C. Burant, S. S. Iyengar, 
 J. Tomasi, M. Cossi, J. M. Millam, M. Klene, C. Adamo, R. Cammi, 
 J. W. Ochterski, R. L. Martin, K. Morokuma, O. Farkas, 
 J. B. Foresman, and D. J. Fox, Gaussian, Inc., Wallingford CT, 2016.
 
 ******************************************
 Gaussian 16:  EM64L-G16RevA.03 25-Dec-2016
                24-Jan-2018 
 ******************************************
 %nprocshared=32
 Will use up to   32 processors via shared memory.
 %mem=32GB
 %chk=allatoms_t.chk
 ---------------------------------------
 #p wb97xd/cc-pvdz sp scf=(maxcycles=20)
 ---------------------------------------
 1/38=1,172=1/1;
 2/12=2,17=6,18=5,40=1/2;
 3/5=16,11=2,25=1,30=1,74=-58/1,2,3;
 4//1;
 5/5=2,7=20,38=5/2;
 6/7=2,8=2,9=2,10=2,28=1/1;
 99/5=1,9=1/99;
 Leave Link    1 at Wed Jan 24 17:57:00 2018, MaxMem=  4294967296 cpu:               2.7 elap:               0.1
 (Enter /share/apps/g16/l101.exe)
 ------------------
 Base pair stacking
 ------------------
 Symbolic Z-matrix:
 Charge =  0 Multiplicity = 1
 N                     6.96681   3.40442  -8.28548 
 C                     8.21037   4.17438  -8.48231 
 C                     4.90204   2.8268   -7.79519 
 N                     5.52843   1.67672  -8.25309 
 C                     6.74731   2.07074  -8.53014 
 H                     7.5345    1.4243   -8.91923 
 N                     3.29392   4.3347   -6.95665 
 C                     4.2463    5.27047  -7.02666 
 H                     3.94485   6.26585  -6.70322 
 N                     5.5092    5.16179  -7.4343 
 C                     5.77604   3.89985  -7.80945 
 C                     3.59384   3.07487  -7.34132 
 N                     2.6445    2.13938  -7.27217 
 H                     2.82197   1.19362  -7.54651 
 H                     1.72403   2.35188  -6.94396 
 H                     8.47772   4.1379   -9.44531 
 H                     8.06011   5.12572  -8.21491 
 H                     8.93947   3.78323  -7.9207 
 N                     3.15962   5.89429  -3.5281 
 C                     1.96182   5.25054  -3.33089 
 C                     3.3536    7.35819  -3.51937 
 N                    -1.453     5.37452  -2.71008 
 H                    -2.2055    4.72692  -2.59347 
 H                    -1.67651   6.34711  -2.6406 
 N                     0.7704    5.84239  -3.09789 
 C                    -0.20013   4.95837  -2.94894 
 N                    -0.0198    3.59836  -3.02221 
 H                    -0.8197    2.99745  -2.89563 
 C                     1.19706   2.9674   -3.26098 
 O                     1.25153   1.73226  -3.30777 
 C                     2.24923   3.90417  -3.4231 
 N                     3.60028   3.70665  -3.67316 
 C                     4.09879   4.91196  -3.7272 
 H                     5.149     5.14196  -3.91011 
 H                     3.71077   7.65405  -4.40463 
 H                     2.47777   7.80731  -3.34766 
 H                     4.00087   7.60604  -2.79934 
 H                    -5.2941    0.58361  -2.81875 
 H                    -4.86573   0.27916  -1.13695 
 H                    -4.32673   1.76013  -1.92915 
 H                    -2.148    -3.01743  -3.34897 
 C                    -2.14913  -1.94486  -3.15451 
 O                     0.14477  -1.65949  -3.68714 
 C                    -0.93927  -1.20056  -3.32794 
 H                    -0.21606   0.70714  -3.1668 
 N                    -1.05018   0.14806  -3.05555 
 O                    -2.17509   2.01911  -2.43031 
 C                    -2.17502   0.82013  -2.64738 
 H                    -4.20792  -1.83771  -2.61072 
 C                    -3.26234  -1.31742  -2.75739 
 C                    -4.52761   0.70828  -2.0684 
 N                    -3.30115   0.03391  -2.50287 
 H                    -3.84368   6.66689  -4.44711 
 H                    -2.32233   6.55439  -3.86836 
 H                    -3.57504   5.99399  -2.98476 
 H                    -0.62141   0.47834  -6.97383 
 H                    -2.28803   0.57458  -6.62279 
 N                    -1.38369   1.00178  -6.59295 
 C                    -1.20337   2.21562  -6.0683 
 C                    -1.89829   4.23218  -5.01363 
 N                    -0.67256   4.78108  -4.98703 
 H                     1.24481   4.32513  -5.54954 
 C                     0.22023   3.95616  -5.53049 
 N                     0.0416    2.74003  -6.0565 
 H                    -5.08693   4.02411  -4.52224 
 C                    -4.04603   3.84773  -4.79493 
 N                    -3.60199   2.76034  -5.37639 
 C                    -2.2416    2.99103  -5.52082 
 C                    -3.21406   6.10478  -3.91082 
 N                    -3.06902   4.7806   -4.54607 
 
 ITRead=  0  0  0  0  0  0  0  0  0  0  0  0  0  0  0  0  0  0  0  0
 ITRead=  0  0  0  0  0  0  0  0  0  0  0  0  0  0  0  0  0  0  0  0
 ITRead=  0  0  0  0  0  0  0  0  0  0  0  0  0  0  0  0  0  0  0  0
 ITRead=  0  0  0  0  0  0  0  0  0  0
 MicOpt= -1 -1 -1 -1 -1 -1 -1 -1 -1 -1 -1 -1 -1 -1 -1 -1 -1 -1 -1 -1
 MicOpt= -1 -1 -1 -1 -1 -1 -1 -1 -1 -1 -1 -1 -1 -1 -1 -1 -1 -1 -1 -1
 MicOpt= -1 -1 -1 -1 -1 -1 -1 -1 -1 -1 -1 -1 -1 -1 -1 -1 -1 -1 -1 -1
 MicOpt= -1 -1 -1 -1 -1 -1 -1 -1 -1 -1
 NAtoms=     70 NQM=       70 NQMF=       0 NMMI=      0 NMMIF=      0
                NMic=       0 NMicF=      0.
                    Isotopes and Nuclear Properties:
 (Nuclear quadrupole moments (NQMom) in fm**2, nuclear magnetic moments (NMagM)
  in nuclear magnetons)

  Atom         1           2           3           4           5           6           7           8           9          10
 IAtWgt=          14          12          12          14          12           1          14          12           1          14
 AtmWgt=  14.0030740  12.0000000  12.0000000  14.0030740  12.0000000   1.0078250  14.0030740  12.0000000   1.0078250  14.0030740
 NucSpn=           2           0           0           2           0           1           2           0           1           2
 AtZEff=  -0.0000000  -0.0000000  -0.0000000  -0.0000000  -0.0000000  -0.0000000  -0.0000000  -0.0000000  -0.0000000  -0.0000000
 NQMom=    2.0440000   0.0000000   0.0000000   2.0440000   0.0000000   0.0000000   2.0440000   0.0000000   0.0000000   2.0440000
 NMagM=    0.4037610   0.0000000   0.0000000   0.4037610   0.0000000   2.7928460   0.4037610   0.0000000   2.7928460   0.4037610
 AtZNuc=   7.0000000   6.0000000   6.0000000   7.0000000   6.0000000   1.0000000   7.0000000   6.0000000   1.0000000   7.0000000

  Atom        11          12          13          14          15          16          17          18          19          20
 IAtWgt=          12          12          14           1           1           1           1           1          14          12
 AtmWgt=  12.0000000  12.0000000  14.0030740   1.0078250   1.0078250   1.0078250   1.0078250   1.0078250  14.0030740  12.0000000
 NucSpn=           0           0           2           1           1           1           1           1           2           0
 AtZEff=  -0.0000000  -0.0000000  -0.0000000  -0.0000000  -0.0000000  -0.0000000  -0.0000000  -0.0000000  -0.0000000  -0.0000000
 NQMom=    0.0000000   0.0000000   2.0440000   0.0000000   0.0000000   0.0000000   0.0000000   0.0000000   2.0440000   0.0000000
 NMagM=    0.0000000   0.0000000   0.4037610   2.7928460   2.7928460   2.7928460   2.7928460   2.7928460   0.4037610   0.0000000
 AtZNuc=   6.0000000   6.0000000   7.0000000   1.0000000   1.0000000   1.0000000   1.0000000   1.0000000   7.0000000   6.0000000

  Atom        21          22          23          24          25          26          27          28          29          30
 IAtWgt=          12          14           1           1          14          12          14           1          12          16
 AtmWgt=  12.0000000  14.0030740   1.0078250   1.0078250  14.0030740  12.0000000  14.0030740   1.0078250  12.0000000  15.9949146
 NucSpn=           0           2           1           1           2           0           2           1           0           0
 AtZEff=  -0.0000000  -0.0000000  -0.0000000  -0.0000000  -0.0000000  -0.0000000  -0.0000000  -0.0000000  -0.0000000  -0.0000000
 NQMom=    0.0000000   2.0440000   0.0000000   0.0000000   2.0440000   0.0000000   2.0440000   0.0000000   0.0000000   0.0000000
 NMagM=    0.0000000   0.4037610   2.7928460   2.7928460   0.4037610   0.0000000   0.4037610   2.7928460   0.0000000   0.0000000
 AtZNuc=   6.0000000   7.0000000   1.0000000   1.0000000   7.0000000   6.0000000   7.0000000   1.0000000   6.0000000   8.0000000

  Atom        31          32          33          34          35          36          37          38          39          40
 IAtWgt=          12          14          12           1           1           1           1           1           1           1
 AtmWgt=  12.0000000  14.0030740  12.0000000   1.0078250   1.0078250   1.0078250   1.0078250   1.0078250   1.0078250   1.0078250
 NucSpn=           0           2           0           1           1           1           1           1           1           1
 AtZEff=  -0.0000000  -0.0000000  -0.0000000  -0.0000000  -0.0000000  -0.0000000  -0.0000000  -0.0000000  -0.0000000  -0.0000000
 NQMom=    0.0000000   2.0440000   0.0000000   0.0000000   0.0000000   0.0000000   0.0000000   0.0000000   0.0000000   0.0000000
 NMagM=    0.0000000   0.4037610   0.0000000   2.7928460   2.7928460   2.7928460   2.7928460   2.7928460   2.7928460   2.7928460
 AtZNuc=   6.0000000   7.0000000   6.0000000   1.0000000   1.0000000   1.0000000   1.0000000   1.0000000   1.0000000   1.0000000

  Atom        41          42          43          44          45          46          47          48          49          50
 IAtWgt=           1          12          16          12           1          14          16          12           1          12
 AtmWgt=   1.0078250  12.0000000  15.9949146  12.0000000   1.0078250  14.0030740  15.9949146  12.0000000   1.0078250  12.0000000
 NucSpn=           1           0           0           0           1           2           0           0           1           0
 AtZEff=  -0.0000000  -0.0000000  -0.0000000  -0.0000000  -0.0000000  -0.0000000  -0.0000000  -0.0000000  -0.0000000  -0.0000000
 NQMom=    0.0000000   0.0000000   0.0000000   0.0000000   0.0000000   2.0440000   0.0000000   0.0000000   0.0000000   0.0000000
 NMagM=    2.7928460   0.0000000   0.0000000   0.0000000   2.7928460   0.4037610   0.0000000   0.0000000   2.7928460   0.0000000
 AtZNuc=   1.0000000   6.0000000   8.0000000   6.0000000   1.0000000   7.0000000   8.0000000   6.0000000   1.0000000   6.0000000

  Atom        51          52          53          54          55          56          57          58          59          60
 IAtWgt=          12          14           1           1           1           1           1          14          12          12
 AtmWgt=  12.0000000  14.0030740   1.0078250   1.0078250   1.0078250   1.0078250   1.0078250  14.0030740  12.0000000  12.0000000
 NucSpn=           0           2           1           1           1           1           1           2           0           0
 AtZEff=  -0.0000000  -0.0000000  -0.0000000  -0.0000000  -0.0000000  -0.0000000  -0.0000000  -0.0000000  -0.0000000  -0.0000000
 NQMom=    0.0000000   2.0440000   0.0000000   0.0000000   0.0000000   0.0000000   0.0000000   2.0440000   0.0000000   0.0000000
 NMagM=    0.0000000   0.4037610   2.7928460   2.7928460   2.7928460   2.7928460   2.7928460   0.4037610   0.0000000   0.0000000
 AtZNuc=   6.0000000   7.0000000   1.0000000   1.0000000   1.0000000   1.0000000   1.0000000   7.0000000   6.0000000   6.0000000

  Atom        61          62          63          64          65          66          67          68          69          70
 IAtWgt=          14           1          12          14           1          12          14          12          12          14
 AtmWgt=  14.0030740   1.0078250  12.0000000  14.0030740   1.0078250  12.0000000  14.0030740  12.0000000  12.0000000  14.0030740
 NucSpn=           2           1           0           2           1           0           2           0           0           2
 AtZEff=  -0.0000000  -0.0000000  -0.0000000  -0.0000000  -0.0000000  -0.0000000  -0.0000000  -0.0000000  -0.0000000  -0.0000000
 NQMom=    2.0440000   0.0000000   0.0000000   2.0440000   0.0000000   0.0000000   2.0440000   0.0000000   0.0000000   2.0440000
 NMagM=    0.4037610   2.7928460   0.0000000   0.4037610   2.7928460   0.0000000   0.4037610   0.0000000   0.0000000   0.4037610
 AtZNuc=   7.0000000   1.0000000   6.0000000   7.0000000   1.0000000   6.0000000   7.0000000   6.0000000   6.0000000   7.0000000
 Leave Link  101 at Wed Jan 24 17:57:01 2018, MaxMem=  4294967296 cpu:               7.3 elap:               0.3
 (Enter /share/apps/g16/l202.exe)
 Stoichiometry    C23H27N17O3
 Framework group  C1[X(C23H27N17O3)]
 Deg. of freedom   204
 Full point group                 C1      NOp   1
 Largest Abelian subgroup         C1      NOp   1
 Largest concise Abelian subgroup C1      NOp   1
                         Standard orientation:                         
 ---------------------------------------------------------------------
 Center     Atomic      Atomic             Coordinates (Angstroms)
 Number     Number       Type             X           Y           Z
 ---------------------------------------------------------------------
      1          7           0       -6.886784   -1.546344    0.309129
      2          6           0       -8.256798   -1.060208    0.054658
      3          6           0       -4.726693   -1.643371    0.711494
      4          7           0       -5.165199   -2.956910    0.627533
      5          6           0       -6.449022   -2.845886    0.388477
      6          1           0       -7.130781   -3.687100    0.259993
      7          7           0       -3.364602    0.264918    0.968594
      8          6           0       -4.470444    0.987933    0.763760
      9          1           0       -4.331706    2.067864    0.791469
     10          7           0       -5.716070    0.579148    0.530931
     11          6           0       -5.776581   -0.762711    0.517357
     12          6           0       -3.458551   -1.082626    0.948778
     13          7           0       -2.355797   -1.806078    1.153041
     14          1           0       -2.378625   -2.806409    1.147073
     15          1           0       -1.469719   -1.373067    1.318901
     16          1           0       -8.869520   -1.396515    0.769952
     17          1           0       -8.262106   -0.060658    0.055386
     18          1           0       -8.570972   -1.392875   -0.834509
     19          7           0       -2.269481    2.694439   -1.696636
     20          6           0       -0.972007    2.321262   -1.441038
     21          6           0       -2.813194    4.057903   -1.535236
     22          7           0        2.246262    3.135031   -0.420108
     23          1           0        3.121039    2.667538   -0.295793
     24          1           0        2.220271    4.112607   -0.209431
     25          7           0        0.016236    3.130931   -1.003009
     26          6           0        1.156446    2.481237   -0.849961
     27          7           0        1.318568    1.141160   -1.105743
     28          1           0        2.226988    0.728061   -0.960556
     29          6           0        0.315718    0.288832   -1.557071
     30          8           0        0.566940   -0.905961   -1.757281
     31          6           0       -0.915101    0.972466   -1.726221
     32          7           0       -2.151960    0.508218   -2.152289
     33          6           0       -2.921943    1.561884   -2.118852
     34          1           0       -3.977492    1.568577   -2.392839
     35          1           0       -3.559120    4.044530   -0.870251
     36          1           0       -2.090165    4.666562   -1.211147
     37          1           0       -3.156233    4.387937   -2.414004
     38          1           0        6.810779   -0.852935    0.569835
     39          1           0        7.188934   -0.753922   -1.148257
     40          1           0        6.015632    0.355915   -0.439033
     41          1           0        4.759973   -4.904816   -1.018567
     42          6           0        4.563097   -3.832845   -1.000131
     43          8           0        2.259866   -4.060417   -1.520179
     44          6           0        3.238707   -3.359556   -1.264350
     45          1           0        2.177020   -1.615018   -1.397496
     46          7           0        3.098578   -1.987218   -1.216110
     47          8           0        3.856850    0.133774   -0.926987
     48          6           0        4.078101   -1.064269   -0.947327
     49          1           0        6.563199   -3.265617   -0.527216
     50          6           0        5.539445   -2.957091   -0.734758
     51          6           0        6.406877   -0.650199   -0.410898
     52          7           0        5.328079   -1.598160   -0.702973
     53          1           0        3.315896    4.263385    2.405762
     54          1           0        2.240753    4.077611    1.192639
     55          1           0        3.841000    3.977659    0.887192
     56          1           0        1.061394   -2.798759    2.075870
     57          1           0        2.642210   -2.354654    2.538369
     58          7           0        1.749621   -2.080501    2.178721
     59          6           0        1.489706   -0.813100    1.851122
     60          6           0        2.005359    1.495733    1.595887
     61          7           0        0.797743    1.834951    1.115256
     62          1           0       -0.995849    0.953081    0.661438
     63          6           0        0.007064    0.766074    1.042831
     64          7           0        0.265536   -0.504131    1.370455
     65          1           0        5.058312    1.924000    2.569667
     66          6           0        4.079439    1.521694    2.307179
     67          7           0        3.735348    0.262534    2.424656
     68          6           0        2.422541    0.232309    1.977037
     69          6           0        3.122955    3.776801    1.553702
     70          7           0        3.080909    2.324332    1.811763
 ---------------------------------------------------------------------
 Rotational constants (GHZ):           0.1365858           0.0536321           0.0461240
 Leave Link  202 at Wed Jan 24 17:57:01 2018, MaxMem=  4294967296 cpu:               0.3 elap:               0.0
 (Enter /share/apps/g16/l301.exe)
 Standard basis: CC-pVDZ (5D, 7F)
 Ernie: Thresh=  0.10000D-02 Tol=  0.10000D-05 Strict=F.
 Ernie:  86 primitive shells out of 1081 were deleted.
 There are   780 symmetry adapted cartesian basis functions of A   symmetry.
 There are   737 symmetry adapted basis functions of A   symmetry.
   737 basis functions,  1608 primitive gaussians,   780 cartesian basis functions
   154 alpha electrons      154 beta electrons
       nuclear repulsion energy      5497.8241310610 Hartrees.
 IExCor= 4639 DFT=T Ex+Corr=wB97XD ExCW=0 ScaHFX=  1.000000
 ScaDFX=  1.000000  1.000000  1.000000  1.000000 ScalE2=  1.000000  1.000000
 IRadAn=      5 IRanWt=     -1 IRanGd=            0 ICorTp=0 IEmpDi=121
 HFx  wShort=  0.000000 wLong=  0.200000 cFull=  0.222036 cShort=  0.000000 cLong=  0.777964
 DFx  wShort=  0.000000 wLong=  0.200000 cFull=  0.000000 cShort=  0.000000 cLong=  1.000000
 NAtoms=   70 NActive=   70 NUniq=   70 SFac= 1.00D+00 NAtFMM=   60 NAOKFM=T Big=T
 Integral buffers will be    131072 words long.
 Raffenetti 2 integral format.
 Two-electron integral symmetry is turned on.
 R6Disp:  Grimme-D2 Dispersion energy=       -0.0698844614 Hartrees.
 Nuclear repulsion after empirical dispersion term =     5497.7542465995 Hartrees.
 Leave Link  301 at Wed Jan 24 17:57:01 2018, MaxMem=  4294967296 cpu:               2.1 elap:               0.1
 (Enter /share/apps/g16/l302.exe)
 NPDir=0 NMtPBC=     1 NCelOv=     1 NCel=       1 NClECP=     1 NCelD=      1
         NCelK=      1 NCelE2=     1 NClLst=     1 CellRange=     0.0.
 One-electron integrals computed using PRISM.
 One-electron integral symmetry used in STVInt
 NBasis=   737 RedAO= T EigKep=  6.66D-04  NBF=   737
 NBsUse=   737 1.00D-06 EigRej= -1.00D+00 NBFU=   737
 Precomputing XC quadrature grid using
 IXCGrd= 4 IRadAn=           5 IRanWt=          -1 IRanGd=           0 AccXCQ= 0.00D+00.
 Generated NRdTot=       0 NPtTot=           0 NUsed=           0 NTot=          32
 NSgBfM=   763   763   763   763   763 MxSgAt=    70 MxSgA2=    70.
 Leave Link  302 at Wed Jan 24 17:57:05 2018, MaxMem=  4294967296 cpu:             133.8 elap:               4.2
 (Enter /share/apps/g16/l303.exe)
 DipDrv:  MaxL=1.
 Leave Link  303 at Wed Jan 24 17:57:06 2018, MaxMem=  4294967296 cpu:              12.6 elap:               0.4
 (Enter /share/apps/g16/l401.exe)
 ExpMin= 1.22D-01 ExpMax= 1.17D+04 ExpMxC= 4.01D+02 IAcc=3 IRadAn=         5 AccDes= 0.00D+00
 Harris functional with IExCor= 4639 and IRadAn=       5 diagonalized for initial guess.
 HarFok:  IExCor= 4639 AccDes= 0.00D+00 IRadAn=         5 IDoV= 1 UseB2=F ITyADJ=14
 ICtDFT=  3500011 ScaDFX=  1.000000  1.000000  1.000000  1.000000
 FoFCou: FMM=F IPFlag=           0 FMFlag=      100000 FMFlg1=        2001
         NFxFlg=           0 DoJE=T BraDBF=F KetDBF=T FulRan=T
         wScrn=  0.000000 ICntrl=       500 IOpCl=  0 I1Cent=   200000004 NGrid=           0
         NMat0=    1 NMatS0=      1 NMatT0=    0 NMatD0=    1 NMtDS0=    0 NMtDT0=    0
 Petite list used in FoFCou.
 Harris En= -1963.73130202498    
 JPrj=0 DoOrth=F DoCkMO=F.
 Leave Link  401 at Wed Jan 24 17:57:18 2018, MaxMem=  4294967296 cpu:             403.7 elap:              12.7
 (Enter /share/apps/g16/l502.exe)
 Integral symmetry usage will be decided dynamically.
 Closed shell SCF:
 Using DIIS extrapolation, IDIIS=  1040.
 NGot=  4294967296 LenX=  4293717438 LenY=  4293108258
 Requested convergence on RMS density matrix=1.00D-08 within  20 cycles.
 Requested convergence on MAX density matrix=1.00D-06.
 Requested convergence on             energy=1.00D-06.
 No special actions if energy rises.
 Fock matrices will be formed incrementally for  20 cycles.
 Integral accuracy reduced to 1.0D-05 until final iterations.

 Cycle   1  Pass 0  IDiag  1:
 FoFJK:  IHMeth= 1 ICntrl=       0 DoSepK=T KAlg= 0 I1Cent=           0 FoldK=F
 IRaf=         1 NMat=       1 IRICut=       1 DoRegI=T DoRafI=F ISym2E= 0 IDoP0=0 IntGTp=1.
 FoFCou: FMM=T IPFlag=           0 FMFlag=      100000 FMFlg1=        2001
         NFxFlg=           0 DoJE=T BraDBF=F KetDBF=F FulRan=T
         wScrn=  0.000000 ICntrl=       500 IOpCl=  0 I1Cent=           0 NGrid=           0
         NMat0=    1 NMatS0=      1 NMatT0=    0 NMatD0=    1 NMtDS0=    0 NMtDT0=    0
 Symmetry not used in FoFCou.
 FMM levels:  10  Number of levels for PrismC:   9
 E= -2048.18550200144    
 DIIS: error= 2.48D-02 at cycle   1 NSaved=   1.
 NSaved= 1 IEnMin= 1 EnMin= -2048.18550200144     IErMin= 1 ErrMin= 2.48D-02
 ErrMax= 2.48D-02  0.00D+00 EMaxC= 1.00D-01 BMatC= 8.36D-01 BMatP= 8.36D-01
 IDIUse=3 WtCom= 7.52D-01 WtEn= 2.48D-01
 Coeff-Com:  0.100D+01
 Coeff-En:   0.100D+01
 Coeff:      0.100D+01
 Gap=     0.257 Goal=   None    Shift=    0.000
 GapD=    0.257 DampG=1.000 DampE=0.500 DampFc=0.5000 IDamp=-1.
 Damping current iteration by 5.00D-01
 RMSDP=1.62D-03 MaxDP=1.30D-01              OVMax= 1.73D-01

 Cycle   2  Pass 0  IDiag  1:
 RMSU=  8.08D-04    CP:  9.97D-01
 E= -2048.38492906493     Delta-E=       -0.199427063486 Rises=F Damp=T
 DIIS: error= 1.24D-02 at cycle   2 NSaved=   2.
 NSaved= 2 IEnMin= 2 EnMin= -2048.38492906493     IErMin= 2 ErrMin= 1.24D-02
 ErrMax= 1.24D-02  0.00D+00 EMaxC= 1.00D-01 BMatC= 1.46D-01 BMatP= 8.36D-01
 IDIUse=3 WtCom= 8.76D-01 WtEn= 1.24D-01
 Coeff-Com: -0.191D+00 0.119D+01
 Coeff-En:   0.000D+00 0.100D+01
 Coeff:     -0.167D+00 0.117D+01
 Gap=     0.351 Goal=   None    Shift=    0.000
 RMSDP=6.02D-04 MaxDP=3.33D-02 DE=-1.99D-01 OVMax= 1.51D-01

 Cycle   3  Pass 0  IDiag  1:
 RMSU=  5.91D-04    CP:  9.94D-01  1.13D+00
 E= -2048.56890780143     Delta-E=       -0.183978736502 Rises=F Damp=F
 DIIS: error= 7.30D-03 at cycle   3 NSaved=   3.
 NSaved= 3 IEnMin= 3 EnMin= -2048.56890780143     IErMin= 3 ErrMin= 7.30D-03
 ErrMax= 7.30D-03  0.00D+00 EMaxC= 1.00D-01 BMatC= 6.25D-02 BMatP= 1.46D-01
 IDIUse=3 WtCom= 9.27D-01 WtEn= 7.30D-02
 Coeff-Com: -0.229D+00 0.542D+00 0.687D+00
 Coeff-En:   0.000D+00 0.000D+00 0.100D+01
 Coeff:     -0.212D+00 0.503D+00 0.709D+00
 Gap=     0.275 Goal=   None    Shift=    0.000
 RMSDP=3.62D-04 MaxDP=3.34D-02 DE=-1.84D-01 OVMax= 7.31D-02

 Cycle   4  Pass 0  IDiag  1:
 RMSU=  2.08D-04    CP:  9.94D-01  1.42D+00  6.83D-01
 E= -2048.61612865267     Delta-E=       -0.047220851236 Rises=F Damp=F
 DIIS: error= 2.73D-03 at cycle   4 NSaved=   4.
 NSaved= 4 IEnMin= 4 EnMin= -2048.61612865267     IErMin= 4 ErrMin= 2.73D-03
 ErrMax= 2.73D-03  0.00D+00 EMaxC= 1.00D-01 BMatC= 9.17D-03 BMatP= 6.25D-02
 IDIUse=3 WtCom= 9.73D-01 WtEn= 2.73D-02
 Coeff-Com: -0.962D-01 0.187D+00 0.382D+00 0.528D+00
 Coeff-En:   0.000D+00 0.000D+00 0.657D-01 0.934D+00
 Coeff:     -0.936D-01 0.182D+00 0.373D+00 0.539D+00
 Gap=     0.277 Goal=   None    Shift=    0.000
 RMSDP=1.31D-04 MaxDP=1.20D-02 DE=-4.72D-02 OVMax= 1.40D-02

 Cycle   5  Pass 0  IDiag  1:
 RMSU=  6.36D-05    CP:  9.93D-01  1.39D+00  8.14D-01  6.11D-01
 E= -2048.62372399139     Delta-E=       -0.007595338722 Rises=F Damp=F
 DIIS: error= 6.26D-04 at cycle   5 NSaved=   5.
 NSaved= 5 IEnMin= 5 EnMin= -2048.62372399139     IErMin= 5 ErrMin= 6.26D-04
 ErrMax= 6.26D-04  0.00D+00 EMaxC= 1.00D-01 BMatC= 3.06D-04 BMatP= 9.17D-03
 IDIUse=3 WtCom= 9.94D-01 WtEn= 6.26D-03
 Coeff-Com: -0.249D-01 0.426D-01 0.122D+00 0.239D+00 0.621D+00
 Coeff-En:   0.000D+00 0.000D+00 0.000D+00 0.000D+00 0.100D+01
 Coeff:     -0.247D-01 0.424D-01 0.122D+00 0.238D+00 0.623D+00
 Gap=     0.278 Goal=   None    Shift=    0.000
 RMSDP=2.81D-05 MaxDP=1.77D-03 DE=-7.60D-03 OVMax= 3.62D-03

 Failed to achieve initial convergence to 1.0D-08 in  6 cycles.
 Switch to full accuracy anyway.
 Cycle   6  Pass 1  IDiag  1:
 E= -2048.62419294036     Delta-E=       -0.000468948971 Rises=F Damp=F
 DIIS: error= 2.61D-04 at cycle   1 NSaved=   1.
 NSaved= 1 IEnMin= 1 EnMin= -2048.62419294036     IErMin= 1 ErrMin= 2.61D-04
 ErrMax= 2.61D-04  0.00D+00 EMaxC= 1.00D-01 BMatC= 8.09D-05 BMatP= 8.09D-05
 IDIUse=3 WtCom= 9.97D-01 WtEn= 2.61D-03
 Coeff-Com:  0.100D+01
 Coeff-En:   0.100D+01
 Coeff:      0.100D+01
 Gap=     0.277 Goal=   None    Shift=    0.000
 RMSDP=2.81D-05 MaxDP=1.77D-03 DE=-4.69D-04 OVMax= 2.26D-03

 Cycle   7  Pass 1  IDiag  1:
 RMSU=  1.19D-04    CP:  1.00D+00
 E= -2048.62424865304     Delta-E=       -0.000055712676 Rises=F Damp=F
 DIIS: error= 2.23D-04 at cycle   2 NSaved=   2.
 NSaved= 2 IEnMin= 2 EnMin= -2048.62424865304     IErMin= 2 ErrMin= 2.23D-04
 ErrMax= 2.23D-04  0.00D+00 EMaxC= 1.00D-01 BMatC= 4.96D-05 BMatP= 8.09D-05
 IDIUse=3 WtCom= 9.98D-01 WtEn= 2.23D-03
 Coeff-Com:  0.418D+00 0.582D+00
 Coeff-En:   0.197D-01 0.980D+00
 Coeff:      0.417D+00 0.583D+00
 Gap=     0.278 Goal=   None    Shift=    0.000
 RMSDP=1.29D-05 MaxDP=1.03D-03 DE=-5.57D-05 OVMax= 1.69D-03

 Cycle   8  Pass 1  IDiag  1:
 RMSU=  1.26D-05    CP:  1.00D+00  1.02D+00
 E= -2048.62428499128     Delta-E=       -0.000036338240 Rises=F Damp=F
 DIIS: error= 7.40D-05 at cycle   3 NSaved=   3.
 NSaved= 3 IEnMin= 3 EnMin= -2048.62428499128     IErMin= 3 ErrMin= 7.40D-05
 ErrMax= 7.40D-05  0.00D+00 EMaxC= 1.00D-01 BMatC= 1.11D-05 BMatP= 4.96D-05
 IDIUse=1 WtCom= 1.00D+00 WtEn= 0.00D+00
 Coeff-Com: -0.184D-01 0.307D+00 0.711D+00
 Coeff:     -0.184D-01 0.307D+00 0.711D+00
 Gap=     0.278 Goal=   None    Shift=    0.000
 RMSDP=6.10D-06 MaxDP=3.77D-04 DE=-3.63D-05 OVMax= 7.59D-04

 Cycle   9  Pass 1  IDiag  1:
 RMSU=  4.01D-06    CP:  1.00D+00  1.05D+00  7.57D-01
 E= -2048.62429551767     Delta-E=       -0.000010526399 Rises=F Damp=F
 DIIS: error= 3.80D-05 at cycle   4 NSaved=   4.
 NSaved= 4 IEnMin= 4 EnMin= -2048.62429551767     IErMin= 4 ErrMin= 3.80D-05
 ErrMax= 3.80D-05  0.00D+00 EMaxC= 1.00D-01 BMatC= 5.92D-07 BMatP= 1.11D-05
 IDIUse=1 WtCom= 1.00D+00 WtEn= 0.00D+00
 Coeff-Com: -0.312D-01 0.887D-01 0.276D+00 0.667D+00
 Coeff:     -0.312D-01 0.887D-01 0.276D+00 0.667D+00
 Gap=     0.277 Goal=   None    Shift=    0.000
 RMSDP=1.52D-06 MaxDP=1.21D-04 DE=-1.05D-05 OVMax= 4.06D-04

 Cycle  10  Pass 1  IDiag  1:
 RMSU=  1.36D-06    CP:  1.00D+00  1.05D+00  7.92D-01  1.09D+00
 E= -2048.62429645452     Delta-E=       -0.000000936850 Rises=F Damp=F
 DIIS: error= 1.44D-05 at cycle   5 NSaved=   5.
 NSaved= 5 IEnMin= 5 EnMin= -2048.62429645452     IErMin= 5 ErrMin= 1.44D-05
 ErrMax= 1.44D-05  0.00D+00 EMaxC= 1.00D-01 BMatC= 1.22D-07 BMatP= 5.92D-07
 IDIUse=1 WtCom= 1.00D+00 WtEn= 0.00D+00
 Coeff-Com: -0.309D-02-0.547D-01-0.118D+00 0.188D+00 0.988D+00
 Coeff:     -0.309D-02-0.547D-01-0.118D+00 0.188D+00 0.988D+00
 Gap=     0.277 Goal=   None    Shift=    0.000
 RMSDP=1.26D-06 MaxDP=7.61D-05 DE=-9.37D-07 OVMax= 2.28D-04

 Cycle  11  Pass 1  IDiag  1:
 RMSU=  5.12D-07    CP:  1.00D+00  1.05D+00  7.99D-01  1.37D+00  1.19D+00
 E= -2048.62429673772     Delta-E=       -0.000000283194 Rises=F Damp=F
 DIIS: error= 9.43D-06 at cycle   6 NSaved=   6.
 NSaved= 6 IEnMin= 6 EnMin= -2048.62429673772     IErMin= 6 ErrMin= 9.43D-06
 ErrMax= 9.43D-06  0.00D+00 EMaxC= 1.00D-01 BMatC= 3.22D-08 BMatP= 1.22D-07
 IDIUse=1 WtCom= 1.00D+00 WtEn= 0.00D+00
 Coeff-Com:  0.471D-02-0.459D-01-0.117D+00-0.108D-01 0.535D+00 0.634D+00
 Coeff:      0.471D-02-0.459D-01-0.117D+00-0.108D-01 0.535D+00 0.634D+00
 Gap=     0.277 Goal=   None    Shift=    0.000
 RMSDP=4.06D-07 MaxDP=3.27D-05 DE=-2.83D-07 OVMax= 1.03D-04

 Cycle  12  Pass 1  IDiag  1:
 RMSU=  2.00D-07    CP:  1.00D+00  1.05D+00  8.03D-01  1.44D+00  1.33D+00
                    CP:  9.25D-01
 E= -2048.62429678353     Delta-E=       -0.000000045810 Rises=F Damp=F
 DIIS: error= 1.17D-06 at cycle   7 NSaved=   7.
 NSaved= 7 IEnMin= 7 EnMin= -2048.62429678353     IErMin= 7 ErrMin= 1.17D-06
 ErrMax= 1.17D-06  0.00D+00 EMaxC= 1.00D-01 BMatC= 8.03D-10 BMatP= 3.22D-08
 IDIUse=1 WtCom= 1.00D+00 WtEn= 0.00D+00
 Coeff-Com:  0.115D-02-0.798D-02-0.216D-01-0.952D-02 0.699D-01 0.139D+00
 Coeff-Com:  0.829D+00
 Coeff:      0.115D-02-0.798D-02-0.216D-01-0.952D-02 0.699D-01 0.139D+00
 Coeff:      0.829D+00
 Gap=     0.277 Goal=   None    Shift=    0.000
 RMSDP=8.88D-08 MaxDP=6.06D-06 DE=-4.58D-08 OVMax= 2.12D-05

 Cycle  13  Pass 1  IDiag  1:
 RMSU=  5.74D-08    CP:  1.00D+00  1.05D+00  8.02D-01  1.45D+00  1.35D+00
                    CP:  1.01D+00  1.13D+00
 E= -2048.62429678515     Delta-E=       -0.000000001617 Rises=F Damp=F
 DIIS: error= 6.95D-07 at cycle   8 NSaved=   8.
 NSaved= 8 IEnMin= 8 EnMin= -2048.62429678515     IErMin= 8 ErrMin= 6.95D-07
 ErrMax= 6.95D-07  0.00D+00 EMaxC= 1.00D-01 BMatC= 4.20D-10 BMatP= 8.03D-10
 IDIUse=1 WtCom= 1.00D+00 WtEn= 0.00D+00
 Coeff-Com: -0.697D-03 0.866D-02 0.212D-01-0.133D-02-0.113D+00-0.107D+00
 Coeff-Com:  0.440D+00 0.753D+00
 Coeff:     -0.697D-03 0.866D-02 0.212D-01-0.133D-02-0.113D+00-0.107D+00
 Coeff:      0.440D+00 0.753D+00
 Gap=     0.277 Goal=   None    Shift=    0.000
 RMSDP=5.59D-08 MaxDP=3.94D-06 DE=-1.62D-09 OVMax= 9.94D-06

 Cycle  14  Pass 1  IDiag  1:
 RMSU=  3.13D-08    CP:  1.00D+00  1.05D+00  8.02D-01  1.46D+00  1.36D+00
                    CP:  1.05D+00  1.30D+00  1.03D+00
 E= -2048.62429678579     Delta-E=       -0.000000000640 Rises=F Damp=F
 DIIS: error= 2.46D-07 at cycle   9 NSaved=   9.
 NSaved= 9 IEnMin= 9 EnMin= -2048.62429678579     IErMin= 9 ErrMin= 2.46D-07
 ErrMax= 2.46D-07  0.00D+00 EMaxC= 1.00D-01 BMatC= 4.75D-11 BMatP= 4.20D-10
 IDIUse=1 WtCom= 1.00D+00 WtEn= 0.00D+00
 Coeff-Com: -0.474D-03 0.512D-02 0.127D-01 0.101D-02-0.607D-01-0.668D-01
 Coeff-Com:  0.118D+00 0.344D+00 0.648D+00
 Coeff:     -0.474D-03 0.512D-02 0.127D-01 0.101D-02-0.607D-01-0.668D-01
 Coeff:      0.118D+00 0.344D+00 0.648D+00
 Gap=     0.277 Goal=   None    Shift=    0.000
 RMSDP=1.49D-08 MaxDP=1.06D-06 DE=-6.40D-10 OVMax= 2.75D-06

 Cycle  15  Pass 1  IDiag  1:
 RMSU=  1.03D-08    CP:  1.00D+00  1.05D+00  8.02D-01  1.45D+00  1.36D+00
                    CP:  1.06D+00  1.32D+00  1.18D+00  1.07D+00
 E= -2048.62429678601     Delta-E=       -0.000000000221 Rises=F Damp=F
 DIIS: error= 1.04D-07 at cycle  10 NSaved=  10.
 NSaved=10 IEnMin=10 EnMin= -2048.62429678601     IErMin=10 ErrMin= 1.04D-07
 ErrMax= 1.04D-07  0.00D+00 EMaxC= 1.00D-01 BMatC= 5.83D-12 BMatP= 4.75D-11
 IDIUse=1 WtCom= 1.00D+00 WtEn= 0.00D+00
 Coeff-Com: -0.268D-05-0.221D-03-0.480D-03 0.188D-03 0.431D-02 0.510D-03
 Coeff-Com: -0.558D-01-0.556D-01 0.205D+00 0.902D+00
 Coeff:     -0.268D-05-0.221D-03-0.480D-03 0.188D-03 0.431D-02 0.510D-03
 Coeff:     -0.558D-01-0.556D-01 0.205D+00 0.902D+00
 Gap=     0.277 Goal=   None    Shift=    0.000
 RMSDP=8.77D-09 MaxDP=4.28D-07 DE=-2.21D-10 OVMax= 1.73D-06

 SCF Done:  E(RwB97XD) =  -2048.62429679     A.U. after   15 cycles
            NFock= 15  Conv=0.88D-08     -V/T= 2.0050
 KE= 2.038411995355D+03 PE=-1.577641307780D+04 EE= 6.191622539062D+03
 Leave Link  502 at Wed Jan 24 18:08:54 2018, MaxMem=  4294967296 cpu:           21525.5 elap:             695.9
 (Enter /share/apps/g16/l601.exe)
 Copying SCF densities to generalized density rwf, IOpCl= 0 IROHF=0.

 **********************************************************************

            Population analysis using the SCF density.

 **********************************************************************

 Orbital symmetries:
       Occupied  (A) (A) (A) (A) (A) (A) (A) (A) (A) (A) (A) (A)
                 (A) (A) (A) (A) (A) (A) (A) (A) (A) (A) (A) (A)
                 (A) (A) (A) (A) (A) (A) (A) (A) (A) (A) (A) (A)
                 (A) (A) (A) (A) (A) (A) (A) (A) (A) (A) (A) (A)
                 (A) (A) (A) (A) (A) (A) (A) (A) (A) (A) (A) (A)
                 (A) (A) (A) (A) (A) (A) (A) (A) (A) (A) (A) (A)
                 (A) (A) (A) (A) (A) (A) (A) (A) (A) (A) (A) (A)
                 (A) (A) (A) (A) (A) (A) (A) (A) (A) (A) (A) (A)
                 (A) (A) (A) (A) (A) (A) (A) (A) (A) (A) (A) (A)
                 (A) (A) (A) (A) (A) (A) (A) (A) (A) (A) (A) (A)
                 (A) (A) (A) (A) (A) (A) (A) (A) (A) (A) (A) (A)
                 (A) (A) (A) (A) (A) (A) (A) (A) (A) (A) (A) (A)
                 (A) (A) (A) (A) (A) (A) (A) (A) (A) (A)
       Virtual   (A) (A) (A) (A) (A) (A) (A) (A) (A) (A) (A) (A)
                 (A) (A) (A) (A) (A) (A) (A) (A) (A) (A) (A) (A)
                 (A) (A) (A) (A) (A) (A) (A) (A) (A) (A) (A) (A)
                 (A) (A) (A) (A) (A) (A) (A) (A) (A) (A) (A) (A)
                 (A) (A) (A) (A) (A) (A) (A) (A) (A) (A) (A) (A)
                 (A) (A) (A) (A) (A) (A) (A) (A) (A) (A) (A) (A)
                 (A) (A) (A) (A) (A) (A) (A) (A) (A) (A) (A) (A)
                 (A) (A) (A) (A) (A) (A) (A) (A) (A) (A) (A) (A)
                 (A) (A) (A) (A) (A) (A) (A) (A) (A) (A) (A) (A)
                 (A) (A) (A) (A) (A) (A) (A) (A) (A) (A) (A) (A)
                 (A) (A) (A) (A) (A) (A) (A) (A) (A) (A) (A) (A)
                 (A) (A) (A) (A) (A) (A) (A) (A) (A) (A) (A) (A)
                 (A) (A) (A) (A) (A) (A) (A) (A) (A) (A) (A) (A)
                 (A) (A) (A) (A) (A) (A) (A) (A) (A) (A) (A) (A)
                 (A) (A) (A) (A) (A) (A) (A) (A) (A) (A) (A) (A)
                 (A) (A) (A) (A) (A) (A) (A) (A) (A) (A) (A) (A)
                 (A) (A) (A) (A) (A) (A) (A) (A) (A) (A) (A) (A)
                 (A) (A) (A) (A) (A) (A) (A) (A) (A) (A) (A) (A)
                 (A) (A) (A) (A) (A) (A) (A) (A) (A) (A) (A) (A)
                 (A) (A) (A) (A) (A) (A) (A) (A) (A) (A) (A) (A)
                 (A) (A) (A) (A) (A) (A) (A) (A) (A) (A) (A) (A)
                 (A) (A) (A) (A) (A) (A) (A) (A) (A) (A) (A) (A)
                 (A) (A) (A) (A) (A) (A) (A) (A) (A) (A) (A) (A)
                 (A) (A) (A) (A) (A) (A) (A) (A) (A) (A) (A) (A)
                 (A) (A) (A) (A) (A) (A) (A) (A) (A) (A) (A) (A)
                 (A) (A) (A) (A) (A) (A) (A) (A) (A) (A) (A) (A)
                 (A) (A) (A) (A) (A) (A) (A) (A) (A) (A) (A) (A)
                 (A) (A) (A) (A) (A) (A) (A) (A) (A) (A) (A) (A)
                 (A) (A) (A) (A) (A) (A) (A) (A) (A) (A) (A) (A)
                 (A) (A) (A) (A) (A) (A) (A) (A) (A) (A) (A) (A)
                 (A) (A) (A) (A) (A) (A) (A) (A) (A) (A) (A) (A)
                 (A) (A) (A) (A) (A) (A) (A) (A) (A) (A) (A) (A)
                 (A) (A) (A) (A) (A) (A) (A) (A) (A) (A) (A) (A)
                 (A) (A) (A) (A) (A) (A) (A) (A) (A) (A) (A) (A)
                 (A) (A) (A) (A) (A) (A) (A) (A) (A) (A) (A) (A)
                 (A) (A) (A) (A) (A) (A) (A) (A) (A) (A) (A) (A)
                 (A) (A) (A) (A) (A) (A) (A) (A) (A) (A) (A) (A)
                 (A) (A) (A) (A) (A) (A) (A) (A) (A) (A) (A) (A)
                 (A) (A) (A) (A) (A) (A) (A) (A) (A) (A) (A) (A)
                 (A) (A) (A) (A) (A) (A) (A) (A) (A) (A) (A) (A)
                 (A) (A) (A) (A) (A) (A) (A) (A) (A) (A) (A) (A)
                 (A) (A) (A) (A) (A) (A) (A) (A) (A) (A) (A) (A)
                 (A) (A) (A) (A) (A) (A) (A) (A) (A) (A) (A) (A)
                 (A) (A) (A) (A) (A) (A) (A) (A) (A) (A) (A) (A)
                 (A) (A) (A) (A) (A) (A) (A) (A) (A) (A) (A) (A)
                 (A) (A) (A) (A) (A) (A) (A) (A) (A) (A) (A) (A)
                 (A) (A) (A) (A) (A) (A) (A) (A) (A) (A) (A) (A)
                 (A) (A) (A) (A) (A) (A) (A) (A) (A) (A) (A) (A)
                 (A) (A) (A) (A) (A) (A) (A)
 The electronic state is 1-A.
 Alpha  occ. eigenvalues --  -19.25902 -19.21997 -19.20419 -14.52468 -14.52220
 Alpha  occ. eigenvalues --  -14.49183 -14.48588 -14.47927 -14.47609 -14.45853
 Alpha  occ. eigenvalues --  -14.45736 -14.44995 -14.43582 -14.42766 -14.42715
 Alpha  occ. eigenvalues --  -14.41881 -14.41393 -14.41337 -14.40606 -14.40594
 Alpha  occ. eigenvalues --  -10.45533 -10.41319 -10.40125 -10.39305 -10.37975
 Alpha  occ. eigenvalues --  -10.37835 -10.37693 -10.36405 -10.35891 -10.35300
 Alpha  occ. eigenvalues --  -10.34700 -10.34532 -10.34199 -10.33825 -10.33782
 Alpha  occ. eigenvalues --  -10.33595 -10.33080 -10.32143 -10.31256 -10.31142
 Alpha  occ. eigenvalues --  -10.30788 -10.29015 -10.27940  -1.19476  -1.15387
 Alpha  occ. eigenvalues --   -1.13223  -1.13024  -1.11786  -1.10456  -1.09352
 Alpha  occ. eigenvalues --   -1.09139  -1.08606  -1.05445  -1.04096  -1.02564
 Alpha  occ. eigenvalues --   -1.02161  -1.00920  -0.99338  -0.98301  -0.97404
 Alpha  occ. eigenvalues --   -0.96476  -0.96300  -0.93104  -0.91087  -0.87780
 Alpha  occ. eigenvalues --   -0.86320  -0.84365  -0.83902  -0.83689  -0.82715
 Alpha  occ. eigenvalues --   -0.82431  -0.78912  -0.76775  -0.74829  -0.74276
 Alpha  occ. eigenvalues --   -0.73982  -0.73400  -0.73361  -0.71532  -0.70254
 Alpha  occ. eigenvalues --   -0.67933  -0.66853  -0.66763  -0.66499  -0.64686
 Alpha  occ. eigenvalues --   -0.64369  -0.63763  -0.63216  -0.62917  -0.62788
 Alpha  occ. eigenvalues --   -0.60782  -0.60481  -0.60311  -0.59750  -0.59523
 Alpha  occ. eigenvalues --   -0.59207  -0.58913  -0.57133  -0.56857  -0.56734
 Alpha  occ. eigenvalues --   -0.56046  -0.55762  -0.55651  -0.54492  -0.54249
 Alpha  occ. eigenvalues --   -0.53772  -0.53358  -0.53166  -0.52748  -0.52631
 Alpha  occ. eigenvalues --   -0.52447  -0.52134  -0.51943  -0.51151  -0.50610
 Alpha  occ. eigenvalues --   -0.50019  -0.49744  -0.49421  -0.49248  -0.48739
 Alpha  occ. eigenvalues --   -0.48661  -0.48244  -0.48141  -0.47941  -0.47395
 Alpha  occ. eigenvalues --   -0.47282  -0.45747  -0.45475  -0.44018  -0.42560
 Alpha  occ. eigenvalues --   -0.41650  -0.39604  -0.39320  -0.37882  -0.37643
 Alpha  occ. eigenvalues --   -0.37036  -0.36963  -0.36472  -0.35703  -0.34877
 Alpha  occ. eigenvalues --   -0.34010  -0.33880  -0.33260  -0.33152  -0.32896
 Alpha  occ. eigenvalues --   -0.32448  -0.32061  -0.31948  -0.31671  -0.31308
 Alpha  occ. eigenvalues --   -0.30821  -0.28865  -0.26263  -0.24702
 Alpha virt. eigenvalues --    0.03047   0.03738   0.07147   0.07424   0.08344
 Alpha virt. eigenvalues --    0.09380   0.09612   0.10464   0.11275   0.12447
 Alpha virt. eigenvalues --    0.12810   0.13829   0.13982   0.14369   0.15087
 Alpha virt. eigenvalues --    0.15725   0.16022   0.16635   0.16694   0.17868
 Alpha virt. eigenvalues --    0.18689   0.19071   0.19620   0.20306   0.20365
 Alpha virt. eigenvalues --    0.20811   0.20975   0.21145   0.21413   0.21881
 Alpha virt. eigenvalues --    0.23055   0.23374   0.23589   0.23703   0.23754
 Alpha virt. eigenvalues --    0.24088   0.24207   0.24906   0.25363   0.25495
 Alpha virt. eigenvalues --    0.25648   0.26516   0.27770   0.28427   0.28559
 Alpha virt. eigenvalues --    0.29221   0.29691   0.30007   0.30795   0.31036
 Alpha virt. eigenvalues --    0.31318   0.31988   0.32328   0.33232   0.33984
 Alpha virt. eigenvalues --    0.34235   0.34992   0.35095   0.35696   0.36704
 Alpha virt. eigenvalues --    0.37610   0.37834   0.38549   0.39477   0.39532
 Alpha virt. eigenvalues --    0.40477   0.40786   0.40849   0.41383   0.41861
 Alpha virt. eigenvalues --    0.42179   0.42788   0.43283   0.44111   0.44694
 Alpha virt. eigenvalues --    0.45018   0.45563   0.46190   0.46342   0.47377
 Alpha virt. eigenvalues --    0.47635   0.48253   0.48514   0.49525   0.49687
 Alpha virt. eigenvalues --    0.50313   0.50731   0.51093   0.51157   0.51641
 Alpha virt. eigenvalues --    0.52036   0.52053   0.52596   0.53365   0.53638
 Alpha virt. eigenvalues --    0.53847   0.54615   0.54900   0.55591   0.55888
 Alpha virt. eigenvalues --    0.56232   0.57074   0.57541   0.57822   0.58126
 Alpha virt. eigenvalues --    0.58659   0.58985   0.59196   0.59434   0.59634
 Alpha virt. eigenvalues --    0.59839   0.60437   0.61351   0.61535   0.61650
 Alpha virt. eigenvalues --    0.62223   0.62610   0.62797   0.63435   0.63598
 Alpha virt. eigenvalues --    0.64001   0.64392   0.64683   0.65039   0.65486
 Alpha virt. eigenvalues --    0.65930   0.66110   0.66636   0.67056   0.67777
 Alpha virt. eigenvalues --    0.67945   0.68241   0.68552   0.68878   0.69136
 Alpha virt. eigenvalues --    0.69561   0.69847   0.70220   0.71094   0.71287
 Alpha virt. eigenvalues --    0.71894   0.72196   0.72986   0.73617   0.73990
 Alpha virt. eigenvalues --    0.74432   0.74760   0.74994   0.75209   0.75488
 Alpha virt. eigenvalues --    0.75802   0.76145   0.76420   0.76675   0.76847
 Alpha virt. eigenvalues --    0.77173   0.77754   0.78276   0.78732   0.79051
 Alpha virt. eigenvalues --    0.79146   0.79863   0.79997   0.80422   0.80982
 Alpha virt. eigenvalues --    0.81451   0.81775   0.82164   0.82977   0.83032
 Alpha virt. eigenvalues --    0.83481   0.83807   0.84174   0.84230   0.84985
 Alpha virt. eigenvalues --    0.85554   0.85969   0.86633   0.86921   0.87510
 Alpha virt. eigenvalues --    0.87892   0.88480   0.89015   0.89694   0.89938
 Alpha virt. eigenvalues --    0.90159   0.90427   0.90948   0.91128   0.91954
 Alpha virt. eigenvalues --    0.92899   0.93121   0.93268   0.93893   0.94514
 Alpha virt. eigenvalues --    0.94727   0.95154   0.95825   0.96083   0.96505
 Alpha virt. eigenvalues --    0.96686   0.97359   0.97704   0.98173   0.98805
 Alpha virt. eigenvalues --    0.99125   0.99754   1.00099   1.00741   1.01587
 Alpha virt. eigenvalues --    1.02065   1.02426   1.02982   1.03277   1.03803
 Alpha virt. eigenvalues --    1.04537   1.04765   1.05271   1.05606   1.05979
 Alpha virt. eigenvalues --    1.06475   1.07160   1.07198   1.08597   1.09157
 Alpha virt. eigenvalues --    1.09869   1.10224   1.10652   1.11497   1.11927
 Alpha virt. eigenvalues --    1.12651   1.12761   1.13455   1.13834   1.14720
 Alpha virt. eigenvalues --    1.15049   1.15438   1.15879   1.16240   1.16776
 Alpha virt. eigenvalues --    1.17068   1.17257   1.17548   1.17647   1.18526
 Alpha virt. eigenvalues --    1.18906   1.19396   1.19435   1.20073   1.20839
 Alpha virt. eigenvalues --    1.21313   1.21600   1.22050   1.22141   1.22382
 Alpha virt. eigenvalues --    1.22545   1.22947   1.23452   1.24156   1.24686
 Alpha virt. eigenvalues --    1.24911   1.24986   1.25973   1.26432   1.27214
 Alpha virt. eigenvalues --    1.27284   1.28370   1.29065   1.29302   1.29950
 Alpha virt. eigenvalues --    1.30311   1.31010   1.31373   1.32176   1.32678
 Alpha virt. eigenvalues --    1.33079   1.34091   1.34430   1.34606   1.35634
 Alpha virt. eigenvalues --    1.36547   1.37711   1.37733   1.38568   1.38628
 Alpha virt. eigenvalues --    1.39166   1.39575   1.41389   1.41937   1.42910
 Alpha virt. eigenvalues --    1.43713   1.44590   1.44743   1.45948   1.46494
 Alpha virt. eigenvalues --    1.47583   1.48183   1.48382   1.48511   1.48805
 Alpha virt. eigenvalues --    1.49241   1.50057   1.50241   1.51222   1.51748
 Alpha virt. eigenvalues --    1.52266   1.52684   1.53782   1.55074   1.55836
 Alpha virt. eigenvalues --    1.55958   1.56430   1.57792   1.58820   1.59011
 Alpha virt. eigenvalues --    1.59473   1.59696   1.60745   1.61276   1.61394
 Alpha virt. eigenvalues --    1.62849   1.62972   1.63238   1.63584   1.64496
 Alpha virt. eigenvalues --    1.65879   1.66046   1.66512   1.67145   1.67459
 Alpha virt. eigenvalues --    1.67719   1.68146   1.68726   1.69095   1.69415
 Alpha virt. eigenvalues --    1.69717   1.70193   1.70608   1.71085   1.71585
 Alpha virt. eigenvalues --    1.71832   1.72395   1.73015   1.73836   1.74161
 Alpha virt. eigenvalues --    1.74356   1.74671   1.75066   1.75111   1.75922
 Alpha virt. eigenvalues --    1.75998   1.76104   1.76860   1.77738   1.77831
 Alpha virt. eigenvalues --    1.78585   1.78958   1.79501   1.79613   1.79885
 Alpha virt. eigenvalues --    1.79944   1.80015   1.80340   1.80929   1.81343
 Alpha virt. eigenvalues --    1.81576   1.82206   1.82545   1.83052   1.83371
 Alpha virt. eigenvalues --    1.83607   1.84272   1.84617   1.85958   1.86344
 Alpha virt. eigenvalues --    1.86918   1.87254   1.87481   1.87755   1.88251
 Alpha virt. eigenvalues --    1.88592   1.88683   1.89062   1.89354   1.89611
 Alpha virt. eigenvalues --    1.90724   1.91980   1.92143   1.92442   1.92882
 Alpha virt. eigenvalues --    1.93664   1.94067   1.94573   1.94951   1.95807
 Alpha virt. eigenvalues --    1.96001   1.96531   1.97546   1.98365   1.99046
 Alpha virt. eigenvalues --    1.99569   2.00631   2.00721   2.01548   2.01780
 Alpha virt. eigenvalues --    2.02541   2.03002   2.04285   2.05144   2.05569
 Alpha virt. eigenvalues --    2.05897   2.06430   2.06690   2.07511   2.08257
 Alpha virt. eigenvalues --    2.08515   2.08626   2.10227   2.10332   2.11064
 Alpha virt. eigenvalues --    2.12038   2.12668   2.12968   2.13640   2.14078
 Alpha virt. eigenvalues --    2.14862   2.15453   2.17716   2.18795   2.19367
 Alpha virt. eigenvalues --    2.19753   2.20032   2.20368   2.20896   2.21135
 Alpha virt. eigenvalues --    2.22566   2.22805   2.23797   2.24077   2.24992
 Alpha virt. eigenvalues --    2.25752   2.26806   2.27068   2.27471   2.28785
 Alpha virt. eigenvalues --    2.29125   2.29292   2.29871   2.30415   2.30443
 Alpha virt. eigenvalues --    2.31487   2.31582   2.32485   2.33496   2.33541
 Alpha virt. eigenvalues --    2.34037   2.34368   2.35075   2.35497   2.35851
 Alpha virt. eigenvalues --    2.36834   2.37441   2.37657   2.38997   2.39159
 Alpha virt. eigenvalues --    2.40394   2.40971   2.41155   2.42235   2.42619
 Alpha virt. eigenvalues --    2.43102   2.43272   2.43862   2.44291   2.45024
 Alpha virt. eigenvalues --    2.46093   2.46334   2.46611   2.47459   2.48937
 Alpha virt. eigenvalues --    2.49516   2.49689   2.50770   2.51733   2.53126
 Alpha virt. eigenvalues --    2.53985   2.54571   2.55498   2.56699   2.57147
 Alpha virt. eigenvalues --    2.57411   2.59015   2.59220   2.60513   2.60715
 Alpha virt. eigenvalues --    2.61105   2.61804   2.61937   2.62244   2.64047
 Alpha virt. eigenvalues --    2.64486   2.64678   2.65760   2.65816   2.67695
 Alpha virt. eigenvalues --    2.68363   2.68632   2.69149   2.69898   2.70326
 Alpha virt. eigenvalues --    2.70694   2.70962   2.72421   2.73267   2.73822
 Alpha virt. eigenvalues --    2.74290   2.75268   2.76327   2.77095   2.77478
 Alpha virt. eigenvalues --    2.78960   2.79316   2.79735   2.80057   2.80433
 Alpha virt. eigenvalues --    2.80611   2.80889   2.81726   2.82359   2.82558
 Alpha virt. eigenvalues --    2.82911   2.84190   2.84532   2.84829   2.85628
 Alpha virt. eigenvalues --    2.86163   2.86650   2.86889   2.87351   2.88147
 Alpha virt. eigenvalues --    2.88670   2.90470   2.92845   2.93356   2.94004
 Alpha virt. eigenvalues --    2.95570   2.98004   2.98633   2.98830   2.99428
 Alpha virt. eigenvalues --    3.00063   3.03357   3.04678   3.05619   3.07053
 Alpha virt. eigenvalues --    3.09738   3.10120   3.13424   3.14113   3.14653
 Alpha virt. eigenvalues --    3.15171   3.15934   3.16688   3.19337   3.22113
 Alpha virt. eigenvalues --    3.22616   3.22988   3.23465   3.26786   3.32752
 Alpha virt. eigenvalues --    3.45653   3.46977   3.49383   3.49550   3.51168
 Alpha virt. eigenvalues --    3.52968   3.53865   3.56569   3.59709   3.60294
 Alpha virt. eigenvalues --    3.62692   3.71432   3.74634
          Condensed to atoms (all electrons):
 Mulliken charges:
               1
     1  N   -0.311910
     2  C    0.180969
     3  C    0.034023
     4  N   -0.260186
     5  C    0.135065
     6  H    0.028052
     7  N   -0.287392
     8  C    0.128930
     9  H    0.008812
    10  N   -0.287566
    11  C    0.245356
    12  C    0.125532
    13  N   -0.058491
    14  H    0.107494
    15  H    0.088113
    16  H    0.025966
    17  H    0.034769
    18  H    0.027360
    19  N   -0.308548
    20  C    0.217871
    21  C    0.181845
    22  N   -0.090395
    23  H    0.118877
    24  H    0.101681
    25  N   -0.259636
    26  C    0.161030
    27  N   -0.099612
    28  H    0.118830
    29  C    0.130458
    30  O   -0.317884
    31  C    0.008339
    32  N   -0.219109
    33  C    0.124428
    34  H    0.030347
    35  H    0.025680
    36  H    0.027095
    37  H    0.024794
    38  H    0.061850
    39  H    0.058920
    40  H    0.072034
    41  H    0.031742
    42  C   -0.113146
    43  O   -0.264610
    44  C    0.177090
    45  H    0.135297
    46  N   -0.138865
    47  O   -0.347823
    48  C    0.362146
    49  H    0.047801
    50  C    0.171453
    51  C    0.043564
    52  N   -0.295769
    53  H    0.019839
    54  H    0.042520
    55  H   -0.001618
    56  H    0.122937
    57  H    0.116072
    58  N   -0.067834
    59  C    0.109147
    60  C    0.213461
    61  N   -0.258118
    62  H    0.078092
    63  C    0.156119
    64  N   -0.296476
    65  H    0.031923
    66  C    0.132855
    67  N   -0.264990
    68  C    0.037092
    69  C    0.205771
    70  N   -0.319464
 Sum of Mulliken charges =  -0.00000
 Mulliken charges with hydrogens summed into heavy atoms:
               1
     1  N   -0.311910
     2  C    0.269063
     3  C    0.034023
     4  N   -0.260186
     5  C    0.163117
     7  N   -0.287392
     8  C    0.137742
    10  N   -0.287566
    11  C    0.245356
    12  C    0.125532
    13  N    0.137116
    19  N   -0.308548
    20  C    0.217871
    21  C    0.259414
    22  N    0.130163
    25  N   -0.259636
    26  C    0.161030
    27  N    0.019218
    29  C    0.130458
    30  O   -0.317884
    31  C    0.008339
    32  N   -0.219109
    33  C    0.154775
    42  C   -0.081404
    43  O   -0.264610
    44  C    0.177090
    46  N   -0.003568
    47  O   -0.347823
    48  C    0.362146
    50  C    0.219254
    51  C    0.236368
    52  N   -0.295769
    58  N    0.171174
    59  C    0.109147
    60  C    0.213461
    61  N   -0.258118
    63  C    0.234211
    64  N   -0.296476
    66  C    0.164777
    67  N   -0.264990
    68  C    0.037092
    69  C    0.266511
    70  N   -0.319464
 Electronic spatial extent (au):  <R**2>=          23563.0492
 Charge=             -0.0000 electrons
 Dipole moment (field-independent basis, Debye):
    X=              7.5934    Y=              5.0951    Z=              3.7586  Tot=              9.8867
 Quadrupole moment (field-independent basis, Debye-Ang):
   XX=           -148.3847   YY=           -220.5921   ZZ=           -254.3112
   XY=              2.5879   XZ=             11.6633   YZ=            -11.8679
 Traceless Quadrupole moment (field-independent basis, Debye-Ang):
   XX=             59.3780   YY=            -12.8294   ZZ=            -46.5486
   XY=              2.5879   XZ=             11.6633   YZ=            -11.8679
 Octapole moment (field-independent basis, Debye-Ang**2):
  XXX=              7.0727  YYY=            129.2643  ZZZ=              4.2726  XYY=             74.4659
  XXY=            -94.9089  XXZ=            -51.8975  XZZ=             10.4765  YZZ=             17.1691
  YYZ=             55.2559  XYZ=             34.0272
 Hexadecapole moment (field-independent basis, Debye-Ang**3):
 XXXX=         -15325.3298 YYYY=          -6446.0959 ZZZZ=          -2998.6871 XXXY=            445.8179
 XXXZ=            145.5012 YYYX=            -14.3222 YYYZ=           -128.8497 ZZZX=             19.8758
 ZZZY=            -42.3040 XXYY=          -3889.4346 XXZZ=          -4077.8900 YYZZ=          -1586.1327
 XXYZ=             87.8826 YYXZ=            239.3386 ZZXY=            -12.5140
 N-N= 5.497754246600D+03 E-N=-1.577641306771D+04  KE= 2.038411995355D+03
 No NMR shielding tensors so no spin-rotation constants.
 Leave Link  601 at Wed Jan 24 18:08:56 2018, MaxMem=  4294967296 cpu:              47.8 elap:               1.7
 (Enter /share/apps/g16/l9999.exe)
 1\1\GINC-COMPUTE-0-3\SP\RwB97XD\CC-pVDZ\C23H27N17O3\SATYA\24-Jan-2018\
 0\\#p wb97xd/cc-pvdz sp scf=(maxcycles=20)\\Base pair stacking\\0,1\N,
 0,6.96681,3.40442,-8.28548\C,0,8.21037,4.17438,-8.48231\C,0,4.90204,2.
 8268,-7.79519\N,0,5.52843,1.67672,-8.25309\C,0,6.74731,2.07074,-8.5301
 4\H,0,7.5345,1.4243,-8.91923\N,0,3.29392,4.3347,-6.95665\C,0,4.2463,5.
 27047,-7.02666\H,0,3.94485,6.26585,-6.70322\N,0,5.5092,5.16179,-7.4343
 \C,0,5.77604,3.89985,-7.80945\C,0,3.59384,3.07487,-7.34132\N,0,2.6445,
 2.13938,-7.27217\H,0,2.82197,1.19362,-7.54651\H,0,1.72403,2.35188,-6.9
 4396\H,0,8.47772,4.1379,-9.44531\H,0,8.06011,5.12572,-8.21491\H,0,8.93
 947,3.78323,-7.9207\N,0,3.15962,5.89429,-3.5281\C,0,1.96182,5.25054,-3
 .33089\C,0,3.3536,7.35819,-3.51937\N,0,-1.453,5.37452,-2.71008\H,0,-2.
 2055,4.72692,-2.59347\H,0,-1.67651,6.34711,-2.6406\N,0,0.7704,5.84239,
 -3.09789\C,0,-0.20013,4.95837,-2.94894\N,0,-0.0198,3.59836,-3.02221\H,
 0,-0.8197,2.99745,-2.89563\C,0,1.19706,2.9674,-3.26098\O,0,1.25153,1.7
 3226,-3.30777\C,0,2.24923,3.90417,-3.4231\N,0,3.60028,3.70665,-3.67316
 \C,0,4.09879,4.91196,-3.7272\H,0,5.149,5.14196,-3.91011\H,0,3.71077,7.
 65405,-4.40463\H,0,2.47777,7.80731,-3.34766\H,0,4.00087,7.60604,-2.799
 34\H,0,-5.2941,0.58361,-2.81875\H,0,-4.86573,0.27916,-1.13695\H,0,-4.3
 2673,1.76013,-1.92915\H,0,-2.148,-3.01743,-3.34897\C,0,-2.14913,-1.944
 86,-3.15451\O,0,0.14477,-1.65949,-3.68714\C,0,-0.93927,-1.20056,-3.327
 94\H,0,-0.21606,0.70714,-3.1668\N,0,-1.05018,0.14806,-3.05555\O,0,-2.1
 7509,2.01911,-2.43031\C,0,-2.17502,0.82013,-2.64738\H,0,-4.20792,-1.83
 771,-2.61072\C,0,-3.26234,-1.31742,-2.75739\C,0,-4.52761,0.70828,-2.06
 84\N,0,-3.30115,0.03391,-2.50287\H,0,-3.84368,6.66689,-4.44711\H,0,-2.
 32233,6.55439,-3.86836\H,0,-3.57504,5.99399,-2.98476\H,0,-0.62141,0.47
 834,-6.97383\H,0,-2.28803,0.57458,-6.62279\N,0,-1.38369,1.00178,-6.592
 95\C,0,-1.20337,2.21562,-6.0683\C,0,-1.89829,4.23218,-5.01363\N,0,-0.6
 7256,4.78108,-4.98703\H,0,1.24481,4.32513,-5.54954\C,0,0.22023,3.95616
 ,-5.53049\N,0,0.0416,2.74003,-6.0565\H,0,-5.08693,4.02411,-4.52224\C,0
 ,-4.04603,3.84773,-4.79493\N,0,-3.60199,2.76034,-5.37639\C,0,-2.2416,2
 .99103,-5.52082\C,0,-3.21406,6.10478,-3.91082\N,0,-3.06902,4.7806,-4.5
 4607\\Version=EM64L-G16RevA.03\State=1-A\HF=-2048.6242968\RMSD=8.767e-
 09\Dipole=-3.6029632,1.3952222,0.4493581\Quadrupole=32.9703419,-11.416
 3391,-21.5540029,16.294407,-24.473737,8.3712031\PG=C01 [X(C23H27N17O3)
 ]\\@


 GARBAGE IN, GARBAGE OUT
 Job cpu time:       0 days  6 hours  8 minutes 58.3 seconds.
 Elapsed time:       0 days  0 hours 11 minutes 55.5 seconds.
 File lengths (MBytes):  RWF=    298 Int=      0 D2E=      0 Chk=     33 Scr=      1
 Normal termination of Gaussian 16 at Wed Jan 24 18:08:57 2018.
