 Entering Gaussian System, Link 0=g16
 Input=str50.15.-2.0.com
 Output=str50.15.-2.0.log
 Initial command:
 /share/apps/g16/l1.exe "/state/partition1/scr/Gau-26564.inp" -scrdir="/state/partition1/scr/"
 Entering Link 1 = /share/apps/g16/l1.exe PID=     26565.
  
 Copyright (c) 1988,1990,1992,1993,1995,1998,2003,2009,2016,
            Gaussian, Inc.  All Rights Reserved.
  
 This is part of the Gaussian(R) 16 program.  It is based on
 the Gaussian(R) 09 system (copyright 2009, Gaussian, Inc.),
 the Gaussian(R) 03 system (copyright 2003, Gaussian, Inc.),
 the Gaussian(R) 98 system (copyright 1998, Gaussian, Inc.),
 the Gaussian(R) 94 system (copyright 1995, Gaussian, Inc.),
 the Gaussian 92(TM) system (copyright 1992, Gaussian, Inc.),
 the Gaussian 90(TM) system (copyright 1990, Gaussian, Inc.),
 the Gaussian 88(TM) system (copyright 1988, Gaussian, Inc.),
 the Gaussian 86(TM) system (copyright 1986, Carnegie Mellon
 University), and the Gaussian 82(TM) system (copyright 1983,
 Carnegie Mellon University). Gaussian is a federally registered
 trademark of Gaussian, Inc.
  
 This software contains proprietary and confidential information,
 including trade secrets, belonging to Gaussian, Inc.
  
 This software is provided under written license and may be
 used, copied, transmitted, or stored only in accord with that
 written license.
  
 The following legend is applicable only to US Government
 contracts under FAR:
  
                    RESTRICTED RIGHTS LEGEND
  
 Use, reproduction and disclosure by the US Government is
 subject to restrictions as set forth in subparagraphs (a)
 and (c) of the Commercial Computer Software - Restricted
 Rights clause in FAR 52.227-19.
  
 Gaussian, Inc.
 340 Quinnipiac St., Bldg. 40, Wallingford CT 06492
  
  
 ---------------------------------------------------------------
 Warning -- This program may not be used in any manner that
 competes with the business of Gaussian, Inc. or will provide
 assistance to any competitor of Gaussian, Inc.  The licensee
 of this program is prohibited from giving any competitor of
 Gaussian, Inc. access to this program.  By using this program,
 the user acknowledges that Gaussian, Inc. is engaged in the
 business of creating and licensing software in the field of
 computational chemistry and represents and warrants to the
 licensee that it is not a competitor of Gaussian, Inc. and that
 it will not use this program in any manner prohibited above.
 ---------------------------------------------------------------
  

 Cite this work as:
 Gaussian 16, Revision A.03,
 M. J. Frisch, G. W. Trucks, H. B. Schlegel, G. E. Scuseria, 
 M. A. Robb, J. R. Cheeseman, G. Scalmani, V. Barone, 
 G. A. Petersson, H. Nakatsuji, X. Li, M. Caricato, A. V. Marenich, 
 J. Bloino, B. G. Janesko, R. Gomperts, B. Mennucci, H. P. Hratchian, 
 J. V. Ortiz, A. F. Izmaylov, J. L. Sonnenberg, D. Williams-Young, 
 F. Ding, F. Lipparini, F. Egidi, J. Goings, B. Peng, A. Petrone, 
 T. Henderson, D. Ranasinghe, V. G. Zakrzewski, J. Gao, N. Rega, 
 G. Zheng, W. Liang, M. Hada, M. Ehara, K. Toyota, R. Fukuda, 
 J. Hasegawa, M. Ishida, T. Nakajima, Y. Honda, O. Kitao, H. Nakai, 
 T. Vreven, K. Throssell, J. A. Montgomery, Jr., J. E. Peralta, 
 F. Ogliaro, M. J. Bearpark, J. J. Heyd, E. N. Brothers, K. N. Kudin, 
 V. N. Staroverov, T. A. Keith, R. Kobayashi, J. Normand, 
 K. Raghavachari, A. P. Rendell, J. C. Burant, S. S. Iyengar, 
 J. Tomasi, M. Cossi, J. M. Millam, M. Klene, C. Adamo, R. Cammi, 
 J. W. Ochterski, R. L. Martin, K. Morokuma, O. Farkas, 
 J. B. Foresman, and D. J. Fox, Gaussian, Inc., Wallingford CT, 2016.
 
 ******************************************
 Gaussian 16:  EM64L-G16RevA.03 25-Dec-2016
                24-Jan-2018 
 ******************************************
 %nprocshared=32
 Will use up to   32 processors via shared memory.
 %mem=32GB
 %chk=allatoms_t.chk
 ---------------------------------------
 #p wb97xd/cc-pvdz sp scf=(maxcycles=20)
 ---------------------------------------
 1/38=1,172=1/1;
 2/12=2,17=6,18=5,40=1/2;
 3/5=16,11=2,25=1,30=1,74=-58/1,2,3;
 4//1;
 5/5=2,7=20,38=5/2;
 6/7=2,8=2,9=2,10=2,28=1/1;
 99/5=1,9=1/99;
 Leave Link    1 at Wed Jan 24 18:20:43 2018, MaxMem=  4294967296 cpu:               7.3 elap:               0.2
 (Enter /share/apps/g16/l101.exe)
 ------------------
 Base pair stacking
 ------------------
 Symbolic Z-matrix:
 Charge =  0 Multiplicity = 1
 N                     9.71165   2.05274  -4.16993 
 C                     11.00887   2.7564   -4.1597 
 C                     7.59847   1.53493  -4.49188 
 N                     8.16261   0.46178  -3.81748 
 C                     9.41315   0.81669  -3.65051 
 H                     10.16847   0.20961  -3.15064 
 N                     6.06632   2.94898  -5.59457 
 C                     7.07988   3.80915  -5.73734 
 H                     6.83405   4.73581  -6.25419 
 N                     8.34556   3.69703  -5.33939 
 C                     8.54107   2.52324  -4.71615 
 C                     6.29525   1.77686  -4.96306 
 N                     5.28476   0.91692  -4.81957 
 H                     5.40861   0.03742  -4.35873 
 H                     4.36999   1.12236  -5.16762 
 H                     11.69162   2.20668  -4.6412 
 H                     10.91276   3.64084  -4.61541 
 H                     11.30494   2.90031  -3.21544 
 N                     4.02959   5.8733   -2.9411 
 C                     2.83124   5.2298   -3.13582 
 C                     4.26472   7.31784  -3.13787 
 N                    -0.52596   5.32668  -4.0199 
 H                    -1.28614   4.6827   -4.1014 
 H                    -0.71657   6.28379  -4.23972 
 N                     1.6765    5.8044   -3.53639 
 C                     0.69457   4.92574  -3.6333 
 N                     0.83098   3.58639  -3.35935 
 H                     0.02555   2.98808  -3.46067 
 C                     2.00959   2.97343  -2.94578 
 O                     2.0259    1.75624  -2.72461 
 C                     3.07345   3.9047   -2.83709 
 N                     4.39722   3.72001  -2.46237 
 C                     4.92427   4.9119   -2.53874 
 H                     5.96485   5.14642  -2.31186 
 H                     4.96825   7.45078  -3.83514 
 H                     3.41628   7.75408  -3.4347 
 H                     4.5662    7.72834  -2.27798 
 H                    -4.17842   0.44705  -4.7731 
 H                    -4.49727   0.49407  -3.04082 
 H                    -3.61641   1.81423  -3.81064 
 H                    -1.25112  -3.05108  -3.2432 
 C                    -1.2869   -1.96221  -3.27935 
 O                     1.03179  -1.68851  -2.85998 
 C                    -0.08314  -1.21504  -3.07806 
 H                     0.5892    0.71659  -3.00673 
 N                    -0.23924   0.15483  -3.14397 
 O                    -1.44124   2.06214  -3.41699 
 C                    -1.40245   0.84496  -3.37681 
 H                    -3.37967  -1.83908  -3.6679 
 C                    -2.43686  -1.31748  -3.50852 
 C                    -3.7863    0.7478   -3.81296 
 N                    -2.51989   0.05464  -3.56104 
 H                    -0.89448   5.06271  -8.71894 
 H                     0.12438   5.57104  -7.55035 
 H                    -1.47204   5.43531  -7.23873 
 H                     2.04295  -0.77391  -5.20171 
 H                     0.4536   -0.77314  -5.82144 
 N                     1.29223  -0.26475  -5.6228 
 C                     1.40347   1.03445  -5.90721 
 C                     0.64273   3.13231  -6.73302 
 N                     1.7809    3.7894   -6.45513 
 H                     3.6265    3.42213  -5.64304 
 C                     2.67066   2.96824  -5.90113 
 N                     2.56114   1.66671  -5.61546 
 H                    -2.37862   2.71756  -7.80614 
 C                    -1.38021   2.59367  -7.38569 
 N                    -0.90409   1.46666  -6.91576 
 C                     0.37789   1.79423  -6.49868 
 C                    -0.70115   5.03964  -7.73808 
 N                    -0.49757   3.64314  -7.3064 
 
 ITRead=  0  0  0  0  0  0  0  0  0  0  0  0  0  0  0  0  0  0  0  0
 ITRead=  0  0  0  0  0  0  0  0  0  0  0  0  0  0  0  0  0  0  0  0
 ITRead=  0  0  0  0  0  0  0  0  0  0  0  0  0  0  0  0  0  0  0  0
 ITRead=  0  0  0  0  0  0  0  0  0  0
 MicOpt= -1 -1 -1 -1 -1 -1 -1 -1 -1 -1 -1 -1 -1 -1 -1 -1 -1 -1 -1 -1
 MicOpt= -1 -1 -1 -1 -1 -1 -1 -1 -1 -1 -1 -1 -1 -1 -1 -1 -1 -1 -1 -1
 MicOpt= -1 -1 -1 -1 -1 -1 -1 -1 -1 -1 -1 -1 -1 -1 -1 -1 -1 -1 -1 -1
 MicOpt= -1 -1 -1 -1 -1 -1 -1 -1 -1 -1
 NAtoms=     70 NQM=       70 NQMF=       0 NMMI=      0 NMMIF=      0
                NMic=       0 NMicF=      0.
                    Isotopes and Nuclear Properties:
 (Nuclear quadrupole moments (NQMom) in fm**2, nuclear magnetic moments (NMagM)
  in nuclear magnetons)

  Atom         1           2           3           4           5           6           7           8           9          10
 IAtWgt=          14          12          12          14          12           1          14          12           1          14
 AtmWgt=  14.0030740  12.0000000  12.0000000  14.0030740  12.0000000   1.0078250  14.0030740  12.0000000   1.0078250  14.0030740
 NucSpn=           2           0           0           2           0           1           2           0           1           2
 AtZEff=  -0.0000000  -0.0000000  -0.0000000  -0.0000000  -0.0000000  -0.0000000  -0.0000000  -0.0000000  -0.0000000  -0.0000000
 NQMom=    2.0440000   0.0000000   0.0000000   2.0440000   0.0000000   0.0000000   2.0440000   0.0000000   0.0000000   2.0440000
 NMagM=    0.4037610   0.0000000   0.0000000   0.4037610   0.0000000   2.7928460   0.4037610   0.0000000   2.7928460   0.4037610
 AtZNuc=   7.0000000   6.0000000   6.0000000   7.0000000   6.0000000   1.0000000   7.0000000   6.0000000   1.0000000   7.0000000

  Atom        11          12          13          14          15          16          17          18          19          20
 IAtWgt=          12          12          14           1           1           1           1           1          14          12
 AtmWgt=  12.0000000  12.0000000  14.0030740   1.0078250   1.0078250   1.0078250   1.0078250   1.0078250  14.0030740  12.0000000
 NucSpn=           0           0           2           1           1           1           1           1           2           0
 AtZEff=  -0.0000000  -0.0000000  -0.0000000  -0.0000000  -0.0000000  -0.0000000  -0.0000000  -0.0000000  -0.0000000  -0.0000000
 NQMom=    0.0000000   0.0000000   2.0440000   0.0000000   0.0000000   0.0000000   0.0000000   0.0000000   2.0440000   0.0000000
 NMagM=    0.0000000   0.0000000   0.4037610   2.7928460   2.7928460   2.7928460   2.7928460   2.7928460   0.4037610   0.0000000
 AtZNuc=   6.0000000   6.0000000   7.0000000   1.0000000   1.0000000   1.0000000   1.0000000   1.0000000   7.0000000   6.0000000

  Atom        21          22          23          24          25          26          27          28          29          30
 IAtWgt=          12          14           1           1          14          12          14           1          12          16
 AtmWgt=  12.0000000  14.0030740   1.0078250   1.0078250  14.0030740  12.0000000  14.0030740   1.0078250  12.0000000  15.9949146
 NucSpn=           0           2           1           1           2           0           2           1           0           0
 AtZEff=  -0.0000000  -0.0000000  -0.0000000  -0.0000000  -0.0000000  -0.0000000  -0.0000000  -0.0000000  -0.0000000  -0.0000000
 NQMom=    0.0000000   2.0440000   0.0000000   0.0000000   2.0440000   0.0000000   2.0440000   0.0000000   0.0000000   0.0000000
 NMagM=    0.0000000   0.4037610   2.7928460   2.7928460   0.4037610   0.0000000   0.4037610   2.7928460   0.0000000   0.0000000
 AtZNuc=   6.0000000   7.0000000   1.0000000   1.0000000   7.0000000   6.0000000   7.0000000   1.0000000   6.0000000   8.0000000

  Atom        31          32          33          34          35          36          37          38          39          40
 IAtWgt=          12          14          12           1           1           1           1           1           1           1
 AtmWgt=  12.0000000  14.0030740  12.0000000   1.0078250   1.0078250   1.0078250   1.0078250   1.0078250   1.0078250   1.0078250
 NucSpn=           0           2           0           1           1           1           1           1           1           1
 AtZEff=  -0.0000000  -0.0000000  -0.0000000  -0.0000000  -0.0000000  -0.0000000  -0.0000000  -0.0000000  -0.0000000  -0.0000000
 NQMom=    0.0000000   2.0440000   0.0000000   0.0000000   0.0000000   0.0000000   0.0000000   0.0000000   0.0000000   0.0000000
 NMagM=    0.0000000   0.4037610   0.0000000   2.7928460   2.7928460   2.7928460   2.7928460   2.7928460   2.7928460   2.7928460
 AtZNuc=   6.0000000   7.0000000   6.0000000   1.0000000   1.0000000   1.0000000   1.0000000   1.0000000   1.0000000   1.0000000

  Atom        41          42          43          44          45          46          47          48          49          50
 IAtWgt=           1          12          16          12           1          14          16          12           1          12
 AtmWgt=   1.0078250  12.0000000  15.9949146  12.0000000   1.0078250  14.0030740  15.9949146  12.0000000   1.0078250  12.0000000
 NucSpn=           1           0           0           0           1           2           0           0           1           0
 AtZEff=  -0.0000000  -0.0000000  -0.0000000  -0.0000000  -0.0000000  -0.0000000  -0.0000000  -0.0000000  -0.0000000  -0.0000000
 NQMom=    0.0000000   0.0000000   0.0000000   0.0000000   0.0000000   2.0440000   0.0000000   0.0000000   0.0000000   0.0000000
 NMagM=    2.7928460   0.0000000   0.0000000   0.0000000   2.7928460   0.4037610   0.0000000   0.0000000   2.7928460   0.0000000
 AtZNuc=   1.0000000   6.0000000   8.0000000   6.0000000   1.0000000   7.0000000   8.0000000   6.0000000   1.0000000   6.0000000

  Atom        51          52          53          54          55          56          57          58          59          60
 IAtWgt=          12          14           1           1           1           1           1          14          12          12
 AtmWgt=  12.0000000  14.0030740   1.0078250   1.0078250   1.0078250   1.0078250   1.0078250  14.0030740  12.0000000  12.0000000
 NucSpn=           0           2           1           1           1           1           1           2           0           0
 AtZEff=  -0.0000000  -0.0000000  -0.0000000  -0.0000000  -0.0000000  -0.0000000  -0.0000000  -0.0000000  -0.0000000  -0.0000000
 NQMom=    0.0000000   2.0440000   0.0000000   0.0000000   0.0000000   0.0000000   0.0000000   2.0440000   0.0000000   0.0000000
 NMagM=    0.0000000   0.4037610   2.7928460   2.7928460   2.7928460   2.7928460   2.7928460   0.4037610   0.0000000   0.0000000
 AtZNuc=   6.0000000   7.0000000   1.0000000   1.0000000   1.0000000   1.0000000   1.0000000   7.0000000   6.0000000   6.0000000

  Atom        61          62          63          64          65          66          67          68          69          70
 IAtWgt=          14           1          12          14           1          12          14          12          12          14
 AtmWgt=  14.0030740   1.0078250  12.0000000  14.0030740   1.0078250  12.0000000  14.0030740  12.0000000  12.0000000  14.0030740
 NucSpn=           2           1           0           2           1           0           2           0           0           2
 AtZEff=  -0.0000000  -0.0000000  -0.0000000  -0.0000000  -0.0000000  -0.0000000  -0.0000000  -0.0000000  -0.0000000  -0.0000000
 NQMom=    2.0440000   0.0000000   0.0000000   2.0440000   0.0000000   0.0000000   2.0440000   0.0000000   0.0000000   2.0440000
 NMagM=    0.4037610   2.7928460   0.0000000   0.4037610   2.7928460   0.0000000   0.4037610   0.0000000   0.0000000   0.4037610
 AtZNuc=   7.0000000   1.0000000   6.0000000   7.0000000   1.0000000   6.0000000   7.0000000   6.0000000   6.0000000   7.0000000
 Leave Link  101 at Wed Jan 24 18:20:43 2018, MaxMem=  4294967296 cpu:               7.7 elap:               0.3
 (Enter /share/apps/g16/l202.exe)
 Stoichiometry    C23H27N17O3
 Framework group  C1[X(C23H27N17O3)]
 Deg. of freedom   204
 Full point group                 C1      NOp   1
 Largest Abelian subgroup         C1      NOp   1
 Largest concise Abelian subgroup C1      NOp   1
                         Standard orientation:                         
 ---------------------------------------------------------------------
 Center     Atomic      Atomic             Coordinates (Angstroms)
 Number     Number       Type             X           Y           Z
 ---------------------------------------------------------------------
      1          7           0       -6.982858   -1.540347    0.184409
      2          6           0       -8.378931   -1.062729    0.154707
      3          6           0       -4.803261   -1.661940    0.452511
      4          7           0       -5.202757   -2.894827   -0.042576
      5          6           0       -6.499900   -2.772231   -0.184281
      6          1           0       -7.159699   -3.556219   -0.557046
      7          7           0       -3.492364    0.119099    1.272510
      8          6           0       -4.629889    0.816480    1.357806
      9          1           0       -4.524911    1.833194    1.734020
     10          7           0       -5.871778    0.448237    1.049602
     11          6           0       -5.889505   -0.816631    0.597685
     12          6           0       -3.543581   -1.150658    0.814063
     13          7           0       -2.409143   -1.848409    0.728196
     14          1           0       -2.399908   -2.791660    0.394393
     15          1           0       -1.530298   -1.452314    0.994444
     16          1           0       -8.943725   -1.642947    0.741679
     17          1           0       -8.416499   -0.119821    0.484340
     18          1           0       -8.726518   -1.100607   -0.782172
     19          7           0       -2.062924    2.936395   -1.851647
     20          6           0       -0.768102    2.527243   -1.641691
     21          6           0       -2.529111    4.337476   -1.833211
     22          7           0        2.553685    3.284284   -0.967600
     23          1           0        3.413001    2.788513   -0.845075
     24          1           0        2.589157    4.280698   -0.886276
     25          7           0        0.287359    3.329948   -1.385344
     26          6           0        1.404879    2.642639   -1.229213
     27          7           0        1.484794    1.273909   -1.317007
     28          1           0        2.381744    0.832791   -1.183393
     29          6           0        0.411777    0.428078   -1.579850
     30          8           0        0.591425   -0.794648   -1.638164
     31          6           0       -0.795655    1.151992   -1.749949
     32          7           0       -2.081889    0.706713   -2.022384
     33          6           0       -2.797618    1.797275   -2.073604
     34          1           0       -3.869791    1.827680   -2.270585
     35          1           0       -3.221060    4.450927   -1.121067
     36          1           0       -1.755878    4.941344   -1.644218
     37          1           0       -2.923685    4.570937   -2.721254
     38          1           0        6.992686   -0.792408    0.213248
     39          1           0        7.240658   -0.935338   -1.525358
     40          1           0        6.178243    0.319813   -0.887211
     41          1           0        4.640495   -4.893571   -0.677962
     42          6           0        4.495216   -3.818758   -0.787033
     43          8           0        2.150574   -3.982261   -1.108012
     44          6           0        3.177538   -3.310080   -1.016789
     45          1           0        2.190186   -1.540478   -1.303096
     46          7           0        3.104920   -1.937201   -1.140015
     47          8           0        3.980196    0.157751   -1.187397
     48          6           0        4.143791   -1.043490   -1.065313
     49          1           0        6.549961   -3.308070   -0.535951
     50          6           0        5.528485   -2.972051   -0.709265
     51          6           0        6.523738   -0.694668   -0.754539
     52          7           0        5.383038   -1.610579   -0.841942
     53          1           0        3.119229    3.737014    3.697339
     54          1           0        1.991022    3.907931    2.531144
     55          1           0        3.576280    3.988786    2.151007
     56          1           0        1.080428   -2.926462    1.146476
     57          1           0        2.667320   -2.584242    1.670651
     58          7           0        1.749384   -2.249824    1.454371
     59          6           0        1.432491   -0.958699    1.571671
     60          6           0        1.859773    1.328141    2.071167
     61          7           0        0.619181    1.748720    1.773735
     62          1           0       -1.165524    0.980485    1.121614
     63          6           0       -0.139184    0.726412    1.383015
     64          7           0        0.176361   -0.567441    1.264870
     65          1           0        4.942386    1.557420    3.018315
     66          6           0        3.965070    1.217531    2.674399
     67          7           0        3.668189   -0.025490    2.383820
     68          6           0        2.336200    0.030661    1.999914
     69          6           0        2.899522    3.547408    2.740379
     70          7           0        2.917472    2.090165    2.507732
 ---------------------------------------------------------------------
 Rotational constants (GHZ):           0.1277350           0.0519586           0.0454680
 Leave Link  202 at Wed Jan 24 18:20:43 2018, MaxMem=  4294967296 cpu:               0.4 elap:               0.0
 (Enter /share/apps/g16/l301.exe)
 Standard basis: CC-pVDZ (5D, 7F)
 Ernie: Thresh=  0.10000D-02 Tol=  0.10000D-05 Strict=F.
 Ernie:  86 primitive shells out of 1081 were deleted.
 There are   780 symmetry adapted cartesian basis functions of A   symmetry.
 There are   737 symmetry adapted basis functions of A   symmetry.
   737 basis functions,  1608 primitive gaussians,   780 cartesian basis functions
   154 alpha electrons      154 beta electrons
       nuclear repulsion energy      5394.4193321666 Hartrees.
 IExCor= 4639 DFT=T Ex+Corr=wB97XD ExCW=0 ScaHFX=  1.000000
 ScaDFX=  1.000000  1.000000  1.000000  1.000000 ScalE2=  1.000000  1.000000
 IRadAn=      5 IRanWt=     -1 IRanGd=            0 ICorTp=0 IEmpDi=121
 HFx  wShort=  0.000000 wLong=  0.200000 cFull=  0.222036 cShort=  0.000000 cLong=  0.777964
 DFx  wShort=  0.000000 wLong=  0.200000 cFull=  0.000000 cShort=  0.000000 cLong=  1.000000
 NAtoms=   70 NActive=   70 NUniq=   70 SFac= 1.00D+00 NAtFMM=   60 NAOKFM=T Big=T
 Integral buffers will be    131072 words long.
 Raffenetti 2 integral format.
 Two-electron integral symmetry is turned on.
 R6Disp:  Grimme-D2 Dispersion energy=       -0.0656650900 Hartrees.
 Nuclear repulsion after empirical dispersion term =     5394.3536670765 Hartrees.
 Leave Link  301 at Wed Jan 24 18:20:43 2018, MaxMem=  4294967296 cpu:               2.9 elap:               0.1
 (Enter /share/apps/g16/l302.exe)
 NPDir=0 NMtPBC=     1 NCelOv=     1 NCel=       1 NClECP=     1 NCelD=      1
         NCelK=      1 NCelE2=     1 NClLst=     1 CellRange=     0.0.
 One-electron integrals computed using PRISM.
 One-electron integral symmetry used in STVInt
 NBasis=   737 RedAO= T EigKep=  7.06D-04  NBF=   737
 NBsUse=   737 1.00D-06 EigRej= -1.00D+00 NBFU=   737
 Precomputing XC quadrature grid using
 IXCGrd= 4 IRadAn=           5 IRanWt=          -1 IRanGd=           0 AccXCQ= 0.00D+00.
 Generated NRdTot=       0 NPtTot=           0 NUsed=           0 NTot=          32
 NSgBfM=   764   764   764   764   764 MxSgAt=    70 MxSgA2=    70.
 Leave Link  302 at Wed Jan 24 18:20:48 2018, MaxMem=  4294967296 cpu:             137.3 elap:               4.3
 (Enter /share/apps/g16/l303.exe)
 DipDrv:  MaxL=1.
 Leave Link  303 at Wed Jan 24 18:20:48 2018, MaxMem=  4294967296 cpu:              12.3 elap:               0.4
 (Enter /share/apps/g16/l401.exe)
 ExpMin= 1.22D-01 ExpMax= 1.17D+04 ExpMxC= 4.01D+02 IAcc=3 IRadAn=         5 AccDes= 0.00D+00
 Harris functional with IExCor= 4639 and IRadAn=       5 diagonalized for initial guess.
 HarFok:  IExCor= 4639 AccDes= 0.00D+00 IRadAn=         5 IDoV= 1 UseB2=F ITyADJ=14
 ICtDFT=  3500011 ScaDFX=  1.000000  1.000000  1.000000  1.000000
 FoFCou: FMM=F IPFlag=           0 FMFlag=      100000 FMFlg1=        2001
         NFxFlg=           0 DoJE=T BraDBF=F KetDBF=T FulRan=T
         wScrn=  0.000000 ICntrl=       500 IOpCl=  0 I1Cent=   200000004 NGrid=           0
         NMat0=    1 NMatS0=      1 NMatT0=    0 NMatD0=    1 NMtDS0=    0 NMtDT0=    0
 Petite list used in FoFCou.
 Harris En= -1963.88231645838    
 JPrj=0 DoOrth=F DoCkMO=F.
 Leave Link  401 at Wed Jan 24 18:21:00 2018, MaxMem=  4294967296 cpu:             384.8 elap:              12.1
 (Enter /share/apps/g16/l502.exe)
 Integral symmetry usage will be decided dynamically.
 Closed shell SCF:
 Using DIIS extrapolation, IDIIS=  1040.
 NGot=  4294967296 LenX=  4293717438 LenY=  4293108258
 Requested convergence on RMS density matrix=1.00D-08 within  20 cycles.
 Requested convergence on MAX density matrix=1.00D-06.
 Requested convergence on             energy=1.00D-06.
 No special actions if energy rises.
 Fock matrices will be formed incrementally for  20 cycles.
 Integral accuracy reduced to 1.0D-05 until final iterations.

 Cycle   1  Pass 0  IDiag  1:
 FoFJK:  IHMeth= 1 ICntrl=       0 DoSepK=T KAlg= 0 I1Cent=           0 FoldK=F
 IRaf=         1 NMat=       1 IRICut=       1 DoRegI=T DoRafI=F ISym2E= 0 IDoP0=0 IntGTp=1.
 FoFCou: FMM=T IPFlag=           0 FMFlag=      100000 FMFlg1=        2001
         NFxFlg=           0 DoJE=T BraDBF=F KetDBF=F FulRan=T
         wScrn=  0.000000 ICntrl=       500 IOpCl=  0 I1Cent=           0 NGrid=           0
         NMat0=    1 NMatS0=      1 NMatT0=    0 NMatD0=    1 NMtDS0=    0 NMtDT0=    0
 Symmetry not used in FoFCou.
 FMM levels:  10  Number of levels for PrismC:   9
 E= -2048.31144375014    
 DIIS: error= 2.48D-02 at cycle   1 NSaved=   1.
 NSaved= 1 IEnMin= 1 EnMin= -2048.31144375014     IErMin= 1 ErrMin= 2.48D-02
 ErrMax= 2.48D-02  0.00D+00 EMaxC= 1.00D-01 BMatC= 8.32D-01 BMatP= 8.32D-01
 IDIUse=3 WtCom= 7.52D-01 WtEn= 2.48D-01
 Coeff-Com:  0.100D+01
 Coeff-En:   0.100D+01
 Coeff:      0.100D+01
 Gap=     0.252 Goal=   None    Shift=    0.000
 GapD=    0.252 DampG=1.000 DampE=0.500 DampFc=0.5000 IDamp=-1.
 Damping current iteration by 5.00D-01
 RMSDP=1.56D-03 MaxDP=1.30D-01              OVMax= 1.82D-01

 Cycle   2  Pass 0  IDiag  1:
 RMSU=  7.81D-04    CP:  9.98D-01
 E= -2048.50910111581     Delta-E=       -0.197657365669 Rises=F Damp=T
 DIIS: error= 1.39D-02 at cycle   2 NSaved=   2.
 NSaved= 2 IEnMin= 2 EnMin= -2048.50910111581     IErMin= 2 ErrMin= 1.39D-02
 ErrMax= 1.39D-02  0.00D+00 EMaxC= 1.00D-01 BMatC= 1.44D-01 BMatP= 8.32D-01
 IDIUse=3 WtCom= 8.61D-01 WtEn= 1.39D-01
 Coeff-Com: -0.199D+00 0.120D+01
 Coeff-En:   0.000D+00 0.100D+01
 Coeff:     -0.171D+00 0.117D+01
 Gap=     0.362 Goal=   None    Shift=    0.000
 RMSDP=5.81D-04 MaxDP=3.38D-02 DE=-1.98D-01 OVMax= 1.42D-01

 Cycle   3  Pass 0  IDiag  1:
 RMSU=  5.68D-04    CP:  9.94D-01  1.14D+00
 E= -2048.69014842362     Delta-E=       -0.181047307810 Rises=F Damp=F
 DIIS: error= 7.89D-03 at cycle   3 NSaved=   3.
 NSaved= 3 IEnMin= 3 EnMin= -2048.69014842362     IErMin= 3 ErrMin= 7.89D-03
 ErrMax= 7.89D-03  0.00D+00 EMaxC= 1.00D-01 BMatC= 6.07D-02 BMatP= 1.44D-01
 IDIUse=3 WtCom= 9.21D-01 WtEn= 7.89D-02
 Coeff-Com: -0.229D+00 0.543D+00 0.686D+00
 Coeff-En:   0.000D+00 0.000D+00 0.100D+01
 Coeff:     -0.211D+00 0.500D+00 0.711D+00
 Gap=     0.277 Goal=   None    Shift=    0.000
 RMSDP=3.48D-04 MaxDP=3.26D-02 DE=-1.81D-01 OVMax= 6.90D-02

 Cycle   4  Pass 0  IDiag  1:
 RMSU=  2.01D-04    CP:  9.94D-01  1.42D+00  6.78D-01
 E= -2048.73597906428     Delta-E=       -0.045830640658 Rises=F Damp=F
 DIIS: error= 2.87D-03 at cycle   4 NSaved=   4.
 NSaved= 4 IEnMin= 4 EnMin= -2048.73597906428     IErMin= 4 ErrMin= 2.87D-03
 ErrMax= 2.87D-03  0.00D+00 EMaxC= 1.00D-01 BMatC= 9.03D-03 BMatP= 6.07D-02
 IDIUse=3 WtCom= 9.71D-01 WtEn= 2.87D-02
 Coeff-Com: -0.945D-01 0.183D+00 0.381D+00 0.530D+00
 Coeff-En:   0.000D+00 0.000D+00 0.685D-01 0.932D+00
 Coeff:     -0.918D-01 0.178D+00 0.372D+00 0.542D+00
 Gap=     0.282 Goal=   None    Shift=    0.000
 RMSDP=1.26D-04 MaxDP=1.14D-02 DE=-4.58D-02 OVMax= 1.31D-02

 Cycle   5  Pass 0  IDiag  1:
 RMSU=  6.08D-05    CP:  9.94D-01  1.39D+00  8.10D-01  6.15D-01
 E= -2048.74340523011     Delta-E=       -0.007426165836 Rises=F Damp=F
 DIIS: error= 6.56D-04 at cycle   5 NSaved=   5.
 NSaved= 5 IEnMin= 5 EnMin= -2048.74340523011     IErMin= 5 ErrMin= 6.56D-04
 ErrMax= 6.56D-04  0.00D+00 EMaxC= 1.00D-01 BMatC= 3.04D-04 BMatP= 9.03D-03
 IDIUse=3 WtCom= 9.93D-01 WtEn= 6.56D-03
 Coeff-Com: -0.250D-01 0.429D-01 0.125D+00 0.244D+00 0.613D+00
 Coeff-En:   0.000D+00 0.000D+00 0.000D+00 0.000D+00 0.100D+01
 Coeff:     -0.249D-01 0.426D-01 0.124D+00 0.243D+00 0.615D+00
 Gap=     0.282 Goal=   None    Shift=    0.000
 RMSDP=2.64D-05 MaxDP=1.89D-03 DE=-7.43D-03 OVMax= 3.17D-03

 Failed to achieve initial convergence to 1.0D-08 in  6 cycles.
 Switch to full accuracy anyway.
 Cycle   6  Pass 1  IDiag  1:
 E= -2048.74385802419     Delta-E=       -0.000452794083 Rises=F Damp=F
 DIIS: error= 2.58D-04 at cycle   1 NSaved=   1.
 NSaved= 1 IEnMin= 1 EnMin= -2048.74385802419     IErMin= 1 ErrMin= 2.58D-04
 ErrMax= 2.58D-04  0.00D+00 EMaxC= 1.00D-01 BMatC= 6.87D-05 BMatP= 6.87D-05
 IDIUse=3 WtCom= 9.97D-01 WtEn= 2.58D-03
 Coeff-Com:  0.100D+01
 Coeff-En:   0.100D+01
 Coeff:      0.100D+01
 Gap=     0.282 Goal=   None    Shift=    0.000
 RMSDP=2.64D-05 MaxDP=1.89D-03 DE=-4.53D-04 OVMax= 2.04D-03

 Cycle   7  Pass 1  IDiag  1:
 RMSU=  1.05D-04    CP:  1.00D+00
 E= -2048.74390983188     Delta-E=       -0.000051807684 Rises=F Damp=F
 DIIS: error= 2.40D-04 at cycle   2 NSaved=   2.
 NSaved= 2 IEnMin= 2 EnMin= -2048.74390983188     IErMin= 2 ErrMin= 2.40D-04
 ErrMax= 2.40D-04  0.00D+00 EMaxC= 1.00D-01 BMatC= 4.07D-05 BMatP= 6.87D-05
 IDIUse=3 WtCom= 9.98D-01 WtEn= 2.40D-03
 Coeff-Com:  0.412D+00 0.588D+00
 Coeff-En:   0.000D+00 0.100D+01
 Coeff:      0.411D+00 0.589D+00
 Gap=     0.282 Goal=   None    Shift=    0.000
 RMSDP=1.09D-05 MaxDP=1.04D-03 DE=-5.18D-05 OVMax= 1.38D-03

 Cycle   8  Pass 1  IDiag  1:
 RMSU=  1.06D-05    CP:  1.00D+00  1.02D+00
 E= -2048.74393944406     Delta-E=       -0.000029612183 Rises=F Damp=F
 DIIS: error= 1.01D-04 at cycle   3 NSaved=   3.
 NSaved= 3 IEnMin= 3 EnMin= -2048.74393944406     IErMin= 3 ErrMin= 1.01D-04
 ErrMax= 1.01D-04  0.00D+00 EMaxC= 1.00D-01 BMatC= 9.25D-06 BMatP= 4.07D-05
 IDIUse=3 WtCom= 9.99D-01 WtEn= 1.01D-03
 Coeff-Com: -0.203D-01 0.308D+00 0.712D+00
 Coeff-En:   0.000D+00 0.124D+00 0.876D+00
 Coeff:     -0.203D-01 0.308D+00 0.712D+00
 Gap=     0.282 Goal=   None    Shift=    0.000
 RMSDP=5.42D-06 MaxDP=4.30D-04 DE=-2.96D-05 OVMax= 4.94D-04

 Cycle   9  Pass 1  IDiag  1:
 RMSU=  3.74D-06    CP:  1.00D+00  1.05D+00  7.68D-01
 E= -2048.74394814298     Delta-E=       -0.000008698916 Rises=F Damp=F
 DIIS: error= 3.06D-05 at cycle   4 NSaved=   4.
 NSaved= 4 IEnMin= 4 EnMin= -2048.74394814298     IErMin= 4 ErrMin= 3.06D-05
 ErrMax= 3.06D-05  0.00D+00 EMaxC= 1.00D-01 BMatC= 4.72D-07 BMatP= 9.25D-06
 IDIUse=1 WtCom= 1.00D+00 WtEn= 0.00D+00
 Coeff-Com: -0.324D-01 0.815D-01 0.260D+00 0.691D+00
 Coeff:     -0.324D-01 0.815D-01 0.260D+00 0.691D+00
 Gap=     0.282 Goal=   None    Shift=    0.000
 RMSDP=1.41D-06 MaxDP=1.32D-04 DE=-8.70D-06 OVMax= 4.21D-04

 Cycle  10  Pass 1  IDiag  1:
 RMSU=  1.25D-06    CP:  1.00D+00  1.06D+00  8.04D-01  1.11D+00
 E= -2048.74394894701     Delta-E=       -0.000000804037 Rises=F Damp=F
 DIIS: error= 1.45D-05 at cycle   5 NSaved=   5.
 NSaved= 5 IEnMin= 5 EnMin= -2048.74394894701     IErMin= 5 ErrMin= 1.45D-05
 ErrMax= 1.45D-05  0.00D+00 EMaxC= 1.00D-01 BMatC= 1.13D-07 BMatP= 4.72D-07
 IDIUse=1 WtCom= 1.00D+00 WtEn= 0.00D+00
 Coeff-Com: -0.308D-02-0.563D-01-0.124D+00 0.204D+00 0.980D+00
 Coeff:     -0.308D-02-0.563D-01-0.124D+00 0.204D+00 0.980D+00
 Gap=     0.282 Goal=   None    Shift=    0.000
 RMSDP=1.18D-06 MaxDP=7.58D-05 DE=-8.04D-07 OVMax= 2.09D-04

 Cycle  11  Pass 1  IDiag  1:
 RMSU=  4.64D-07    CP:  1.00D+00  1.06D+00  8.15D-01  1.39D+00  1.17D+00
 E= -2048.74394919088     Delta-E=       -0.000000243870 Rises=F Damp=F
 DIIS: error= 9.42D-06 at cycle   6 NSaved=   6.
 NSaved= 6 IEnMin= 6 EnMin= -2048.74394919088     IErMin= 6 ErrMin= 9.42D-06
 ErrMax= 9.42D-06  0.00D+00 EMaxC= 1.00D-01 BMatC= 2.56D-08 BMatP= 1.13D-07
 IDIUse=1 WtCom= 1.00D+00 WtEn= 0.00D+00
 Coeff-Com:  0.471D-02-0.433D-01-0.113D+00 0.143D-02 0.516D+00 0.634D+00
 Coeff:      0.471D-02-0.433D-01-0.113D+00 0.143D-02 0.516D+00 0.634D+00
 Gap=     0.282 Goal=   None    Shift=    0.000
 RMSDP=3.38D-07 MaxDP=3.50D-05 DE=-2.44D-07 OVMax= 1.02D-04

 Cycle  12  Pass 1  IDiag  1:
 RMSU=  1.70D-07    CP:  1.00D+00  1.06D+00  8.16D-01  1.45D+00  1.29D+00
                    CP:  9.24D-01
 E= -2048.74394922783     Delta-E=       -0.000000036943 Rises=F Damp=F
 DIIS: error= 9.97D-07 at cycle   7 NSaved=   7.
 NSaved= 7 IEnMin= 7 EnMin= -2048.74394922783     IErMin= 7 ErrMin= 9.97D-07
 ErrMax= 9.97D-07  0.00D+00 EMaxC= 1.00D-01 BMatC= 6.50D-10 BMatP= 2.56D-08
 IDIUse=1 WtCom= 1.00D+00 WtEn= 0.00D+00
 Coeff-Com:  0.895D-03-0.492D-02-0.144D-01-0.741D-02 0.296D-01 0.108D+00
 Coeff-Com:  0.888D+00
 Coeff:      0.895D-03-0.492D-02-0.144D-01-0.741D-02 0.296D-01 0.108D+00
 Coeff:      0.888D+00
 Gap=     0.282 Goal=   None    Shift=    0.000
 RMSDP=8.29D-08 MaxDP=5.27D-06 DE=-3.69D-08 OVMax= 1.98D-05

 Cycle  13  Pass 1  IDiag  1:
 RMSU=  4.69D-08    CP:  1.00D+00  1.06D+00  8.16D-01  1.46D+00  1.31D+00
                    CP:  1.02D+00  1.17D+00
 E= -2048.74394922926     Delta-E=       -0.000000001435 Rises=F Damp=F
 DIIS: error= 5.25D-07 at cycle   8 NSaved=   8.
 NSaved= 8 IEnMin= 8 EnMin= -2048.74394922926     IErMin= 8 ErrMin= 5.25D-07
 ErrMax= 5.25D-07  0.00D+00 EMaxC= 1.00D-01 BMatC= 2.61D-10 BMatP= 6.50D-10
 IDIUse=1 WtCom= 1.00D+00 WtEn= 0.00D+00
 Coeff-Com: -0.736D-03 0.854D-02 0.211D-01-0.175D-02-0.113D+00-0.101D+00
 Coeff-Com:  0.428D+00 0.759D+00
 Coeff:     -0.736D-03 0.854D-02 0.211D-01-0.175D-02-0.113D+00-0.101D+00
 Coeff:      0.428D+00 0.759D+00
 Gap=     0.282 Goal=   None    Shift=    0.000
 RMSDP=4.06D-08 MaxDP=2.40D-06 DE=-1.44D-09 OVMax= 8.65D-06

 Cycle  14  Pass 1  IDiag  1:
 RMSU=  2.40D-08    CP:  1.00D+00  1.06D+00  8.15D-01  1.47D+00  1.32D+00
                    CP:  1.05D+00  1.31D+00  1.10D+00
 E= -2048.74394922999     Delta-E=       -0.000000000726 Rises=F Damp=F
 DIIS: error= 1.67D-07 at cycle   9 NSaved=   9.
 NSaved= 9 IEnMin= 9 EnMin= -2048.74394922999     IErMin= 9 ErrMin= 1.67D-07
 ErrMax= 1.67D-07  0.00D+00 EMaxC= 1.00D-01 BMatC= 2.18D-11 BMatP= 2.61D-10
 IDIUse=1 WtCom= 1.00D+00 WtEn= 0.00D+00
 Coeff-Com: -0.378D-03 0.384D-02 0.971D-02 0.967D-04-0.470D-01-0.505D-01
 Coeff-Com:  0.774D-01 0.279D+00 0.728D+00
 Coeff:     -0.378D-03 0.384D-02 0.971D-02 0.967D-04-0.470D-01-0.505D-01
 Coeff:      0.774D-01 0.279D+00 0.728D+00
 Gap=     0.282 Goal=   None    Shift=    0.000
 RMSDP=1.19D-08 MaxDP=8.86D-07 DE=-7.26D-10 OVMax= 2.78D-06

 Cycle  15  Pass 1  IDiag  1:
 RMSU=  8.01D-09    CP:  1.00D+00  1.06D+00  8.15D-01  1.47D+00  1.32D+00
                    CP:  1.06D+00  1.33D+00  1.23D+00  1.12D+00
 E= -2048.74394922956     Delta-E=        0.000000000429 Rises=F Damp=F
 DIIS: error= 7.61D-08 at cycle  10 NSaved=  10.
 NSaved=10 IEnMin= 9 EnMin= -2048.74394922999     IErMin=10 ErrMin= 7.61D-08
 ErrMax= 7.61D-08  0.00D+00 EMaxC= 1.00D-01 BMatC= 4.99D-12 BMatP= 2.18D-11
 IDIUse=1 WtCom= 1.00D+00 WtEn= 0.00D+00
 Coeff-Com:  0.207D-04-0.460D-03-0.104D-02 0.157D-03 0.733D-02 0.353D-02
 Coeff-Com: -0.608D-01-0.669D-01 0.305D+00 0.813D+00
 Coeff:      0.207D-04-0.460D-03-0.104D-02 0.157D-03 0.733D-02 0.353D-02
 Coeff:     -0.608D-01-0.669D-01 0.305D+00 0.813D+00
 Gap=     0.282 Goal=   None    Shift=    0.000
 RMSDP=5.94D-09 MaxDP=3.64D-07 DE= 4.29D-10 OVMax= 1.11D-06

 SCF Done:  E(RwB97XD) =  -2048.74394923     A.U. after   15 cycles
            NFock= 15  Conv=0.59D-08     -V/T= 2.0054
 KE= 2.037702994953D+03 PE=-1.556975795694D+04 EE= 6.088957345681D+03
 Leave Link  502 at Wed Jan 24 18:31:38 2018, MaxMem=  4294967296 cpu:           19736.9 elap:             638.3
 (Enter /share/apps/g16/l601.exe)
 Copying SCF densities to generalized density rwf, IOpCl= 0 IROHF=0.

 **********************************************************************

            Population analysis using the SCF density.

 **********************************************************************

 Orbital symmetries:
       Occupied  (A) (A) (A) (A) (A) (A) (A) (A) (A) (A) (A) (A)
                 (A) (A) (A) (A) (A) (A) (A) (A) (A) (A) (A) (A)
                 (A) (A) (A) (A) (A) (A) (A) (A) (A) (A) (A) (A)
                 (A) (A) (A) (A) (A) (A) (A) (A) (A) (A) (A) (A)
                 (A) (A) (A) (A) (A) (A) (A) (A) (A) (A) (A) (A)
                 (A) (A) (A) (A) (A) (A) (A) (A) (A) (A) (A) (A)
                 (A) (A) (A) (A) (A) (A) (A) (A) (A) (A) (A) (A)
                 (A) (A) (A) (A) (A) (A) (A) (A) (A) (A) (A) (A)
                 (A) (A) (A) (A) (A) (A) (A) (A) (A) (A) (A) (A)
                 (A) (A) (A) (A) (A) (A) (A) (A) (A) (A) (A) (A)
                 (A) (A) (A) (A) (A) (A) (A) (A) (A) (A) (A) (A)
                 (A) (A) (A) (A) (A) (A) (A) (A) (A) (A) (A) (A)
                 (A) (A) (A) (A) (A) (A) (A) (A) (A) (A)
       Virtual   (A) (A) (A) (A) (A) (A) (A) (A) (A) (A) (A) (A)
                 (A) (A) (A) (A) (A) (A) (A) (A) (A) (A) (A) (A)
                 (A) (A) (A) (A) (A) (A) (A) (A) (A) (A) (A) (A)
                 (A) (A) (A) (A) (A) (A) (A) (A) (A) (A) (A) (A)
                 (A) (A) (A) (A) (A) (A) (A) (A) (A) (A) (A) (A)
                 (A) (A) (A) (A) (A) (A) (A) (A) (A) (A) (A) (A)
                 (A) (A) (A) (A) (A) (A) (A) (A) (A) (A) (A) (A)
                 (A) (A) (A) (A) (A) (A) (A) (A) (A) (A) (A) (A)
                 (A) (A) (A) (A) (A) (A) (A) (A) (A) (A) (A) (A)
                 (A) (A) (A) (A) (A) (A) (A) (A) (A) (A) (A) (A)
                 (A) (A) (A) (A) (A) (A) (A) (A) (A) (A) (A) (A)
                 (A) (A) (A) (A) (A) (A) (A) (A) (A) (A) (A) (A)
                 (A) (A) (A) (A) (A) (A) (A) (A) (A) (A) (A) (A)
                 (A) (A) (A) (A) (A) (A) (A) (A) (A) (A) (A) (A)
                 (A) (A) (A) (A) (A) (A) (A) (A) (A) (A) (A) (A)
                 (A) (A) (A) (A) (A) (A) (A) (A) (A) (A) (A) (A)
                 (A) (A) (A) (A) (A) (A) (A) (A) (A) (A) (A) (A)
                 (A) (A) (A) (A) (A) (A) (A) (A) (A) (A) (A) (A)
                 (A) (A) (A) (A) (A) (A) (A) (A) (A) (A) (A) (A)
                 (A) (A) (A) (A) (A) (A) (A) (A) (A) (A) (A) (A)
                 (A) (A) (A) (A) (A) (A) (A) (A) (A) (A) (A) (A)
                 (A) (A) (A) (A) (A) (A) (A) (A) (A) (A) (A) (A)
                 (A) (A) (A) (A) (A) (A) (A) (A) (A) (A) (A) (A)
                 (A) (A) (A) (A) (A) (A) (A) (A) (A) (A) (A) (A)
                 (A) (A) (A) (A) (A) (A) (A) (A) (A) (A) (A) (A)
                 (A) (A) (A) (A) (A) (A) (A) (A) (A) (A) (A) (A)
                 (A) (A) (A) (A) (A) (A) (A) (A) (A) (A) (A) (A)
                 (A) (A) (A) (A) (A) (A) (A) (A) (A) (A) (A) (A)
                 (A) (A) (A) (A) (A) (A) (A) (A) (A) (A) (A) (A)
                 (A) (A) (A) (A) (A) (A) (A) (A) (A) (A) (A) (A)
                 (A) (A) (A) (A) (A) (A) (A) (A) (A) (A) (A) (A)
                 (A) (A) (A) (A) (A) (A) (A) (A) (A) (A) (A) (A)
                 (A) (A) (A) (A) (A) (A) (A) (A) (A) (A) (A) (A)
                 (A) (A) (A) (A) (A) (A) (A) (A) (A) (A) (A) (A)
                 (A) (A) (A) (A) (A) (A) (A) (A) (A) (A) (A) (A)
                 (A) (A) (A) (A) (A) (A) (A) (A) (A) (A) (A) (A)
                 (A) (A) (A) (A) (A) (A) (A) (A) (A) (A) (A) (A)
                 (A) (A) (A) (A) (A) (A) (A) (A) (A) (A) (A) (A)
                 (A) (A) (A) (A) (A) (A) (A) (A) (A) (A) (A) (A)
                 (A) (A) (A) (A) (A) (A) (A) (A) (A) (A) (A) (A)
                 (A) (A) (A) (A) (A) (A) (A) (A) (A) (A) (A) (A)
                 (A) (A) (A) (A) (A) (A) (A) (A) (A) (A) (A) (A)
                 (A) (A) (A) (A) (A) (A) (A) (A) (A) (A) (A) (A)
                 (A) (A) (A) (A) (A) (A) (A) (A) (A) (A) (A) (A)
                 (A) (A) (A) (A) (A) (A) (A) (A) (A) (A) (A) (A)
                 (A) (A) (A) (A) (A) (A) (A) (A) (A) (A) (A) (A)
                 (A) (A) (A) (A) (A) (A) (A) (A) (A) (A) (A) (A)
                 (A) (A) (A) (A) (A) (A) (A) (A) (A) (A) (A) (A)
                 (A) (A) (A) (A) (A) (A) (A)
 The electronic state is 1-A.
 Alpha  occ. eigenvalues --  -19.26125 -19.22676 -19.20900 -14.52807 -14.51210
 Alpha  occ. eigenvalues --  -14.48980 -14.48783 -14.48266 -14.47436 -14.47282
 Alpha  occ. eigenvalues --  -14.46289 -14.44258 -14.42687 -14.42576 -14.42388
 Alpha  occ. eigenvalues --  -14.41979 -14.41454 -14.40987 -14.40845 -14.40060
 Alpha  occ. eigenvalues --  -10.45812 -10.41659 -10.40718 -10.38543 -10.38281
 Alpha  occ. eigenvalues --  -10.38255 -10.36811 -10.35736 -10.35521 -10.35311
 Alpha  occ. eigenvalues --  -10.34620 -10.34137 -10.34110 -10.33447 -10.33359
 Alpha  occ. eigenvalues --  -10.33026 -10.32973 -10.31538 -10.31245 -10.31032
 Alpha  occ. eigenvalues --  -10.30965 -10.28521 -10.28406  -1.19737  -1.13897
 Alpha  occ. eigenvalues --   -1.13663  -1.13531  -1.11363  -1.10833  -1.09696
 Alpha  occ. eigenvalues --   -1.08988  -1.07606  -1.04900  -1.03249  -1.02893
 Alpha  occ. eigenvalues --   -1.00329  -1.00316  -0.99652  -0.98838  -0.96944
 Alpha  occ. eigenvalues --   -0.96798  -0.95190  -0.92535  -0.91487  -0.86283
 Alpha  occ. eigenvalues --   -0.84717  -0.84375  -0.83982  -0.83933  -0.82717
 Alpha  occ. eigenvalues --   -0.82302  -0.79298  -0.75589  -0.74915  -0.74094
 Alpha  occ. eigenvalues --   -0.73776  -0.73278  -0.72847  -0.71007  -0.68971
 Alpha  occ. eigenvalues --   -0.67792  -0.66952  -0.66240  -0.65328  -0.64830
 Alpha  occ. eigenvalues --   -0.64083  -0.62998  -0.62837  -0.62548  -0.62178
 Alpha  occ. eigenvalues --   -0.60130  -0.59914  -0.59911  -0.59093  -0.58946
 Alpha  occ. eigenvalues --   -0.58698  -0.58209  -0.56841  -0.56440  -0.56401
 Alpha  occ. eigenvalues --   -0.56287  -0.55281  -0.54794  -0.54642  -0.54035
 Alpha  occ. eigenvalues --   -0.53967  -0.53693  -0.53239  -0.52777  -0.52547
 Alpha  occ. eigenvalues --   -0.52249  -0.51706  -0.51491  -0.50712  -0.50487
 Alpha  occ. eigenvalues --   -0.50140  -0.49825  -0.49267  -0.49120  -0.49009
 Alpha  occ. eigenvalues --   -0.48548  -0.48444  -0.47977  -0.47793  -0.47688
 Alpha  occ. eigenvalues --   -0.46915  -0.45444  -0.45045  -0.44505  -0.43148
 Alpha  occ. eigenvalues --   -0.41106  -0.39736  -0.39363  -0.37671  -0.37536
 Alpha  occ. eigenvalues --   -0.37139  -0.36792  -0.36144  -0.35716  -0.34855
 Alpha  occ. eigenvalues --   -0.33811  -0.33548  -0.33458  -0.33057  -0.32961
 Alpha  occ. eigenvalues --   -0.32651  -0.32520  -0.32427  -0.32081  -0.30913
 Alpha  occ. eigenvalues --   -0.30281  -0.28500  -0.25797  -0.25673
 Alpha virt. eigenvalues --    0.02528   0.05345   0.07826   0.08008   0.08426
 Alpha virt. eigenvalues --    0.09321   0.09384   0.11057   0.11540   0.12189
 Alpha virt. eigenvalues --    0.12672   0.13984   0.14550   0.14796   0.15427
 Alpha virt. eigenvalues --    0.16087   0.16386   0.16891   0.17454   0.17941
 Alpha virt. eigenvalues --    0.18702   0.19283   0.19898   0.20239   0.20301
 Alpha virt. eigenvalues --    0.20663   0.20688   0.21324   0.21828   0.22482
 Alpha virt. eigenvalues --    0.22803   0.23027   0.23299   0.23535   0.23760
 Alpha virt. eigenvalues --    0.23988   0.24079   0.24428   0.25001   0.25036
 Alpha virt. eigenvalues --    0.26004   0.26347   0.26756   0.27439   0.27704
 Alpha virt. eigenvalues --    0.29060   0.29349   0.29898   0.30661   0.30962
 Alpha virt. eigenvalues --    0.31018   0.31569   0.32621   0.33257   0.33658
 Alpha virt. eigenvalues --    0.33823   0.34568   0.35452   0.35626   0.36656
 Alpha virt. eigenvalues --    0.37048   0.37507   0.38415   0.39368   0.39991
 Alpha virt. eigenvalues --    0.40266   0.40425   0.41068   0.41276   0.41613
 Alpha virt. eigenvalues --    0.42508   0.42721   0.43749   0.43807   0.44218
 Alpha virt. eigenvalues --    0.45087   0.45653   0.45815   0.46164   0.47211
 Alpha virt. eigenvalues --    0.47542   0.48128   0.48306   0.48834   0.49552
 Alpha virt. eigenvalues --    0.50095   0.50133   0.50322   0.50820   0.51614
 Alpha virt. eigenvalues --    0.51635   0.52115   0.52401   0.52944   0.53514
 Alpha virt. eigenvalues --    0.53566   0.53987   0.54317   0.54987   0.55166
 Alpha virt. eigenvalues --    0.55372   0.56015   0.56489   0.56783   0.57510
 Alpha virt. eigenvalues --    0.57922   0.57962   0.58837   0.59139   0.59212
 Alpha virt. eigenvalues --    0.59847   0.60024   0.60449   0.60870   0.61234
 Alpha virt. eigenvalues --    0.61682   0.61859   0.62319   0.62466   0.63467
 Alpha virt. eigenvalues --    0.63891   0.64324   0.64623   0.64799   0.65055
 Alpha virt. eigenvalues --    0.65691   0.66099   0.66336   0.66699   0.67184
 Alpha virt. eigenvalues --    0.67585   0.67975   0.68278   0.68408   0.68738
 Alpha virt. eigenvalues --    0.69338   0.69743   0.70012   0.70422   0.70632
 Alpha virt. eigenvalues --    0.70780   0.71763   0.72515   0.72709   0.73185
 Alpha virt. eigenvalues --    0.73769   0.74157   0.74590   0.75170   0.75560
 Alpha virt. eigenvalues --    0.75857   0.75873   0.75998   0.76539   0.76720
 Alpha virt. eigenvalues --    0.77158   0.77490   0.77690   0.78053   0.78173
 Alpha virt. eigenvalues --    0.78560   0.78943   0.79448   0.79790   0.80533
 Alpha virt. eigenvalues --    0.80866   0.81693   0.81904   0.82249   0.83112
 Alpha virt. eigenvalues --    0.83296   0.83573   0.84221   0.84509   0.84879
 Alpha virt. eigenvalues --    0.85588   0.86131   0.86234   0.87095   0.87577
 Alpha virt. eigenvalues --    0.88084   0.88554   0.88618   0.89087   0.89253
 Alpha virt. eigenvalues --    0.90579   0.90796   0.91079   0.91401   0.91752
 Alpha virt. eigenvalues --    0.92311   0.92637   0.92769   0.93463   0.93949
 Alpha virt. eigenvalues --    0.94264   0.95259   0.95580   0.95768   0.96101
 Alpha virt. eigenvalues --    0.96833   0.97243   0.97442   0.98230   0.98543
 Alpha virt. eigenvalues --    0.98758   0.99226   0.99840   1.00321   1.01191
 Alpha virt. eigenvalues --    1.01464   1.01697   1.02569   1.02635   1.02749
 Alpha virt. eigenvalues --    1.03421   1.03737   1.03992   1.04707   1.04894
 Alpha virt. eigenvalues --    1.05346   1.05877   1.06442   1.06704   1.06817
 Alpha virt. eigenvalues --    1.07768   1.08559   1.09276   1.09789   1.10580
 Alpha virt. eigenvalues --    1.10921   1.11615   1.12234   1.12647   1.12883
 Alpha virt. eigenvalues --    1.13622   1.14177   1.14521   1.15041   1.15162
 Alpha virt. eigenvalues --    1.15973   1.16214   1.16652   1.17146   1.17367
 Alpha virt. eigenvalues --    1.17861   1.18493   1.19073   1.19224   1.19417
 Alpha virt. eigenvalues --    1.19736   1.20184   1.20770   1.20990   1.21262
 Alpha virt. eigenvalues --    1.21381   1.22192   1.22505   1.22571   1.22875
 Alpha virt. eigenvalues --    1.23016   1.23650   1.24084   1.24426   1.24704
 Alpha virt. eigenvalues --    1.24801   1.25580   1.26440   1.27219   1.27495
 Alpha virt. eigenvalues --    1.28569   1.28869   1.29865   1.30570   1.31018
 Alpha virt. eigenvalues --    1.31426   1.31857   1.32309   1.32936   1.33438
 Alpha virt. eigenvalues --    1.34077   1.34982   1.35284   1.35850   1.36264
 Alpha virt. eigenvalues --    1.37689   1.38166   1.38919   1.39189   1.39514
 Alpha virt. eigenvalues --    1.40809   1.41798   1.42324   1.43324   1.44320
 Alpha virt. eigenvalues --    1.44769   1.44917   1.47130   1.47229   1.47964
 Alpha virt. eigenvalues --    1.48070   1.48948   1.49044   1.49467   1.49703
 Alpha virt. eigenvalues --    1.50917   1.51508   1.51789   1.52482   1.54303
 Alpha virt. eigenvalues --    1.54582   1.55873   1.56098   1.56134   1.57334
 Alpha virt. eigenvalues --    1.57581   1.58878   1.59795   1.60477   1.60744
 Alpha virt. eigenvalues --    1.61344   1.61594   1.62071   1.62338   1.63079
 Alpha virt. eigenvalues --    1.64096   1.65094   1.65459   1.65758   1.66270
 Alpha virt. eigenvalues --    1.67078   1.67596   1.67938   1.68043   1.68757
 Alpha virt. eigenvalues --    1.69280   1.69508   1.70098   1.70731   1.71048
 Alpha virt. eigenvalues --    1.71638   1.71802   1.72274   1.72703   1.73004
 Alpha virt. eigenvalues --    1.73526   1.73878   1.74118   1.74560   1.74853
 Alpha virt. eigenvalues --    1.75074   1.75351   1.75764   1.76092   1.76526
 Alpha virt. eigenvalues --    1.76805   1.77555   1.77959   1.78170   1.78674
 Alpha virt. eigenvalues --    1.79842   1.80027   1.80166   1.80278   1.80326
 Alpha virt. eigenvalues --    1.80449   1.80681   1.81191   1.81396   1.82007
 Alpha virt. eigenvalues --    1.82497   1.82887   1.83189   1.83677   1.83806
 Alpha virt. eigenvalues --    1.84600   1.85650   1.85999   1.86250   1.86759
 Alpha virt. eigenvalues --    1.86857   1.87711   1.88009   1.88071   1.88940
 Alpha virt. eigenvalues --    1.89014   1.89427   1.89887   1.90434   1.91135
 Alpha virt. eigenvalues --    1.91459   1.92253   1.92511   1.93011   1.93293
 Alpha virt. eigenvalues --    1.93968   1.94461   1.95353   1.95884   1.96692
 Alpha virt. eigenvalues --    1.97792   1.98695   1.99699   1.99991   2.00766
 Alpha virt. eigenvalues --    2.01388   2.01605   2.01750   2.03280   2.03589
 Alpha virt. eigenvalues --    2.03801   2.05516   2.06040   2.06408   2.06988
 Alpha virt. eigenvalues --    2.07441   2.08076   2.08765   2.09028   2.09093
 Alpha virt. eigenvalues --    2.10360   2.10691   2.11080   2.11393   2.11994
 Alpha virt. eigenvalues --    2.12479   2.14025   2.14790   2.15767   2.17293
 Alpha virt. eigenvalues --    2.18461   2.19258   2.19831   2.20367   2.20898
 Alpha virt. eigenvalues --    2.21199   2.21727   2.22578   2.23102   2.23614
 Alpha virt. eigenvalues --    2.23872   2.24350   2.25114   2.25646   2.26616
 Alpha virt. eigenvalues --    2.27397   2.27838   2.28503   2.29447   2.29621
 Alpha virt. eigenvalues --    2.29807   2.30226   2.30998   2.31946   2.32146
 Alpha virt. eigenvalues --    2.32964   2.33459   2.33849   2.34269   2.34336
 Alpha virt. eigenvalues --    2.34603   2.35487   2.36497   2.36754   2.36850
 Alpha virt. eigenvalues --    2.37755   2.39161   2.39684   2.40408   2.41435
 Alpha virt. eigenvalues --    2.41785   2.42351   2.43295   2.43679   2.44305
 Alpha virt. eigenvalues --    2.44690   2.44918   2.45602   2.46135   2.46967
 Alpha virt. eigenvalues --    2.47432   2.48325   2.48795   2.50486   2.51347
 Alpha virt. eigenvalues --    2.51574   2.53535   2.54104   2.54414   2.55004
 Alpha virt. eigenvalues --    2.56111   2.56582   2.57001   2.57957   2.59594
 Alpha virt. eigenvalues --    2.60081   2.61221   2.61719   2.62364   2.62517
 Alpha virt. eigenvalues --    2.63937   2.64267   2.64915   2.64989   2.65513
 Alpha virt. eigenvalues --    2.66896   2.67817   2.68267   2.68405   2.69173
 Alpha virt. eigenvalues --    2.69573   2.70119   2.70376   2.70857   2.72425
 Alpha virt. eigenvalues --    2.73367   2.73893   2.74534   2.75253   2.75758
 Alpha virt. eigenvalues --    2.77432   2.78325   2.78757   2.79196   2.79359
 Alpha virt. eigenvalues --    2.79847   2.80057   2.80428   2.80691   2.81105
 Alpha virt. eigenvalues --    2.81800   2.82390   2.82825   2.83284   2.84102
 Alpha virt. eigenvalues --    2.84528   2.85121   2.85827   2.86546   2.86926
 Alpha virt. eigenvalues --    2.87293   2.87912   2.88849   2.90599   2.90986
 Alpha virt. eigenvalues --    2.93813   2.96243   2.96587   2.97226   2.99206
 Alpha virt. eigenvalues --    2.99942   3.00595   3.01293   3.04137   3.05797
 Alpha virt. eigenvalues --    3.06411   3.09886   3.10626   3.13509   3.14710
 Alpha virt. eigenvalues --    3.15074   3.15400   3.15974   3.16939   3.19637
 Alpha virt. eigenvalues --    3.21878   3.22351   3.23236   3.23783   3.25617
 Alpha virt. eigenvalues --    3.46249   3.46969   3.47456   3.49626   3.50754
 Alpha virt. eigenvalues --    3.53308   3.53947   3.55738   3.57462   3.59663
 Alpha virt. eigenvalues --    3.62000   3.70848   3.74157
          Condensed to atoms (all electrons):
 Mulliken charges:
               1
     1  N   -0.310777
     2  C    0.180979
     3  C    0.030769
     4  N   -0.258241
     5  C    0.132668
     6  H    0.026296
     7  N   -0.291419
     8  C    0.131125
     9  H    0.009785
    10  N   -0.290279
    11  C    0.239951
    12  C    0.124369
    13  N   -0.052776
    14  H    0.109645
    15  H    0.090536
    16  H    0.025540
    17  H    0.034720
    18  H    0.025402
    19  N   -0.311470
    20  C    0.248038
    21  C    0.181706
    22  N   -0.123010
    23  H    0.115521
    24  H    0.117462
    25  N   -0.301085
    26  C    0.235926
    27  N   -0.129031
    28  H    0.115874
    29  C    0.164078
    30  O   -0.321066
    31  C   -0.004501
    32  N   -0.220940
    33  C    0.131692
    34  H    0.031154
    35  H    0.030333
    36  H    0.028205
    37  H    0.025100
    38  H    0.063071
    39  H    0.059926
    40  H    0.074098
    41  H    0.032571
    42  C   -0.109366
    43  O   -0.272766
    44  C    0.151073
    45  H    0.136323
    46  N   -0.126565
    47  O   -0.350844
    48  C    0.361837
    49  H    0.050474
    50  C    0.176318
    51  C    0.043132
    52  N   -0.294618
    53  H    0.031149
    54  H    0.044627
    55  H    0.013853
    56  H    0.128427
    57  H    0.112190
    58  N   -0.053626
    59  C    0.096704
    60  C    0.239662
    61  N   -0.262734
    62  H    0.046156
    63  C    0.153148
    64  N   -0.296974
    65  H    0.027993
    66  C    0.129415
    67  N   -0.269819
    68  C    0.022745
    69  C    0.180085
    70  N   -0.309942
 Sum of Mulliken charges =  -0.00000
 Mulliken charges with hydrogens summed into heavy atoms:
               1
     1  N   -0.310777
     2  C    0.266640
     3  C    0.030769
     4  N   -0.258241
     5  C    0.158964
     7  N   -0.291419
     8  C    0.140910
    10  N   -0.290279
    11  C    0.239951
    12  C    0.124369
    13  N    0.147404
    19  N   -0.311470
    20  C    0.248038
    21  C    0.265344
    22  N    0.109973
    25  N   -0.301085
    26  C    0.235926
    27  N   -0.013158
    29  C    0.164078
    30  O   -0.321066
    31  C   -0.004501
    32  N   -0.220940
    33  C    0.162845
    42  C   -0.076795
    43  O   -0.272766
    44  C    0.151073
    46  N    0.009758
    47  O   -0.350844
    48  C    0.361837
    50  C    0.226792
    51  C    0.240227
    52  N   -0.294618
    58  N    0.186991
    59  C    0.096704
    60  C    0.239662
    61  N   -0.262734
    63  C    0.199304
    64  N   -0.296974
    66  C    0.157408
    67  N   -0.269819
    68  C    0.022745
    69  C    0.269714
    70  N   -0.309942
 Electronic spatial extent (au):  <R**2>=          24250.8514
 Charge=             -0.0000 electrons
 Dipole moment (field-independent basis, Debye):
    X=              8.7361    Y=              5.4977    Z=              1.4023  Tot=             10.4168
 Quadrupole moment (field-independent basis, Debye-Ang):
   XX=           -147.6426   YY=           -217.0592   ZZ=           -249.3231
   XY=              1.1649   XZ=             12.3596   YZ=             -5.7173
 Traceless Quadrupole moment (field-independent basis, Debye-Ang):
   XX=             57.0324   YY=            -12.3842   ZZ=            -44.6482
   XY=              1.1649   XZ=             12.3596   YZ=             -5.7173
 Octapole moment (field-independent basis, Debye-Ang**2):
  XXX=             50.1065  YYY=            134.6417  ZZZ=              5.1345  XYY=             79.6392
  XXY=            -88.7055  XXZ=            -76.5146  XZZ=             29.6658  YZZ=             46.1129
  YYZ=             29.4549  XYZ=             53.9169
 Hexadecapole moment (field-independent basis, Debye-Ang**3):
 XXXX=         -15458.7535 YYYY=          -6473.6661 ZZZZ=          -3449.0275 XXXY=            397.6383
 XXXZ=            209.5869 YYYX=            -66.5964 YYYZ=           -100.1964 ZZZX=             84.0061
 ZZZY=             77.8346 XXYY=          -3930.7731 XXZZ=          -4137.8330 YYZZ=          -1629.1335
 XXYZ=            113.4322 YYXZ=            217.6192 ZZXY=             66.4143
 N-N= 5.394353667077D+03 E-N=-1.556975795615D+04  KE= 2.037702994953D+03
 No NMR shielding tensors so no spin-rotation constants.
 Leave Link  601 at Wed Jan 24 18:31:40 2018, MaxMem=  4294967296 cpu:              48.9 elap:               1.7
 (Enter /share/apps/g16/l9999.exe)
 1\1\GINC-COMPUTE-0-3\SP\RwB97XD\CC-pVDZ\C23H27N17O3\SATYA\24-Jan-2018\
 0\\#p wb97xd/cc-pvdz sp scf=(maxcycles=20)\\Base pair stacking\\0,1\N,
 0,9.71165,2.05274,-4.16993\C,0,11.00887,2.7564,-4.1597\C,0,7.59847,1.5
 3493,-4.49188\N,0,8.16261,0.46178,-3.81748\C,0,9.41315,0.81669,-3.6505
 1\H,0,10.16847,0.20961,-3.15064\N,0,6.06632,2.94898,-5.59457\C,0,7.079
 88,3.80915,-5.73734\H,0,6.83405,4.73581,-6.25419\N,0,8.34556,3.69703,-
 5.33939\C,0,8.54107,2.52324,-4.71615\C,0,6.29525,1.77686,-4.96306\N,0,
 5.28476,0.91692,-4.81957\H,0,5.40861,0.03742,-4.35873\H,0,4.36999,1.12
 236,-5.16762\H,0,11.69162,2.20668,-4.6412\H,0,10.91276,3.64084,-4.6154
 1\H,0,11.30494,2.90031,-3.21544\N,0,4.02959,5.8733,-2.9411\C,0,2.83124
 ,5.2298,-3.13582\C,0,4.26472,7.31784,-3.13787\N,0,-0.52596,5.32668,-4.
 0199\H,0,-1.28614,4.6827,-4.1014\H,0,-0.71657,6.28379,-4.23972\N,0,1.6
 765,5.8044,-3.53639\C,0,0.69457,4.92574,-3.6333\N,0,0.83098,3.58639,-3
 .35935\H,0,0.02555,2.98808,-3.46067\C,0,2.00959,2.97343,-2.94578\O,0,2
 .0259,1.75624,-2.72461\C,0,3.07345,3.9047,-2.83709\N,0,4.39722,3.72001
 ,-2.46237\C,0,4.92427,4.9119,-2.53874\H,0,5.96485,5.14642,-2.31186\H,0
 ,4.96825,7.45078,-3.83514\H,0,3.41628,7.75408,-3.4347\H,0,4.5662,7.728
 34,-2.27798\H,0,-4.17842,0.44705,-4.7731\H,0,-4.49727,0.49407,-3.04082
 \H,0,-3.61641,1.81423,-3.81064\H,0,-1.25112,-3.05108,-3.2432\C,0,-1.28
 69,-1.96221,-3.27935\O,0,1.03179,-1.68851,-2.85998\C,0,-0.08314,-1.215
 04,-3.07806\H,0,0.5892,0.71659,-3.00673\N,0,-0.23924,0.15483,-3.14397\
 O,0,-1.44124,2.06214,-3.41699\C,0,-1.40245,0.84496,-3.37681\H,0,-3.379
 67,-1.83908,-3.6679\C,0,-2.43686,-1.31748,-3.50852\C,0,-3.7863,0.7478,
 -3.81296\N,0,-2.51989,0.05464,-3.56104\H,0,-0.89448,5.06271,-8.71894\H
 ,0,0.12438,5.57104,-7.55035\H,0,-1.47204,5.43531,-7.23873\H,0,2.04295,
 -0.77391,-5.20171\H,0,0.4536,-0.77314,-5.82144\N,0,1.29223,-0.26475,-5
 .6228\C,0,1.40347,1.03445,-5.90721\C,0,0.64273,3.13231,-6.73302\N,0,1.
 7809,3.7894,-6.45513\H,0,3.6265,3.42213,-5.64304\C,0,2.67066,2.96824,-
 5.90113\N,0,2.56114,1.66671,-5.61546\H,0,-2.37862,2.71756,-7.80614\C,0
 ,-1.38021,2.59367,-7.38569\N,0,-0.90409,1.46666,-6.91576\C,0,0.37789,1
 .79423,-6.49868\C,0,-0.70115,5.03964,-7.73808\N,0,-0.49757,3.64314,-7.
 3064\\Version=EM64L-G16RevA.03\State=1-A\HF=-2048.7439492\RMSD=5.936e-
 09\Dipole=-3.7036836,1.4675675,-0.961729\Quadrupole=40.1659084,-6.9724
 888,-33.1934196,8.6338602,11.4693277,2.759942\PG=C01 [X(C23H27N17O3)]\
 \@


 SEE YOU NOW,
 YOUR BAIT OF FALSEHOOD TAKES THIS CARP OF TRUTH.
 AND THUS DO WE OF WISDOM AND OF REACH...
 BY INDIRECTIONS FIND DIRECTIONS OUT.    -- HAMLET, II, 1
 Job cpu time:       0 days  5 hours 39 minutes  1.0 seconds.
 Elapsed time:       0 days  0 hours 10 minutes 57.6 seconds.
 File lengths (MBytes):  RWF=    298 Int=      0 D2E=      0 Chk=     33 Scr=      1
 Normal termination of Gaussian 16 at Wed Jan 24 18:31:41 2018.
