 Entering Gaussian System, Link 0=g16
 Input=str50.-10.-0.5.com
 Output=str50.-10.-0.5.log
 Initial command:
 /share/apps/g16/l1.exe "/state/partition1/scr/Gau-19220.inp" -scrdir="/state/partition1/scr/"
 Entering Link 1 = /share/apps/g16/l1.exe PID=     19221.
  
 Copyright (c) 1988,1990,1992,1993,1995,1998,2003,2009,2016,
            Gaussian, Inc.  All Rights Reserved.
  
 This is part of the Gaussian(R) 16 program.  It is based on
 the Gaussian(R) 09 system (copyright 2009, Gaussian, Inc.),
 the Gaussian(R) 03 system (copyright 2003, Gaussian, Inc.),
 the Gaussian(R) 98 system (copyright 1998, Gaussian, Inc.),
 the Gaussian(R) 94 system (copyright 1995, Gaussian, Inc.),
 the Gaussian 92(TM) system (copyright 1992, Gaussian, Inc.),
 the Gaussian 90(TM) system (copyright 1990, Gaussian, Inc.),
 the Gaussian 88(TM) system (copyright 1988, Gaussian, Inc.),
 the Gaussian 86(TM) system (copyright 1986, Carnegie Mellon
 University), and the Gaussian 82(TM) system (copyright 1983,
 Carnegie Mellon University). Gaussian is a federally registered
 trademark of Gaussian, Inc.
  
 This software contains proprietary and confidential information,
 including trade secrets, belonging to Gaussian, Inc.
  
 This software is provided under written license and may be
 used, copied, transmitted, or stored only in accord with that
 written license.
  
 The following legend is applicable only to US Government
 contracts under FAR:
  
                    RESTRICTED RIGHTS LEGEND
  
 Use, reproduction and disclosure by the US Government is
 subject to restrictions as set forth in subparagraphs (a)
 and (c) of the Commercial Computer Software - Restricted
 Rights clause in FAR 52.227-19.
  
 Gaussian, Inc.
 340 Quinnipiac St., Bldg. 40, Wallingford CT 06492
  
  
 ---------------------------------------------------------------
 Warning -- This program may not be used in any manner that
 competes with the business of Gaussian, Inc. or will provide
 assistance to any competitor of Gaussian, Inc.  The licensee
 of this program is prohibited from giving any competitor of
 Gaussian, Inc. access to this program.  By using this program,
 the user acknowledges that Gaussian, Inc. is engaged in the
 business of creating and licensing software in the field of
 computational chemistry and represents and warrants to the
 licensee that it is not a competitor of Gaussian, Inc. and that
 it will not use this program in any manner prohibited above.
 ---------------------------------------------------------------
  

 Cite this work as:
 Gaussian 16, Revision A.03,
 M. J. Frisch, G. W. Trucks, H. B. Schlegel, G. E. Scuseria, 
 M. A. Robb, J. R. Cheeseman, G. Scalmani, V. Barone, 
 G. A. Petersson, H. Nakatsuji, X. Li, M. Caricato, A. V. Marenich, 
 J. Bloino, B. G. Janesko, R. Gomperts, B. Mennucci, H. P. Hratchian, 
 J. V. Ortiz, A. F. Izmaylov, J. L. Sonnenberg, D. Williams-Young, 
 F. Ding, F. Lipparini, F. Egidi, J. Goings, B. Peng, A. Petrone, 
 T. Henderson, D. Ranasinghe, V. G. Zakrzewski, J. Gao, N. Rega, 
 G. Zheng, W. Liang, M. Hada, M. Ehara, K. Toyota, R. Fukuda, 
 J. Hasegawa, M. Ishida, T. Nakajima, Y. Honda, O. Kitao, H. Nakai, 
 T. Vreven, K. Throssell, J. A. Montgomery, Jr., J. E. Peralta, 
 F. Ogliaro, M. J. Bearpark, J. J. Heyd, E. N. Brothers, K. N. Kudin, 
 V. N. Staroverov, T. A. Keith, R. Kobayashi, J. Normand, 
 K. Raghavachari, A. P. Rendell, J. C. Burant, S. S. Iyengar, 
 J. Tomasi, M. Cossi, J. M. Millam, M. Klene, C. Adamo, R. Cammi, 
 J. W. Ochterski, R. L. Martin, K. Morokuma, O. Farkas, 
 J. B. Foresman, and D. J. Fox, Gaussian, Inc., Wallingford CT, 2016.
 
 ******************************************
 Gaussian 16:  EM64L-G16RevA.03 25-Dec-2016
                24-Jan-2018 
 ******************************************
 %nprocshared=32
 Will use up to   32 processors via shared memory.
 %mem=32GB
 %chk=allatoms_t.chk
 ---------------------------------------
 #p wb97xd/cc-pvdz sp scf=(maxcycles=20)
 ---------------------------------------
 1/38=1,172=1/1;
 2/12=2,17=6,18=5,40=1/2;
 3/5=16,11=2,25=1,30=1,74=-58/1,2,3;
 4//1;
 5/5=2,7=20,38=5/2;
 6/7=2,8=2,9=2,10=2,28=1/1;
 99/5=1,9=1/99;
 Leave Link    1 at Wed Jan 24 11:02:36 2018, MaxMem=  4294967296 cpu:               2.7 elap:               0.1
 (Enter /share/apps/g16/l101.exe)
 ------------------
 Base pair stacking
 ------------------
 Symbolic Z-matrix:
 Charge =  0 Multiplicity = 1
 N                     5.52232   1.4072   -7.45494 
 C                     6.76794   2.18136  -7.61963 
 C                     3.42902   0.83587  -7.09578 
 N                     4.11153  -0.34118  -7.36681 
 C                     5.34535   0.05014  -7.57235 
 H                     6.17445  -0.6151   -7.81526 
 N                     1.72858   2.38569  -6.57663 
 C                     2.67014   3.33121  -6.66044 
 H                     2.32586   4.34793  -6.47597 
 N                     3.96703   3.20995  -6.93661 
 C                     4.28542   1.92193  -7.14648 
 C                     2.08076   1.09954  -6.79313 
 N                     1.1423    0.15427  -6.70992 
 H                     1.35787  -0.81085  -6.86252 
 H                     0.19228   0.37845  -6.49233 
 H                     7.12469   2.04862  -8.54445 
 H                     6.58003   3.15194  -7.47202 
 H                     7.44672   1.87008  -6.95453 
 N                     2.67925   4.54989  -3.39157 
 C                     1.47193   3.90728  -3.25933 
 C                     2.86857   6.01419  -3.41785 
 N                    -1.97893   4.03537  -2.8893 
 H                    -2.7363    3.38839  -2.80535 
 H                    -2.2092    5.00865  -2.86852 
 N                     0.26544   4.5008   -3.13219 
 C                    -0.71115   3.61756  -3.02374 
 N                    -0.52275   2.25675  -3.03844 
 H                    -1.32822   1.65653  -2.94951 
 C                     0.70963   1.62407  -3.1682 
 O                     0.7703    0.38833  -3.1697 
 C                     1.76846   2.56     -3.2857 
 N                     3.13445   2.36079  -3.43157 
 C                     3.63265   3.56603  -3.48995 
 H                     4.69271   3.79487  -3.60471 
 H                     3.28764   6.28227  -4.28463 
 H                     1.98159   6.46454  -3.32443 
 H                     3.46188   6.28886  -2.66197 
 H                    -5.79077  -0.77488  -3.11291 
 H                    -5.48348  -1.02139  -1.39551 
 H                    -4.89259   0.43509  -2.19606 
 H                    -2.60606  -4.37637  -3.29579 
 C                    -2.62373  -3.29796  -3.13784 
 O                    -0.29821  -3.0194   -3.51394 
 C                    -1.40634  -2.55402  -3.24888 
 H                    -0.70115  -0.63858  -3.10011 
 N                    -1.53977  -1.19767  -3.03032 
 O                    -2.71116   0.68765  -2.55012 
 C                    -2.69261  -0.51784  -2.72647 
 H                    -4.7165   -3.18273  -2.74686 
 C                    -3.76407  -2.66306  -2.84268 
 C                    -5.08042  -0.62175  -2.31415 
 N                    -3.82431  -1.30425  -2.63686 
 H                    -5.6444    4.80062  -4.99882 
 H                    -4.18244   4.78715  -4.27453 
 H                    -5.50435   4.29446  -3.45363 
 H                    -2.11364  -1.54332  -6.53298 
 H                    -3.80697  -1.45017  -6.34842 
 N                    -2.91546  -1.00063  -6.28254 
 C                    -2.802     0.2663   -5.87856 
 C                    -3.62068   2.36672  -5.11718 
 N                    -2.41061   2.94459  -5.03833 
 H                    -0.44284   2.47732  -5.37021 
 C                    -1.45944   2.08801  -5.40501 
 N                    -1.57106   0.8187   -5.80994 
 H                    -6.83808   2.13586  -4.89988 
 C                    -5.77387   1.95639  -5.05542 
 N                    -5.26221   0.82408  -5.47227 
 C                    -3.89764   1.07061  -5.51583 
 C                    -5.05991   4.3143   -4.34931 
 N                    -4.83757   2.9337   -4.82103 
 
 ITRead=  0  0  0  0  0  0  0  0  0  0  0  0  0  0  0  0  0  0  0  0
 ITRead=  0  0  0  0  0  0  0  0  0  0  0  0  0  0  0  0  0  0  0  0
 ITRead=  0  0  0  0  0  0  0  0  0  0  0  0  0  0  0  0  0  0  0  0
 ITRead=  0  0  0  0  0  0  0  0  0  0
 MicOpt= -1 -1 -1 -1 -1 -1 -1 -1 -1 -1 -1 -1 -1 -1 -1 -1 -1 -1 -1 -1
 MicOpt= -1 -1 -1 -1 -1 -1 -1 -1 -1 -1 -1 -1 -1 -1 -1 -1 -1 -1 -1 -1
 MicOpt= -1 -1 -1 -1 -1 -1 -1 -1 -1 -1 -1 -1 -1 -1 -1 -1 -1 -1 -1 -1
 MicOpt= -1 -1 -1 -1 -1 -1 -1 -1 -1 -1
 NAtoms=     70 NQM=       70 NQMF=       0 NMMI=      0 NMMIF=      0
                NMic=       0 NMicF=      0.
                    Isotopes and Nuclear Properties:
 (Nuclear quadrupole moments (NQMom) in fm**2, nuclear magnetic moments (NMagM)
  in nuclear magnetons)

  Atom         1           2           3           4           5           6           7           8           9          10
 IAtWgt=          14          12          12          14          12           1          14          12           1          14
 AtmWgt=  14.0030740  12.0000000  12.0000000  14.0030740  12.0000000   1.0078250  14.0030740  12.0000000   1.0078250  14.0030740
 NucSpn=           2           0           0           2           0           1           2           0           1           2
 AtZEff=  -0.0000000  -0.0000000  -0.0000000  -0.0000000  -0.0000000  -0.0000000  -0.0000000  -0.0000000  -0.0000000  -0.0000000
 NQMom=    2.0440000   0.0000000   0.0000000   2.0440000   0.0000000   0.0000000   2.0440000   0.0000000   0.0000000   2.0440000
 NMagM=    0.4037610   0.0000000   0.0000000   0.4037610   0.0000000   2.7928460   0.4037610   0.0000000   2.7928460   0.4037610
 AtZNuc=   7.0000000   6.0000000   6.0000000   7.0000000   6.0000000   1.0000000   7.0000000   6.0000000   1.0000000   7.0000000

  Atom        11          12          13          14          15          16          17          18          19          20
 IAtWgt=          12          12          14           1           1           1           1           1          14          12
 AtmWgt=  12.0000000  12.0000000  14.0030740   1.0078250   1.0078250   1.0078250   1.0078250   1.0078250  14.0030740  12.0000000
 NucSpn=           0           0           2           1           1           1           1           1           2           0
 AtZEff=  -0.0000000  -0.0000000  -0.0000000  -0.0000000  -0.0000000  -0.0000000  -0.0000000  -0.0000000  -0.0000000  -0.0000000
 NQMom=    0.0000000   0.0000000   2.0440000   0.0000000   0.0000000   0.0000000   0.0000000   0.0000000   2.0440000   0.0000000
 NMagM=    0.0000000   0.0000000   0.4037610   2.7928460   2.7928460   2.7928460   2.7928460   2.7928460   0.4037610   0.0000000
 AtZNuc=   6.0000000   6.0000000   7.0000000   1.0000000   1.0000000   1.0000000   1.0000000   1.0000000   7.0000000   6.0000000

  Atom        21          22          23          24          25          26          27          28          29          30
 IAtWgt=          12          14           1           1          14          12          14           1          12          16
 AtmWgt=  12.0000000  14.0030740   1.0078250   1.0078250  14.0030740  12.0000000  14.0030740   1.0078250  12.0000000  15.9949146
 NucSpn=           0           2           1           1           2           0           2           1           0           0
 AtZEff=  -0.0000000  -0.0000000  -0.0000000  -0.0000000  -0.0000000  -0.0000000  -0.0000000  -0.0000000  -0.0000000  -0.0000000
 NQMom=    0.0000000   2.0440000   0.0000000   0.0000000   2.0440000   0.0000000   2.0440000   0.0000000   0.0000000   0.0000000
 NMagM=    0.0000000   0.4037610   2.7928460   2.7928460   0.4037610   0.0000000   0.4037610   2.7928460   0.0000000   0.0000000
 AtZNuc=   6.0000000   7.0000000   1.0000000   1.0000000   7.0000000   6.0000000   7.0000000   1.0000000   6.0000000   8.0000000

  Atom        31          32          33          34          35          36          37          38          39          40
 IAtWgt=          12          14          12           1           1           1           1           1           1           1
 AtmWgt=  12.0000000  14.0030740  12.0000000   1.0078250   1.0078250   1.0078250   1.0078250   1.0078250   1.0078250   1.0078250
 NucSpn=           0           2           0           1           1           1           1           1           1           1
 AtZEff=  -0.0000000  -0.0000000  -0.0000000  -0.0000000  -0.0000000  -0.0000000  -0.0000000  -0.0000000  -0.0000000  -0.0000000
 NQMom=    0.0000000   2.0440000   0.0000000   0.0000000   0.0000000   0.0000000   0.0000000   0.0000000   0.0000000   0.0000000
 NMagM=    0.0000000   0.4037610   0.0000000   2.7928460   2.7928460   2.7928460   2.7928460   2.7928460   2.7928460   2.7928460
 AtZNuc=   6.0000000   7.0000000   6.0000000   1.0000000   1.0000000   1.0000000   1.0000000   1.0000000   1.0000000   1.0000000

  Atom        41          42          43          44          45          46          47          48          49          50
 IAtWgt=           1          12          16          12           1          14          16          12           1          12
 AtmWgt=   1.0078250  12.0000000  15.9949146  12.0000000   1.0078250  14.0030740  15.9949146  12.0000000   1.0078250  12.0000000
 NucSpn=           1           0           0           0           1           2           0           0           1           0
 AtZEff=  -0.0000000  -0.0000000  -0.0000000  -0.0000000  -0.0000000  -0.0000000  -0.0000000  -0.0000000  -0.0000000  -0.0000000
 NQMom=    0.0000000   0.0000000   0.0000000   0.0000000   0.0000000   2.0440000   0.0000000   0.0000000   0.0000000   0.0000000
 NMagM=    2.7928460   0.0000000   0.0000000   0.0000000   2.7928460   0.4037610   0.0000000   0.0000000   2.7928460   0.0000000
 AtZNuc=   1.0000000   6.0000000   8.0000000   6.0000000   1.0000000   7.0000000   8.0000000   6.0000000   1.0000000   6.0000000

  Atom        51          52          53          54          55          56          57          58          59          60
 IAtWgt=          12          14           1           1           1           1           1          14          12          12
 AtmWgt=  12.0000000  14.0030740   1.0078250   1.0078250   1.0078250   1.0078250   1.0078250  14.0030740  12.0000000  12.0000000
 NucSpn=           0           2           1           1           1           1           1           2           0           0
 AtZEff=  -0.0000000  -0.0000000  -0.0000000  -0.0000000  -0.0000000  -0.0000000  -0.0000000  -0.0000000  -0.0000000  -0.0000000
 NQMom=    0.0000000   2.0440000   0.0000000   0.0000000   0.0000000   0.0000000   0.0000000   2.0440000   0.0000000   0.0000000
 NMagM=    0.0000000   0.4037610   2.7928460   2.7928460   2.7928460   2.7928460   2.7928460   0.4037610   0.0000000   0.0000000
 AtZNuc=   6.0000000   7.0000000   1.0000000   1.0000000   1.0000000   1.0000000   1.0000000   7.0000000   6.0000000   6.0000000

  Atom        61          62          63          64          65          66          67          68          69          70
 IAtWgt=          14           1          12          14           1          12          14          12          12          14
 AtmWgt=  14.0030740   1.0078250  12.0000000  14.0030740   1.0078250  12.0000000  14.0030740  12.0000000  12.0000000  14.0030740
 NucSpn=           2           1           0           2           1           0           2           0           0           2
 AtZEff=  -0.0000000  -0.0000000  -0.0000000  -0.0000000  -0.0000000  -0.0000000  -0.0000000  -0.0000000  -0.0000000  -0.0000000
 NQMom=    2.0440000   0.0000000   0.0000000   2.0440000   0.0000000   0.0000000   2.0440000   0.0000000   0.0000000   2.0440000
 NMagM=    0.4037610   2.7928460   0.0000000   0.4037610   2.7928460   0.0000000   0.4037610   0.0000000   0.0000000   0.4037610
 AtZNuc=   7.0000000   1.0000000   6.0000000   7.0000000   1.0000000   6.0000000   7.0000000   6.0000000   6.0000000   7.0000000
 Leave Link  101 at Wed Jan 24 11:02:37 2018, MaxMem=  4294967296 cpu:               7.7 elap:               0.3
 (Enter /share/apps/g16/l202.exe)
 Stoichiometry    C23H27N17O3
 Framework group  C1[X(C23H27N17O3)]
 Deg. of freedom   204
 Full point group                 C1      NOp   1
 Largest Abelian subgroup         C1      NOp   1
 Largest concise Abelian subgroup C1      NOp   1
                         Standard orientation:                         
 ---------------------------------------------------------------------
 Center     Atomic      Atomic             Coordinates (Angstroms)
 Number     Number       Type             X           Y           Z
 ---------------------------------------------------------------------
      1          7           0       -6.119898   -1.668099    0.830287
      2          6           0       -7.511700   -1.188136    0.727632
      3          6           0       -3.933130   -1.757742    1.047837
      4          7           0       -4.361744   -3.068070    0.892745
      5          6           0       -5.662040   -2.961616    0.767893
      6          1           0       -6.342199   -3.802093    0.626689
      7          7           0       -2.576836    0.148249    1.348872
      8          6           0       -3.704057    0.865101    1.293524
      9          1           0       -3.576078    1.941674    1.397872
     10          7           0       -4.959730    0.453702    1.129405
     11          6           0       -5.005549   -0.883608    1.011444
     12          6           0       -2.656422   -1.194840    1.226948
     13          7           0       -1.532315   -1.912145    1.281937
     14          1           0       -1.543929   -2.909015    1.196325
     15          1           0       -0.640720   -1.477787    1.410513
     16          1           0       -8.059850   -1.591895    1.460226
     17          1           0       -7.528548   -0.192137    0.810248
     18          1           0       -7.893751   -1.454012   -0.157435
     19          7           0       -3.131385    2.782161   -1.564395
     20          6           0       -1.815403    2.413713   -1.421232
     21          6           0       -3.664708    4.142955   -1.353412
     22          7           0        1.474898    3.238245   -0.675690
     23          1           0        2.358909    2.774075   -0.627632
     24          1           0        1.463122    4.215184   -0.460792
     25          7           0       -0.796630    3.226370   -1.066634
     26          6           0        0.355006    2.581029   -1.013055
     27          7           0        0.500005    1.242280   -1.285525
     28          1           0        1.419096    0.832582   -1.219380
     29          6           0       -0.534293    0.386933   -1.652256
     30          8           0       -0.296362   -0.806310   -1.876524
     31          6           0       -1.777711    1.065892   -1.714056
     32          7           0       -3.044535    0.597593   -2.034594
     33          6           0       -3.812991    1.647981   -1.932744
     34          1           0       -4.888039    1.650981   -2.115851
     35          1           0       -4.351241    4.124833   -0.627370
     36          1           0       -2.919090    4.753788   -1.090330
     37          1           0       -4.082605    4.473759   -2.198838
     38          1           0        6.122698   -0.733241   -0.089277
     39          1           0        6.352793   -0.628377   -1.833042
     40          1           0        5.239817    0.474818   -1.023345
     41          1           0        3.959962   -4.789596   -1.508824
     42          6           0        3.761176   -3.718497   -1.470640
     43          8           0        1.422945   -3.954311   -1.793374
     44          6           0        2.417259   -3.250038   -1.619804
     45          1           0        1.341265   -1.509584   -1.657132
     46          7           0        2.276384   -1.878423   -1.555909
     47          8           0        3.048213    0.244963   -1.326364
     48          6           0        3.271604   -0.952091   -1.368874
     49          1           0        5.792051   -3.144173   -1.168107
     50          6           0        4.753130   -2.839379   -1.286871
     51          6           0        5.635969   -0.529739   -1.031480
     52          7           0        4.539930   -1.481426   -1.233343
     53          1           0        4.151984    4.139473    2.563500
     54          1           0        2.983358    4.032124    1.429967
     55          1           0        4.554273    3.986191    0.989304
     56          1           0        1.960273   -2.913292    1.842112
     57          1           0        3.568382   -2.479028    2.210224
     58          7           0        2.646223   -2.193183    1.947294
     59          6           0        2.345633   -0.908520    1.746121
     60          6           0        2.811796    1.422348    1.639133
     61          7           0        1.565016    1.776999    1.286736
     62          1           0       -0.249342    0.901884    0.908740
     63          6           0        0.783531    0.703169    1.191467
     64          7           0        1.082717   -0.584319    1.392560
     65          1           0        5.929047    1.826618    2.395103
     66          6           0        4.936711    1.428911    2.180524
     67          7           0        4.618042    0.158327    2.222377
     68          6           0        3.273437    0.140223    1.881148
     69          6           0        3.895598    3.719423    1.692969
     70          7           0        3.891704    2.250407    1.834350
 ---------------------------------------------------------------------
 Rotational constants (GHZ):           0.1290322           0.0585453           0.0505295
 Leave Link  202 at Wed Jan 24 11:02:37 2018, MaxMem=  4294967296 cpu:               0.4 elap:               0.0
 (Enter /share/apps/g16/l301.exe)
 Standard basis: CC-pVDZ (5D, 7F)
 Ernie: Thresh=  0.10000D-02 Tol=  0.10000D-05 Strict=F.
 Ernie:  86 primitive shells out of 1081 were deleted.
 There are   780 symmetry adapted cartesian basis functions of A   symmetry.
 There are   737 symmetry adapted basis functions of A   symmetry.
   737 basis functions,  1608 primitive gaussians,   780 cartesian basis functions
   154 alpha electrons      154 beta electrons
       nuclear repulsion energy      5518.8096228312 Hartrees.
 IExCor= 4639 DFT=T Ex+Corr=wB97XD ExCW=0 ScaHFX=  1.000000
 ScaDFX=  1.000000  1.000000  1.000000  1.000000 ScalE2=  1.000000  1.000000
 IRadAn=      5 IRanWt=     -1 IRanGd=            0 ICorTp=0 IEmpDi=121
 HFx  wShort=  0.000000 wLong=  0.200000 cFull=  0.222036 cShort=  0.000000 cLong=  0.777964
 DFx  wShort=  0.000000 wLong=  0.200000 cFull=  0.000000 cShort=  0.000000 cLong=  1.000000
 NAtoms=   70 NActive=   70 NUniq=   70 SFac= 1.00D+00 NAtFMM=   60 NAOKFM=T Big=T
 Integral buffers will be    131072 words long.
 Raffenetti 2 integral format.
 Two-electron integral symmetry is turned on.
 R6Disp:  Grimme-D2 Dispersion energy=       -0.0713453513 Hartrees.
 Nuclear repulsion after empirical dispersion term =     5518.7382774799 Hartrees.
 Leave Link  301 at Wed Jan 24 11:02:37 2018, MaxMem=  4294967296 cpu:               3.0 elap:               0.1
 (Enter /share/apps/g16/l302.exe)
 NPDir=0 NMtPBC=     1 NCelOv=     1 NCel=       1 NClECP=     1 NCelD=      1
         NCelK=      1 NCelE2=     1 NClLst=     1 CellRange=     0.0.
 One-electron integrals computed using PRISM.
 One-electron integral symmetry used in STVInt
 NBasis=   737 RedAO= T EigKep=  7.03D-04  NBF=   737
 NBsUse=   737 1.00D-06 EigRej= -1.00D+00 NBFU=   737
 Precomputing XC quadrature grid using
 IXCGrd= 4 IRadAn=           5 IRanWt=          -1 IRanGd=           0 AccXCQ= 0.00D+00.
 Generated NRdTot=       0 NPtTot=           0 NUsed=           0 NTot=          32
 NSgBfM=   770   770   770   770   770 MxSgAt=    70 MxSgA2=    70.
 Leave Link  302 at Wed Jan 24 11:02:41 2018, MaxMem=  4294967296 cpu:             135.6 elap:               4.3
 (Enter /share/apps/g16/l303.exe)
 DipDrv:  MaxL=1.
 Leave Link  303 at Wed Jan 24 11:02:42 2018, MaxMem=  4294967296 cpu:              12.6 elap:               0.4
 (Enter /share/apps/g16/l401.exe)
 ExpMin= 1.22D-01 ExpMax= 1.17D+04 ExpMxC= 4.01D+02 IAcc=3 IRadAn=         5 AccDes= 0.00D+00
 Harris functional with IExCor= 4639 and IRadAn=       5 diagonalized for initial guess.
 HarFok:  IExCor= 4639 AccDes= 0.00D+00 IRadAn=         5 IDoV= 1 UseB2=F ITyADJ=14
 ICtDFT=  3500011 ScaDFX=  1.000000  1.000000  1.000000  1.000000
 FoFCou: FMM=F IPFlag=           0 FMFlag=      100000 FMFlg1=        2001
         NFxFlg=           0 DoJE=T BraDBF=F KetDBF=T FulRan=T
         wScrn=  0.000000 ICntrl=       500 IOpCl=  0 I1Cent=   200000004 NGrid=           0
         NMat0=    1 NMatS0=      1 NMatT0=    0 NMatD0=    1 NMtDS0=    0 NMtDT0=    0
 Petite list used in FoFCou.
 Harris En= -1963.85329755259    
 JPrj=0 DoOrth=F DoCkMO=F.
 Leave Link  401 at Wed Jan 24 11:02:54 2018, MaxMem=  4294967296 cpu:             401.5 elap:              12.6
 (Enter /share/apps/g16/l502.exe)
 Integral symmetry usage will be decided dynamically.
 Closed shell SCF:
 Using DIIS extrapolation, IDIIS=  1040.
 NGot=  4294967296 LenX=  4293717438 LenY=  4293108258
 Requested convergence on RMS density matrix=1.00D-08 within  20 cycles.
 Requested convergence on MAX density matrix=1.00D-06.
 Requested convergence on             energy=1.00D-06.
 No special actions if energy rises.
 Fock matrices will be formed incrementally for  20 cycles.
 Integral accuracy reduced to 1.0D-05 until final iterations.

 Cycle   1  Pass 0  IDiag  1:
 FoFJK:  IHMeth= 1 ICntrl=       0 DoSepK=T KAlg= 0 I1Cent=           0 FoldK=F
 IRaf=         1 NMat=       1 IRICut=       1 DoRegI=T DoRafI=F ISym2E= 0 IDoP0=0 IntGTp=1.
 FoFCou: FMM=T IPFlag=           0 FMFlag=      100000 FMFlg1=        2001
         NFxFlg=           0 DoJE=T BraDBF=F KetDBF=F FulRan=T
         wScrn=  0.000000 ICntrl=       500 IOpCl=  0 I1Cent=           0 NGrid=           0
         NMat0=    1 NMatS0=      1 NMatT0=    0 NMatD0=    1 NMtDS0=    0 NMtDT0=    0
 Symmetry not used in FoFCou.
 FMM levels:  10  Number of levels for PrismC:   9
 E= -2048.28793050165    
 DIIS: error= 2.22D-02 at cycle   1 NSaved=   1.
 NSaved= 1 IEnMin= 1 EnMin= -2048.28793050165     IErMin= 1 ErrMin= 2.22D-02
 ErrMax= 2.22D-02  0.00D+00 EMaxC= 1.00D-01 BMatC= 8.31D-01 BMatP= 8.31D-01
 IDIUse=3 WtCom= 7.78D-01 WtEn= 2.22D-01
 Coeff-Com:  0.100D+01
 Coeff-En:   0.100D+01
 Coeff:      0.100D+01
 Gap=     0.256 Goal=   None    Shift=    0.000
 GapD=    0.256 DampG=1.000 DampE=0.500 DampFc=0.5000 IDamp=-1.
 Damping current iteration by 5.00D-01
 RMSDP=1.56D-03 MaxDP=1.32D-01              OVMax= 2.04D-01

 Cycle   2  Pass 0  IDiag  1:
 RMSU=  7.81D-04    CP:  9.98D-01
 E= -2048.48595272540     Delta-E=       -0.198022223743 Rises=F Damp=T
 DIIS: error= 1.25D-02 at cycle   2 NSaved=   2.
 NSaved= 2 IEnMin= 2 EnMin= -2048.48595272540     IErMin= 2 ErrMin= 1.25D-02
 ErrMax= 1.25D-02  0.00D+00 EMaxC= 1.00D-01 BMatC= 1.45D-01 BMatP= 8.31D-01
 IDIUse=3 WtCom= 8.75D-01 WtEn= 1.25D-01
 Coeff-Com: -0.200D+00 0.120D+01
 Coeff-En:   0.000D+00 0.100D+01
 Coeff:     -0.175D+00 0.118D+01
 Gap=     0.354 Goal=   None    Shift=    0.000
 RMSDP=5.78D-04 MaxDP=3.49D-02 DE=-1.98D-01 OVMax= 1.57D-01

 Cycle   3  Pass 0  IDiag  1:
 RMSU=  5.65D-04    CP:  9.94D-01  1.14D+00
 E= -2048.66746535338     Delta-E=       -0.181512627987 Rises=F Damp=F
 DIIS: error= 8.15D-03 at cycle   3 NSaved=   3.
 NSaved= 3 IEnMin= 3 EnMin= -2048.66746535338     IErMin= 3 ErrMin= 8.15D-03
 ErrMax= 8.15D-03  0.00D+00 EMaxC= 1.00D-01 BMatC= 6.02D-02 BMatP= 1.45D-01
 IDIUse=3 WtCom= 9.18D-01 WtEn= 8.15D-02
 Coeff-Com: -0.230D+00 0.542D+00 0.688D+00
 Coeff-En:   0.000D+00 0.000D+00 0.100D+01
 Coeff:     -0.211D+00 0.498D+00 0.713D+00
 Gap=     0.274 Goal=   None    Shift=    0.000
 RMSDP=3.45D-04 MaxDP=3.48D-02 DE=-1.82D-01 OVMax= 7.08D-02

 Cycle   4  Pass 0  IDiag  1:
 RMSU=  2.00D-04    CP:  9.94D-01  1.42D+00  6.82D-01
 E= -2048.71264312936     Delta-E=       -0.045177775979 Rises=F Damp=F
 DIIS: error= 2.59D-03 at cycle   4 NSaved=   4.
 NSaved= 4 IEnMin= 4 EnMin= -2048.71264312936     IErMin= 4 ErrMin= 2.59D-03
 ErrMax= 2.59D-03  0.00D+00 EMaxC= 1.00D-01 BMatC= 8.97D-03 BMatP= 6.02D-02
 IDIUse=3 WtCom= 9.74D-01 WtEn= 2.59D-02
 Coeff-Com: -0.949D-01 0.184D+00 0.383D+00 0.528D+00
 Coeff-En:   0.000D+00 0.000D+00 0.658D-01 0.934D+00
 Coeff:     -0.924D-01 0.179D+00 0.375D+00 0.539D+00
 Gap=     0.279 Goal=   None    Shift=    0.000
 RMSDP=1.25D-04 MaxDP=1.28D-02 DE=-4.52D-02 OVMax= 1.41D-02

 Cycle   5  Pass 0  IDiag  1:
 RMSU=  6.16D-05    CP:  9.94D-01  1.39D+00  8.13D-01  6.16D-01
 E= -2048.71993412994     Delta-E=       -0.007291000577 Rises=F Damp=F
 DIIS: error= 6.16D-04 at cycle   5 NSaved=   5.
 NSaved= 5 IEnMin= 5 EnMin= -2048.71993412994     IErMin= 5 ErrMin= 6.16D-04
 ErrMax= 6.16D-04  0.00D+00 EMaxC= 1.00D-01 BMatC= 2.84D-04 BMatP= 8.97D-03
 IDIUse=3 WtCom= 9.94D-01 WtEn= 6.16D-03
 Coeff-Com: -0.237D-01 0.404D-01 0.121D+00 0.237D+00 0.626D+00
 Coeff-En:   0.000D+00 0.000D+00 0.000D+00 0.000D+00 0.100D+01
 Coeff:     -0.235D-01 0.401D-01 0.120D+00 0.235D+00 0.628D+00
 Gap=     0.279 Goal=   None    Shift=    0.000
 RMSDP=2.52D-05 MaxDP=2.19D-03 DE=-7.29D-03 OVMax= 3.39D-03

 Failed to achieve initial convergence to 1.0D-08 in  6 cycles.
 Switch to full accuracy anyway.
 Cycle   6  Pass 1  IDiag  1:
 E= -2048.72021084190     Delta-E=       -0.000276711965 Rises=F Damp=F
 DIIS: error= 2.71D-04 at cycle   1 NSaved=   1.
 NSaved= 1 IEnMin= 1 EnMin= -2048.72021084190     IErMin= 1 ErrMin= 2.71D-04
 ErrMax= 2.71D-04  0.00D+00 EMaxC= 1.00D-01 BMatC= 7.42D-05 BMatP= 7.42D-05
 IDIUse=3 WtCom= 9.97D-01 WtEn= 2.71D-03
 Coeff-Com:  0.100D+01
 Coeff-En:   0.100D+01
 Coeff:      0.100D+01
 Gap=     0.279 Goal=   None    Shift=    0.000
 RMSDP=2.52D-05 MaxDP=2.19D-03 DE=-2.77D-04 OVMax= 2.39D-03

 Cycle   7  Pass 1  IDiag  1:
 RMSU=  1.10D-04    CP:  1.00D+00
 E= -2048.72026542669     Delta-E=       -0.000054584782 Rises=F Damp=F
 DIIS: error= 2.90D-04 at cycle   2 NSaved=   2.
 NSaved= 2 IEnMin= 2 EnMin= -2048.72026542669     IErMin= 1 ErrMin= 2.71D-04
 ErrMax= 2.90D-04  0.00D+00 EMaxC= 1.00D-01 BMatC= 4.28D-05 BMatP= 7.42D-05
 IDIUse=3 WtCom= 9.97D-01 WtEn= 2.90D-03
 Coeff-Com:  0.408D+00 0.592D+00
 Coeff-En:   0.000D+00 0.100D+01
 Coeff:      0.407D+00 0.593D+00
 Gap=     0.279 Goal=   None    Shift=    0.000
 RMSDP=1.09D-05 MaxDP=1.31D-03 DE=-5.46D-05 OVMax= 1.55D-03

 Cycle   8  Pass 1  IDiag  1:
 RMSU=  1.05D-05    CP:  1.00D+00  1.03D+00
 E= -2048.72029556618     Delta-E=       -0.000030139498 Rises=F Damp=F
 DIIS: error= 1.27D-04 at cycle   3 NSaved=   3.
 NSaved= 3 IEnMin= 3 EnMin= -2048.72029556618     IErMin= 3 ErrMin= 1.27D-04
 ErrMax= 1.27D-04  0.00D+00 EMaxC= 1.00D-01 BMatC= 1.02D-05 BMatP= 4.28D-05
 IDIUse=3 WtCom= 9.99D-01 WtEn= 1.27D-03
 Coeff-Com: -0.188D-01 0.315D+00 0.703D+00
 Coeff-En:   0.000D+00 0.135D+00 0.865D+00
 Coeff:     -0.188D-01 0.315D+00 0.704D+00
 Gap=     0.280 Goal=   None    Shift=    0.000
 RMSDP=5.47D-06 MaxDP=5.13D-04 DE=-3.01D-05 OVMax= 5.62D-04

 Cycle   9  Pass 1  IDiag  1:
 RMSU=  3.77D-06    CP:  1.00D+00  1.05D+00  7.64D-01
 E= -2048.72030475103     Delta-E=       -0.000009184848 Rises=F Damp=F
 DIIS: error= 3.91D-05 at cycle   4 NSaved=   4.
 NSaved= 4 IEnMin= 4 EnMin= -2048.72030475103     IErMin= 4 ErrMin= 3.91D-05
 ErrMax= 3.91D-05  0.00D+00 EMaxC= 1.00D-01 BMatC= 4.93D-07 BMatP= 1.02D-05
 IDIUse=1 WtCom= 1.00D+00 WtEn= 0.00D+00
 Coeff-Com: -0.304D-01 0.881D-01 0.261D+00 0.681D+00
 Coeff:     -0.304D-01 0.881D-01 0.261D+00 0.681D+00
 Gap=     0.279 Goal=   None    Shift=    0.000
 RMSDP=1.41D-06 MaxDP=1.51D-04 DE=-9.18D-06 OVMax= 5.14D-04

 Cycle  10  Pass 1  IDiag  1:
 RMSU=  1.27D-06    CP:  1.00D+00  1.06D+00  7.97D-01  1.10D+00
 E= -2048.72030555509     Delta-E=       -0.000000804062 Rises=F Damp=F
 DIIS: error= 1.76D-05 at cycle   5 NSaved=   5.
 NSaved= 5 IEnMin= 5 EnMin= -2048.72030555509     IErMin= 5 ErrMin= 1.76D-05
 ErrMax= 1.76D-05  0.00D+00 EMaxC= 1.00D-01 BMatC= 1.17D-07 BMatP= 4.93D-07
 IDIUse=1 WtCom= 1.00D+00 WtEn= 0.00D+00
 Coeff-Com: -0.287D-02-0.549D-01-0.120D+00 0.204D+00 0.973D+00
 Coeff:     -0.287D-02-0.549D-01-0.120D+00 0.204D+00 0.973D+00
 Gap=     0.279 Goal=   None    Shift=    0.000
 RMSDP=1.17D-06 MaxDP=7.35D-05 DE=-8.04D-07 OVMax= 2.35D-04

 Cycle  11  Pass 1  IDiag  1:
 RMSU=  4.91D-07    CP:  1.00D+00  1.06D+00  8.08D-01  1.37D+00  1.17D+00
 E= -2048.72030580168     Delta-E=       -0.000000246580 Rises=F Damp=F
 DIIS: error= 1.06D-05 at cycle   6 NSaved=   6.
 NSaved= 6 IEnMin= 6 EnMin= -2048.72030580168     IErMin= 6 ErrMin= 1.06D-05
 ErrMax= 1.06D-05  0.00D+00 EMaxC= 1.00D-01 BMatC= 2.70D-08 BMatP= 1.17D-07
 IDIUse=1 WtCom= 1.00D+00 WtEn= 0.00D+00
 Coeff-Com:  0.462D-02-0.452D-01-0.114D+00-0.198D-02 0.517D+00 0.640D+00
 Coeff:      0.462D-02-0.452D-01-0.114D+00-0.198D-02 0.517D+00 0.640D+00
 Gap=     0.279 Goal=   None    Shift=    0.000
 RMSDP=3.70D-07 MaxDP=3.72D-05 DE=-2.47D-07 OVMax= 1.28D-04

 Cycle  12  Pass 1  IDiag  1:
 RMSU=  1.85D-07    CP:  1.00D+00  1.06D+00  8.09D-01  1.44D+00  1.30D+00
                    CP:  9.19D-01
 E= -2048.72030584150     Delta-E=       -0.000000039828 Rises=F Damp=F
 DIIS: error= 1.33D-06 at cycle   7 NSaved=   7.
 NSaved= 7 IEnMin= 7 EnMin= -2048.72030584150     IErMin= 7 ErrMin= 1.33D-06
 ErrMax= 1.33D-06  0.00D+00 EMaxC= 1.00D-01 BMatC= 8.96D-10 BMatP= 2.70D-08
 IDIUse=1 WtCom= 1.00D+00 WtEn= 0.00D+00
 Coeff-Com:  0.131D-02-0.945D-02-0.255D-01-0.674D-02 0.826D-01 0.171D+00
 Coeff-Com:  0.786D+00
 Coeff:      0.131D-02-0.945D-02-0.255D-01-0.674D-02 0.826D-01 0.171D+00
 Coeff:      0.786D+00
 Gap=     0.279 Goal=   None    Shift=    0.000
 RMSDP=7.90D-08 MaxDP=4.86D-06 DE=-3.98D-08 OVMax= 2.05D-05

 Cycle  13  Pass 1  IDiag  1:
 RMSU=  5.16D-08    CP:  1.00D+00  1.06D+00  8.09D-01  1.45D+00  1.31D+00
                    CP:  1.01D+00  1.11D+00
 E= -2048.72030584270     Delta-E=       -0.000000001199 Rises=F Damp=F
 DIIS: error= 6.86D-07 at cycle   8 NSaved=   8.
 NSaved= 8 IEnMin= 8 EnMin= -2048.72030584270     IErMin= 8 ErrMin= 6.86D-07
 ErrMax= 6.86D-07  0.00D+00 EMaxC= 1.00D-01 BMatC= 3.54D-10 BMatP= 8.96D-10
 IDIUse=1 WtCom= 1.00D+00 WtEn= 0.00D+00
 Coeff-Com: -0.656D-03 0.821D-02 0.196D-01-0.175D-02-0.109D+00-0.920D-01
 Coeff-Com:  0.411D+00 0.765D+00
 Coeff:     -0.656D-03 0.821D-02 0.196D-01-0.175D-02-0.109D+00-0.920D-01
 Coeff:      0.411D+00 0.765D+00
 Gap=     0.279 Goal=   None    Shift=    0.000
 RMSDP=5.06D-08 MaxDP=2.97D-06 DE=-1.20D-09 OVMax= 1.18D-05

 Cycle  14  Pass 1  IDiag  1:
 RMSU=  2.88D-08    CP:  1.00D+00  1.06D+00  8.08D-01  1.45D+00  1.32D+00
                    CP:  1.05D+00  1.27D+00  1.03D+00
 E= -2048.72030584382     Delta-E=       -0.000000001116 Rises=F Damp=F
 DIIS: error= 2.49D-07 at cycle   9 NSaved=   9.
 NSaved= 9 IEnMin= 9 EnMin= -2048.72030584382     IErMin= 9 ErrMin= 2.49D-07
 ErrMax= 2.49D-07  0.00D+00 EMaxC= 1.00D-01 BMatC= 3.93D-11 BMatP= 3.54D-10
 IDIUse=1 WtCom= 1.00D+00 WtEn= 0.00D+00
 Coeff-Com: -0.460D-03 0.498D-02 0.122D-01 0.647D-03-0.591D-01-0.624D-01
 Coeff-Com:  0.876D-01 0.334D+00 0.683D+00
 Coeff:     -0.460D-03 0.498D-02 0.122D-01 0.647D-03-0.591D-01-0.624D-01
 Coeff:      0.876D-01 0.334D+00 0.683D+00
 Gap=     0.279 Goal=   None    Shift=    0.000
 RMSDP=1.43D-08 MaxDP=7.82D-07 DE=-1.12D-09 OVMax= 3.46D-06

 Cycle  15  Pass 1  IDiag  1:
 RMSU=  9.58D-09    CP:  1.00D+00  1.06D+00  8.08D-01  1.45D+00  1.32D+00
                    CP:  1.06D+00  1.29D+00  1.18D+00  1.09D+00
 E= -2048.72030584377     Delta-E=        0.000000000052 Rises=F Damp=F
 DIIS: error= 7.39D-08 at cycle  10 NSaved=  10.
 NSaved=10 IEnMin= 9 EnMin= -2048.72030584382     IErMin=10 ErrMin= 7.39D-08
 ErrMax= 7.39D-08  0.00D+00 EMaxC= 1.00D-01 BMatC= 4.64D-12 BMatP= 3.93D-11
 IDIUse=1 WtCom= 1.00D+00 WtEn= 0.00D+00
 Coeff-Com:  0.381D-06-0.257D-03-0.505D-03 0.126D-03 0.478D-02 0.512D-03
 Coeff-Com: -0.535D-01-0.555D-01 0.216D+00 0.888D+00
 Coeff:      0.381D-06-0.257D-03-0.505D-03 0.126D-03 0.478D-02 0.512D-03
 Coeff:     -0.535D-01-0.555D-01 0.216D+00 0.888D+00
 Gap=     0.279 Goal=   None    Shift=    0.000
 RMSDP=7.15D-09 MaxDP=4.04D-07 DE= 5.18D-11 OVMax= 1.58D-06

 SCF Done:  E(RwB97XD) =  -2048.72030584     A.U. after   15 cycles
            NFock= 15  Conv=0.71D-08     -V/T= 2.0053
 KE= 2.037882492029D+03 PE=-1.581843440545D+04 EE= 6.213093330097D+03
 Leave Link  502 at Wed Jan 24 11:14:24 2018, MaxMem=  4294967296 cpu:           21363.2 elap:             690.2
 (Enter /share/apps/g16/l601.exe)
 Copying SCF densities to generalized density rwf, IOpCl= 0 IROHF=0.

 **********************************************************************

            Population analysis using the SCF density.

 **********************************************************************

 Orbital symmetries:
       Occupied  (A) (A) (A) (A) (A) (A) (A) (A) (A) (A) (A) (A)
                 (A) (A) (A) (A) (A) (A) (A) (A) (A) (A) (A) (A)
                 (A) (A) (A) (A) (A) (A) (A) (A) (A) (A) (A) (A)
                 (A) (A) (A) (A) (A) (A) (A) (A) (A) (A) (A) (A)
                 (A) (A) (A) (A) (A) (A) (A) (A) (A) (A) (A) (A)
                 (A) (A) (A) (A) (A) (A) (A) (A) (A) (A) (A) (A)
                 (A) (A) (A) (A) (A) (A) (A) (A) (A) (A) (A) (A)
                 (A) (A) (A) (A) (A) (A) (A) (A) (A) (A) (A) (A)
                 (A) (A) (A) (A) (A) (A) (A) (A) (A) (A) (A) (A)
                 (A) (A) (A) (A) (A) (A) (A) (A) (A) (A) (A) (A)
                 (A) (A) (A) (A) (A) (A) (A) (A) (A) (A) (A) (A)
                 (A) (A) (A) (A) (A) (A) (A) (A) (A) (A) (A) (A)
                 (A) (A) (A) (A) (A) (A) (A) (A) (A) (A)
       Virtual   (A) (A) (A) (A) (A) (A) (A) (A) (A) (A) (A) (A)
                 (A) (A) (A) (A) (A) (A) (A) (A) (A) (A) (A) (A)
                 (A) (A) (A) (A) (A) (A) (A) (A) (A) (A) (A) (A)
                 (A) (A) (A) (A) (A) (A) (A) (A) (A) (A) (A) (A)
                 (A) (A) (A) (A) (A) (A) (A) (A) (A) (A) (A) (A)
                 (A) (A) (A) (A) (A) (A) (A) (A) (A) (A) (A) (A)
                 (A) (A) (A) (A) (A) (A) (A) (A) (A) (A) (A) (A)
                 (A) (A) (A) (A) (A) (A) (A) (A) (A) (A) (A) (A)
                 (A) (A) (A) (A) (A) (A) (A) (A) (A) (A) (A) (A)
                 (A) (A) (A) (A) (A) (A) (A) (A) (A) (A) (A) (A)
                 (A) (A) (A) (A) (A) (A) (A) (A) (A) (A) (A) (A)
                 (A) (A) (A) (A) (A) (A) (A) (A) (A) (A) (A) (A)
                 (A) (A) (A) (A) (A) (A) (A) (A) (A) (A) (A) (A)
                 (A) (A) (A) (A) (A) (A) (A) (A) (A) (A) (A) (A)
                 (A) (A) (A) (A) (A) (A) (A) (A) (A) (A) (A) (A)
                 (A) (A) (A) (A) (A) (A) (A) (A) (A) (A) (A) (A)
                 (A) (A) (A) (A) (A) (A) (A) (A) (A) (A) (A) (A)
                 (A) (A) (A) (A) (A) (A) (A) (A) (A) (A) (A) (A)
                 (A) (A) (A) (A) (A) (A) (A) (A) (A) (A) (A) (A)
                 (A) (A) (A) (A) (A) (A) (A) (A) (A) (A) (A) (A)
                 (A) (A) (A) (A) (A) (A) (A) (A) (A) (A) (A) (A)
                 (A) (A) (A) (A) (A) (A) (A) (A) (A) (A) (A) (A)
                 (A) (A) (A) (A) (A) (A) (A) (A) (A) (A) (A) (A)
                 (A) (A) (A) (A) (A) (A) (A) (A) (A) (A) (A) (A)
                 (A) (A) (A) (A) (A) (A) (A) (A) (A) (A) (A) (A)
                 (A) (A) (A) (A) (A) (A) (A) (A) (A) (A) (A) (A)
                 (A) (A) (A) (A) (A) (A) (A) (A) (A) (A) (A) (A)
                 (A) (A) (A) (A) (A) (A) (A) (A) (A) (A) (A) (A)
                 (A) (A) (A) (A) (A) (A) (A) (A) (A) (A) (A) (A)
                 (A) (A) (A) (A) (A) (A) (A) (A) (A) (A) (A) (A)
                 (A) (A) (A) (A) (A) (A) (A) (A) (A) (A) (A) (A)
                 (A) (A) (A) (A) (A) (A) (A) (A) (A) (A) (A) (A)
                 (A) (A) (A) (A) (A) (A) (A) (A) (A) (A) (A) (A)
                 (A) (A) (A) (A) (A) (A) (A) (A) (A) (A) (A) (A)
                 (A) (A) (A) (A) (A) (A) (A) (A) (A) (A) (A) (A)
                 (A) (A) (A) (A) (A) (A) (A) (A) (A) (A) (A) (A)
                 (A) (A) (A) (A) (A) (A) (A) (A) (A) (A) (A) (A)
                 (A) (A) (A) (A) (A) (A) (A) (A) (A) (A) (A) (A)
                 (A) (A) (A) (A) (A) (A) (A) (A) (A) (A) (A) (A)
                 (A) (A) (A) (A) (A) (A) (A) (A) (A) (A) (A) (A)
                 (A) (A) (A) (A) (A) (A) (A) (A) (A) (A) (A) (A)
                 (A) (A) (A) (A) (A) (A) (A) (A) (A) (A) (A) (A)
                 (A) (A) (A) (A) (A) (A) (A) (A) (A) (A) (A) (A)
                 (A) (A) (A) (A) (A) (A) (A) (A) (A) (A) (A) (A)
                 (A) (A) (A) (A) (A) (A) (A) (A) (A) (A) (A) (A)
                 (A) (A) (A) (A) (A) (A) (A) (A) (A) (A) (A) (A)
                 (A) (A) (A) (A) (A) (A) (A) (A) (A) (A) (A) (A)
                 (A) (A) (A) (A) (A) (A) (A) (A) (A) (A) (A) (A)
                 (A) (A) (A) (A) (A) (A) (A)
 The electronic state is 1-A.
 Alpha  occ. eigenvalues --  -19.25825 -19.21918 -19.20551 -14.52408 -14.52357
 Alpha  occ. eigenvalues --  -14.48655 -14.48622 -14.48016 -14.47775 -14.46690
 Alpha  occ. eigenvalues --  -14.45970 -14.45347 -14.43880 -14.43260 -14.42332
 Alpha  occ. eigenvalues --  -14.41924 -14.41323 -14.40854 -14.40613 -14.40154
 Alpha  occ. eigenvalues --  -10.45418 -10.40792 -10.40039 -10.39585 -10.38066
 Alpha  occ. eigenvalues --  -10.37829 -10.37768 -10.36861 -10.35407 -10.35320
 Alpha  occ. eigenvalues --  -10.34869 -10.34346 -10.34172 -10.33997 -10.33256
 Alpha  occ. eigenvalues --  -10.33121 -10.33041 -10.32249 -10.31101 -10.30893
 Alpha  occ. eigenvalues --  -10.30797 -10.28442 -10.27934  -1.19398  -1.15050
 Alpha  occ. eigenvalues --   -1.13154  -1.12946  -1.11236  -1.10469  -1.09246
 Alpha  occ. eigenvalues --   -1.09029  -1.08368  -1.04950  -1.04546  -1.02396
 Alpha  occ. eigenvalues --   -1.00923  -1.00428  -0.99548  -0.98454  -0.96922
 Alpha  occ. eigenvalues --   -0.96508  -0.96391  -0.92623  -0.90989  -0.87495
 Alpha  occ. eigenvalues --   -0.86016  -0.83942  -0.83853  -0.83421  -0.82371
 Alpha  occ. eigenvalues --   -0.82249  -0.78811  -0.76839  -0.74727  -0.74461
 Alpha  occ. eigenvalues --   -0.73492  -0.73259  -0.72868  -0.71013  -0.70299
 Alpha  occ. eigenvalues --   -0.67222  -0.66685  -0.66441  -0.66279  -0.64349
 Alpha  occ. eigenvalues --   -0.64203  -0.63646  -0.62741  -0.62696  -0.61564
 Alpha  occ. eigenvalues --   -0.60578  -0.60345  -0.60175  -0.59451  -0.59368
 Alpha  occ. eigenvalues --   -0.59313  -0.58170  -0.56891  -0.56436  -0.56254
 Alpha  occ. eigenvalues --   -0.55939  -0.55586  -0.55371  -0.54930  -0.54281
 Alpha  occ. eigenvalues --   -0.54023  -0.53531  -0.53132  -0.52969  -0.52820
 Alpha  occ. eigenvalues --   -0.52468  -0.52209  -0.51707  -0.50698  -0.50155
 Alpha  occ. eigenvalues --   -0.50050  -0.49488  -0.49347  -0.48912  -0.48760
 Alpha  occ. eigenvalues --   -0.48687  -0.48202  -0.48092  -0.47733  -0.47279
 Alpha  occ. eigenvalues --   -0.46837  -0.45791  -0.44913  -0.44196  -0.43835
 Alpha  occ. eigenvalues --   -0.41084  -0.40836  -0.39403  -0.37841  -0.37644
 Alpha  occ. eigenvalues --   -0.37155  -0.37121  -0.36725  -0.35902  -0.34767
 Alpha  occ. eigenvalues --   -0.34209  -0.33551  -0.33416  -0.33086  -0.32546
 Alpha  occ. eigenvalues --   -0.32345  -0.31904  -0.31789  -0.31689  -0.30786
 Alpha  occ. eigenvalues --   -0.30362  -0.29427  -0.25898  -0.24831
 Alpha virt. eigenvalues --    0.03117   0.04300   0.07297   0.08036   0.08486
 Alpha virt. eigenvalues --    0.09427   0.09718   0.10749   0.11187   0.11698
 Alpha virt. eigenvalues --    0.12493   0.14006   0.14380   0.14635   0.15040
 Alpha virt. eigenvalues --    0.15870   0.16012   0.16645   0.16919   0.17799
 Alpha virt. eigenvalues --    0.18445   0.19495   0.19599   0.20512   0.20570
 Alpha virt. eigenvalues --    0.20910   0.21067   0.21277   0.21649   0.21946
 Alpha virt. eigenvalues --    0.22431   0.23353   0.23536   0.23854   0.24022
 Alpha virt. eigenvalues --    0.24185   0.24323   0.24543   0.25031   0.25414
 Alpha virt. eigenvalues --    0.25691   0.26723   0.27264   0.27627   0.28253
 Alpha virt. eigenvalues --    0.29024   0.29241   0.29638   0.30384   0.31080
 Alpha virt. eigenvalues --    0.31419   0.31721   0.32818   0.33106   0.33715
 Alpha virt. eigenvalues --    0.34094   0.34336   0.34779   0.35920   0.36623
 Alpha virt. eigenvalues --    0.36795   0.37135   0.37842   0.39106   0.39774
 Alpha virt. eigenvalues --    0.40112   0.40352   0.40967   0.41409   0.41722
 Alpha virt. eigenvalues --    0.42518   0.42638   0.43466   0.43835   0.44479
 Alpha virt. eigenvalues --    0.44618   0.45217   0.46312   0.47209   0.47695
 Alpha virt. eigenvalues --    0.47873   0.48283   0.48419   0.49403   0.49780
 Alpha virt. eigenvalues --    0.50104   0.50368   0.50638   0.50881   0.51270
 Alpha virt. eigenvalues --    0.51677   0.52136   0.52806   0.53179   0.53459
 Alpha virt. eigenvalues --    0.53611   0.54349   0.55082   0.55313   0.55603
 Alpha virt. eigenvalues --    0.56128   0.56875   0.57126   0.57289   0.58071
 Alpha virt. eigenvalues --    0.58357   0.58583   0.59113   0.59541   0.59901
 Alpha virt. eigenvalues --    0.60131   0.60399   0.60779   0.61116   0.61507
 Alpha virt. eigenvalues --    0.62023   0.62276   0.62793   0.62964   0.63645
 Alpha virt. eigenvalues --    0.64121   0.64493   0.64762   0.64836   0.65612
 Alpha virt. eigenvalues --    0.65767   0.66510   0.66772   0.67089   0.67591
 Alpha virt. eigenvalues --    0.68334   0.68512   0.68991   0.69223   0.69447
 Alpha virt. eigenvalues --    0.69900   0.70051   0.70283   0.70618   0.71151
 Alpha virt. eigenvalues --    0.71583   0.72605   0.72923   0.73566   0.73660
 Alpha virt. eigenvalues --    0.74293   0.74752   0.75336   0.75403   0.75626
 Alpha virt. eigenvalues --    0.75836   0.76177   0.76745   0.76810   0.77108
 Alpha virt. eigenvalues --    0.77438   0.77870   0.78142   0.78601   0.78986
 Alpha virt. eigenvalues --    0.79175   0.79336   0.80625   0.80741   0.81001
 Alpha virt. eigenvalues --    0.81501   0.82136   0.82459   0.83111   0.83181
 Alpha virt. eigenvalues --    0.83657   0.84089   0.84591   0.84758   0.85150
 Alpha virt. eigenvalues --    0.85836   0.86059   0.86661   0.86857   0.87755
 Alpha virt. eigenvalues --    0.87781   0.87909   0.88658   0.89282   0.90021
 Alpha virt. eigenvalues --    0.90518   0.90713   0.91428   0.91867   0.92054
 Alpha virt. eigenvalues --    0.92349   0.92640   0.93253   0.93723   0.94177
 Alpha virt. eigenvalues --    0.94718   0.94914   0.95416   0.96039   0.96563
 Alpha virt. eigenvalues --    0.96735   0.97161   0.97673   0.98351   0.98514
 Alpha virt. eigenvalues --    0.99759   0.99840   1.00571   1.00833   1.01223
 Alpha virt. eigenvalues --    1.01738   1.02687   1.02767   1.03179   1.03462
 Alpha virt. eigenvalues --    1.03480   1.04439   1.04555   1.05469   1.05544
 Alpha virt. eigenvalues --    1.05812   1.06615   1.06942   1.07635   1.08864
 Alpha virt. eigenvalues --    1.09253   1.09531   1.09915   1.10164   1.11090
 Alpha virt. eigenvalues --    1.11507   1.11996   1.12246   1.12633   1.13328
 Alpha virt. eigenvalues --    1.14060   1.14555   1.14836   1.15277   1.15870
 Alpha virt. eigenvalues --    1.15921   1.16407   1.16739   1.17519   1.17822
 Alpha virt. eigenvalues --    1.18476   1.18583   1.19071   1.19606   1.19830
 Alpha virt. eigenvalues --    1.20117   1.20555   1.20784   1.21559   1.21827
 Alpha virt. eigenvalues --    1.22005   1.22370   1.23123   1.23250   1.23840
 Alpha virt. eigenvalues --    1.24289   1.24398   1.24780   1.25120   1.25520
 Alpha virt. eigenvalues --    1.26086   1.26337   1.27380   1.27896   1.28347
 Alpha virt. eigenvalues --    1.28779   1.29844   1.30807   1.31679   1.31919
 Alpha virt. eigenvalues --    1.32437   1.33377   1.33986   1.34553   1.34829
 Alpha virt. eigenvalues --    1.35426   1.36163   1.36368   1.36763   1.38353
 Alpha virt. eigenvalues --    1.38748   1.39348   1.39836   1.40339   1.41296
 Alpha virt. eigenvalues --    1.42154   1.42397   1.44435   1.44841   1.45227
 Alpha virt. eigenvalues --    1.47109   1.47477   1.47789   1.48374   1.49022
 Alpha virt. eigenvalues --    1.49187   1.49654   1.50155   1.50747   1.51320
 Alpha virt. eigenvalues --    1.51591   1.52655   1.53335   1.53765   1.56153
 Alpha virt. eigenvalues --    1.56235   1.56458   1.57070   1.57271   1.57972
 Alpha virt. eigenvalues --    1.58223   1.58691   1.59524   1.60422   1.61197
 Alpha virt. eigenvalues --    1.61772   1.62158   1.63081   1.63317   1.63826
 Alpha virt. eigenvalues --    1.64025   1.65355   1.65768   1.66135   1.66291
 Alpha virt. eigenvalues --    1.67120   1.68225   1.68479   1.68966   1.69403
 Alpha virt. eigenvalues --    1.69992   1.70729   1.70910   1.71421   1.71624
 Alpha virt. eigenvalues --    1.72043   1.72435   1.72524   1.72974   1.73380
 Alpha virt. eigenvalues --    1.74098   1.74476   1.74730   1.75272   1.75731
 Alpha virt. eigenvalues --    1.76022   1.76318   1.76977   1.77170   1.77721
 Alpha virt. eigenvalues --    1.78135   1.78262   1.78414   1.78846   1.79585
 Alpha virt. eigenvalues --    1.79996   1.80212   1.80300   1.80562   1.80714
 Alpha virt. eigenvalues --    1.81053   1.81187   1.81439   1.82108   1.82498
 Alpha virt. eigenvalues --    1.82914   1.83302   1.83947   1.84183   1.84557
 Alpha virt. eigenvalues --    1.84601   1.86175   1.86954   1.87024   1.87630
 Alpha virt. eigenvalues --    1.87750   1.88283   1.88858   1.89289   1.89584
 Alpha virt. eigenvalues --    1.90062   1.90154   1.90661   1.90992   1.92035
 Alpha virt. eigenvalues --    1.93047   1.93212   1.93323   1.93668   1.94810
 Alpha virt. eigenvalues --    1.95120   1.95508   1.96016   1.97411   1.97645
 Alpha virt. eigenvalues --    1.98616   1.99307   1.99906   2.01224   2.01254
 Alpha virt. eigenvalues --    2.02059   2.02412   2.02775   2.03514   2.04663
 Alpha virt. eigenvalues --    2.05345   2.05773   2.06104   2.06658   2.07358
 Alpha virt. eigenvalues --    2.08223   2.08498   2.08696   2.09099   2.09864
 Alpha virt. eigenvalues --    2.10571   2.10615   2.11360   2.12591   2.13448
 Alpha virt. eigenvalues --    2.14178   2.14460   2.14970   2.16165   2.17531
 Alpha virt. eigenvalues --    2.18590   2.19735   2.20194   2.21269   2.21399
 Alpha virt. eigenvalues --    2.21628   2.21829   2.22338   2.23238   2.24006
 Alpha virt. eigenvalues --    2.24556   2.24911   2.25747   2.26359   2.27150
 Alpha virt. eigenvalues --    2.27419   2.28131   2.29176   2.29729   2.29878
 Alpha virt. eigenvalues --    2.30395   2.30802   2.31710   2.32109   2.32957
 Alpha virt. eigenvalues --    2.33071   2.34092   2.34552   2.34697   2.34932
 Alpha virt. eigenvalues --    2.35492   2.36226   2.36668   2.37404   2.37768
 Alpha virt. eigenvalues --    2.38263   2.39303   2.39862   2.40997   2.41258
 Alpha virt. eigenvalues --    2.41783   2.42578   2.43448   2.43620   2.44155
 Alpha virt. eigenvalues --    2.45273   2.45911   2.46106   2.46475   2.47056
 Alpha virt. eigenvalues --    2.47760   2.47840   2.50161   2.50558   2.52200
 Alpha virt. eigenvalues --    2.53117   2.53670   2.54267   2.55502   2.55946
 Alpha virt. eigenvalues --    2.56655   2.57154   2.58504   2.58934   2.59872
 Alpha virt. eigenvalues --    2.61005   2.61509   2.62128   2.62198   2.63658
 Alpha virt. eigenvalues --    2.64859   2.65368   2.65664   2.65850   2.66053
 Alpha virt. eigenvalues --    2.66809   2.68579   2.68675   2.69108   2.69788
 Alpha virt. eigenvalues --    2.69993   2.70899   2.71149   2.71562   2.72061
 Alpha virt. eigenvalues --    2.73521   2.73895   2.74857   2.75190   2.75858
 Alpha virt. eigenvalues --    2.78050   2.78565   2.78745   2.79562   2.79663
 Alpha virt. eigenvalues --    2.80164   2.80558   2.80811   2.81075   2.81803
 Alpha virt. eigenvalues --    2.82047   2.82315   2.82962   2.83752   2.84408
 Alpha virt. eigenvalues --    2.84901   2.85598   2.86532   2.86739   2.87258
 Alpha virt. eigenvalues --    2.88149   2.88915   2.89576   2.92297   2.94309
 Alpha virt. eigenvalues --    2.94590   2.95706   2.97008   2.98468   2.99267
 Alpha virt. eigenvalues --    3.00625   3.02199   3.02568   3.05033   3.07041
 Alpha virt. eigenvalues --    3.07758   3.10025   3.10512   3.13686   3.14621
 Alpha virt. eigenvalues --    3.15385   3.16201   3.16698   3.18113   3.21178
 Alpha virt. eigenvalues --    3.21601   3.22606   3.23665   3.24091   3.26619
 Alpha virt. eigenvalues --    3.45426   3.47382   3.48368   3.49788   3.50345
 Alpha virt. eigenvalues --    3.53531   3.54164   3.56501   3.57999   3.60174
 Alpha virt. eigenvalues --    3.63532   3.70666   3.74732
          Condensed to atoms (all electrons):
 Mulliken charges:
               1
     1  N   -0.313089
     2  C    0.181291
     3  C    0.043634
     4  N   -0.260816
     5  C    0.135303
     6  H    0.026332
     7  N   -0.288750
     8  C    0.140884
     9  H    0.007790
    10  N   -0.291683
    11  C    0.251445
    12  C    0.119427
    13  N   -0.057915
    14  H    0.108684
    15  H    0.085011
    16  H    0.024740
    17  H    0.032113
    18  H    0.027003
    19  N   -0.306900
    20  C    0.240657
    21  C    0.180284
    22  N   -0.072189
    23  H    0.110141
    24  H    0.113273
    25  N   -0.299042
    26  C    0.204235
    27  N   -0.133632
    28  H    0.122184
    29  C    0.160362
    30  O   -0.319873
    31  C    0.012496
    32  N   -0.224091
    33  C    0.127273
    34  H    0.023412
    35  H    0.029675
    36  H    0.027517
    37  H    0.024175
    38  H    0.062627
    39  H    0.057668
    40  H    0.071235
    41  H    0.030613
    42  C   -0.112052
    43  O   -0.263885
    44  C    0.171223
    45  H    0.132964
    46  N   -0.126473
    47  O   -0.344350
    48  C    0.346699
    49  H    0.047368
    50  C    0.166819
    51  C    0.040442
    52  N   -0.288096
    53  H    0.038872
    54  H    0.026428
    55  H    0.030080
    56  H    0.123525
    57  H    0.115867
    58  N   -0.064898
    59  C    0.081440
    60  C    0.241607
    61  N   -0.283288
    62  H    0.036477
    63  C    0.171206
    64  N   -0.299809
    65  H    0.034691
    66  C    0.134278
    67  N   -0.264800
    68  C    0.035760
    69  C    0.173587
    70  N   -0.315187
 Sum of Mulliken charges =  -0.00000
 Mulliken charges with hydrogens summed into heavy atoms:
               1
     1  N   -0.313089
     2  C    0.265148
     3  C    0.043634
     4  N   -0.260816
     5  C    0.161636
     7  N   -0.288750
     8  C    0.148673
    10  N   -0.291683
    11  C    0.251445
    12  C    0.119427
    13  N    0.135780
    19  N   -0.306900
    20  C    0.240657
    21  C    0.261651
    22  N    0.151226
    25  N   -0.299042
    26  C    0.204235
    27  N   -0.011448
    29  C    0.160362
    30  O   -0.319873
    31  C    0.012496
    32  N   -0.224091
    33  C    0.150685
    42  C   -0.081439
    43  O   -0.263885
    44  C    0.171223
    46  N    0.006490
    47  O   -0.344350
    48  C    0.346699
    50  C    0.214187
    51  C    0.231972
    52  N   -0.288096
    58  N    0.174493
    59  C    0.081440
    60  C    0.241607
    61  N   -0.283288
    63  C    0.207684
    64  N   -0.299809
    66  C    0.168970
    67  N   -0.264800
    68  C    0.035760
    69  C    0.268967
    70  N   -0.315187
 Electronic spatial extent (au):  <R**2>=          22113.9906
 Charge=              0.0000 electrons
 Dipole moment (field-independent basis, Debye):
    X=              8.1923    Y=              5.6694    Z=              2.7974  Tot=             10.3480
 Quadrupole moment (field-independent basis, Debye-Ang):
   XX=           -154.5317   YY=           -217.5432   ZZ=           -255.1247
   XY=             -0.8630   XZ=              2.6800   YZ=             -9.9368
 Traceless Quadrupole moment (field-independent basis, Debye-Ang):
   XX=             54.5348   YY=             -8.4767   ZZ=            -46.0581
   XY=             -0.8630   XZ=              2.6800   YZ=             -9.9368
 Octapole moment (field-independent basis, Debye-Ang**2):
  XXX=            -51.9873  YYY=            136.8340  ZZZ=              2.0225  XYY=             87.1018
  XXY=            -21.9469  XXZ=            -37.2635  XZZ=             31.1690  YZZ=             23.0893
  YYZ=             52.2322  XYZ=             57.6538
 Hexadecapole moment (field-independent basis, Debye-Ang**3):
 XXXX=         -14465.8223 YYYY=          -6437.1673 ZZZZ=          -3473.5617 XXXY=            489.9164
 XXXZ=           -129.4918 YYYX=            -64.2640 YYYZ=           -103.4303 ZZZX=              4.6279
 ZZZY=            -11.1667 XXYY=          -3334.7245 XXZZ=          -3687.3724 YYZZ=          -1685.7790
 XXYZ=             70.5450 YYXZ=            222.0523 ZZXY=             -6.0639
 N-N= 5.518738277480D+03 E-N=-1.581843439796D+04  KE= 2.037882492029D+03
 No NMR shielding tensors so no spin-rotation constants.
 Leave Link  601 at Wed Jan 24 11:14:26 2018, MaxMem=  4294967296 cpu:              49.6 elap:               1.7
 (Enter /share/apps/g16/l9999.exe)
 1\1\GINC-COMPUTE-0-3\SP\RwB97XD\CC-pVDZ\C23H27N17O3\SATYA\24-Jan-2018\
 0\\#p wb97xd/cc-pvdz sp scf=(maxcycles=20)\\Base pair stacking\\0,1\N,
 0,5.52232,1.4072,-7.45494\C,0,6.76794,2.18136,-7.61963\C,0,3.42902,0.8
 3587,-7.09578\N,0,4.11153,-0.34118,-7.36681\C,0,5.34535,0.05014,-7.572
 35\H,0,6.17445,-0.6151,-7.81526\N,0,1.72858,2.38569,-6.57663\C,0,2.670
 14,3.33121,-6.66044\H,0,2.32586,4.34793,-6.47597\N,0,3.96703,3.20995,-
 6.93661\C,0,4.28542,1.92193,-7.14648\C,0,2.08076,1.09954,-6.79313\N,0,
 1.1423,0.15427,-6.70992\H,0,1.35787,-0.81085,-6.86252\H,0,0.19228,0.37
 845,-6.49233\H,0,7.12469,2.04862,-8.54445\H,0,6.58003,3.15194,-7.47202
 \H,0,7.44672,1.87008,-6.95453\N,0,2.67925,4.54989,-3.39157\C,0,1.47193
 ,3.90728,-3.25933\C,0,2.86857,6.01419,-3.41785\N,0,-1.97893,4.03537,-2
 .8893\H,0,-2.7363,3.38839,-2.80535\H,0,-2.2092,5.00865,-2.86852\N,0,0.
 26544,4.5008,-3.13219\C,0,-0.71115,3.61756,-3.02374\N,0,-0.52275,2.256
 75,-3.03844\H,0,-1.32822,1.65653,-2.94951\C,0,0.70963,1.62407,-3.1682\
 O,0,0.7703,0.38833,-3.1697\C,0,1.76846,2.56,-3.2857\N,0,3.13445,2.3607
 9,-3.43157\C,0,3.63265,3.56603,-3.48995\H,0,4.69271,3.79487,-3.60471\H
 ,0,3.28764,6.28227,-4.28463\H,0,1.98159,6.46454,-3.32443\H,0,3.46188,6
 .28886,-2.66197\H,0,-5.79077,-0.77488,-3.11291\H,0,-5.48348,-1.02139,-
 1.39551\H,0,-4.89259,0.43509,-2.19606\H,0,-2.60606,-4.37637,-3.29579\C
 ,0,-2.62373,-3.29796,-3.13784\O,0,-0.29821,-3.0194,-3.51394\C,0,-1.406
 34,-2.55402,-3.24888\H,0,-0.70115,-0.63858,-3.10011\N,0,-1.53977,-1.19
 767,-3.03032\O,0,-2.71116,0.68765,-2.55012\C,0,-2.69261,-0.51784,-2.72
 647\H,0,-4.7165,-3.18273,-2.74686\C,0,-3.76407,-2.66306,-2.84268\C,0,-
 5.08042,-0.62175,-2.31415\N,0,-3.82431,-1.30425,-2.63686\H,0,-5.6444,4
 .80062,-4.99882\H,0,-4.18244,4.78715,-4.27453\H,0,-5.50435,4.29446,-3.
 45363\H,0,-2.11364,-1.54332,-6.53298\H,0,-3.80697,-1.45017,-6.34842\N,
 0,-2.91546,-1.00063,-6.28254\C,0,-2.802,0.2663,-5.87856\C,0,-3.62068,2
 .36672,-5.11718\N,0,-2.41061,2.94459,-5.03833\H,0,-0.44284,2.47732,-5.
 37021\C,0,-1.45944,2.08801,-5.40501\N,0,-1.57106,0.8187,-5.80994\H,0,-
 6.83808,2.13586,-4.89988\C,0,-5.77387,1.95639,-5.05542\N,0,-5.26221,0.
 82408,-5.47227\C,0,-3.89764,1.07061,-5.51583\C,0,-5.05991,4.3143,-4.34
 931\N,0,-4.83757,2.9337,-4.82103\\Version=EM64L-G16RevA.03\State=1-A\H
 F=-2048.7203058\RMSD=7.146e-09\Dipole=-3.7495192,1.5484806,0.3437056\Q
 uadrupole=31.9741862,-6.6477691,-25.3264171,14.6872348,-18.7434795,8.1
 27604\PG=C01 [X(C23H27N17O3)]\\@


 THE ONLY TROUBLE WITH A SURE THING IS THE UNCERTAINTY.
     -- FROM A TEABAG (BELONGING TO W.H.?)
 Job cpu time:       0 days  6 hours  6 minutes 18.8 seconds.
 Elapsed time:       0 days  0 hours 11 minutes 49.8 seconds.
 File lengths (MBytes):  RWF=    298 Int=      0 D2E=      0 Chk=     33 Scr=      1
 Normal termination of Gaussian 16 at Wed Jan 24 11:14:27 2018.
