 Entering Gaussian System, Link 0=g16
 Input=str50.5.-2.0.com
 Output=str50.5.-2.0.log
 Initial command:
 /share/apps/g16/l1.exe "/state/partition1/scr/Gau-15137.inp" -scrdir="/state/partition1/scr/"
 Entering Link 1 = /share/apps/g16/l1.exe PID=     15138.
  
 Copyright (c) 1988,1990,1992,1993,1995,1998,2003,2009,2016,
            Gaussian, Inc.  All Rights Reserved.
  
 This is part of the Gaussian(R) 16 program.  It is based on
 the Gaussian(R) 09 system (copyright 2009, Gaussian, Inc.),
 the Gaussian(R) 03 system (copyright 2003, Gaussian, Inc.),
 the Gaussian(R) 98 system (copyright 1998, Gaussian, Inc.),
 the Gaussian(R) 94 system (copyright 1995, Gaussian, Inc.),
 the Gaussian 92(TM) system (copyright 1992, Gaussian, Inc.),
 the Gaussian 90(TM) system (copyright 1990, Gaussian, Inc.),
 the Gaussian 88(TM) system (copyright 1988, Gaussian, Inc.),
 the Gaussian 86(TM) system (copyright 1986, Carnegie Mellon
 University), and the Gaussian 82(TM) system (copyright 1983,
 Carnegie Mellon University). Gaussian is a federally registered
 trademark of Gaussian, Inc.
  
 This software contains proprietary and confidential information,
 including trade secrets, belonging to Gaussian, Inc.
  
 This software is provided under written license and may be
 used, copied, transmitted, or stored only in accord with that
 written license.
  
 The following legend is applicable only to US Government
 contracts under FAR:
  
                    RESTRICTED RIGHTS LEGEND
  
 Use, reproduction and disclosure by the US Government is
 subject to restrictions as set forth in subparagraphs (a)
 and (c) of the Commercial Computer Software - Restricted
 Rights clause in FAR 52.227-19.
  
 Gaussian, Inc.
 340 Quinnipiac St., Bldg. 40, Wallingford CT 06492
  
  
 ---------------------------------------------------------------
 Warning -- This program may not be used in any manner that
 competes with the business of Gaussian, Inc. or will provide
 assistance to any competitor of Gaussian, Inc.  The licensee
 of this program is prohibited from giving any competitor of
 Gaussian, Inc. access to this program.  By using this program,
 the user acknowledges that Gaussian, Inc. is engaged in the
 business of creating and licensing software in the field of
 computational chemistry and represents and warrants to the
 licensee that it is not a competitor of Gaussian, Inc. and that
 it will not use this program in any manner prohibited above.
 ---------------------------------------------------------------
  

 Cite this work as:
 Gaussian 16, Revision A.03,
 M. J. Frisch, G. W. Trucks, H. B. Schlegel, G. E. Scuseria, 
 M. A. Robb, J. R. Cheeseman, G. Scalmani, V. Barone, 
 G. A. Petersson, H. Nakatsuji, X. Li, M. Caricato, A. V. Marenich, 
 J. Bloino, B. G. Janesko, R. Gomperts, B. Mennucci, H. P. Hratchian, 
 J. V. Ortiz, A. F. Izmaylov, J. L. Sonnenberg, D. Williams-Young, 
 F. Ding, F. Lipparini, F. Egidi, J. Goings, B. Peng, A. Petrone, 
 T. Henderson, D. Ranasinghe, V. G. Zakrzewski, J. Gao, N. Rega, 
 G. Zheng, W. Liang, M. Hada, M. Ehara, K. Toyota, R. Fukuda, 
 J. Hasegawa, M. Ishida, T. Nakajima, Y. Honda, O. Kitao, H. Nakai, 
 T. Vreven, K. Throssell, J. A. Montgomery, Jr., J. E. Peralta, 
 F. Ogliaro, M. J. Bearpark, J. J. Heyd, E. N. Brothers, K. N. Kudin, 
 V. N. Staroverov, T. A. Keith, R. Kobayashi, J. Normand, 
 K. Raghavachari, A. P. Rendell, J. C. Burant, S. S. Iyengar, 
 J. Tomasi, M. Cossi, J. M. Millam, M. Klene, C. Adamo, R. Cammi, 
 J. W. Ochterski, R. L. Martin, K. Morokuma, O. Farkas, 
 J. B. Foresman, and D. J. Fox, Gaussian, Inc., Wallingford CT, 2016.
 
 ******************************************
 Gaussian 16:  EM64L-G16RevA.03 25-Dec-2016
                25-Jan-2018 
 ******************************************
 %nprocshared=32
 Will use up to   32 processors via shared memory.
 %mem=32GB
 %chk=allatoms_t.chk
 ---------------------------------------
 #p wb97xd/cc-pvdz sp scf=(maxcycles=20)
 ---------------------------------------
 1/38=1,172=1/1;
 2/12=2,17=6,18=5,40=1/2;
 3/5=16,11=2,25=1,30=1,74=-58/1,2,3;
 4//1;
 5/5=2,7=20,38=5/2;
 6/7=2,8=2,9=2,10=2,28=1/1;
 99/5=1,9=1/99;
 Leave Link    1 at Thu Jan 25 04:00:34 2018, MaxMem=  4294967296 cpu:               2.7 elap:               0.1
 (Enter /share/apps/g16/l101.exe)
 ------------------
 Base pair stacking
 ------------------
 Symbolic Z-matrix:
 Charge =  0 Multiplicity = 1
 N                     9.06051   2.45925  -5.75152 
 C                     10.32979   3.209    -5.82084 
 C                     6.9297    1.91601  -5.79464 
 N                     7.62023   0.75395  -5.48237 
 C                     8.87632   1.12774  -5.46889 
 H                     9.71752   0.46717  -5.2568 
 N                     5.20502   3.45298  -6.2702 
 C                     6.16558   4.37368  -6.40141 
 H                     5.81857   5.37534  -6.65145 
 N                     7.48424   4.24343  -6.27074 
 C                     7.80409   2.97548  -5.96344 
 C                     5.55924   2.18659  -5.96059 
 N                     4.60182   1.26612  -5.82918 
 H                     4.81809   0.31624  -5.60076 
 H                     3.63627   1.49449  -5.9545 
 H                     10.91679   2.80896  -6.52481 
 H                     10.14168   4.16401  -6.04823 
 H                     10.79463   3.164    -4.93659 
 N                     3.74634   5.90189  -3.16396 
 C                     2.53308   5.26007  -3.22811 
 C                     3.94946   7.35868  -3.29515 
 N                    -0.91623   5.37979  -3.615 
 H                    -1.67963   4.73463  -3.62998 
 H                    -1.13729   6.34728  -3.74075 
 N                     1.33231   5.8477   -3.42022 
 C                     0.34748   4.96706  -3.43446 
 N                     0.52302   3.61404  -3.27309 
 H                    -0.28804   3.01528  -3.29812 
 C                     1.7493    2.98754  -3.07412 
 O                     1.7983    1.75862  -2.93954 
 C                     2.81686   3.92075  -3.05644 
 N                     4.18084   3.72566  -2.88791 
 C                     4.69036   4.92548  -2.95882 
 H                     5.75248   5.15544  -2.86775 
 H                     4.54572   7.54484  -4.07529 
 H                     3.06683   7.80462  -3.43783 
 H                     4.37062   7.71458  -2.46162 
 H                    -4.63421   0.5224   -4.16361 
 H                    -4.70166   0.45141  -2.40433 
 H                    -3.94144   1.8288   -3.20197 
 H                    -1.51456  -3.03817  -3.3053 
 C                    -1.5562   -1.94973  -3.26298 
 O                     0.79838  -1.67992  -3.16181 
 C                    -0.33674  -1.20485  -3.18617 
 H                     0.33701   0.72482  -3.08247 
 N                    -0.502     0.16465  -3.13725 
 O                    -1.73255   2.07307  -3.10742 
 C                    -1.68723   0.85636  -3.15478 
 H                    -3.68316  -1.82325  -3.33943 
 C                    -2.72775  -1.30342  -3.28182 
 C                    -4.10888   0.76313  -3.25139 
 N                    -2.81877   0.06822  -3.22996 
 H                    -2.23623   5.8289   -7.56061 
 H                    -1.02326   6.1283   -6.51124 
 H                    -2.53253   5.8495   -5.95587 
 H                     1.36289  -0.46587  -5.98333 
 H                    -0.31384  -0.41352  -6.29306 
 N                     0.54185   0.08265  -6.14198 
 C                     0.58505   1.41652  -6.15185 
 C                    -0.33723   3.60088  -6.35103 
 N                     0.82598   4.24041  -6.14519 
 H                     2.79397   3.80244  -5.77663 
 C                     1.8115    3.36618  -5.95187 
 N                     1.77025   2.02985  -5.94161 
 H                    -3.50094   3.27193  -6.92971 
 C                    -2.4406    3.11201  -6.73215 
 N                    -1.87399   1.93634  -6.61201 
 C                    -0.54025   2.23196  -6.37015 
 C                    -1.86382   5.60802  -6.65921 
 N                    -1.56935   4.16376  -6.58563 
 
 ITRead=  0  0  0  0  0  0  0  0  0  0  0  0  0  0  0  0  0  0  0  0
 ITRead=  0  0  0  0  0  0  0  0  0  0  0  0  0  0  0  0  0  0  0  0
 ITRead=  0  0  0  0  0  0  0  0  0  0  0  0  0  0  0  0  0  0  0  0
 ITRead=  0  0  0  0  0  0  0  0  0  0
 MicOpt= -1 -1 -1 -1 -1 -1 -1 -1 -1 -1 -1 -1 -1 -1 -1 -1 -1 -1 -1 -1
 MicOpt= -1 -1 -1 -1 -1 -1 -1 -1 -1 -1 -1 -1 -1 -1 -1 -1 -1 -1 -1 -1
 MicOpt= -1 -1 -1 -1 -1 -1 -1 -1 -1 -1 -1 -1 -1 -1 -1 -1 -1 -1 -1 -1
 MicOpt= -1 -1 -1 -1 -1 -1 -1 -1 -1 -1
 NAtoms=     70 NQM=       70 NQMF=       0 NMMI=      0 NMMIF=      0
                NMic=       0 NMicF=      0.
                    Isotopes and Nuclear Properties:
 (Nuclear quadrupole moments (NQMom) in fm**2, nuclear magnetic moments (NMagM)
  in nuclear magnetons)

  Atom         1           2           3           4           5           6           7           8           9          10
 IAtWgt=          14          12          12          14          12           1          14          12           1          14
 AtmWgt=  14.0030740  12.0000000  12.0000000  14.0030740  12.0000000   1.0078250  14.0030740  12.0000000   1.0078250  14.0030740
 NucSpn=           2           0           0           2           0           1           2           0           1           2
 AtZEff=  -0.0000000  -0.0000000  -0.0000000  -0.0000000  -0.0000000  -0.0000000  -0.0000000  -0.0000000  -0.0000000  -0.0000000
 NQMom=    2.0440000   0.0000000   0.0000000   2.0440000   0.0000000   0.0000000   2.0440000   0.0000000   0.0000000   2.0440000
 NMagM=    0.4037610   0.0000000   0.0000000   0.4037610   0.0000000   2.7928460   0.4037610   0.0000000   2.7928460   0.4037610
 AtZNuc=   7.0000000   6.0000000   6.0000000   7.0000000   6.0000000   1.0000000   7.0000000   6.0000000   1.0000000   7.0000000

  Atom        11          12          13          14          15          16          17          18          19          20
 IAtWgt=          12          12          14           1           1           1           1           1          14          12
 AtmWgt=  12.0000000  12.0000000  14.0030740   1.0078250   1.0078250   1.0078250   1.0078250   1.0078250  14.0030740  12.0000000
 NucSpn=           0           0           2           1           1           1           1           1           2           0
 AtZEff=  -0.0000000  -0.0000000  -0.0000000  -0.0000000  -0.0000000  -0.0000000  -0.0000000  -0.0000000  -0.0000000  -0.0000000
 NQMom=    0.0000000   0.0000000   2.0440000   0.0000000   0.0000000   0.0000000   0.0000000   0.0000000   2.0440000   0.0000000
 NMagM=    0.0000000   0.0000000   0.4037610   2.7928460   2.7928460   2.7928460   2.7928460   2.7928460   0.4037610   0.0000000
 AtZNuc=   6.0000000   6.0000000   7.0000000   1.0000000   1.0000000   1.0000000   1.0000000   1.0000000   7.0000000   6.0000000

  Atom        21          22          23          24          25          26          27          28          29          30
 IAtWgt=          12          14           1           1          14          12          14           1          12          16
 AtmWgt=  12.0000000  14.0030740   1.0078250   1.0078250  14.0030740  12.0000000  14.0030740   1.0078250  12.0000000  15.9949146
 NucSpn=           0           2           1           1           2           0           2           1           0           0
 AtZEff=  -0.0000000  -0.0000000  -0.0000000  -0.0000000  -0.0000000  -0.0000000  -0.0000000  -0.0000000  -0.0000000  -0.0000000
 NQMom=    0.0000000   2.0440000   0.0000000   0.0000000   2.0440000   0.0000000   2.0440000   0.0000000   0.0000000   0.0000000
 NMagM=    0.0000000   0.4037610   2.7928460   2.7928460   0.4037610   0.0000000   0.4037610   2.7928460   0.0000000   0.0000000
 AtZNuc=   6.0000000   7.0000000   1.0000000   1.0000000   7.0000000   6.0000000   7.0000000   1.0000000   6.0000000   8.0000000

  Atom        31          32          33          34          35          36          37          38          39          40
 IAtWgt=          12          14          12           1           1           1           1           1           1           1
 AtmWgt=  12.0000000  14.0030740  12.0000000   1.0078250   1.0078250   1.0078250   1.0078250   1.0078250   1.0078250   1.0078250
 NucSpn=           0           2           0           1           1           1           1           1           1           1
 AtZEff=  -0.0000000  -0.0000000  -0.0000000  -0.0000000  -0.0000000  -0.0000000  -0.0000000  -0.0000000  -0.0000000  -0.0000000
 NQMom=    0.0000000   2.0440000   0.0000000   0.0000000   0.0000000   0.0000000   0.0000000   0.0000000   0.0000000   0.0000000
 NMagM=    0.0000000   0.4037610   0.0000000   2.7928460   2.7928460   2.7928460   2.7928460   2.7928460   2.7928460   2.7928460
 AtZNuc=   6.0000000   7.0000000   6.0000000   1.0000000   1.0000000   1.0000000   1.0000000   1.0000000   1.0000000   1.0000000

  Atom        41          42          43          44          45          46          47          48          49          50
 IAtWgt=           1          12          16          12           1          14          16          12           1          12
 AtmWgt=   1.0078250  12.0000000  15.9949146  12.0000000   1.0078250  14.0030740  15.9949146  12.0000000   1.0078250  12.0000000
 NucSpn=           1           0           0           0           1           2           0           0           1           0
 AtZEff=  -0.0000000  -0.0000000  -0.0000000  -0.0000000  -0.0000000  -0.0000000  -0.0000000  -0.0000000  -0.0000000  -0.0000000
 NQMom=    0.0000000   0.0000000   0.0000000   0.0000000   0.0000000   2.0440000   0.0000000   0.0000000   0.0000000   0.0000000
 NMagM=    2.7928460   0.0000000   0.0000000   0.0000000   2.7928460   0.4037610   0.0000000   0.0000000   2.7928460   0.0000000
 AtZNuc=   1.0000000   6.0000000   8.0000000   6.0000000   1.0000000   7.0000000   8.0000000   6.0000000   1.0000000   6.0000000

  Atom        51          52          53          54          55          56          57          58          59          60
 IAtWgt=          12          14           1           1           1           1           1          14          12          12
 AtmWgt=  12.0000000  14.0030740   1.0078250   1.0078250   1.0078250   1.0078250   1.0078250  14.0030740  12.0000000  12.0000000
 NucSpn=           0           2           1           1           1           1           1           2           0           0
 AtZEff=  -0.0000000  -0.0000000  -0.0000000  -0.0000000  -0.0000000  -0.0000000  -0.0000000  -0.0000000  -0.0000000  -0.0000000
 NQMom=    0.0000000   2.0440000   0.0000000   0.0000000   0.0000000   0.0000000   0.0000000   2.0440000   0.0000000   0.0000000
 NMagM=    0.0000000   0.4037610   2.7928460   2.7928460   2.7928460   2.7928460   2.7928460   0.4037610   0.0000000   0.0000000
 AtZNuc=   6.0000000   7.0000000   1.0000000   1.0000000   1.0000000   1.0000000   1.0000000   7.0000000   6.0000000   6.0000000

  Atom        61          62          63          64          65          66          67          68          69          70
 IAtWgt=          14           1          12          14           1          12          14          12          12          14
 AtmWgt=  14.0030740   1.0078250  12.0000000  14.0030740   1.0078250  12.0000000  14.0030740  12.0000000  12.0000000  14.0030740
 NucSpn=           2           1           0           2           1           0           2           0           0           2
 AtZEff=  -0.0000000  -0.0000000  -0.0000000  -0.0000000  -0.0000000  -0.0000000  -0.0000000  -0.0000000  -0.0000000  -0.0000000
 NQMom=    2.0440000   0.0000000   0.0000000   2.0440000   0.0000000   0.0000000   2.0440000   0.0000000   0.0000000   2.0440000
 NMagM=    0.4037610   2.7928460   0.0000000   0.4037610   2.7928460   0.0000000   0.4037610   0.0000000   0.0000000   0.4037610
 AtZNuc=   7.0000000   1.0000000   6.0000000   7.0000000   1.0000000   6.0000000   7.0000000   6.0000000   6.0000000   7.0000000
 Leave Link  101 at Thu Jan 25 04:00:34 2018, MaxMem=  4294967296 cpu:               7.3 elap:               0.3
 (Enter /share/apps/g16/l202.exe)
 Stoichiometry    C23H27N17O3
 Framework group  C1[X(C23H27N17O3)]
 Deg. of freedom   204
 Full point group                 C1      NOp   1
 Largest Abelian subgroup         C1      NOp   1
 Largest concise Abelian subgroup C1      NOp   1
                         Standard orientation:                         
 ---------------------------------------------------------------------
 Center     Atomic      Atomic             Coordinates (Angstroms)
 Number     Number       Type             X           Y           Z
 ---------------------------------------------------------------------
      1          7           0       -6.959590   -1.542097    0.232231
      2          6           0       -8.347630   -1.051847    0.127332
      3          6           0       -4.785786   -1.662075    0.544486
      4          7           0       -5.197767   -2.938154    0.188645
      5          6           0       -6.490907   -2.814799    0.014766
      6          1           0       -7.157816   -3.627327   -0.275030
      7          7           0       -3.458368    0.183291    1.173407
      8          6           0       -4.586027    0.901495    1.161248
      9          1           0       -4.470295    1.953227    1.419559
     10          7           0       -5.829340    0.517376    0.879238
     11          6           0       -5.860672   -0.790764    0.575557
     12          6           0       -3.523189   -1.129992    0.863311
     13          7           0       -2.398608   -1.848581    0.874892
     14          1           0       -2.399565   -2.824035    0.651938
     15          1           0       -1.517298   -1.436624    1.106688
     16          1           0       -8.928869   -1.552737    0.768772
     17          1           0       -8.374952   -0.076821    0.345766
     18          1           0       -8.683561   -1.192597   -0.803978
     19          7           0       -2.126360    2.845123   -1.812232
     20          6           0       -0.829851    2.450902   -1.584850
     21          6           0       -2.618923    4.235936   -1.751186
     22          7           0        2.459131    3.239210   -0.795591
     23          1           0        3.324184    2.754229   -0.670247
     24          1           0        2.473942    4.232103   -0.674511
     25          7           0        0.203634    3.261357   -1.269992
     26          6           0        1.329474    2.588236   -1.111841
     27          7           0        1.437107    1.225672   -1.250948
     28          1           0        2.338470    0.795516   -1.111413
     29          6           0        0.387054    0.372092   -1.574437
     30          8           0        0.590903   -0.844020   -1.675791
     31          6           0       -0.828991    1.080740   -1.747438
     32          7           0       -2.099405    0.623952   -2.070390
     33          6           0       -2.833829    1.702882   -2.097550
     34          1           0       -3.901060    1.722120   -2.320985
     35          1           0       -3.330645    4.308907   -1.053384
     36          1           0       -1.862114    4.845410   -1.518724
     37          1           0       -2.995216    4.497322   -2.639383
     38          1           0        6.942167   -0.802000    0.340011
     39          1           0        7.236622   -0.871683   -1.395816
     40          1           0        6.135185    0.338313   -0.736942
     41          1           0        4.690173   -4.905594   -0.771571
     42          6           0        4.527670   -3.830041   -0.842309
     43          8           0        2.195352   -4.022076   -1.230250
     44          6           0        3.206954   -3.336009   -1.086179
     45          1           0        2.194318   -1.574170   -1.328687
     46          7           0        3.111879   -1.960834   -1.157506
     47          8           0        3.948828    0.149485   -1.100248
     48          6           0        4.131671   -1.052582   -1.020975
     49          1           0        6.565521   -3.293493   -0.518153
     50          6           0        5.542665   -2.968967   -0.704695
     51          6           0        6.496082   -0.674360   -0.635071
     52          7           0        5.375239   -1.606091   -0.787809
     53          1           0        3.176123    3.964811    3.262901
     54          1           0        2.065913    4.015823    2.068353
     55          1           0        3.657026    4.030451    1.704751
     56          1           0        1.068212   -2.919352    1.465510
     57          1           0        2.653243   -2.540981    1.970098
     58          7           0        1.743461   -2.221051    1.703345
     59          6           0        1.444996   -0.920762    1.666750
     60          6           0        1.900926    1.402273    1.906203
     61          7           0        0.670929    1.802884    1.544205
     62          1           0       -1.116784    0.989362    0.958626
     63          6           0       -0.097951    0.752938    1.262535
     64          7           0        0.199133   -0.550145    1.298588
     65          1           0        4.974145    1.696537    2.865824
     66          6           0        3.996263    1.332837    2.548975
     67          7           0        3.684069    0.068835    2.398931
     68          6           0        2.358196    0.098764    1.991604
     69          6           0        2.965953    3.669287    2.330971
     70          7           0        2.964480    2.194835    2.267714
 ---------------------------------------------------------------------
 Rotational constants (GHZ):           0.1307833           0.0525264           0.0455545
 Leave Link  202 at Thu Jan 25 04:00:34 2018, MaxMem=  4294967296 cpu:               0.3 elap:               0.0
 (Enter /share/apps/g16/l301.exe)
 Standard basis: CC-pVDZ (5D, 7F)
 Ernie: Thresh=  0.10000D-02 Tol=  0.10000D-05 Strict=F.
 Ernie:  86 primitive shells out of 1081 were deleted.
 There are   780 symmetry adapted cartesian basis functions of A   symmetry.
 There are   737 symmetry adapted basis functions of A   symmetry.
   737 basis functions,  1608 primitive gaussians,   780 cartesian basis functions
   154 alpha electrons      154 beta electrons
       nuclear repulsion energy      5422.8983719849 Hartrees.
 IExCor= 4639 DFT=T Ex+Corr=wB97XD ExCW=0 ScaHFX=  1.000000
 ScaDFX=  1.000000  1.000000  1.000000  1.000000 ScalE2=  1.000000  1.000000
 IRadAn=      5 IRanWt=     -1 IRanGd=            0 ICorTp=0 IEmpDi=121
 HFx  wShort=  0.000000 wLong=  0.200000 cFull=  0.222036 cShort=  0.000000 cLong=  0.777964
 DFx  wShort=  0.000000 wLong=  0.200000 cFull=  0.000000 cShort=  0.000000 cLong=  1.000000
 NAtoms=   70 NActive=   70 NUniq=   70 SFac= 1.00D+00 NAtFMM=   60 NAOKFM=T Big=T
 Integral buffers will be    131072 words long.
 Raffenetti 2 integral format.
 Two-electron integral symmetry is turned on.
 R6Disp:  Grimme-D2 Dispersion energy=       -0.0678144585 Hartrees.
 Nuclear repulsion after empirical dispersion term =     5422.8305575265 Hartrees.
 Leave Link  301 at Thu Jan 25 04:00:35 2018, MaxMem=  4294967296 cpu:               2.1 elap:               0.1
 (Enter /share/apps/g16/l302.exe)
 NPDir=0 NMtPBC=     1 NCelOv=     1 NCel=       1 NClECP=     1 NCelD=      1
         NCelK=      1 NCelE2=     1 NClLst=     1 CellRange=     0.0.
 One-electron integrals computed using PRISM.
 One-electron integral symmetry used in STVInt
 NBasis=   737 RedAO= T EigKep=  7.08D-04  NBF=   737
 NBsUse=   737 1.00D-06 EigRej= -1.00D+00 NBFU=   737
 Precomputing XC quadrature grid using
 IXCGrd= 4 IRadAn=           5 IRanWt=          -1 IRanGd=           0 AccXCQ= 0.00D+00.
 Generated NRdTot=       0 NPtTot=           0 NUsed=           0 NTot=          32
 NSgBfM=   764   764   764   764   764 MxSgAt=    70 MxSgA2=    70.
 Leave Link  302 at Thu Jan 25 04:00:39 2018, MaxMem=  4294967296 cpu:             133.8 elap:               4.2
 (Enter /share/apps/g16/l303.exe)
 DipDrv:  MaxL=1.
 Leave Link  303 at Thu Jan 25 04:00:39 2018, MaxMem=  4294967296 cpu:              12.4 elap:               0.4
 (Enter /share/apps/g16/l401.exe)
 ExpMin= 1.22D-01 ExpMax= 1.17D+04 ExpMxC= 4.01D+02 IAcc=3 IRadAn=         5 AccDes= 0.00D+00
 Harris functional with IExCor= 4639 and IRadAn=       5 diagonalized for initial guess.
 HarFok:  IExCor= 4639 AccDes= 0.00D+00 IRadAn=         5 IDoV= 1 UseB2=F ITyADJ=14
 ICtDFT=  3500011 ScaDFX=  1.000000  1.000000  1.000000  1.000000
 FoFCou: FMM=F IPFlag=           0 FMFlag=      100000 FMFlg1=        2001
         NFxFlg=           0 DoJE=T BraDBF=F KetDBF=T FulRan=T
         wScrn=  0.000000 ICntrl=       500 IOpCl=  0 I1Cent=   200000004 NGrid=           0
         NMat0=    1 NMatS0=      1 NMatT0=    0 NMatD0=    1 NMtDS0=    0 NMtDT0=    0
 Petite list used in FoFCou.
 Harris En= -1963.87976988691    
 JPrj=0 DoOrth=F DoCkMO=F.
 Leave Link  401 at Thu Jan 25 04:00:51 2018, MaxMem=  4294967296 cpu:             389.7 elap:              12.2
 (Enter /share/apps/g16/l502.exe)
 Integral symmetry usage will be decided dynamically.
 Closed shell SCF:
 Using DIIS extrapolation, IDIIS=  1040.
 NGot=  4294967296 LenX=  4293717438 LenY=  4293108258
 Requested convergence on RMS density matrix=1.00D-08 within  20 cycles.
 Requested convergence on MAX density matrix=1.00D-06.
 Requested convergence on             energy=1.00D-06.
 No special actions if energy rises.
 Fock matrices will be formed incrementally for  20 cycles.
 Integral accuracy reduced to 1.0D-05 until final iterations.

 Cycle   1  Pass 0  IDiag  1:
 FoFJK:  IHMeth= 1 ICntrl=       0 DoSepK=T KAlg= 0 I1Cent=           0 FoldK=F
 IRaf=         1 NMat=       1 IRICut=       1 DoRegI=T DoRafI=F ISym2E= 0 IDoP0=0 IntGTp=1.
 FoFCou: FMM=T IPFlag=           0 FMFlag=      100000 FMFlg1=        2001
         NFxFlg=           0 DoJE=T BraDBF=F KetDBF=F FulRan=T
         wScrn=  0.000000 ICntrl=       500 IOpCl=  0 I1Cent=           0 NGrid=           0
         NMat0=    1 NMatS0=      1 NMatT0=    0 NMatD0=    1 NMtDS0=    0 NMtDT0=    0
 Symmetry not used in FoFCou.
 FMM levels:  10  Number of levels for PrismC:   9
 E= -2048.30770335245    
 DIIS: error= 2.42D-02 at cycle   1 NSaved=   1.
 NSaved= 1 IEnMin= 1 EnMin= -2048.30770335245     IErMin= 1 ErrMin= 2.42D-02
 ErrMax= 2.42D-02  0.00D+00 EMaxC= 1.00D-01 BMatC= 8.32D-01 BMatP= 8.32D-01
 IDIUse=3 WtCom= 7.58D-01 WtEn= 2.42D-01
 Coeff-Com:  0.100D+01
 Coeff-En:   0.100D+01
 Coeff:      0.100D+01
 Gap=     0.254 Goal=   None    Shift=    0.000
 GapD=    0.254 DampG=1.000 DampE=0.500 DampFc=0.5000 IDamp=-1.
 Damping current iteration by 5.00D-01
 RMSDP=1.57D-03 MaxDP=1.30D-01              OVMax= 2.05D-01

 Cycle   2  Pass 0  IDiag  1:
 RMSU=  7.85D-04    CP:  9.98D-01
 E= -2048.50557934750     Delta-E=       -0.197875995047 Rises=F Damp=T
 DIIS: error= 1.33D-02 at cycle   2 NSaved=   2.
 NSaved= 2 IEnMin= 2 EnMin= -2048.50557934750     IErMin= 2 ErrMin= 1.33D-02
 ErrMax= 1.33D-02  0.00D+00 EMaxC= 1.00D-01 BMatC= 1.45D-01 BMatP= 8.32D-01
 IDIUse=3 WtCom= 8.67D-01 WtEn= 1.33D-01
 Coeff-Com: -0.198D+00 0.120D+01
 Coeff-En:   0.000D+00 0.100D+01
 Coeff:     -0.171D+00 0.117D+01
 Gap=     0.366 Goal=   None    Shift=    0.000
 RMSDP=5.85D-04 MaxDP=3.38D-02 DE=-1.98D-01 OVMax= 1.50D-01

 Cycle   3  Pass 0  IDiag  1:
 RMSU=  5.72D-04    CP:  9.94D-01  1.14D+00
 E= -2048.68693506749     Delta-E=       -0.181355719986 Rises=F Damp=F
 DIIS: error= 7.09D-03 at cycle   3 NSaved=   3.
 NSaved= 3 IEnMin= 3 EnMin= -2048.68693506749     IErMin= 3 ErrMin= 7.09D-03
 ErrMax= 7.09D-03  0.00D+00 EMaxC= 1.00D-01 BMatC= 6.11D-02 BMatP= 1.45D-01
 IDIUse=3 WtCom= 9.29D-01 WtEn= 7.09D-02
 Coeff-Com: -0.230D+00 0.544D+00 0.686D+00
 Coeff-En:   0.000D+00 0.000D+00 0.100D+01
 Coeff:     -0.214D+00 0.505D+00 0.708D+00
 Gap=     0.279 Goal=   None    Shift=    0.000
 RMSDP=3.47D-04 MaxDP=3.27D-02 DE=-1.81D-01 OVMax= 7.17D-02

 Cycle   4  Pass 0  IDiag  1:
 RMSU=  2.01D-04    CP:  9.94D-01  1.42D+00  6.81D-01
 E= -2048.73341789615     Delta-E=       -0.046482828663 Rises=F Damp=F
 DIIS: error= 2.54D-03 at cycle   4 NSaved=   4.
 NSaved= 4 IEnMin= 4 EnMin= -2048.73341789615     IErMin= 4 ErrMin= 2.54D-03
 ErrMax= 2.54D-03  0.00D+00 EMaxC= 1.00D-01 BMatC= 8.69D-03 BMatP= 6.11D-02
 IDIUse=3 WtCom= 9.75D-01 WtEn= 2.54D-02
 Coeff-Com: -0.957D-01 0.186D+00 0.378D+00 0.532D+00
 Coeff-En:   0.000D+00 0.000D+00 0.574D-01 0.943D+00
 Coeff:     -0.933D-01 0.181D+00 0.370D+00 0.542D+00
 Gap=     0.284 Goal=   None    Shift=    0.000
 RMSDP=1.24D-04 MaxDP=1.17D-02 DE=-4.65D-02 OVMax= 1.28D-02

 Cycle   5  Pass 0  IDiag  1:
 RMSU=  6.11D-05    CP:  9.94D-01  1.39D+00  8.10D-01  6.17D-01
 E= -2048.74056351026     Delta-E=       -0.007145614115 Rises=F Damp=F
 DIIS: error= 6.36D-04 at cycle   5 NSaved=   5.
 NSaved= 5 IEnMin= 5 EnMin= -2048.74056351026     IErMin= 5 ErrMin= 6.36D-04
 ErrMax= 6.36D-04  0.00D+00 EMaxC= 1.00D-01 BMatC= 2.99D-04 BMatP= 8.69D-03
 IDIUse=3 WtCom= 9.94D-01 WtEn= 6.36D-03
 Coeff-Com: -0.254D-01 0.436D-01 0.124D+00 0.243D+00 0.615D+00
 Coeff-En:   0.000D+00 0.000D+00 0.000D+00 0.000D+00 0.100D+01
 Coeff:     -0.252D-01 0.434D-01 0.123D+00 0.242D+00 0.617D+00
 Gap=     0.284 Goal=   None    Shift=    0.000
 RMSDP=2.63D-05 MaxDP=1.93D-03 DE=-7.15D-03 OVMax= 3.25D-03

 Failed to achieve initial convergence to 1.0D-08 in  6 cycles.
 Switch to full accuracy anyway.
 Cycle   6  Pass 1  IDiag  1:
 E= -2048.74101031415     Delta-E=       -0.000446803888 Rises=F Damp=F
 DIIS: error= 2.20D-04 at cycle   1 NSaved=   1.
 NSaved= 1 IEnMin= 1 EnMin= -2048.74101031415     IErMin= 1 ErrMin= 2.20D-04
 ErrMax= 2.20D-04  0.00D+00 EMaxC= 1.00D-01 BMatC= 6.93D-05 BMatP= 6.93D-05
 IDIUse=3 WtCom= 9.98D-01 WtEn= 2.20D-03
 Coeff-Com:  0.100D+01
 Coeff-En:   0.100D+01
 Coeff:      0.100D+01
 Gap=     0.284 Goal=   None    Shift=    0.000
 RMSDP=2.63D-05 MaxDP=1.93D-03 DE=-4.47D-04 OVMax= 2.57D-03

 Cycle   7  Pass 1  IDiag  1:
 RMSU=  1.04D-04    CP:  1.00D+00
 E= -2048.74106146923     Delta-E=       -0.000051155079 Rises=F Damp=F
 DIIS: error= 2.51D-04 at cycle   2 NSaved=   2.
 NSaved= 2 IEnMin= 2 EnMin= -2048.74106146923     IErMin= 1 ErrMin= 2.20D-04
 ErrMax= 2.51D-04  0.00D+00 EMaxC= 1.00D-01 BMatC= 4.15D-05 BMatP= 6.93D-05
 IDIUse=3 WtCom= 9.97D-01 WtEn= 2.51D-03
 Coeff-Com:  0.414D+00 0.586D+00
 Coeff-En:   0.000D+00 0.100D+01
 Coeff:      0.413D+00 0.587D+00
 Gap=     0.284 Goal=   None    Shift=    0.000
 RMSDP=1.10D-05 MaxDP=1.07D-03 DE=-5.12D-05 OVMax= 1.45D-03

 Cycle   8  Pass 1  IDiag  1:
 RMSU=  1.07D-05    CP:  1.00D+00  1.02D+00
 E= -2048.74109171148     Delta-E=       -0.000030242251 Rises=F Damp=F
 DIIS: error= 1.04D-04 at cycle   3 NSaved=   3.
 NSaved= 3 IEnMin= 3 EnMin= -2048.74109171148     IErMin= 3 ErrMin= 1.04D-04
 ErrMax= 1.04D-04  0.00D+00 EMaxC= 1.00D-01 BMatC= 9.29D-06 BMatP= 4.15D-05
 IDIUse=3 WtCom= 9.99D-01 WtEn= 1.04D-03
 Coeff-Com: -0.200D-01 0.307D+00 0.713D+00
 Coeff-En:   0.000D+00 0.121D+00 0.879D+00
 Coeff:     -0.200D-01 0.307D+00 0.713D+00
 Gap=     0.284 Goal=   None    Shift=    0.000
 RMSDP=5.42D-06 MaxDP=4.37D-04 DE=-3.02D-05 OVMax= 5.40D-04

 Cycle   9  Pass 1  IDiag  1:
 RMSU=  3.75D-06    CP:  1.00D+00  1.05D+00  7.69D-01
 E= -2048.74110044862     Delta-E=       -0.000008737143 Rises=F Damp=F
 DIIS: error= 4.02D-05 at cycle   4 NSaved=   4.
 NSaved= 4 IEnMin= 4 EnMin= -2048.74110044862     IErMin= 4 ErrMin= 4.02D-05
 ErrMax= 4.02D-05  0.00D+00 EMaxC= 1.00D-01 BMatC= 4.82D-07 BMatP= 9.29D-06
 IDIUse=1 WtCom= 1.00D+00 WtEn= 0.00D+00
 Coeff-Com: -0.325D-01 0.820D-01 0.263D+00 0.688D+00
 Coeff:     -0.325D-01 0.820D-01 0.263D+00 0.688D+00
 Gap=     0.284 Goal=   None    Shift=    0.000
 RMSDP=1.41D-06 MaxDP=1.31D-04 DE=-8.74D-06 OVMax= 5.04D-04

 Cycle  10  Pass 1  IDiag  1:
 RMSU=  1.26D-06    CP:  1.00D+00  1.06D+00  8.04D-01  1.10D+00
 E= -2048.74110125917     Delta-E=       -0.000000810546 Rises=F Damp=F
 DIIS: error= 1.63D-05 at cycle   5 NSaved=   5.
 NSaved= 5 IEnMin= 5 EnMin= -2048.74110125917     IErMin= 5 ErrMin= 1.63D-05
 ErrMax= 1.63D-05  0.00D+00 EMaxC= 1.00D-01 BMatC= 1.13D-07 BMatP= 4.82D-07
 IDIUse=1 WtCom= 1.00D+00 WtEn= 0.00D+00
 Coeff-Com: -0.314D-02-0.558D-01-0.124D+00 0.201D+00 0.982D+00
 Coeff:     -0.314D-02-0.558D-01-0.124D+00 0.201D+00 0.982D+00
 Gap=     0.284 Goal=   None    Shift=    0.000
 RMSDP=1.18D-06 MaxDP=7.54D-05 DE=-8.11D-07 OVMax= 2.49D-04

 Cycle  11  Pass 1  IDiag  1:
 RMSU=  4.64D-07    CP:  1.00D+00  1.06D+00  8.14D-01  1.38D+00  1.17D+00
 E= -2048.74110150315     Delta-E=       -0.000000243982 Rises=F Damp=F
 DIIS: error= 9.68D-06 at cycle   6 NSaved=   6.
 NSaved= 6 IEnMin= 6 EnMin= -2048.74110150315     IErMin= 6 ErrMin= 9.68D-06
 ErrMax= 9.68D-06  0.00D+00 EMaxC= 1.00D-01 BMatC= 2.59D-08 BMatP= 1.13D-07
 IDIUse=1 WtCom= 1.00D+00 WtEn= 0.00D+00
 Coeff-Com:  0.463D-02-0.429D-01-0.112D+00 0.129D-02 0.518D+00 0.631D+00
 Coeff:      0.463D-02-0.429D-01-0.112D+00 0.129D-02 0.518D+00 0.631D+00
 Gap=     0.284 Goal=   None    Shift=    0.000
 RMSDP=3.37D-07 MaxDP=3.47D-05 DE=-2.44D-07 OVMax= 1.22D-04

 Cycle  12  Pass 1  IDiag  1:
 RMSU=  1.70D-07    CP:  1.00D+00  1.06D+00  8.15D-01  1.45D+00  1.29D+00
                    CP:  9.18D-01
 E= -2048.74110154038     Delta-E=       -0.000000037232 Rises=F Damp=F
 DIIS: error= 1.04D-06 at cycle   7 NSaved=   7.
 NSaved= 7 IEnMin= 7 EnMin= -2048.74110154038     IErMin= 7 ErrMin= 1.04D-06
 ErrMax= 1.04D-06  0.00D+00 EMaxC= 1.00D-01 BMatC= 6.49D-10 BMatP= 2.59D-08
 IDIUse=1 WtCom= 1.00D+00 WtEn= 0.00D+00
 Coeff-Com:  0.872D-03-0.474D-02-0.140D-01-0.751D-02 0.278D-01 0.105D+00
 Coeff-Com:  0.892D+00
 Coeff:      0.872D-03-0.474D-02-0.140D-01-0.751D-02 0.278D-01 0.105D+00
 Coeff:      0.892D+00
 Gap=     0.284 Goal=   None    Shift=    0.000
 RMSDP=8.34D-08 MaxDP=5.30D-06 DE=-3.72D-08 OVMax= 2.37D-05

 Cycle  13  Pass 1  IDiag  1:
 RMSU=  4.69D-08    CP:  1.00D+00  1.06D+00  8.15D-01  1.46D+00  1.31D+00
                    CP:  1.01D+00  1.17D+00
 E= -2048.74110154149     Delta-E=       -0.000000001101 Rises=F Damp=F
 DIIS: error= 5.21D-07 at cycle   8 NSaved=   8.
 NSaved= 8 IEnMin= 8 EnMin= -2048.74110154149     IErMin= 8 ErrMin= 5.21D-07
 ErrMax= 5.21D-07  0.00D+00 EMaxC= 1.00D-01 BMatC= 2.55D-10 BMatP= 6.49D-10
 IDIUse=1 WtCom= 1.00D+00 WtEn= 0.00D+00
 Coeff-Com: -0.720D-03 0.846D-02 0.211D-01-0.171D-02-0.113D+00-0.101D+00
 Coeff-Com:  0.425D+00 0.763D+00
 Coeff:     -0.720D-03 0.846D-02 0.211D-01-0.171D-02-0.113D+00-0.101D+00
 Coeff:      0.425D+00 0.763D+00
 Gap=     0.284 Goal=   None    Shift=    0.000
 RMSDP=4.04D-08 MaxDP=2.32D-06 DE=-1.10D-09 OVMax= 1.00D-05

 Cycle  14  Pass 1  IDiag  1:
 RMSU=  2.38D-08    CP:  1.00D+00  1.06D+00  8.15D-01  1.46D+00  1.32D+00
                    CP:  1.05D+00  1.31D+00  1.11D+00
 E= -2048.74110154212     Delta-E=       -0.000000000629 Rises=F Damp=F
 DIIS: error= 1.87D-07 at cycle   9 NSaved=   9.
 NSaved= 9 IEnMin= 9 EnMin= -2048.74110154212     IErMin= 9 ErrMin= 1.87D-07
 ErrMax= 1.87D-07  0.00D+00 EMaxC= 1.00D-01 BMatC= 2.07D-11 BMatP= 2.55D-10
 IDIUse=1 WtCom= 1.00D+00 WtEn= 0.00D+00
 Coeff-Com: -0.359D-03 0.367D-02 0.937D-02 0.128D-03-0.453D-01-0.489D-01
 Coeff-Com:  0.727D-01 0.272D+00 0.737D+00
 Coeff:     -0.359D-03 0.367D-02 0.937D-02 0.128D-03-0.453D-01-0.489D-01
 Coeff:      0.727D-01 0.272D+00 0.737D+00
 Gap=     0.284 Goal=   None    Shift=    0.000
 RMSDP=1.18D-08 MaxDP=8.55D-07 DE=-6.29D-10 OVMax= 3.29D-06

 Cycle  15  Pass 1  IDiag  1:
 RMSU=  7.90D-09    CP:  1.00D+00  1.06D+00  8.15D-01  1.46D+00  1.32D+00
                    CP:  1.05D+00  1.33D+00  1.24D+00  1.12D+00
 E= -2048.74110154240     Delta-E=       -0.000000000282 Rises=F Damp=F
 DIIS: error= 1.04D-07 at cycle  10 NSaved=  10.
 NSaved=10 IEnMin=10 EnMin= -2048.74110154240     IErMin=10 ErrMin= 1.04D-07
 ErrMax= 1.04D-07  0.00D+00 EMaxC= 1.00D-01 BMatC= 5.00D-12 BMatP= 2.07D-11
 IDIUse=1 WtCom= 1.00D+00 WtEn= 0.00D+00
 Coeff-Com:  0.230D-04-0.491D-03-0.113D-02 0.152D-03 0.783D-02 0.392D-02
 Coeff-Com: -0.624D-01-0.703D-01 0.311D+00 0.812D+00
 Coeff:      0.230D-04-0.491D-03-0.113D-02 0.152D-03 0.783D-02 0.392D-02
 Coeff:     -0.624D-01-0.703D-01 0.311D+00 0.812D+00
 Gap=     0.284 Goal=   None    Shift=    0.000
 RMSDP=5.95D-09 MaxDP=3.47D-07 DE=-2.82D-10 OVMax= 1.24D-06

 SCF Done:  E(RwB97XD) =  -2048.74110154     A.U. after   15 cycles
            NFock= 15  Conv=0.60D-08     -V/T= 2.0054
 KE= 2.037731430616D+03 PE=-1.562661453888D+04 EE= 6.117311449196D+03
 Leave Link  502 at Thu Jan 25 04:11:53 2018, MaxMem=  4294967296 cpu:           20368.5 elap:             661.4
 (Enter /share/apps/g16/l601.exe)
 Copying SCF densities to generalized density rwf, IOpCl= 0 IROHF=0.

 **********************************************************************

            Population analysis using the SCF density.

 **********************************************************************

 Orbital symmetries:
       Occupied  (A) (A) (A) (A) (A) (A) (A) (A) (A) (A) (A) (A)
                 (A) (A) (A) (A) (A) (A) (A) (A) (A) (A) (A) (A)
                 (A) (A) (A) (A) (A) (A) (A) (A) (A) (A) (A) (A)
                 (A) (A) (A) (A) (A) (A) (A) (A) (A) (A) (A) (A)
                 (A) (A) (A) (A) (A) (A) (A) (A) (A) (A) (A) (A)
                 (A) (A) (A) (A) (A) (A) (A) (A) (A) (A) (A) (A)
                 (A) (A) (A) (A) (A) (A) (A) (A) (A) (A) (A) (A)
                 (A) (A) (A) (A) (A) (A) (A) (A) (A) (A) (A) (A)
                 (A) (A) (A) (A) (A) (A) (A) (A) (A) (A) (A) (A)
                 (A) (A) (A) (A) (A) (A) (A) (A) (A) (A) (A) (A)
                 (A) (A) (A) (A) (A) (A) (A) (A) (A) (A) (A) (A)
                 (A) (A) (A) (A) (A) (A) (A) (A) (A) (A) (A) (A)
                 (A) (A) (A) (A) (A) (A) (A) (A) (A) (A)
       Virtual   (A) (A) (A) (A) (A) (A) (A) (A) (A) (A) (A) (A)
                 (A) (A) (A) (A) (A) (A) (A) (A) (A) (A) (A) (A)
                 (A) (A) (A) (A) (A) (A) (A) (A) (A) (A) (A) (A)
                 (A) (A) (A) (A) (A) (A) (A) (A) (A) (A) (A) (A)
                 (A) (A) (A) (A) (A) (A) (A) (A) (A) (A) (A) (A)
                 (A) (A) (A) (A) (A) (A) (A) (A) (A) (A) (A) (A)
                 (A) (A) (A) (A) (A) (A) (A) (A) (A) (A) (A) (A)
                 (A) (A) (A) (A) (A) (A) (A) (A) (A) (A) (A) (A)
                 (A) (A) (A) (A) (A) (A) (A) (A) (A) (A) (A) (A)
                 (A) (A) (A) (A) (A) (A) (A) (A) (A) (A) (A) (A)
                 (A) (A) (A) (A) (A) (A) (A) (A) (A) (A) (A) (A)
                 (A) (A) (A) (A) (A) (A) (A) (A) (A) (A) (A) (A)
                 (A) (A) (A) (A) (A) (A) (A) (A) (A) (A) (A) (A)
                 (A) (A) (A) (A) (A) (A) (A) (A) (A) (A) (A) (A)
                 (A) (A) (A) (A) (A) (A) (A) (A) (A) (A) (A) (A)
                 (A) (A) (A) (A) (A) (A) (A) (A) (A) (A) (A) (A)
                 (A) (A) (A) (A) (A) (A) (A) (A) (A) (A) (A) (A)
                 (A) (A) (A) (A) (A) (A) (A) (A) (A) (A) (A) (A)
                 (A) (A) (A) (A) (A) (A) (A) (A) (A) (A) (A) (A)
                 (A) (A) (A) (A) (A) (A) (A) (A) (A) (A) (A) (A)
                 (A) (A) (A) (A) (A) (A) (A) (A) (A) (A) (A) (A)
                 (A) (A) (A) (A) (A) (A) (A) (A) (A) (A) (A) (A)
                 (A) (A) (A) (A) (A) (A) (A) (A) (A) (A) (A) (A)
                 (A) (A) (A) (A) (A) (A) (A) (A) (A) (A) (A) (A)
                 (A) (A) (A) (A) (A) (A) (A) (A) (A) (A) (A) (A)
                 (A) (A) (A) (A) (A) (A) (A) (A) (A) (A) (A) (A)
                 (A) (A) (A) (A) (A) (A) (A) (A) (A) (A) (A) (A)
                 (A) (A) (A) (A) (A) (A) (A) (A) (A) (A) (A) (A)
                 (A) (A) (A) (A) (A) (A) (A) (A) (A) (A) (A) (A)
                 (A) (A) (A) (A) (A) (A) (A) (A) (A) (A) (A) (A)
                 (A) (A) (A) (A) (A) (A) (A) (A) (A) (A) (A) (A)
                 (A) (A) (A) (A) (A) (A) (A) (A) (A) (A) (A) (A)
                 (A) (A) (A) (A) (A) (A) (A) (A) (A) (A) (A) (A)
                 (A) (A) (A) (A) (A) (A) (A) (A) (A) (A) (A) (A)
                 (A) (A) (A) (A) (A) (A) (A) (A) (A) (A) (A) (A)
                 (A) (A) (A) (A) (A) (A) (A) (A) (A) (A) (A) (A)
                 (A) (A) (A) (A) (A) (A) (A) (A) (A) (A) (A) (A)
                 (A) (A) (A) (A) (A) (A) (A) (A) (A) (A) (A) (A)
                 (A) (A) (A) (A) (A) (A) (A) (A) (A) (A) (A) (A)
                 (A) (A) (A) (A) (A) (A) (A) (A) (A) (A) (A) (A)
                 (A) (A) (A) (A) (A) (A) (A) (A) (A) (A) (A) (A)
                 (A) (A) (A) (A) (A) (A) (A) (A) (A) (A) (A) (A)
                 (A) (A) (A) (A) (A) (A) (A) (A) (A) (A) (A) (A)
                 (A) (A) (A) (A) (A) (A) (A) (A) (A) (A) (A) (A)
                 (A) (A) (A) (A) (A) (A) (A) (A) (A) (A) (A) (A)
                 (A) (A) (A) (A) (A) (A) (A) (A) (A) (A) (A) (A)
                 (A) (A) (A) (A) (A) (A) (A) (A) (A) (A) (A) (A)
                 (A) (A) (A) (A) (A) (A) (A) (A) (A) (A) (A) (A)
                 (A) (A) (A) (A) (A) (A) (A)
 The electronic state is 1-A.
 Alpha  occ. eigenvalues --  -19.26017 -19.22357 -19.20776 -14.52639 -14.51441
 Alpha  occ. eigenvalues --  -14.48913 -14.48911 -14.48106 -14.47380 -14.47045
 Alpha  occ. eigenvalues --  -14.46747 -14.44432 -14.42848 -14.42775 -14.42237
 Alpha  occ. eigenvalues --  -14.42216 -14.41591 -14.41023 -14.40908 -14.40237
 Alpha  occ. eigenvalues --  -10.45680 -10.41528 -10.40446 -10.38565 -10.38420
 Alpha  occ. eigenvalues --  -10.38073 -10.37013 -10.35917 -10.35499 -10.35412
 Alpha  occ. eigenvalues --  -10.34524 -10.34294 -10.34247 -10.33510 -10.33385
 Alpha  occ. eigenvalues --  -10.33259 -10.33205 -10.31474 -10.31352 -10.31063
 Alpha  occ. eigenvalues --  -10.30974 -10.28681 -10.28334  -1.19603  -1.14130
 Alpha  occ. eigenvalues --   -1.13426  -1.13347  -1.11501  -1.10746  -1.09529
 Alpha  occ. eigenvalues --   -1.08894  -1.07884  -1.05077  -1.03463  -1.02744
 Alpha  occ. eigenvalues --   -1.00516  -1.00339  -0.99828  -0.98712  -0.97092
 Alpha  occ. eigenvalues --   -0.96715  -0.95453  -0.92720  -0.91298  -0.86531
 Alpha  occ. eigenvalues --   -0.84983  -0.84306  -0.84073  -0.83841  -0.82655
 Alpha  occ. eigenvalues --   -0.82438  -0.79114  -0.75838  -0.74837  -0.74025
 Alpha  occ. eigenvalues --   -0.73599  -0.73513  -0.73014  -0.71175  -0.69237
 Alpha  occ. eigenvalues --   -0.67713  -0.66778  -0.66409  -0.65587  -0.64681
 Alpha  occ. eigenvalues --   -0.63978  -0.63120  -0.62894  -0.62749  -0.62158
 Alpha  occ. eigenvalues --   -0.60305  -0.59795  -0.59747  -0.59391  -0.59124
 Alpha  occ. eigenvalues --   -0.58836  -0.58456  -0.56839  -0.56606  -0.56509
 Alpha  occ. eigenvalues --   -0.56163  -0.55479  -0.54885  -0.54604  -0.54251
 Alpha  occ. eigenvalues --   -0.53859  -0.53563  -0.53143  -0.52730  -0.52636
 Alpha  occ. eigenvalues --   -0.52312  -0.51843  -0.51726  -0.50854  -0.50351
 Alpha  occ. eigenvalues --   -0.50293  -0.49648  -0.49267  -0.49066  -0.48825
 Alpha  occ. eigenvalues --   -0.48623  -0.48450  -0.48055  -0.47769  -0.47593
 Alpha  occ. eigenvalues --   -0.47077  -0.45514  -0.45190  -0.44305  -0.43161
 Alpha  occ. eigenvalues --   -0.41283  -0.39637  -0.39507  -0.37674  -0.37423
 Alpha  occ. eigenvalues --   -0.37296  -0.36743  -0.36337  -0.35766  -0.34820
 Alpha  occ. eigenvalues --   -0.33703  -0.33598  -0.33510  -0.33177  -0.32879
 Alpha  occ. eigenvalues --   -0.32754  -0.32527  -0.32227  -0.31992  -0.31051
 Alpha  occ. eigenvalues --   -0.30455  -0.28739  -0.25884  -0.25641
 Alpha virt. eigenvalues --    0.02792   0.05077   0.07784   0.07835   0.08347
 Alpha virt. eigenvalues --    0.09327   0.09485   0.10870   0.11423   0.12192
 Alpha virt. eigenvalues --    0.12719   0.13865   0.14583   0.14763   0.14879
 Alpha virt. eigenvalues --    0.16006   0.16245   0.16799   0.17193   0.18062
 Alpha virt. eigenvalues --    0.18848   0.19286   0.19785   0.20214   0.20346
 Alpha virt. eigenvalues --    0.20643   0.20760   0.20973   0.21483   0.22410
 Alpha virt. eigenvalues --    0.22893   0.22992   0.23292   0.23546   0.23789
 Alpha virt. eigenvalues --    0.23900   0.23956   0.24351   0.25140   0.25319
 Alpha virt. eigenvalues --    0.26120   0.26616   0.26934   0.27523   0.27838
 Alpha virt. eigenvalues --    0.28940   0.29442   0.29772   0.30751   0.30849
 Alpha virt. eigenvalues --    0.31231   0.31502   0.32686   0.33341   0.33732
 Alpha virt. eigenvalues --    0.33796   0.34708   0.35335   0.35712   0.36727
 Alpha virt. eigenvalues --    0.37001   0.37646   0.38416   0.39832   0.39887
 Alpha virt. eigenvalues --    0.40191   0.40436   0.40942   0.41352   0.41671
 Alpha virt. eigenvalues --    0.42357   0.42769   0.43672   0.44022   0.44394
 Alpha virt. eigenvalues --    0.45029   0.45510   0.45942   0.46270   0.47129
 Alpha virt. eigenvalues --    0.47692   0.48048   0.48607   0.48834   0.49507
 Alpha virt. eigenvalues --    0.50002   0.50248   0.50421   0.50920   0.51440
 Alpha virt. eigenvalues --    0.51699   0.52045   0.52331   0.52530   0.53499
 Alpha virt. eigenvalues --    0.53702   0.54068   0.54193   0.55138   0.55308
 Alpha virt. eigenvalues --    0.55882   0.56255   0.56642   0.57096   0.57628
 Alpha virt. eigenvalues --    0.57892   0.58261   0.58970   0.59152   0.59303
 Alpha virt. eigenvalues --    0.59713   0.59950   0.60150   0.60949   0.61630
 Alpha virt. eigenvalues --    0.61697   0.61843   0.62416   0.62538   0.63422
 Alpha virt. eigenvalues --    0.63791   0.64343   0.64529   0.65017   0.65243
 Alpha virt. eigenvalues --    0.65572   0.66146   0.66220   0.66621   0.67309
 Alpha virt. eigenvalues --    0.67716   0.67879   0.68268   0.68614   0.68897
 Alpha virt. eigenvalues --    0.69393   0.69695   0.70230   0.70498   0.70936
 Alpha virt. eigenvalues --    0.71088   0.72196   0.72469   0.72687   0.73396
 Alpha virt. eigenvalues --    0.73792   0.74252   0.74653   0.75201   0.75397
 Alpha virt. eigenvalues --    0.75717   0.75907   0.76084   0.76519   0.76786
 Alpha virt. eigenvalues --    0.77391   0.77827   0.77893   0.78066   0.78566
 Alpha virt. eigenvalues --    0.78796   0.79448   0.79848   0.80118   0.80418
 Alpha virt. eigenvalues --    0.80836   0.81766   0.81831   0.82292   0.83208
 Alpha virt. eigenvalues --    0.83516   0.83647   0.83991   0.84509   0.84953
 Alpha virt. eigenvalues --    0.85561   0.85976   0.86127   0.87421   0.87801
 Alpha virt. eigenvalues --    0.88174   0.88483   0.88650   0.89312   0.89547
 Alpha virt. eigenvalues --    0.90271   0.90987   0.91147   0.91658   0.91883
 Alpha virt. eigenvalues --    0.92134   0.93075   0.93291   0.93877   0.94382
 Alpha virt. eigenvalues --    0.94767   0.95056   0.95568   0.96006   0.96631
 Alpha virt. eigenvalues --    0.96905   0.97343   0.97879   0.98039   0.98679
 Alpha virt. eigenvalues --    0.99008   0.99795   1.00089   1.00708   1.01838
 Alpha virt. eigenvalues --    1.01968   1.02335   1.02750   1.02930   1.03342
 Alpha virt. eigenvalues --    1.03563   1.04185   1.04494   1.04850   1.05510
 Alpha virt. eigenvalues --    1.05910   1.06282   1.06735   1.07132   1.07937
 Alpha virt. eigenvalues --    1.08603   1.09138   1.09340   1.09675   1.10374
 Alpha virt. eigenvalues --    1.11341   1.11513   1.12189   1.13409   1.13664
 Alpha virt. eigenvalues --    1.13887   1.14152   1.15078   1.15210   1.15363
 Alpha virt. eigenvalues --    1.15746   1.16532   1.16938   1.17243   1.17584
 Alpha virt. eigenvalues --    1.18323   1.18343   1.18684   1.19194   1.19504
 Alpha virt. eigenvalues --    1.19972   1.20385   1.20805   1.20955   1.21368
 Alpha virt. eigenvalues --    1.21809   1.22377   1.22535   1.22890   1.23060
 Alpha virt. eigenvalues --    1.23465   1.24066   1.24235   1.24675   1.25121
 Alpha virt. eigenvalues --    1.25688   1.25937   1.26504   1.27650   1.27970
 Alpha virt. eigenvalues --    1.28559   1.29384   1.29436   1.30074   1.31273
 Alpha virt. eigenvalues --    1.31645   1.32174   1.33445   1.33705   1.34364
 Alpha virt. eigenvalues --    1.34527   1.35347   1.35715   1.36037   1.36676
 Alpha virt. eigenvalues --    1.38028   1.38669   1.38918   1.39261   1.40193
 Alpha virt. eigenvalues --    1.41825   1.42453   1.42492   1.44244   1.44580
 Alpha virt. eigenvalues --    1.44814   1.45095   1.47443   1.47786   1.48156
 Alpha virt. eigenvalues --    1.48391   1.48968   1.49190   1.49469   1.50052
 Alpha virt. eigenvalues --    1.50503   1.51345   1.51870   1.52804   1.53969
 Alpha virt. eigenvalues --    1.54603   1.56011   1.56072   1.56457   1.57432
 Alpha virt. eigenvalues --    1.58216   1.59157   1.59432   1.60319   1.61236
 Alpha virt. eigenvalues --    1.61465   1.62007   1.62510   1.62988   1.63635
 Alpha virt. eigenvalues --    1.64678   1.65256   1.65983   1.66525   1.66653
 Alpha virt. eigenvalues --    1.67184   1.67909   1.67956   1.68324   1.69207
 Alpha virt. eigenvalues --    1.69654   1.69994   1.70083   1.70365   1.71173
 Alpha virt. eigenvalues --    1.71694   1.72038   1.72352   1.73169   1.73478
 Alpha virt. eigenvalues --    1.73626   1.74296   1.74607   1.74947   1.75198
 Alpha virt. eigenvalues --    1.75531   1.75700   1.76087   1.76473   1.76906
 Alpha virt. eigenvalues --    1.77583   1.77854   1.78144   1.78703   1.79119
 Alpha virt. eigenvalues --    1.79843   1.80098   1.80137   1.80212   1.80793
 Alpha virt. eigenvalues --    1.80924   1.81222   1.81410   1.81704   1.82141
 Alpha virt. eigenvalues --    1.82624   1.83182   1.83582   1.83648   1.84383
 Alpha virt. eigenvalues --    1.84738   1.85764   1.86281   1.86500   1.87359
 Alpha virt. eigenvalues --    1.87691   1.88009   1.88082   1.88544   1.88680
 Alpha virt. eigenvalues --    1.89120   1.89240   1.90513   1.90848   1.91409
 Alpha virt. eigenvalues --    1.91912   1.92548   1.93110   1.93320   1.93524
 Alpha virt. eigenvalues --    1.93892   1.95211   1.95412   1.95827   1.96719
 Alpha virt. eigenvalues --    1.98114   1.99042   1.99814   2.00411   2.00818
 Alpha virt. eigenvalues --    2.01513   2.01588   2.02321   2.03888   2.03947
 Alpha virt. eigenvalues --    2.04605   2.05724   2.06233   2.06817   2.07196
 Alpha virt. eigenvalues --    2.07872   2.08628   2.08757   2.09359   2.10146
 Alpha virt. eigenvalues --    2.10576   2.10927   2.11740   2.11859   2.12589
 Alpha virt. eigenvalues --    2.13914   2.14441   2.14788   2.16135   2.17779
 Alpha virt. eigenvalues --    2.18182   2.19496   2.19799   2.20222   2.21066
 Alpha virt. eigenvalues --    2.21572   2.22003   2.22748   2.23205   2.23768
 Alpha virt. eigenvalues --    2.24020   2.25458   2.25623   2.25824   2.26862
 Alpha virt. eigenvalues --    2.27491   2.28349   2.29180   2.29414   2.29700
 Alpha virt. eigenvalues --    2.29824   2.30504   2.31031   2.32123   2.32540
 Alpha virt. eigenvalues --    2.33157   2.33898   2.34103   2.34355   2.34578
 Alpha virt. eigenvalues --    2.34952   2.35605   2.36406   2.36972   2.37685
 Alpha virt. eigenvalues --    2.38319   2.38923   2.40161   2.41235   2.41542
 Alpha virt. eigenvalues --    2.41861   2.42310   2.43221   2.43515   2.44423
 Alpha virt. eigenvalues --    2.44911   2.45338   2.45769   2.46233   2.46657
 Alpha virt. eigenvalues --    2.47472   2.48320   2.48952   2.50324   2.51562
 Alpha virt. eigenvalues --    2.51611   2.53473   2.54337   2.54515   2.55827
 Alpha virt. eigenvalues --    2.56166   2.56908   2.57001   2.58324   2.59545
 Alpha virt. eigenvalues --    2.60259   2.61169   2.61608   2.62244   2.62857
 Alpha virt. eigenvalues --    2.64067   2.64748   2.64997   2.65203   2.66080
 Alpha virt. eigenvalues --    2.67082   2.67905   2.68193   2.68511   2.69220
 Alpha virt. eigenvalues --    2.69762   2.70453   2.71009   2.71671   2.72654
 Alpha virt. eigenvalues --    2.73345   2.73884   2.74448   2.75403   2.75846
 Alpha virt. eigenvalues --    2.77947   2.78567   2.79017   2.79368   2.79551
 Alpha virt. eigenvalues --    2.79948   2.80255   2.80429   2.81105   2.81244
 Alpha virt. eigenvalues --    2.81898   2.82321   2.82757   2.83610   2.84186
 Alpha virt. eigenvalues --    2.84691   2.85463   2.86125   2.86794   2.87001
 Alpha virt. eigenvalues --    2.87681   2.88112   2.88962   2.91279   2.91547
 Alpha virt. eigenvalues --    2.94170   2.96112   2.97177   2.98041   2.99103
 Alpha virt. eigenvalues --    2.99919   3.01324   3.02681   3.04392   3.05744
 Alpha virt. eigenvalues --    3.06904   3.09910   3.10339   3.13611   3.14706
 Alpha virt. eigenvalues --    3.15211   3.15507   3.15981   3.17332   3.20009
 Alpha virt. eigenvalues --    3.21902   3.22331   3.23487   3.23670   3.26027
 Alpha virt. eigenvalues --    3.46060   3.47007   3.47563   3.49840   3.50418
 Alpha virt. eigenvalues --    3.53197   3.53893   3.55965   3.57767   3.59825
 Alpha virt. eigenvalues --    3.62307   3.70996   3.74310
          Condensed to atoms (all electrons):
 Mulliken charges:
               1
     1  N   -0.311060
     2  C    0.180962
     3  C    0.031796
     4  N   -0.258830
     5  C    0.133513
     6  H    0.026907
     7  N   -0.290284
     8  C    0.130545
     9  H    0.009215
    10  N   -0.289763
    11  C    0.241454
    12  C    0.125232
    13  N   -0.054765
    14  H    0.108916
    15  H    0.089573
    16  H    0.025701
    17  H    0.034698
    18  H    0.026016
    19  N   -0.310897
    20  C    0.241569
    21  C    0.181704
    22  N   -0.116752
    23  H    0.116452
    24  H    0.116578
    25  N   -0.292272
    26  C    0.225067
    27  N   -0.120863
    28  H    0.115622
    29  C    0.153577
    30  O   -0.319078
    31  C   -0.001617
    32  N   -0.220509
    33  C    0.130834
    34  H    0.031095
    35  H    0.029934
    36  H    0.027991
    37  H    0.024923
    38  H    0.062540
    39  H    0.059386
    40  H    0.073252
    41  H    0.031939
    42  C   -0.112998
    43  O   -0.269491
    44  C    0.164535
    45  H    0.136451
    46  N   -0.132587
    47  O   -0.350236
    48  C    0.362054
    49  H    0.049282
    50  C    0.174560
    51  C    0.043444
    52  N   -0.295165
    53  H    0.033444
    54  H    0.044982
    55  H    0.008501
    56  H    0.126544
    57  H    0.113462
    58  N   -0.060222
    59  C    0.100629
    60  C    0.230144
    61  N   -0.258448
    62  H    0.053574
    63  C    0.149144
    64  N   -0.296705
    65  H    0.028571
    66  C    0.128929
    67  N   -0.268225
    68  C    0.027731
    69  C    0.175348
    70  N   -0.307548
 Sum of Mulliken charges =  -0.00000
 Mulliken charges with hydrogens summed into heavy atoms:
               1
     1  N   -0.311060
     2  C    0.267376
     3  C    0.031796
     4  N   -0.258830
     5  C    0.160419
     7  N   -0.290284
     8  C    0.139760
    10  N   -0.289763
    11  C    0.241454
    12  C    0.125232
    13  N    0.143724
    19  N   -0.310897
    20  C    0.241569
    21  C    0.264551
    22  N    0.116278
    25  N   -0.292272
    26  C    0.225067
    27  N   -0.005241
    29  C    0.153577
    30  O   -0.319078
    31  C   -0.001617
    32  N   -0.220509
    33  C    0.161929
    42  C   -0.081060
    43  O   -0.269491
    44  C    0.164535
    46  N    0.003864
    47  O   -0.350236
    48  C    0.362054
    50  C    0.223842
    51  C    0.238622
    52  N   -0.295165
    58  N    0.179784
    59  C    0.100629
    60  C    0.230144
    61  N   -0.258448
    63  C    0.202717
    64  N   -0.296705
    66  C    0.157500
    67  N   -0.268225
    68  C    0.027731
    69  C    0.262275
    70  N   -0.307548
 Electronic spatial extent (au):  <R**2>=          24040.7420
 Charge=             -0.0000 electrons
 Dipole moment (field-independent basis, Debye):
    X=              8.3076    Y=              5.4517    Z=              2.0913  Tot=             10.1544
 Quadrupole moment (field-independent basis, Debye-Ang):
   XX=           -147.9173   YY=           -217.7064   ZZ=           -251.0693
   XY=              2.0454   XZ=             12.2544   YZ=             -8.0065
 Traceless Quadrupole moment (field-independent basis, Debye-Ang):
   XX=             57.6471   YY=            -12.1421   ZZ=            -45.5050
   XY=              2.0454   XZ=             12.2544   YZ=             -8.0065
 Octapole moment (field-independent basis, Debye-Ang**2):
  XXX=             34.8868  YYY=            135.0067  ZZZ=              1.0556  XYY=             79.8340
  XXY=            -89.9878  XXZ=            -67.4615  XZZ=             21.2786  YZZ=             37.1381
  YYZ=             39.7656  XYZ=             47.9623
 Hexadecapole moment (field-independent basis, Debye-Ang**3):
 XXXX=         -15445.2522 YYYY=          -6487.1724 ZZZZ=          -3256.3229 XXXY=            422.0515
 XXXZ=            191.8171 YYYX=            -40.7430 YYYZ=           -107.9331 ZZZX=             53.7866
 ZZZY=             38.4717 XXYY=          -3928.4286 XXZZ=          -4117.8913 YYZZ=          -1609.8563
 XXYZ=            104.4451 YYXZ=            233.8081 ZZXY=             40.8123
 N-N= 5.422830557526D+03 E-N=-1.562661453768D+04  KE= 2.037731430616D+03
 No NMR shielding tensors so no spin-rotation constants.
 Leave Link  601 at Thu Jan 25 04:11:55 2018, MaxMem=  4294967296 cpu:              47.4 elap:               1.7
 (Enter /share/apps/g16/l9999.exe)
 1\1\GINC-COMPUTE-0-3\SP\RwB97XD\CC-pVDZ\C23H27N17O3\SATYA\25-Jan-2018\
 0\\#p wb97xd/cc-pvdz sp scf=(maxcycles=20)\\Base pair stacking\\0,1\N,
 0,9.06051,2.45925,-5.75152\C,0,10.32979,3.209,-5.82084\C,0,6.9297,1.91
 601,-5.79464\N,0,7.62023,0.75395,-5.48237\C,0,8.87632,1.12774,-5.46889
 \H,0,9.71752,0.46717,-5.2568\N,0,5.20502,3.45298,-6.2702\C,0,6.16558,4
 .37368,-6.40141\H,0,5.81857,5.37534,-6.65145\N,0,7.48424,4.24343,-6.27
 074\C,0,7.80409,2.97548,-5.96344\C,0,5.55924,2.18659,-5.96059\N,0,4.60
 182,1.26612,-5.82918\H,0,4.81809,0.31624,-5.60076\H,0,3.63627,1.49449,
 -5.9545\H,0,10.91679,2.80896,-6.52481\H,0,10.14168,4.16401,-6.04823\H,
 0,10.79463,3.164,-4.93659\N,0,3.74634,5.90189,-3.16396\C,0,2.53308,5.2
 6007,-3.22811\C,0,3.94946,7.35868,-3.29515\N,0,-0.91623,5.37979,-3.615
 \H,0,-1.67963,4.73463,-3.62998\H,0,-1.13729,6.34728,-3.74075\N,0,1.332
 31,5.8477,-3.42022\C,0,0.34748,4.96706,-3.43446\N,0,0.52302,3.61404,-3
 .27309\H,0,-0.28804,3.01528,-3.29812\C,0,1.7493,2.98754,-3.07412\O,0,1
 .7983,1.75862,-2.93954\C,0,2.81686,3.92075,-3.05644\N,0,4.18084,3.7256
 6,-2.88791\C,0,4.69036,4.92548,-2.95882\H,0,5.75248,5.15544,-2.86775\H
 ,0,4.54572,7.54484,-4.07529\H,0,3.06683,7.80462,-3.43783\H,0,4.37062,7
 .71458,-2.46162\H,0,-4.63421,0.5224,-4.16361\H,0,-4.70166,0.45141,-2.4
 0433\H,0,-3.94144,1.8288,-3.20197\H,0,-1.51456,-3.03817,-3.3053\C,0,-1
 .5562,-1.94973,-3.26298\O,0,0.79838,-1.67992,-3.16181\C,0,-0.33674,-1.
 20485,-3.18617\H,0,0.33701,0.72482,-3.08247\N,0,-0.502,0.16465,-3.1372
 5\O,0,-1.73255,2.07307,-3.10742\C,0,-1.68723,0.85636,-3.15478\H,0,-3.6
 8316,-1.82325,-3.33943\C,0,-2.72775,-1.30342,-3.28182\C,0,-4.10888,0.7
 6313,-3.25139\N,0,-2.81877,0.06822,-3.22996\H,0,-2.23623,5.8289,-7.560
 61\H,0,-1.02326,6.1283,-6.51124\H,0,-2.53253,5.8495,-5.95587\H,0,1.362
 89,-0.46587,-5.98333\H,0,-0.31384,-0.41352,-6.29306\N,0,0.54185,0.0826
 5,-6.14198\C,0,0.58505,1.41652,-6.15185\C,0,-0.33723,3.60088,-6.35103\
 N,0,0.82598,4.24041,-6.14519\H,0,2.79397,3.80244,-5.77663\C,0,1.8115,3
 .36618,-5.95187\N,0,1.77025,2.02985,-5.94161\H,0,-3.50094,3.27193,-6.9
 2971\C,0,-2.4406,3.11201,-6.73215\N,0,-1.87399,1.93634,-6.61201\C,0,-0
 .54025,2.23196,-6.37015\C,0,-1.86382,5.60802,-6.65921\N,0,-1.56935,4.1
 6376,-6.58563\\Version=EM64L-G16RevA.03\State=1-A\HF=-2048.7411015\RMS
 D=5.953e-09\Dipole=-3.6960106,1.4534414,-0.4327662\Quadrupole=42.23948
 02,-7.2536441,-34.9858361,9.317631,-1.6001113,5.6986756\PG=C01 [X(C23H
 27N17O3)]\\@


 WE HAVE LEFT UNDONE THOSE THINGS WHICH WE OUGHT TO HAVE DONE,
 AND WE HAVE DONE THOSE THINGS WHICH WE OUGHT NOT TO HAVE DONE.
                   BOOK OF COMMON PRAYER                      
 Job cpu time:       0 days  5 hours 49 minutes 26.7 seconds.
 Elapsed time:       0 days  0 hours 11 minutes 20.5 seconds.
 File lengths (MBytes):  RWF=    298 Int=      0 D2E=      0 Chk=     33 Scr=      1
 Normal termination of Gaussian 16 at Thu Jan 25 04:11:55 2018.
