 Entering Gaussian System, Link 0=g16
 Input=str50.-20.2.0.com
 Output=str50.-20.2.0.log
 Initial command:
 /share/apps/g16/l1.exe "/state/partition1/scr/Gau-18601.inp" -scrdir="/state/partition1/scr/"
 Entering Link 1 = /share/apps/g16/l1.exe PID=     18602.
  
 Copyright (c) 1988,1990,1992,1993,1995,1998,2003,2009,2016,
            Gaussian, Inc.  All Rights Reserved.
  
 This is part of the Gaussian(R) 16 program.  It is based on
 the Gaussian(R) 09 system (copyright 2009, Gaussian, Inc.),
 the Gaussian(R) 03 system (copyright 2003, Gaussian, Inc.),
 the Gaussian(R) 98 system (copyright 1998, Gaussian, Inc.),
 the Gaussian(R) 94 system (copyright 1995, Gaussian, Inc.),
 the Gaussian 92(TM) system (copyright 1992, Gaussian, Inc.),
 the Gaussian 90(TM) system (copyright 1990, Gaussian, Inc.),
 the Gaussian 88(TM) system (copyright 1988, Gaussian, Inc.),
 the Gaussian 86(TM) system (copyright 1986, Carnegie Mellon
 University), and the Gaussian 82(TM) system (copyright 1983,
 Carnegie Mellon University). Gaussian is a federally registered
 trademark of Gaussian, Inc.
  
 This software contains proprietary and confidential information,
 including trade secrets, belonging to Gaussian, Inc.
  
 This software is provided under written license and may be
 used, copied, transmitted, or stored only in accord with that
 written license.
  
 The following legend is applicable only to US Government
 contracts under FAR:
  
                    RESTRICTED RIGHTS LEGEND
  
 Use, reproduction and disclosure by the US Government is
 subject to restrictions as set forth in subparagraphs (a)
 and (c) of the Commercial Computer Software - Restricted
 Rights clause in FAR 52.227-19.
  
 Gaussian, Inc.
 340 Quinnipiac St., Bldg. 40, Wallingford CT 06492
  
  
 ---------------------------------------------------------------
 Warning -- This program may not be used in any manner that
 competes with the business of Gaussian, Inc. or will provide
 assistance to any competitor of Gaussian, Inc.  The licensee
 of this program is prohibited from giving any competitor of
 Gaussian, Inc. access to this program.  By using this program,
 the user acknowledges that Gaussian, Inc. is engaged in the
 business of creating and licensing software in the field of
 computational chemistry and represents and warrants to the
 licensee that it is not a competitor of Gaussian, Inc. and that
 it will not use this program in any manner prohibited above.
 ---------------------------------------------------------------
  

 Cite this work as:
 Gaussian 16, Revision A.03,
 M. J. Frisch, G. W. Trucks, H. B. Schlegel, G. E. Scuseria, 
 M. A. Robb, J. R. Cheeseman, G. Scalmani, V. Barone, 
 G. A. Petersson, H. Nakatsuji, X. Li, M. Caricato, A. V. Marenich, 
 J. Bloino, B. G. Janesko, R. Gomperts, B. Mennucci, H. P. Hratchian, 
 J. V. Ortiz, A. F. Izmaylov, J. L. Sonnenberg, D. Williams-Young, 
 F. Ding, F. Lipparini, F. Egidi, J. Goings, B. Peng, A. Petrone, 
 T. Henderson, D. Ranasinghe, V. G. Zakrzewski, J. Gao, N. Rega, 
 G. Zheng, W. Liang, M. Hada, M. Ehara, K. Toyota, R. Fukuda, 
 J. Hasegawa, M. Ishida, T. Nakajima, Y. Honda, O. Kitao, H. Nakai, 
 T. Vreven, K. Throssell, J. A. Montgomery, Jr., J. E. Peralta, 
 F. Ogliaro, M. J. Bearpark, J. J. Heyd, E. N. Brothers, K. N. Kudin, 
 V. N. Staroverov, T. A. Keith, R. Kobayashi, J. Normand, 
 K. Raghavachari, A. P. Rendell, J. C. Burant, S. S. Iyengar, 
 J. Tomasi, M. Cossi, J. M. Millam, M. Klene, C. Adamo, R. Cammi, 
 J. W. Ochterski, R. L. Martin, K. Morokuma, O. Farkas, 
 J. B. Foresman, and D. J. Fox, Gaussian, Inc., Wallingford CT, 2016.
 
 ******************************************
 Gaussian 16:  EM64L-G16RevA.03 25-Dec-2016
                24-Jan-2018 
 ******************************************
 %nprocshared=32
 Will use up to   32 processors via shared memory.
 %mem=32GB
 %chk=allatoms_t.chk
 ---------------------------------------
 #p wb97xd/cc-pvdz sp scf=(maxcycles=20)
 ---------------------------------------
 1/38=1,172=1/1;
 2/12=2,17=6,18=5,40=1/2;
 3/5=16,11=2,25=1,30=1,74=-58/1,2,3;
 4//1;
 5/5=2,7=20,38=5/2;
 6/7=2,8=2,9=2,10=2,28=1/1;
 99/5=1,9=1/99;
 Leave Link    1 at Wed Jan 24 22:49:13 2018, MaxMem=  4294967296 cpu:               2.7 elap:               0.1
 (Enter /share/apps/g16/l101.exe)
 ------------------
 Base pair stacking
 ------------------
 Symbolic Z-matrix:
 Charge =  0 Multiplicity = 1
 N                     1.09529  -1.0112   -7.25555 
 C                     2.33928  -0.25173  -7.48726 
 C                    -0.93328  -1.59296  -6.63604 
 N                    -0.38772  -2.70101  -7.26796 
 C                     0.81258  -2.30617  -7.6159 
 H                     1.54028  -2.92437  -8.14241 
 N                    -2.41     -0.14852  -5.4977 
 C                    -1.43905   0.76856  -5.55921 
 H                    -1.67831   1.73012  -5.10707 
 N                    -0.22265   0.67663  -6.09289 
 C                    -0.03093  -0.54365  -6.62071 
 C                    -2.18617  -1.36641  -6.03783 
 N                    -3.15417  -2.28319  -5.97741 
 H                    -3.03228  -3.19797  -6.36412 
 H                    -4.03373  -2.08701  -5.54379 
 H                     2.51639  -0.19121  -8.46968 
 H                     2.24402   0.66875  -7.1094 
 H                     3.10393  -0.71613  -7.04046 
 N                     1.37146   2.30808  -3.31451 
 C                     0.18669   1.66295  -3.05341 
 C                     1.57485   3.77011  -3.27181 
 N                    -3.17435   1.77998  -2.18656 
 H                    -3.92073   1.1319   -2.03773 
 H                    -3.38617   2.75063  -2.06953 
 N                    -0.98131   2.25153  -2.71668 
 C                    -1.94436   1.36696  -2.52777 
 N                    -1.77833   0.0094   -2.65815 
 H                    -2.57098  -0.59217  -2.49447 
 C                    -0.58561  -0.61817  -3.00373 
 O                    -0.54245  -1.8513   -3.09464 
 C                     0.45825   0.31924  -3.20988 
 N                     1.78678   0.12469  -3.56212 
 C                     2.28781   1.32913  -3.6122 
 H                     3.32374   1.56085  -3.86203 
 H                     1.8699    4.09364  -4.17018 
 H                     0.71635   4.2168   -3.02339 
 H                     2.27334   3.99143  -2.59214 
 H                    -7.04375  -2.98932  -2.17716 
 H                    -6.49857  -3.35092  -0.5411 
 H                    -6.00801  -1.84674  -1.32094 
 H                    -3.96634  -6.58341  -3.04817 
 C                    -3.94681  -5.51786  -2.81917 
 O                    -1.69493  -5.22421  -3.50466 
 C                    -2.74768  -4.77307  -3.05415 
 H                    -2.00274  -2.87464  -2.8828 
 N                    -2.83035  -3.43377  -2.73059 
 O                    -3.89595  -1.57992  -1.96577 
 C                    -3.91895  -2.77106  -2.22137 
 H                    -5.9609   -5.42052  -2.12651 
 C                    -5.02488  -4.89945  -2.32325 
 C                    -6.22497  -2.8926   -1.4798 
 N                    -5.03689  -3.55713  -2.02257 
 H                    -9.21208   2.05692  -2.09915 
 H                    -7.64857   1.85055  -1.68089 
 H                    -8.83244   1.22645  -0.74652 
 H                    -6.42983  -3.89555  -5.54773 
 H                    -8.05362  -3.80123  -5.03343 
 N                    -7.13736  -3.39928  -5.04447 
 C                    -6.87186  -2.25241  -4.41569 
 C                    -7.40396  -0.3451   -3.0963 
 N                    -6.16427   0.17121  -3.12812 
 H                    -4.32149  -0.26359  -3.9128 
 C                    -5.35115  -0.61025  -3.83598 
 N                    -5.61515  -1.75929  -4.46651 
 H                    -10.53943  -0.53532  -2.33158 
 C                    -9.53381  -0.70412  -2.71779 
 N                    -9.17905  -1.73274  -3.4484 
 C                    -7.83094  -1.51745  -3.69532 
 C                    -8.55414   1.42741  -1.68585 
 N                    -8.50934   0.1756   -2.46622 
 
 ITRead=  0  0  0  0  0  0  0  0  0  0  0  0  0  0  0  0  0  0  0  0
 ITRead=  0  0  0  0  0  0  0  0  0  0  0  0  0  0  0  0  0  0  0  0
 ITRead=  0  0  0  0  0  0  0  0  0  0  0  0  0  0  0  0  0  0  0  0
 ITRead=  0  0  0  0  0  0  0  0  0  0
 MicOpt= -1 -1 -1 -1 -1 -1 -1 -1 -1 -1 -1 -1 -1 -1 -1 -1 -1 -1 -1 -1
 MicOpt= -1 -1 -1 -1 -1 -1 -1 -1 -1 -1 -1 -1 -1 -1 -1 -1 -1 -1 -1 -1
 MicOpt= -1 -1 -1 -1 -1 -1 -1 -1 -1 -1 -1 -1 -1 -1 -1 -1 -1 -1 -1 -1
 MicOpt= -1 -1 -1 -1 -1 -1 -1 -1 -1 -1
 NAtoms=     70 NQM=       70 NQMF=       0 NMMI=      0 NMMIF=      0
                NMic=       0 NMicF=      0.
                    Isotopes and Nuclear Properties:
 (Nuclear quadrupole moments (NQMom) in fm**2, nuclear magnetic moments (NMagM)
  in nuclear magnetons)

  Atom         1           2           3           4           5           6           7           8           9          10
 IAtWgt=          14          12          12          14          12           1          14          12           1          14
 AtmWgt=  14.0030740  12.0000000  12.0000000  14.0030740  12.0000000   1.0078250  14.0030740  12.0000000   1.0078250  14.0030740
 NucSpn=           2           0           0           2           0           1           2           0           1           2
 AtZEff=  -0.0000000  -0.0000000  -0.0000000  -0.0000000  -0.0000000  -0.0000000  -0.0000000  -0.0000000  -0.0000000  -0.0000000
 NQMom=    2.0440000   0.0000000   0.0000000   2.0440000   0.0000000   0.0000000   2.0440000   0.0000000   0.0000000   2.0440000
 NMagM=    0.4037610   0.0000000   0.0000000   0.4037610   0.0000000   2.7928460   0.4037610   0.0000000   2.7928460   0.4037610
 AtZNuc=   7.0000000   6.0000000   6.0000000   7.0000000   6.0000000   1.0000000   7.0000000   6.0000000   1.0000000   7.0000000

  Atom        11          12          13          14          15          16          17          18          19          20
 IAtWgt=          12          12          14           1           1           1           1           1          14          12
 AtmWgt=  12.0000000  12.0000000  14.0030740   1.0078250   1.0078250   1.0078250   1.0078250   1.0078250  14.0030740  12.0000000
 NucSpn=           0           0           2           1           1           1           1           1           2           0
 AtZEff=  -0.0000000  -0.0000000  -0.0000000  -0.0000000  -0.0000000  -0.0000000  -0.0000000  -0.0000000  -0.0000000  -0.0000000
 NQMom=    0.0000000   0.0000000   2.0440000   0.0000000   0.0000000   0.0000000   0.0000000   0.0000000   2.0440000   0.0000000
 NMagM=    0.0000000   0.0000000   0.4037610   2.7928460   2.7928460   2.7928460   2.7928460   2.7928460   0.4037610   0.0000000
 AtZNuc=   6.0000000   6.0000000   7.0000000   1.0000000   1.0000000   1.0000000   1.0000000   1.0000000   7.0000000   6.0000000

  Atom        21          22          23          24          25          26          27          28          29          30
 IAtWgt=          12          14           1           1          14          12          14           1          12          16
 AtmWgt=  12.0000000  14.0030740   1.0078250   1.0078250  14.0030740  12.0000000  14.0030740   1.0078250  12.0000000  15.9949146
 NucSpn=           0           2           1           1           2           0           2           1           0           0
 AtZEff=  -0.0000000  -0.0000000  -0.0000000  -0.0000000  -0.0000000  -0.0000000  -0.0000000  -0.0000000  -0.0000000  -0.0000000
 NQMom=    0.0000000   2.0440000   0.0000000   0.0000000   2.0440000   0.0000000   2.0440000   0.0000000   0.0000000   0.0000000
 NMagM=    0.0000000   0.4037610   2.7928460   2.7928460   0.4037610   0.0000000   0.4037610   2.7928460   0.0000000   0.0000000
 AtZNuc=   6.0000000   7.0000000   1.0000000   1.0000000   7.0000000   6.0000000   7.0000000   1.0000000   6.0000000   8.0000000

  Atom        31          32          33          34          35          36          37          38          39          40
 IAtWgt=          12          14          12           1           1           1           1           1           1           1
 AtmWgt=  12.0000000  14.0030740  12.0000000   1.0078250   1.0078250   1.0078250   1.0078250   1.0078250   1.0078250   1.0078250
 NucSpn=           0           2           0           1           1           1           1           1           1           1
 AtZEff=  -0.0000000  -0.0000000  -0.0000000  -0.0000000  -0.0000000  -0.0000000  -0.0000000  -0.0000000  -0.0000000  -0.0000000
 NQMom=    0.0000000   2.0440000   0.0000000   0.0000000   0.0000000   0.0000000   0.0000000   0.0000000   0.0000000   0.0000000
 NMagM=    0.0000000   0.4037610   0.0000000   2.7928460   2.7928460   2.7928460   2.7928460   2.7928460   2.7928460   2.7928460
 AtZNuc=   6.0000000   7.0000000   6.0000000   1.0000000   1.0000000   1.0000000   1.0000000   1.0000000   1.0000000   1.0000000

  Atom        41          42          43          44          45          46          47          48          49          50
 IAtWgt=           1          12          16          12           1          14          16          12           1          12
 AtmWgt=   1.0078250  12.0000000  15.9949146  12.0000000   1.0078250  14.0030740  15.9949146  12.0000000   1.0078250  12.0000000
 NucSpn=           1           0           0           0           1           2           0           0           1           0
 AtZEff=  -0.0000000  -0.0000000  -0.0000000  -0.0000000  -0.0000000  -0.0000000  -0.0000000  -0.0000000  -0.0000000  -0.0000000
 NQMom=    0.0000000   0.0000000   0.0000000   0.0000000   0.0000000   2.0440000   0.0000000   0.0000000   0.0000000   0.0000000
 NMagM=    2.7928460   0.0000000   0.0000000   0.0000000   2.7928460   0.4037610   0.0000000   0.0000000   2.7928460   0.0000000
 AtZNuc=   1.0000000   6.0000000   8.0000000   6.0000000   1.0000000   7.0000000   8.0000000   6.0000000   1.0000000   6.0000000

  Atom        51          52          53          54          55          56          57          58          59          60
 IAtWgt=          12          14           1           1           1           1           1          14          12          12
 AtmWgt=  12.0000000  14.0030740   1.0078250   1.0078250   1.0078250   1.0078250   1.0078250  14.0030740  12.0000000  12.0000000
 NucSpn=           0           2           1           1           1           1           1           2           0           0
 AtZEff=  -0.0000000  -0.0000000  -0.0000000  -0.0000000  -0.0000000  -0.0000000  -0.0000000  -0.0000000  -0.0000000  -0.0000000
 NQMom=    0.0000000   2.0440000   0.0000000   0.0000000   0.0000000   0.0000000   0.0000000   2.0440000   0.0000000   0.0000000
 NMagM=    0.0000000   0.4037610   2.7928460   2.7928460   2.7928460   2.7928460   2.7928460   0.4037610   0.0000000   0.0000000
 AtZNuc=   6.0000000   7.0000000   1.0000000   1.0000000   1.0000000   1.0000000   1.0000000   7.0000000   6.0000000   6.0000000

  Atom        61          62          63          64          65          66          67          68          69          70
 IAtWgt=          14           1          12          14           1          12          14          12          12          14
 AtmWgt=  14.0030740   1.0078250  12.0000000  14.0030740   1.0078250  12.0000000  14.0030740  12.0000000  12.0000000  14.0030740
 NucSpn=           2           1           0           2           1           0           2           0           0           2
 AtZEff=  -0.0000000  -0.0000000  -0.0000000  -0.0000000  -0.0000000  -0.0000000  -0.0000000  -0.0000000  -0.0000000  -0.0000000
 NQMom=    2.0440000   0.0000000   0.0000000   2.0440000   0.0000000   0.0000000   2.0440000   0.0000000   0.0000000   2.0440000
 NMagM=    0.4037610   2.7928460   0.0000000   0.4037610   2.7928460   0.0000000   0.4037610   0.0000000   0.0000000   0.4037610
 AtZNuc=   7.0000000   1.0000000   6.0000000   7.0000000   1.0000000   6.0000000   7.0000000   6.0000000   6.0000000   7.0000000
 Leave Link  101 at Wed Jan 24 22:49:13 2018, MaxMem=  4294967296 cpu:               7.7 elap:               0.3
 (Enter /share/apps/g16/l202.exe)
 Stoichiometry    C23H27N17O3
 Framework group  C1[X(C23H27N17O3)]
 Deg. of freedom   204
 Full point group                 C1      NOp   1
 Largest Abelian subgroup         C1      NOp   1
 Largest concise Abelian subgroup C1      NOp   1
                         Standard orientation:                         
 ---------------------------------------------------------------------
 Center     Atomic      Atomic             Coordinates (Angstroms)
 Number     Number       Type             X           Y           Z
 ---------------------------------------------------------------------
      1          7           0        4.599656   -1.874793   -1.699736
      2          6           0        6.011383   -1.447863   -1.752213
      3          6           0        2.402078   -1.879087   -1.610491
      4          7           0        2.791831   -3.210200   -1.641548
      5          6           0        4.100189   -3.154334   -1.694074
      6          1           0        4.756908   -4.023995   -1.730700
      7          7           0        1.099628    0.085821   -1.535100
      8          6           0        2.253113    0.760730   -1.574244
      9          1           0        2.157885    1.845599   -1.557979
     10          7           0        3.500704    0.298911   -1.630223
     11          6           0        3.505427   -1.044283   -1.645775
     12          6           0        1.138049   -1.264486   -1.552099
     13          7           0       -0.012331   -1.939960   -1.513077
     14          1           0       -0.031445   -2.940332   -1.523743
     15          1           0       -0.893799   -1.469370   -1.471880
     16          1           0        6.434491   -1.793022   -2.590081
     17          1           0        6.059039   -0.449477   -1.742734
     18          1           0        6.501231   -1.810790   -0.959546
     19          7           0        4.716234    2.621113    0.829874
     20          6           0        3.381285    2.301330    0.890666
     21          6           0        5.261461    3.943279    0.462008
     22          7           0        0.049634    3.220276    0.548093
     23          1           0       -0.847878    2.792180    0.650309
     24          1           0        0.064968    4.181579    0.271713
     25          7           0        2.351650    3.134521    0.626690
     26          6           0        1.182284    2.536805    0.771376
     27          7           0        1.030690    1.223672    1.145857
     28          1           0        0.097813    0.850337    1.231488
     29          6           0        2.075911    0.347961    1.422434
     30          8           0        1.830625   -0.818896    1.752608
     31          6           0        3.338399    0.975776    1.271261
     32          7           0        4.620626    0.473472    1.445902
     33          6           0        5.403066    1.482404    1.173766
     34          1           0        6.492572    1.450311    1.208521
     35          1           0        5.840006    3.853479   -0.347941
     36          1           0        4.507952    4.568890    0.264264
     37          1           0        5.803294    4.304859    1.219965
     38          1           0       -4.767587   -0.577070    0.853232
     39          1           0       -4.750687   -0.360679    2.601820
     40          1           0       -3.723289    0.644837    1.579691
     41          1           0       -2.569270   -4.631908    2.221549
     42          6           0       -2.341189   -3.574322    2.088467
     43          8           0        0.009769   -3.890258    2.104839
     44          6           0       -0.974331   -3.155623    2.023433
     45          1           0        0.155326   -1.463388    1.803093
     46          7           0       -0.796857   -1.797345    1.853629
     47          8           0       -1.519981    0.339942    1.596122
     48          6           0       -1.776135   -0.841979    1.744863
     49          1           0       -4.373560   -2.932676    2.028701
     50          6           0       -3.318398   -2.665992    1.985502
     51          6           0       -4.148609   -0.339729    1.705642
     52          7           0       -3.068365   -1.323806    1.816987
     53          1           0       -5.556365    4.370839   -1.398056
     54          1           0       -4.246970    4.118264   -0.457959
     55          1           0       -5.741767    4.074595    0.196083
     56          1           0       -3.588383   -2.779245   -1.660490
     57          1           0       -5.212074   -2.264322   -1.753092
     58          7           0       -4.250949   -2.032682   -1.598823
     59          6           0       -3.870763   -0.783426   -1.323169
     60          6           0       -4.217656    1.538026   -0.932941
     61          7           0       -2.919980    1.819855   -0.730388
     62          1           0       -1.109658    0.859466   -0.698756
     63          6           0       -2.179368    0.719658   -0.848582
     64          7           0       -2.558260   -0.532462   -1.124615
     65          1           0       -7.389682    2.105140   -1.195207
     66          6           0       -6.395017    1.659605   -1.162598
     67          7           0       -6.139756    0.390655   -1.368301
     68          6           0       -4.762751    0.299983   -1.225621
     69          6           0       -5.199436    3.859636   -0.616227
     70          7           0       -5.277918    2.412266   -0.893667
 ---------------------------------------------------------------------
 Rotational constants (GHZ):           0.1316594           0.0585637           0.0505095
 Leave Link  202 at Wed Jan 24 22:49:13 2018, MaxMem=  4294967296 cpu:               0.4 elap:               0.0
 (Enter /share/apps/g16/l301.exe)
 Standard basis: CC-pVDZ (5D, 7F)
 Ernie: Thresh=  0.10000D-02 Tol=  0.10000D-05 Strict=F.
 Ernie:  86 primitive shells out of 1081 were deleted.
 There are   780 symmetry adapted cartesian basis functions of A   symmetry.
 There are   737 symmetry adapted basis functions of A   symmetry.
   737 basis functions,  1608 primitive gaussians,   780 cartesian basis functions
   154 alpha electrons      154 beta electrons
       nuclear repulsion energy      5532.5385701173 Hartrees.
 IExCor= 4639 DFT=T Ex+Corr=wB97XD ExCW=0 ScaHFX=  1.000000
 ScaDFX=  1.000000  1.000000  1.000000  1.000000 ScalE2=  1.000000  1.000000
 IRadAn=      5 IRanWt=     -1 IRanGd=            0 ICorTp=0 IEmpDi=121
 HFx  wShort=  0.000000 wLong=  0.200000 cFull=  0.222036 cShort=  0.000000 cLong=  0.777964
 DFx  wShort=  0.000000 wLong=  0.200000 cFull=  0.000000 cShort=  0.000000 cLong=  1.000000
 NAtoms=   70 NActive=   70 NUniq=   70 SFac= 1.00D+00 NAtFMM=   60 NAOKFM=T Big=T
 Integral buffers will be    131072 words long.
 Raffenetti 2 integral format.
 Two-electron integral symmetry is turned on.
 R6Disp:  Grimme-D2 Dispersion energy=       -0.0724785594 Hartrees.
 Nuclear repulsion after empirical dispersion term =     5532.4660915579 Hartrees.
 Leave Link  301 at Wed Jan 24 22:49:13 2018, MaxMem=  4294967296 cpu:               3.0 elap:               0.1
 (Enter /share/apps/g16/l302.exe)
 NPDir=0 NMtPBC=     1 NCelOv=     1 NCel=       1 NClECP=     1 NCelD=      1
         NCelK=      1 NCelE2=     1 NClLst=     1 CellRange=     0.0.
 One-electron integrals computed using PRISM.
 One-electron integral symmetry used in STVInt
 NBasis=   737 RedAO= T EigKep=  6.78D-04  NBF=   737
 NBsUse=   737 1.00D-06 EigRej= -1.00D+00 NBFU=   737
 Precomputing XC quadrature grid using
 IXCGrd= 4 IRadAn=           5 IRanWt=          -1 IRanGd=           0 AccXCQ= 0.00D+00.
 Generated NRdTot=       0 NPtTot=           0 NUsed=           0 NTot=          32
 NSgBfM=   762   762   762   762   762 MxSgAt=    70 MxSgA2=    70.
 Leave Link  302 at Wed Jan 24 22:49:18 2018, MaxMem=  4294967296 cpu:             137.9 elap:               4.4
 (Enter /share/apps/g16/l303.exe)
 DipDrv:  MaxL=1.
 Leave Link  303 at Wed Jan 24 22:49:18 2018, MaxMem=  4294967296 cpu:              12.6 elap:               0.4
 (Enter /share/apps/g16/l401.exe)
 ExpMin= 1.22D-01 ExpMax= 1.17D+04 ExpMxC= 4.01D+02 IAcc=3 IRadAn=         5 AccDes= 0.00D+00
 Harris functional with IExCor= 4639 and IRadAn=       5 diagonalized for initial guess.
 HarFok:  IExCor= 4639 AccDes= 0.00D+00 IRadAn=         5 IDoV= 1 UseB2=F ITyADJ=14
 ICtDFT=  3500011 ScaDFX=  1.000000  1.000000  1.000000  1.000000
 FoFCou: FMM=F IPFlag=           0 FMFlag=      100000 FMFlg1=        2001
         NFxFlg=           0 DoJE=T BraDBF=F KetDBF=T FulRan=T
         wScrn=  0.000000 ICntrl=       500 IOpCl=  0 I1Cent=   200000004 NGrid=           0
         NMat0=    1 NMatS0=      1 NMatT0=    0 NMatD0=    1 NMtDS0=    0 NMtDT0=    0
 Petite list used in FoFCou.
 Harris En= -1963.87015703543    
 JPrj=0 DoOrth=F DoCkMO=F.
 Leave Link  401 at Wed Jan 24 22:49:31 2018, MaxMem=  4294967296 cpu:             404.4 elap:              12.7
 (Enter /share/apps/g16/l502.exe)
 Integral symmetry usage will be decided dynamically.
 Closed shell SCF:
 Using DIIS extrapolation, IDIIS=  1040.
 NGot=  4294967296 LenX=  4293717438 LenY=  4293108258
 Requested convergence on RMS density matrix=1.00D-08 within  20 cycles.
 Requested convergence on MAX density matrix=1.00D-06.
 Requested convergence on             energy=1.00D-06.
 No special actions if energy rises.
 Fock matrices will be formed incrementally for  20 cycles.
 Integral accuracy reduced to 1.0D-05 until final iterations.

 Cycle   1  Pass 0  IDiag  1:
 FoFJK:  IHMeth= 1 ICntrl=       0 DoSepK=T KAlg= 0 I1Cent=           0 FoldK=F
 IRaf=         1 NMat=       1 IRICut=       1 DoRegI=T DoRafI=F ISym2E= 0 IDoP0=0 IntGTp=1.
 FoFCou: FMM=T IPFlag=           0 FMFlag=      100000 FMFlg1=        2001
         NFxFlg=           0 DoJE=T BraDBF=F KetDBF=F FulRan=T
         wScrn=  0.000000 ICntrl=       500 IOpCl=  0 I1Cent=           0 NGrid=           0
         NMat0=    1 NMatS0=      1 NMatT0=    0 NMatD0=    1 NMtDS0=    0 NMtDT0=    0
 Symmetry not used in FoFCou.
 FMM levels:  10  Number of levels for PrismC:   9
 E= -2048.30821424855    
 DIIS: error= 2.42D-02 at cycle   1 NSaved=   1.
 NSaved= 1 IEnMin= 1 EnMin= -2048.30821424855     IErMin= 1 ErrMin= 2.42D-02
 ErrMax= 2.42D-02  0.00D+00 EMaxC= 1.00D-01 BMatC= 8.28D-01 BMatP= 8.28D-01
 IDIUse=3 WtCom= 7.58D-01 WtEn= 2.42D-01
 Coeff-Com:  0.100D+01
 Coeff-En:   0.100D+01
 Coeff:      0.100D+01
 Gap=     0.253 Goal=   None    Shift=    0.000
 GapD=    0.253 DampG=1.000 DampE=0.500 DampFc=0.5000 IDamp=-1.
 Damping current iteration by 5.00D-01
 RMSDP=1.54D-03 MaxDP=1.33D-01              OVMax= 2.12D-01

 Cycle   2  Pass 0  IDiag  1:
 RMSU=  7.69D-04    CP:  9.98D-01
 E= -2048.50554582718     Delta-E=       -0.197331578627 Rises=F Damp=T
 DIIS: error= 1.35D-02 at cycle   2 NSaved=   2.
 NSaved= 2 IEnMin= 2 EnMin= -2048.50554582718     IErMin= 2 ErrMin= 1.35D-02
 ErrMax= 1.35D-02  0.00D+00 EMaxC= 1.00D-01 BMatC= 1.44D-01 BMatP= 8.28D-01
 IDIUse=3 WtCom= 8.65D-01 WtEn= 1.35D-01
 Coeff-Com: -0.208D+00 0.121D+01
 Coeff-En:   0.000D+00 0.100D+01
 Coeff:     -0.180D+00 0.118D+01
 Gap=     0.283 Goal=   None    Shift=    0.000
 RMSDP=5.82D-04 MaxDP=3.65D-02 DE=-1.97D-01 OVMax= 1.60D-01

 Cycle   3  Pass 0  IDiag  1:
 RMSU=  5.64D-04    CP:  9.94D-01  1.18D+00
 E= -2048.68579752972     Delta-E=       -0.180251702542 Rises=F Damp=F
 DIIS: error= 1.06D-02 at cycle   3 NSaved=   3.
 NSaved= 3 IEnMin= 3 EnMin= -2048.68579752972     IErMin= 3 ErrMin= 1.06D-02
 ErrMax= 1.06D-02  0.00D+00 EMaxC= 1.00D-01 BMatC= 5.87D-02 BMatP= 1.44D-01
 IDIUse=3 WtCom= 8.94D-01 WtEn= 1.06D-01
 Coeff-Com: -0.231D+00 0.543D+00 0.688D+00
 Coeff-En:   0.000D+00 0.000D+00 0.100D+01
 Coeff:     -0.206D+00 0.485D+00 0.721D+00
 Gap=     0.279 Goal=   None    Shift=    0.000
 RMSDP=3.42D-04 MaxDP=3.73D-02 DE=-1.80D-01 OVMax= 7.84D-02

 Cycle   4  Pass 0  IDiag  1:
 RMSU=  1.96D-04    CP:  9.94D-01  1.45D+00  6.76D-01
 E= -2048.72857573017     Delta-E=       -0.042778200445 Rises=F Damp=F
 DIIS: error= 4.40D-03 at cycle   4 NSaved=   4.
 NSaved= 4 IEnMin= 4 EnMin= -2048.72857573017     IErMin= 4 ErrMin= 4.40D-03
 ErrMax= 4.40D-03  0.00D+00 EMaxC= 1.00D-01 BMatC= 9.76D-03 BMatP= 5.87D-02
 IDIUse=3 WtCom= 9.56D-01 WtEn= 4.40D-02
 Coeff-Com: -0.911D-01 0.176D+00 0.389D+00 0.526D+00
 Coeff-En:   0.000D+00 0.000D+00 0.880D-01 0.912D+00
 Coeff:     -0.871D-01 0.168D+00 0.376D+00 0.543D+00
 Gap=     0.282 Goal=   None    Shift=    0.000
 RMSDP=1.27D-04 MaxDP=1.42D-02 DE=-4.28D-02 OVMax= 1.76D-02

 Cycle   5  Pass 0  IDiag  1:
 RMSU=  6.18D-05    CP:  9.93D-01  1.42D+00  8.15D-01  6.19D-01
 E= -2048.73625221355     Delta-E=       -0.007676483384 Rises=F Damp=F
 DIIS: error= 7.71D-04 at cycle   5 NSaved=   5.
 NSaved= 5 IEnMin= 5 EnMin= -2048.73625221355     IErMin= 5 ErrMin= 7.71D-04
 ErrMax= 7.71D-04  0.00D+00 EMaxC= 1.00D-01 BMatC= 3.18D-04 BMatP= 9.76D-03
 IDIUse=3 WtCom= 9.92D-01 WtEn= 7.71D-03
 Coeff-Com: -0.232D-01 0.395D-01 0.128D+00 0.248D+00 0.607D+00
 Coeff-En:   0.000D+00 0.000D+00 0.000D+00 0.000D+00 0.100D+01
 Coeff:     -0.231D-01 0.392D-01 0.127D+00 0.247D+00 0.610D+00
 Gap=     0.281 Goal=   None    Shift=    0.000
 RMSDP=2.55D-05 MaxDP=2.88D-03 DE=-7.68D-03 OVMax= 4.21D-03

 Failed to achieve initial convergence to 1.0D-08 in  6 cycles.
 Switch to full accuracy anyway.
 Cycle   6  Pass 1  IDiag  1:
 E= -2048.73658467327     Delta-E=       -0.000332459720 Rises=F Damp=F
 DIIS: error= 2.41D-04 at cycle   1 NSaved=   1.
 NSaved= 1 IEnMin= 1 EnMin= -2048.73658467327     IErMin= 1 ErrMin= 2.41D-04
 ErrMax= 2.41D-04  0.00D+00 EMaxC= 1.00D-01 BMatC= 7.87D-05 BMatP= 7.87D-05
 IDIUse=3 WtCom= 9.98D-01 WtEn= 2.41D-03
 Coeff-Com:  0.100D+01
 Coeff-En:   0.100D+01
 Coeff:      0.100D+01
 Gap=     0.281 Goal=   None    Shift=    0.000
 RMSDP=2.55D-05 MaxDP=2.88D-03 DE=-3.32D-04 OVMax= 2.07D-03

 Cycle   7  Pass 1  IDiag  1:
 RMSU=  1.13D-04    CP:  1.00D+00
 E= -2048.73663583617     Delta-E=       -0.000051162901 Rises=F Damp=F
 DIIS: error= 3.05D-04 at cycle   2 NSaved=   2.
 NSaved= 2 IEnMin= 2 EnMin= -2048.73663583617     IErMin= 1 ErrMin= 2.41D-04
 ErrMax= 3.05D-04  0.00D+00 EMaxC= 1.00D-01 BMatC= 5.27D-05 BMatP= 7.87D-05
 IDIUse=3 WtCom= 9.97D-01 WtEn= 3.05D-03
 Coeff-Com:  0.433D+00 0.567D+00
 Coeff-En:   0.563D-01 0.944D+00
 Coeff:      0.432D+00 0.568D+00
 Gap=     0.281 Goal=   None    Shift=    0.000
 RMSDP=1.13D-05 MaxDP=1.60D-03 DE=-5.12D-05 OVMax= 1.83D-03

 Cycle   8  Pass 1  IDiag  1:
 RMSU=  1.10D-05    CP:  1.00D+00  1.02D+00
 E= -2048.73667211607     Delta-E=       -0.000036279902 Rises=F Damp=F
 DIIS: error= 1.19D-04 at cycle   3 NSaved=   3.
 NSaved= 3 IEnMin= 3 EnMin= -2048.73667211607     IErMin= 3 ErrMin= 1.19D-04
 ErrMax= 1.19D-04  0.00D+00 EMaxC= 1.00D-01 BMatC= 1.08D-05 BMatP= 5.27D-05
 IDIUse=3 WtCom= 9.99D-01 WtEn= 1.19D-03
 Coeff-Com: -0.192D-01 0.299D+00 0.721D+00
 Coeff-En:   0.000D+00 0.120D+00 0.880D+00
 Coeff:     -0.191D-01 0.298D+00 0.721D+00
 Gap=     0.281 Goal=   None    Shift=    0.000
 RMSDP=5.63D-06 MaxDP=5.75D-04 DE=-3.63D-05 OVMax= 5.25D-04

 Cycle   9  Pass 1  IDiag  1:
 RMSU=  3.82D-06    CP:  1.00D+00  1.05D+00  7.75D-01
 E= -2048.73668148898     Delta-E=       -0.000009372906 Rises=F Damp=F
 DIIS: error= 3.64D-05 at cycle   4 NSaved=   4.
 NSaved= 4 IEnMin= 4 EnMin= -2048.73668148898     IErMin= 4 ErrMin= 3.64D-05
 ErrMax= 3.64D-05  0.00D+00 EMaxC= 1.00D-01 BMatC= 4.56D-07 BMatP= 1.08D-05
 IDIUse=1 WtCom= 1.00D+00 WtEn= 0.00D+00
 Coeff-Com: -0.300D-01 0.824D-01 0.256D+00 0.692D+00
 Coeff:     -0.300D-01 0.824D-01 0.256D+00 0.692D+00
 Gap=     0.281 Goal=   None    Shift=    0.000
 RMSDP=1.38D-06 MaxDP=1.38D-04 DE=-9.37D-06 OVMax= 4.93D-04

 Cycle  10  Pass 1  IDiag  1:
 RMSU=  1.23D-06    CP:  1.00D+00  1.05D+00  8.01D-01  1.11D+00
 E= -2048.73668225375     Delta-E=       -0.000000764770 Rises=F Damp=F
 DIIS: error= 1.48D-05 at cycle   5 NSaved=   5.
 NSaved= 5 IEnMin= 5 EnMin= -2048.73668225375     IErMin= 5 ErrMin= 1.48D-05
 ErrMax= 1.48D-05  0.00D+00 EMaxC= 1.00D-01 BMatC= 1.03D-07 BMatP= 4.56D-07
 IDIUse=1 WtCom= 1.00D+00 WtEn= 0.00D+00
 Coeff-Com: -0.209D-02-0.512D-01-0.126D+00 0.180D+00 0.999D+00
 Coeff:     -0.209D-02-0.512D-01-0.126D+00 0.180D+00 0.999D+00
 Gap=     0.281 Goal=   None    Shift=    0.000
 RMSDP=1.17D-06 MaxDP=7.26D-05 DE=-7.65D-07 OVMax= 2.39D-04

 Cycle  11  Pass 1  IDiag  1:
 RMSU=  4.80D-07    CP:  1.00D+00  1.05D+00  8.07D-01  1.38D+00  1.18D+00
 E= -2048.73668248030     Delta-E=       -0.000000226552 Rises=F Damp=F
 DIIS: error= 9.59D-06 at cycle   6 NSaved=   6.
 NSaved= 6 IEnMin= 6 EnMin= -2048.73668248030     IErMin= 6 ErrMin= 9.59D-06
 ErrMax= 9.59D-06  0.00D+00 EMaxC= 1.00D-01 BMatC= 2.76D-08 BMatP= 1.03D-07
 IDIUse=1 WtCom= 1.00D+00 WtEn= 0.00D+00
 Coeff-Com:  0.455D-02-0.411D-01-0.114D+00-0.894D-02 0.543D+00 0.617D+00
 Coeff:      0.455D-02-0.411D-01-0.114D+00-0.894D-02 0.543D+00 0.617D+00
 Gap=     0.281 Goal=   None    Shift=    0.000
 RMSDP=3.46D-07 MaxDP=3.66D-05 DE=-2.27D-07 OVMax= 1.21D-04

 Cycle  12  Pass 1  IDiag  1:
 RMSU=  1.83D-07    CP:  1.00D+00  1.05D+00  8.08D-01  1.45D+00  1.31D+00
                    CP:  8.97D-01
 E= -2048.73668251781     Delta-E=       -0.000000037510 Rises=F Damp=F
 DIIS: error= 1.04D-06 at cycle   7 NSaved=   7.
 NSaved= 7 IEnMin= 7 EnMin= -2048.73668251781     IErMin= 7 ErrMin= 1.04D-06
 ErrMax= 1.04D-06  0.00D+00 EMaxC= 1.00D-01 BMatC= 7.99D-10 BMatP= 2.76D-08
 IDIUse=1 WtCom= 1.00D+00 WtEn= 0.00D+00
 Coeff-Com:  0.110D-02-0.685D-02-0.210D-01-0.808D-02 0.650D-01 0.145D+00
 Coeff-Com:  0.825D+00
 Coeff:      0.110D-02-0.685D-02-0.210D-01-0.808D-02 0.650D-01 0.145D+00
 Coeff:      0.825D+00
 Gap=     0.281 Goal=   None    Shift=    0.000
 RMSDP=7.87D-08 MaxDP=5.13D-06 DE=-3.75D-08 OVMax= 2.20D-05

 Cycle  13  Pass 1  IDiag  1:
 RMSU=  5.00D-08    CP:  1.00D+00  1.05D+00  8.07D-01  1.45D+00  1.33D+00
                    CP:  9.85D-01  1.11D+00
 E= -2048.73668251947     Delta-E=       -0.000000001653 Rises=F Damp=F
 DIIS: error= 5.31D-07 at cycle   8 NSaved=   8.
 NSaved= 8 IEnMin= 8 EnMin= -2048.73668251947     IErMin= 8 ErrMin= 5.31D-07
 ErrMax= 5.31D-07  0.00D+00 EMaxC= 1.00D-01 BMatC= 3.03D-10 BMatP= 7.99D-10
 IDIUse=1 WtCom= 1.00D+00 WtEn= 0.00D+00
 Coeff-Com: -0.683D-03 0.783D-02 0.201D-01-0.122D-03-0.116D+00-0.911D-01
 Coeff-Com:  0.408D+00 0.772D+00
 Coeff:     -0.683D-03 0.783D-02 0.201D-01-0.122D-03-0.116D+00-0.911D-01
 Coeff:      0.408D+00 0.772D+00
 Gap=     0.281 Goal=   None    Shift=    0.000
 RMSDP=4.77D-08 MaxDP=2.80D-06 DE=-1.65D-09 OVMax= 1.19D-05

 Cycle  14  Pass 1  IDiag  1:
 RMSU=  2.75D-08    CP:  1.00D+00  1.05D+00  8.07D-01  1.46D+00  1.33D+00
                    CP:  1.03D+00  1.27D+00  1.08D+00
 E= -2048.73668252013     Delta-E=       -0.000000000668 Rises=F Damp=F
 DIIS: error= 2.20D-07 at cycle   9 NSaved=   9.
 NSaved= 9 IEnMin= 9 EnMin= -2048.73668252013     IErMin= 9 ErrMin= 2.20D-07
 ErrMax= 2.20D-07  0.00D+00 EMaxC= 1.00D-01 BMatC= 3.13D-11 BMatP= 3.03D-10
 IDIUse=1 WtCom= 1.00D+00 WtEn= 0.00D+00
 Coeff-Com: -0.422D-03 0.424D-02 0.112D-01 0.138D-02-0.569D-01-0.553D-01
 Coeff-Com:  0.832D-01 0.319D+00 0.693D+00
 Coeff:     -0.422D-03 0.424D-02 0.112D-01 0.138D-02-0.569D-01-0.553D-01
 Coeff:      0.832D-01 0.319D+00 0.693D+00
 Gap=     0.281 Goal=   None    Shift=    0.000
 RMSDP=1.32D-08 MaxDP=8.00D-07 DE=-6.68D-10 OVMax= 3.43D-06

 Cycle  15  Pass 1  IDiag  1:
 RMSU=  9.10D-09    CP:  1.00D+00  1.05D+00  8.07D-01  1.46D+00  1.34D+00
                    CP:  1.03D+00  1.29D+00  1.22D+00  1.10D+00
 E= -2048.73668251972     Delta-E=        0.000000000410 Rises=F Damp=F
 DIIS: error= 6.84D-08 at cycle  10 NSaved=  10.
 NSaved=10 IEnMin= 9 EnMin= -2048.73668252013     IErMin=10 ErrMin= 6.84D-08
 ErrMax= 6.84D-08  0.00D+00 EMaxC= 1.00D-01 BMatC= 4.89D-12 BMatP= 3.13D-11
 IDIUse=1 WtCom= 1.00D+00 WtEn= 0.00D+00
 Coeff-Com:  0.686D-05-0.307D-03-0.655D-03 0.118D-03 0.575D-02 0.113D-02
 Coeff-Com: -0.581D-01-0.613D-01 0.251D+00 0.862D+00
 Coeff:      0.686D-05-0.307D-03-0.655D-03 0.118D-03 0.575D-02 0.113D-02
 Coeff:     -0.581D-01-0.613D-01 0.251D+00 0.862D+00
 Gap=     0.281 Goal=   None    Shift=    0.000
 RMSDP=7.04D-09 MaxDP=3.86D-07 DE= 4.10D-10 OVMax= 1.64D-06

 SCF Done:  E(RwB97XD) =  -2048.73668252     A.U. after   15 cycles
            NFock= 15  Conv=0.70D-08     -V/T= 2.0054
 KE= 2.037827587002D+03 PE=-1.584565279153D+04 EE= 6.226622430451D+03
 Leave Link  502 at Wed Jan 24 23:01:03 2018, MaxMem=  4294967296 cpu:           21444.9 elap:             692.2
 (Enter /share/apps/g16/l601.exe)
 Copying SCF densities to generalized density rwf, IOpCl= 0 IROHF=0.

 **********************************************************************

            Population analysis using the SCF density.

 **********************************************************************

 Orbital symmetries:
       Occupied  (A) (A) (A) (A) (A) (A) (A) (A) (A) (A) (A) (A)
                 (A) (A) (A) (A) (A) (A) (A) (A) (A) (A) (A) (A)
                 (A) (A) (A) (A) (A) (A) (A) (A) (A) (A) (A) (A)
                 (A) (A) (A) (A) (A) (A) (A) (A) (A) (A) (A) (A)
                 (A) (A) (A) (A) (A) (A) (A) (A) (A) (A) (A) (A)
                 (A) (A) (A) (A) (A) (A) (A) (A) (A) (A) (A) (A)
                 (A) (A) (A) (A) (A) (A) (A) (A) (A) (A) (A) (A)
                 (A) (A) (A) (A) (A) (A) (A) (A) (A) (A) (A) (A)
                 (A) (A) (A) (A) (A) (A) (A) (A) (A) (A) (A) (A)
                 (A) (A) (A) (A) (A) (A) (A) (A) (A) (A) (A) (A)
                 (A) (A) (A) (A) (A) (A) (A) (A) (A) (A) (A) (A)
                 (A) (A) (A) (A) (A) (A) (A) (A) (A) (A) (A) (A)
                 (A) (A) (A) (A) (A) (A) (A) (A) (A) (A)
       Virtual   (A) (A) (A) (A) (A) (A) (A) (A) (A) (A) (A) (A)
                 (A) (A) (A) (A) (A) (A) (A) (A) (A) (A) (A) (A)
                 (A) (A) (A) (A) (A) (A) (A) (A) (A) (A) (A) (A)
                 (A) (A) (A) (A) (A) (A) (A) (A) (A) (A) (A) (A)
                 (A) (A) (A) (A) (A) (A) (A) (A) (A) (A) (A) (A)
                 (A) (A) (A) (A) (A) (A) (A) (A) (A) (A) (A) (A)
                 (A) (A) (A) (A) (A) (A) (A) (A) (A) (A) (A) (A)
                 (A) (A) (A) (A) (A) (A) (A) (A) (A) (A) (A) (A)
                 (A) (A) (A) (A) (A) (A) (A) (A) (A) (A) (A) (A)
                 (A) (A) (A) (A) (A) (A) (A) (A) (A) (A) (A) (A)
                 (A) (A) (A) (A) (A) (A) (A) (A) (A) (A) (A) (A)
                 (A) (A) (A) (A) (A) (A) (A) (A) (A) (A) (A) (A)
                 (A) (A) (A) (A) (A) (A) (A) (A) (A) (A) (A) (A)
                 (A) (A) (A) (A) (A) (A) (A) (A) (A) (A) (A) (A)
                 (A) (A) (A) (A) (A) (A) (A) (A) (A) (A) (A) (A)
                 (A) (A) (A) (A) (A) (A) (A) (A) (A) (A) (A) (A)
                 (A) (A) (A) (A) (A) (A) (A) (A) (A) (A) (A) (A)
                 (A) (A) (A) (A) (A) (A) (A) (A) (A) (A) (A) (A)
                 (A) (A) (A) (A) (A) (A) (A) (A) (A) (A) (A) (A)
                 (A) (A) (A) (A) (A) (A) (A) (A) (A) (A) (A) (A)
                 (A) (A) (A) (A) (A) (A) (A) (A) (A) (A) (A) (A)
                 (A) (A) (A) (A) (A) (A) (A) (A) (A) (A) (A) (A)
                 (A) (A) (A) (A) (A) (A) (A) (A) (A) (A) (A) (A)
                 (A) (A) (A) (A) (A) (A) (A) (A) (A) (A) (A) (A)
                 (A) (A) (A) (A) (A) (A) (A) (A) (A) (A) (A) (A)
                 (A) (A) (A) (A) (A) (A) (A) (A) (A) (A) (A) (A)
                 (A) (A) (A) (A) (A) (A) (A) (A) (A) (A) (A) (A)
                 (A) (A) (A) (A) (A) (A) (A) (A) (A) (A) (A) (A)
                 (A) (A) (A) (A) (A) (A) (A) (A) (A) (A) (A) (A)
                 (A) (A) (A) (A) (A) (A) (A) (A) (A) (A) (A) (A)
                 (A) (A) (A) (A) (A) (A) (A) (A) (A) (A) (A) (A)
                 (A) (A) (A) (A) (A) (A) (A) (A) (A) (A) (A) (A)
                 (A) (A) (A) (A) (A) (A) (A) (A) (A) (A) (A) (A)
                 (A) (A) (A) (A) (A) (A) (A) (A) (A) (A) (A) (A)
                 (A) (A) (A) (A) (A) (A) (A) (A) (A) (A) (A) (A)
                 (A) (A) (A) (A) (A) (A) (A) (A) (A) (A) (A) (A)
                 (A) (A) (A) (A) (A) (A) (A) (A) (A) (A) (A) (A)
                 (A) (A) (A) (A) (A) (A) (A) (A) (A) (A) (A) (A)
                 (A) (A) (A) (A) (A) (A) (A) (A) (A) (A) (A) (A)
                 (A) (A) (A) (A) (A) (A) (A) (A) (A) (A) (A) (A)
                 (A) (A) (A) (A) (A) (A) (A) (A) (A) (A) (A) (A)
                 (A) (A) (A) (A) (A) (A) (A) (A) (A) (A) (A) (A)
                 (A) (A) (A) (A) (A) (A) (A) (A) (A) (A) (A) (A)
                 (A) (A) (A) (A) (A) (A) (A) (A) (A) (A) (A) (A)
                 (A) (A) (A) (A) (A) (A) (A) (A) (A) (A) (A) (A)
                 (A) (A) (A) (A) (A) (A) (A) (A) (A) (A) (A) (A)
                 (A) (A) (A) (A) (A) (A) (A) (A) (A) (A) (A) (A)
                 (A) (A) (A) (A) (A) (A) (A) (A) (A) (A) (A) (A)
                 (A) (A) (A) (A) (A) (A) (A)
 The electronic state is 1-A.
 Alpha  occ. eigenvalues --  -19.25159 -19.21259 -19.20384 -14.52815 -14.51788
 Alpha  occ. eigenvalues --  -14.49289 -14.48649 -14.48327 -14.47162 -14.46384
 Alpha  occ. eigenvalues --  -14.46133 -14.45732 -14.45083 -14.45049 -14.43115
 Alpha  occ. eigenvalues --  -14.41827 -14.41097 -14.40862 -14.40820 -14.40487
 Alpha  occ. eigenvalues --  -10.44758 -10.40868 -10.40761 -10.39399 -10.38276
 Alpha  occ. eigenvalues --  -10.37912 -10.37714 -10.37279 -10.36637 -10.35749
 Alpha  occ. eigenvalues --  -10.34182 -10.34129 -10.34045 -10.33796 -10.33318
 Alpha  occ. eigenvalues --  -10.33153 -10.33083 -10.32866 -10.30878 -10.30609
 Alpha  occ. eigenvalues --  -10.30291 -10.28466 -10.27847  -1.18887  -1.15604
 Alpha  occ. eigenvalues --   -1.12936  -1.12311  -1.10998  -1.10387  -1.10120
 Alpha  occ. eigenvalues --   -1.08702  -1.08257  -1.05639  -1.05260  -1.01786
 Alpha  occ. eigenvalues --   -1.01386  -1.00768  -0.99317  -0.98301  -0.97652
 Alpha  occ. eigenvalues --   -0.96714  -0.96438  -0.92938  -0.90504  -0.88191
 Alpha  occ. eigenvalues --   -0.86325  -0.83962  -0.83672  -0.82941  -0.82359
 Alpha  occ. eigenvalues --   -0.81985  -0.78283  -0.77661  -0.75547  -0.74402
 Alpha  occ. eigenvalues --   -0.73272  -0.72998  -0.72722  -0.71133  -0.70993
 Alpha  occ. eigenvalues --   -0.67531  -0.67028  -0.66390  -0.65950  -0.64882
 Alpha  occ. eigenvalues --   -0.64110  -0.63438  -0.62851  -0.62445  -0.61439
 Alpha  occ. eigenvalues --   -0.61144  -0.60840  -0.60536  -0.59973  -0.59211
 Alpha  occ. eigenvalues --   -0.58933  -0.57926  -0.57021  -0.56407  -0.55946
 Alpha  occ. eigenvalues --   -0.55738  -0.55700  -0.55621  -0.55007  -0.54155
 Alpha  occ. eigenvalues --   -0.53801  -0.53710  -0.53261  -0.53213  -0.52759
 Alpha  occ. eigenvalues --   -0.52220  -0.51828  -0.51486  -0.50553  -0.50470
 Alpha  occ. eigenvalues --   -0.49969  -0.49798  -0.49740  -0.48965  -0.48919
 Alpha  occ. eigenvalues --   -0.48545  -0.47944  -0.47791  -0.47623  -0.46981
 Alpha  occ. eigenvalues --   -0.46855  -0.45610  -0.45063  -0.44285  -0.43352
 Alpha  occ. eigenvalues --   -0.41355  -0.41235  -0.39001  -0.38233  -0.38217
 Alpha  occ. eigenvalues --   -0.37573  -0.37108  -0.36566  -0.35478  -0.35218
 Alpha  occ. eigenvalues --   -0.35074  -0.34235  -0.33443  -0.33148  -0.32703
 Alpha  occ. eigenvalues --   -0.32334  -0.32315  -0.31689  -0.31250  -0.30639
 Alpha  occ. eigenvalues --   -0.30498  -0.30176  -0.26381  -0.24744
 Alpha virt. eigenvalues --    0.03354   0.03742   0.06316   0.07880   0.09100
 Alpha virt. eigenvalues --    0.09423   0.09822   0.10173   0.10828   0.11679
 Alpha virt. eigenvalues --    0.13344   0.14303   0.14551   0.14702   0.15179
 Alpha virt. eigenvalues --    0.15952   0.16179   0.16945   0.17295   0.17669
 Alpha virt. eigenvalues --    0.19416   0.19621   0.20138   0.20168   0.20625
 Alpha virt. eigenvalues --    0.20881   0.20994   0.21116   0.21620   0.21671
 Alpha virt. eigenvalues --    0.22505   0.22961   0.23425   0.23854   0.24124
 Alpha virt. eigenvalues --    0.24338   0.24492   0.24649   0.25123   0.25287
 Alpha virt. eigenvalues --    0.25693   0.26100   0.27698   0.27947   0.28703
 Alpha virt. eigenvalues --    0.28918   0.29157   0.29915   0.30650   0.30998
 Alpha virt. eigenvalues --    0.31690   0.32149   0.32793   0.32845   0.33527
 Alpha virt. eigenvalues --    0.34284   0.34678   0.35095   0.36016   0.36629
 Alpha virt. eigenvalues --    0.36725   0.37049   0.38107   0.38793   0.39216
 Alpha virt. eigenvalues --    0.39578   0.40320   0.40624   0.41359   0.42059
 Alpha virt. eigenvalues --    0.42506   0.42855   0.43409   0.43955   0.44092
 Alpha virt. eigenvalues --    0.45208   0.45733   0.45938   0.46425   0.47201
 Alpha virt. eigenvalues --    0.47731   0.48270   0.48822   0.49253   0.49381
 Alpha virt. eigenvalues --    0.49985   0.50371   0.50918   0.51325   0.51359
 Alpha virt. eigenvalues --    0.52130   0.52261   0.52892   0.53140   0.53883
 Alpha virt. eigenvalues --    0.54245   0.54472   0.55121   0.55412   0.55603
 Alpha virt. eigenvalues --    0.56239   0.56513   0.56832   0.57319   0.57411
 Alpha virt. eigenvalues --    0.58028   0.58778   0.58926   0.59065   0.59673
 Alpha virt. eigenvalues --    0.60168   0.60420   0.60628   0.60907   0.61257
 Alpha virt. eigenvalues --    0.61582   0.62017   0.62374   0.62724   0.62935
 Alpha virt. eigenvalues --    0.63297   0.64024   0.64421   0.65193   0.65332
 Alpha virt. eigenvalues --    0.65930   0.66363   0.66848   0.67185   0.67708
 Alpha virt. eigenvalues --    0.68095   0.68698   0.68992   0.69525   0.69795
 Alpha virt. eigenvalues --    0.70381   0.70640   0.70786   0.71295   0.71926
 Alpha virt. eigenvalues --    0.72249   0.72939   0.73369   0.73549   0.73740
 Alpha virt. eigenvalues --    0.74089   0.74552   0.74916   0.75095   0.75592
 Alpha virt. eigenvalues --    0.76427   0.76556   0.76908   0.77166   0.77410
 Alpha virt. eigenvalues --    0.77585   0.77951   0.78306   0.78364   0.79061
 Alpha virt. eigenvalues --    0.79542   0.79868   0.80088   0.80800   0.81037
 Alpha virt. eigenvalues --    0.81202   0.81539   0.81826   0.82207   0.82795
 Alpha virt. eigenvalues --    0.83429   0.84137   0.84669   0.84932   0.85568
 Alpha virt. eigenvalues --    0.85643   0.85822   0.86724   0.87263   0.87615
 Alpha virt. eigenvalues --    0.87802   0.88175   0.89060   0.89692   0.89917
 Alpha virt. eigenvalues --    0.90303   0.90559   0.91712   0.92139   0.92319
 Alpha virt. eigenvalues --    0.92961   0.93419   0.93654   0.94032   0.94683
 Alpha virt. eigenvalues --    0.95134   0.95581   0.96088   0.96463   0.96821
 Alpha virt. eigenvalues --    0.96955   0.97821   0.98059   0.98556   0.99189
 Alpha virt. eigenvalues --    0.99494   0.99973   1.00583   1.01159   1.01569
 Alpha virt. eigenvalues --    1.01990   1.02135   1.02576   1.03087   1.03746
 Alpha virt. eigenvalues --    1.03919   1.04419   1.05143   1.05326   1.05780
 Alpha virt. eigenvalues --    1.06097   1.06514   1.07925   1.08576   1.08942
 Alpha virt. eigenvalues --    1.09704   1.10252   1.10801   1.11452   1.11624
 Alpha virt. eigenvalues --    1.12156   1.12998   1.13370   1.13691   1.14257
 Alpha virt. eigenvalues --    1.14571   1.15045   1.15206   1.15544   1.16389
 Alpha virt. eigenvalues --    1.16721   1.17045   1.17372   1.17923   1.18158
 Alpha virt. eigenvalues --    1.18628   1.18917   1.19166   1.19815   1.20160
 Alpha virt. eigenvalues --    1.20369   1.20766   1.20906   1.21894   1.22304
 Alpha virt. eigenvalues --    1.22599   1.22880   1.23083   1.23603   1.24226
 Alpha virt. eigenvalues --    1.24303   1.24480   1.25170   1.25473   1.26189
 Alpha virt. eigenvalues --    1.27021   1.27349   1.27833   1.28384   1.28906
 Alpha virt. eigenvalues --    1.28959   1.29314   1.30671   1.31644   1.32039
 Alpha virt. eigenvalues --    1.32730   1.33344   1.33880   1.34313   1.34398
 Alpha virt. eigenvalues --    1.35175   1.35663   1.35950   1.36749   1.37258
 Alpha virt. eigenvalues --    1.37971   1.38280   1.39861   1.40330   1.40950
 Alpha virt. eigenvalues --    1.41424   1.42885   1.43949   1.44515   1.45092
 Alpha virt. eigenvalues --    1.46063   1.47084   1.47807   1.47980   1.48153
 Alpha virt. eigenvalues --    1.50101   1.50374   1.50604   1.50924   1.51377
 Alpha virt. eigenvalues --    1.51592   1.52963   1.53147   1.54222   1.55319
 Alpha virt. eigenvalues --    1.56134   1.56793   1.56955   1.57608   1.58438
 Alpha virt. eigenvalues --    1.59363   1.59788   1.60179   1.60948   1.61524
 Alpha virt. eigenvalues --    1.61853   1.62257   1.62759   1.63420   1.63807
 Alpha virt. eigenvalues --    1.64242   1.65262   1.65716   1.66284   1.67151
 Alpha virt. eigenvalues --    1.67563   1.68057   1.68391   1.68659   1.69253
 Alpha virt. eigenvalues --    1.69874   1.70695   1.70895   1.71256   1.71607
 Alpha virt. eigenvalues --    1.72443   1.72836   1.73185   1.73773   1.73915
 Alpha virt. eigenvalues --    1.74414   1.74894   1.75368   1.75670   1.76089
 Alpha virt. eigenvalues --    1.76504   1.76967   1.77035   1.77334   1.77412
 Alpha virt. eigenvalues --    1.77974   1.78164   1.78433   1.78842   1.79369
 Alpha virt. eigenvalues --    1.79711   1.80156   1.80411   1.80813   1.80907
 Alpha virt. eigenvalues --    1.81154   1.81466   1.82255   1.82430   1.82845
 Alpha virt. eigenvalues --    1.83422   1.83710   1.84148   1.84512   1.84851
 Alpha virt. eigenvalues --    1.85442   1.86010   1.86234   1.87023   1.87341
 Alpha virt. eigenvalues --    1.87715   1.87968   1.88455   1.89271   1.89791
 Alpha virt. eigenvalues --    1.90143   1.90451   1.90580   1.91725   1.92336
 Alpha virt. eigenvalues --    1.92658   1.93504   1.94307   1.94655   1.95039
 Alpha virt. eigenvalues --    1.95132   1.95382   1.96034   1.97272   1.98172
 Alpha virt. eigenvalues --    1.98478   1.99320   2.00207   2.01668   2.02179
 Alpha virt. eigenvalues --    2.02459   2.02729   2.03452   2.04264   2.04478
 Alpha virt. eigenvalues --    2.05346   2.05659   2.06715   2.07119   2.07628
 Alpha virt. eigenvalues --    2.08114   2.08590   2.09516   2.10410   2.10833
 Alpha virt. eigenvalues --    2.11076   2.11905   2.12070   2.12614   2.13881
 Alpha virt. eigenvalues --    2.14118   2.15316   2.15420   2.16738   2.17376
 Alpha virt. eigenvalues --    2.18173   2.18743   2.19837   2.21467   2.21919
 Alpha virt. eigenvalues --    2.22186   2.22824   2.23320   2.23719   2.24044
 Alpha virt. eigenvalues --    2.24391   2.25023   2.26095   2.26644   2.27312
 Alpha virt. eigenvalues --    2.27519   2.28876   2.29312   2.30012   2.30656
 Alpha virt. eigenvalues --    2.30963   2.31249   2.32170   2.32296   2.33061
 Alpha virt. eigenvalues --    2.33450   2.33583   2.34479   2.34675   2.34939
 Alpha virt. eigenvalues --    2.35260   2.35585   2.36602   2.37561   2.38196
 Alpha virt. eigenvalues --    2.38293   2.39401   2.39729   2.40509   2.41560
 Alpha virt. eigenvalues --    2.41950   2.42757   2.43227   2.43365   2.44618
 Alpha virt. eigenvalues --    2.45062   2.45484   2.46403   2.46738   2.47093
 Alpha virt. eigenvalues --    2.47742   2.48928   2.50788   2.51146   2.51984
 Alpha virt. eigenvalues --    2.53077   2.54472   2.55443   2.55901   2.56343
 Alpha virt. eigenvalues --    2.56917   2.58927   2.59222   2.59779   2.60355
 Alpha virt. eigenvalues --    2.61989   2.62431   2.63445   2.63728   2.64486
 Alpha virt. eigenvalues --    2.65075   2.65261   2.65884   2.66701   2.67220
 Alpha virt. eigenvalues --    2.67721   2.68736   2.69051   2.69492   2.69782
 Alpha virt. eigenvalues --    2.70710   2.71403   2.71687   2.72198   2.72714
 Alpha virt. eigenvalues --    2.73211   2.75084   2.75711   2.76328   2.76682
 Alpha virt. eigenvalues --    2.77239   2.77822   2.78642   2.79427   2.79554
 Alpha virt. eigenvalues --    2.80118   2.80307   2.80961   2.81227   2.81684
 Alpha virt. eigenvalues --    2.82042   2.82725   2.83111   2.83876   2.84802
 Alpha virt. eigenvalues --    2.85074   2.86082   2.86800   2.87144   2.87414
 Alpha virt. eigenvalues --    2.87876   2.88593   2.90020   2.92481   2.94137
 Alpha virt. eigenvalues --    2.95124   2.96903   2.97845   2.99027   3.00120
 Alpha virt. eigenvalues --    3.01163   3.01398   3.03842   3.05213   3.06147
 Alpha virt. eigenvalues --    3.08684   3.09479   3.11511   3.13101   3.14675
 Alpha virt. eigenvalues --    3.15972   3.16183   3.17402   3.18828   3.20571
 Alpha virt. eigenvalues --    3.21484   3.23032   3.24318   3.24585   3.26028
 Alpha virt. eigenvalues --    3.44028   3.47535   3.48799   3.49138   3.51056
 Alpha virt. eigenvalues --    3.53003   3.54687   3.56890   3.58550   3.60828
 Alpha virt. eigenvalues --    3.64165   3.71500   3.75382
          Condensed to atoms (all electrons):
 Mulliken charges:
               1
     1  N   -0.312527
     2  C    0.185183
     3  C    0.061123
     4  N   -0.263866
     5  C    0.143312
     6  H    0.027503
     7  N   -0.281892
     8  C    0.110434
     9  H    0.022937
    10  N   -0.267605
    11  C    0.260090
    12  C    0.083289
    13  N   -0.069064
    14  H    0.108671
    15  H    0.080719
    16  H    0.020160
    17  H    0.030150
    18  H    0.032515
    19  N   -0.306155
    20  C    0.241595
    21  C    0.181525
    22  N   -0.106498
    23  H    0.114750
    24  H    0.114922
    25  N   -0.298472
    26  C    0.206116
    27  N   -0.107703
    28  H    0.112856
    29  C    0.160359
    30  O   -0.319436
    31  C    0.008661
    32  N   -0.229741
    33  C    0.120920
    34  H    0.020075
    35  H    0.026907
    36  H    0.028713
    37  H    0.023849
    38  H    0.067274
    39  H    0.055518
    40  H    0.078859
    41  H    0.028198
    42  C   -0.115140
    43  O   -0.261583
    44  C    0.178480
    45  H    0.134719
    46  N   -0.129029
    47  O   -0.344199
    48  C    0.352977
    49  H    0.042828
    50  C    0.164354
    51  C    0.034265
    52  N   -0.278734
    53  H    0.034958
    54  H    0.036989
    55  H    0.032084
    56  H    0.119083
    57  H    0.120858
    58  N   -0.061383
    59  C    0.064962
    60  C    0.243098
    61  N   -0.279800
    62  H    0.003559
    63  C    0.209170
    64  N   -0.307507
    65  H    0.040268
    66  C    0.138354
    67  N   -0.255275
    68  C    0.017837
    69  C    0.181522
    70  N   -0.311942
 Sum of Mulliken charges =  -0.00000
 Mulliken charges with hydrogens summed into heavy atoms:
               1
     1  N   -0.312527
     2  C    0.268008
     3  C    0.061123
     4  N   -0.263866
     5  C    0.170815
     7  N   -0.281892
     8  C    0.133370
    10  N   -0.267605
    11  C    0.260090
    12  C    0.083289
    13  N    0.120326
    19  N   -0.306155
    20  C    0.241595
    21  C    0.260994
    22  N    0.123174
    25  N   -0.298472
    26  C    0.206116
    27  N    0.005153
    29  C    0.160359
    30  O   -0.319436
    31  C    0.008661
    32  N   -0.229741
    33  C    0.140996
    42  C   -0.086942
    43  O   -0.261583
    44  C    0.178480
    46  N    0.005690
    47  O   -0.344199
    48  C    0.352977
    50  C    0.207182
    51  C    0.235917
    52  N   -0.278734
    58  N    0.178557
    59  C    0.064962
    60  C    0.243098
    61  N   -0.279800
    63  C    0.212730
    64  N   -0.307507
    66  C    0.178622
    67  N   -0.255275
    68  C    0.017837
    69  C    0.285553
    70  N   -0.311942
 Electronic spatial extent (au):  <R**2>=          21995.4573
 Charge=              0.0000 electrons
 Dipole moment (field-independent basis, Debye):
    X=             -8.4918    Y=              6.0096    Z=             -2.2513  Tot=             10.6440
 Quadrupole moment (field-independent basis, Debye-Ang):
   XX=           -165.9242   YY=           -217.4788   ZZ=           -253.9356
   XY=              7.0538   XZ=            -16.3955   YZ=             11.3849
 Traceless Quadrupole moment (field-independent basis, Debye-Ang):
   XX=             46.5220   YY=             -5.0326   ZZ=            -41.4894
   XY=              7.0538   XZ=            -16.3955   YZ=             11.3849
 Octapole moment (field-independent basis, Debye-Ang**2):
  XXX=             67.9432  YYY=            148.2789  ZZZ=              8.3140  XYY=           -107.6499
  XXY=             96.4921  XXZ=            -36.6665  XZZ=            -36.6355  YZZ=              4.1626
  YYZ=            -45.9634  XYZ=             47.6168
 Hexadecapole moment (field-independent basis, Debye-Ang**3):
 XXXX=         -15728.1017 YYYY=          -6349.8249 ZZZZ=          -3357.5938 XXXY=           -416.9834
 XXXZ=           -410.8455 YYYX=             49.1723 YYYZ=             96.3999 ZZZX=            -82.6428
 ZZZY=             26.6969 XXYY=          -2991.8938 XXZZ=          -3656.1931 YYZZ=          -1715.7381
 XXYZ=            115.0556 YYXZ=             44.8501 ZZXY=             51.8279
 N-N= 5.532466091558D+03 E-N=-1.584565278248D+04  KE= 2.037827587002D+03
 No NMR shielding tensors so no spin-rotation constants.
 Leave Link  601 at Wed Jan 24 23:01:05 2018, MaxMem=  4294967296 cpu:              52.1 elap:               1.8
 (Enter /share/apps/g16/l9999.exe)
 1\1\GINC-COMPUTE-0-3\SP\RwB97XD\CC-pVDZ\C23H27N17O3\SATYA\24-Jan-2018\
 0\\#p wb97xd/cc-pvdz sp scf=(maxcycles=20)\\Base pair stacking\\0,1\N,
 0,1.09529,-1.0112,-7.25555\C,0,2.33928,-0.25173,-7.48726\C,0,-0.93328,
 -1.59296,-6.63604\N,0,-0.38772,-2.70101,-7.26796\C,0,0.81258,-2.30617,
 -7.6159\H,0,1.54028,-2.92437,-8.14241\N,0,-2.41,-0.14852,-5.4977\C,0,-
 1.43905,0.76856,-5.55921\H,0,-1.67831,1.73012,-5.10707\N,0,-0.22265,0.
 67663,-6.09289\C,0,-0.03093,-0.54365,-6.62071\C,0,-2.18617,-1.36641,-6
 .03783\N,0,-3.15417,-2.28319,-5.97741\H,0,-3.03228,-3.19797,-6.36412\H
 ,0,-4.03373,-2.08701,-5.54379\H,0,2.51639,-0.19121,-8.46968\H,0,2.2440
 2,0.66875,-7.1094\H,0,3.10393,-0.71613,-7.04046\N,0,1.37146,2.30808,-3
 .31451\C,0,0.18669,1.66295,-3.05341\C,0,1.57485,3.77011,-3.27181\N,0,-
 3.17435,1.77998,-2.18656\H,0,-3.92073,1.1319,-2.03773\H,0,-3.38617,2.7
 5063,-2.06953\N,0,-0.98131,2.25153,-2.71668\C,0,-1.94436,1.36696,-2.52
 777\N,0,-1.77833,0.0094,-2.65815\H,0,-2.57098,-0.59217,-2.49447\C,0,-0
 .58561,-0.61817,-3.00373\O,0,-0.54245,-1.8513,-3.09464\C,0,0.45825,0.3
 1924,-3.20988\N,0,1.78678,0.12469,-3.56212\C,0,2.28781,1.32913,-3.6122
 \H,0,3.32374,1.56085,-3.86203\H,0,1.8699,4.09364,-4.17018\H,0,0.71635,
 4.2168,-3.02339\H,0,2.27334,3.99143,-2.59214\H,0,-7.04375,-2.98932,-2.
 17716\H,0,-6.49857,-3.35092,-0.5411\H,0,-6.00801,-1.84674,-1.32094\H,0
 ,-3.96634,-6.58341,-3.04817\C,0,-3.94681,-5.51786,-2.81917\O,0,-1.6949
 3,-5.22421,-3.50466\C,0,-2.74768,-4.77307,-3.05415\H,0,-2.00274,-2.874
 64,-2.8828\N,0,-2.83035,-3.43377,-2.73059\O,0,-3.89595,-1.57992,-1.965
 77\C,0,-3.91895,-2.77106,-2.22137\H,0,-5.9609,-5.42052,-2.12651\C,0,-5
 .02488,-4.89945,-2.32325\C,0,-6.22497,-2.8926,-1.4798\N,0,-5.03689,-3.
 55713,-2.02257\H,0,-9.21208,2.05692,-2.09915\H,0,-7.64857,1.85055,-1.6
 8089\H,0,-8.83244,1.22645,-0.74652\H,0,-6.42983,-3.89555,-5.54773\H,0,
 -8.05362,-3.80123,-5.03343\N,0,-7.13736,-3.39928,-5.04447\C,0,-6.87186
 ,-2.25241,-4.41569\C,0,-7.40396,-0.3451,-3.0963\N,0,-6.16427,0.17121,-
 3.12812\H,0,-4.32149,-0.26359,-3.9128\C,0,-5.35115,-0.61025,-3.83598\N
 ,0,-5.61515,-1.75929,-4.46651\H,0,-10.53943,-0.53532,-2.33158\C,0,-9.5
 3381,-0.70412,-2.71779\N,0,-9.17905,-1.73274,-3.4484\C,0,-7.83094,-1.5
 1745,-3.69532\C,0,-8.55414,1.42741,-1.68585\N,0,-8.50934,0.1756,-2.466
 22\\Version=EM64L-G16RevA.03\State=1-A\HF=-2048.7366825\RMSD=7.040e-09
 \Dipole=-3.7507161,1.6095181,0.9371332\Quadrupole=17.5853519,-4.787684
 7,-12.7976672,21.6316314,-23.7721969,6.9014552\PG=C01 [X(C23H27N17O3)]
 \\@


 WHEN A MATHEMATICIAN ENGAGED IN INVESTIGATING
 PHYSICAL ACTIONS AND RESULTS HAS ARRIVED AT HIS
 CONCLUSIONS, MAY THEY NOT BE EXPRESSED IN COMMON
 LANGUAGE AS FULLY, CLEARLY, AND DEFINITELY AS IN
 MATHEMATICAL FORMULAE?
           - LETTER FROM M. FARADAY TO J.C. MAXWELL, 1857.
 Job cpu time:       0 days  6 hours  7 minutes 48.3 seconds.
 Elapsed time:       0 days  0 hours 11 minutes 52.1 seconds.
 File lengths (MBytes):  RWF=    298 Int=      0 D2E=      0 Chk=     33 Scr=      1
 Normal termination of Gaussian 16 at Wed Jan 24 23:01:06 2018.
