 Entering Gaussian System, Link 0=g16
 Input=str50.0.1.0.com
 Output=str50.0.1.0.log
 Initial command:
 /share/apps/g16/l1.exe "/state/partition1/scr/Gau-7704.inp" -scrdir="/state/partition1/scr/"
 Entering Link 1 = /share/apps/g16/l1.exe PID=      7705.
  
 Copyright (c) 1988,1990,1992,1993,1995,1998,2003,2009,2016,
            Gaussian, Inc.  All Rights Reserved.
  
 This is part of the Gaussian(R) 16 program.  It is based on
 the Gaussian(R) 09 system (copyright 2009, Gaussian, Inc.),
 the Gaussian(R) 03 system (copyright 2003, Gaussian, Inc.),
 the Gaussian(R) 98 system (copyright 1998, Gaussian, Inc.),
 the Gaussian(R) 94 system (copyright 1995, Gaussian, Inc.),
 the Gaussian 92(TM) system (copyright 1992, Gaussian, Inc.),
 the Gaussian 90(TM) system (copyright 1990, Gaussian, Inc.),
 the Gaussian 88(TM) system (copyright 1988, Gaussian, Inc.),
 the Gaussian 86(TM) system (copyright 1986, Carnegie Mellon
 University), and the Gaussian 82(TM) system (copyright 1983,
 Carnegie Mellon University). Gaussian is a federally registered
 trademark of Gaussian, Inc.
  
 This software contains proprietary and confidential information,
 including trade secrets, belonging to Gaussian, Inc.
  
 This software is provided under written license and may be
 used, copied, transmitted, or stored only in accord with that
 written license.
  
 The following legend is applicable only to US Government
 contracts under FAR:
  
                    RESTRICTED RIGHTS LEGEND
  
 Use, reproduction and disclosure by the US Government is
 subject to restrictions as set forth in subparagraphs (a)
 and (c) of the Commercial Computer Software - Restricted
 Rights clause in FAR 52.227-19.
  
 Gaussian, Inc.
 340 Quinnipiac St., Bldg. 40, Wallingford CT 06492
  
  
 ---------------------------------------------------------------
 Warning -- This program may not be used in any manner that
 competes with the business of Gaussian, Inc. or will provide
 assistance to any competitor of Gaussian, Inc.  The licensee
 of this program is prohibited from giving any competitor of
 Gaussian, Inc. access to this program.  By using this program,
 the user acknowledges that Gaussian, Inc. is engaged in the
 business of creating and licensing software in the field of
 computational chemistry and represents and warrants to the
 licensee that it is not a competitor of Gaussian, Inc. and that
 it will not use this program in any manner prohibited above.
 ---------------------------------------------------------------
  

 Cite this work as:
 Gaussian 16, Revision A.03,
 M. J. Frisch, G. W. Trucks, H. B. Schlegel, G. E. Scuseria, 
 M. A. Robb, J. R. Cheeseman, G. Scalmani, V. Barone, 
 G. A. Petersson, H. Nakatsuji, X. Li, M. Caricato, A. V. Marenich, 
 J. Bloino, B. G. Janesko, R. Gomperts, B. Mennucci, H. P. Hratchian, 
 J. V. Ortiz, A. F. Izmaylov, J. L. Sonnenberg, D. Williams-Young, 
 F. Ding, F. Lipparini, F. Egidi, J. Goings, B. Peng, A. Petrone, 
 T. Henderson, D. Ranasinghe, V. G. Zakrzewski, J. Gao, N. Rega, 
 G. Zheng, W. Liang, M. Hada, M. Ehara, K. Toyota, R. Fukuda, 
 J. Hasegawa, M. Ishida, T. Nakajima, Y. Honda, O. Kitao, H. Nakai, 
 T. Vreven, K. Throssell, J. A. Montgomery, Jr., J. E. Peralta, 
 F. Ogliaro, M. J. Bearpark, J. J. Heyd, E. N. Brothers, K. N. Kudin, 
 V. N. Staroverov, T. A. Keith, R. Kobayashi, J. Normand, 
 K. Raghavachari, A. P. Rendell, J. C. Burant, S. S. Iyengar, 
 J. Tomasi, M. Cossi, J. M. Millam, M. Klene, C. Adamo, R. Cammi, 
 J. W. Ochterski, R. L. Martin, K. Morokuma, O. Farkas, 
 J. B. Foresman, and D. J. Fox, Gaussian, Inc., Wallingford CT, 2016.
 
 ******************************************
 Gaussian 16:  EM64L-G16RevA.03 25-Dec-2016
                24-Jan-2018 
 ******************************************
 %nprocshared=32
 Will use up to   32 processors via shared memory.
 %mem=32GB
 %chk=allatoms_t.chk
 ---------------------------------------
 #p wb97xd/cc-pvdz sp scf=(maxcycles=20)
 ---------------------------------------
 1/38=1,172=1/1;
 2/12=2,17=6,18=5,40=1/2;
 3/5=16,11=2,25=1,30=1,74=-58/1,2,3;
 4//1;
 5/5=2,7=20,38=5/2;
 6/7=2,8=2,9=2,10=2,28=1/1;
 99/5=1,9=1/99;
 Leave Link    1 at Wed Jan 24 08:54:51 2018, MaxMem=  4294967296 cpu:               2.7 elap:               0.1
 (Enter /share/apps/g16/l101.exe)
 ------------------
 Base pair stacking
 ------------------
 Symbolic Z-matrix:
 Charge =  0 Multiplicity = 1
 N                     4.46164  -0.81384  -6.47105 
 C                     5.72007  -0.04975  -6.57363 
 C                     2.33523  -1.36806  -6.37851 
 N                     3.05016  -2.55105  -6.25948 
 C                     4.30262  -2.1698   -6.32 
 H                     5.15896  -2.84204  -6.25909 
 N                     0.57597   0.19618  -6.52372 
 C                     1.5215    1.13419  -6.6407 
 H                     1.15417   2.154    -6.74702 
 N                     2.84644   1.0022   -6.64603 
 C                     3.19167  -0.28878  -6.50964 
 C                     0.95564  -1.09321  -6.38803 
 N                     0.01326  -2.03099  -6.27112 
 H                     0.24847  -2.99814  -6.1686 
 H                    -0.95945  -1.79892  -6.28203 
 H                     6.23954  -0.36549  -7.36775 
 H                     5.51299   0.92263  -6.67715 
 H                     6.26402  -0.18668  -5.74576 
 N                     2.33396   3.18902  -3.26456 
 C                     1.11893   2.54734  -3.26328 
 C                     2.52785   4.64976  -3.36129 
 N                    -2.34915   2.67318  -3.39872 
 H                    -3.11195   2.0274   -3.38065 
 H                    -2.57819   3.64389  -3.47605 
 N                    -0.09223   3.1387   -3.34948 
 C                    -1.07595   2.25712  -3.32272 
 N                    -0.88993   0.89982  -3.21948 
 H                    -1.70098   0.30065  -3.20649 
 C                     0.34715   0.26942  -3.12957 
 O                     0.40509  -0.96319  -3.03986 
 C                     1.41366   1.2036   -3.15705 
 N                     2.7861    1.00565  -3.09292 
 C                     3.28979   2.20815  -3.16 
 H                     4.35581   2.43701  -3.13738 
 H                     3.06695   4.86293  -4.17537 
 H                     1.63747   5.09848  -3.42565 
 H                     3.00761   4.97854  -2.54855 
 H                    -6.09897  -2.17046  -3.84208 
 H                    -6.04063  -2.30008  -2.08582 
 H                    -5.3387   -0.89545  -2.88935 
 H                    -2.92756  -5.75157  -3.32784 
 C                    -2.96559  -4.66522  -3.2464 
 O                    -0.60967  -4.39437  -3.30466 
 C                    -1.74343  -3.92095  -3.23206 
 H                    -1.06314  -1.9945   -3.11248 
 N                    -1.90416  -2.55416  -3.12585 
 O                    -3.1286   -0.65018  -2.94466 
 C                    -3.08731  -1.86454  -3.03565 
 H                    -5.09253  -4.54039  -3.16654 
 C                    -4.13521  -4.02092  -3.16 
 C                    -5.50972  -1.9592   -2.96218 
 N                    -4.22168  -2.65194  -3.05609 
 H                    -6.94954   2.63231  -6.86174 
 H                    -5.64507   2.82637  -5.90113 
 H                    -7.09734   2.47534  -5.24405 
 H                    -3.22816  -3.76459  -6.31721 
 H                    -4.92617  -3.69371  -6.46493 
 N                    -4.05965  -3.20937  -6.33931 
 C                    -4.016    -1.88203  -6.20724 
 C                    -4.95015   0.30275  -6.08142 
 N                    -3.77222   0.92636  -5.91402 
 H                    -1.77923   0.46835  -5.77681 
 C                    -2.77413   0.04506  -5.90822 
 N                    -2.8158   -1.28474  -6.04035 
 H                    -8.15399   0.01069  -6.40123 
 C                    -7.08017  -0.16037  -6.32 
 N                    -6.50628  -1.33705  -6.38132 
 C                    -5.15565  -1.05769  -6.23142 
 C                    -6.49626   2.31787  -6.02768 
 N                    -6.19795   0.87686  -6.1396 
 
 ITRead=  0  0  0  0  0  0  0  0  0  0  0  0  0  0  0  0  0  0  0  0
 ITRead=  0  0  0  0  0  0  0  0  0  0  0  0  0  0  0  0  0  0  0  0
 ITRead=  0  0  0  0  0  0  0  0  0  0  0  0  0  0  0  0  0  0  0  0
 ITRead=  0  0  0  0  0  0  0  0  0  0
 MicOpt= -1 -1 -1 -1 -1 -1 -1 -1 -1 -1 -1 -1 -1 -1 -1 -1 -1 -1 -1 -1
 MicOpt= -1 -1 -1 -1 -1 -1 -1 -1 -1 -1 -1 -1 -1 -1 -1 -1 -1 -1 -1 -1
 MicOpt= -1 -1 -1 -1 -1 -1 -1 -1 -1 -1 -1 -1 -1 -1 -1 -1 -1 -1 -1 -1
 MicOpt= -1 -1 -1 -1 -1 -1 -1 -1 -1 -1
 NAtoms=     70 NQM=       70 NQMF=       0 NMMI=      0 NMMIF=      0
                NMic=       0 NMicF=      0.
                    Isotopes and Nuclear Properties:
 (Nuclear quadrupole moments (NQMom) in fm**2, nuclear magnetic moments (NMagM)
  in nuclear magnetons)

  Atom         1           2           3           4           5           6           7           8           9          10
 IAtWgt=          14          12          12          14          12           1          14          12           1          14
 AtmWgt=  14.0030740  12.0000000  12.0000000  14.0030740  12.0000000   1.0078250  14.0030740  12.0000000   1.0078250  14.0030740
 NucSpn=           2           0           0           2           0           1           2           0           1           2
 AtZEff=  -0.0000000  -0.0000000  -0.0000000  -0.0000000  -0.0000000  -0.0000000  -0.0000000  -0.0000000  -0.0000000  -0.0000000
 NQMom=    2.0440000   0.0000000   0.0000000   2.0440000   0.0000000   0.0000000   2.0440000   0.0000000   0.0000000   2.0440000
 NMagM=    0.4037610   0.0000000   0.0000000   0.4037610   0.0000000   2.7928460   0.4037610   0.0000000   2.7928460   0.4037610
 AtZNuc=   7.0000000   6.0000000   6.0000000   7.0000000   6.0000000   1.0000000   7.0000000   6.0000000   1.0000000   7.0000000

  Atom        11          12          13          14          15          16          17          18          19          20
 IAtWgt=          12          12          14           1           1           1           1           1          14          12
 AtmWgt=  12.0000000  12.0000000  14.0030740   1.0078250   1.0078250   1.0078250   1.0078250   1.0078250  14.0030740  12.0000000
 NucSpn=           0           0           2           1           1           1           1           1           2           0
 AtZEff=  -0.0000000  -0.0000000  -0.0000000  -0.0000000  -0.0000000  -0.0000000  -0.0000000  -0.0000000  -0.0000000  -0.0000000
 NQMom=    0.0000000   0.0000000   2.0440000   0.0000000   0.0000000   0.0000000   0.0000000   0.0000000   2.0440000   0.0000000
 NMagM=    0.0000000   0.0000000   0.4037610   2.7928460   2.7928460   2.7928460   2.7928460   2.7928460   0.4037610   0.0000000
 AtZNuc=   6.0000000   6.0000000   7.0000000   1.0000000   1.0000000   1.0000000   1.0000000   1.0000000   7.0000000   6.0000000

  Atom        21          22          23          24          25          26          27          28          29          30
 IAtWgt=          12          14           1           1          14          12          14           1          12          16
 AtmWgt=  12.0000000  14.0030740   1.0078250   1.0078250  14.0030740  12.0000000  14.0030740   1.0078250  12.0000000  15.9949146
 NucSpn=           0           2           1           1           2           0           2           1           0           0
 AtZEff=  -0.0000000  -0.0000000  -0.0000000  -0.0000000  -0.0000000  -0.0000000  -0.0000000  -0.0000000  -0.0000000  -0.0000000
 NQMom=    0.0000000   2.0440000   0.0000000   0.0000000   2.0440000   0.0000000   2.0440000   0.0000000   0.0000000   0.0000000
 NMagM=    0.0000000   0.4037610   2.7928460   2.7928460   0.4037610   0.0000000   0.4037610   2.7928460   0.0000000   0.0000000
 AtZNuc=   6.0000000   7.0000000   1.0000000   1.0000000   7.0000000   6.0000000   7.0000000   1.0000000   6.0000000   8.0000000

  Atom        31          32          33          34          35          36          37          38          39          40
 IAtWgt=          12          14          12           1           1           1           1           1           1           1
 AtmWgt=  12.0000000  14.0030740  12.0000000   1.0078250   1.0078250   1.0078250   1.0078250   1.0078250   1.0078250   1.0078250
 NucSpn=           0           2           0           1           1           1           1           1           1           1
 AtZEff=  -0.0000000  -0.0000000  -0.0000000  -0.0000000  -0.0000000  -0.0000000  -0.0000000  -0.0000000  -0.0000000  -0.0000000
 NQMom=    0.0000000   2.0440000   0.0000000   0.0000000   0.0000000   0.0000000   0.0000000   0.0000000   0.0000000   0.0000000
 NMagM=    0.0000000   0.4037610   0.0000000   2.7928460   2.7928460   2.7928460   2.7928460   2.7928460   2.7928460   2.7928460
 AtZNuc=   6.0000000   7.0000000   6.0000000   1.0000000   1.0000000   1.0000000   1.0000000   1.0000000   1.0000000   1.0000000

  Atom        41          42          43          44          45          46          47          48          49          50
 IAtWgt=           1          12          16          12           1          14          16          12           1          12
 AtmWgt=   1.0078250  12.0000000  15.9949146  12.0000000   1.0078250  14.0030740  15.9949146  12.0000000   1.0078250  12.0000000
 NucSpn=           1           0           0           0           1           2           0           0           1           0
 AtZEff=  -0.0000000  -0.0000000  -0.0000000  -0.0000000  -0.0000000  -0.0000000  -0.0000000  -0.0000000  -0.0000000  -0.0000000
 NQMom=    0.0000000   0.0000000   0.0000000   0.0000000   0.0000000   2.0440000   0.0000000   0.0000000   0.0000000   0.0000000
 NMagM=    2.7928460   0.0000000   0.0000000   0.0000000   2.7928460   0.4037610   0.0000000   0.0000000   2.7928460   0.0000000
 AtZNuc=   1.0000000   6.0000000   8.0000000   6.0000000   1.0000000   7.0000000   8.0000000   6.0000000   1.0000000   6.0000000

  Atom        51          52          53          54          55          56          57          58          59          60
 IAtWgt=          12          14           1           1           1           1           1          14          12          12
 AtmWgt=  12.0000000  14.0030740   1.0078250   1.0078250   1.0078250   1.0078250   1.0078250  14.0030740  12.0000000  12.0000000
 NucSpn=           0           2           1           1           1           1           1           2           0           0
 AtZEff=  -0.0000000  -0.0000000  -0.0000000  -0.0000000  -0.0000000  -0.0000000  -0.0000000  -0.0000000  -0.0000000  -0.0000000
 NQMom=    0.0000000   2.0440000   0.0000000   0.0000000   0.0000000   0.0000000   0.0000000   2.0440000   0.0000000   0.0000000
 NMagM=    0.0000000   0.4037610   2.7928460   2.7928460   2.7928460   2.7928460   2.7928460   0.4037610   0.0000000   0.0000000
 AtZNuc=   6.0000000   7.0000000   1.0000000   1.0000000   1.0000000   1.0000000   1.0000000   7.0000000   6.0000000   6.0000000

  Atom        61          62          63          64          65          66          67          68          69          70
 IAtWgt=          14           1          12          14           1          12          14          12          12          14
 AtmWgt=  14.0030740   1.0078250  12.0000000  14.0030740   1.0078250  12.0000000  14.0030740  12.0000000  12.0000000  14.0030740
 NucSpn=           2           1           0           2           1           0           2           0           0           2
 AtZEff=  -0.0000000  -0.0000000  -0.0000000  -0.0000000  -0.0000000  -0.0000000  -0.0000000  -0.0000000  -0.0000000  -0.0000000
 NQMom=    2.0440000   0.0000000   0.0000000   2.0440000   0.0000000   0.0000000   2.0440000   0.0000000   0.0000000   2.0440000
 NMagM=    0.4037610   2.7928460   0.0000000   0.4037610   2.7928460   0.0000000   0.4037610   0.0000000   0.0000000   0.4037610
 AtZNuc=   7.0000000   1.0000000   6.0000000   7.0000000   1.0000000   6.0000000   7.0000000   6.0000000   6.0000000   7.0000000
 Leave Link  101 at Wed Jan 24 08:54:51 2018, MaxMem=  4294967296 cpu:               7.7 elap:               0.3
 (Enter /share/apps/g16/l202.exe)
 Stoichiometry    C23H27N17O3
 Framework group  C1[X(C23H27N17O3)]
 Deg. of freedom   204
 Full point group                 C1      NOp   1
 Largest Abelian subgroup         C1      NOp   1
 Largest concise Abelian subgroup C1      NOp   1
                         Standard orientation:                         
 ---------------------------------------------------------------------
 Center     Atomic      Atomic             Coordinates (Angstroms)
 Number     Number       Type             X           Y           Z
 ---------------------------------------------------------------------
      1          7           0        5.236543   -1.928265   -1.420710
      2          6           0        6.640309   -1.495958   -1.564084
      3          6           0        3.038572   -1.958259   -1.347458
      4          7           0        3.454194   -3.249861   -1.058010
      5          6           0        4.761748   -3.180090   -1.113731
      6          1           0        5.435450   -4.019213   -0.937854
      7          7           0        1.697785   -0.060223   -1.750788
      8          6           0        2.838450    0.610523   -1.941985
      9          1           0        2.722196    1.665789   -2.185189
     10          7           0        4.095260    0.175472   -1.878153
     11          6           0        4.125994   -1.132404   -1.573306
     12          6           0        1.762373   -1.374636   -1.445444
     13          7           0        0.624824   -2.045899   -1.254218
     14          1           0        0.625080   -3.020234   -1.026439
     15          1           0       -0.265948   -1.598012   -1.332085
     16          1           0        7.079571   -2.021463   -2.292824
     17          1           0        6.668634   -0.523224   -1.792356
     18          1           0        7.127903   -1.649237   -0.704574
     19          7           0        4.074562    2.831706    1.191561
     20          6           0        2.742833    2.494574    1.221436
     21          6           0        4.607284    4.183389    0.927224
     22          7           0       -0.596915    3.402567    0.932665
     23          1           0       -1.490247    2.958796    0.997847
     24          1           0       -0.590609    4.382096    0.729691
     25          7           0        1.705535    3.334721    1.015981
     26          6           0        0.541982    2.715825    1.109351
     27          7           0        0.402747    1.376684    1.382923
     28          1           0       -0.526474    0.988408    1.435507
     29          6           0        1.456025    0.493346    1.597807
     30          8           0        1.221747   -0.697561    1.837778
     31          6           0        2.712412    1.143696    1.500704
     32          7           0        3.999142    0.642815    1.643294
     33          6           0        4.771973    1.677382    1.451952
     34          1           0        5.861616    1.653916    1.489590
     35          1           0        5.190118    4.160935    0.115684
     36          1           0        3.848014    4.814381    0.773516
     37          1           0        5.142080    4.492243    1.712981
     38          1           0       -5.374857   -0.456164    0.926518
     39          1           0       -5.367533   -0.372257    2.686506
     40          1           0       -4.346595    0.718040    1.748270
     41          1           0       -3.139419   -4.579998    1.995836
     42          6           0       -2.922001   -3.513094    1.944066
     43          8           0       -0.567911   -3.805258    1.948208
     44          6           0       -1.559405   -3.076689    1.917597
     45          1           0       -0.446833   -1.361165    1.831178
     46          7           0       -1.395615   -1.707728    1.851647
     47          8           0       -2.140276    0.435374    1.752568
     48          6           0       -2.384502   -0.756959    1.810435
     49          1           0       -4.960794   -2.889634    1.922821
     50          6           0       -3.908345   -2.609653    1.905094
     51          6           0       -4.761980   -0.277525    1.797460
     52          7           0       -3.671840   -1.256083    1.839580
     53          1           0       -5.040524    3.990731   -2.682050
     54          1           0       -3.737405    3.997241   -1.700260
     55          1           0       -5.238490    4.078484   -1.064486
     56          1           0       -2.932498   -2.972534   -1.220999
     57          1           0       -4.564621   -2.529344   -1.444249
     58          7           0       -3.609961   -2.247119   -1.343270
     59          6           0       -3.257074   -0.960300   -1.370606
     60          6           0       -3.653014    1.379339   -1.546817
     61          7           0       -2.363407    1.729006   -1.408690
     62          1           0       -0.535431    0.842736   -1.137330
     63          6           0       -1.600462    0.648414   -1.256570
     64          7           0       -1.952001   -0.641244   -1.228917
     65          1           0       -6.832143    1.799678   -1.957450
     66          6           0       -5.829521    1.396108   -1.813131
     67          7           0       -5.547555    0.120436   -1.708994
     68          6           0       -4.170794    0.095836   -1.539772
     69          6           0       -4.682832    3.688044   -1.798632
     70          7           0       -4.730279    2.214889   -1.723869
 ---------------------------------------------------------------------
 Rotational constants (GHZ):           0.1226828           0.0592229           0.0516570
 Leave Link  202 at Wed Jan 24 08:54:51 2018, MaxMem=  4294967296 cpu:               0.4 elap:               0.0
 (Enter /share/apps/g16/l301.exe)
 Standard basis: CC-pVDZ (5D, 7F)
 Ernie: Thresh=  0.10000D-02 Tol=  0.10000D-05 Strict=F.
 Ernie:  86 primitive shells out of 1081 were deleted.
 There are   780 symmetry adapted cartesian basis functions of A   symmetry.
 There are   737 symmetry adapted basis functions of A   symmetry.
   737 basis functions,  1608 primitive gaussians,   780 cartesian basis functions
   154 alpha electrons      154 beta electrons
       nuclear repulsion energy      5481.4077668244 Hartrees.
 IExCor= 4639 DFT=T Ex+Corr=wB97XD ExCW=0 ScaHFX=  1.000000
 ScaDFX=  1.000000  1.000000  1.000000  1.000000 ScalE2=  1.000000  1.000000
 IRadAn=      5 IRanWt=     -1 IRanGd=            0 ICorTp=0 IEmpDi=121
 HFx  wShort=  0.000000 wLong=  0.200000 cFull=  0.222036 cShort=  0.000000 cLong=  0.777964
 DFx  wShort=  0.000000 wLong=  0.200000 cFull=  0.000000 cShort=  0.000000 cLong=  1.000000
 NAtoms=   70 NActive=   70 NUniq=   70 SFac= 1.00D+00 NAtFMM=   60 NAOKFM=T Big=T
 Integral buffers will be    131072 words long.
 Raffenetti 2 integral format.
 Two-electron integral symmetry is turned on.
 R6Disp:  Grimme-D2 Dispersion energy=       -0.0685044118 Hartrees.
 Nuclear repulsion after empirical dispersion term =     5481.3392624126 Hartrees.
 Leave Link  301 at Wed Jan 24 08:54:51 2018, MaxMem=  4294967296 cpu:               2.1 elap:               0.1
 (Enter /share/apps/g16/l302.exe)
 NPDir=0 NMtPBC=     1 NCelOv=     1 NCel=       1 NClECP=     1 NCelD=      1
         NCelK=      1 NCelE2=     1 NClLst=     1 CellRange=     0.0.
 One-electron integrals computed using PRISM.
 One-electron integral symmetry used in STVInt
 NBasis=   737 RedAO= T EigKep=  7.13D-04  NBF=   737
 NBsUse=   737 1.00D-06 EigRej= -1.00D+00 NBFU=   737
 Precomputing XC quadrature grid using
 IXCGrd= 4 IRadAn=           5 IRanWt=          -1 IRanGd=           0 AccXCQ= 0.00D+00.
 Generated NRdTot=       0 NPtTot=           0 NUsed=           0 NTot=          32
 NSgBfM=   761   761   761   761   761 MxSgAt=    70 MxSgA2=    70.
 Leave Link  302 at Wed Jan 24 08:54:56 2018, MaxMem=  4294967296 cpu:             134.2 elap:               4.2
 (Enter /share/apps/g16/l303.exe)
 DipDrv:  MaxL=1.
 Leave Link  303 at Wed Jan 24 08:54:56 2018, MaxMem=  4294967296 cpu:              12.5 elap:               0.4
 (Enter /share/apps/g16/l401.exe)
 ExpMin= 1.22D-01 ExpMax= 1.17D+04 ExpMxC= 4.01D+02 IAcc=3 IRadAn=         5 AccDes= 0.00D+00
 Harris functional with IExCor= 4639 and IRadAn=       5 diagonalized for initial guess.
 HarFok:  IExCor= 4639 AccDes= 0.00D+00 IRadAn=         5 IDoV= 1 UseB2=F ITyADJ=14
 ICtDFT=  3500011 ScaDFX=  1.000000  1.000000  1.000000  1.000000
 FoFCou: FMM=F IPFlag=           0 FMFlag=      100000 FMFlg1=        2001
         NFxFlg=           0 DoJE=T BraDBF=F KetDBF=T FulRan=T
         wScrn=  0.000000 ICntrl=       500 IOpCl=  0 I1Cent=   200000004 NGrid=           0
         NMat0=    1 NMatS0=      1 NMatT0=    0 NMatD0=    1 NMtDS0=    0 NMtDT0=    0
 Petite list used in FoFCou.
 Harris En= -1963.89165033637    
 JPrj=0 DoOrth=F DoCkMO=F.
 Leave Link  401 at Wed Jan 24 08:55:09 2018, MaxMem=  4294967296 cpu:             398.3 elap:              12.5
 (Enter /share/apps/g16/l502.exe)
 Integral symmetry usage will be decided dynamically.
 Closed shell SCF:
 Using DIIS extrapolation, IDIIS=  1040.
 NGot=  4294967296 LenX=  4293717438 LenY=  4293108258
 Requested convergence on RMS density matrix=1.00D-08 within  20 cycles.
 Requested convergence on MAX density matrix=1.00D-06.
 Requested convergence on             energy=1.00D-06.
 No special actions if energy rises.
 Fock matrices will be formed incrementally for  20 cycles.
 Integral accuracy reduced to 1.0D-05 until final iterations.

 Cycle   1  Pass 0  IDiag  1:
 FoFJK:  IHMeth= 1 ICntrl=       0 DoSepK=T KAlg= 0 I1Cent=           0 FoldK=F
 IRaf=         1 NMat=       1 IRICut=       1 DoRegI=T DoRafI=F ISym2E= 0 IDoP0=0 IntGTp=1.
 FoFCou: FMM=T IPFlag=           0 FMFlag=      100000 FMFlg1=        2001
         NFxFlg=           0 DoJE=T BraDBF=F KetDBF=F FulRan=T
         wScrn=  0.000000 ICntrl=       500 IOpCl=  0 I1Cent=           0 NGrid=           0
         NMat0=    1 NMatS0=      1 NMatT0=    0 NMatD0=    1 NMtDS0=    0 NMtDT0=    0
 Symmetry not used in FoFCou.
 FMM levels:  10  Number of levels for PrismC:   9
 E= -2048.31915306043    
 DIIS: error= 2.59D-02 at cycle   1 NSaved=   1.
 NSaved= 1 IEnMin= 1 EnMin= -2048.31915306043     IErMin= 1 ErrMin= 2.59D-02
 ErrMax= 2.59D-02  0.00D+00 EMaxC= 1.00D-01 BMatC= 8.31D-01 BMatP= 8.31D-01
 IDIUse=3 WtCom= 7.41D-01 WtEn= 2.59D-01
 Coeff-Com:  0.100D+01
 Coeff-En:   0.100D+01
 Coeff:      0.100D+01
 Gap=     0.251 Goal=   None    Shift=    0.000
 GapD=    0.251 DampG=1.000 DampE=0.500 DampFc=0.5000 IDamp=-1.
 Damping current iteration by 5.00D-01
 RMSDP=1.54D-03 MaxDP=1.32D-01              OVMax= 2.06D-01

 Cycle   2  Pass 0  IDiag  1:
 RMSU=  7.71D-04    CP:  9.98D-01
 E= -2048.51718952996     Delta-E=       -0.198036469529 Rises=F Damp=T
 DIIS: error= 1.45D-02 at cycle   2 NSaved=   2.
 NSaved= 2 IEnMin= 2 EnMin= -2048.51718952996     IErMin= 2 ErrMin= 1.45D-02
 ErrMax= 1.45D-02  0.00D+00 EMaxC= 1.00D-01 BMatC= 1.44D-01 BMatP= 8.31D-01
 IDIUse=3 WtCom= 8.55D-01 WtEn= 1.45D-01
 Coeff-Com: -0.204D+00 0.120D+01
 Coeff-En:   0.000D+00 0.100D+01
 Coeff:     -0.174D+00 0.117D+01
 Gap=     0.307 Goal=   None    Shift=    0.000
 RMSDP=5.72D-04 MaxDP=3.57D-02 DE=-1.98D-01 OVMax= 1.32D-01

 Cycle   3  Pass 0  IDiag  1:
 RMSU=  5.57D-04    CP:  9.94D-01  1.15D+00
 E= -2048.69901697629     Delta-E=       -0.181827446325 Rises=F Damp=F
 DIIS: error= 7.62D-03 at cycle   3 NSaved=   3.
 NSaved= 3 IEnMin= 3 EnMin= -2048.69901697629     IErMin= 3 ErrMin= 7.62D-03
 ErrMax= 7.62D-03  0.00D+00 EMaxC= 1.00D-01 BMatC= 5.90D-02 BMatP= 1.44D-01
 IDIUse=3 WtCom= 9.24D-01 WtEn= 7.62D-02
 Coeff-Com: -0.229D+00 0.541D+00 0.688D+00
 Coeff-En:   0.000D+00 0.000D+00 0.100D+01
 Coeff:     -0.211D+00 0.499D+00 0.712D+00
 Gap=     0.276 Goal=   None    Shift=    0.000
 RMSDP=3.37D-04 MaxDP=3.49D-02 DE=-1.82D-01 OVMax= 7.16D-02

 Cycle   4  Pass 0  IDiag  1:
 RMSU=  1.96D-04    CP:  9.95D-01  1.43D+00  6.84D-01
 E= -2048.74310656264     Delta-E=       -0.044089586353 Rises=F Damp=F
 DIIS: error= 2.95D-03 at cycle   4 NSaved=   4.
 NSaved= 4 IEnMin= 4 EnMin= -2048.74310656264     IErMin= 4 ErrMin= 2.95D-03
 ErrMax= 2.95D-03  0.00D+00 EMaxC= 1.00D-01 BMatC= 8.66D-03 BMatP= 5.90D-02
 IDIUse=3 WtCom= 9.70D-01 WtEn= 2.95D-02
 Coeff-Com: -0.940D-01 0.182D+00 0.380D+00 0.532D+00
 Coeff-En:   0.000D+00 0.000D+00 0.595D-01 0.941D+00
 Coeff:     -0.912D-01 0.177D+00 0.370D+00 0.544D+00
 Gap=     0.280 Goal=   None    Shift=    0.000
 RMSDP=1.22D-04 MaxDP=1.30D-02 DE=-4.41D-02 OVMax= 1.42D-02

 Cycle   5  Pass 0  IDiag  1:
 RMSU=  6.13D-05    CP:  9.94D-01  1.40D+00  8.13D-01  6.23D-01
 E= -2048.75001868189     Delta-E=       -0.006912119255 Rises=F Damp=F
 DIIS: error= 6.54D-04 at cycle   5 NSaved=   5.
 NSaved= 5 IEnMin= 5 EnMin= -2048.75001868189     IErMin= 5 ErrMin= 6.54D-04
 ErrMax= 6.54D-04  0.00D+00 EMaxC= 1.00D-01 BMatC= 2.97D-04 BMatP= 8.66D-03
 IDIUse=3 WtCom= 9.93D-01 WtEn= 6.54D-03
 Coeff-Com: -0.244D-01 0.417D-01 0.123D+00 0.244D+00 0.616D+00
 Coeff-En:   0.000D+00 0.000D+00 0.000D+00 0.000D+00 0.100D+01
 Coeff:     -0.242D-01 0.415D-01 0.122D+00 0.242D+00 0.618D+00
 Gap=     0.279 Goal=   None    Shift=    0.000
 RMSDP=2.48D-05 MaxDP=2.51D-03 DE=-6.91D-03 OVMax= 3.51D-03

 Failed to achieve initial convergence to 1.0D-08 in  6 cycles.
 Switch to full accuracy anyway.
 Cycle   6  Pass 1  IDiag  1:
 E= -2048.75042570460     Delta-E=       -0.000407022703 Rises=F Damp=F
 DIIS: error= 2.43D-04 at cycle   1 NSaved=   1.
 NSaved= 1 IEnMin= 1 EnMin= -2048.75042570460     IErMin= 1 ErrMin= 2.43D-04
 ErrMax= 2.43D-04  0.00D+00 EMaxC= 1.00D-01 BMatC= 7.67D-05 BMatP= 7.67D-05
 IDIUse=3 WtCom= 9.98D-01 WtEn= 2.43D-03
 Coeff-Com:  0.100D+01
 Coeff-En:   0.100D+01
 Coeff:      0.100D+01
 Gap=     0.280 Goal=   None    Shift=    0.000
 RMSDP=2.48D-05 MaxDP=2.51D-03 DE=-4.07D-04 OVMax= 1.99D-03

 Cycle   7  Pass 1  IDiag  1:
 RMSU=  1.14D-04    CP:  1.00D+00
 E= -2048.75048135624     Delta-E=       -0.000055651640 Rises=F Damp=F
 DIIS: error= 2.94D-04 at cycle   2 NSaved=   2.
 NSaved= 2 IEnMin= 2 EnMin= -2048.75048135624     IErMin= 1 ErrMin= 2.43D-04
 ErrMax= 2.94D-04  0.00D+00 EMaxC= 1.00D-01 BMatC= 4.66D-05 BMatP= 7.67D-05
 IDIUse=3 WtCom= 9.97D-01 WtEn= 2.94D-03
 Coeff-Com:  0.416D+00 0.584D+00
 Coeff-En:   0.000D+00 0.100D+01
 Coeff:      0.415D+00 0.585D+00
 Gap=     0.280 Goal=   None    Shift=    0.000
 RMSDP=1.10D-05 MaxDP=1.50D-03 DE=-5.57D-05 OVMax= 1.73D-03

 Cycle   8  Pass 1  IDiag  1:
 RMSU=  1.06D-05    CP:  1.00D+00  1.03D+00
 E= -2048.75051331518     Delta-E=       -0.000031958944 Rises=F Damp=F
 DIIS: error= 1.29D-04 at cycle   3 NSaved=   3.
 NSaved= 3 IEnMin= 3 EnMin= -2048.75051331518     IErMin= 3 ErrMin= 1.29D-04
 ErrMax= 1.29D-04  0.00D+00 EMaxC= 1.00D-01 BMatC= 1.09D-05 BMatP= 4.66D-05
 IDIUse=3 WtCom= 9.99D-01 WtEn= 1.29D-03
 Coeff-Com: -0.200D-01 0.314D+00 0.706D+00
 Coeff-En:   0.000D+00 0.137D+00 0.863D+00
 Coeff:     -0.200D-01 0.314D+00 0.706D+00
 Gap=     0.280 Goal=   None    Shift=    0.000
 RMSDP=5.66D-06 MaxDP=5.75D-04 DE=-3.20D-05 OVMax= 5.90D-04

 Cycle   9  Pass 1  IDiag  1:
 RMSU=  3.79D-06    CP:  1.00D+00  1.05D+00  7.58D-01
 E= -2048.75052287129     Delta-E=       -0.000009556114 Rises=F Damp=F
 DIIS: error= 2.69D-05 at cycle   4 NSaved=   4.
 NSaved= 4 IEnMin= 4 EnMin= -2048.75052287129     IErMin= 4 ErrMin= 2.69D-05
 ErrMax= 2.69D-05  0.00D+00 EMaxC= 1.00D-01 BMatC= 4.80D-07 BMatP= 1.09D-05
 IDIUse=1 WtCom= 1.00D+00 WtEn= 0.00D+00
 Coeff-Com: -0.305D-01 0.878D-01 0.256D+00 0.686D+00
 Coeff:     -0.305D-01 0.878D-01 0.256D+00 0.686D+00
 Gap=     0.280 Goal=   None    Shift=    0.000
 RMSDP=1.39D-06 MaxDP=1.41D-04 DE=-9.56D-06 OVMax= 4.61D-04

 Cycle  10  Pass 1  IDiag  1:
 RMSU=  1.24D-06    CP:  1.00D+00  1.06D+00  7.87D-01  1.11D+00
 E= -2048.75052366345     Delta-E=       -0.000000792159 Rises=F Damp=F
 DIIS: error= 1.49D-05 at cycle   5 NSaved=   5.
 NSaved= 5 IEnMin= 5 EnMin= -2048.75052366345     IErMin= 5 ErrMin= 1.49D-05
 ErrMax= 1.49D-05  0.00D+00 EMaxC= 1.00D-01 BMatC= 1.11D-07 BMatP= 4.80D-07
 IDIUse=1 WtCom= 1.00D+00 WtEn= 0.00D+00
 Coeff-Com: -0.238D-02-0.539D-01-0.121D+00 0.194D+00 0.984D+00
 Coeff:     -0.238D-02-0.539D-01-0.121D+00 0.194D+00 0.984D+00
 Gap=     0.280 Goal=   None    Shift=    0.000
 RMSDP=1.17D-06 MaxDP=7.65D-05 DE=-7.92D-07 OVMax= 2.21D-04

 Cycle  11  Pass 1  IDiag  1:
 RMSU=  4.85D-07    CP:  1.00D+00  1.06D+00  7.95D-01  1.38D+00  1.17D+00
 E= -2048.75052390446     Delta-E=       -0.000000241002 Rises=F Damp=F
 DIIS: error= 6.53D-06 at cycle   6 NSaved=   6.
 NSaved= 6 IEnMin= 6 EnMin= -2048.75052390446     IErMin= 6 ErrMin= 6.53D-06
 ErrMax= 6.53D-06  0.00D+00 EMaxC= 1.00D-01 BMatC= 2.76D-08 BMatP= 1.11D-07
 IDIUse=1 WtCom= 1.00D+00 WtEn= 0.00D+00
 Coeff-Com:  0.468D-02-0.441D-01-0.113D+00-0.559D-02 0.527D+00 0.631D+00
 Coeff:      0.468D-02-0.441D-01-0.113D+00-0.559D-02 0.527D+00 0.631D+00
 Gap=     0.280 Goal=   None    Shift=    0.000
 RMSDP=3.61D-07 MaxDP=3.70D-05 DE=-2.41D-07 OVMax= 1.14D-04

 Cycle  12  Pass 1  IDiag  1:
 RMSU=  1.84D-07    CP:  1.00D+00  1.06D+00  7.95D-01  1.45D+00  1.30D+00
                    CP:  9.04D-01
 E= -2048.75052394334     Delta-E=       -0.000000038887 Rises=F Damp=F
 DIIS: error= 1.17D-06 at cycle   7 NSaved=   7.
 NSaved= 7 IEnMin= 7 EnMin= -2048.75052394334     IErMin= 7 ErrMin= 1.17D-06
 ErrMax= 1.17D-06  0.00D+00 EMaxC= 1.00D-01 BMatC= 8.44D-10 BMatP= 2.76D-08
 IDIUse=1 WtCom= 1.00D+00 WtEn= 0.00D+00
 Coeff-Com:  0.119D-02-0.796D-02-0.222D-01-0.741D-02 0.692D-01 0.154D+00
 Coeff-Com:  0.813D+00
 Coeff:      0.119D-02-0.796D-02-0.222D-01-0.741D-02 0.692D-01 0.154D+00
 Coeff:      0.813D+00
 Gap=     0.280 Goal=   None    Shift=    0.000
 RMSDP=7.87D-08 MaxDP=5.28D-06 DE=-3.89D-08 OVMax= 2.11D-05

 Cycle  13  Pass 1  IDiag  1:
 RMSU=  5.00D-08    CP:  1.00D+00  1.06D+00  7.95D-01  1.45D+00  1.32D+00
                    CP:  9.91D-01  1.11D+00
 E= -2048.75052394522     Delta-E=       -0.000000001876 Rises=F Damp=F
 DIIS: error= 6.37D-07 at cycle   8 NSaved=   8.
 NSaved= 8 IEnMin= 8 EnMin= -2048.75052394522     IErMin= 8 ErrMin= 6.37D-07
 ErrMax= 6.37D-07  0.00D+00 EMaxC= 1.00D-01 BMatC= 3.30D-10 BMatP= 8.44D-10
 IDIUse=1 WtCom= 1.00D+00 WtEn= 0.00D+00
 Coeff-Com: -0.695D-03 0.828D-02 0.198D-01-0.820D-03-0.114D+00-0.929D-01
 Coeff-Com:  0.412D+00 0.768D+00
 Coeff:     -0.695D-03 0.828D-02 0.198D-01-0.820D-03-0.114D+00-0.929D-01
 Coeff:      0.412D+00 0.768D+00
 Gap=     0.280 Goal=   None    Shift=    0.000
 RMSDP=4.89D-08 MaxDP=2.95D-06 DE=-1.88D-09 OVMax= 1.16D-05

 Cycle  14  Pass 1  IDiag  1:
 RMSU=  2.78D-08    CP:  1.00D+00  1.06D+00  7.95D-01  1.46D+00  1.33D+00
                    CP:  1.03D+00  1.27D+00  1.06D+00
 E= -2048.75052394542     Delta-E=       -0.000000000204 Rises=F Damp=F
 DIIS: error= 1.43D-07 at cycle   9 NSaved=   9.
 NSaved= 9 IEnMin= 9 EnMin= -2048.75052394542     IErMin= 9 ErrMin= 1.43D-07
 ErrMax= 1.43D-07  0.00D+00 EMaxC= 1.00D-01 BMatC= 3.48D-11 BMatP= 3.30D-10
 IDIUse=1 WtCom= 1.00D+00 WtEn= 0.00D+00
 Coeff-Com: -0.447D-03 0.466D-02 0.115D-01 0.107D-02-0.576D-01-0.582D-01
 Coeff-Com:  0.883D-01 0.327D+00 0.684D+00
 Coeff:     -0.447D-03 0.466D-02 0.115D-01 0.107D-02-0.576D-01-0.582D-01
 Coeff:      0.883D-01 0.327D+00 0.684D+00
 Gap=     0.280 Goal=   None    Shift=    0.000
 RMSDP=1.34D-08 MaxDP=8.37D-07 DE=-2.04D-10 OVMax= 3.31D-06

 Cycle  15  Pass 1  IDiag  1:
 RMSU=  9.21D-09    CP:  1.00D+00  1.06D+00  7.95D-01  1.46D+00  1.33D+00
                    CP:  1.04D+00  1.29D+00  1.21D+00  1.09D+00
 E= -2048.75052394542     Delta-E=        0.000000000003 Rises=F Damp=F
 DIIS: error= 7.48D-08 at cycle  10 NSaved=  10.
 NSaved=10 IEnMin= 9 EnMin= -2048.75052394542     IErMin=10 ErrMin= 7.48D-08
 ErrMax= 7.48D-08  0.00D+00 EMaxC= 1.00D-01 BMatC= 4.74D-12 BMatP= 3.48D-11
 IDIUse=1 WtCom= 1.00D+00 WtEn= 0.00D+00
 Coeff-Com:  0.856D-05-0.337D-03-0.689D-03 0.113D-03 0.583D-02 0.152D-02
 Coeff-Com: -0.571D-01-0.612D-01 0.233D+00 0.879D+00
 Coeff:      0.856D-05-0.337D-03-0.689D-03 0.113D-03 0.583D-02 0.152D-02
 Coeff:     -0.571D-01-0.612D-01 0.233D+00 0.879D+00
 Gap=     0.280 Goal=   None    Shift=    0.000
 RMSDP=7.04D-09 MaxDP=4.15D-07 DE= 2.73D-12 OVMax= 1.61D-06

 SCF Done:  E(RwB97XD) =  -2048.75052395     A.U. after   15 cycles
            NFock= 15  Conv=0.70D-08     -V/T= 2.0054
 KE= 2.037671983129D+03 PE=-1.574350369989D+04 EE= 6.175741930407D+03
 Leave Link  502 at Wed Jan 24 09:06:10 2018, MaxMem=  4294967296 cpu:           20465.0 elap:             661.9
 (Enter /share/apps/g16/l601.exe)
 Copying SCF densities to generalized density rwf, IOpCl= 0 IROHF=0.

 **********************************************************************

            Population analysis using the SCF density.

 **********************************************************************

 Orbital symmetries:
       Occupied  (A) (A) (A) (A) (A) (A) (A) (A) (A) (A) (A) (A)
                 (A) (A) (A) (A) (A) (A) (A) (A) (A) (A) (A) (A)
                 (A) (A) (A) (A) (A) (A) (A) (A) (A) (A) (A) (A)
                 (A) (A) (A) (A) (A) (A) (A) (A) (A) (A) (A) (A)
                 (A) (A) (A) (A) (A) (A) (A) (A) (A) (A) (A) (A)
                 (A) (A) (A) (A) (A) (A) (A) (A) (A) (A) (A) (A)
                 (A) (A) (A) (A) (A) (A) (A) (A) (A) (A) (A) (A)
                 (A) (A) (A) (A) (A) (A) (A) (A) (A) (A) (A) (A)
                 (A) (A) (A) (A) (A) (A) (A) (A) (A) (A) (A) (A)
                 (A) (A) (A) (A) (A) (A) (A) (A) (A) (A) (A) (A)
                 (A) (A) (A) (A) (A) (A) (A) (A) (A) (A) (A) (A)
                 (A) (A) (A) (A) (A) (A) (A) (A) (A) (A) (A) (A)
                 (A) (A) (A) (A) (A) (A) (A) (A) (A) (A)
       Virtual   (A) (A) (A) (A) (A) (A) (A) (A) (A) (A) (A) (A)
                 (A) (A) (A) (A) (A) (A) (A) (A) (A) (A) (A) (A)
                 (A) (A) (A) (A) (A) (A) (A) (A) (A) (A) (A) (A)
                 (A) (A) (A) (A) (A) (A) (A) (A) (A) (A) (A) (A)
                 (A) (A) (A) (A) (A) (A) (A) (A) (A) (A) (A) (A)
                 (A) (A) (A) (A) (A) (A) (A) (A) (A) (A) (A) (A)
                 (A) (A) (A) (A) (A) (A) (A) (A) (A) (A) (A) (A)
                 (A) (A) (A) (A) (A) (A) (A) (A) (A) (A) (A) (A)
                 (A) (A) (A) (A) (A) (A) (A) (A) (A) (A) (A) (A)
                 (A) (A) (A) (A) (A) (A) (A) (A) (A) (A) (A) (A)
                 (A) (A) (A) (A) (A) (A) (A) (A) (A) (A) (A) (A)
                 (A) (A) (A) (A) (A) (A) (A) (A) (A) (A) (A) (A)
                 (A) (A) (A) (A) (A) (A) (A) (A) (A) (A) (A) (A)
                 (A) (A) (A) (A) (A) (A) (A) (A) (A) (A) (A) (A)
                 (A) (A) (A) (A) (A) (A) (A) (A) (A) (A) (A) (A)
                 (A) (A) (A) (A) (A) (A) (A) (A) (A) (A) (A) (A)
                 (A) (A) (A) (A) (A) (A) (A) (A) (A) (A) (A) (A)
                 (A) (A) (A) (A) (A) (A) (A) (A) (A) (A) (A) (A)
                 (A) (A) (A) (A) (A) (A) (A) (A) (A) (A) (A) (A)
                 (A) (A) (A) (A) (A) (A) (A) (A) (A) (A) (A) (A)
                 (A) (A) (A) (A) (A) (A) (A) (A) (A) (A) (A) (A)
                 (A) (A) (A) (A) (A) (A) (A) (A) (A) (A) (A) (A)
                 (A) (A) (A) (A) (A) (A) (A) (A) (A) (A) (A) (A)
                 (A) (A) (A) (A) (A) (A) (A) (A) (A) (A) (A) (A)
                 (A) (A) (A) (A) (A) (A) (A) (A) (A) (A) (A) (A)
                 (A) (A) (A) (A) (A) (A) (A) (A) (A) (A) (A) (A)
                 (A) (A) (A) (A) (A) (A) (A) (A) (A) (A) (A) (A)
                 (A) (A) (A) (A) (A) (A) (A) (A) (A) (A) (A) (A)
                 (A) (A) (A) (A) (A) (A) (A) (A) (A) (A) (A) (A)
                 (A) (A) (A) (A) (A) (A) (A) (A) (A) (A) (A) (A)
                 (A) (A) (A) (A) (A) (A) (A) (A) (A) (A) (A) (A)
                 (A) (A) (A) (A) (A) (A) (A) (A) (A) (A) (A) (A)
                 (A) (A) (A) (A) (A) (A) (A) (A) (A) (A) (A) (A)
                 (A) (A) (A) (A) (A) (A) (A) (A) (A) (A) (A) (A)
                 (A) (A) (A) (A) (A) (A) (A) (A) (A) (A) (A) (A)
                 (A) (A) (A) (A) (A) (A) (A) (A) (A) (A) (A) (A)
                 (A) (A) (A) (A) (A) (A) (A) (A) (A) (A) (A) (A)
                 (A) (A) (A) (A) (A) (A) (A) (A) (A) (A) (A) (A)
                 (A) (A) (A) (A) (A) (A) (A) (A) (A) (A) (A) (A)
                 (A) (A) (A) (A) (A) (A) (A) (A) (A) (A) (A) (A)
                 (A) (A) (A) (A) (A) (A) (A) (A) (A) (A) (A) (A)
                 (A) (A) (A) (A) (A) (A) (A) (A) (A) (A) (A) (A)
                 (A) (A) (A) (A) (A) (A) (A) (A) (A) (A) (A) (A)
                 (A) (A) (A) (A) (A) (A) (A) (A) (A) (A) (A) (A)
                 (A) (A) (A) (A) (A) (A) (A) (A) (A) (A) (A) (A)
                 (A) (A) (A) (A) (A) (A) (A) (A) (A) (A) (A) (A)
                 (A) (A) (A) (A) (A) (A) (A) (A) (A) (A) (A) (A)
                 (A) (A) (A) (A) (A) (A) (A) (A) (A) (A) (A) (A)
                 (A) (A) (A) (A) (A) (A) (A)
 The electronic state is 1-A.
 Alpha  occ. eigenvalues --  -19.25536 -19.21814 -19.20441 -14.52635 -14.52219
 Alpha  occ. eigenvalues --  -14.48689 -14.48634 -14.48164 -14.47542 -14.46716
 Alpha  occ. eigenvalues --  -14.46334 -14.45659 -14.44563 -14.44560 -14.42245
 Alpha  occ. eigenvalues --  -14.41857 -14.40812 -14.40775 -14.40543 -14.40038
 Alpha  occ. eigenvalues --  -10.45198 -10.41043 -10.40253 -10.39933 -10.38205
 Alpha  occ. eigenvalues --  -10.38067 -10.37771 -10.37412 -10.35980 -10.35202
 Alpha  occ. eigenvalues --  -10.34717 -10.34212 -10.34072 -10.33530 -10.33236
 Alpha  occ. eigenvalues --  -10.32896 -10.32862 -10.32744 -10.31031 -10.30870
 Alpha  occ. eigenvalues --  -10.30441 -10.28065 -10.27961  -1.19156  -1.15380
 Alpha  occ. eigenvalues --   -1.13026  -1.12814  -1.10765  -1.10456  -1.09578
 Alpha  occ. eigenvalues --   -1.09092  -1.08360  -1.05116  -1.04727  -1.02204
 Alpha  occ. eigenvalues --   -1.01190  -1.00177  -0.99475  -0.98391  -0.97123
 Alpha  occ. eigenvalues --   -0.96481  -0.96439  -0.92419  -0.90937  -0.87822
 Alpha  occ. eigenvalues --   -0.86096  -0.83981  -0.83437  -0.83297  -0.82401
 Alpha  occ. eigenvalues --   -0.81848  -0.78715  -0.77263  -0.75079  -0.74471
 Alpha  occ. eigenvalues --   -0.73434  -0.73101  -0.72558  -0.70731  -0.70601
 Alpha  occ. eigenvalues --   -0.67190  -0.67074  -0.66312  -0.65958  -0.64518
 Alpha  occ. eigenvalues --   -0.64285  -0.63620  -0.62524  -0.62394  -0.61551
 Alpha  occ. eigenvalues --   -0.60773  -0.60414  -0.60269  -0.59506  -0.59381
 Alpha  occ. eigenvalues --   -0.59232  -0.58098  -0.56586  -0.56262  -0.55779
 Alpha  occ. eigenvalues --   -0.55768  -0.55525  -0.55211  -0.54460  -0.54065
 Alpha  occ. eigenvalues --   -0.53934  -0.53499  -0.53474  -0.53085  -0.52931
 Alpha  occ. eigenvalues --   -0.52792  -0.52140  -0.51341  -0.50287  -0.50140
 Alpha  occ. eigenvalues --   -0.49998  -0.49748  -0.49494  -0.49179  -0.48681
 Alpha  occ. eigenvalues --   -0.48572  -0.48228  -0.48059  -0.47535  -0.47167
 Alpha  occ. eigenvalues --   -0.46531  -0.45693  -0.45337  -0.44313  -0.43660
 Alpha  occ. eigenvalues --   -0.40972  -0.40772  -0.39183  -0.37855  -0.37789
 Alpha  occ. eigenvalues --   -0.37160  -0.37138  -0.36664  -0.35634  -0.34989
 Alpha  occ. eigenvalues --   -0.34644  -0.33707  -0.33170  -0.33096  -0.32898
 Alpha  occ. eigenvalues --   -0.32535  -0.32312  -0.32013  -0.31756  -0.30496
 Alpha  occ. eigenvalues --   -0.30236  -0.30094  -0.25481  -0.25254
 Alpha virt. eigenvalues --    0.02725   0.04208   0.06551   0.08366   0.08913
 Alpha virt. eigenvalues --    0.09342   0.09935   0.10282   0.11342   0.11632
 Alpha virt. eigenvalues --    0.12734   0.14330   0.14694   0.14870   0.15181
 Alpha virt. eigenvalues --    0.15583   0.16235   0.17153   0.17289   0.17404
 Alpha virt. eigenvalues --    0.18576   0.19576   0.20123   0.20456   0.20561
 Alpha virt. eigenvalues --    0.20857   0.21013   0.21157   0.21381   0.21722
 Alpha virt. eigenvalues --    0.22115   0.23095   0.23649   0.23743   0.23974
 Alpha virt. eigenvalues --    0.24272   0.24446   0.24492   0.24751   0.25131
 Alpha virt. eigenvalues --    0.25414   0.25772   0.27292   0.27865   0.28202
 Alpha virt. eigenvalues --    0.28948   0.29128   0.29584   0.30506   0.30851
 Alpha virt. eigenvalues --    0.31600   0.31863   0.32232   0.33041   0.33546
 Alpha virt. eigenvalues --    0.33836   0.34259   0.34906   0.35956   0.35992
 Alpha virt. eigenvalues --    0.36990   0.37124   0.37837   0.38770   0.39192
 Alpha virt. eigenvalues --    0.39813   0.40151   0.40517   0.41482   0.41827
 Alpha virt. eigenvalues --    0.41981   0.42718   0.43446   0.43618   0.44133
 Alpha virt. eigenvalues --    0.44374   0.45082   0.45971   0.46535   0.47250
 Alpha virt. eigenvalues --    0.47659   0.47803   0.48443   0.48514   0.49226
 Alpha virt. eigenvalues --    0.49763   0.50251   0.50610   0.50745   0.51154
 Alpha virt. eigenvalues --    0.51419   0.51836   0.52157   0.52702   0.53354
 Alpha virt. eigenvalues --    0.53638   0.54139   0.54344   0.55091   0.55606
 Alpha virt. eigenvalues --    0.56171   0.56415   0.56473   0.57355   0.57520
 Alpha virt. eigenvalues --    0.58083   0.58325   0.58607   0.59424   0.59650
 Alpha virt. eigenvalues --    0.59821   0.60282   0.60474   0.60695   0.61221
 Alpha virt. eigenvalues --    0.61590   0.62087   0.62286   0.62691   0.62894
 Alpha virt. eigenvalues --    0.63222   0.63676   0.64342   0.65203   0.65534
 Alpha virt. eigenvalues --    0.65677   0.65948   0.66331   0.66940   0.67046
 Alpha virt. eigenvalues --    0.67506   0.67710   0.68479   0.68659   0.69042
 Alpha virt. eigenvalues --    0.69765   0.70325   0.70631   0.71060   0.71622
 Alpha virt. eigenvalues --    0.72016   0.72970   0.72984   0.73427   0.73967
 Alpha virt. eigenvalues --    0.74133   0.74639   0.74766   0.74956   0.75314
 Alpha virt. eigenvalues --    0.75991   0.76152   0.76330   0.76588   0.76826
 Alpha virt. eigenvalues --    0.77475   0.77718   0.78051   0.78743   0.79113
 Alpha virt. eigenvalues --    0.79613   0.79748   0.80080   0.80587   0.80780
 Alpha virt. eigenvalues --    0.81054   0.81683   0.82007   0.82368   0.83141
 Alpha virt. eigenvalues --    0.83378   0.84059   0.84237   0.84500   0.84975
 Alpha virt. eigenvalues --    0.85414   0.85904   0.86366   0.86609   0.87346
 Alpha virt. eigenvalues --    0.87762   0.88138   0.88422   0.89280   0.89532
 Alpha virt. eigenvalues --    0.90011   0.90452   0.91317   0.91527   0.92030
 Alpha virt. eigenvalues --    0.92470   0.92532   0.92886   0.93361   0.93866
 Alpha virt. eigenvalues --    0.94635   0.94914   0.95352   0.96320   0.96554
 Alpha virt. eigenvalues --    0.97051   0.97147   0.97925   0.98359   0.98863
 Alpha virt. eigenvalues --    0.99019   0.99668   0.99786   1.00330   1.00676
 Alpha virt. eigenvalues --    1.01189   1.02013   1.02149   1.02355   1.02749
 Alpha virt. eigenvalues --    1.03433   1.03529   1.04401   1.04487   1.05074
 Alpha virt. eigenvalues --    1.05131   1.05806   1.06533   1.06827   1.07287
 Alpha virt. eigenvalues --    1.07795   1.08710   1.09531   1.09671   1.10556
 Alpha virt. eigenvalues --    1.10908   1.11151   1.11968   1.12617   1.13220
 Alpha virt. eigenvalues --    1.13503   1.14098   1.14303   1.14403   1.15563
 Alpha virt. eigenvalues --    1.15634   1.16686   1.16777   1.17129   1.17354
 Alpha virt. eigenvalues --    1.17875   1.18247   1.18937   1.19427   1.19782
 Alpha virt. eigenvalues --    1.20042   1.20526   1.20697   1.20856   1.21201
 Alpha virt. eigenvalues --    1.21667   1.22019   1.22549   1.22969   1.23308
 Alpha virt. eigenvalues --    1.23534   1.23977   1.24148   1.24860   1.25202
 Alpha virt. eigenvalues --    1.25353   1.25601   1.26998   1.27441   1.28163
 Alpha virt. eigenvalues --    1.28319   1.28557   1.29630   1.30012   1.30303
 Alpha virt. eigenvalues --    1.31041   1.32325   1.32425   1.32622   1.33620
 Alpha virt. eigenvalues --    1.33881   1.34724   1.35009   1.35387   1.36432
 Alpha virt. eigenvalues --    1.36736   1.38161   1.38613   1.39413   1.39776
 Alpha virt. eigenvalues --    1.40905   1.41289   1.41863   1.42173   1.43981
 Alpha virt. eigenvalues --    1.44871   1.45541   1.45686   1.46950   1.47586
 Alpha virt. eigenvalues --    1.47905   1.49199   1.49711   1.50211   1.50703
 Alpha virt. eigenvalues --    1.51567   1.52249   1.52836   1.53203   1.53828
 Alpha virt. eigenvalues --    1.55286   1.55578   1.56126   1.56623   1.57022
 Alpha virt. eigenvalues --    1.57682   1.58191   1.58966   1.60008   1.60359
 Alpha virt. eigenvalues --    1.61235   1.61619   1.62282   1.62804   1.63556
 Alpha virt. eigenvalues --    1.63906   1.64162   1.64932   1.65269   1.65999
 Alpha virt. eigenvalues --    1.66213   1.67363   1.67684   1.68363   1.68605
 Alpha virt. eigenvalues --    1.69067   1.69405   1.70104   1.70621   1.71398
 Alpha virt. eigenvalues --    1.71661   1.72131   1.72654   1.73116   1.73404
 Alpha virt. eigenvalues --    1.74042   1.74544   1.74865   1.75128   1.75688
 Alpha virt. eigenvalues --    1.75907   1.76110   1.76590   1.76925   1.77052
 Alpha virt. eigenvalues --    1.77389   1.77402   1.77656   1.77928   1.78508
 Alpha virt. eigenvalues --    1.78697   1.79475   1.79652   1.80012   1.80328
 Alpha virt. eigenvalues --    1.80629   1.80768   1.80901   1.81536   1.81821
 Alpha virt. eigenvalues --    1.82179   1.82748   1.83038   1.83633   1.84155
 Alpha virt. eigenvalues --    1.84532   1.85240   1.85580   1.85804   1.86168
 Alpha virt. eigenvalues --    1.87024   1.87666   1.87993   1.88575   1.88894
 Alpha virt. eigenvalues --    1.89273   1.89712   1.90271   1.90804   1.91217
 Alpha virt. eigenvalues --    1.91684   1.92286   1.93031   1.93534   1.93698
 Alpha virt. eigenvalues --    1.94067   1.94803   1.95462   1.96261   1.96978
 Alpha virt. eigenvalues --    1.98332   1.98583   1.99201   2.00729   2.00892
 Alpha virt. eigenvalues --    2.01523   2.01780   2.02879   2.03008   2.03202
 Alpha virt. eigenvalues --    2.03730   2.04463   2.05104   2.06154   2.06919
 Alpha virt. eigenvalues --    2.07499   2.07671   2.08627   2.08918   2.09545
 Alpha virt. eigenvalues --    2.10253   2.10576   2.11203   2.12005   2.12868
 Alpha virt. eigenvalues --    2.13157   2.14448   2.14986   2.15646   2.16600
 Alpha virt. eigenvalues --    2.17893   2.18650   2.19405   2.20534   2.21057
 Alpha virt. eigenvalues --    2.21706   2.22429   2.22662   2.22693   2.23439
 Alpha virt. eigenvalues --    2.24343   2.24737   2.25615   2.25848   2.26290
 Alpha virt. eigenvalues --    2.27383   2.27603   2.28520   2.29193   2.29358
 Alpha virt. eigenvalues --    2.30180   2.30424   2.31251   2.31808   2.32152
 Alpha virt. eigenvalues --    2.32631   2.33376   2.33834   2.33924   2.34470
 Alpha virt. eigenvalues --    2.35295   2.35412   2.35892   2.36300   2.37116
 Alpha virt. eigenvalues --    2.37395   2.38149   2.39181   2.39986   2.40788
 Alpha virt. eigenvalues --    2.41882   2.42025   2.42835   2.43619   2.43811
 Alpha virt. eigenvalues --    2.44490   2.44809   2.45357   2.45634   2.46353
 Alpha virt. eigenvalues --    2.46976   2.48167   2.49687   2.50430   2.51644
 Alpha virt. eigenvalues --    2.52903   2.53675   2.54639   2.55547   2.55996
 Alpha virt. eigenvalues --    2.56421   2.57356   2.57670   2.59280   2.59906
 Alpha virt. eigenvalues --    2.60839   2.61571   2.62303   2.62777   2.63219
 Alpha virt. eigenvalues --    2.64173   2.64769   2.64968   2.65422   2.65640
 Alpha virt. eigenvalues --    2.65920   2.67775   2.68260   2.68753   2.68887
 Alpha virt. eigenvalues --    2.69276   2.69808   2.70830   2.71438   2.72053
 Alpha virt. eigenvalues --    2.72574   2.74218   2.75140   2.75948   2.76242
 Alpha virt. eigenvalues --    2.76738   2.77330   2.78194   2.78973   2.79282
 Alpha virt. eigenvalues --    2.79473   2.80095   2.80417   2.80591   2.80778
 Alpha virt. eigenvalues --    2.81600   2.82139   2.82424   2.83497   2.83905
 Alpha virt. eigenvalues --    2.84394   2.85366   2.86115   2.86573   2.87042
 Alpha virt. eigenvalues --    2.87565   2.88007   2.89117   2.91982   2.93316
 Alpha virt. eigenvalues --    2.94203   2.94839   2.96275   2.96935   2.99206
 Alpha virt. eigenvalues --    2.99903   3.00636   3.01456   3.03869   3.05029
 Alpha virt. eigenvalues --    3.06542   3.08971   3.10759   3.12559   3.14973
 Alpha virt. eigenvalues --    3.15708   3.15912   3.16816   3.17323   3.20033
 Alpha virt. eigenvalues --    3.20702   3.22728   3.23732   3.24467   3.25533
 Alpha virt. eigenvalues --    3.44242   3.47083   3.47599   3.49313   3.50455
 Alpha virt. eigenvalues --    3.53624   3.54266   3.56356   3.57820   3.60148
 Alpha virt. eigenvalues --    3.63237   3.70946   3.74860
          Condensed to atoms (all electrons):
 Mulliken charges:
               1
     1  N   -0.313031
     2  C    0.182488
     3  C    0.051073
     4  N   -0.259692
     5  C    0.139606
     6  H    0.025776
     7  N   -0.297808
     8  C    0.134477
     9  H    0.010389
    10  N   -0.286203
    11  C    0.260539
    12  C    0.105372
    13  N   -0.060917
    14  H    0.111999
    15  H    0.081547
    16  H    0.022649
    17  H    0.030973
    18  H    0.027987
    19  N   -0.309390
    20  C    0.249612
    21  C    0.180622
    22  N   -0.109232
    23  H    0.112278
    24  H    0.114686
    25  N   -0.310040
    26  C    0.235155
    27  N   -0.145578
    28  H    0.119372
    29  C    0.192285
    30  O   -0.322953
    31  C   -0.016644
    32  N   -0.225673
    33  C    0.130833
    34  H    0.020620
    35  H    0.029023
    36  H    0.028556
    37  H    0.023943
    38  H    0.060282
    39  H    0.059405
    40  H    0.072748
    41  H    0.028419
    42  C   -0.119107
    43  O   -0.263585
    44  C    0.172342
    45  H    0.131848
    46  N   -0.123314
    47  O   -0.342042
    48  C    0.338522
    49  H    0.044082
    50  C    0.165361
    51  C    0.037836
    52  N   -0.279207
    53  H    0.035282
    54  H    0.038886
    55  H    0.029472
    56  H    0.120015
    57  H    0.115519
    58  N   -0.057245
    59  C    0.088797
    60  C    0.255837
    61  N   -0.276278
    62  H    0.039797
    63  C    0.169479
    64  N   -0.309064
    65  H    0.039031
    66  C    0.138284
    67  N   -0.265447
    68  C    0.022501
    69  C    0.179888
    70  N   -0.313046
 Sum of Mulliken charges =  -0.00000
 Mulliken charges with hydrogens summed into heavy atoms:
               1
     1  N   -0.313031
     2  C    0.264097
     3  C    0.051073
     4  N   -0.259692
     5  C    0.165382
     7  N   -0.297808
     8  C    0.144866
    10  N   -0.286203
    11  C    0.260539
    12  C    0.105372
    13  N    0.132629
    19  N   -0.309390
    20  C    0.249612
    21  C    0.262144
    22  N    0.117732
    25  N   -0.310040
    26  C    0.235155
    27  N   -0.026206
    29  C    0.192285
    30  O   -0.322953
    31  C   -0.016644
    32  N   -0.225673
    33  C    0.151452
    42  C   -0.090688
    43  O   -0.263585
    44  C    0.172342
    46  N    0.008534
    47  O   -0.342042
    48  C    0.338522
    50  C    0.209444
    51  C    0.230272
    52  N   -0.279207
    58  N    0.178289
    59  C    0.088797
    60  C    0.255837
    61  N   -0.276278
    63  C    0.209276
    64  N   -0.309064
    66  C    0.177315
    67  N   -0.265447
    68  C    0.022501
    69  C    0.283529
    70  N   -0.313046
 Electronic spatial extent (au):  <R**2>=          21988.0691
 Charge=             -0.0000 electrons
 Dipole moment (field-independent basis, Debye):
    X=             -8.6461    Y=              6.1098    Z=             -1.5931  Tot=             10.7062
 Quadrupole moment (field-independent basis, Debye-Ang):
   XX=           -160.5069   YY=           -215.5393   ZZ=           -253.3656
   XY=              3.5972   XZ=             -8.1013   YZ=              6.5124
 Traceless Quadrupole moment (field-independent basis, Debye-Ang):
   XX=             49.2971   YY=             -5.7354   ZZ=            -43.5617
   XY=              3.5972   XZ=             -8.1013   YZ=              6.5124
 Octapole moment (field-independent basis, Debye-Ang**2):
  XXX=             75.0595  YYY=            143.6974  ZZZ=             10.5339  XYY=            -88.5378
  XXY=             50.9715  XXZ=             -8.9212  XZZ=            -51.4574  YZZ=             22.1577
  YYZ=            -42.4167  XYZ=             75.9714
 Hexadecapole moment (field-independent basis, Debye-Ang**3):
 XXXX=         -14741.7787 YYYY=          -6487.5285 ZZZZ=          -3866.8377 XXXY=           -500.2464
 XXXZ=           -245.6553 YYYX=             98.8612 YYYZ=             60.4680 ZZZX=            -34.6826
 ZZZY=            -26.7926 XXYY=          -3032.1838 XXZZ=          -3548.9198 YYZZ=          -1793.4890
 XXYZ=            -60.7590 YYXZ=            138.8444 ZZXY=            -33.9829
 N-N= 5.481339262413D+03 E-N=-1.574350369581D+04  KE= 2.037671983129D+03
 No NMR shielding tensors so no spin-rotation constants.
 Leave Link  601 at Wed Jan 24 09:06:12 2018, MaxMem=  4294967296 cpu:              47.8 elap:               1.7
 (Enter /share/apps/g16/l9999.exe)
 1\1\GINC-COMPUTE-0-3\SP\RwB97XD\CC-pVDZ\C23H27N17O3\SATYA\24-Jan-2018\
 0\\#p wb97xd/cc-pvdz sp scf=(maxcycles=20)\\Base pair stacking\\0,1\N,
 0,4.46164,-0.81384,-6.47105\C,0,5.72007,-0.04975,-6.57363\C,0,2.33523,
 -1.36806,-6.37851\N,0,3.05016,-2.55105,-6.25948\C,0,4.30262,-2.1698,-6
 .32\H,0,5.15896,-2.84204,-6.25909\N,0,0.57597,0.19618,-6.52372\C,0,1.5
 215,1.13419,-6.6407\H,0,1.15417,2.154,-6.74702\N,0,2.84644,1.0022,-6.6
 4603\C,0,3.19167,-0.28878,-6.50964\C,0,0.95564,-1.09321,-6.38803\N,0,0
 .01326,-2.03099,-6.27112\H,0,0.24847,-2.99814,-6.1686\H,0,-0.95945,-1.
 79892,-6.28203\H,0,6.23954,-0.36549,-7.36775\H,0,5.51299,0.92263,-6.67
 715\H,0,6.26402,-0.18668,-5.74576\N,0,2.33396,3.18902,-3.26456\C,0,1.1
 1893,2.54734,-3.26328\C,0,2.52785,4.64976,-3.36129\N,0,-2.34915,2.6731
 8,-3.39872\H,0,-3.11195,2.0274,-3.38065\H,0,-2.57819,3.64389,-3.47605\
 N,0,-0.09223,3.1387,-3.34948\C,0,-1.07595,2.25712,-3.32272\N,0,-0.8899
 3,0.89982,-3.21948\H,0,-1.70098,0.30065,-3.20649\C,0,0.34715,0.26942,-
 3.12957\O,0,0.40509,-0.96319,-3.03986\C,0,1.41366,1.2036,-3.15705\N,0,
 2.7861,1.00565,-3.09292\C,0,3.28979,2.20815,-3.16\H,0,4.35581,2.43701,
 -3.13738\H,0,3.06695,4.86293,-4.17537\H,0,1.63747,5.09848,-3.42565\H,0
 ,3.00761,4.97854,-2.54855\H,0,-6.09897,-2.17046,-3.84208\H,0,-6.04063,
 -2.30008,-2.08582\H,0,-5.3387,-0.89545,-2.88935\H,0,-2.92756,-5.75157,
 -3.32784\C,0,-2.96559,-4.66522,-3.2464\O,0,-0.60967,-4.39437,-3.30466\
 C,0,-1.74343,-3.92095,-3.23206\H,0,-1.06314,-1.9945,-3.11248\N,0,-1.90
 416,-2.55416,-3.12585\O,0,-3.1286,-0.65018,-2.94466\C,0,-3.08731,-1.86
 454,-3.03565\H,0,-5.09253,-4.54039,-3.16654\C,0,-4.13521,-4.02092,-3.1
 6\C,0,-5.50972,-1.9592,-2.96218\N,0,-4.22168,-2.65194,-3.05609\H,0,-6.
 94954,2.63231,-6.86174\H,0,-5.64507,2.82637,-5.90113\H,0,-7.09734,2.47
 534,-5.24405\H,0,-3.22816,-3.76459,-6.31721\H,0,-4.92617,-3.69371,-6.4
 6493\N,0,-4.05965,-3.20937,-6.33931\C,0,-4.016,-1.88203,-6.20724\C,0,-
 4.95015,0.30275,-6.08142\N,0,-3.77222,0.92636,-5.91402\H,0,-1.77923,0.
 46835,-5.77681\C,0,-2.77413,0.04506,-5.90822\N,0,-2.8158,-1.28474,-6.0
 4035\H,0,-8.15399,0.01069,-6.40123\C,0,-7.08017,-0.16037,-6.32\N,0,-6.
 50628,-1.33705,-6.38132\C,0,-5.15565,-1.05769,-6.23142\C,0,-6.49626,2.
 31787,-6.02768\N,0,-6.19795,0.87686,-6.1396\\Version=EM64L-G16RevA.03\
 State=1-A\HF=-2048.7505239\RMSD=7.036e-09\Dipole=-3.8884753,1.5947486,
 -0.2805921\Quadrupole=32.5769827,-1.9871137,-30.589869,12.8138415,-8.1
 050369,6.458977\PG=C01 [X(C23H27N17O3)]\\@


 SILVERMAN'S PARADOX - IF MURPHY'S LAW CAN GO WRONG, IT WILL.
 Job cpu time:       0 days  5 hours 51 minutes 13.3 seconds.
 Elapsed time:       0 days  0 hours 11 minutes 21.3 seconds.
 File lengths (MBytes):  RWF=    298 Int=      0 D2E=      0 Chk=     33 Scr=      1
 Normal termination of Gaussian 16 at Wed Jan 24 09:06:13 2018.
