 Entering Gaussian System, Link 0=g16
 Input=str50.15.1.0.com
 Output=str50.15.1.0.log
 Initial command:
 /share/apps/g16/l1.exe "/state/partition1/scr/Gau-19314.inp" -scrdir="/state/partition1/scr/"
 Entering Link 1 = /share/apps/g16/l1.exe PID=     19315.
  
 Copyright (c) 1988,1990,1992,1993,1995,1998,2003,2009,2016,
            Gaussian, Inc.  All Rights Reserved.
  
 This is part of the Gaussian(R) 16 program.  It is based on
 the Gaussian(R) 09 system (copyright 2009, Gaussian, Inc.),
 the Gaussian(R) 03 system (copyright 2003, Gaussian, Inc.),
 the Gaussian(R) 98 system (copyright 1998, Gaussian, Inc.),
 the Gaussian(R) 94 system (copyright 1995, Gaussian, Inc.),
 the Gaussian 92(TM) system (copyright 1992, Gaussian, Inc.),
 the Gaussian 90(TM) system (copyright 1990, Gaussian, Inc.),
 the Gaussian 88(TM) system (copyright 1988, Gaussian, Inc.),
 the Gaussian 86(TM) system (copyright 1986, Carnegie Mellon
 University), and the Gaussian 82(TM) system (copyright 1983,
 Carnegie Mellon University). Gaussian is a federally registered
 trademark of Gaussian, Inc.
  
 This software contains proprietary and confidential information,
 including trade secrets, belonging to Gaussian, Inc.
  
 This software is provided under written license and may be
 used, copied, transmitted, or stored only in accord with that
 written license.
  
 The following legend is applicable only to US Government
 contracts under FAR:
  
                    RESTRICTED RIGHTS LEGEND
  
 Use, reproduction and disclosure by the US Government is
 subject to restrictions as set forth in subparagraphs (a)
 and (c) of the Commercial Computer Software - Restricted
 Rights clause in FAR 52.227-19.
  
 Gaussian, Inc.
 340 Quinnipiac St., Bldg. 40, Wallingford CT 06492
  
  
 ---------------------------------------------------------------
 Warning -- This program may not be used in any manner that
 competes with the business of Gaussian, Inc. or will provide
 assistance to any competitor of Gaussian, Inc.  The licensee
 of this program is prohibited from giving any competitor of
 Gaussian, Inc. access to this program.  By using this program,
 the user acknowledges that Gaussian, Inc. is engaged in the
 business of creating and licensing software in the field of
 computational chemistry and represents and warrants to the
 licensee that it is not a competitor of Gaussian, Inc. and that
 it will not use this program in any manner prohibited above.
 ---------------------------------------------------------------
  

 Cite this work as:
 Gaussian 16, Revision A.03,
 M. J. Frisch, G. W. Trucks, H. B. Schlegel, G. E. Scuseria, 
 M. A. Robb, J. R. Cheeseman, G. Scalmani, V. Barone, 
 G. A. Petersson, H. Nakatsuji, X. Li, M. Caricato, A. V. Marenich, 
 J. Bloino, B. G. Janesko, R. Gomperts, B. Mennucci, H. P. Hratchian, 
 J. V. Ortiz, A. F. Izmaylov, J. L. Sonnenberg, D. Williams-Young, 
 F. Ding, F. Lipparini, F. Egidi, J. Goings, B. Peng, A. Petrone, 
 T. Henderson, D. Ranasinghe, V. G. Zakrzewski, J. Gao, N. Rega, 
 G. Zheng, W. Liang, M. Hada, M. Ehara, K. Toyota, R. Fukuda, 
 J. Hasegawa, M. Ishida, T. Nakajima, Y. Honda, O. Kitao, H. Nakai, 
 T. Vreven, K. Throssell, J. A. Montgomery, Jr., J. E. Peralta, 
 F. Ogliaro, M. J. Bearpark, J. J. Heyd, E. N. Brothers, K. N. Kudin, 
 V. N. Staroverov, T. A. Keith, R. Kobayashi, J. Normand, 
 K. Raghavachari, A. P. Rendell, J. C. Burant, S. S. Iyengar, 
 J. Tomasi, M. Cossi, J. M. Millam, M. Klene, C. Adamo, R. Cammi, 
 J. W. Ochterski, R. L. Martin, K. Morokuma, O. Farkas, 
 J. B. Foresman, and D. J. Fox, Gaussian, Inc., Wallingford CT, 2016.
 
 ******************************************
 Gaussian 16:  EM64L-G16RevA.03 25-Dec-2016
                24-Jan-2018 
 ******************************************
 %nprocshared=32
 Will use up to   32 processors via shared memory.
 %mem=32GB
 %chk=allatoms_t.chk
 ---------------------------------------
 #p wb97xd/cc-pvdz sp scf=(maxcycles=20)
 ---------------------------------------
 1/38=1,172=1/1;
 2/12=2,17=6,18=5,40=1/2;
 3/5=16,11=2,25=1,30=1,74=-58/1,2,3;
 4//1;
 5/5=2,7=20,38=5/2;
 6/7=2,8=2,9=2,10=2,28=1/1;
 99/5=1,9=1/99;
 Leave Link    1 at Wed Jan 24 17:00:06 2018, MaxMem=  4294967296 cpu:               2.7 elap:               0.1
 (Enter /share/apps/g16/l101.exe)
 ------------------
 Base pair stacking
 ------------------
 Symbolic Z-matrix:
 Charge =  0 Multiplicity = 1
 N                     5.68632  -1.44558  -5.02825 
 C                     6.98353  -0.74192  -5.01802 
 C                     3.57313  -1.96339  -5.35019 
 N                     4.13727  -3.03655  -4.6758 
 C                     5.38781  -2.68164  -4.50883 
 H                     6.14313  -3.28872  -4.00895 
 N                     2.04098  -0.54935  -6.45288 
 C                     3.05454   0.31082  -6.59565 
 H                     2.80871   1.23748  -7.1125 
 N                     4.32023   0.1987   -6.19771 
 C                     4.51573  -0.97509  -5.57447 
 C                     2.26991  -1.72147  -5.82138 
 N                     1.25942  -2.58141  -5.67788 
 H                     1.38327  -3.46091  -5.21705 
 H                     0.34466  -2.37597  -6.02593 
 H                     7.66628  -1.29165  -5.49952 
 H                     6.88742   0.14251  -5.47372 
 H                     7.2796   -0.59802  -4.07376 
 N                     2.78314   3.17744  -3.1051 
 C                     1.58479   2.53394  -3.29982 
 C                     3.01827   4.62198  -3.30187 
 N                    -1.77241   2.63081  -4.1839 
 H                    -2.5326    1.98683  -4.2654 
 H                    -1.96302   3.58793  -4.40372 
 N                     0.43005   3.10854  -3.70039 
 C                    -0.55188   2.22987  -3.7973 
 N                    -0.41547   0.89053  -3.52335 
 H                    -1.2209    0.29221  -3.62466 
 C                     0.76314   0.27756  -3.10978 
 O                     0.77945  -0.93963  -2.88861 
 C                     1.827     1.20883  -3.00109 
 N                     3.15077   1.02415  -2.62637 
 C                     3.67782   2.21603  -2.70273 
 H                     4.7184    2.45055  -2.47586 
 H                     3.7218    4.75492  -3.99914 
 H                     2.16983   5.05821  -3.5987 
 H                     3.31975   5.03247  -2.44198 
 H                    -5.42487  -2.24882  -4.93709 
 H                    -5.74373  -2.2018   -3.20482 
 H                    -4.86286  -0.88164  -3.97464 
 H                    -2.49757  -5.74695  -3.4072 
 C                    -2.53335  -4.65808  -3.44334 
 O                    -0.21466  -4.38437  -3.02398 
 C                    -1.32959  -3.91091  -3.24205 
 H                    -0.65725  -1.97927  -3.17073 
 N                    -1.48569  -2.54104  -3.30797 
 O                    -2.68769  -0.63372  -3.58099 
 C                    -2.6489   -1.85091  -3.54081 
 H                    -4.62612  -4.53494  -3.8319 
 C                    -3.68331  -4.01335  -3.67252 
 C                    -5.03275  -1.94806  -3.97696 
 N                    -3.76634  -2.64123  -3.72504 
 H                    -4.91982   1.56438  -9.57725 
 H                    -3.90096   2.07272  -8.40866 
 H                    -5.49737   1.93699  -8.09704 
 H                    -1.98239  -4.27224  -6.06002 
 H                    -3.57173  -4.27147  -6.67976 
 N                    -2.73311  -3.76308  -6.48112 
 C                    -2.62186  -2.46388  -6.76553 
 C                    -3.3826   -0.36601  -7.59134 
 N                    -2.24443   0.29108  -7.31345 
 H                    -0.39884  -0.07619  -6.50136 
 C                    -1.35468  -0.53009  -6.75944 
 N                    -1.46419  -1.83162  -6.47377 
 H                    -6.40396  -0.78077  -8.66445 
 C                    -5.40555  -0.90466  -8.24401 
 N                    -4.92943  -2.03167  -7.77408 
 C                    -3.64745  -1.7041   -7.35699 
 C                    -4.72648   1.54132  -8.59639 
 N                    -4.52291   0.14481  -8.16472 
 
 ITRead=  0  0  0  0  0  0  0  0  0  0  0  0  0  0  0  0  0  0  0  0
 ITRead=  0  0  0  0  0  0  0  0  0  0  0  0  0  0  0  0  0  0  0  0
 ITRead=  0  0  0  0  0  0  0  0  0  0  0  0  0  0  0  0  0  0  0  0
 ITRead=  0  0  0  0  0  0  0  0  0  0
 MicOpt= -1 -1 -1 -1 -1 -1 -1 -1 -1 -1 -1 -1 -1 -1 -1 -1 -1 -1 -1 -1
 MicOpt= -1 -1 -1 -1 -1 -1 -1 -1 -1 -1 -1 -1 -1 -1 -1 -1 -1 -1 -1 -1
 MicOpt= -1 -1 -1 -1 -1 -1 -1 -1 -1 -1 -1 -1 -1 -1 -1 -1 -1 -1 -1 -1
 MicOpt= -1 -1 -1 -1 -1 -1 -1 -1 -1 -1
 NAtoms=     70 NQM=       70 NQMF=       0 NMMI=      0 NMMIF=      0
                NMic=       0 NMicF=      0.
                    Isotopes and Nuclear Properties:
 (Nuclear quadrupole moments (NQMom) in fm**2, nuclear magnetic moments (NMagM)
  in nuclear magnetons)

  Atom         1           2           3           4           5           6           7           8           9          10
 IAtWgt=          14          12          12          14          12           1          14          12           1          14
 AtmWgt=  14.0030740  12.0000000  12.0000000  14.0030740  12.0000000   1.0078250  14.0030740  12.0000000   1.0078250  14.0030740
 NucSpn=           2           0           0           2           0           1           2           0           1           2
 AtZEff=  -0.0000000  -0.0000000  -0.0000000  -0.0000000  -0.0000000  -0.0000000  -0.0000000  -0.0000000  -0.0000000  -0.0000000
 NQMom=    2.0440000   0.0000000   0.0000000   2.0440000   0.0000000   0.0000000   2.0440000   0.0000000   0.0000000   2.0440000
 NMagM=    0.4037610   0.0000000   0.0000000   0.4037610   0.0000000   2.7928460   0.4037610   0.0000000   2.7928460   0.4037610
 AtZNuc=   7.0000000   6.0000000   6.0000000   7.0000000   6.0000000   1.0000000   7.0000000   6.0000000   1.0000000   7.0000000

  Atom        11          12          13          14          15          16          17          18          19          20
 IAtWgt=          12          12          14           1           1           1           1           1          14          12
 AtmWgt=  12.0000000  12.0000000  14.0030740   1.0078250   1.0078250   1.0078250   1.0078250   1.0078250  14.0030740  12.0000000
 NucSpn=           0           0           2           1           1           1           1           1           2           0
 AtZEff=  -0.0000000  -0.0000000  -0.0000000  -0.0000000  -0.0000000  -0.0000000  -0.0000000  -0.0000000  -0.0000000  -0.0000000
 NQMom=    0.0000000   0.0000000   2.0440000   0.0000000   0.0000000   0.0000000   0.0000000   0.0000000   2.0440000   0.0000000
 NMagM=    0.0000000   0.0000000   0.4037610   2.7928460   2.7928460   2.7928460   2.7928460   2.7928460   0.4037610   0.0000000
 AtZNuc=   6.0000000   6.0000000   7.0000000   1.0000000   1.0000000   1.0000000   1.0000000   1.0000000   7.0000000   6.0000000

  Atom        21          22          23          24          25          26          27          28          29          30
 IAtWgt=          12          14           1           1          14          12          14           1          12          16
 AtmWgt=  12.0000000  14.0030740   1.0078250   1.0078250  14.0030740  12.0000000  14.0030740   1.0078250  12.0000000  15.9949146
 NucSpn=           0           2           1           1           2           0           2           1           0           0
 AtZEff=  -0.0000000  -0.0000000  -0.0000000  -0.0000000  -0.0000000  -0.0000000  -0.0000000  -0.0000000  -0.0000000  -0.0000000
 NQMom=    0.0000000   2.0440000   0.0000000   0.0000000   2.0440000   0.0000000   2.0440000   0.0000000   0.0000000   0.0000000
 NMagM=    0.0000000   0.4037610   2.7928460   2.7928460   0.4037610   0.0000000   0.4037610   2.7928460   0.0000000   0.0000000
 AtZNuc=   6.0000000   7.0000000   1.0000000   1.0000000   7.0000000   6.0000000   7.0000000   1.0000000   6.0000000   8.0000000

  Atom        31          32          33          34          35          36          37          38          39          40
 IAtWgt=          12          14          12           1           1           1           1           1           1           1
 AtmWgt=  12.0000000  14.0030740  12.0000000   1.0078250   1.0078250   1.0078250   1.0078250   1.0078250   1.0078250   1.0078250
 NucSpn=           0           2           0           1           1           1           1           1           1           1
 AtZEff=  -0.0000000  -0.0000000  -0.0000000  -0.0000000  -0.0000000  -0.0000000  -0.0000000  -0.0000000  -0.0000000  -0.0000000
 NQMom=    0.0000000   2.0440000   0.0000000   0.0000000   0.0000000   0.0000000   0.0000000   0.0000000   0.0000000   0.0000000
 NMagM=    0.0000000   0.4037610   0.0000000   2.7928460   2.7928460   2.7928460   2.7928460   2.7928460   2.7928460   2.7928460
 AtZNuc=   6.0000000   7.0000000   6.0000000   1.0000000   1.0000000   1.0000000   1.0000000   1.0000000   1.0000000   1.0000000

  Atom        41          42          43          44          45          46          47          48          49          50
 IAtWgt=           1          12          16          12           1          14          16          12           1          12
 AtmWgt=   1.0078250  12.0000000  15.9949146  12.0000000   1.0078250  14.0030740  15.9949146  12.0000000   1.0078250  12.0000000
 NucSpn=           1           0           0           0           1           2           0           0           1           0
 AtZEff=  -0.0000000  -0.0000000  -0.0000000  -0.0000000  -0.0000000  -0.0000000  -0.0000000  -0.0000000  -0.0000000  -0.0000000
 NQMom=    0.0000000   0.0000000   0.0000000   0.0000000   0.0000000   2.0440000   0.0000000   0.0000000   0.0000000   0.0000000
 NMagM=    2.7928460   0.0000000   0.0000000   0.0000000   2.7928460   0.4037610   0.0000000   0.0000000   2.7928460   0.0000000
 AtZNuc=   1.0000000   6.0000000   8.0000000   6.0000000   1.0000000   7.0000000   8.0000000   6.0000000   1.0000000   6.0000000

  Atom        51          52          53          54          55          56          57          58          59          60
 IAtWgt=          12          14           1           1           1           1           1          14          12          12
 AtmWgt=  12.0000000  14.0030740   1.0078250   1.0078250   1.0078250   1.0078250   1.0078250  14.0030740  12.0000000  12.0000000
 NucSpn=           0           2           1           1           1           1           1           2           0           0
 AtZEff=  -0.0000000  -0.0000000  -0.0000000  -0.0000000  -0.0000000  -0.0000000  -0.0000000  -0.0000000  -0.0000000  -0.0000000
 NQMom=    0.0000000   2.0440000   0.0000000   0.0000000   0.0000000   0.0000000   0.0000000   2.0440000   0.0000000   0.0000000
 NMagM=    0.0000000   0.4037610   2.7928460   2.7928460   2.7928460   2.7928460   2.7928460   0.4037610   0.0000000   0.0000000
 AtZNuc=   6.0000000   7.0000000   1.0000000   1.0000000   1.0000000   1.0000000   1.0000000   7.0000000   6.0000000   6.0000000

  Atom        61          62          63          64          65          66          67          68          69          70
 IAtWgt=          14           1          12          14           1          12          14          12          12          14
 AtmWgt=  14.0030740   1.0078250  12.0000000  14.0030740   1.0078250  12.0000000  14.0030740  12.0000000  12.0000000  14.0030740
 NucSpn=           2           1           0           2           1           0           2           0           0           2
 AtZEff=  -0.0000000  -0.0000000  -0.0000000  -0.0000000  -0.0000000  -0.0000000  -0.0000000  -0.0000000  -0.0000000  -0.0000000
 NQMom=    2.0440000   0.0000000   0.0000000   2.0440000   0.0000000   0.0000000   2.0440000   0.0000000   0.0000000   2.0440000
 NMagM=    0.4037610   2.7928460   0.0000000   0.4037610   2.7928460   0.0000000   0.4037610   0.0000000   0.0000000   0.4037610
 AtZNuc=   7.0000000   1.0000000   6.0000000   7.0000000   1.0000000   6.0000000   7.0000000   6.0000000   6.0000000   7.0000000
 Leave Link  101 at Wed Jan 24 17:00:07 2018, MaxMem=  4294967296 cpu:               7.2 elap:               0.3
 (Enter /share/apps/g16/l202.exe)
 Stoichiometry    C23H27N17O3
 Framework group  C1[X(C23H27N17O3)]
 Deg. of freedom   204
 Full point group                 C1      NOp   1
 Largest Abelian subgroup         C1      NOp   1
 Largest concise Abelian subgroup C1      NOp   1
                         Standard orientation:                         
 ---------------------------------------------------------------------
 Center     Atomic      Atomic             Coordinates (Angstroms)
 Number     Number       Type             X           Y           Z
 ---------------------------------------------------------------------
      1          7           0       -5.263403   -2.070092    1.363269
      2          6           0       -6.660636   -1.687486    1.644955
      3          6           0       -3.069841   -2.067216    1.203201
      4          7           0       -3.496287   -3.274910    0.669960
      5          6           0       -4.800759   -3.228310    0.787733
      6          1           0       -5.480737   -4.018578    0.468294
      7          7           0       -1.714510   -0.282257    1.937992
      8          6           0       -2.846998    0.325916    2.305651
      9          1           0       -2.721474    1.309508    2.756268
     10          7           0       -4.105351   -0.096510    2.200756
     11          6           0       -4.147786   -1.313964    1.634687
     12          6           0       -1.790788   -1.506255    1.371355
     13          7           0       -0.661420   -2.114953    1.003671
     14          1           0       -0.670446   -3.021613    0.580458
     15          1           0        0.231696   -1.685702    1.138646
     16          1           0       -7.071748   -2.355030    2.265894
     17          1           0       -6.680159   -0.782724    2.069385
     18          1           0       -7.180745   -1.664569    0.791167
     19          7           0       -4.030289    2.995031   -1.151336
     20          6           0       -2.700733    2.657408   -1.230968
     21          6           0       -4.552657    4.353954   -0.904029
     22          7           0        0.647223    3.574306   -1.120238
     23          1           0        1.537412    3.128942   -1.212188
     24          1           0        0.648546    4.559505   -0.946704
     25          7           0       -1.656541    3.503553   -1.097752
     26          6           0       -0.497402    2.882342   -1.224768
     27          7           0       -0.368545    1.535616   -1.463958
     28          1           0        0.557960    1.146100   -1.546630
     29          6           0       -1.429067    0.646002   -1.604582
     30          8           0       -1.203984   -0.551544   -1.818954
     31          6           0       -2.680813    1.298733   -1.470610
     32          7           0       -3.971884    0.793554   -1.540026
     33          6           0       -4.736922    1.833255   -1.345273
     34          1           0       -5.827112    1.808466   -1.333101
     35          1           0       -5.098362    4.355823   -0.066762
     36          1           0       -3.788225    4.989428   -0.803671
     37          1           0       -5.122741    4.638915   -1.673837
     38          1           0        5.426553   -0.281588   -1.213193
     39          1           0        5.339950   -0.250672   -2.972791
     40          1           0        4.360565    0.867174   -2.022738
     41          1           0        3.151654   -4.436148   -2.056415
     42          6           0        2.935136   -3.368216   -2.026998
     43          8           0        0.583698   -3.660806   -1.916395
     44          6           0        1.574438   -2.931471   -1.952349
     45          1           0        0.464222   -1.214326   -1.867531
     46          7           0        1.411668   -1.561167   -1.920258
     47          8           0        2.156718    0.584086   -1.919240
     48          6           0        2.399942   -0.609408   -1.952181
     49          1           0        4.971853   -2.744003   -2.116271
     50          6           0        3.920837   -2.463817   -2.059615
     51          6           0        4.774849   -0.129346   -2.060642
     52          7           0        3.685437   -1.108937   -2.024231
     53          1           0        5.054694    3.543183    3.430028
     54          1           0        3.714995    3.741257    2.520049
     55          1           0        5.190680    3.963208    1.858878
     56          1           0        2.891977   -2.987140    0.647393
     57          1           0        4.531462   -2.586579    0.895827
     58          7           0        3.573665   -2.297094    0.890881
     59          6           0        3.222140   -1.046188    1.195595
     60          6           0        3.624650    1.210255    1.834501
     61          7           0        2.330728    1.570764    1.819635
     62          1           0        0.493674    0.744972    1.440319
     63          6           0        1.562470    0.538611    1.477082
     64          7           0        1.912625   -0.715026    1.171524
     65          1           0        6.817182    1.562009    2.203575
     66          6           0        5.809762    1.188903    2.016926
     67          7           0        5.523954   -0.040259    1.663159
     68          6           0        4.141720   -0.040295    1.544132
     69          6           0        4.663471    3.425826    2.517246
     70          7           0        4.707950    1.999938    2.139246
 ---------------------------------------------------------------------
 Rotational constants (GHZ):           0.1168261           0.0582008           0.0516102
 Leave Link  202 at Wed Jan 24 17:00:07 2018, MaxMem=  4294967296 cpu:               0.3 elap:               0.0
 (Enter /share/apps/g16/l301.exe)
 Standard basis: CC-pVDZ (5D, 7F)
 Ernie: Thresh=  0.10000D-02 Tol=  0.10000D-05 Strict=F.
 Ernie:  86 primitive shells out of 1081 were deleted.
 There are   780 symmetry adapted cartesian basis functions of A   symmetry.
 There are   737 symmetry adapted basis functions of A   symmetry.
   737 basis functions,  1608 primitive gaussians,   780 cartesian basis functions
   154 alpha electrons      154 beta electrons
       nuclear repulsion energy      5435.1733419893 Hartrees.
 IExCor= 4639 DFT=T Ex+Corr=wB97XD ExCW=0 ScaHFX=  1.000000
 ScaDFX=  1.000000  1.000000  1.000000  1.000000 ScalE2=  1.000000  1.000000
 IRadAn=      5 IRanWt=     -1 IRanGd=            0 ICorTp=0 IEmpDi=121
 HFx  wShort=  0.000000 wLong=  0.200000 cFull=  0.222036 cShort=  0.000000 cLong=  0.777964
 DFx  wShort=  0.000000 wLong=  0.200000 cFull=  0.000000 cShort=  0.000000 cLong=  1.000000
 NAtoms=   70 NActive=   70 NUniq=   70 SFac= 1.00D+00 NAtFMM=   60 NAOKFM=T Big=T
 Integral buffers will be    131072 words long.
 Raffenetti 2 integral format.
 Two-electron integral symmetry is turned on.
 R6Disp:  Grimme-D2 Dispersion energy=       -0.0652450755 Hartrees.
 Nuclear repulsion after empirical dispersion term =     5435.1080969138 Hartrees.
 Leave Link  301 at Wed Jan 24 17:00:07 2018, MaxMem=  4294967296 cpu:               2.1 elap:               0.1
 (Enter /share/apps/g16/l302.exe)
 NPDir=0 NMtPBC=     1 NCelOv=     1 NCel=       1 NClECP=     1 NCelD=      1
         NCelK=      1 NCelE2=     1 NClLst=     1 CellRange=     0.0.
 One-electron integrals computed using PRISM.
 One-electron integral symmetry used in STVInt
 NBasis=   737 RedAO= T EigKep=  7.06D-04  NBF=   737
 NBsUse=   737 1.00D-06 EigRej= -1.00D+00 NBFU=   737
 Precomputing XC quadrature grid using
 IXCGrd= 4 IRadAn=           5 IRanWt=          -1 IRanGd=           0 AccXCQ= 0.00D+00.
 Generated NRdTot=       0 NPtTot=           0 NUsed=           0 NTot=          32
 NSgBfM=   762   758   759   762   762 MxSgAt=    70 MxSgA2=    70.
 Leave Link  302 at Wed Jan 24 17:00:11 2018, MaxMem=  4294967296 cpu:             134.2 elap:               4.2
 (Enter /share/apps/g16/l303.exe)
 DipDrv:  MaxL=1.
 Leave Link  303 at Wed Jan 24 17:00:11 2018, MaxMem=  4294967296 cpu:              12.6 elap:               0.4
 (Enter /share/apps/g16/l401.exe)
 ExpMin= 1.22D-01 ExpMax= 1.17D+04 ExpMxC= 4.01D+02 IAcc=3 IRadAn=         5 AccDes= 0.00D+00
 Harris functional with IExCor= 4639 and IRadAn=       5 diagonalized for initial guess.
 HarFok:  IExCor= 4639 AccDes= 0.00D+00 IRadAn=         5 IDoV= 1 UseB2=F ITyADJ=14
 ICtDFT=  3500011 ScaDFX=  1.000000  1.000000  1.000000  1.000000
 FoFCou: FMM=F IPFlag=           0 FMFlag=      100000 FMFlg1=        2001
         NFxFlg=           0 DoJE=T BraDBF=F KetDBF=T FulRan=T
         wScrn=  0.000000 ICntrl=       500 IOpCl=  0 I1Cent=   200000004 NGrid=           0
         NMat0=    1 NMatS0=      1 NMatT0=    0 NMatD0=    1 NMtDS0=    0 NMtDT0=    0
 Petite list used in FoFCou.
 Harris En= -1963.88603150001    
 JPrj=0 DoOrth=F DoCkMO=F.
 Leave Link  401 at Wed Jan 24 17:00:24 2018, MaxMem=  4294967296 cpu:             391.4 elap:              12.3
 (Enter /share/apps/g16/l502.exe)
 Integral symmetry usage will be decided dynamically.
 Closed shell SCF:
 Using DIIS extrapolation, IDIIS=  1040.
 NGot=  4294967296 LenX=  4293717438 LenY=  4293108258
 Requested convergence on RMS density matrix=1.00D-08 within  20 cycles.
 Requested convergence on MAX density matrix=1.00D-06.
 Requested convergence on             energy=1.00D-06.
 No special actions if energy rises.
 Fock matrices will be formed incrementally for  20 cycles.
 Integral accuracy reduced to 1.0D-05 until final iterations.

 Cycle   1  Pass 0  IDiag  1:
 FoFJK:  IHMeth= 1 ICntrl=       0 DoSepK=T KAlg= 0 I1Cent=           0 FoldK=F
 IRaf=         1 NMat=       1 IRICut=       1 DoRegI=T DoRafI=F ISym2E= 0 IDoP0=0 IntGTp=1.
 FoFCou: FMM=T IPFlag=           0 FMFlag=      100000 FMFlg1=        2001
         NFxFlg=           0 DoJE=T BraDBF=F KetDBF=F FulRan=T
         wScrn=  0.000000 ICntrl=       500 IOpCl=  0 I1Cent=           0 NGrid=           0
         NMat0=    1 NMatS0=      1 NMatT0=    0 NMatD0=    1 NMtDS0=    0 NMtDT0=    0
 Symmetry not used in FoFCou.
 FMM levels:  10  Number of levels for PrismC:   9
 E= -2048.31377532565    
 DIIS: error= 2.73D-02 at cycle   1 NSaved=   1.
 NSaved= 1 IEnMin= 1 EnMin= -2048.31377532565     IErMin= 1 ErrMin= 2.73D-02
 ErrMax= 2.73D-02  0.00D+00 EMaxC= 1.00D-01 BMatC= 8.31D-01 BMatP= 8.31D-01
 IDIUse=3 WtCom= 7.27D-01 WtEn= 2.73D-01
 Coeff-Com:  0.100D+01
 Coeff-En:   0.100D+01
 Coeff:      0.100D+01
 Gap=     0.248 Goal=   None    Shift=    0.000
 GapD=    0.248 DampG=1.000 DampE=0.500 DampFc=0.5000 IDamp=-1.
 Damping current iteration by 5.00D-01
 RMSDP=1.55D-03 MaxDP=1.31D-01              OVMax= 1.87D-01

 Cycle   2  Pass 0  IDiag  1:
 RMSU=  7.72D-04    CP:  9.98D-01
 E= -2048.51158048956     Delta-E=       -0.197805163917 Rises=F Damp=T
 DIIS: error= 1.53D-02 at cycle   2 NSaved=   2.
 NSaved= 2 IEnMin= 2 EnMin= -2048.51158048956     IErMin= 2 ErrMin= 1.53D-02
 ErrMax= 1.53D-02  0.00D+00 EMaxC= 1.00D-01 BMatC= 1.44D-01 BMatP= 8.31D-01
 IDIUse=3 WtCom= 8.47D-01 WtEn= 1.53D-01
 Coeff-Com: -0.203D+00 0.120D+01
 Coeff-En:   0.000D+00 0.100D+01
 Coeff:     -0.172D+00 0.117D+01
 Gap=     0.317 Goal=   None    Shift=    0.000
 RMSDP=5.71D-04 MaxDP=3.53D-02 DE=-1.98D-01 OVMax= 1.50D-01

 Cycle   3  Pass 0  IDiag  1:
 RMSU=  5.57D-04    CP:  9.94D-01  1.15D+00
 E= -2048.69338886783     Delta-E=       -0.181808378267 Rises=F Damp=F
 DIIS: error= 6.59D-03 at cycle   3 NSaved=   3.
 NSaved= 3 IEnMin= 3 EnMin= -2048.69338886783     IErMin= 3 ErrMin= 6.59D-03
 ErrMax= 6.59D-03  0.00D+00 EMaxC= 1.00D-01 BMatC= 5.90D-02 BMatP= 1.44D-01
 IDIUse=3 WtCom= 9.34D-01 WtEn= 6.59D-02
 Coeff-Com: -0.228D+00 0.541D+00 0.688D+00
 Coeff-En:   0.000D+00 0.000D+00 0.100D+01
 Coeff:     -0.213D+00 0.505D+00 0.708D+00
 Gap=     0.268 Goal=   None    Shift=    0.000
 RMSDP=3.35D-04 MaxDP=3.40D-02 DE=-1.82D-01 OVMax= 5.87D-02

 Cycle   4  Pass 0  IDiag  1:
 RMSU=  1.95D-04    CP:  9.95D-01  1.42D+00  6.87D-01
 E= -2048.73782430783     Delta-E=       -0.044435440003 Rises=F Damp=F
 DIIS: error= 2.64D-03 at cycle   4 NSaved=   4.
 NSaved= 4 IEnMin= 4 EnMin= -2048.73782430783     IErMin= 4 ErrMin= 2.64D-03
 ErrMax= 2.64D-03  0.00D+00 EMaxC= 1.00D-01 BMatC= 8.33D-03 BMatP= 5.90D-02
 IDIUse=3 WtCom= 9.74D-01 WtEn= 2.64D-02
 Coeff-Com: -0.951D-01 0.184D+00 0.376D+00 0.534D+00
 Coeff-En:   0.000D+00 0.000D+00 0.497D-01 0.950D+00
 Coeff:     -0.925D-01 0.179D+00 0.368D+00 0.545D+00
 Gap=     0.274 Goal=   None    Shift=    0.000
 RMSDP=1.20D-04 MaxDP=1.25D-02 DE=-4.44D-02 OVMax= 1.31D-02

 Cycle   5  Pass 0  IDiag  1:
 RMSU=  6.16D-05    CP:  9.94D-01  1.40D+00  8.13D-01  6.26D-01
 E= -2048.74448796575     Delta-E=       -0.006663657915 Rises=F Damp=F
 DIIS: error= 6.47D-04 at cycle   5 NSaved=   5.
 NSaved= 5 IEnMin= 5 EnMin= -2048.74448796575     IErMin= 5 ErrMin= 6.47D-04
 ErrMax= 6.47D-04  0.00D+00 EMaxC= 1.00D-01 BMatC= 2.96D-04 BMatP= 8.33D-03
 IDIUse=3 WtCom= 9.94D-01 WtEn= 6.47D-03
 Coeff-Com: -0.249D-01 0.429D-01 0.122D+00 0.244D+00 0.616D+00
 Coeff-En:   0.000D+00 0.000D+00 0.000D+00 0.000D+00 0.100D+01
 Coeff:     -0.248D-01 0.426D-01 0.121D+00 0.243D+00 0.618D+00
 Gap=     0.273 Goal=   None    Shift=    0.000
 RMSDP=2.48D-05 MaxDP=2.43D-03 DE=-6.66D-03 OVMax= 3.26D-03

 Failed to achieve initial convergence to 1.0D-08 in  6 cycles.
 Switch to full accuracy anyway.
 Cycle   6  Pass 1  IDiag  1:
 E= -2048.74479914966     Delta-E=       -0.000311183911 Rises=F Damp=F
 DIIS: error= 2.03D-04 at cycle   1 NSaved=   1.
 NSaved= 1 IEnMin= 1 EnMin= -2048.74479914966     IErMin= 1 ErrMin= 2.03D-04
 ErrMax= 2.03D-04  0.00D+00 EMaxC= 1.00D-01 BMatC= 7.33D-05 BMatP= 7.33D-05
 IDIUse=3 WtCom= 9.98D-01 WtEn= 2.03D-03
 Coeff-Com:  0.100D+01
 Coeff-En:   0.100D+01
 Coeff:      0.100D+01
 Gap=     0.274 Goal=   None    Shift=    0.000
 RMSDP=2.48D-05 MaxDP=2.43D-03 DE=-3.11D-04 OVMax= 1.95D-03

 Cycle   7  Pass 1  IDiag  1:
 RMSU=  1.10D-04    CP:  1.00D+00
 E= -2048.74485231624     Delta-E=       -0.000053166585 Rises=F Damp=F
 DIIS: error= 2.80D-04 at cycle   2 NSaved=   2.
 NSaved= 2 IEnMin= 2 EnMin= -2048.74485231624     IErMin= 1 ErrMin= 2.03D-04
 ErrMax= 2.80D-04  0.00D+00 EMaxC= 1.00D-01 BMatC= 4.58D-05 BMatP= 7.33D-05
 IDIUse=3 WtCom= 9.97D-01 WtEn= 2.80D-03
 Coeff-Com:  0.421D+00 0.579D+00
 Coeff-En:   0.000D+00 0.100D+01
 Coeff:      0.420D+00 0.580D+00
 Gap=     0.274 Goal=   None    Shift=    0.000
 RMSDP=1.08D-05 MaxDP=1.45D-03 DE=-5.32D-05 OVMax= 1.67D-03

 Cycle   8  Pass 1  IDiag  1:
 RMSU=  1.04D-05    CP:  1.00D+00  1.02D+00
 E= -2048.74488419024     Delta-E=       -0.000031873993 Rises=F Damp=F
 DIIS: error= 1.22D-04 at cycle   3 NSaved=   3.
 NSaved= 3 IEnMin= 3 EnMin= -2048.74488419024     IErMin= 3 ErrMin= 1.22D-04
 ErrMax= 1.22D-04  0.00D+00 EMaxC= 1.00D-01 BMatC= 1.01D-05 BMatP= 4.58D-05
 IDIUse=3 WtCom= 9.99D-01 WtEn= 1.22D-03
 Coeff-Com: -0.190D-01 0.306D+00 0.713D+00
 Coeff-En:   0.000D+00 0.124D+00 0.876D+00
 Coeff:     -0.190D-01 0.306D+00 0.713D+00
 Gap=     0.274 Goal=   None    Shift=    0.000
 RMSDP=5.51D-06 MaxDP=5.46D-04 DE=-3.19D-05 OVMax= 5.73D-04

 Cycle   9  Pass 1  IDiag  1:
 RMSU=  3.73D-06    CP:  1.00D+00  1.05D+00  7.66D-01
 E= -2048.74489315821     Delta-E=       -0.000008967968 Rises=F Damp=F
 DIIS: error= 2.49D-05 at cycle   4 NSaved=   4.
 NSaved= 4 IEnMin= 4 EnMin= -2048.74489315821     IErMin= 4 ErrMin= 2.49D-05
 ErrMax= 2.49D-05  0.00D+00 EMaxC= 1.00D-01 BMatC= 4.82D-07 BMatP= 1.01D-05
 IDIUse=1 WtCom= 1.00D+00 WtEn= 0.00D+00
 Coeff-Com: -0.315D-01 0.846D-01 0.261D+00 0.686D+00
 Coeff:     -0.315D-01 0.846D-01 0.261D+00 0.686D+00
 Gap=     0.274 Goal=   None    Shift=    0.000
 RMSDP=1.39D-06 MaxDP=1.42D-04 DE=-8.97D-06 OVMax= 3.96D-04

 Cycle  10  Pass 1  IDiag  1:
 RMSU=  1.24D-06    CP:  1.00D+00  1.06D+00  7.97D-01  1.11D+00
 E= -2048.74489395649     Delta-E=       -0.000000798282 Rises=F Damp=F
 DIIS: error= 1.40D-05 at cycle   5 NSaved=   5.
 NSaved= 5 IEnMin= 5 EnMin= -2048.74489395649     IErMin= 5 ErrMin= 1.40D-05
 ErrMax= 1.40D-05  0.00D+00 EMaxC= 1.00D-01 BMatC= 1.11D-07 BMatP= 4.82D-07
 IDIUse=1 WtCom= 1.00D+00 WtEn= 0.00D+00
 Coeff-Com: -0.298D-02-0.521D-01-0.120D+00 0.197D+00 0.978D+00
 Coeff:     -0.298D-02-0.521D-01-0.120D+00 0.197D+00 0.978D+00
 Gap=     0.274 Goal=   None    Shift=    0.000
 RMSDP=1.15D-06 MaxDP=7.67D-05 DE=-7.98D-07 OVMax= 1.91D-04

 Cycle  11  Pass 1  IDiag  1:
 RMSU=  4.78D-07    CP:  1.00D+00  1.06D+00  8.04D-01  1.38D+00  1.17D+00
 E= -2048.74489419680     Delta-E=       -0.000000240313 Rises=F Damp=F
 DIIS: error= 6.85D-06 at cycle   6 NSaved=   6.
 NSaved= 6 IEnMin= 6 EnMin= -2048.74489419680     IErMin= 6 ErrMin= 6.85D-06
 ErrMax= 6.85D-06  0.00D+00 EMaxC= 1.00D-01 BMatC= 2.73D-08 BMatP= 1.11D-07
 IDIUse=1 WtCom= 1.00D+00 WtEn= 0.00D+00
 Coeff-Com:  0.472D-02-0.429D-01-0.114D+00-0.652D-02 0.523D+00 0.636D+00
 Coeff:      0.472D-02-0.429D-01-0.114D+00-0.652D-02 0.523D+00 0.636D+00
 Gap=     0.274 Goal=   None    Shift=    0.000
 RMSDP=3.64D-07 MaxDP=3.69D-05 DE=-2.40D-07 OVMax= 9.88D-05

 Cycle  12  Pass 1  IDiag  1:
 RMSU=  1.83D-07    CP:  1.00D+00  1.06D+00  8.05D-01  1.45D+00  1.30D+00
                    CP:  9.10D-01
 E= -2048.74489423629     Delta-E=       -0.000000039492 Rises=F Damp=F
 DIIS: error= 1.11D-06 at cycle   7 NSaved=   7.
 NSaved= 7 IEnMin= 7 EnMin= -2048.74489423629     IErMin= 7 ErrMin= 1.11D-06
 ErrMax= 1.11D-06  0.00D+00 EMaxC= 1.00D-01 BMatC= 8.43D-10 BMatP= 2.73D-08
 IDIUse=1 WtCom= 1.00D+00 WtEn= 0.00D+00
 Coeff-Com:  0.121D-02-0.770D-02-0.224D-01-0.758D-02 0.674D-01 0.154D+00
 Coeff-Com:  0.815D+00
 Coeff:      0.121D-02-0.770D-02-0.224D-01-0.758D-02 0.674D-01 0.154D+00
 Coeff:      0.815D+00
 Gap=     0.274 Goal=   None    Shift=    0.000
 RMSDP=7.92D-08 MaxDP=5.37D-06 DE=-3.95D-08 OVMax= 1.84D-05

 Cycle  13  Pass 1  IDiag  1:
 RMSU=  5.00D-08    CP:  1.00D+00  1.06D+00  8.05D-01  1.46D+00  1.32D+00
                    CP:  9.97D-01  1.12D+00
 E= -2048.74489423796     Delta-E=       -0.000000001664 Rises=F Damp=F
 DIIS: error= 5.43D-07 at cycle   8 NSaved=   8.
 NSaved= 8 IEnMin= 8 EnMin= -2048.74489423796     IErMin= 8 ErrMin= 5.43D-07
 ErrMax= 5.43D-07  0.00D+00 EMaxC= 1.00D-01 BMatC= 3.30D-10 BMatP= 8.43D-10
 IDIUse=1 WtCom= 1.00D+00 WtEn= 0.00D+00
 Coeff-Com: -0.722D-03 0.832D-02 0.207D-01-0.383D-03-0.116D+00-0.976D-01
 Coeff-Com:  0.412D+00 0.773D+00
 Coeff:     -0.722D-03 0.832D-02 0.207D-01-0.383D-03-0.116D+00-0.976D-01
 Coeff:      0.412D+00 0.773D+00
 Gap=     0.274 Goal=   None    Shift=    0.000
 RMSDP=4.93D-08 MaxDP=3.06D-06 DE=-1.66D-09 OVMax= 1.02D-05

 Cycle  14  Pass 1  IDiag  1:
 RMSU=  2.75D-08    CP:  1.00D+00  1.06D+00  8.04D-01  1.46D+00  1.33D+00
                    CP:  1.04D+00  1.28D+00  1.07D+00
 E= -2048.74489423838     Delta-E=       -0.000000000422 Rises=F Damp=F
 DIIS: error= 1.55D-07 at cycle   9 NSaved=   9.
 NSaved= 9 IEnMin= 9 EnMin= -2048.74489423838     IErMin= 9 ErrMin= 1.55D-07
 ErrMax= 1.55D-07  0.00D+00 EMaxC= 1.00D-01 BMatC= 3.44D-11 BMatP= 3.30D-10
 IDIUse=1 WtCom= 1.00D+00 WtEn= 0.00D+00
 Coeff-Com: -0.461D-03 0.465D-02 0.119D-01 0.120D-02-0.587D-01-0.602D-01
 Coeff-Com:  0.920D-01 0.330D+00 0.680D+00
 Coeff:     -0.461D-03 0.465D-02 0.119D-01 0.120D-02-0.587D-01-0.602D-01
 Coeff:      0.920D-01 0.330D+00 0.680D+00
 Gap=     0.274 Goal=   None    Shift=    0.000
 RMSDP=1.33D-08 MaxDP=8.48D-07 DE=-4.22D-10 OVMax= 2.89D-06

 Cycle  15  Pass 1  IDiag  1:
 RMSU=  9.16D-09    CP:  1.00D+00  1.06D+00  8.04D-01  1.46D+00  1.33D+00
                    CP:  1.05D+00  1.31D+00  1.21D+00  1.09D+00
 E= -2048.74489423863     Delta-E=       -0.000000000251 Rises=F Damp=F
 DIIS: error= 6.14D-08 at cycle  10 NSaved=  10.
 NSaved=10 IEnMin=10 EnMin= -2048.74489423863     IErMin=10 ErrMin= 6.14D-08
 ErrMax= 6.14D-08  0.00D+00 EMaxC= 1.00D-01 BMatC= 4.74D-12 BMatP= 3.44D-11
 IDIUse=1 WtCom= 1.00D+00 WtEn= 0.00D+00
 Coeff-Com:  0.646D-05-0.309D-03-0.640D-03 0.864D-04 0.545D-02 0.150D-02
 Coeff-Com: -0.543D-01-0.588D-01 0.235D+00 0.872D+00
 Coeff:      0.646D-05-0.309D-03-0.640D-03 0.864D-04 0.545D-02 0.150D-02
 Coeff:     -0.543D-01-0.588D-01 0.235D+00 0.872D+00
 Gap=     0.274 Goal=   None    Shift=    0.000
 RMSDP=6.82D-09 MaxDP=4.14D-07 DE=-2.51D-10 OVMax= 1.43D-06

 SCF Done:  E(RwB97XD) =  -2048.74489424     A.U. after   15 cycles
            NFock= 15  Conv=0.68D-08     -V/T= 2.0054
 KE= 2.037681265058D+03 PE=-1.565103513788D+04 EE= 6.129500881667D+03
 Leave Link  502 at Wed Jan 24 17:11:10 2018, MaxMem=  4294967296 cpu:           19970.9 elap:             645.9
 (Enter /share/apps/g16/l601.exe)
 Copying SCF densities to generalized density rwf, IOpCl= 0 IROHF=0.

 **********************************************************************

            Population analysis using the SCF density.

 **********************************************************************

 Orbital symmetries:
       Occupied  (A) (A) (A) (A) (A) (A) (A) (A) (A) (A) (A) (A)
                 (A) (A) (A) (A) (A) (A) (A) (A) (A) (A) (A) (A)
                 (A) (A) (A) (A) (A) (A) (A) (A) (A) (A) (A) (A)
                 (A) (A) (A) (A) (A) (A) (A) (A) (A) (A) (A) (A)
                 (A) (A) (A) (A) (A) (A) (A) (A) (A) (A) (A) (A)
                 (A) (A) (A) (A) (A) (A) (A) (A) (A) (A) (A) (A)
                 (A) (A) (A) (A) (A) (A) (A) (A) (A) (A) (A) (A)
                 (A) (A) (A) (A) (A) (A) (A) (A) (A) (A) (A) (A)
                 (A) (A) (A) (A) (A) (A) (A) (A) (A) (A) (A) (A)
                 (A) (A) (A) (A) (A) (A) (A) (A) (A) (A) (A) (A)
                 (A) (A) (A) (A) (A) (A) (A) (A) (A) (A) (A) (A)
                 (A) (A) (A) (A) (A) (A) (A) (A) (A) (A) (A) (A)
                 (A) (A) (A) (A) (A) (A) (A) (A) (A) (A)
       Virtual   (A) (A) (A) (A) (A) (A) (A) (A) (A) (A) (A) (A)
                 (A) (A) (A) (A) (A) (A) (A) (A) (A) (A) (A) (A)
                 (A) (A) (A) (A) (A) (A) (A) (A) (A) (A) (A) (A)
                 (A) (A) (A) (A) (A) (A) (A) (A) (A) (A) (A) (A)
                 (A) (A) (A) (A) (A) (A) (A) (A) (A) (A) (A) (A)
                 (A) (A) (A) (A) (A) (A) (A) (A) (A) (A) (A) (A)
                 (A) (A) (A) (A) (A) (A) (A) (A) (A) (A) (A) (A)
                 (A) (A) (A) (A) (A) (A) (A) (A) (A) (A) (A) (A)
                 (A) (A) (A) (A) (A) (A) (A) (A) (A) (A) (A) (A)
                 (A) (A) (A) (A) (A) (A) (A) (A) (A) (A) (A) (A)
                 (A) (A) (A) (A) (A) (A) (A) (A) (A) (A) (A) (A)
                 (A) (A) (A) (A) (A) (A) (A) (A) (A) (A) (A) (A)
                 (A) (A) (A) (A) (A) (A) (A) (A) (A) (A) (A) (A)
                 (A) (A) (A) (A) (A) (A) (A) (A) (A) (A) (A) (A)
                 (A) (A) (A) (A) (A) (A) (A) (A) (A) (A) (A) (A)
                 (A) (A) (A) (A) (A) (A) (A) (A) (A) (A) (A) (A)
                 (A) (A) (A) (A) (A) (A) (A) (A) (A) (A) (A) (A)
                 (A) (A) (A) (A) (A) (A) (A) (A) (A) (A) (A) (A)
                 (A) (A) (A) (A) (A) (A) (A) (A) (A) (A) (A) (A)
                 (A) (A) (A) (A) (A) (A) (A) (A) (A) (A) (A) (A)
                 (A) (A) (A) (A) (A) (A) (A) (A) (A) (A) (A) (A)
                 (A) (A) (A) (A) (A) (A) (A) (A) (A) (A) (A) (A)
                 (A) (A) (A) (A) (A) (A) (A) (A) (A) (A) (A) (A)
                 (A) (A) (A) (A) (A) (A) (A) (A) (A) (A) (A) (A)
                 (A) (A) (A) (A) (A) (A) (A) (A) (A) (A) (A) (A)
                 (A) (A) (A) (A) (A) (A) (A) (A) (A) (A) (A) (A)
                 (A) (A) (A) (A) (A) (A) (A) (A) (A) (A) (A) (A)
                 (A) (A) (A) (A) (A) (A) (A) (A) (A) (A) (A) (A)
                 (A) (A) (A) (A) (A) (A) (A) (A) (A) (A) (A) (A)
                 (A) (A) (A) (A) (A) (A) (A) (A) (A) (A) (A) (A)
                 (A) (A) (A) (A) (A) (A) (A) (A) (A) (A) (A) (A)
                 (A) (A) (A) (A) (A) (A) (A) (A) (A) (A) (A) (A)
                 (A) (A) (A) (A) (A) (A) (A) (A) (A) (A) (A) (A)
                 (A) (A) (A) (A) (A) (A) (A) (A) (A) (A) (A) (A)
                 (A) (A) (A) (A) (A) (A) (A) (A) (A) (A) (A) (A)
                 (A) (A) (A) (A) (A) (A) (A) (A) (A) (A) (A) (A)
                 (A) (A) (A) (A) (A) (A) (A) (A) (A) (A) (A) (A)
                 (A) (A) (A) (A) (A) (A) (A) (A) (A) (A) (A) (A)
                 (A) (A) (A) (A) (A) (A) (A) (A) (A) (A) (A) (A)
                 (A) (A) (A) (A) (A) (A) (A) (A) (A) (A) (A) (A)
                 (A) (A) (A) (A) (A) (A) (A) (A) (A) (A) (A) (A)
                 (A) (A) (A) (A) (A) (A) (A) (A) (A) (A) (A) (A)
                 (A) (A) (A) (A) (A) (A) (A) (A) (A) (A) (A) (A)
                 (A) (A) (A) (A) (A) (A) (A) (A) (A) (A) (A) (A)
                 (A) (A) (A) (A) (A) (A) (A) (A) (A) (A) (A) (A)
                 (A) (A) (A) (A) (A) (A) (A) (A) (A) (A) (A) (A)
                 (A) (A) (A) (A) (A) (A) (A) (A) (A) (A) (A) (A)
                 (A) (A) (A) (A) (A) (A) (A) (A) (A) (A) (A) (A)
                 (A) (A) (A) (A) (A) (A) (A)
 The electronic state is 1-A.
 Alpha  occ. eigenvalues --  -19.25873 -19.22289 -19.20651 -14.52544 -14.52356
 Alpha  occ. eigenvalues --  -14.48898 -14.48313 -14.47919 -14.47882 -14.47001
 Alpha  occ. eigenvalues --  -14.46766 -14.45443 -14.44317 -14.44237 -14.42114
 Alpha  occ. eigenvalues --  -14.41728 -14.40985 -14.40511 -14.40270 -14.39739
 Alpha  occ. eigenvalues --  -10.45532 -10.41340 -10.40374 -10.39965 -10.38286
 Alpha  occ. eigenvalues --  -10.38155 -10.37966 -10.37131 -10.35677 -10.35006
 Alpha  occ. eigenvalues --  -10.34835 -10.34440 -10.33771 -10.33426 -10.33249
 Alpha  occ. eigenvalues --  -10.32656 -10.32591 -10.32485 -10.31324 -10.31038
 Alpha  occ. eigenvalues --  -10.30279 -10.28198 -10.27762  -1.19461  -1.15114
 Alpha  occ. eigenvalues --   -1.13284  -1.13256  -1.10677  -1.10503  -1.09535
 Alpha  occ. eigenvalues --   -1.09225  -1.08641  -1.04858  -1.04405  -1.02564
 Alpha  occ. eigenvalues --   -1.00935  -0.99841  -0.99806  -0.98634  -0.96858
 Alpha  occ. eigenvalues --   -0.96698  -0.96150  -0.92089  -0.91317  -0.87551
 Alpha  occ. eigenvalues --   -0.85810  -0.84216  -0.83600  -0.83186  -0.82609
 Alpha  occ. eigenvalues --   -0.81601  -0.79078  -0.77014  -0.74793  -0.74712
 Alpha  occ. eigenvalues --   -0.73740  -0.73452  -0.72247  -0.70463  -0.70326
 Alpha  occ. eigenvalues --   -0.67480  -0.66849  -0.66642  -0.65638  -0.64590
 Alpha  occ. eigenvalues --   -0.64252  -0.63888  -0.62754  -0.62057  -0.61852
 Alpha  occ. eigenvalues --   -0.60576  -0.60207  -0.60096  -0.59657  -0.59320
 Alpha  occ. eigenvalues --   -0.59195  -0.58458  -0.56719  -0.56054  -0.55980
 Alpha  occ. eigenvalues --   -0.55600  -0.55222  -0.54858  -0.54534  -0.54139
 Alpha  occ. eigenvalues --   -0.53767  -0.53695  -0.53514  -0.53273  -0.53076
 Alpha  occ. eigenvalues --   -0.52739  -0.52443  -0.51105  -0.50297  -0.50050
 Alpha  occ. eigenvalues --   -0.49843  -0.49578  -0.49464  -0.49153  -0.48985
 Alpha  occ. eigenvalues --   -0.48549  -0.48390  -0.48252  -0.47799  -0.47416
 Alpha  occ. eigenvalues --   -0.46286  -0.45782  -0.45456  -0.44221  -0.43746
 Alpha  occ. eigenvalues --   -0.40653  -0.40467  -0.39468  -0.37555  -0.37538
 Alpha  occ. eigenvalues --   -0.37377  -0.37355  -0.36426  -0.35978  -0.34751
 Alpha  occ. eigenvalues --   -0.34330  -0.34025  -0.33425  -0.32833  -0.32785
 Alpha  occ. eigenvalues --   -0.32733  -0.32528  -0.32363  -0.31958  -0.30227
 Alpha  occ. eigenvalues --   -0.29936  -0.29801  -0.25602  -0.25068
 Alpha virt. eigenvalues --    0.02306   0.04345   0.06948   0.08423   0.08732
 Alpha virt. eigenvalues --    0.09182   0.09701   0.10546   0.11489   0.11664
 Alpha virt. eigenvalues --    0.13132   0.14455   0.14761   0.14832   0.15109
 Alpha virt. eigenvalues --    0.15549   0.16431   0.17193   0.17420   0.17463
 Alpha virt. eigenvalues --    0.18358   0.19804   0.19864   0.20437   0.20523
 Alpha virt. eigenvalues --    0.20820   0.21010   0.21042   0.21521   0.21907
 Alpha virt. eigenvalues --    0.22507   0.22872   0.23204   0.23607   0.23716
 Alpha virt. eigenvalues --    0.24306   0.24446   0.24669   0.24746   0.25230
 Alpha virt. eigenvalues --    0.25260   0.25880   0.27117   0.27623   0.28029
 Alpha virt. eigenvalues --    0.28946   0.29348   0.29689   0.30555   0.30848
 Alpha virt. eigenvalues --    0.31513   0.31909   0.32366   0.32813   0.33316
 Alpha virt. eigenvalues --    0.34060   0.34177   0.34997   0.35910   0.36119
 Alpha virt. eigenvalues --    0.36696   0.37272   0.37786   0.38905   0.39264
 Alpha virt. eigenvalues --    0.39832   0.40358   0.40834   0.41575   0.41679
 Alpha virt. eigenvalues --    0.41863   0.42672   0.43245   0.43747   0.44253
 Alpha virt. eigenvalues --    0.44555   0.45447   0.46334   0.46808   0.47171
 Alpha virt. eigenvalues --    0.47496   0.47566   0.48259   0.48623   0.49161
 Alpha virt. eigenvalues --    0.49669   0.50176   0.50372   0.50643   0.51105
 Alpha virt. eigenvalues --    0.51502   0.51566   0.52208   0.52620   0.52999
 Alpha virt. eigenvalues --    0.53820   0.54312   0.54544   0.54933   0.55486
 Alpha virt. eigenvalues --    0.55833   0.56448   0.56756   0.57151   0.57546
 Alpha virt. eigenvalues --    0.57874   0.58000   0.58524   0.59414   0.59521
 Alpha virt. eigenvalues --    0.59614   0.59912   0.60433   0.60682   0.60899
 Alpha virt. eigenvalues --    0.61289   0.61916   0.62319   0.62779   0.62851
 Alpha virt. eigenvalues --    0.63222   0.63874   0.64239   0.65375   0.65485
 Alpha virt. eigenvalues --    0.65811   0.65863   0.66318   0.66961   0.67225
 Alpha virt. eigenvalues --    0.67312   0.67625   0.68036   0.68522   0.68654
 Alpha virt. eigenvalues --    0.69519   0.70015   0.70625   0.70987   0.71246
 Alpha virt. eigenvalues --    0.71438   0.72016   0.72723   0.73022   0.73456
 Alpha virt. eigenvalues --    0.73652   0.74228   0.74402   0.74737   0.75032
 Alpha virt. eigenvalues --    0.75569   0.75916   0.76055   0.76395   0.76713
 Alpha virt. eigenvalues --    0.77031   0.77731   0.77947   0.78359   0.78630
 Alpha virt. eigenvalues --    0.78746   0.79289   0.79921   0.80277   0.80760
 Alpha virt. eigenvalues --    0.80880   0.81576   0.81644   0.82060   0.82488
 Alpha virt. eigenvalues --    0.83115   0.83578   0.83917   0.84194   0.84490
 Alpha virt. eigenvalues --    0.84852   0.85581   0.85860   0.86603   0.87484
 Alpha virt. eigenvalues --    0.88058   0.88136   0.88249   0.88882   0.89555
 Alpha virt. eigenvalues --    0.90298   0.90393   0.90949   0.91411   0.91827
 Alpha virt. eigenvalues --    0.92110   0.92760   0.93044   0.93209   0.93966
 Alpha virt. eigenvalues --    0.94164   0.94858   0.95529   0.95978   0.96164
 Alpha virt. eigenvalues --    0.96679   0.96978   0.97759   0.97980   0.98138
 Alpha virt. eigenvalues --    0.98693   0.99353   0.99392   1.00068   1.00537
 Alpha virt. eigenvalues --    1.00772   1.01189   1.01577   1.02440   1.02530
 Alpha virt. eigenvalues --    1.02814   1.03231   1.03746   1.04484   1.04765
 Alpha virt. eigenvalues --    1.05218   1.05519   1.06201   1.06432   1.06908
 Alpha virt. eigenvalues --    1.07342   1.08098   1.09065   1.10180   1.10489
 Alpha virt. eigenvalues --    1.10955   1.11404   1.11601   1.12512   1.13156
 Alpha virt. eigenvalues --    1.13443   1.13725   1.14185   1.14452   1.14955
 Alpha virt. eigenvalues --    1.15273   1.15962   1.15995   1.16952   1.17168
 Alpha virt. eigenvalues --    1.17682   1.17907   1.18650   1.19072   1.19191
 Alpha virt. eigenvalues --    1.19662   1.19884   1.20461   1.20641   1.20903
 Alpha virt. eigenvalues --    1.21242   1.22088   1.22379   1.22639   1.23180
 Alpha virt. eigenvalues --    1.23374   1.23570   1.23795   1.24378   1.24707
 Alpha virt. eigenvalues --    1.24767   1.25383   1.25729   1.25987   1.26840
 Alpha virt. eigenvalues --    1.27802   1.28422   1.28570   1.29322   1.30006
 Alpha virt. eigenvalues --    1.30497   1.31774   1.31998   1.32224   1.33004
 Alpha virt. eigenvalues --    1.33693   1.34347   1.34481   1.35468   1.36175
 Alpha virt. eigenvalues --    1.36538   1.37682   1.37936   1.38852   1.39557
 Alpha virt. eigenvalues --    1.40430   1.40895   1.41294   1.41383   1.43075
 Alpha virt. eigenvalues --    1.44648   1.45730   1.45985   1.46396   1.46662
 Alpha virt. eigenvalues --    1.47618   1.48876   1.49015   1.49713   1.50411
 Alpha virt. eigenvalues --    1.51066   1.51854   1.52619   1.53145   1.53458
 Alpha virt. eigenvalues --    1.53656   1.54312   1.55961   1.56440   1.56762
 Alpha virt. eigenvalues --    1.57287   1.58312   1.58905   1.59126   1.60268
 Alpha virt. eigenvalues --    1.60639   1.61456   1.61586   1.62397   1.62818
 Alpha virt. eigenvalues --    1.63060   1.63956   1.64649   1.65297   1.65452
 Alpha virt. eigenvalues --    1.65785   1.67083   1.67644   1.68444   1.68643
 Alpha virt. eigenvalues --    1.68796   1.69356   1.69673   1.70417   1.70628
 Alpha virt. eigenvalues --    1.71522   1.71947   1.72277   1.72687   1.73265
 Alpha virt. eigenvalues --    1.73525   1.73823   1.74488   1.74720   1.75144
 Alpha virt. eigenvalues --    1.75630   1.75997   1.76060   1.76284   1.76733
 Alpha virt. eigenvalues --    1.76892   1.77270   1.77609   1.77975   1.78218
 Alpha virt. eigenvalues --    1.78698   1.78835   1.78943   1.79778   1.80045
 Alpha virt. eigenvalues --    1.80242   1.80374   1.80899   1.81232   1.81393
 Alpha virt. eigenvalues --    1.81870   1.82241   1.82480   1.83826   1.83875
 Alpha virt. eigenvalues --    1.84477   1.84867   1.85336   1.85697   1.86283
 Alpha virt. eigenvalues --    1.86694   1.87180   1.87805   1.88076   1.88589
 Alpha virt. eigenvalues --    1.88919   1.89635   1.90342   1.90554   1.90877
 Alpha virt. eigenvalues --    1.91505   1.91826   1.92813   1.93624   1.93750
 Alpha virt. eigenvalues --    1.94231   1.94413   1.94885   1.95399   1.96696
 Alpha virt. eigenvalues --    1.97533   1.98443   1.98776   2.00281   2.00791
 Alpha virt. eigenvalues --    2.01173   2.01360   2.02013   2.02572   2.02861
 Alpha virt. eigenvalues --    2.03324   2.03779   2.05326   2.05930   2.06579
 Alpha virt. eigenvalues --    2.07179   2.07733   2.08003   2.08309   2.09469
 Alpha virt. eigenvalues --    2.09714   2.10344   2.10464   2.11605   2.11957
 Alpha virt. eigenvalues --    2.12167   2.13802   2.14464   2.15941   2.16166
 Alpha virt. eigenvalues --    2.17711   2.18454   2.19439   2.20141   2.20846
 Alpha virt. eigenvalues --    2.21556   2.22283   2.22450   2.22699   2.23403
 Alpha virt. eigenvalues --    2.24232   2.24675   2.25320   2.25384   2.26370
 Alpha virt. eigenvalues --    2.27028   2.27268   2.28613   2.28876   2.29766
 Alpha virt. eigenvalues --    2.30017   2.30281   2.30634   2.31455   2.31947
 Alpha virt. eigenvalues --    2.32375   2.33084   2.33369   2.33625   2.33772
 Alpha virt. eigenvalues --    2.34609   2.34993   2.35226   2.35960   2.36916
 Alpha virt. eigenvalues --    2.37479   2.37844   2.38617   2.39527   2.40607
 Alpha virt. eigenvalues --    2.41297   2.42360   2.43377   2.43559   2.43905
 Alpha virt. eigenvalues --    2.44265   2.44647   2.45315   2.45412   2.46450
 Alpha virt. eigenvalues --    2.47572   2.48051   2.49427   2.50749   2.51378
 Alpha virt. eigenvalues --    2.51940   2.53116   2.54285   2.54919   2.55040
 Alpha virt. eigenvalues --    2.56079   2.57040   2.57219   2.58284   2.59151
 Alpha virt. eigenvalues --    2.60335   2.61520   2.61996   2.62368   2.62666
 Alpha virt. eigenvalues --    2.63214   2.64279   2.64789   2.65011   2.65374
 Alpha virt. eigenvalues --    2.65587   2.67310   2.67569   2.67874   2.68801
 Alpha virt. eigenvalues --    2.68907   2.69945   2.70240   2.70823   2.71973
 Alpha virt. eigenvalues --    2.72788   2.73739   2.75141   2.76165   2.76376
 Alpha virt. eigenvalues --    2.76991   2.77541   2.78276   2.78734   2.79073
 Alpha virt. eigenvalues --    2.79283   2.80029   2.80238   2.80539   2.80830
 Alpha virt. eigenvalues --    2.81582   2.81925   2.81989   2.83509   2.83731
 Alpha virt. eigenvalues --    2.84294   2.85091   2.85618   2.86325   2.86812
 Alpha virt. eigenvalues --    2.87650   2.87730   2.88515   2.90382   2.92120
 Alpha virt. eigenvalues --    2.93363   2.94571   2.94945   2.96409   2.98342
 Alpha virt. eigenvalues --    3.00073   3.00502   3.01202   3.03963   3.04513
 Alpha virt. eigenvalues --    3.05464   3.09245   3.11038   3.12491   3.14625
 Alpha virt. eigenvalues --    3.15790   3.15947   3.16234   3.17097   3.19960
 Alpha virt. eigenvalues --    3.20660   3.22229   3.23278   3.24607   3.25160
 Alpha virt. eigenvalues --    3.44411   3.47120   3.47273   3.49319   3.50111
 Alpha virt. eigenvalues --    3.53554   3.54354   3.56025   3.57481   3.59733
 Alpha virt. eigenvalues --    3.62639   3.70497   3.74475
          Condensed to atoms (all electrons):
 Mulliken charges:
               1
     1  N   -0.312967
     2  C    0.182019
     3  C    0.050299
     4  N   -0.256660
     5  C    0.138841
     6  H    0.024702
     7  N   -0.300874
     8  C    0.135599
     9  H    0.008386
    10  N   -0.289913
    11  C    0.257031
    12  C    0.106718
    13  N   -0.060281
    14  H    0.114419
    15  H    0.082313
    16  H    0.022568
    17  H    0.031455
    18  H    0.026399
    19  N   -0.311474
    20  C    0.251030
    21  C    0.180697
    22  N   -0.120175
    23  H    0.114987
    24  H    0.117090
    25  N   -0.311385
    26  C    0.246588
    27  N   -0.151037
    28  H    0.121302
    29  C    0.197232
    30  O   -0.321402
    31  C   -0.015153
    32  N   -0.226426
    33  C    0.130915
    34  H    0.022704
    35  H    0.028993
    36  H    0.029098
    37  H    0.024668
    38  H    0.061524
    39  H    0.059862
    40  H    0.073462
    41  H    0.029365
    42  C   -0.127237
    43  O   -0.264532
    44  C    0.166074
    45  H    0.131606
    46  N   -0.117601
    47  O   -0.343958
    48  C    0.338213
    49  H    0.045186
    50  C    0.164586
    51  C    0.037661
    52  N   -0.274878
    53  H    0.034228
    54  H    0.042144
    55  H    0.027983
    56  H    0.122373
    57  H    0.113459
    58  N   -0.054325
    59  C    0.090953
    60  C    0.252391
    61  N   -0.274536
    62  H    0.037949
    63  C    0.173209
    64  N   -0.313049
    65  H    0.037888
    66  C    0.138735
    67  N   -0.270205
    68  C    0.026233
    69  C    0.179761
    70  N   -0.312831
 Sum of Mulliken charges =  -0.00000
 Mulliken charges with hydrogens summed into heavy atoms:
               1
     1  N   -0.312967
     2  C    0.262441
     3  C    0.050299
     4  N   -0.256660
     5  C    0.163543
     7  N   -0.300874
     8  C    0.143985
    10  N   -0.289913
    11  C    0.257031
    12  C    0.106718
    13  N    0.136451
    19  N   -0.311474
    20  C    0.251030
    21  C    0.263456
    22  N    0.111902
    25  N   -0.311385
    26  C    0.246588
    27  N   -0.029734
    29  C    0.197232
    30  O   -0.321402
    31  C   -0.015153
    32  N   -0.226426
    33  C    0.153619
    42  C   -0.097871
    43  O   -0.264532
    44  C    0.166074
    46  N    0.014005
    47  O   -0.343958
    48  C    0.338213
    50  C    0.209772
    51  C    0.232508
    52  N   -0.274878
    58  N    0.181508
    59  C    0.090953
    60  C    0.252391
    61  N   -0.274536
    63  C    0.211158
    64  N   -0.313049
    66  C    0.176623
    67  N   -0.270205
    68  C    0.026233
    69  C    0.284116
    70  N   -0.312831
 Electronic spatial extent (au):  <R**2>=          22339.9105
 Charge=             -0.0000 electrons
 Dipole moment (field-independent basis, Debye):
    X=              8.7699    Y=              6.3651    Z=              0.6420  Tot=             10.8553
 Quadrupole moment (field-independent basis, Debye-Ang):
   XX=           -161.0211   YY=           -214.9582   ZZ=           -250.6371
   XY=             -3.4830   XZ=             -7.3378   YZ=             -1.9665
 Traceless Quadrupole moment (field-independent basis, Debye-Ang):
   XX=             47.8510   YY=             -6.0860   ZZ=            -41.7650
   XY=             -3.4830   XZ=             -7.3378   YZ=             -1.9665
 Octapole moment (field-independent basis, Debye-Ang**2):
  XXX=            -71.0338  YYY=            143.2884  ZZZ=            -10.0846  XYY=             66.8927
  XXY=             50.5062  XXZ=              7.4819  XZZ=             73.7698  YZZ=             33.5715
  YYZ=             31.7147  XYZ=             89.7073
 Hexadecapole moment (field-independent basis, Debye-Ang**3):
 XXXX=         -14704.3651 YYYY=          -6538.1527 ZZZZ=          -4274.3833 XXXY=            491.6979
 XXXZ=           -170.7829 YYYX=           -144.5277 YYYZ=            -32.0413 ZZZX=             21.9904
 ZZZY=             79.1928 XXYY=          -3064.8451 XXZZ=          -3520.8773 YYZZ=          -1853.7545
 XXYZ=            149.7076 YYXZ=            115.4384 ZZXY=            100.7440
 N-N= 5.435108096914D+03 E-N=-1.565103513582D+04  KE= 2.037681265058D+03
 No NMR shielding tensors so no spin-rotation constants.
 Leave Link  601 at Wed Jan 24 17:11:12 2018, MaxMem=  4294967296 cpu:              49.0 elap:               1.7
 (Enter /share/apps/g16/l9999.exe)
 1\1\GINC-COMPUTE-0-3\SP\RwB97XD\CC-pVDZ\C23H27N17O3\SATYA\24-Jan-2018\
 0\\#p wb97xd/cc-pvdz sp scf=(maxcycles=20)\\Base pair stacking\\0,1\N,
 0,5.68632,-1.44558,-5.02825\C,0,6.98353,-0.74192,-5.01802\C,0,3.57313,
 -1.96339,-5.35019\N,0,4.13727,-3.03655,-4.6758\C,0,5.38781,-2.68164,-4
 .50883\H,0,6.14313,-3.28872,-4.00895\N,0,2.04098,-0.54935,-6.45288\C,0
 ,3.05454,0.31082,-6.59565\H,0,2.80871,1.23748,-7.1125\N,0,4.32023,0.19
 87,-6.19771\C,0,4.51573,-0.97509,-5.57447\C,0,2.26991,-1.72147,-5.8213
 8\N,0,1.25942,-2.58141,-5.67788\H,0,1.38327,-3.46091,-5.21705\H,0,0.34
 466,-2.37597,-6.02593\H,0,7.66628,-1.29165,-5.49952\H,0,6.88742,0.1425
 1,-5.47372\H,0,7.2796,-0.59802,-4.07376\N,0,2.78314,3.17744,-3.1051\C,
 0,1.58479,2.53394,-3.29982\C,0,3.01827,4.62198,-3.30187\N,0,-1.77241,2
 .63081,-4.1839\H,0,-2.5326,1.98683,-4.2654\H,0,-1.96302,3.58793,-4.403
 72\N,0,0.43005,3.10854,-3.70039\C,0,-0.55188,2.22987,-3.7973\N,0,-0.41
 547,0.89053,-3.52335\H,0,-1.2209,0.29221,-3.62466\C,0,0.76314,0.27756,
 -3.10978\O,0,0.77945,-0.93963,-2.88861\C,0,1.827,1.20883,-3.00109\N,0,
 3.15077,1.02415,-2.62637\C,0,3.67782,2.21603,-2.70273\H,0,4.7184,2.450
 55,-2.47586\H,0,3.7218,4.75492,-3.99914\H,0,2.16983,5.05821,-3.5987\H,
 0,3.31975,5.03247,-2.44198\H,0,-5.42487,-2.24882,-4.93709\H,0,-5.74373
 ,-2.2018,-3.20482\H,0,-4.86286,-0.88164,-3.97464\H,0,-2.49757,-5.74695
 ,-3.4072\C,0,-2.53335,-4.65808,-3.44334\O,0,-0.21466,-4.38437,-3.02398
 \C,0,-1.32959,-3.91091,-3.24205\H,0,-0.65725,-1.97927,-3.17073\N,0,-1.
 48569,-2.54104,-3.30797\O,0,-2.68769,-0.63372,-3.58099\C,0,-2.6489,-1.
 85091,-3.54081\H,0,-4.62612,-4.53494,-3.8319\C,0,-3.68331,-4.01335,-3.
 67252\C,0,-5.03275,-1.94806,-3.97696\N,0,-3.76634,-2.64123,-3.72504\H,
 0,-4.91982,1.56438,-9.57725\H,0,-3.90096,2.07272,-8.40866\H,0,-5.49737
 ,1.93699,-8.09704\H,0,-1.98239,-4.27224,-6.06002\H,0,-3.57173,-4.27147
 ,-6.67976\N,0,-2.73311,-3.76308,-6.48112\C,0,-2.62186,-2.46388,-6.7655
 3\C,0,-3.3826,-0.36601,-7.59134\N,0,-2.24443,0.29108,-7.31345\H,0,-0.3
 9884,-0.07619,-6.50136\C,0,-1.35468,-0.53009,-6.75944\N,0,-1.46419,-1.
 83162,-6.47377\H,0,-6.40396,-0.78077,-8.66445\C,0,-5.40555,-0.90466,-8
 .24401\N,0,-4.92943,-2.03167,-7.77408\C,0,-3.64745,-1.7041,-7.35699\C,
 0,-4.72648,1.54132,-8.59639\N,0,-4.52291,0.14481,-8.16472\\Version=EM6
 4L-G16RevA.03\State=1-A\HF=-2048.7448942\RMSD=6.816e-09\Dipole=-3.7900
 468,1.6148897,-1.1258262\Quadrupole=31.4166415,-1.0761435,-30.3404979,
 11.2148903,8.7165907,2.7662047\PG=C01 [X(C23H27N17O3)]\\@


 THERE ARE TWO THINGS THAT EVERYBODY THINKS THEY CAN DO BETTER THAN
 ANYONE ELSE - PUNCH THE FIRE, AND EDIT A DAILY PAPER.
 -- UNCLE ESEK, "CENTURY MAGAZINE", 1885
 Job cpu time:       0 days  5 hours 42 minutes 52.8 seconds.
 Elapsed time:       0 days  0 hours 11 minutes  5.1 seconds.
 File lengths (MBytes):  RWF=    298 Int=      0 D2E=      0 Chk=     33 Scr=      1
 Normal termination of Gaussian 16 at Wed Jan 24 17:11:12 2018.
