 Entering Gaussian System, Link 0=g16
 Input=str40.-15.-1.5.com
 Output=str40.-15.-1.5.log
 Initial command:
 /share/apps/g16/l1.exe "/state/partition1/scr/Gau-823.inp" -scrdir="/state/partition1/scr/"
 Entering Link 1 = /share/apps/g16/l1.exe PID=       824.
  
 Copyright (c) 1988,1990,1992,1993,1995,1998,2003,2009,2016,
            Gaussian, Inc.  All Rights Reserved.
  
 This is part of the Gaussian(R) 16 program.  It is based on
 the Gaussian(R) 09 system (copyright 2009, Gaussian, Inc.),
 the Gaussian(R) 03 system (copyright 2003, Gaussian, Inc.),
 the Gaussian(R) 98 system (copyright 1998, Gaussian, Inc.),
 the Gaussian(R) 94 system (copyright 1995, Gaussian, Inc.),
 the Gaussian 92(TM) system (copyright 1992, Gaussian, Inc.),
 the Gaussian 90(TM) system (copyright 1990, Gaussian, Inc.),
 the Gaussian 88(TM) system (copyright 1988, Gaussian, Inc.),
 the Gaussian 86(TM) system (copyright 1986, Carnegie Mellon
 University), and the Gaussian 82(TM) system (copyright 1983,
 Carnegie Mellon University). Gaussian is a federally registered
 trademark of Gaussian, Inc.
  
 This software contains proprietary and confidential information,
 including trade secrets, belonging to Gaussian, Inc.
  
 This software is provided under written license and may be
 used, copied, transmitted, or stored only in accord with that
 written license.
  
 The following legend is applicable only to US Government
 contracts under FAR:
  
                    RESTRICTED RIGHTS LEGEND
  
 Use, reproduction and disclosure by the US Government is
 subject to restrictions as set forth in subparagraphs (a)
 and (c) of the Commercial Computer Software - Restricted
 Rights clause in FAR 52.227-19.
  
 Gaussian, Inc.
 340 Quinnipiac St., Bldg. 40, Wallingford CT 06492
  
  
 ---------------------------------------------------------------
 Warning -- This program may not be used in any manner that
 competes with the business of Gaussian, Inc. or will provide
 assistance to any competitor of Gaussian, Inc.  The licensee
 of this program is prohibited from giving any competitor of
 Gaussian, Inc. access to this program.  By using this program,
 the user acknowledges that Gaussian, Inc. is engaged in the
 business of creating and licensing software in the field of
 computational chemistry and represents and warrants to the
 licensee that it is not a competitor of Gaussian, Inc. and that
 it will not use this program in any manner prohibited above.
 ---------------------------------------------------------------
  

 Cite this work as:
 Gaussian 16, Revision A.03,
 M. J. Frisch, G. W. Trucks, H. B. Schlegel, G. E. Scuseria, 
 M. A. Robb, J. R. Cheeseman, G. Scalmani, V. Barone, 
 G. A. Petersson, H. Nakatsuji, X. Li, M. Caricato, A. V. Marenich, 
 J. Bloino, B. G. Janesko, R. Gomperts, B. Mennucci, H. P. Hratchian, 
 J. V. Ortiz, A. F. Izmaylov, J. L. Sonnenberg, D. Williams-Young, 
 F. Ding, F. Lipparini, F. Egidi, J. Goings, B. Peng, A. Petrone, 
 T. Henderson, D. Ranasinghe, V. G. Zakrzewski, J. Gao, N. Rega, 
 G. Zheng, W. Liang, M. Hada, M. Ehara, K. Toyota, R. Fukuda, 
 J. Hasegawa, M. Ishida, T. Nakajima, Y. Honda, O. Kitao, H. Nakai, 
 T. Vreven, K. Throssell, J. A. Montgomery, Jr., J. E. Peralta, 
 F. Ogliaro, M. J. Bearpark, J. J. Heyd, E. N. Brothers, K. N. Kudin, 
 V. N. Staroverov, T. A. Keith, R. Kobayashi, J. Normand, 
 K. Raghavachari, A. P. Rendell, J. C. Burant, S. S. Iyengar, 
 J. Tomasi, M. Cossi, J. M. Millam, M. Klene, C. Adamo, R. Cammi, 
 J. W. Ochterski, R. L. Martin, K. Morokuma, O. Farkas, 
 J. B. Foresman, and D. J. Fox, Gaussian, Inc., Wallingford CT, 2016.
 
 ******************************************
 Gaussian 16:  EM64L-G16RevA.03 25-Dec-2016
                23-Jan-2018 
 ******************************************
 %nprocshared=32
 Will use up to   32 processors via shared memory.
 %mem=32GB
 %chk=allatoms_t.chk
 ---------------------------------------
 #p wb97xd/cc-pvdz sp scf=(maxcycles=20)
 ---------------------------------------
 1/38=1,172=1/1;
 2/12=2,17=6,18=5,40=1/2;
 3/5=16,11=2,25=1,30=1,74=-58/1,2,3;
 4//1;
 5/5=2,7=20,38=5/2;
 6/7=2,8=2,9=2,10=2,28=1/1;
 99/5=1,9=1/99;
 Leave Link    1 at Tue Jan 23 02:09:59 2018, MaxMem=  4294967296 cpu:               2.7 elap:               0.1
 (Enter /share/apps/g16/l101.exe)
 ------------------
 Base pair stacking
 ------------------
 Symbolic Z-matrix:
 Charge =  0 Multiplicity = 1
 N                     5.5007    5.07084  -7.7786 
 C                     6.42328   6.2194   -7.86607 
 C                     3.73415   3.81024  -7.42156 
 N                     4.71395   2.97015  -7.93044 
 C                     5.73902   3.76324  -8.12518 
 H                     6.70277   3.4444   -8.52325 
 N                     1.70259   4.63436  -6.55175 
 C                     2.29323   5.83323  -6.51413 
 H                     1.6737    6.64515  -6.13567 
 N                     3.52845   6.17813  -6.87215 
 C                     4.20441   5.10813  -7.32226 
 C                     2.40924   3.57796  -7.00975 
 N                     1.82138   2.38041  -7.04806 
 H                     2.30661   1.57056  -7.37961 
 H                     0.87644   2.25197  -6.74684 
 H                     6.70564   6.35026  -8.81651 
 H                     5.96202   7.04399  -7.53985 
 H                     7.23006   6.04532  -7.30145 
 N                     2.08603   5.9109   -3.38669 
 C                     1.01735   5.06621  -3.2065 
 C                     2.02506   7.38576  -3.34437 
 N                    -2.36658   4.58622  -2.58976 
 H                    -2.9961    3.81625  -2.48935 
 H                    -2.75409   5.50396  -2.49867 
 N                    -0.25772   5.43863  -2.96247 
 C                    -1.06124   4.39755  -2.83553 
 N                    -0.64956   3.09092  -2.93927 
 H                    -1.3338    2.35853  -2.82793 
 C                     0.65729   2.6845   -3.1899 
 O                     0.92354   1.47857  -3.26459 
 C                     1.53212   3.79189  -3.32866 
 N                     2.89651   3.83568  -3.58047 
 C                     3.17993   5.10974  -3.60617 
 H                     4.17448   5.52122  -3.78175 
 H                     2.3242    7.75871  -4.22199 
 H                     1.08531   7.67334  -3.16424 
 H                     2.62139   7.72496  -2.61764 
 H                    -5.32556  -0.79081  -2.81464 
 H                    -4.84786  -1.05503  -1.13934 
 H                    -4.57348   0.51421  -1.89668 
 H                    -1.60744  -3.78337  -3.42022 
 C                    -1.79286  -2.73171  -3.20148 
 O                     0.4166   -2.04361  -3.72298 
 C                    -0.72957  -1.78645  -3.3556 
 H                    -0.34533   0.21313  -3.1498 
 N                    -1.07051  -0.48361  -3.05291 
 O                    -2.49956   1.15112  -2.3876 
 C                    -2.29346  -0.02469  -2.63181 
 H                    -3.83827  -2.99302  -2.65946 
 C                    -2.99669  -2.31449  -2.79242 
 C                    -4.59051  -0.55308  -2.06015 
 N                    -3.26711  -0.99616  -2.50739 
 H                    -5.85033   4.2855   -4.20355 
 H                    -4.38842   4.63225  -3.56739 
 H                    -5.40177   3.62267  -2.78128 
 H                    -0.71684  -0.2786   -7.011 
 H                    -2.32784  -0.76312  -6.72811 
 N                    -1.61628  -0.0667   -6.62859 
 C                    -1.85719   1.09273  -6.01307 
 C                    -3.19924   2.67785  -4.85203 
 N                    -2.22458   3.59453  -4.73304 
 H                    -0.25411   3.83978  -5.24069 
 C                    -1.0993    3.15479  -5.29273 
 N                    -0.85601   1.99386  -5.90969 
 H                    -6.14845   1.39622  -4.51777 
 C                    -5.10285   1.59368  -4.75582 
 N                    -4.31353   0.76272  -5.39155 
 C                    -3.10343   1.43784  -5.45925 
 C                    -5.08044   3.91989  -3.68049 
 N                    -4.49398   2.77227  -4.39955 
 
 ITRead=  0  0  0  0  0  0  0  0  0  0  0  0  0  0  0  0  0  0  0  0
 ITRead=  0  0  0  0  0  0  0  0  0  0  0  0  0  0  0  0  0  0  0  0
 ITRead=  0  0  0  0  0  0  0  0  0  0  0  0  0  0  0  0  0  0  0  0
 ITRead=  0  0  0  0  0  0  0  0  0  0
 MicOpt= -1 -1 -1 -1 -1 -1 -1 -1 -1 -1 -1 -1 -1 -1 -1 -1 -1 -1 -1 -1
 MicOpt= -1 -1 -1 -1 -1 -1 -1 -1 -1 -1 -1 -1 -1 -1 -1 -1 -1 -1 -1 -1
 MicOpt= -1 -1 -1 -1 -1 -1 -1 -1 -1 -1 -1 -1 -1 -1 -1 -1 -1 -1 -1 -1
 MicOpt= -1 -1 -1 -1 -1 -1 -1 -1 -1 -1
 NAtoms=     70 NQM=       70 NQMF=       0 NMMI=      0 NMMIF=      0
                NMic=       0 NMicF=      0.
                    Isotopes and Nuclear Properties:
 (Nuclear quadrupole moments (NQMom) in fm**2, nuclear magnetic moments (NMagM)
  in nuclear magnetons)

  Atom         1           2           3           4           5           6           7           8           9          10
 IAtWgt=          14          12          12          14          12           1          14          12           1          14
 AtmWgt=  14.0030740  12.0000000  12.0000000  14.0030740  12.0000000   1.0078250  14.0030740  12.0000000   1.0078250  14.0030740
 NucSpn=           2           0           0           2           0           1           2           0           1           2
 AtZEff=  -0.0000000  -0.0000000  -0.0000000  -0.0000000  -0.0000000  -0.0000000  -0.0000000  -0.0000000  -0.0000000  -0.0000000
 NQMom=    2.0440000   0.0000000   0.0000000   2.0440000   0.0000000   0.0000000   2.0440000   0.0000000   0.0000000   2.0440000
 NMagM=    0.4037610   0.0000000   0.0000000   0.4037610   0.0000000   2.7928460   0.4037610   0.0000000   2.7928460   0.4037610
 AtZNuc=   7.0000000   6.0000000   6.0000000   7.0000000   6.0000000   1.0000000   7.0000000   6.0000000   1.0000000   7.0000000

  Atom        11          12          13          14          15          16          17          18          19          20
 IAtWgt=          12          12          14           1           1           1           1           1          14          12
 AtmWgt=  12.0000000  12.0000000  14.0030740   1.0078250   1.0078250   1.0078250   1.0078250   1.0078250  14.0030740  12.0000000
 NucSpn=           0           0           2           1           1           1           1           1           2           0
 AtZEff=  -0.0000000  -0.0000000  -0.0000000  -0.0000000  -0.0000000  -0.0000000  -0.0000000  -0.0000000  -0.0000000  -0.0000000
 NQMom=    0.0000000   0.0000000   2.0440000   0.0000000   0.0000000   0.0000000   0.0000000   0.0000000   2.0440000   0.0000000
 NMagM=    0.0000000   0.0000000   0.4037610   2.7928460   2.7928460   2.7928460   2.7928460   2.7928460   0.4037610   0.0000000
 AtZNuc=   6.0000000   6.0000000   7.0000000   1.0000000   1.0000000   1.0000000   1.0000000   1.0000000   7.0000000   6.0000000

  Atom        21          22          23          24          25          26          27          28          29          30
 IAtWgt=          12          14           1           1          14          12          14           1          12          16
 AtmWgt=  12.0000000  14.0030740   1.0078250   1.0078250  14.0030740  12.0000000  14.0030740   1.0078250  12.0000000  15.9949146
 NucSpn=           0           2           1           1           2           0           2           1           0           0
 AtZEff=  -0.0000000  -0.0000000  -0.0000000  -0.0000000  -0.0000000  -0.0000000  -0.0000000  -0.0000000  -0.0000000  -0.0000000
 NQMom=    0.0000000   2.0440000   0.0000000   0.0000000   2.0440000   0.0000000   2.0440000   0.0000000   0.0000000   0.0000000
 NMagM=    0.0000000   0.4037610   2.7928460   2.7928460   0.4037610   0.0000000   0.4037610   2.7928460   0.0000000   0.0000000
 AtZNuc=   6.0000000   7.0000000   1.0000000   1.0000000   7.0000000   6.0000000   7.0000000   1.0000000   6.0000000   8.0000000

  Atom        31          32          33          34          35          36          37          38          39          40
 IAtWgt=          12          14          12           1           1           1           1           1           1           1
 AtmWgt=  12.0000000  14.0030740  12.0000000   1.0078250   1.0078250   1.0078250   1.0078250   1.0078250   1.0078250   1.0078250
 NucSpn=           0           2           0           1           1           1           1           1           1           1
 AtZEff=  -0.0000000  -0.0000000  -0.0000000  -0.0000000  -0.0000000  -0.0000000  -0.0000000  -0.0000000  -0.0000000  -0.0000000
 NQMom=    0.0000000   2.0440000   0.0000000   0.0000000   0.0000000   0.0000000   0.0000000   0.0000000   0.0000000   0.0000000
 NMagM=    0.0000000   0.4037610   0.0000000   2.7928460   2.7928460   2.7928460   2.7928460   2.7928460   2.7928460   2.7928460
 AtZNuc=   6.0000000   7.0000000   6.0000000   1.0000000   1.0000000   1.0000000   1.0000000   1.0000000   1.0000000   1.0000000

  Atom        41          42          43          44          45          46          47          48          49          50
 IAtWgt=           1          12          16          12           1          14          16          12           1          12
 AtmWgt=   1.0078250  12.0000000  15.9949146  12.0000000   1.0078250  14.0030740  15.9949146  12.0000000   1.0078250  12.0000000
 NucSpn=           1           0           0           0           1           2           0           0           1           0
 AtZEff=  -0.0000000  -0.0000000  -0.0000000  -0.0000000  -0.0000000  -0.0000000  -0.0000000  -0.0000000  -0.0000000  -0.0000000
 NQMom=    0.0000000   0.0000000   0.0000000   0.0000000   0.0000000   2.0440000   0.0000000   0.0000000   0.0000000   0.0000000
 NMagM=    2.7928460   0.0000000   0.0000000   0.0000000   2.7928460   0.4037610   0.0000000   0.0000000   2.7928460   0.0000000
 AtZNuc=   1.0000000   6.0000000   8.0000000   6.0000000   1.0000000   7.0000000   8.0000000   6.0000000   1.0000000   6.0000000

  Atom        51          52          53          54          55          56          57          58          59          60
 IAtWgt=          12          14           1           1           1           1           1          14          12          12
 AtmWgt=  12.0000000  14.0030740   1.0078250   1.0078250   1.0078250   1.0078250   1.0078250  14.0030740  12.0000000  12.0000000
 NucSpn=           0           2           1           1           1           1           1           2           0           0
 AtZEff=  -0.0000000  -0.0000000  -0.0000000  -0.0000000  -0.0000000  -0.0000000  -0.0000000  -0.0000000  -0.0000000  -0.0000000
 NQMom=    0.0000000   2.0440000   0.0000000   0.0000000   0.0000000   0.0000000   0.0000000   2.0440000   0.0000000   0.0000000
 NMagM=    0.0000000   0.4037610   2.7928460   2.7928460   2.7928460   2.7928460   2.7928460   0.4037610   0.0000000   0.0000000
 AtZNuc=   6.0000000   7.0000000   1.0000000   1.0000000   1.0000000   1.0000000   1.0000000   7.0000000   6.0000000   6.0000000

  Atom        61          62          63          64          65          66          67          68          69          70
 IAtWgt=          14           1          12          14           1          12          14          12          12          14
 AtmWgt=  14.0030740   1.0078250  12.0000000  14.0030740   1.0078250  12.0000000  14.0030740  12.0000000  12.0000000  14.0030740
 NucSpn=           2           1           0           2           1           0           2           0           0           2
 AtZEff=  -0.0000000  -0.0000000  -0.0000000  -0.0000000  -0.0000000  -0.0000000  -0.0000000  -0.0000000  -0.0000000  -0.0000000
 NQMom=    2.0440000   0.0000000   0.0000000   2.0440000   0.0000000   0.0000000   2.0440000   0.0000000   0.0000000   2.0440000
 NMagM=    0.4037610   2.7928460   0.0000000   0.4037610   2.7928460   0.0000000   0.4037610   0.0000000   0.0000000   0.4037610
 AtZNuc=   7.0000000   1.0000000   6.0000000   7.0000000   1.0000000   6.0000000   7.0000000   6.0000000   6.0000000   7.0000000
 Leave Link  101 at Tue Jan 23 02:09:59 2018, MaxMem=  4294967296 cpu:               8.4 elap:               0.3
 (Enter /share/apps/g16/l202.exe)
 Stoichiometry    C23H27N17O3
 Framework group  C1[X(C23H27N17O3)]
 Deg. of freedom   204
 Full point group                 C1      NOp   1
 Largest Abelian subgroup         C1      NOp   1
 Largest concise Abelian subgroup C1      NOp   1
                         Standard orientation:                         
 ---------------------------------------------------------------------
 Center     Atomic      Atomic             Coordinates (Angstroms)
 Number     Number       Type             X           Y           Z
 ---------------------------------------------------------------------
      1          7           0       -6.618745   -1.410257    0.488537
      2          6           0       -7.975623   -0.857663    0.311013
      3          6           0       -4.452499   -1.613891    0.809790
      4          7           0       -4.945736   -2.902170    0.662232
      5          6           0       -6.231083   -2.727928    0.474596
      6          1           0       -6.949750   -3.533133    0.319370
      7          7           0       -3.007515    0.221837    1.133988
      8          6           0       -4.089486    0.997595    1.011110
      9          1           0       -3.906779    2.067730    1.098825
     10          7           0       -5.357312    0.651550    0.797167
     11          6           0       -5.471938   -0.683669    0.705120
     12          6           0       -3.155959   -1.117404    1.036534
     13          7           0       -2.077090   -1.893444    1.158914
     14          1           0       -2.140160   -2.889937    1.093679
     15          1           0       -1.169514   -1.505460    1.319895
     16          1           0       -8.578108   -1.213672    1.025476
     17          1           0       -7.940861    0.139437    0.371943
     18          1           0       -8.331214   -1.122955   -0.585184
     19          7           0       -2.940702    2.300330   -1.599067
     20          6           0       -1.598770    2.095326   -1.386374
     21          6           0       -3.655428    3.573460   -1.377646
     22          7           0        1.510177    3.297598   -0.411320
     23          1           0        2.442178    2.947048   -0.323458
     24          1           0        1.360839    4.255839   -0.166002
     25          7           0       -0.714765    3.015085   -0.942946
     26          6           0        0.505127    2.518472   -0.838812
     27          7           0        0.836088    1.220692   -1.145011
     28          1           0        1.794807    0.927834   -1.035154
     29          6           0       -0.057108    0.257158   -1.602889
     30          8           0        0.344427   -0.886604   -1.850505
     31          6           0       -1.371713    0.775839   -1.719844
     32          7           0       -2.547432    0.164770   -2.133566
     33          6           0       -3.448860    1.104941   -2.045683
     34          1           0       -4.503082    0.979699   -2.295092
     35          1           0       -4.374602    3.439833   -0.696672
     36          1           0       -3.010706    4.262390   -1.049032
     37          1           0       -4.062955    3.882549   -2.236243
     38          1           0        6.587495   -0.076437    0.333878
     39          1           0        6.902219    0.126417   -1.387877
     40          1           0        5.612181    1.047115   -0.613617
     41          1           0        5.048260   -4.312935   -1.348207
     42          6           0        4.711866   -3.277850   -1.287752
     43          8           0        2.445665   -3.793485   -1.762737
     44          6           0        3.329778   -2.976979   -1.504928
     45          1           0        2.043372   -1.386005   -1.552628
     46          7           0        3.010682   -1.637748   -1.405467
     47          8           0        3.489264    0.555087   -1.059634
     48          6           0        3.866434   -0.601570   -1.126966
     49          1           0        6.631474   -2.464629   -0.841047
     50          6           0        5.570622   -2.288741   -1.014237
     51          6           0        6.133719    0.101673   -0.629675
     52          7           0        5.182269   -0.971752   -0.930061
     53          1           0        3.870425    3.867561    2.577933
     54          1           0        2.750385    3.797591    1.393564
     55          1           0        4.334743    3.655764    1.027788
     56          1           0        1.325398   -3.070156    1.902344
     57          1           0        2.936740   -2.715721    2.336004
     58          7           0        2.044789   -2.386261    2.024394
     59          6           0        1.825494   -1.092182    1.782628
     60          6           0        2.424786    1.206662    1.648909
     61          7           0        1.216949    1.620422    1.231348
     62          1           0       -0.624148    0.836927    0.787382
     63          6           0        0.382174    0.588870    1.122120
     64          7           0        0.599919   -0.707961    1.363789
     65          1           0        5.522067    1.457942    2.541012
     66          6           0        4.519965    1.110017    2.288671
     67          7           0        4.129634   -0.139966    2.342113
     68          6           0        2.803016   -0.092705    1.938920
     69          6           0        3.630944    3.441853    1.705343
     70          7           0        3.539033    1.978947    1.877018
 ---------------------------------------------------------------------
 Rotational constants (GHZ):           0.1500953           0.0537137           0.0482892
 Leave Link  202 at Tue Jan 23 02:09:59 2018, MaxMem=  4294967296 cpu:               0.4 elap:               0.0
 (Enter /share/apps/g16/l301.exe)
 Standard basis: CC-pVDZ (5D, 7F)
 Ernie: Thresh=  0.10000D-02 Tol=  0.10000D-05 Strict=F.
 Ernie:  86 primitive shells out of 1081 were deleted.
 There are   780 symmetry adapted cartesian basis functions of A   symmetry.
 There are   737 symmetry adapted basis functions of A   symmetry.
   737 basis functions,  1608 primitive gaussians,   780 cartesian basis functions
   154 alpha electrons      154 beta electrons
       nuclear repulsion energy      5544.0700417671 Hartrees.
 IExCor= 4639 DFT=T Ex+Corr=wB97XD ExCW=0 ScaHFX=  1.000000
 ScaDFX=  1.000000  1.000000  1.000000  1.000000 ScalE2=  1.000000  1.000000
 IRadAn=      5 IRanWt=     -1 IRanGd=            0 ICorTp=0 IEmpDi=121
 HFx  wShort=  0.000000 wLong=  0.200000 cFull=  0.222036 cShort=  0.000000 cLong=  0.777964
 DFx  wShort=  0.000000 wLong=  0.200000 cFull=  0.000000 cShort=  0.000000 cLong=  1.000000
 NAtoms=   70 NActive=   70 NUniq=   70 SFac= 1.00D+00 NAtFMM=   60 NAOKFM=T Big=T
 Integral buffers will be    131072 words long.
 Raffenetti 2 integral format.
 Two-electron integral symmetry is turned on.
 R6Disp:  Grimme-D2 Dispersion energy=       -0.0738583056 Hartrees.
 Nuclear repulsion after empirical dispersion term =     5543.9961834615 Hartrees.
 Leave Link  301 at Tue Jan 23 02:10:00 2018, MaxMem=  4294967296 cpu:               3.0 elap:               0.1
 (Enter /share/apps/g16/l302.exe)
 NPDir=0 NMtPBC=     1 NCelOv=     1 NCel=       1 NClECP=     1 NCelD=      1
         NCelK=      1 NCelE2=     1 NClLst=     1 CellRange=     0.0.
 One-electron integrals computed using PRISM.
 One-electron integral symmetry used in STVInt
 NBasis=   737 RedAO= T EigKep=  6.87D-04  NBF=   737
 NBsUse=   737 1.00D-06 EigRej= -1.00D+00 NBFU=   737
 Precomputing XC quadrature grid using
 IXCGrd= 4 IRadAn=           5 IRanWt=          -1 IRanGd=           0 AccXCQ= 0.00D+00.
 Generated NRdTot=       0 NPtTot=           0 NUsed=           0 NTot=          32
 NSgBfM=   767   766   766   767   767 MxSgAt=    70 MxSgA2=    70.
 Leave Link  302 at Tue Jan 23 02:10:05 2018, MaxMem=  4294967296 cpu:             176.4 elap:               5.6
 (Enter /share/apps/g16/l303.exe)
 DipDrv:  MaxL=1.
 Leave Link  303 at Tue Jan 23 02:10:06 2018, MaxMem=  4294967296 cpu:              12.5 elap:               0.4
 (Enter /share/apps/g16/l401.exe)
 ExpMin= 1.22D-01 ExpMax= 1.17D+04 ExpMxC= 4.01D+02 IAcc=3 IRadAn=         5 AccDes= 0.00D+00
 Harris functional with IExCor= 4639 and IRadAn=       5 diagonalized for initial guess.
 HarFok:  IExCor= 4639 AccDes= 0.00D+00 IRadAn=         5 IDoV= 1 UseB2=F ITyADJ=14
 ICtDFT=  3500011 ScaDFX=  1.000000  1.000000  1.000000  1.000000
 FoFCou: FMM=F IPFlag=           0 FMFlag=      100000 FMFlg1=        2001
         NFxFlg=           0 DoJE=T BraDBF=F KetDBF=T FulRan=T
         wScrn=  0.000000 ICntrl=       500 IOpCl=  0 I1Cent=   200000004 NGrid=           0
         NMat0=    1 NMatS0=      1 NMatT0=    0 NMatD0=    1 NMtDS0=    0 NMtDT0=    0
 Petite list used in FoFCou.
 Harris En= -1963.80987011568    
 JPrj=0 DoOrth=F DoCkMO=F.
 Leave Link  401 at Tue Jan 23 02:10:18 2018, MaxMem=  4294967296 cpu:             405.0 elap:              12.7
 (Enter /share/apps/g16/l502.exe)
 Integral symmetry usage will be decided dynamically.
 Closed shell SCF:
 Using DIIS extrapolation, IDIIS=  1040.
 NGot=  4294967296 LenX=  4293717438 LenY=  4293108258
 Requested convergence on RMS density matrix=1.00D-08 within  20 cycles.
 Requested convergence on MAX density matrix=1.00D-06.
 Requested convergence on             energy=1.00D-06.
 No special actions if energy rises.
 Fock matrices will be formed incrementally for  20 cycles.
 Integral accuracy reduced to 1.0D-05 until final iterations.

 Cycle   1  Pass 0  IDiag  1:
 FoFJK:  IHMeth= 1 ICntrl=       0 DoSepK=T KAlg= 0 I1Cent=           0 FoldK=F
 IRaf=         1 NMat=       1 IRICut=       1 DoRegI=T DoRafI=F ISym2E= 0 IDoP0=0 IntGTp=1.
 FoFCou: FMM=T IPFlag=           0 FMFlag=      100000 FMFlg1=        2001
         NFxFlg=           0 DoJE=T BraDBF=F KetDBF=F FulRan=T
         wScrn=  0.000000 ICntrl=       500 IOpCl=  0 I1Cent=           0 NGrid=           0
         NMat0=    1 NMatS0=      1 NMatT0=    0 NMatD0=    1 NMtDS0=    0 NMtDT0=    0
 Symmetry not used in FoFCou.
 FMM levels:  10  Number of levels for PrismC:   9
 E= -2048.25925202466    
 DIIS: error= 2.54D-02 at cycle   1 NSaved=   1.
 NSaved= 1 IEnMin= 1 EnMin= -2048.25925202466     IErMin= 1 ErrMin= 2.54D-02
 ErrMax= 2.54D-02  0.00D+00 EMaxC= 1.00D-01 BMatC= 8.29D-01 BMatP= 8.29D-01
 IDIUse=3 WtCom= 7.46D-01 WtEn= 2.54D-01
 Coeff-Com:  0.100D+01
 Coeff-En:   0.100D+01
 Coeff:      0.100D+01
 Gap=     0.270 Goal=   None    Shift=    0.000
 GapD=    0.270 DampG=1.000 DampE=0.500 DampFc=0.5000 IDamp=-1.
 Damping current iteration by 5.00D-01
 RMSDP=1.58D-03 MaxDP=1.30D-01              OVMax= 2.04D-01

 Cycle   2  Pass 0  IDiag  1:
 RMSU=  7.87D-04    CP:  9.97D-01
 E= -2048.45595948649     Delta-E=       -0.196707461822 Rises=F Damp=T
 DIIS: error= 1.41D-02 at cycle   2 NSaved=   2.
 NSaved= 2 IEnMin= 2 EnMin= -2048.45595948649     IErMin= 2 ErrMin= 1.41D-02
 ErrMax= 1.41D-02  0.00D+00 EMaxC= 1.00D-01 BMatC= 1.45D-01 BMatP= 8.29D-01
 IDIUse=3 WtCom= 8.59D-01 WtEn= 1.41D-01
 Coeff-Com: -0.200D+00 0.120D+01
 Coeff-En:   0.000D+00 0.100D+01
 Coeff:     -0.171D+00 0.117D+01
 Gap=     0.360 Goal=   None    Shift=    0.000
 RMSDP=5.88D-04 MaxDP=3.33D-02 DE=-1.97D-01 OVMax= 1.46D-01

 Cycle   3  Pass 0  IDiag  1:
 RMSU=  5.76D-04    CP:  9.94D-01  1.14D+00
 E= -2048.63671126656     Delta-E=       -0.180751780069 Rises=F Damp=F
 DIIS: error= 7.11D-03 at cycle   3 NSaved=   3.
 NSaved= 3 IEnMin= 3 EnMin= -2048.63671126656     IErMin= 3 ErrMin= 7.11D-03
 ErrMax= 7.11D-03  0.00D+00 EMaxC= 1.00D-01 BMatC= 6.01D-02 BMatP= 1.45D-01
 IDIUse=3 WtCom= 9.29D-01 WtEn= 7.11D-02
 Coeff-Com: -0.230D+00 0.542D+00 0.688D+00
 Coeff-En:   0.000D+00 0.000D+00 0.100D+01
 Coeff:     -0.213D+00 0.503D+00 0.710D+00
 Gap=     0.280 Goal=   None    Shift=    0.000
 RMSDP=3.51D-04 MaxDP=3.35D-02 DE=-1.81D-01 OVMax= 7.48D-02

 Cycle   4  Pass 0  IDiag  1:
 RMSU=  2.02D-04    CP:  9.94D-01  1.42D+00  6.82D-01
 E= -2048.68227836763     Delta-E=       -0.045567101078 Rises=F Damp=F
 DIIS: error= 2.60D-03 at cycle   4 NSaved=   4.
 NSaved= 4 IEnMin= 4 EnMin= -2048.68227836763     IErMin= 4 ErrMin= 2.60D-03
 ErrMax= 2.60D-03  0.00D+00 EMaxC= 1.00D-01 BMatC= 8.74D-03 BMatP= 6.01D-02
 IDIUse=3 WtCom= 9.74D-01 WtEn= 2.60D-02
 Coeff-Com: -0.960D-01 0.186D+00 0.381D+00 0.529D+00
 Coeff-En:   0.000D+00 0.000D+00 0.621D-01 0.938D+00
 Coeff:     -0.935D-01 0.181D+00 0.372D+00 0.540D+00
 Gap=     0.284 Goal=   None    Shift=    0.000
 RMSDP=1.27D-04 MaxDP=1.21D-02 DE=-4.56D-02 OVMax= 1.36D-02

 Cycle   5  Pass 0  IDiag  1:
 RMSU=  6.21D-05    CP:  9.93D-01  1.39D+00  8.12D-01  6.14D-01
 E= -2048.68952028245     Delta-E=       -0.007241914814 Rises=F Damp=F
 DIIS: error= 5.70D-04 at cycle   5 NSaved=   5.
 NSaved= 5 IEnMin= 5 EnMin= -2048.68952028245     IErMin= 5 ErrMin= 5.70D-04
 ErrMax= 5.70D-04  0.00D+00 EMaxC= 1.00D-01 BMatC= 2.81D-04 BMatP= 8.74D-03
 IDIUse=3 WtCom= 9.94D-01 WtEn= 5.70D-03
 Coeff-Com: -0.240D-01 0.410D-01 0.119D+00 0.235D+00 0.629D+00
 Coeff-En:   0.000D+00 0.000D+00 0.000D+00 0.000D+00 0.100D+01
 Coeff:     -0.238D-01 0.407D-01 0.118D+00 0.234D+00 0.631D+00
 Gap=     0.284 Goal=   None    Shift=    0.000
 RMSDP=2.61D-05 MaxDP=1.92D-03 DE=-7.24D-03 OVMax= 3.23D-03

 Failed to achieve initial convergence to 1.0D-08 in  6 cycles.
 Switch to full accuracy anyway.
 Cycle   6  Pass 1  IDiag  1:
 E= -2048.68969729737     Delta-E=       -0.000177014920 Rises=F Damp=F
 DIIS: error= 2.30D-04 at cycle   1 NSaved=   1.
 NSaved= 1 IEnMin= 1 EnMin= -2048.68969729737     IErMin= 1 ErrMin= 2.30D-04
 ErrMax= 2.30D-04  0.00D+00 EMaxC= 1.00D-01 BMatC= 7.94D-05 BMatP= 7.94D-05
 IDIUse=3 WtCom= 9.98D-01 WtEn= 2.30D-03
 Coeff-Com:  0.100D+01
 Coeff-En:   0.100D+01
 Coeff:      0.100D+01
 Gap=     0.284 Goal=   None    Shift=    0.000
 RMSDP=2.61D-05 MaxDP=1.92D-03 DE=-1.77D-04 OVMax= 2.69D-03

 Cycle   7  Pass 1  IDiag  1:
 RMSU=  1.19D-04    CP:  1.00D+00
 E= -2048.68975591553     Delta-E=       -0.000058618162 Rises=F Damp=F
 DIIS: error= 2.42D-04 at cycle   2 NSaved=   2.
 NSaved= 2 IEnMin= 2 EnMin= -2048.68975591553     IErMin= 1 ErrMin= 2.30D-04
 ErrMax= 2.42D-04  0.00D+00 EMaxC= 1.00D-01 BMatC= 4.19D-05 BMatP= 7.94D-05
 IDIUse=3 WtCom= 9.98D-01 WtEn= 2.42D-03
 Coeff-Com:  0.392D+00 0.608D+00
 Coeff-En:   0.000D+00 0.100D+01
 Coeff:      0.391D+00 0.609D+00
 Gap=     0.284 Goal=   None    Shift=    0.000
 RMSDP=1.17D-05 MaxDP=1.12D-03 DE=-5.86D-05 OVMax= 1.51D-03

 Cycle   8  Pass 1  IDiag  1:
 RMSU=  1.13D-05    CP:  1.00D+00  1.03D+00
 E= -2048.68978536812     Delta-E=       -0.000029452592 Rises=F Damp=F
 DIIS: error= 1.15D-04 at cycle   3 NSaved=   3.
 NSaved= 3 IEnMin= 3 EnMin= -2048.68978536812     IErMin= 3 ErrMin= 1.15D-04
 ErrMax= 1.15D-04  0.00D+00 EMaxC= 1.00D-01 BMatC= 1.12D-05 BMatP= 4.19D-05
 IDIUse=3 WtCom= 9.99D-01 WtEn= 1.15D-03
 Coeff-Com: -0.193D-01 0.329D+00 0.690D+00
 Coeff-En:   0.000D+00 0.160D+00 0.840D+00
 Coeff:     -0.193D-01 0.329D+00 0.691D+00
 Gap=     0.284 Goal=   None    Shift=    0.000
 RMSDP=5.74D-06 MaxDP=4.69D-04 DE=-2.95D-05 OVMax= 5.57D-04

 Cycle   9  Pass 1  IDiag  1:
 RMSU=  3.82D-06    CP:  1.00D+00  1.05D+00  7.46D-01
 E= -2048.68979560983     Delta-E=       -0.000010241708 Rises=F Damp=F
 DIIS: error= 3.51D-05 at cycle   4 NSaved=   4.
 NSaved= 4 IEnMin= 4 EnMin= -2048.68979560983     IErMin= 4 ErrMin= 3.51D-05
 ErrMax= 3.51D-05  0.00D+00 EMaxC= 1.00D-01 BMatC= 5.02D-07 BMatP= 1.12D-05
 IDIUse=1 WtCom= 1.00D+00 WtEn= 0.00D+00
 Coeff-Com: -0.283D-01 0.926D-01 0.256D+00 0.680D+00
 Coeff:     -0.283D-01 0.926D-01 0.256D+00 0.680D+00
 Gap=     0.284 Goal=   None    Shift=    0.000
 RMSDP=1.42D-06 MaxDP=1.36D-04 DE=-1.02D-05 OVMax= 5.04D-04

 Cycle  10  Pass 1  IDiag  1:
 RMSU=  1.27D-06    CP:  1.00D+00  1.06D+00  7.79D-01  1.09D+00
 E= -2048.68979642912     Delta-E=       -0.000000819288 Rises=F Damp=F
 DIIS: error= 1.58D-05 at cycle   5 NSaved=   5.
 NSaved= 5 IEnMin= 5 EnMin= -2048.68979642912     IErMin= 5 ErrMin= 1.58D-05
 ErrMax= 1.58D-05  0.00D+00 EMaxC= 1.00D-01 BMatC= 1.18D-07 BMatP= 5.02D-07
 IDIUse=1 WtCom= 1.00D+00 WtEn= 0.00D+00
 Coeff-Com: -0.203D-02-0.615D-01-0.123D+00 0.199D+00 0.988D+00
 Coeff:     -0.203D-02-0.615D-01-0.123D+00 0.199D+00 0.988D+00
 Gap=     0.284 Goal=   None    Shift=    0.000
 RMSDP=1.21D-06 MaxDP=7.54D-05 DE=-8.19D-07 OVMax= 2.47D-04

 Cycle  11  Pass 1  IDiag  1:
 RMSU=  5.01D-07    CP:  1.00D+00  1.06D+00  7.89D-01  1.37D+00  1.18D+00
 E= -2048.68979668617     Delta-E=       -0.000000257055 Rises=F Damp=F
 DIIS: error= 9.46D-06 at cycle   6 NSaved=   6.
 NSaved= 6 IEnMin= 6 EnMin= -2048.68979668617     IErMin= 6 ErrMin= 9.46D-06
 ErrMax= 9.46D-06  0.00D+00 EMaxC= 1.00D-01 BMatC= 2.75D-08 BMatP= 1.18D-07
 IDIUse=1 WtCom= 1.00D+00 WtEn= 0.00D+00
 Coeff-Com:  0.445D-02-0.487D-01-0.112D+00 0.582D-03 0.525D+00 0.631D+00
 Coeff:      0.445D-02-0.487D-01-0.112D+00 0.582D-03 0.525D+00 0.631D+00
 Gap=     0.284 Goal=   None    Shift=    0.000
 RMSDP=3.54D-07 MaxDP=3.68D-05 DE=-2.57D-07 OVMax= 1.28D-04

 Cycle  12  Pass 1  IDiag  1:
 RMSU=  1.81D-07    CP:  1.00D+00  1.06D+00  7.91D-01  1.44D+00  1.30D+00
                    CP:  9.38D-01
 E= -2048.68979672561     Delta-E=       -0.000000039433 Rises=F Damp=F
 DIIS: error= 1.13D-06 at cycle   7 NSaved=   7.
 NSaved= 7 IEnMin= 7 EnMin= -2048.68979672561     IErMin= 7 ErrMin= 1.13D-06
 ErrMax= 1.13D-06  0.00D+00 EMaxC= 1.00D-01 BMatC= 7.09D-10 BMatP= 2.75D-08
 IDIUse=1 WtCom= 1.00D+00 WtEn= 0.00D+00
 Coeff-Com:  0.875D-03-0.615D-02-0.154D-01-0.763D-02 0.371D-01 0.116D+00
 Coeff-Com:  0.875D+00
 Coeff:      0.875D-03-0.615D-02-0.154D-01-0.763D-02 0.371D-01 0.116D+00
 Coeff:      0.875D+00
 Gap=     0.284 Goal=   None    Shift=    0.000
 RMSDP=8.63D-08 MaxDP=5.25D-06 DE=-3.94D-08 OVMax= 2.33D-05

 Cycle  13  Pass 1  IDiag  1:
 RMSU=  4.89D-08    CP:  1.00D+00  1.06D+00  7.90D-01  1.45D+00  1.32D+00
                    CP:  1.03D+00  1.15D+00
 E= -2048.68979672715     Delta-E=       -0.000000001544 Rises=F Damp=F
 DIIS: error= 5.31D-07 at cycle   8 NSaved=   8.
 NSaved= 8 IEnMin= 8 EnMin= -2048.68979672715     IErMin= 8 ErrMin= 5.31D-07
 ErrMax= 5.31D-07  0.00D+00 EMaxC= 1.00D-01 BMatC= 2.92D-10 BMatP= 7.09D-10
 IDIUse=1 WtCom= 1.00D+00 WtEn= 0.00D+00
 Coeff-Com: -0.660D-03 0.897D-02 0.199D-01-0.218D-02-0.110D+00-0.928D-01
 Coeff-Com:  0.436D+00 0.740D+00
 Coeff:     -0.660D-03 0.897D-02 0.199D-01-0.218D-02-0.110D+00-0.928D-01
 Coeff:      0.436D+00 0.740D+00
 Gap=     0.284 Goal=   None    Shift=    0.000
 RMSDP=4.23D-08 MaxDP=2.36D-06 DE=-1.54D-09 OVMax= 1.00D-05

 Cycle  14  Pass 1  IDiag  1:
 RMSU=  2.63D-08    CP:  1.00D+00  1.06D+00  7.90D-01  1.45D+00  1.32D+00
                    CP:  1.07D+00  1.28D+00  1.09D+00
 E= -2048.68979672753     Delta-E=       -0.000000000386 Rises=F Damp=F
 DIIS: error= 1.85D-07 at cycle   9 NSaved=   9.
 NSaved= 9 IEnMin= 9 EnMin= -2048.68979672753     IErMin= 9 ErrMin= 1.85D-07
 ErrMax= 1.85D-07  0.00D+00 EMaxC= 1.00D-01 BMatC= 2.64D-11 BMatP= 2.92D-10
 IDIUse=1 WtCom= 1.00D+00 WtEn= 0.00D+00
 Coeff-Com: -0.367D-03 0.436D-02 0.987D-02 0.189D-03-0.484D-01-0.509D-01
 Coeff-Com:  0.765D-01 0.278D+00 0.731D+00
 Coeff:     -0.367D-03 0.436D-02 0.987D-02 0.189D-03-0.484D-01-0.509D-01
 Coeff:      0.765D-01 0.278D+00 0.731D+00
 Gap=     0.284 Goal=   None    Shift=    0.000
 RMSDP=1.33D-08 MaxDP=7.92D-07 DE=-3.86D-10 OVMax= 3.45D-06

 Cycle  15  Pass 1  IDiag  1:
 RMSU=  8.63D-09    CP:  1.00D+00  1.06D+00  7.90D-01  1.45D+00  1.33D+00
                    CP:  1.08D+00  1.31D+00  1.24D+00  1.12D+00
 E= -2048.68979672778     Delta-E=       -0.000000000246 Rises=F Damp=F
 DIIS: error= 8.13D-08 at cycle  10 NSaved=  10.
 NSaved=10 IEnMin=10 EnMin= -2048.68979672778     IErMin=10 ErrMin= 8.13D-08
 ErrMax= 8.13D-08  0.00D+00 EMaxC= 1.00D-01 BMatC= 5.60D-12 BMatP= 2.64D-11
 IDIUse=1 WtCom= 1.00D+00 WtEn= 0.00D+00
 Coeff-Com:  0.141D-04-0.437D-03-0.888D-03 0.235D-03 0.670D-02 0.212D-02
 Coeff-Com: -0.632D-01-0.666D-01 0.301D+00 0.822D+00
 Coeff:      0.141D-04-0.437D-03-0.888D-03 0.235D-03 0.670D-02 0.212D-02
 Coeff:     -0.632D-01-0.666D-01 0.301D+00 0.822D+00
 Gap=     0.284 Goal=   None    Shift=    0.000
 RMSDP=6.82D-09 MaxDP=3.79D-07 DE=-2.46D-10 OVMax= 1.38D-06

 SCF Done:  E(RwB97XD) =  -2048.68979673     A.U. after   15 cycles
            NFock= 15  Conv=0.68D-08     -V/T= 2.0052
 KE= 2.038077604805D+03 PE=-1.586883867054D+04 EE= 6.238075085547D+03
 Leave Link  502 at Tue Jan 23 02:22:04 2018, MaxMem=  4294967296 cpu:           21886.8 elap:             705.6
 (Enter /share/apps/g16/l601.exe)
 Copying SCF densities to generalized density rwf, IOpCl= 0 IROHF=0.

 **********************************************************************

            Population analysis using the SCF density.

 **********************************************************************

 Orbital symmetries:
       Occupied  (A) (A) (A) (A) (A) (A) (A) (A) (A) (A) (A) (A)
                 (A) (A) (A) (A) (A) (A) (A) (A) (A) (A) (A) (A)
                 (A) (A) (A) (A) (A) (A) (A) (A) (A) (A) (A) (A)
                 (A) (A) (A) (A) (A) (A) (A) (A) (A) (A) (A) (A)
                 (A) (A) (A) (A) (A) (A) (A) (A) (A) (A) (A) (A)
                 (A) (A) (A) (A) (A) (A) (A) (A) (A) (A) (A) (A)
                 (A) (A) (A) (A) (A) (A) (A) (A) (A) (A) (A) (A)
                 (A) (A) (A) (A) (A) (A) (A) (A) (A) (A) (A) (A)
                 (A) (A) (A) (A) (A) (A) (A) (A) (A) (A) (A) (A)
                 (A) (A) (A) (A) (A) (A) (A) (A) (A) (A) (A) (A)
                 (A) (A) (A) (A) (A) (A) (A) (A) (A) (A) (A) (A)
                 (A) (A) (A) (A) (A) (A) (A) (A) (A) (A) (A) (A)
                 (A) (A) (A) (A) (A) (A) (A) (A) (A) (A)
       Virtual   (A) (A) (A) (A) (A) (A) (A) (A) (A) (A) (A) (A)
                 (A) (A) (A) (A) (A) (A) (A) (A) (A) (A) (A) (A)
                 (A) (A) (A) (A) (A) (A) (A) (A) (A) (A) (A) (A)
                 (A) (A) (A) (A) (A) (A) (A) (A) (A) (A) (A) (A)
                 (A) (A) (A) (A) (A) (A) (A) (A) (A) (A) (A) (A)
                 (A) (A) (A) (A) (A) (A) (A) (A) (A) (A) (A) (A)
                 (A) (A) (A) (A) (A) (A) (A) (A) (A) (A) (A) (A)
                 (A) (A) (A) (A) (A) (A) (A) (A) (A) (A) (A) (A)
                 (A) (A) (A) (A) (A) (A) (A) (A) (A) (A) (A) (A)
                 (A) (A) (A) (A) (A) (A) (A) (A) (A) (A) (A) (A)
                 (A) (A) (A) (A) (A) (A) (A) (A) (A) (A) (A) (A)
                 (A) (A) (A) (A) (A) (A) (A) (A) (A) (A) (A) (A)
                 (A) (A) (A) (A) (A) (A) (A) (A) (A) (A) (A) (A)
                 (A) (A) (A) (A) (A) (A) (A) (A) (A) (A) (A) (A)
                 (A) (A) (A) (A) (A) (A) (A) (A) (A) (A) (A) (A)
                 (A) (A) (A) (A) (A) (A) (A) (A) (A) (A) (A) (A)
                 (A) (A) (A) (A) (A) (A) (A) (A) (A) (A) (A) (A)
                 (A) (A) (A) (A) (A) (A) (A) (A) (A) (A) (A) (A)
                 (A) (A) (A) (A) (A) (A) (A) (A) (A) (A) (A) (A)
                 (A) (A) (A) (A) (A) (A) (A) (A) (A) (A) (A) (A)
                 (A) (A) (A) (A) (A) (A) (A) (A) (A) (A) (A) (A)
                 (A) (A) (A) (A) (A) (A) (A) (A) (A) (A) (A) (A)
                 (A) (A) (A) (A) (A) (A) (A) (A) (A) (A) (A) (A)
                 (A) (A) (A) (A) (A) (A) (A) (A) (A) (A) (A) (A)
                 (A) (A) (A) (A) (A) (A) (A) (A) (A) (A) (A) (A)
                 (A) (A) (A) (A) (A) (A) (A) (A) (A) (A) (A) (A)
                 (A) (A) (A) (A) (A) (A) (A) (A) (A) (A) (A) (A)
                 (A) (A) (A) (A) (A) (A) (A) (A) (A) (A) (A) (A)
                 (A) (A) (A) (A) (A) (A) (A) (A) (A) (A) (A) (A)
                 (A) (A) (A) (A) (A) (A) (A) (A) (A) (A) (A) (A)
                 (A) (A) (A) (A) (A) (A) (A) (A) (A) (A) (A) (A)
                 (A) (A) (A) (A) (A) (A) (A) (A) (A) (A) (A) (A)
                 (A) (A) (A) (A) (A) (A) (A) (A) (A) (A) (A) (A)
                 (A) (A) (A) (A) (A) (A) (A) (A) (A) (A) (A) (A)
                 (A) (A) (A) (A) (A) (A) (A) (A) (A) (A) (A) (A)
                 (A) (A) (A) (A) (A) (A) (A) (A) (A) (A) (A) (A)
                 (A) (A) (A) (A) (A) (A) (A) (A) (A) (A) (A) (A)
                 (A) (A) (A) (A) (A) (A) (A) (A) (A) (A) (A) (A)
                 (A) (A) (A) (A) (A) (A) (A) (A) (A) (A) (A) (A)
                 (A) (A) (A) (A) (A) (A) (A) (A) (A) (A) (A) (A)
                 (A) (A) (A) (A) (A) (A) (A) (A) (A) (A) (A) (A)
                 (A) (A) (A) (A) (A) (A) (A) (A) (A) (A) (A) (A)
                 (A) (A) (A) (A) (A) (A) (A) (A) (A) (A) (A) (A)
                 (A) (A) (A) (A) (A) (A) (A) (A) (A) (A) (A) (A)
                 (A) (A) (A) (A) (A) (A) (A) (A) (A) (A) (A) (A)
                 (A) (A) (A) (A) (A) (A) (A) (A) (A) (A) (A) (A)
                 (A) (A) (A) (A) (A) (A) (A) (A) (A) (A) (A) (A)
                 (A) (A) (A) (A) (A) (A) (A) (A) (A) (A) (A) (A)
                 (A) (A) (A) (A) (A) (A) (A)
 The electronic state is 1-A.
 Alpha  occ. eigenvalues --  -19.25919 -19.21930 -19.20593 -14.52403 -14.51986
 Alpha  occ. eigenvalues --  -14.49255 -14.48608 -14.47894 -14.47370 -14.46462
 Alpha  occ. eigenvalues --  -14.45797 -14.44943 -14.43456 -14.42752 -14.42225
 Alpha  occ. eigenvalues --  -14.42144 -14.41907 -14.41524 -14.40658 -14.40630
 Alpha  occ. eigenvalues --  -10.45514 -10.40898 -10.40061 -10.39101 -10.38104
 Alpha  occ. eigenvalues --  -10.37736 -10.37515 -10.36449 -10.35945 -10.35309
 Alpha  occ. eigenvalues --  -10.35010 -10.34562 -10.34262 -10.34164 -10.33891
 Alpha  occ. eigenvalues --  -10.33668 -10.33100 -10.31753 -10.31391 -10.31040
 Alpha  occ. eigenvalues --  -10.30645 -10.29047 -10.28037  -1.19499  -1.14726
 Alpha  occ. eigenvalues --   -1.13323  -1.12970  -1.11845  -1.10509  -1.09297
 Alpha  occ. eigenvalues --   -1.08872  -1.08233  -1.05505  -1.04018  -1.02491
 Alpha  occ. eigenvalues --   -1.00987  -1.00688  -0.99622  -0.98559  -0.97456
 Alpha  occ. eigenvalues --   -0.96513  -0.95991  -0.93170  -0.91005  -0.87228
 Alpha  occ. eigenvalues --   -0.85837  -0.84443  -0.83989  -0.83669  -0.82794
 Alpha  occ. eigenvalues --   -0.82369  -0.78839  -0.76522  -0.74736  -0.74303
 Alpha  occ. eigenvalues --   -0.73562  -0.73407  -0.73355  -0.71615  -0.69981
 Alpha  occ. eigenvalues --   -0.67376  -0.66827  -0.66569  -0.66313  -0.64432
 Alpha  occ. eigenvalues --   -0.63890  -0.63700  -0.63227  -0.62853  -0.61827
 Alpha  occ. eigenvalues --   -0.60775  -0.60440  -0.60039  -0.59494  -0.59315
 Alpha  occ. eigenvalues --   -0.59123  -0.58044  -0.57397  -0.56889  -0.56735
 Alpha  occ. eigenvalues --   -0.56012  -0.55856  -0.55610  -0.54900  -0.54323
 Alpha  occ. eigenvalues --   -0.53976  -0.53557  -0.53082  -0.52845  -0.52593
 Alpha  occ. eigenvalues --   -0.52448  -0.52218  -0.52037  -0.51277  -0.50658
 Alpha  occ. eigenvalues --   -0.50045  -0.49643  -0.49408  -0.49056  -0.48676
 Alpha  occ. eigenvalues --   -0.48544  -0.48301  -0.48146  -0.47906  -0.47421
 Alpha  occ. eigenvalues --   -0.47346  -0.46015  -0.45389  -0.43892  -0.43199
 Alpha  occ. eigenvalues --   -0.41720  -0.40398  -0.39516  -0.37748  -0.37614
 Alpha  occ. eigenvalues --   -0.37251  -0.37193  -0.36377  -0.35865  -0.34430
 Alpha  occ. eigenvalues --   -0.34227  -0.33965  -0.33795  -0.33122  -0.32623
 Alpha  occ. eigenvalues --   -0.32356  -0.31899  -0.31780  -0.31408  -0.31287
 Alpha  occ. eigenvalues --   -0.30806  -0.28405  -0.26301  -0.25269
 Alpha virt. eigenvalues --    0.03140   0.04544   0.07390   0.07565   0.08857
 Alpha virt. eigenvalues --    0.09122   0.09538   0.10456   0.11216   0.11681
 Alpha virt. eigenvalues --    0.12983   0.13764   0.14228   0.14574   0.14686
 Alpha virt. eigenvalues --    0.15762   0.16103   0.16827   0.16992   0.18037
 Alpha virt. eigenvalues --    0.18853   0.19276   0.19460   0.19908   0.20332
 Alpha virt. eigenvalues --    0.20619   0.21091   0.21574   0.22009   0.22075
 Alpha virt. eigenvalues --    0.23226   0.23440   0.23649   0.23725   0.24029
 Alpha virt. eigenvalues --    0.24148   0.24230   0.24926   0.25451   0.26022
 Alpha virt. eigenvalues --    0.26386   0.26690   0.27270   0.27680   0.28264
 Alpha virt. eigenvalues --    0.28528   0.29457   0.29581   0.30548   0.30953
 Alpha virt. eigenvalues --    0.31181   0.32293   0.32790   0.33434   0.33867
 Alpha virt. eigenvalues --    0.33911   0.34716   0.34989   0.35939   0.36326
 Alpha virt. eigenvalues --    0.36858   0.37666   0.38025   0.39637   0.39683
 Alpha virt. eigenvalues --    0.40359   0.40557   0.41346   0.41412   0.41773
 Alpha virt. eigenvalues --    0.42390   0.42504   0.43496   0.44164   0.44705
 Alpha virt. eigenvalues --    0.44969   0.45264   0.46002   0.46527   0.47632
 Alpha virt. eigenvalues --    0.47932   0.48467   0.48787   0.49316   0.49506
 Alpha virt. eigenvalues --    0.49916   0.50627   0.50693   0.51304   0.51477
 Alpha virt. eigenvalues --    0.51907   0.52250   0.52933   0.53148   0.54003
 Alpha virt. eigenvalues --    0.54141   0.55007   0.55269   0.55377   0.55848
 Alpha virt. eigenvalues --    0.56179   0.57098   0.57413   0.57705   0.57784
 Alpha virt. eigenvalues --    0.58040   0.58316   0.59176   0.59510   0.59708
 Alpha virt. eigenvalues --    0.60320   0.60409   0.60706   0.61372   0.61544
 Alpha virt. eigenvalues --    0.61964   0.62984   0.63190   0.63455   0.63842
 Alpha virt. eigenvalues --    0.64045   0.64593   0.64905   0.65145   0.65608
 Alpha virt. eigenvalues --    0.66033   0.66519   0.66631   0.67706   0.67734
 Alpha virt. eigenvalues --    0.68135   0.68941   0.69151   0.69297   0.69937
 Alpha virt. eigenvalues --    0.70311   0.70745   0.71185   0.71430   0.71846
 Alpha virt. eigenvalues --    0.72608   0.73076   0.73424   0.73541   0.74269
 Alpha virt. eigenvalues --    0.74554   0.74842   0.75070   0.75558   0.75954
 Alpha virt. eigenvalues --    0.76123   0.76412   0.76793   0.76896   0.76951
 Alpha virt. eigenvalues --    0.77404   0.77516   0.77921   0.78635   0.78703
 Alpha virt. eigenvalues --    0.79150   0.79561   0.80105   0.80526   0.80837
 Alpha virt. eigenvalues --    0.81539   0.81870   0.82579   0.83194   0.83394
 Alpha virt. eigenvalues --    0.83866   0.84162   0.84454   0.85201   0.85574
 Alpha virt. eigenvalues --    0.85961   0.86691   0.86917   0.87452   0.87809
 Alpha virt. eigenvalues --    0.88220   0.88858   0.89070   0.89345   0.90274
 Alpha virt. eigenvalues --    0.90494   0.90685   0.91231   0.91361   0.92256
 Alpha virt. eigenvalues --    0.92633   0.92932   0.93346   0.93810   0.94789
 Alpha virt. eigenvalues --    0.95449   0.95745   0.95922   0.96424   0.96691
 Alpha virt. eigenvalues --    0.97187   0.97624   0.97846   0.98302   0.98774
 Alpha virt. eigenvalues --    0.99980   1.00411   1.00572   1.01031   1.01236
 Alpha virt. eigenvalues --    1.02225   1.02400   1.03225   1.03446   1.03913
 Alpha virt. eigenvalues --    1.04342   1.04616   1.05439   1.05638   1.06493
 Alpha virt. eigenvalues --    1.06504   1.07737   1.08078   1.08568   1.09497
 Alpha virt. eigenvalues --    1.09818   1.10305   1.10590   1.11618   1.12053
 Alpha virt. eigenvalues --    1.12375   1.12979   1.13061   1.13193   1.13839
 Alpha virt. eigenvalues --    1.14425   1.14963   1.15546   1.15901   1.16275
 Alpha virt. eigenvalues --    1.16812   1.17472   1.17719   1.18144   1.18723
 Alpha virt. eigenvalues --    1.19256   1.19413   1.19705   1.19931   1.20371
 Alpha virt. eigenvalues --    1.20655   1.21070   1.21324   1.21975   1.22263
 Alpha virt. eigenvalues --    1.22534   1.22968   1.23503   1.23807   1.24031
 Alpha virt. eigenvalues --    1.24424   1.25235   1.25812   1.26295   1.27190
 Alpha virt. eigenvalues --    1.27573   1.28441   1.28819   1.29315   1.29556
 Alpha virt. eigenvalues --    1.29610   1.30593   1.30897   1.31713   1.32407
 Alpha virt. eigenvalues --    1.32883   1.33596   1.34333   1.35186   1.35522
 Alpha virt. eigenvalues --    1.36177   1.36641   1.37473   1.38025   1.38753
 Alpha virt. eigenvalues --    1.39530   1.40265   1.40431   1.41335   1.42138
 Alpha virt. eigenvalues --    1.42674   1.42871   1.43985   1.45210   1.46378
 Alpha virt. eigenvalues --    1.46810   1.47830   1.48500   1.48860   1.48996
 Alpha virt. eigenvalues --    1.49438   1.50084   1.50713   1.51132   1.51875
 Alpha virt. eigenvalues --    1.52643   1.54107   1.54463   1.55643   1.55749
 Alpha virt. eigenvalues --    1.55934   1.56346   1.56948   1.57939   1.58198
 Alpha virt. eigenvalues --    1.59480   1.59873   1.60400   1.60971   1.61280
 Alpha virt. eigenvalues --    1.62784   1.62909   1.63848   1.64215   1.65088
 Alpha virt. eigenvalues --    1.65627   1.65977   1.66603   1.67264   1.67349
 Alpha virt. eigenvalues --    1.68127   1.68425   1.68658   1.69450   1.70050
 Alpha virt. eigenvalues --    1.70164   1.70890   1.71018   1.71739   1.72186
 Alpha virt. eigenvalues --    1.72774   1.73337   1.73442   1.73726   1.73928
 Alpha virt. eigenvalues --    1.74256   1.74750   1.75383   1.75761   1.75957
 Alpha virt. eigenvalues --    1.76278   1.76647   1.77844   1.77908   1.78546
 Alpha virt. eigenvalues --    1.78684   1.79207   1.79529   1.79625   1.79688
 Alpha virt. eigenvalues --    1.80035   1.80191   1.80877   1.81418   1.81642
 Alpha virt. eigenvalues --    1.82053   1.82206   1.82693   1.83254   1.83493
 Alpha virt. eigenvalues --    1.84010   1.84465   1.84724   1.85035   1.85568
 Alpha virt. eigenvalues --    1.85771   1.86316   1.87396   1.88105   1.88658
 Alpha virt. eigenvalues --    1.88808   1.89007   1.89353   1.89860   1.90013
 Alpha virt. eigenvalues --    1.91207   1.91262   1.91925   1.92417   1.92539
 Alpha virt. eigenvalues --    1.92981   1.93281   1.94312   1.94712   1.95084
 Alpha virt. eigenvalues --    1.95888   1.96211   1.96596   1.97824   1.98623
 Alpha virt. eigenvalues --    1.99593   2.00042   2.00420   2.00972   2.02125
 Alpha virt. eigenvalues --    2.02672   2.03221   2.04461   2.05080   2.05161
 Alpha virt. eigenvalues --    2.05324   2.05915   2.07167   2.07473   2.08138
 Alpha virt. eigenvalues --    2.08199   2.09025   2.10002   2.10151   2.10824
 Alpha virt. eigenvalues --    2.11004   2.11573   2.12398   2.13628   2.13968
 Alpha virt. eigenvalues --    2.14491   2.15485   2.17228   2.18054   2.18828
 Alpha virt. eigenvalues --    2.20177   2.20456   2.20935   2.21172   2.21353
 Alpha virt. eigenvalues --    2.22038   2.22499   2.23511   2.24013   2.24186
 Alpha virt. eigenvalues --    2.25019   2.25925   2.26349   2.26877   2.27236
 Alpha virt. eigenvalues --    2.27720   2.28624   2.29075   2.29635   2.30689
 Alpha virt. eigenvalues --    2.30974   2.31506   2.32267   2.32865   2.33230
 Alpha virt. eigenvalues --    2.33821   2.34391   2.34959   2.35541   2.36396
 Alpha virt. eigenvalues --    2.36635   2.37078   2.37911   2.38127   2.39270
 Alpha virt. eigenvalues --    2.39770   2.40618   2.41052   2.41191   2.41947
 Alpha virt. eigenvalues --    2.42079   2.42943   2.43271   2.43425   2.44391
 Alpha virt. eigenvalues --    2.45665   2.46451   2.46718   2.47575   2.47909
 Alpha virt. eigenvalues --    2.49141   2.49544   2.50085   2.50415   2.52382
 Alpha virt. eigenvalues --    2.53212   2.53833   2.55337   2.55700   2.56532
 Alpha virt. eigenvalues --    2.57275   2.58042   2.58423   2.59237   2.59899
 Alpha virt. eigenvalues --    2.61271   2.61710   2.61903   2.62817   2.63813
 Alpha virt. eigenvalues --    2.64648   2.65520   2.65703   2.66101   2.67477
 Alpha virt. eigenvalues --    2.68192   2.68250   2.68965   2.69398   2.70071
 Alpha virt. eigenvalues --    2.71046   2.71445   2.71516   2.72519   2.74070
 Alpha virt. eigenvalues --    2.74144   2.74804   2.75144   2.75657   2.76206
 Alpha virt. eigenvalues --    2.78328   2.78999   2.79613   2.79913   2.80235
 Alpha virt. eigenvalues --    2.80384   2.80715   2.81264   2.81704   2.82217
 Alpha virt. eigenvalues --    2.82487   2.83159   2.84058   2.84271   2.85168
 Alpha virt. eigenvalues --    2.85643   2.86329   2.86669   2.87058   2.88078
 Alpha virt. eigenvalues --    2.88942   2.89638   2.90550   2.92899   2.94260
 Alpha virt. eigenvalues --    2.95757   2.96586   2.98005   2.98941   3.00435
 Alpha virt. eigenvalues --    3.00773   3.02728   3.04151   3.05298   3.07146
 Alpha virt. eigenvalues --    3.09671   3.10516   3.11697   3.14444   3.14848
 Alpha virt. eigenvalues --    3.15349   3.16271   3.16813   3.18611   3.21291
 Alpha virt. eigenvalues --    3.22351   3.23354   3.23533   3.24533   3.28176
 Alpha virt. eigenvalues --    3.45763   3.47187   3.49154   3.49550   3.50486
 Alpha virt. eigenvalues --    3.53122   3.54075   3.56576   3.58558   3.60370
 Alpha virt. eigenvalues --    3.63304   3.70876   3.74716
          Condensed to atoms (all electrons):
 Mulliken charges:
               1
     1  N   -0.312482
     2  C    0.180554
     3  C    0.044444
     4  N   -0.259868
     5  C    0.134681
     6  H    0.028066
     7  N   -0.281489
     8  C    0.126285
     9  H    0.010971
    10  N   -0.289559
    11  C    0.240115
    12  C    0.117083
    13  N   -0.053930
    14  H    0.107672
    15  H    0.087833
    16  H    0.026624
    17  H    0.033157
    18  H    0.027068
    19  N   -0.301219
    20  C    0.234179
    21  C    0.178100
    22  N   -0.074367
    23  H    0.101298
    24  H    0.116268
    25  N   -0.284809
    26  C    0.198421
    27  N   -0.115876
    28  H    0.119460
    29  C    0.131617
    30  O   -0.318027
    31  C    0.030069
    32  N   -0.221169
    33  C    0.118856
    34  H    0.026377
    35  H    0.030011
    36  H    0.026808
    37  H    0.024081
    38  H    0.060955
    39  H    0.060944
    40  H    0.069660
    41  H    0.030859
    42  C   -0.114758
    43  O   -0.265452
    44  C    0.177831
    45  H    0.134791
    46  N   -0.133972
    47  O   -0.347936
    48  C    0.358587
    49  H    0.047469
    50  C    0.175784
    51  C    0.040717
    52  N   -0.289886
    53  H    0.038314
    54  H    0.016738
    55  H    0.031108
    56  H    0.121911
    57  H    0.116550
    58  N   -0.067692
    59  C    0.109535
    60  C    0.239483
    61  N   -0.288829
    62  H    0.049317
    63  C    0.178561
    64  N   -0.302954
    65  H    0.030784
    66  C    0.123369
    67  N   -0.259041
    68  C    0.011171
    69  C    0.169765
    70  N   -0.310988
 Sum of Mulliken charges =  -0.00000
 Mulliken charges with hydrogens summed into heavy atoms:
               1
     1  N   -0.312482
     2  C    0.267404
     3  C    0.044444
     4  N   -0.259868
     5  C    0.162747
     7  N   -0.281489
     8  C    0.137256
    10  N   -0.289559
    11  C    0.240115
    12  C    0.117083
    13  N    0.141575
    19  N   -0.301219
    20  C    0.234179
    21  C    0.259000
    22  N    0.143199
    25  N   -0.284809
    26  C    0.198421
    27  N    0.003584
    29  C    0.131617
    30  O   -0.318027
    31  C    0.030069
    32  N   -0.221169
    33  C    0.145233
    42  C   -0.083899
    43  O   -0.265452
    44  C    0.177831
    46  N    0.000819
    47  O   -0.347936
    48  C    0.358587
    50  C    0.223253
    51  C    0.232276
    52  N   -0.289886
    58  N    0.170770
    59  C    0.109535
    60  C    0.239483
    61  N   -0.288829
    63  C    0.227878
    64  N   -0.302954
    66  C    0.154153
    67  N   -0.259041
    68  C    0.011171
    69  C    0.255925
    70  N   -0.310988
 Electronic spatial extent (au):  <R**2>=          22766.5820
 Charge=              0.0000 electrons
 Dipole moment (field-independent basis, Debye):
    X=              6.8740    Y=              5.8270    Z=              3.4705  Tot=              9.6567
 Quadrupole moment (field-independent basis, Debye-Ang):
   XX=           -145.8904   YY=           -224.7140   ZZ=           -255.7160
   XY=              6.7765   XZ=              9.3928   YZ=            -11.4005
 Traceless Quadrupole moment (field-independent basis, Debye-Ang):
   XX=             62.8830   YY=            -15.9405   ZZ=            -46.9425
   XY=              6.7765   XZ=              9.3928   YZ=            -11.4005
 Octapole moment (field-independent basis, Debye-Ang**2):
  XXX=            -18.6062  YYY=            112.7078  ZZZ=              6.2005  XYY=             64.7481
  XXY=            -25.1801  XXZ=            -53.3848  XZZ=             16.6069  YZZ=             25.3954
  YYZ=             65.1546  XYZ=             38.8658
 Hexadecapole moment (field-independent basis, Debye-Ang**3):
 XXXX=         -15353.7405 YYYY=          -5460.1689 ZZZZ=          -3182.4582 XXXY=            479.0378
 XXXZ=             31.3810 YYYX=             53.2184 YYYZ=           -119.2708 ZZZX=             19.2355
 ZZZY=            -26.7268 XXYY=          -3854.7648 XXZZ=          -4043.6477 YYZZ=          -1462.4233
 XXYZ=             80.3318 YYXZ=            234.5501 ZZXY=             18.7162
 N-N= 5.543996183462D+03 E-N=-1.586883867199D+04  KE= 2.038077604805D+03
 No NMR shielding tensors so no spin-rotation constants.
 Leave Link  601 at Tue Jan 23 02:22:06 2018, MaxMem=  4294967296 cpu:              45.7 elap:               1.6
 (Enter /share/apps/g16/l9999.exe)
 1\1\GINC-COMPUTE-0-3\SP\RwB97XD\CC-pVDZ\C23H27N17O3\SATYA\23-Jan-2018\
 0\\#p wb97xd/cc-pvdz sp scf=(maxcycles=20)\\Base pair stacking\\0,1\N,
 0,5.5007,5.07084,-7.7786\C,0,6.42328,6.2194,-7.86607\C,0,3.73415,3.810
 24,-7.42156\N,0,4.71395,2.97015,-7.93044\C,0,5.73902,3.76324,-8.12518\
 H,0,6.70277,3.4444,-8.52325\N,0,1.70259,4.63436,-6.55175\C,0,2.29323,5
 .83323,-6.51413\H,0,1.6737,6.64515,-6.13567\N,0,3.52845,6.17813,-6.872
 15\C,0,4.20441,5.10813,-7.32226\C,0,2.40924,3.57796,-7.00975\N,0,1.821
 38,2.38041,-7.04806\H,0,2.30661,1.57056,-7.37961\H,0,0.87644,2.25197,-
 6.74684\H,0,6.70564,6.35026,-8.81651\H,0,5.96202,7.04399,-7.53985\H,0,
 7.23006,6.04532,-7.30145\N,0,2.08603,5.9109,-3.38669\C,0,1.01735,5.066
 21,-3.2065\C,0,2.02506,7.38576,-3.34437\N,0,-2.36658,4.58622,-2.58976\
 H,0,-2.9961,3.81625,-2.48935\H,0,-2.75409,5.50396,-2.49867\N,0,-0.2577
 2,5.43863,-2.96247\C,0,-1.06124,4.39755,-2.83553\N,0,-0.64956,3.09092,
 -2.93927\H,0,-1.3338,2.35853,-2.82793\C,0,0.65729,2.6845,-3.1899\O,0,0
 .92354,1.47857,-3.26459\C,0,1.53212,3.79189,-3.32866\N,0,2.89651,3.835
 68,-3.58047\C,0,3.17993,5.10974,-3.60617\H,0,4.17448,5.52122,-3.78175\
 H,0,2.3242,7.75871,-4.22199\H,0,1.08531,7.67334,-3.16424\H,0,2.62139,7
 .72496,-2.61764\H,0,-5.32556,-0.79081,-2.81464\H,0,-4.84786,-1.05503,-
 1.13934\H,0,-4.57348,0.51421,-1.89668\H,0,-1.60744,-3.78337,-3.42022\C
 ,0,-1.79286,-2.73171,-3.20148\O,0,0.4166,-2.04361,-3.72298\C,0,-0.7295
 7,-1.78645,-3.3556\H,0,-0.34533,0.21313,-3.1498\N,0,-1.07051,-0.48361,
 -3.05291\O,0,-2.49956,1.15112,-2.3876\C,0,-2.29346,-0.02469,-2.63181\H
 ,0,-3.83827,-2.99302,-2.65946\C,0,-2.99669,-2.31449,-2.79242\C,0,-4.59
 051,-0.55308,-2.06015\N,0,-3.26711,-0.99616,-2.50739\H,0,-5.85033,4.28
 55,-4.20355\H,0,-4.38842,4.63225,-3.56739\H,0,-5.40177,3.62267,-2.7812
 8\H,0,-0.71684,-0.2786,-7.011\H,0,-2.32784,-0.76312,-6.72811\N,0,-1.61
 628,-0.0667,-6.62859\C,0,-1.85719,1.09273,-6.01307\C,0,-3.19924,2.6778
 5,-4.85203\N,0,-2.22458,3.59453,-4.73304\H,0,-0.25411,3.83978,-5.24069
 \C,0,-1.0993,3.15479,-5.29273\N,0,-0.85601,1.99386,-5.90969\H,0,-6.148
 45,1.39622,-4.51777\C,0,-5.10285,1.59368,-4.75582\N,0,-4.31353,0.76272
 ,-5.39155\C,0,-3.10343,1.43784,-5.45925\C,0,-5.08044,3.91989,-3.68049\
 N,0,-4.49398,2.77227,-4.39955\\Version=EM64L-G16RevA.03\State=1-A\HF=-
 2048.6897967\RMSD=6.817e-09\Dipole=-3.693009,0.7050089,0.5466004\Quadr
 upole=24.2406425,-3.9531379,-20.2875045,28.3799313,-24.4628325,2.61949
 67\PG=C01 [X(C23H27N17O3)]\\@


 POCKETA-POCKETA
 BARON VON RICHTOFEN
 SLAUGHTERED THE ALLIES WITH
 HARDLY A CARE.
 KILLED EIGHTY-ONE WITH HIS
 BLOOD-COLORED TRIPLANE, THEN
 UN-AEROBATICALLY
 PLUNGED FROM THE AIR.
   -- TONY HOFFMAN
 Job cpu time:       0 days  6 hours 15 minutes 43.4 seconds.
 Elapsed time:       0 days  0 hours 12 minutes  6.6 seconds.
 File lengths (MBytes):  RWF=    298 Int=      0 D2E=      0 Chk=     33 Scr=      1
 Normal termination of Gaussian 16 at Tue Jan 23 02:22:06 2018.
