 Entering Gaussian System, Link 0=g16
 Input=str40.-15.-1.0.com
 Output=str40.-15.-1.0.log
 Initial command:
 /share/apps/g16/l1.exe "/state/partition1/scr/Gau-28937.inp" -scrdir="/state/partition1/scr/"
 Entering Link 1 = /share/apps/g16/l1.exe PID=     28938.
  
 Copyright (c) 1988,1990,1992,1993,1995,1998,2003,2009,2016,
            Gaussian, Inc.  All Rights Reserved.
  
 This is part of the Gaussian(R) 16 program.  It is based on
 the Gaussian(R) 09 system (copyright 2009, Gaussian, Inc.),
 the Gaussian(R) 03 system (copyright 2003, Gaussian, Inc.),
 the Gaussian(R) 98 system (copyright 1998, Gaussian, Inc.),
 the Gaussian(R) 94 system (copyright 1995, Gaussian, Inc.),
 the Gaussian 92(TM) system (copyright 1992, Gaussian, Inc.),
 the Gaussian 90(TM) system (copyright 1990, Gaussian, Inc.),
 the Gaussian 88(TM) system (copyright 1988, Gaussian, Inc.),
 the Gaussian 86(TM) system (copyright 1986, Carnegie Mellon
 University), and the Gaussian 82(TM) system (copyright 1983,
 Carnegie Mellon University). Gaussian is a federally registered
 trademark of Gaussian, Inc.
  
 This software contains proprietary and confidential information,
 including trade secrets, belonging to Gaussian, Inc.
  
 This software is provided under written license and may be
 used, copied, transmitted, or stored only in accord with that
 written license.
  
 The following legend is applicable only to US Government
 contracts under FAR:
  
                    RESTRICTED RIGHTS LEGEND
  
 Use, reproduction and disclosure by the US Government is
 subject to restrictions as set forth in subparagraphs (a)
 and (c) of the Commercial Computer Software - Restricted
 Rights clause in FAR 52.227-19.
  
 Gaussian, Inc.
 340 Quinnipiac St., Bldg. 40, Wallingford CT 06492
  
  
 ---------------------------------------------------------------
 Warning -- This program may not be used in any manner that
 competes with the business of Gaussian, Inc. or will provide
 assistance to any competitor of Gaussian, Inc.  The licensee
 of this program is prohibited from giving any competitor of
 Gaussian, Inc. access to this program.  By using this program,
 the user acknowledges that Gaussian, Inc. is engaged in the
 business of creating and licensing software in the field of
 computational chemistry and represents and warrants to the
 licensee that it is not a competitor of Gaussian, Inc. and that
 it will not use this program in any manner prohibited above.
 ---------------------------------------------------------------
  

 Cite this work as:
 Gaussian 16, Revision A.03,
 M. J. Frisch, G. W. Trucks, H. B. Schlegel, G. E. Scuseria, 
 M. A. Robb, J. R. Cheeseman, G. Scalmani, V. Barone, 
 G. A. Petersson, H. Nakatsuji, X. Li, M. Caricato, A. V. Marenich, 
 J. Bloino, B. G. Janesko, R. Gomperts, B. Mennucci, H. P. Hratchian, 
 J. V. Ortiz, A. F. Izmaylov, J. L. Sonnenberg, D. Williams-Young, 
 F. Ding, F. Lipparini, F. Egidi, J. Goings, B. Peng, A. Petrone, 
 T. Henderson, D. Ranasinghe, V. G. Zakrzewski, J. Gao, N. Rega, 
 G. Zheng, W. Liang, M. Hada, M. Ehara, K. Toyota, R. Fukuda, 
 J. Hasegawa, M. Ishida, T. Nakajima, Y. Honda, O. Kitao, H. Nakai, 
 T. Vreven, K. Throssell, J. A. Montgomery, Jr., J. E. Peralta, 
 F. Ogliaro, M. J. Bearpark, J. J. Heyd, E. N. Brothers, K. N. Kudin, 
 V. N. Staroverov, T. A. Keith, R. Kobayashi, J. Normand, 
 K. Raghavachari, A. P. Rendell, J. C. Burant, S. S. Iyengar, 
 J. Tomasi, M. Cossi, J. M. Millam, M. Klene, C. Adamo, R. Cammi, 
 J. W. Ochterski, R. L. Martin, K. Morokuma, O. Farkas, 
 J. B. Foresman, and D. J. Fox, Gaussian, Inc., Wallingford CT, 2016.
 
 ******************************************
 Gaussian 16:  EM64L-G16RevA.03 25-Dec-2016
                23-Jan-2018 
 ******************************************
 %nprocshared=32
 Will use up to   32 processors via shared memory.
 %mem=32GB
 %chk=allatoms_t.chk
 ---------------------------------------
 #p wb97xd/cc-pvdz sp scf=(maxcycles=20)
 ---------------------------------------
 1/38=1,172=1/1;
 2/12=2,17=6,18=5,40=1/2;
 3/5=16,11=2,25=1,30=1,74=-58/1,2,3;
 4//1;
 5/5=2,7=20,38=5/2;
 6/7=2,8=2,9=2,10=2,28=1/1;
 99/5=1,9=1/99;
 Leave Link    1 at Tue Jan 23 01:23:21 2018, MaxMem=  4294967296 cpu:               2.7 elap:               0.1
 (Enter /share/apps/g16/l101.exe)
 ------------------
 Base pair stacking
 ------------------
 Symbolic Z-matrix:
 Charge =  0 Multiplicity = 1
 N                     4.91702   4.3534   -7.65749 
 C                     5.8396    5.50196  -7.74496 
 C                     3.15047   3.09279  -7.30044 
 N                     4.13027   2.25271  -7.80933 
 C                     5.15534   3.0458   -8.00407 
 H                     6.11909   2.72696  -8.40213 
 N                     1.11891   3.91691  -6.43064 
 C                     1.70955   5.11579  -6.39302 
 H                     1.09002   5.92771  -6.01456 
 N                     2.94477   5.46068  -6.75103 
 C                     3.62073   4.39068  -7.20115 
 C                     1.82555   2.86052  -6.88864 
 N                     1.2377    1.66296  -6.92695 
 H                     1.72293   0.85312  -7.2585 
 H                     0.29276   1.53453  -6.62573 
 H                     6.12196   5.63282  -8.69539 
 H                     5.37834   6.32655  -7.41873 
 H                     6.64638   5.32787  -7.18033 
 N                     1.91791   5.44504  -3.36458 
 C                     0.84923   4.60034  -3.18439 
 C                     1.85693   6.91989  -3.32226 
 N                    -2.5347    4.12035  -2.56765 
 H                    -3.16422   3.35038  -2.46724 
 H                    -2.92221   5.0381   -2.47656 
 N                    -0.42584   4.97276  -2.94036 
 C                    -1.22936   3.93168  -2.81342 
 N                    -0.81768   2.62506  -2.91716 
 H                    -1.50192   1.89267  -2.80582 
 C                     0.48917   2.21864  -3.16779 
 O                     0.75542   1.0127   -3.24248 
 C                     1.364     3.32602  -3.30655 
 N                     2.72839   3.36981  -3.55837 
 C                     3.01181   4.64387  -3.58406 
 H                     4.00636   5.05536  -3.75964 
 H                     2.15608   7.29284  -4.19988 
 H                     0.91719   7.20748  -3.14213 
 H                     2.45327   7.25909  -2.59553 
 H                    -5.49368  -1.25668  -2.79254 
 H                    -5.01598  -1.52089  -1.11723 
 H                    -4.7416    0.04835  -1.87457 
 H                    -1.77556  -4.24924  -3.39811 
 C                    -1.96098  -3.19757  -3.17938 
 O                     0.24847  -2.50947  -3.70087 
 C                    -0.89769  -2.25232  -3.33349 
 H                    -0.51345  -0.25273  -3.12769 
 N                    -1.23863  -0.94948  -3.0308 
 O                    -2.66768   0.68526  -2.36549 
 C                    -2.46158  -0.49056  -2.6097 
 H                    -4.00639  -3.45889  -2.63735 
 C                    -3.16481  -2.78036  -2.77031 
 C                    -4.75863  -1.01895  -2.03804 
 N                    -3.43523  -1.46203  -2.48528 
 H                    -6.43401   3.56806  -4.08244 
 H                    -4.9721    3.9148   -3.44628 
 H                    -5.98545   2.90523  -2.66017 
 H                    -1.30052  -0.99604  -6.88989 
 H                    -2.91152  -1.48056  -6.607 
 N                    -2.19996  -0.78414  -6.50747 
 C                    -2.44087   0.37529  -5.89196 
 C                    -3.78292   1.96041  -4.73092 
 N                    -2.80826   2.87709  -4.61193 
 H                    -0.83779   3.12234  -5.11958 
 C                    -1.68298   2.43734  -5.17162 
 N                    -1.43969   1.27642  -5.78858 
 H                    -6.73213   0.67877  -4.39666 
 C                    -5.68653   0.87624  -4.63471 
 N                    -4.89721   0.04527  -5.27043 
 C                    -3.68711   0.7204   -5.33814 
 C                    -5.66412   3.20245  -3.55938 
 N                    -5.07766   2.05483  -4.27843 
 
 ITRead=  0  0  0  0  0  0  0  0  0  0  0  0  0  0  0  0  0  0  0  0
 ITRead=  0  0  0  0  0  0  0  0  0  0  0  0  0  0  0  0  0  0  0  0
 ITRead=  0  0  0  0  0  0  0  0  0  0  0  0  0  0  0  0  0  0  0  0
 ITRead=  0  0  0  0  0  0  0  0  0  0
 MicOpt= -1 -1 -1 -1 -1 -1 -1 -1 -1 -1 -1 -1 -1 -1 -1 -1 -1 -1 -1 -1
 MicOpt= -1 -1 -1 -1 -1 -1 -1 -1 -1 -1 -1 -1 -1 -1 -1 -1 -1 -1 -1 -1
 MicOpt= -1 -1 -1 -1 -1 -1 -1 -1 -1 -1 -1 -1 -1 -1 -1 -1 -1 -1 -1 -1
 MicOpt= -1 -1 -1 -1 -1 -1 -1 -1 -1 -1
 NAtoms=     70 NQM=       70 NQMF=       0 NMMI=      0 NMMIF=      0
                NMic=       0 NMicF=      0.
                    Isotopes and Nuclear Properties:
 (Nuclear quadrupole moments (NQMom) in fm**2, nuclear magnetic moments (NMagM)
  in nuclear magnetons)

  Atom         1           2           3           4           5           6           7           8           9          10
 IAtWgt=          14          12          12          14          12           1          14          12           1          14
 AtmWgt=  14.0030740  12.0000000  12.0000000  14.0030740  12.0000000   1.0078250  14.0030740  12.0000000   1.0078250  14.0030740
 NucSpn=           2           0           0           2           0           1           2           0           1           2
 AtZEff=  -0.0000000  -0.0000000  -0.0000000  -0.0000000  -0.0000000  -0.0000000  -0.0000000  -0.0000000  -0.0000000  -0.0000000
 NQMom=    2.0440000   0.0000000   0.0000000   2.0440000   0.0000000   0.0000000   2.0440000   0.0000000   0.0000000   2.0440000
 NMagM=    0.4037610   0.0000000   0.0000000   0.4037610   0.0000000   2.7928460   0.4037610   0.0000000   2.7928460   0.4037610
 AtZNuc=   7.0000000   6.0000000   6.0000000   7.0000000   6.0000000   1.0000000   7.0000000   6.0000000   1.0000000   7.0000000

  Atom        11          12          13          14          15          16          17          18          19          20
 IAtWgt=          12          12          14           1           1           1           1           1          14          12
 AtmWgt=  12.0000000  12.0000000  14.0030740   1.0078250   1.0078250   1.0078250   1.0078250   1.0078250  14.0030740  12.0000000
 NucSpn=           0           0           2           1           1           1           1           1           2           0
 AtZEff=  -0.0000000  -0.0000000  -0.0000000  -0.0000000  -0.0000000  -0.0000000  -0.0000000  -0.0000000  -0.0000000  -0.0000000
 NQMom=    0.0000000   0.0000000   2.0440000   0.0000000   0.0000000   0.0000000   0.0000000   0.0000000   2.0440000   0.0000000
 NMagM=    0.0000000   0.0000000   0.4037610   2.7928460   2.7928460   2.7928460   2.7928460   2.7928460   0.4037610   0.0000000
 AtZNuc=   6.0000000   6.0000000   7.0000000   1.0000000   1.0000000   1.0000000   1.0000000   1.0000000   7.0000000   6.0000000

  Atom        21          22          23          24          25          26          27          28          29          30
 IAtWgt=          12          14           1           1          14          12          14           1          12          16
 AtmWgt=  12.0000000  14.0030740   1.0078250   1.0078250  14.0030740  12.0000000  14.0030740   1.0078250  12.0000000  15.9949146
 NucSpn=           0           2           1           1           2           0           2           1           0           0
 AtZEff=  -0.0000000  -0.0000000  -0.0000000  -0.0000000  -0.0000000  -0.0000000  -0.0000000  -0.0000000  -0.0000000  -0.0000000
 NQMom=    0.0000000   2.0440000   0.0000000   0.0000000   2.0440000   0.0000000   2.0440000   0.0000000   0.0000000   0.0000000
 NMagM=    0.0000000   0.4037610   2.7928460   2.7928460   0.4037610   0.0000000   0.4037610   2.7928460   0.0000000   0.0000000
 AtZNuc=   6.0000000   7.0000000   1.0000000   1.0000000   7.0000000   6.0000000   7.0000000   1.0000000   6.0000000   8.0000000

  Atom        31          32          33          34          35          36          37          38          39          40
 IAtWgt=          12          14          12           1           1           1           1           1           1           1
 AtmWgt=  12.0000000  14.0030740  12.0000000   1.0078250   1.0078250   1.0078250   1.0078250   1.0078250   1.0078250   1.0078250
 NucSpn=           0           2           0           1           1           1           1           1           1           1
 AtZEff=  -0.0000000  -0.0000000  -0.0000000  -0.0000000  -0.0000000  -0.0000000  -0.0000000  -0.0000000  -0.0000000  -0.0000000
 NQMom=    0.0000000   2.0440000   0.0000000   0.0000000   0.0000000   0.0000000   0.0000000   0.0000000   0.0000000   0.0000000
 NMagM=    0.0000000   0.4037610   0.0000000   2.7928460   2.7928460   2.7928460   2.7928460   2.7928460   2.7928460   2.7928460
 AtZNuc=   6.0000000   7.0000000   6.0000000   1.0000000   1.0000000   1.0000000   1.0000000   1.0000000   1.0000000   1.0000000

  Atom        41          42          43          44          45          46          47          48          49          50
 IAtWgt=           1          12          16          12           1          14          16          12           1          12
 AtmWgt=   1.0078250  12.0000000  15.9949146  12.0000000   1.0078250  14.0030740  15.9949146  12.0000000   1.0078250  12.0000000
 NucSpn=           1           0           0           0           1           2           0           0           1           0
 AtZEff=  -0.0000000  -0.0000000  -0.0000000  -0.0000000  -0.0000000  -0.0000000  -0.0000000  -0.0000000  -0.0000000  -0.0000000
 NQMom=    0.0000000   0.0000000   0.0000000   0.0000000   0.0000000   2.0440000   0.0000000   0.0000000   0.0000000   0.0000000
 NMagM=    2.7928460   0.0000000   0.0000000   0.0000000   2.7928460   0.4037610   0.0000000   0.0000000   2.7928460   0.0000000
 AtZNuc=   1.0000000   6.0000000   8.0000000   6.0000000   1.0000000   7.0000000   8.0000000   6.0000000   1.0000000   6.0000000

  Atom        51          52          53          54          55          56          57          58          59          60
 IAtWgt=          12          14           1           1           1           1           1          14          12          12
 AtmWgt=  12.0000000  14.0030740   1.0078250   1.0078250   1.0078250   1.0078250   1.0078250  14.0030740  12.0000000  12.0000000
 NucSpn=           0           2           1           1           1           1           1           2           0           0
 AtZEff=  -0.0000000  -0.0000000  -0.0000000  -0.0000000  -0.0000000  -0.0000000  -0.0000000  -0.0000000  -0.0000000  -0.0000000
 NQMom=    0.0000000   2.0440000   0.0000000   0.0000000   0.0000000   0.0000000   0.0000000   2.0440000   0.0000000   0.0000000
 NMagM=    0.0000000   0.4037610   2.7928460   2.7928460   2.7928460   2.7928460   2.7928460   0.4037610   0.0000000   0.0000000
 AtZNuc=   6.0000000   7.0000000   1.0000000   1.0000000   1.0000000   1.0000000   1.0000000   7.0000000   6.0000000   6.0000000

  Atom        61          62          63          64          65          66          67          68          69          70
 IAtWgt=          14           1          12          14           1          12          14          12          12          14
 AtmWgt=  14.0030740   1.0078250  12.0000000  14.0030740   1.0078250  12.0000000  14.0030740  12.0000000  12.0000000  14.0030740
 NucSpn=           2           1           0           2           1           0           2           0           0           2
 AtZEff=  -0.0000000  -0.0000000  -0.0000000  -0.0000000  -0.0000000  -0.0000000  -0.0000000  -0.0000000  -0.0000000  -0.0000000
 NQMom=    2.0440000   0.0000000   0.0000000   2.0440000   0.0000000   0.0000000   2.0440000   0.0000000   0.0000000   2.0440000
 NMagM=    0.4037610   2.7928460   0.0000000   0.4037610   2.7928460   0.0000000   0.4037610   0.0000000   0.0000000   0.4037610
 AtZNuc=   7.0000000   1.0000000   6.0000000   7.0000000   1.0000000   6.0000000   7.0000000   6.0000000   6.0000000   7.0000000
 Leave Link  101 at Tue Jan 23 01:23:21 2018, MaxMem=  4294967296 cpu:               7.7 elap:               0.3
 (Enter /share/apps/g16/l202.exe)
 Stoichiometry    C23H27N17O3
 Framework group  C1[X(C23H27N17O3)]
 Deg. of freedom   204
 Full point group                 C1      NOp   1
 Largest Abelian subgroup         C1      NOp   1
 Largest concise Abelian subgroup C1      NOp   1
                         Standard orientation:                         
 ---------------------------------------------------------------------
 Center     Atomic      Atomic             Coordinates (Angstroms)
 Number     Number       Type             X           Y           Z
 ---------------------------------------------------------------------
      1          7           0       -6.353408   -1.455827    0.665992
      2          6           0       -7.717519   -0.910837    0.523930
      3          6           0       -4.178908   -1.647561    0.934518
      4          7           0       -4.667540   -2.938080    0.791307
      5          6           0       -5.958040   -2.770921    0.635257
      6          1           0       -6.675196   -3.579767    0.492498
      7          7           0       -2.738013    0.195417    1.234885
      8          6           0       -3.827386    0.965003    1.142212
      9          1           0       -3.649272    2.035762    1.231726
     10          7           0       -5.097768    0.612147    0.956439
     11          6           0       -5.206288   -0.723236    0.859458
     12          6           0       -2.880439   -1.144156    1.133277
     13          7           0       -1.794185   -1.914044    1.225521
     14          1           0       -1.852626   -2.910526    1.156064
     15          1           0       -0.885460   -1.521229    1.367136
     16          1           0       -8.300622   -1.274650    1.250428
     17          1           0       -7.687487    0.086109    0.589752
     18          1           0       -8.092669   -1.173344   -0.365093
     19          7           0       -3.241475    2.291677   -1.544778
     20          6           0       -1.893615    2.093965   -1.365201
     21          6           0       -3.958585    3.558994   -1.299111
     22          7           0        1.230143    3.310384   -0.457348
     23          1           0        2.166123    2.965248   -0.393667
     24          1           0        1.080749    4.266277   -0.203034
     25          7           0       -1.005022    3.016793   -0.937602
     26          6           0        0.220052    2.527328   -0.865331
     27          7           0        0.551656    1.233415   -1.186774
     28          1           0        1.514511    0.946015   -1.101407
     29          6           0       -0.346197    0.266836   -1.628853
     30          8           0        0.056411   -0.872964   -1.892523
     31          6           0       -1.666392    0.777833   -1.711566
     32          7           0       -2.847817    0.161668   -2.100753
     33          6           0       -3.752698    1.095615   -1.986080
     34          1           0       -4.811764    0.965119   -2.211097
     35          1           0       -4.660526    3.416998   -0.602035
     36          1           0       -3.310518    4.250137   -0.981941
     37          1           0       -4.388331    3.870310   -2.145997
     38          1           0        6.344531   -0.035606    0.147613
     39          1           0        6.616951    0.178906   -1.579940
     40          1           0        5.340020    1.087068   -0.769969
     41          1           0        4.791977   -4.272242   -1.521828
     42          6           0        4.450707   -3.239657   -1.447428
     43          8           0        2.177095   -3.766932   -1.871425
     44          6           0        3.062018   -2.946323   -1.629993
     45          1           0        1.765013   -1.363265   -1.637959
     46          7           0        2.737095   -1.609716   -1.515267
     47          8           0        3.210181    0.584134   -1.168270
     48          6           0        3.592800   -0.569726   -1.251204
     49          1           0        6.375336   -2.416836   -1.041772
     50          6           0        5.309596   -2.246692   -1.188702
     51          6           0        5.866876    0.145040   -0.803858
     52          7           0        4.915212   -0.932679   -1.087741
     53          1           0        4.149624    3.876414    2.536057
     54          1           0        3.002190    3.806002    1.378237
     55          1           0        4.578242    3.676261    0.974126
     56          1           0        1.632236   -3.073360    1.881144
     57          1           0        3.251212   -2.711180    2.278448
     58          7           0        2.350082   -2.385620    1.990003
     59          6           0        2.117091   -1.091622    1.760981
     60          6           0        2.698793    1.211681    1.626313
     61          7           0        1.478829    1.620131    1.239947
     62          1           0       -0.367423    0.827512    0.835324
     63          6           0        0.648098    0.583941    1.144632
     64          7           0        0.879546   -0.712815    1.373588
     65          1           0        5.814808    1.477526    2.446037
     66          6           0        4.809155    1.124700    2.215568
     67          7           0        4.427957   -0.128012    2.271052
     68          6           0        3.091849   -0.086875    1.899769
     69          6           0        3.892096    3.454104    1.666961
     70          7           0        3.813353    1.989709    1.832331
 ---------------------------------------------------------------------
 Rotational constants (GHZ):           0.1478640           0.0552249           0.0497516
 Leave Link  202 at Tue Jan 23 01:23:21 2018, MaxMem=  4294967296 cpu:               0.3 elap:               0.0
 (Enter /share/apps/g16/l301.exe)
 Standard basis: CC-pVDZ (5D, 7F)
 Ernie: Thresh=  0.10000D-02 Tol=  0.10000D-05 Strict=F.
 Ernie:  86 primitive shells out of 1081 were deleted.
 There are   780 symmetry adapted cartesian basis functions of A   symmetry.
 There are   737 symmetry adapted basis functions of A   symmetry.
   737 basis functions,  1608 primitive gaussians,   780 cartesian basis functions
   154 alpha electrons      154 beta electrons
       nuclear repulsion energy      5559.7457214188 Hartrees.
 IExCor= 4639 DFT=T Ex+Corr=wB97XD ExCW=0 ScaHFX=  1.000000
 ScaDFX=  1.000000  1.000000  1.000000  1.000000 ScalE2=  1.000000  1.000000
 IRadAn=      5 IRanWt=     -1 IRanGd=            0 ICorTp=0 IEmpDi=121
 HFx  wShort=  0.000000 wLong=  0.200000 cFull=  0.222036 cShort=  0.000000 cLong=  0.777964
 DFx  wShort=  0.000000 wLong=  0.200000 cFull=  0.000000 cShort=  0.000000 cLong=  1.000000
 NAtoms=   70 NActive=   70 NUniq=   70 SFac= 1.00D+00 NAtFMM=   60 NAOKFM=T Big=T
 Integral buffers will be    131072 words long.
 Raffenetti 2 integral format.
 Two-electron integral symmetry is turned on.
 R6Disp:  Grimme-D2 Dispersion energy=       -0.0747633381 Hartrees.
 Nuclear repulsion after empirical dispersion term =     5559.6709580807 Hartrees.
 Leave Link  301 at Tue Jan 23 01:23:21 2018, MaxMem=  4294967296 cpu:               2.1 elap:               0.1
 (Enter /share/apps/g16/l302.exe)
 NPDir=0 NMtPBC=     1 NCelOv=     1 NCel=       1 NClECP=     1 NCelD=      1
         NCelK=      1 NCelE2=     1 NClLst=     1 CellRange=     0.0.
 One-electron integrals computed using PRISM.
 One-electron integral symmetry used in STVInt
 NBasis=   737 RedAO= T EigKep=  7.15D-04  NBF=   737
 NBsUse=   737 1.00D-06 EigRej= -1.00D+00 NBFU=   737
 Precomputing XC quadrature grid using
 IXCGrd= 4 IRadAn=           5 IRanWt=          -1 IRanGd=           0 AccXCQ= 0.00D+00.
 Generated NRdTot=       0 NPtTot=           0 NUsed=           0 NTot=          32
 NSgBfM=   769   768   768   768   769 MxSgAt=    70 MxSgA2=    70.
 Leave Link  302 at Tue Jan 23 01:23:30 2018, MaxMem=  4294967296 cpu:             276.8 elap:               8.9
 (Enter /share/apps/g16/l303.exe)
 DipDrv:  MaxL=1.
 Leave Link  303 at Tue Jan 23 01:23:31 2018, MaxMem=  4294967296 cpu:              13.3 elap:               0.5
 (Enter /share/apps/g16/l401.exe)
 ExpMin= 1.22D-01 ExpMax= 1.17D+04 ExpMxC= 4.01D+02 IAcc=3 IRadAn=         5 AccDes= 0.00D+00
 Harris functional with IExCor= 4639 and IRadAn=       5 diagonalized for initial guess.
 HarFok:  IExCor= 4639 AccDes= 0.00D+00 IRadAn=         5 IDoV= 1 UseB2=F ITyADJ=14
 ICtDFT=  3500011 ScaDFX=  1.000000  1.000000  1.000000  1.000000
 FoFCou: FMM=F IPFlag=           0 FMFlag=      100000 FMFlg1=        2001
         NFxFlg=           0 DoJE=T BraDBF=F KetDBF=T FulRan=T
         wScrn=  0.000000 ICntrl=       500 IOpCl=  0 I1Cent=   200000004 NGrid=           0
         NMat0=    1 NMatS0=      1 NMatT0=    0 NMatD0=    1 NMtDS0=    0 NMtDT0=    0
 Petite list used in FoFCou.
 Harris En= -1963.83296396928    
 JPrj=0 DoOrth=F DoCkMO=F.
 Leave Link  401 at Tue Jan 23 01:23:44 2018, MaxMem=  4294967296 cpu:             405.9 elap:              12.7
 (Enter /share/apps/g16/l502.exe)
 Integral symmetry usage will be decided dynamically.
 Closed shell SCF:
 Using DIIS extrapolation, IDIIS=  1040.
 NGot=  4294967296 LenX=  4293717438 LenY=  4293108258
 Requested convergence on RMS density matrix=1.00D-08 within  20 cycles.
 Requested convergence on MAX density matrix=1.00D-06.
 Requested convergence on             energy=1.00D-06.
 No special actions if energy rises.
 Fock matrices will be formed incrementally for  20 cycles.
 Integral accuracy reduced to 1.0D-05 until final iterations.

 Cycle   1  Pass 0  IDiag  1:
 FoFJK:  IHMeth= 1 ICntrl=       0 DoSepK=T KAlg= 0 I1Cent=           0 FoldK=F
 IRaf=         1 NMat=       1 IRICut=       1 DoRegI=T DoRafI=F ISym2E= 0 IDoP0=0 IntGTp=1.
 FoFCou: FMM=T IPFlag=           0 FMFlag=      100000 FMFlg1=        2001
         NFxFlg=           0 DoJE=T BraDBF=F KetDBF=F FulRan=T
         wScrn=  0.000000 ICntrl=       500 IOpCl=  0 I1Cent=           0 NGrid=           0
         NMat0=    1 NMatS0=      1 NMatT0=    0 NMatD0=    1 NMtDS0=    0 NMtDT0=    0
 Symmetry not used in FoFCou.
 FMM levels:  10  Number of levels for PrismC:   9
 E= -2048.27942569850    
 DIIS: error= 2.11D-02 at cycle   1 NSaved=   1.
 NSaved= 1 IEnMin= 1 EnMin= -2048.27942569850     IErMin= 1 ErrMin= 2.11D-02
 ErrMax= 2.11D-02  0.00D+00 EMaxC= 1.00D-01 BMatC= 8.27D-01 BMatP= 8.27D-01
 IDIUse=3 WtCom= 7.89D-01 WtEn= 2.11D-01
 Coeff-Com:  0.100D+01
 Coeff-En:   0.100D+01
 Coeff:      0.100D+01
 Gap=     0.257 Goal=   None    Shift=    0.000
 GapD=    0.257 DampG=1.000 DampE=0.500 DampFc=0.5000 IDamp=-1.
 Damping current iteration by 5.00D-01
 RMSDP=1.56D-03 MaxDP=1.30D-01              OVMax= 1.81D-01

 Cycle   2  Pass 0  IDiag  1:
 RMSU=  7.80D-04    CP:  9.98D-01
 E= -2048.47555802149     Delta-E=       -0.196132322990 Rises=F Damp=T
 DIIS: error= 1.01D-02 at cycle   2 NSaved=   2.
 NSaved= 2 IEnMin= 2 EnMin= -2048.47555802149     IErMin= 2 ErrMin= 1.01D-02
 ErrMax= 1.01D-02  0.00D+00 EMaxC= 1.00D-01 BMatC= 1.44D-01 BMatP= 8.27D-01
 IDIUse=3 WtCom= 8.99D-01 WtEn= 1.01D-01
 Coeff-Com: -0.202D+00 0.120D+01
 Coeff-En:   0.000D+00 0.100D+01
 Coeff:     -0.181D+00 0.118D+01
 Gap=     0.357 Goal=   None    Shift=    0.000
 RMSDP=5.83D-04 MaxDP=3.45D-02 DE=-1.96D-01 OVMax= 1.59D-01

 Cycle   3  Pass 0  IDiag  1:
 RMSU=  5.72D-04    CP:  9.94D-01  1.14D+00
 E= -2048.65310323045     Delta-E=       -0.177545208955 Rises=F Damp=F
 DIIS: error= 7.24D-03 at cycle   3 NSaved=   3.
 NSaved= 3 IEnMin= 3 EnMin= -2048.65310323045     IErMin= 3 ErrMin= 7.24D-03
 ErrMax= 7.24D-03  0.00D+00 EMaxC= 1.00D-01 BMatC= 6.24D-02 BMatP= 1.44D-01
 IDIUse=3 WtCom= 9.28D-01 WtEn= 7.24D-02
 Coeff-Com: -0.235D+00 0.551D+00 0.684D+00
 Coeff-En:   0.000D+00 0.000D+00 0.100D+01
 Coeff:     -0.218D+00 0.511D+00 0.706D+00
 Gap=     0.275 Goal=   None    Shift=    0.000
 RMSDP=3.53D-04 MaxDP=3.40D-02 DE=-1.78D-01 OVMax= 7.55D-02

 Cycle   4  Pass 0  IDiag  1:
 RMSU=  2.01D-04    CP:  9.94D-01  1.42D+00  6.77D-01
 E= -2048.70049088124     Delta-E=       -0.047387650790 Rises=F Damp=F
 DIIS: error= 2.56D-03 at cycle   4 NSaved=   4.
 NSaved= 4 IEnMin= 4 EnMin= -2048.70049088124     IErMin= 4 ErrMin= 2.56D-03
 ErrMax= 2.56D-03  0.00D+00 EMaxC= 1.00D-01 BMatC= 8.79D-03 BMatP= 6.24D-02
 IDIUse=3 WtCom= 9.74D-01 WtEn= 2.56D-02
 Coeff-Com: -0.982D-01 0.190D+00 0.379D+00 0.529D+00
 Coeff-En:   0.000D+00 0.000D+00 0.564D-01 0.944D+00
 Coeff:     -0.957D-01 0.185D+00 0.371D+00 0.539D+00
 Gap=     0.280 Goal=   None    Shift=    0.000
 RMSDP=1.26D-04 MaxDP=1.22D-02 DE=-4.74D-02 OVMax= 1.41D-02

 Cycle   5  Pass 0  IDiag  1:
 RMSU=  6.18D-05    CP:  9.94D-01  1.40D+00  8.06D-01  6.14D-01
 E= -2048.70773985793     Delta-E=       -0.007248976691 Rises=F Damp=F
 DIIS: error= 5.37D-04 at cycle   5 NSaved=   5.
 NSaved= 5 IEnMin= 5 EnMin= -2048.70773985793     IErMin= 5 ErrMin= 5.37D-04
 ErrMax= 5.37D-04  0.00D+00 EMaxC= 1.00D-01 BMatC= 2.81D-04 BMatP= 8.79D-03
 IDIUse=3 WtCom= 9.95D-01 WtEn= 5.37D-03
 Coeff-Com: -0.246D-01 0.423D-01 0.119D+00 0.235D+00 0.628D+00
 Coeff-En:   0.000D+00 0.000D+00 0.000D+00 0.000D+00 0.100D+01
 Coeff:     -0.245D-01 0.421D-01 0.118D+00 0.234D+00 0.630D+00
 Gap=     0.280 Goal=   None    Shift=    0.000
 RMSDP=2.59D-05 MaxDP=1.97D-03 DE=-7.25D-03 OVMax= 3.24D-03

 Failed to achieve initial convergence to 1.0D-08 in  6 cycles.
 Switch to full accuracy anyway.
 Cycle   6  Pass 1  IDiag  1:
 E= -2048.70796468869     Delta-E=       -0.000224830761 Rises=F Damp=F
 DIIS: error= 2.68D-04 at cycle   1 NSaved=   1.
 NSaved= 1 IEnMin= 1 EnMin= -2048.70796468869     IErMin= 1 ErrMin= 2.68D-04
 ErrMax= 2.68D-04  0.00D+00 EMaxC= 1.00D-01 BMatC= 7.61D-05 BMatP= 7.61D-05
 IDIUse=3 WtCom= 9.97D-01 WtEn= 2.68D-03
 Coeff-Com:  0.100D+01
 Coeff-En:   0.100D+01
 Coeff:      0.100D+01
 Gap=     0.280 Goal=   None    Shift=    0.000
 RMSDP=2.59D-05 MaxDP=1.97D-03 DE=-2.25D-04 OVMax= 2.64D-03

 Cycle   7  Pass 1  IDiag  1:
 RMSU=  1.11D-04    CP:  1.00D+00
 E= -2048.70802067097     Delta-E=       -0.000055982279 Rises=F Damp=F
 DIIS: error= 2.20D-04 at cycle   2 NSaved=   2.
 NSaved= 2 IEnMin= 2 EnMin= -2048.70802067097     IErMin= 2 ErrMin= 2.20D-04
 ErrMax= 2.20D-04  0.00D+00 EMaxC= 1.00D-01 BMatC= 4.16D-05 BMatP= 7.61D-05
 IDIUse=3 WtCom= 9.98D-01 WtEn= 2.20D-03
 Coeff-Com:  0.398D+00 0.602D+00
 Coeff-En:   0.000D+00 0.100D+01
 Coeff:      0.397D+00 0.603D+00
 Gap=     0.280 Goal=   None    Shift=    0.000
 RMSDP=1.12D-05 MaxDP=1.16D-03 DE=-5.60D-05 OVMax= 1.46D-03

 Cycle   8  Pass 1  IDiag  1:
 RMSU=  1.09D-05    CP:  1.00D+00  1.03D+00
 E= -2048.70805037311     Delta-E=       -0.000029702141 Rises=F Damp=F
 DIIS: error= 1.03D-04 at cycle   3 NSaved=   3.
 NSaved= 3 IEnMin= 3 EnMin= -2048.70805037311     IErMin= 3 ErrMin= 1.03D-04
 ErrMax= 1.03D-04  0.00D+00 EMaxC= 1.00D-01 BMatC= 1.05D-05 BMatP= 4.16D-05
 IDIUse=3 WtCom= 9.99D-01 WtEn= 1.03D-03
 Coeff-Com: -0.187D-01 0.321D+00 0.697D+00
 Coeff-En:   0.000D+00 0.146D+00 0.854D+00
 Coeff:     -0.187D-01 0.321D+00 0.698D+00
 Gap=     0.280 Goal=   None    Shift=    0.000
 RMSDP=5.56D-06 MaxDP=4.82D-04 DE=-2.97D-05 OVMax= 5.46D-04

 Cycle   9  Pass 1  IDiag  1:
 RMSU=  3.79D-06    CP:  1.00D+00  1.05D+00  7.57D-01
 E= -2048.70806002182     Delta-E=       -0.000009648712 Rises=F Damp=F
 DIIS: error= 3.33D-05 at cycle   4 NSaved=   4.
 NSaved= 4 IEnMin= 4 EnMin= -2048.70806002182     IErMin= 4 ErrMin= 3.33D-05
 ErrMax= 3.33D-05  0.00D+00 EMaxC= 1.00D-01 BMatC= 5.02D-07 BMatP= 1.05D-05
 IDIUse=1 WtCom= 1.00D+00 WtEn= 0.00D+00
 Coeff-Com: -0.296D-01 0.894D-01 0.260D+00 0.680D+00
 Coeff:     -0.296D-01 0.894D-01 0.260D+00 0.680D+00
 Gap=     0.280 Goal=   None    Shift=    0.000
 RMSDP=1.42D-06 MaxDP=1.46D-04 DE=-9.65D-06 OVMax= 5.18D-04

 Cycle  10  Pass 1  IDiag  1:
 RMSU=  1.28D-06    CP:  1.00D+00  1.06D+00  7.90D-01  1.09D+00
 E= -2048.70806084187     Delta-E=       -0.000000820053 Rises=F Damp=F
 DIIS: error= 1.52D-05 at cycle   5 NSaved=   5.
 NSaved= 5 IEnMin= 5 EnMin= -2048.70806084187     IErMin= 5 ErrMin= 1.52D-05
 ErrMax= 1.52D-05  0.00D+00 EMaxC= 1.00D-01 BMatC= 1.19D-07 BMatP= 5.02D-07
 IDIUse=1 WtCom= 1.00D+00 WtEn= 0.00D+00
 Coeff-Com: -0.276D-02-0.576D-01-0.119D+00 0.205D+00 0.975D+00
 Coeff:     -0.276D-02-0.576D-01-0.119D+00 0.205D+00 0.975D+00
 Gap=     0.280 Goal=   None    Shift=    0.000
 RMSDP=1.19D-06 MaxDP=7.40D-05 DE=-8.20D-07 OVMax= 2.41D-04

 Cycle  11  Pass 1  IDiag  1:
 RMSU=  4.94D-07    CP:  1.00D+00  1.06D+00  8.02D-01  1.37D+00  1.17D+00
 E= -2048.70806109433     Delta-E=       -0.000000252453 Rises=F Damp=F
 DIIS: error= 9.56D-06 at cycle   6 NSaved=   6.
 NSaved= 6 IEnMin= 6 EnMin= -2048.70806109433     IErMin= 6 ErrMin= 9.56D-06
 ErrMax= 9.56D-06  0.00D+00 EMaxC= 1.00D-01 BMatC= 2.78D-08 BMatP= 1.19D-07
 IDIUse=1 WtCom= 1.00D+00 WtEn= 0.00D+00
 Coeff-Com:  0.450D-02-0.469D-01-0.113D+00 0.937D-04 0.520D+00 0.636D+00
 Coeff:      0.450D-02-0.469D-01-0.113D+00 0.937D-04 0.520D+00 0.636D+00
 Gap=     0.280 Goal=   None    Shift=    0.000
 RMSDP=3.65D-07 MaxDP=3.80D-05 DE=-2.52D-07 OVMax= 1.32D-04

 Cycle  12  Pass 1  IDiag  1:
 RMSU=  1.83D-07    CP:  1.00D+00  1.06D+00  8.03D-01  1.44D+00  1.30D+00
                    CP:  9.30D-01
 E= -2048.70806113487     Delta-E=       -0.000000040547 Rises=F Damp=F
 DIIS: error= 1.43D-06 at cycle   7 NSaved=   7.
 NSaved= 7 IEnMin= 7 EnMin= -2048.70806113487     IErMin= 7 ErrMin= 1.43D-06
 ErrMax= 1.43D-06  0.00D+00 EMaxC= 1.00D-01 BMatC= 8.93D-10 BMatP= 2.78D-08
 IDIUse=1 WtCom= 1.00D+00 WtEn= 0.00D+00
 Coeff-Com:  0.121D-02-0.890D-02-0.229D-01-0.726D-02 0.707D-01 0.158D+00
 Coeff-Com:  0.809D+00
 Coeff:      0.121D-02-0.890D-02-0.229D-01-0.726D-02 0.707D-01 0.158D+00
 Coeff:      0.809D+00
 Gap=     0.280 Goal=   None    Shift=    0.000
 RMSDP=8.36D-08 MaxDP=4.94D-06 DE=-4.05D-08 OVMax= 2.18D-05

 Cycle  13  Pass 1  IDiag  1:
 RMSU=  5.15D-08    CP:  1.00D+00  1.06D+00  8.03D-01  1.45D+00  1.32D+00
                    CP:  1.02D+00  1.13D+00
 E= -2048.70806113646     Delta-E=       -0.000000001584 Rises=F Damp=F
 DIIS: error= 7.10D-07 at cycle   8 NSaved=   8.
 NSaved= 8 IEnMin= 8 EnMin= -2048.70806113646     IErMin= 8 ErrMin= 7.10D-07
 ErrMax= 7.10D-07  0.00D+00 EMaxC= 1.00D-01 BMatC= 3.62D-10 BMatP= 8.93D-10
 IDIUse=1 WtCom= 1.00D+00 WtEn= 0.00D+00
 Coeff-Com: -0.628D-03 0.843D-02 0.194D-01-0.234D-02-0.109D+00-0.892D-01
 Coeff-Com:  0.427D+00 0.746D+00
 Coeff:     -0.628D-03 0.843D-02 0.194D-01-0.234D-02-0.109D+00-0.892D-01
 Coeff:      0.427D+00 0.746D+00
 Gap=     0.280 Goal=   None    Shift=    0.000
 RMSDP=4.85D-08 MaxDP=2.84D-06 DE=-1.58D-09 OVMax= 1.15D-05

 Cycle  14  Pass 1  IDiag  1:
 RMSU=  2.87D-08    CP:  1.00D+00  1.06D+00  8.03D-01  1.45D+00  1.33D+00
                    CP:  1.06D+00  1.28D+00  1.03D+00
 E= -2048.70806113688     Delta-E=       -0.000000000425 Rises=F Damp=F
 DIIS: error= 2.25D-07 at cycle   9 NSaved=   9.
 NSaved= 9 IEnMin= 9 EnMin= -2048.70806113688     IErMin= 9 ErrMin= 2.25D-07
 ErrMax= 2.25D-07  0.00D+00 EMaxC= 1.00D-01 BMatC= 3.97D-11 BMatP= 3.62D-10
 IDIUse=1 WtCom= 1.00D+00 WtEn= 0.00D+00
 Coeff-Com: -0.435D-03 0.501D-02 0.118D-01 0.278D-03-0.580D-01-0.601D-01
 Coeff-Com:  0.931D-01 0.324D+00 0.685D+00
 Coeff:     -0.435D-03 0.501D-02 0.118D-01 0.278D-03-0.580D-01-0.601D-01
 Coeff:      0.931D-01 0.324D+00 0.685D+00
 Gap=     0.280 Goal=   None    Shift=    0.000
 RMSDP=1.46D-08 MaxDP=7.64D-07 DE=-4.25D-10 OVMax= 3.54D-06

 Cycle  15  Pass 1  IDiag  1:
 RMSU=  9.78D-09    CP:  1.00D+00  1.06D+00  8.03D-01  1.45D+00  1.33D+00
                    CP:  1.07D+00  1.30D+00  1.19D+00  1.09D+00
 E= -2048.70806113712     Delta-E=       -0.000000000238 Rises=F Damp=F
 DIIS: error= 6.86D-08 at cycle  10 NSaved=  10.
 NSaved=10 IEnMin=10 EnMin= -2048.70806113712     IErMin=10 ErrMin= 6.86D-08
 ErrMax= 6.86D-08  0.00D+00 EMaxC= 1.00D-01 BMatC= 5.41D-12 BMatP= 3.97D-11
 IDIUse=1 WtCom= 1.00D+00 WtEn= 0.00D+00
 Coeff-Com: -0.466D-05-0.219D-03-0.415D-03 0.207D-03 0.442D-02-0.300D-03
 Coeff-Com: -0.549D-01-0.540D-01 0.239D+00 0.866D+00
 Coeff:     -0.466D-05-0.219D-03-0.415D-03 0.207D-03 0.442D-02-0.300D-03
 Coeff:     -0.549D-01-0.540D-01 0.239D+00 0.866D+00
 Gap=     0.280 Goal=   None    Shift=    0.000
 RMSDP=7.38D-09 MaxDP=4.14D-07 DE=-2.38D-10 OVMax= 1.59D-06

 SCF Done:  E(RwB97XD) =  -2048.70806114     A.U. after   15 cycles
            NFock= 15  Conv=0.74D-08     -V/T= 2.0053
 KE= 2.037990791083D+03 PE=-1.590024759212D+04 EE= 6.253877781817D+03
 Leave Link  502 at Tue Jan 23 01:35:30 2018, MaxMem=  4294967296 cpu:           21904.9 elap:             706.3
 (Enter /share/apps/g16/l601.exe)
 Copying SCF densities to generalized density rwf, IOpCl= 0 IROHF=0.

 **********************************************************************

            Population analysis using the SCF density.

 **********************************************************************

 Orbital symmetries:
       Occupied  (A) (A) (A) (A) (A) (A) (A) (A) (A) (A) (A) (A)
                 (A) (A) (A) (A) (A) (A) (A) (A) (A) (A) (A) (A)
                 (A) (A) (A) (A) (A) (A) (A) (A) (A) (A) (A) (A)
                 (A) (A) (A) (A) (A) (A) (A) (A) (A) (A) (A) (A)
                 (A) (A) (A) (A) (A) (A) (A) (A) (A) (A) (A) (A)
                 (A) (A) (A) (A) (A) (A) (A) (A) (A) (A) (A) (A)
                 (A) (A) (A) (A) (A) (A) (A) (A) (A) (A) (A) (A)
                 (A) (A) (A) (A) (A) (A) (A) (A) (A) (A) (A) (A)
                 (A) (A) (A) (A) (A) (A) (A) (A) (A) (A) (A) (A)
                 (A) (A) (A) (A) (A) (A) (A) (A) (A) (A) (A) (A)
                 (A) (A) (A) (A) (A) (A) (A) (A) (A) (A) (A) (A)
                 (A) (A) (A) (A) (A) (A) (A) (A) (A) (A) (A) (A)
                 (A) (A) (A) (A) (A) (A) (A) (A) (A) (A)
       Virtual   (A) (A) (A) (A) (A) (A) (A) (A) (A) (A) (A) (A)
                 (A) (A) (A) (A) (A) (A) (A) (A) (A) (A) (A) (A)
                 (A) (A) (A) (A) (A) (A) (A) (A) (A) (A) (A) (A)
                 (A) (A) (A) (A) (A) (A) (A) (A) (A) (A) (A) (A)
                 (A) (A) (A) (A) (A) (A) (A) (A) (A) (A) (A) (A)
                 (A) (A) (A) (A) (A) (A) (A) (A) (A) (A) (A) (A)
                 (A) (A) (A) (A) (A) (A) (A) (A) (A) (A) (A) (A)
                 (A) (A) (A) (A) (A) (A) (A) (A) (A) (A) (A) (A)
                 (A) (A) (A) (A) (A) (A) (A) (A) (A) (A) (A) (A)
                 (A) (A) (A) (A) (A) (A) (A) (A) (A) (A) (A) (A)
                 (A) (A) (A) (A) (A) (A) (A) (A) (A) (A) (A) (A)
                 (A) (A) (A) (A) (A) (A) (A) (A) (A) (A) (A) (A)
                 (A) (A) (A) (A) (A) (A) (A) (A) (A) (A) (A) (A)
                 (A) (A) (A) (A) (A) (A) (A) (A) (A) (A) (A) (A)
                 (A) (A) (A) (A) (A) (A) (A) (A) (A) (A) (A) (A)
                 (A) (A) (A) (A) (A) (A) (A) (A) (A) (A) (A) (A)
                 (A) (A) (A) (A) (A) (A) (A) (A) (A) (A) (A) (A)
                 (A) (A) (A) (A) (A) (A) (A) (A) (A) (A) (A) (A)
                 (A) (A) (A) (A) (A) (A) (A) (A) (A) (A) (A) (A)
                 (A) (A) (A) (A) (A) (A) (A) (A) (A) (A) (A) (A)
                 (A) (A) (A) (A) (A) (A) (A) (A) (A) (A) (A) (A)
                 (A) (A) (A) (A) (A) (A) (A) (A) (A) (A) (A) (A)
                 (A) (A) (A) (A) (A) (A) (A) (A) (A) (A) (A) (A)
                 (A) (A) (A) (A) (A) (A) (A) (A) (A) (A) (A) (A)
                 (A) (A) (A) (A) (A) (A) (A) (A) (A) (A) (A) (A)
                 (A) (A) (A) (A) (A) (A) (A) (A) (A) (A) (A) (A)
                 (A) (A) (A) (A) (A) (A) (A) (A) (A) (A) (A) (A)
                 (A) (A) (A) (A) (A) (A) (A) (A) (A) (A) (A) (A)
                 (A) (A) (A) (A) (A) (A) (A) (A) (A) (A) (A) (A)
                 (A) (A) (A) (A) (A) (A) (A) (A) (A) (A) (A) (A)
                 (A) (A) (A) (A) (A) (A) (A) (A) (A) (A) (A) (A)
                 (A) (A) (A) (A) (A) (A) (A) (A) (A) (A) (A) (A)
                 (A) (A) (A) (A) (A) (A) (A) (A) (A) (A) (A) (A)
                 (A) (A) (A) (A) (A) (A) (A) (A) (A) (A) (A) (A)
                 (A) (A) (A) (A) (A) (A) (A) (A) (A) (A) (A) (A)
                 (A) (A) (A) (A) (A) (A) (A) (A) (A) (A) (A) (A)
                 (A) (A) (A) (A) (A) (A) (A) (A) (A) (A) (A) (A)
                 (A) (A) (A) (A) (A) (A) (A) (A) (A) (A) (A) (A)
                 (A) (A) (A) (A) (A) (A) (A) (A) (A) (A) (A) (A)
                 (A) (A) (A) (A) (A) (A) (A) (A) (A) (A) (A) (A)
                 (A) (A) (A) (A) (A) (A) (A) (A) (A) (A) (A) (A)
                 (A) (A) (A) (A) (A) (A) (A) (A) (A) (A) (A) (A)
                 (A) (A) (A) (A) (A) (A) (A) (A) (A) (A) (A) (A)
                 (A) (A) (A) (A) (A) (A) (A) (A) (A) (A) (A) (A)
                 (A) (A) (A) (A) (A) (A) (A) (A) (A) (A) (A) (A)
                 (A) (A) (A) (A) (A) (A) (A) (A) (A) (A) (A) (A)
                 (A) (A) (A) (A) (A) (A) (A) (A) (A) (A) (A) (A)
                 (A) (A) (A) (A) (A) (A) (A) (A) (A) (A) (A) (A)
                 (A) (A) (A) (A) (A) (A) (A)
 The electronic state is 1-A.
 Alpha  occ. eigenvalues --  -19.25840 -19.21886 -19.20504 -14.52356 -14.52186
 Alpha  occ. eigenvalues --  -14.49085 -14.48465 -14.47811 -14.47692 -14.46470
 Alpha  occ. eigenvalues --  -14.45691 -14.45139 -14.43710 -14.42743 -14.42688
 Alpha  occ. eigenvalues --  -14.41902 -14.41720 -14.41362 -14.40577 -14.40527
 Alpha  occ. eigenvalues --  -10.45442 -10.40645 -10.40014 -10.39416 -10.37970
 Alpha  occ. eigenvalues --  -10.37697 -10.37669 -10.36707 -10.35809 -10.35326
 Alpha  occ. eigenvalues --  -10.35110 -10.34407 -10.34380 -10.34086 -10.33697
 Alpha  occ. eigenvalues --  -10.33497 -10.33059 -10.31955 -10.31295 -10.31011
 Alpha  occ. eigenvalues --  -10.30537 -10.28849 -10.27851  -1.19448  -1.14870
 Alpha  occ. eigenvalues --   -1.13143  -1.12924  -1.11664  -1.10398  -1.09247
 Alpha  occ. eigenvalues --   -1.08879  -1.08260  -1.05372  -1.04311  -1.02422
 Alpha  occ. eigenvalues --   -1.00859  -1.00762  -0.99419  -0.98417  -0.97305
 Alpha  occ. eigenvalues --   -0.96431  -0.96197  -0.93050  -0.90955  -0.87398
 Alpha  occ. eigenvalues --   -0.85958  -0.84281  -0.83831  -0.83556  -0.82653
 Alpha  occ. eigenvalues --   -0.82223  -0.78784  -0.76698  -0.74598  -0.74425
 Alpha  occ. eigenvalues --   -0.73412  -0.73276  -0.73264  -0.71459  -0.70171
 Alpha  occ. eigenvalues --   -0.67147  -0.66688  -0.66577  -0.66412  -0.64357
 Alpha  occ. eigenvalues --   -0.64072  -0.63589  -0.63102  -0.62765  -0.61462
 Alpha  occ. eigenvalues --   -0.60721  -0.60580  -0.60245  -0.59454  -0.59283
 Alpha  occ. eigenvalues --   -0.59121  -0.58122  -0.57219  -0.56768  -0.56506
 Alpha  occ. eigenvalues --   -0.55956  -0.55707  -0.55371  -0.55013  -0.54265
 Alpha  occ. eigenvalues --   -0.54096  -0.53457  -0.53151  -0.52787  -0.52701
 Alpha  occ. eigenvalues --   -0.52356  -0.52255  -0.52091  -0.51149  -0.50528
 Alpha  occ. eigenvalues --   -0.49959  -0.49539  -0.49356  -0.48890  -0.48736
 Alpha  occ. eigenvalues --   -0.48600  -0.48264  -0.48015  -0.47599  -0.47269
 Alpha  occ. eigenvalues --   -0.47232  -0.45836  -0.45148  -0.43828  -0.43775
 Alpha  occ. eigenvalues --   -0.41514  -0.40837  -0.39446  -0.37761  -0.37606
 Alpha  occ. eigenvalues --   -0.37421  -0.37109  -0.36560  -0.35901  -0.34490
 Alpha  occ. eigenvalues --   -0.34132  -0.33906  -0.33745  -0.33064  -0.32526
 Alpha  occ. eigenvalues --   -0.32312  -0.31849  -0.31678  -0.31553  -0.31198
 Alpha  occ. eigenvalues --   -0.30752  -0.28984  -0.26138  -0.24840
 Alpha virt. eigenvalues --    0.03157   0.04468   0.07216   0.07667   0.08721
 Alpha virt. eigenvalues --    0.09452   0.09986   0.10594   0.10863   0.11456
 Alpha virt. eigenvalues --    0.12980   0.13921   0.14088   0.14661   0.14887
 Alpha virt. eigenvalues --    0.15842   0.15919   0.16838   0.17163   0.17978
 Alpha virt. eigenvalues --    0.18688   0.19251   0.19365   0.20100   0.20527
 Alpha virt. eigenvalues --    0.20613   0.21172   0.21535   0.21981   0.22133
 Alpha virt. eigenvalues --    0.23141   0.23404   0.23631   0.23786   0.24046
 Alpha virt. eigenvalues --    0.24132   0.24239   0.24565   0.25201   0.25555
 Alpha virt. eigenvalues --    0.26041   0.26790   0.27200   0.27417   0.28197
 Alpha virt. eigenvalues --    0.28683   0.29336   0.29633   0.30464   0.30866
 Alpha virt. eigenvalues --    0.31226   0.32184   0.32806   0.33190   0.33867
 Alpha virt. eigenvalues --    0.33944   0.34385   0.34916   0.36108   0.36341
 Alpha virt. eigenvalues --    0.37267   0.37325   0.37923   0.39280   0.39748
 Alpha virt. eigenvalues --    0.40000   0.40573   0.41426   0.41463   0.41774
 Alpha virt. eigenvalues --    0.42246   0.42459   0.43372   0.44396   0.44673
 Alpha virt. eigenvalues --    0.44998   0.45441   0.46099   0.46866   0.47788
 Alpha virt. eigenvalues --    0.47905   0.48449   0.48904   0.49559   0.49614
 Alpha virt. eigenvalues --    0.50044   0.50618   0.50989   0.51368   0.51483
 Alpha virt. eigenvalues --    0.51713   0.52450   0.53014   0.53253   0.54037
 Alpha virt. eigenvalues --    0.54103   0.54922   0.55214   0.55442   0.55893
 Alpha virt. eigenvalues --    0.56011   0.56947   0.57126   0.57630   0.58020
 Alpha virt. eigenvalues --    0.58202   0.58297   0.59497   0.59572   0.59800
 Alpha virt. eigenvalues --    0.60004   0.60399   0.60958   0.61236   0.61953
 Alpha virt. eigenvalues --    0.62099   0.62695   0.63262   0.63863   0.64126
 Alpha virt. eigenvalues --    0.64444   0.64874   0.64992   0.65266   0.65769
 Alpha virt. eigenvalues --    0.66209   0.66594   0.66723   0.67611   0.67856
 Alpha virt. eigenvalues --    0.68471   0.68648   0.69236   0.69581   0.70025
 Alpha virt. eigenvalues --    0.70313   0.70526   0.71317   0.71465   0.71881
 Alpha virt. eigenvalues --    0.72849   0.73258   0.73532   0.73886   0.74234
 Alpha virt. eigenvalues --    0.74487   0.74893   0.75012   0.75655   0.75844
 Alpha virt. eigenvalues --    0.76368   0.76547   0.76670   0.76923   0.77334
 Alpha virt. eigenvalues --    0.77600   0.77796   0.78210   0.78691   0.78880
 Alpha virt. eigenvalues --    0.79293   0.79713   0.80211   0.80561   0.80915
 Alpha virt. eigenvalues --    0.81336   0.81933   0.82645   0.82962   0.83488
 Alpha virt. eigenvalues --    0.83922   0.84147   0.84398   0.85088   0.85267
 Alpha virt. eigenvalues --    0.85746   0.86057   0.86480   0.87030   0.87424
 Alpha virt. eigenvalues --    0.87860   0.88832   0.88958   0.89608   0.90068
 Alpha virt. eigenvalues --    0.90682   0.90876   0.91486   0.91999   0.92349
 Alpha virt. eigenvalues --    0.92916   0.93095   0.93530   0.94110   0.94474
 Alpha virt. eigenvalues --    0.95182   0.95695   0.95896   0.96399   0.96832
 Alpha virt. eigenvalues --    0.97227   0.97608   0.97969   0.98289   0.98841
 Alpha virt. eigenvalues --    0.99966   1.00331   1.00921   1.01267   1.01531
 Alpha virt. eigenvalues --    1.02220   1.02328   1.02706   1.03349   1.03677
 Alpha virt. eigenvalues --    1.03922   1.04849   1.05240   1.05717   1.06413
 Alpha virt. eigenvalues --    1.06954   1.07553   1.07679   1.08014   1.09175
 Alpha virt. eigenvalues --    1.09619   1.10047   1.10615   1.11605   1.11816
 Alpha virt. eigenvalues --    1.12090   1.12683   1.12818   1.13359   1.13948
 Alpha virt. eigenvalues --    1.14122   1.14618   1.15276   1.15384   1.16046
 Alpha virt. eigenvalues --    1.16782   1.17294   1.17824   1.17974   1.18509
 Alpha virt. eigenvalues --    1.18775   1.18972   1.19457   1.20068   1.20343
 Alpha virt. eigenvalues --    1.20718   1.20877   1.21345   1.21489   1.21870
 Alpha virt. eigenvalues --    1.22482   1.22983   1.23605   1.23913   1.24077
 Alpha virt. eigenvalues --    1.24566   1.24954   1.25365   1.25667   1.26732
 Alpha virt. eigenvalues --    1.27377   1.27678   1.28106   1.29320   1.29662
 Alpha virt. eigenvalues --    1.30646   1.31039   1.31550   1.32363   1.33414
 Alpha virt. eigenvalues --    1.33631   1.33857   1.34795   1.35031   1.35604
 Alpha virt. eigenvalues --    1.36231   1.36397   1.37070   1.38722   1.39070
 Alpha virt. eigenvalues --    1.39858   1.40262   1.40727   1.41200   1.41919
 Alpha virt. eigenvalues --    1.42511   1.43258   1.44100   1.45085   1.45531
 Alpha virt. eigenvalues --    1.47237   1.48147   1.48849   1.49264   1.49519
 Alpha virt. eigenvalues --    1.50220   1.50281   1.50816   1.51936   1.52473
 Alpha virt. eigenvalues --    1.52636   1.53095   1.53561   1.54949   1.55708
 Alpha virt. eigenvalues --    1.55813   1.56193   1.57101   1.57252   1.58380
 Alpha virt. eigenvalues --    1.59529   1.59953   1.60600   1.60974   1.61715
 Alpha virt. eigenvalues --    1.62076   1.63325   1.63601   1.63975   1.64489
 Alpha virt. eigenvalues --    1.65521   1.65918   1.66452   1.67150   1.67656
 Alpha virt. eigenvalues --    1.67826   1.68416   1.68586   1.69543   1.69795
 Alpha virt. eigenvalues --    1.70358   1.70498   1.71535   1.71714   1.72063
 Alpha virt. eigenvalues --    1.72236   1.73101   1.73388   1.73710   1.74192
 Alpha virt. eigenvalues --    1.74506   1.74640   1.75403   1.75474   1.75797
 Alpha virt. eigenvalues --    1.75987   1.76252   1.77171   1.77480   1.77756
 Alpha virt. eigenvalues --    1.78412   1.78644   1.79072   1.79513   1.79726
 Alpha virt. eigenvalues --    1.79780   1.80084   1.80388   1.80708   1.81090
 Alpha virt. eigenvalues --    1.81843   1.82272   1.82486   1.82953   1.83716
 Alpha virt. eigenvalues --    1.83812   1.83975   1.84628   1.84658   1.85406
 Alpha virt. eigenvalues --    1.85935   1.86526   1.87519   1.87845   1.88242
 Alpha virt. eigenvalues --    1.88419   1.88755   1.89556   1.89889   1.90078
 Alpha virt. eigenvalues --    1.91008   1.91398   1.91779   1.92182   1.93020
 Alpha virt. eigenvalues --    1.93251   1.93886   1.94404   1.94599   1.95211
 Alpha virt. eigenvalues --    1.95724   1.96335   1.97555   1.98189   1.98373
 Alpha virt. eigenvalues --    1.99583   2.00678   2.00955   2.01687   2.02144
 Alpha virt. eigenvalues --    2.02418   2.02810   2.04009   2.04732   2.05234
 Alpha virt. eigenvalues --    2.05674   2.05923   2.07117   2.07505   2.07868
 Alpha virt. eigenvalues --    2.08466   2.08709   2.09873   2.10453   2.10803
 Alpha virt. eigenvalues --    2.11099   2.11555   2.11904   2.13278   2.14002
 Alpha virt. eigenvalues --    2.14717   2.15255   2.16238   2.16668   2.18288
 Alpha virt. eigenvalues --    2.19432   2.20078   2.20710   2.20995   2.21339
 Alpha virt. eigenvalues --    2.21884   2.22682   2.22979   2.23792   2.24440
 Alpha virt. eigenvalues --    2.24852   2.26014   2.26469   2.26950   2.27371
 Alpha virt. eigenvalues --    2.27511   2.28146   2.29037   2.29850   2.30247
 Alpha virt. eigenvalues --    2.30758   2.31175   2.32038   2.32326   2.32988
 Alpha virt. eigenvalues --    2.33391   2.34156   2.34548   2.34987   2.35863
 Alpha virt. eigenvalues --    2.36155   2.36711   2.37337   2.37889   2.37926
 Alpha virt. eigenvalues --    2.39271   2.39585   2.40204   2.41307   2.41709
 Alpha virt. eigenvalues --    2.41833   2.42231   2.43261   2.43309   2.43748
 Alpha virt. eigenvalues --    2.45390   2.45473   2.46434   2.47099   2.47661
 Alpha virt. eigenvalues --    2.48000   2.48856   2.49973   2.50537   2.52304
 Alpha virt. eigenvalues --    2.53114   2.53598   2.55621   2.56066   2.56589
 Alpha virt. eigenvalues --    2.56935   2.57816   2.58534   2.59490   2.60370
 Alpha virt. eigenvalues --    2.61623   2.61946   2.62640   2.63132   2.64260
 Alpha virt. eigenvalues --    2.65029   2.65407   2.65711   2.66033   2.66642
 Alpha virt. eigenvalues --    2.67885   2.68450   2.68952   2.69783   2.70211
 Alpha virt. eigenvalues --    2.70890   2.71321   2.71640   2.72283   2.73272
 Alpha virt. eigenvalues --    2.73673   2.74561   2.74685   2.75244   2.75514
 Alpha virt. eigenvalues --    2.78546   2.78933   2.79750   2.79894   2.80126
 Alpha virt. eigenvalues --    2.80427   2.80612   2.81317   2.81602   2.81992
 Alpha virt. eigenvalues --    2.82612   2.83127   2.83457   2.84487   2.84717
 Alpha virt. eigenvalues --    2.85616   2.86242   2.86793   2.86990   2.87638
 Alpha virt. eigenvalues --    2.89020   2.89559   2.89963   2.92434   2.94497
 Alpha virt. eigenvalues --    2.95532   2.96813   2.97841   2.99067   2.99484
 Alpha virt. eigenvalues --    3.00709   3.01813   3.03032   3.05176   3.07136
 Alpha virt. eigenvalues --    3.08286   3.10459   3.11047   3.14035   3.14652
 Alpha virt. eigenvalues --    3.15211   3.16586   3.16638   3.18338   3.21267
 Alpha virt. eigenvalues --    3.22362   3.23181   3.23707   3.24097   3.27627
 Alpha virt. eigenvalues --    3.45613   3.47501   3.48850   3.49640   3.50625
 Alpha virt. eigenvalues --    3.53464   3.54287   3.56613   3.58239   3.60527
 Alpha virt. eigenvalues --    3.63847   3.70763   3.74892
          Condensed to atoms (all electrons):
 Mulliken charges:
               1
     1  N   -0.312867
     2  C    0.180577
     3  C    0.049529
     4  N   -0.260625
     5  C    0.134948
     6  H    0.027449
     7  N   -0.280821
     8  C    0.136244
     9  H    0.008465
    10  N   -0.291586
    11  C    0.241230
    12  C    0.115156
    13  N   -0.054272
    14  H    0.107990
    15  H    0.087129
    16  H    0.026349
    17  H    0.031879
    18  H    0.026923
    19  N   -0.297700
    20  C    0.236136
    21  C    0.177146
    22  N   -0.062569
    23  H    0.106252
    24  H    0.111796
    25  N   -0.294089
    26  C    0.194988
    27  N   -0.131226
    28  H    0.123381
    29  C    0.144868
    30  O   -0.320320
    31  C    0.025504
    32  N   -0.222295
    33  C    0.121736
    34  H    0.021319
    35  H    0.031465
    36  H    0.026513
    37  H    0.023558
    38  H    0.061494
    39  H    0.059419
    40  H    0.067382
    41  H    0.030294
    42  C   -0.114617
    43  O   -0.265297
    44  C    0.176930
    45  H    0.133157
    46  N   -0.129837
    47  O   -0.343933
    48  C    0.351583
    49  H    0.047348
    50  C    0.174694
    51  C    0.042828
    52  N   -0.287573
    53  H    0.038682
    54  H    0.020166
    55  H    0.028602
    56  H    0.122835
    57  H    0.116939
    58  N   -0.065868
    59  C    0.103064
    60  C    0.255665
    61  N   -0.299529
    62  H    0.034502
    63  C    0.183659
    64  N   -0.303283
    65  H    0.032632
    66  C    0.119517
    67  N   -0.257663
    68  C    0.005586
    69  C    0.178251
    70  N   -0.307789
 Sum of Mulliken charges =  -0.00000
 Mulliken charges with hydrogens summed into heavy atoms:
               1
     1  N   -0.312867
     2  C    0.265728
     3  C    0.049529
     4  N   -0.260625
     5  C    0.162397
     7  N   -0.280821
     8  C    0.144709
    10  N   -0.291586
    11  C    0.241230
    12  C    0.115156
    13  N    0.140847
    19  N   -0.297700
    20  C    0.236136
    21  C    0.258682
    22  N    0.155479
    25  N   -0.294089
    26  C    0.194988
    27  N   -0.007845
    29  C    0.144868
    30  O   -0.320320
    31  C    0.025504
    32  N   -0.222295
    33  C    0.143055
    42  C   -0.084324
    43  O   -0.265297
    44  C    0.176930
    46  N    0.003319
    47  O   -0.343933
    48  C    0.351583
    50  C    0.222042
    51  C    0.231124
    52  N   -0.287573
    58  N    0.173907
    59  C    0.103064
    60  C    0.255665
    61  N   -0.299529
    63  C    0.218160
    64  N   -0.303283
    66  C    0.152149
    67  N   -0.257663
    68  C    0.005586
    69  C    0.265701
    70  N   -0.307789
 Electronic spatial extent (au):  <R**2>=          22279.6068
 Charge=             -0.0000 electrons
 Dipole moment (field-independent basis, Debye):
    X=              7.1051    Y=              5.9727    Z=              3.4097  Tot=              9.8885
 Quadrupole moment (field-independent basis, Debye-Ang):
   XX=           -147.7434   YY=           -224.1513   ZZ=           -256.2622
   XY=              5.6868   XZ=              6.2721   YZ=            -11.4396
 Traceless Quadrupole moment (field-independent basis, Debye-Ang):
   XX=             61.6423   YY=            -14.7657   ZZ=            -46.8766
   XY=              5.6868   XZ=              6.2721   YZ=            -11.4396
 Octapole moment (field-independent basis, Debye-Ang**2):
  XXX=            -40.3010  YYY=            115.0295  ZZZ=              6.4626  XYY=             71.6582
  XXY=             -6.0375  XXZ=            -47.4568  XZZ=             22.7685  YZZ=             25.3747
  YYZ=             65.4816  XYZ=             42.7562
 Hexadecapole moment (field-independent basis, Debye-Ang**3):
 XXXX=         -15130.4689 YYYY=          -5450.2621 ZZZZ=          -3309.5974 XXXY=            491.6854
 XXXZ=            -59.3286 YYYX=             41.6301 YYYZ=           -116.3319 ZZZX=             10.6300
 ZZZY=            -27.8046 XXYY=          -3668.2691 XXZZ=          -3921.9113 YYZZ=          -1492.2644
 XXYZ=             71.7437 YYXZ=            227.9895 ZZXY=             13.6447
 N-N= 5.559670958081D+03 E-N=-1.590024758513D+04  KE= 2.037990791083D+03
 No NMR shielding tensors so no spin-rotation constants.
 Leave Link  601 at Tue Jan 23 01:35:32 2018, MaxMem=  4294967296 cpu:              45.9 elap:               1.6
 (Enter /share/apps/g16/l9999.exe)
 1\1\GINC-COMPUTE-0-3\SP\RwB97XD\CC-pVDZ\C23H27N17O3\SATYA\23-Jan-2018\
 0\\#p wb97xd/cc-pvdz sp scf=(maxcycles=20)\\Base pair stacking\\0,1\N,
 0,4.91702,4.3534,-7.65749\C,0,5.8396,5.50196,-7.74496\C,0,3.15047,3.09
 279,-7.30044\N,0,4.13027,2.25271,-7.80933\C,0,5.15534,3.0458,-8.00407\
 H,0,6.11909,2.72696,-8.40213\N,0,1.11891,3.91691,-6.43064\C,0,1.70955,
 5.11579,-6.39302\H,0,1.09002,5.92771,-6.01456\N,0,2.94477,5.46068,-6.7
 5103\C,0,3.62073,4.39068,-7.20115\C,0,1.82555,2.86052,-6.88864\N,0,1.2
 377,1.66296,-6.92695\H,0,1.72293,0.85312,-7.2585\H,0,0.29276,1.53453,-
 6.62573\H,0,6.12196,5.63282,-8.69539\H,0,5.37834,6.32655,-7.41873\H,0,
 6.64638,5.32787,-7.18033\N,0,1.91791,5.44504,-3.36458\C,0,0.84923,4.60
 034,-3.18439\C,0,1.85693,6.91989,-3.32226\N,0,-2.5347,4.12035,-2.56765
 \H,0,-3.16422,3.35038,-2.46724\H,0,-2.92221,5.0381,-2.47656\N,0,-0.425
 84,4.97276,-2.94036\C,0,-1.22936,3.93168,-2.81342\N,0,-0.81768,2.62506
 ,-2.91716\H,0,-1.50192,1.89267,-2.80582\C,0,0.48917,2.21864,-3.16779\O
 ,0,0.75542,1.0127,-3.24248\C,0,1.364,3.32602,-3.30655\N,0,2.72839,3.36
 981,-3.55837\C,0,3.01181,4.64387,-3.58406\H,0,4.00636,5.05536,-3.75964
 \H,0,2.15608,7.29284,-4.19988\H,0,0.91719,7.20748,-3.14213\H,0,2.45327
 ,7.25909,-2.59553\H,0,-5.49368,-1.25668,-2.79254\H,0,-5.01598,-1.52089
 ,-1.11723\H,0,-4.7416,0.04835,-1.87457\H,0,-1.77556,-4.24924,-3.39811\
 C,0,-1.96098,-3.19757,-3.17938\O,0,0.24847,-2.50947,-3.70087\C,0,-0.89
 769,-2.25232,-3.33349\H,0,-0.51345,-0.25273,-3.12769\N,0,-1.23863,-0.9
 4948,-3.0308\O,0,-2.66768,0.68526,-2.36549\C,0,-2.46158,-0.49056,-2.60
 97\H,0,-4.00639,-3.45889,-2.63735\C,0,-3.16481,-2.78036,-2.77031\C,0,-
 4.75863,-1.01895,-2.03804\N,0,-3.43523,-1.46203,-2.48528\H,0,-6.43401,
 3.56806,-4.08244\H,0,-4.9721,3.9148,-3.44628\H,0,-5.98545,2.90523,-2.6
 6017\H,0,-1.30052,-0.99604,-6.88989\H,0,-2.91152,-1.48056,-6.607\N,0,-
 2.19996,-0.78414,-6.50747\C,0,-2.44087,0.37529,-5.89196\C,0,-3.78292,1
 .96041,-4.73092\N,0,-2.80826,2.87709,-4.61193\H,0,-0.83779,3.12234,-5.
 11958\C,0,-1.68298,2.43734,-5.17162\N,0,-1.43969,1.27642,-5.78858\H,0,
 -6.73213,0.67877,-4.39666\C,0,-5.68653,0.87624,-4.63471\N,0,-4.89721,0
 .04527,-5.27043\C,0,-3.68711,0.7204,-5.33814\C,0,-5.66412,3.20245,-3.5
 5938\N,0,-5.07766,2.05483,-4.27843\\Version=EM64L-G16RevA.03\State=1-A
 \HF=-2048.7080611\RMSD=7.381e-09\Dipole=-3.7832583,0.7108819,0.5629856
 \Quadrupole=22.763658,-2.8790743,-19.8845836,28.0303297,-23.9922372,2.
 7277462\PG=C01 [X(C23H27N17O3)]\\@


 A MUSTACHE HAIR ACROSS A CHIP IS LIKE A REDWOOD
 TREE FALLING THROUGH A HOUSING PROJECT.
 - AN IBM MANAGER IN EAST FISHKILL, NEW YORK
   AS QUOTED IN "FROM SANDS TO CIRCUITS", IBM INNOVATION JANUARY 1985.
 Job cpu time:       0 days  6 hours 17 minutes 42.0 seconds.
 Elapsed time:       0 days  0 hours 12 minutes 10.7 seconds.
 File lengths (MBytes):  RWF=    298 Int=      0 D2E=      0 Chk=     33 Scr=      1
 Normal termination of Gaussian 16 at Tue Jan 23 01:35:32 2018.
