 Entering Gaussian System, Link 0=g16
 Input=str40.20.1.0.com
 Output=str40.20.1.0.log
 Initial command:
 /share/apps/g16/l1.exe "/state/partition1/scr/Gau-11790.inp" -scrdir="/state/partition1/scr/"
 Entering Link 1 = /share/apps/g16/l1.exe PID=     11791.
  
 Copyright (c) 1988,1990,1992,1993,1995,1998,2003,2009,2016,
            Gaussian, Inc.  All Rights Reserved.
  
 This is part of the Gaussian(R) 16 program.  It is based on
 the Gaussian(R) 09 system (copyright 2009, Gaussian, Inc.),
 the Gaussian(R) 03 system (copyright 2003, Gaussian, Inc.),
 the Gaussian(R) 98 system (copyright 1998, Gaussian, Inc.),
 the Gaussian(R) 94 system (copyright 1995, Gaussian, Inc.),
 the Gaussian 92(TM) system (copyright 1992, Gaussian, Inc.),
 the Gaussian 90(TM) system (copyright 1990, Gaussian, Inc.),
 the Gaussian 88(TM) system (copyright 1988, Gaussian, Inc.),
 the Gaussian 86(TM) system (copyright 1986, Carnegie Mellon
 University), and the Gaussian 82(TM) system (copyright 1983,
 Carnegie Mellon University). Gaussian is a federally registered
 trademark of Gaussian, Inc.
  
 This software contains proprietary and confidential information,
 including trade secrets, belonging to Gaussian, Inc.
  
 This software is provided under written license and may be
 used, copied, transmitted, or stored only in accord with that
 written license.
  
 The following legend is applicable only to US Government
 contracts under FAR:
  
                    RESTRICTED RIGHTS LEGEND
  
 Use, reproduction and disclosure by the US Government is
 subject to restrictions as set forth in subparagraphs (a)
 and (c) of the Commercial Computer Software - Restricted
 Rights clause in FAR 52.227-19.
  
 Gaussian, Inc.
 340 Quinnipiac St., Bldg. 40, Wallingford CT 06492
  
  
 ---------------------------------------------------------------
 Warning -- This program may not be used in any manner that
 competes with the business of Gaussian, Inc. or will provide
 assistance to any competitor of Gaussian, Inc.  The licensee
 of this program is prohibited from giving any competitor of
 Gaussian, Inc. access to this program.  By using this program,
 the user acknowledges that Gaussian, Inc. is engaged in the
 business of creating and licensing software in the field of
 computational chemistry and represents and warrants to the
 licensee that it is not a competitor of Gaussian, Inc. and that
 it will not use this program in any manner prohibited above.
 ---------------------------------------------------------------
  

 Cite this work as:
 Gaussian 16, Revision A.03,
 M. J. Frisch, G. W. Trucks, H. B. Schlegel, G. E. Scuseria, 
 M. A. Robb, J. R. Cheeseman, G. Scalmani, V. Barone, 
 G. A. Petersson, H. Nakatsuji, X. Li, M. Caricato, A. V. Marenich, 
 J. Bloino, B. G. Janesko, R. Gomperts, B. Mennucci, H. P. Hratchian, 
 J. V. Ortiz, A. F. Izmaylov, J. L. Sonnenberg, D. Williams-Young, 
 F. Ding, F. Lipparini, F. Egidi, J. Goings, B. Peng, A. Petrone, 
 T. Henderson, D. Ranasinghe, V. G. Zakrzewski, J. Gao, N. Rega, 
 G. Zheng, W. Liang, M. Hada, M. Ehara, K. Toyota, R. Fukuda, 
 J. Hasegawa, M. Ishida, T. Nakajima, Y. Honda, O. Kitao, H. Nakai, 
 T. Vreven, K. Throssell, J. A. Montgomery, Jr., J. E. Peralta, 
 F. Ogliaro, M. J. Bearpark, J. J. Heyd, E. N. Brothers, K. N. Kudin, 
 V. N. Staroverov, T. A. Keith, R. Kobayashi, J. Normand, 
 K. Raghavachari, A. P. Rendell, J. C. Burant, S. S. Iyengar, 
 J. Tomasi, M. Cossi, J. M. Millam, M. Klene, C. Adamo, R. Cammi, 
 J. W. Ochterski, R. L. Martin, K. Morokuma, O. Farkas, 
 J. B. Foresman, and D. J. Fox, Gaussian, Inc., Wallingford CT, 2016.
 
 ******************************************
 Gaussian 16:  EM64L-G16RevA.03 25-Dec-2016
                 1-Feb-2018 
 ******************************************
 %nprocshared=32
 Will use up to   32 processors via shared memory.
 %mem=32GB
 %chk=allatoms_t.chk
 ---------------------------------------
 #p wb97xd/cc-pvdz sp scf=(maxcycles=20)
 ---------------------------------------
 1/38=1,172=1/1;
 2/12=2,17=6,18=5,40=1/2;
 3/5=16,11=2,25=1,30=1,74=-58/1,2,3;
 4//1;
 5/5=2,7=20,38=5/2;
 6/7=2,8=2,9=2,10=2,28=1/1;
 99/5=1,9=1/99;
 Leave Link    1 at Thu Feb  1 13:19:29 2018, MaxMem=  4294967296 cpu:               4.3 elap:               0.2
 (Enter /share/apps/g16/l101.exe)
 ------------------
 Base pair stacking
 ------------------
 Symbolic Z-matrix:
 Charge =  0 Multiplicity = 1
 N                     5.93014   0.1769   -4.74112 
 C                     6.95738   1.23357  -4.81998 
 C                     4.10196  -1.00996  -5.03516 
 N                     4.88839  -1.72338  -4.14225 
 C                     5.95833  -0.97979  -4.00084 
 H                     6.80689  -1.22929  -3.36317 
 N                     2.33569  -0.34855  -6.45141 
 C                     3.06186   0.74104  -6.72169 
 H                     2.60611   1.44231  -7.41938 
 N                     4.26085   1.09277  -6.26169 
 C                     4.7309    0.16354  -5.41315 
 C                     2.83627  -1.26456  -5.59384 
 N                     2.11288  -2.35287  -5.32278 
 H                     2.44412  -3.05712  -4.69387 
 H                     1.21568  -2.50127  -5.73888 
 H                     7.81387   0.84316  -5.15788 
 H                     6.65059   1.95182  -5.44378 
 H                     7.10672   1.6246   -3.9118 
 N                     2.27854   3.56121  -3.15237 
 C                     1.22146   2.71568  -3.3884 
 C                     2.28742   5.01292  -3.42281 
 N                    -2.02606   2.1998   -4.5061 
 H                    -2.66113   1.43346  -4.59918 
 H                    -2.35376   3.09868  -4.79822 
 N                     0.02293   3.06619  -3.9029 
 C                    -0.79032   2.03064  -4.01188 
 N                    -0.45726   0.74907  -3.64558 
 H                    -1.14277   0.01906  -3.76438 
 C                     0.77003   0.36549  -3.11408 
 O                     0.96904  -0.81876  -2.81629 
 C                     1.65426   1.46725  -2.99104 
 N                     2.95685   1.52778  -2.51512 
 C                     3.28489   2.78615  -2.6297 
 H                     4.25164   3.20408  -2.34683 
 H                     3.01198   5.22738  -4.0769 
 H                     1.40469   5.28416  -3.80422 
 H                     2.44883   5.51124  -2.57168 
 H                    -4.75512  -3.25801  -5.20121 
 H                    -5.21226  -3.1782   -3.50142 
 H                    -4.50304  -1.76882  -4.2901 
 H                    -1.42117  -6.13019  -3.2565 
 C                    -1.63272  -5.06621  -3.36335 
 O                     0.56916  -4.38426  -2.8032 
 C                    -0.58789  -4.11738  -3.12691 
 H                    -0.25034  -2.09888  -3.13089 
 N                    -0.96167  -2.79861  -3.28934 
 O                    -2.43601  -1.13778  -3.76383 
 C                    -2.2007   -2.32736  -3.64469 
 H                    -3.6802   -5.31783  -3.90218 
 C                    -2.85154  -4.63722  -3.71128 
 C                    -4.49439  -2.84736  -4.23713 
 N                    -3.15488  -3.30322  -3.85549 
 H                    -4.60712  -1.04635  -10.1921 
 H                    -3.89821  -0.054    -9.10822 
 H                    -5.40711  -0.61408  -8.83689 
 H                    -0.43997  -4.9929   -5.48836 
 H                    -1.89311  -5.5867   -6.1561 
 N                    -1.26303  -4.81979  -6.02944 
 C                    -1.51031  -3.61994  -6.55896 
 C                    -2.76927  -2.03425  -7.80889 
 N                    -1.90529  -1.02272  -7.6224 
 H                    -0.11945  -0.6598   -6.68449 
 C                    -0.87133  -1.42198  -6.88455 
 N                    -0.62184  -2.62326  -6.35327 
 H                    -5.41989  -3.53413  -8.89366 
 C                    -4.4739   -3.27112  -8.41946 
 N                    -3.73592  -4.09776  -7.71966 
 C                    -2.65196  -3.32621  -7.32662 
 C                    -4.51014  -0.83653  -9.21919 
 N                    -3.94892  -2.00537  -8.5143 
 
 ITRead=  0  0  0  0  0  0  0  0  0  0  0  0  0  0  0  0  0  0  0  0
 ITRead=  0  0  0  0  0  0  0  0  0  0  0  0  0  0  0  0  0  0  0  0
 ITRead=  0  0  0  0  0  0  0  0  0  0  0  0  0  0  0  0  0  0  0  0
 ITRead=  0  0  0  0  0  0  0  0  0  0
 MicOpt= -1 -1 -1 -1 -1 -1 -1 -1 -1 -1 -1 -1 -1 -1 -1 -1 -1 -1 -1 -1
 MicOpt= -1 -1 -1 -1 -1 -1 -1 -1 -1 -1 -1 -1 -1 -1 -1 -1 -1 -1 -1 -1
 MicOpt= -1 -1 -1 -1 -1 -1 -1 -1 -1 -1 -1 -1 -1 -1 -1 -1 -1 -1 -1 -1
 MicOpt= -1 -1 -1 -1 -1 -1 -1 -1 -1 -1
 NAtoms=     70 NQM=       70 NQMF=       0 NMMI=      0 NMMIF=      0
                NMic=       0 NMicF=      0.
                    Isotopes and Nuclear Properties:
 (Nuclear quadrupole moments (NQMom) in fm**2, nuclear magnetic moments (NMagM)
  in nuclear magnetons)

  Atom         1           2           3           4           5           6           7           8           9          10
 IAtWgt=          14          12          12          14          12           1          14          12           1          14
 AtmWgt=  14.0030740  12.0000000  12.0000000  14.0030740  12.0000000   1.0078250  14.0030740  12.0000000   1.0078250  14.0030740
 NucSpn=           2           0           0           2           0           1           2           0           1           2
 AtZEff=  -0.0000000  -0.0000000  -0.0000000  -0.0000000  -0.0000000  -0.0000000  -0.0000000  -0.0000000  -0.0000000  -0.0000000
 NQMom=    2.0440000   0.0000000   0.0000000   2.0440000   0.0000000   0.0000000   2.0440000   0.0000000   0.0000000   2.0440000
 NMagM=    0.4037610   0.0000000   0.0000000   0.4037610   0.0000000   2.7928460   0.4037610   0.0000000   2.7928460   0.4037610
 AtZNuc=   7.0000000   6.0000000   6.0000000   7.0000000   6.0000000   1.0000000   7.0000000   6.0000000   1.0000000   7.0000000

  Atom        11          12          13          14          15          16          17          18          19          20
 IAtWgt=          12          12          14           1           1           1           1           1          14          12
 AtmWgt=  12.0000000  12.0000000  14.0030740   1.0078250   1.0078250   1.0078250   1.0078250   1.0078250  14.0030740  12.0000000
 NucSpn=           0           0           2           1           1           1           1           1           2           0
 AtZEff=  -0.0000000  -0.0000000  -0.0000000  -0.0000000  -0.0000000  -0.0000000  -0.0000000  -0.0000000  -0.0000000  -0.0000000
 NQMom=    0.0000000   0.0000000   2.0440000   0.0000000   0.0000000   0.0000000   0.0000000   0.0000000   2.0440000   0.0000000
 NMagM=    0.0000000   0.0000000   0.4037610   2.7928460   2.7928460   2.7928460   2.7928460   2.7928460   0.4037610   0.0000000
 AtZNuc=   6.0000000   6.0000000   7.0000000   1.0000000   1.0000000   1.0000000   1.0000000   1.0000000   7.0000000   6.0000000

  Atom        21          22          23          24          25          26          27          28          29          30
 IAtWgt=          12          14           1           1          14          12          14           1          12          16
 AtmWgt=  12.0000000  14.0030740   1.0078250   1.0078250  14.0030740  12.0000000  14.0030740   1.0078250  12.0000000  15.9949146
 NucSpn=           0           2           1           1           2           0           2           1           0           0
 AtZEff=  -0.0000000  -0.0000000  -0.0000000  -0.0000000  -0.0000000  -0.0000000  -0.0000000  -0.0000000  -0.0000000  -0.0000000
 NQMom=    0.0000000   2.0440000   0.0000000   0.0000000   2.0440000   0.0000000   2.0440000   0.0000000   0.0000000   0.0000000
 NMagM=    0.0000000   0.4037610   2.7928460   2.7928460   0.4037610   0.0000000   0.4037610   2.7928460   0.0000000   0.0000000
 AtZNuc=   6.0000000   7.0000000   1.0000000   1.0000000   7.0000000   6.0000000   7.0000000   1.0000000   6.0000000   8.0000000

  Atom        31          32          33          34          35          36          37          38          39          40
 IAtWgt=          12          14          12           1           1           1           1           1           1           1
 AtmWgt=  12.0000000  14.0030740  12.0000000   1.0078250   1.0078250   1.0078250   1.0078250   1.0078250   1.0078250   1.0078250
 NucSpn=           0           2           0           1           1           1           1           1           1           1
 AtZEff=  -0.0000000  -0.0000000  -0.0000000  -0.0000000  -0.0000000  -0.0000000  -0.0000000  -0.0000000  -0.0000000  -0.0000000
 NQMom=    0.0000000   2.0440000   0.0000000   0.0000000   0.0000000   0.0000000   0.0000000   0.0000000   0.0000000   0.0000000
 NMagM=    0.0000000   0.4037610   0.0000000   2.7928460   2.7928460   2.7928460   2.7928460   2.7928460   2.7928460   2.7928460
 AtZNuc=   6.0000000   7.0000000   6.0000000   1.0000000   1.0000000   1.0000000   1.0000000   1.0000000   1.0000000   1.0000000

  Atom        41          42          43          44          45          46          47          48          49          50
 IAtWgt=           1          12          16          12           1          14          16          12           1          12
 AtmWgt=   1.0078250  12.0000000  15.9949146  12.0000000   1.0078250  14.0030740  15.9949146  12.0000000   1.0078250  12.0000000
 NucSpn=           1           0           0           0           1           2           0           0           1           0
 AtZEff=  -0.0000000  -0.0000000  -0.0000000  -0.0000000  -0.0000000  -0.0000000  -0.0000000  -0.0000000  -0.0000000  -0.0000000
 NQMom=    0.0000000   0.0000000   0.0000000   0.0000000   0.0000000   2.0440000   0.0000000   0.0000000   0.0000000   0.0000000
 NMagM=    2.7928460   0.0000000   0.0000000   0.0000000   2.7928460   0.4037610   0.0000000   0.0000000   2.7928460   0.0000000
 AtZNuc=   1.0000000   6.0000000   8.0000000   6.0000000   1.0000000   7.0000000   8.0000000   6.0000000   1.0000000   6.0000000

  Atom        51          52          53          54          55          56          57          58          59          60
 IAtWgt=          12          14           1           1           1           1           1          14          12          12
 AtmWgt=  12.0000000  14.0030740   1.0078250   1.0078250   1.0078250   1.0078250   1.0078250  14.0030740  12.0000000  12.0000000
 NucSpn=           0           2           1           1           1           1           1           2           0           0
 AtZEff=  -0.0000000  -0.0000000  -0.0000000  -0.0000000  -0.0000000  -0.0000000  -0.0000000  -0.0000000  -0.0000000  -0.0000000
 NQMom=    0.0000000   2.0440000   0.0000000   0.0000000   0.0000000   0.0000000   0.0000000   2.0440000   0.0000000   0.0000000
 NMagM=    0.0000000   0.4037610   2.7928460   2.7928460   2.7928460   2.7928460   2.7928460   0.4037610   0.0000000   0.0000000
 AtZNuc=   6.0000000   7.0000000   1.0000000   1.0000000   1.0000000   1.0000000   1.0000000   7.0000000   6.0000000   6.0000000

  Atom        61          62          63          64          65          66          67          68          69          70
 IAtWgt=          14           1          12          14           1          12          14          12          12          14
 AtmWgt=  14.0030740   1.0078250  12.0000000  14.0030740   1.0078250  12.0000000  14.0030740  12.0000000  12.0000000  14.0030740
 NucSpn=           2           1           0           2           1           0           2           0           0           2
 AtZEff=  -0.0000000  -0.0000000  -0.0000000  -0.0000000  -0.0000000  -0.0000000  -0.0000000  -0.0000000  -0.0000000  -0.0000000
 NQMom=    2.0440000   0.0000000   0.0000000   2.0440000   0.0000000   0.0000000   2.0440000   0.0000000   0.0000000   2.0440000
 NMagM=    0.4037610   2.7928460   0.0000000   0.4037610   2.7928460   0.0000000   0.4037610   0.0000000   0.0000000   0.4037610
 AtZNuc=   7.0000000   1.0000000   6.0000000   7.0000000   1.0000000   6.0000000   7.0000000   6.0000000   6.0000000   7.0000000
 Leave Link  101 at Thu Feb  1 13:19:29 2018, MaxMem=  4294967296 cpu:               7.4 elap:               0.3
 (Enter /share/apps/g16/l202.exe)
 Stoichiometry    C23H27N17O3
 Framework group  C1[X(C23H27N17O3)]
 Deg. of freedom   204
 Full point group                 C1      NOp   1
 Largest Abelian subgroup         C1      NOp   1
 Largest concise Abelian subgroup C1      NOp   1
                         Standard orientation:                         
 ---------------------------------------------------------------------
 Center     Atomic      Atomic             Coordinates (Angstroms)
 Number     Number       Type             X           Y           Z
 ---------------------------------------------------------------------
      1          7           0       -5.230290   -2.096505    1.222198
      2          6           0       -6.603271   -1.741061    1.630332
      3          6           0       -3.044871   -2.118238    0.975595
      4          7           0       -3.529611   -3.186684    0.235205
      5          6           0       -4.826846   -3.130832    0.413408
      6          1           0       -5.543448   -3.825544   -0.025666
      7          7           0       -1.606135   -0.547094    1.987762
      8          6           0       -2.704182    0.005871    2.513219
      9          1           0       -2.530350    0.878510    3.141345
     10          7           0       -3.978728   -0.355578    2.379888
     11          6           0       -4.081389   -1.436956    1.589624
     12          6           0       -1.742833   -1.633920    1.197065
     13          7           0       -0.647916   -2.187314    0.671616
     14          1           0       -0.701870   -2.992878    0.080540
     15          1           0        0.263114   -1.815755    0.850779
     16          1           0       -7.013991   -2.506667    2.125638
     17          1           0       -6.577849   -0.936856    2.223407
     18          1           0       -7.152224   -1.537955    0.819532
     19          7           0       -4.418361    2.615958   -0.886198
     20          6           0       -3.054969    2.472083   -0.978463
     21          6           0       -5.121718    3.855147   -0.498412
     22          7           0        0.136535    3.814045   -0.704217
     23          1           0        1.079375    3.506199   -0.828863
     24          1           0        0.003127    4.764381   -0.421779
     25          7           0       -2.136181    3.430882   -0.732343
     26          6           0       -0.902849    2.990216   -0.906476
     27          7           0       -0.591011    1.708983   -1.292125
     28          1           0        0.380161    1.459980   -1.400635
     29          6           0       -1.520037    0.706045   -1.550761
     30          8           0       -1.133270   -0.418146   -1.893307
     31          6           0       -2.849433    1.164457   -1.367896
     32          7           0       -4.059440    0.500740   -1.517116
     33          6           0       -4.959567    1.398910   -1.221655
     34          1           0       -6.036257    1.225969   -1.232469
     35          1           0       -5.665203    3.688611    0.323601
     36          1           0       -4.451287    4.572526   -0.313629
     37          1           0       -5.722902    4.145796   -1.241984
     38          1           0        5.396785    0.674056   -1.138809
     39          1           0        5.312253    0.891858   -2.885248
     40          1           0        4.186787    1.752552   -1.834585
     41          1           0        3.711595   -3.627244   -2.482498
     42          6           0        3.351545   -2.608560   -2.338029
     43          8           0        1.061541   -3.226490   -2.304249
     44          6           0        1.943805   -2.370751   -2.240228
     45          1           0        0.609808   -0.839906   -1.984758
     46          7           0        1.595820   -1.047466   -2.058368
     47          8           0        2.041727    1.164699   -1.804066
     48          6           0        2.445348    0.026421   -1.965561
     49          1           0        5.284528   -1.709084   -2.319417
     50          6           0        4.204972   -1.581553   -2.251257
     51          6           0        4.733062    0.831816   -1.975856
     52          7           0        3.787113   -0.283630   -2.069170
     53          1           0        5.334372    2.737773    3.916831
     54          1           0        3.970585    3.144484    3.118847
     55          1           0        5.428490    3.454053    2.453437
     56          1           0        2.859869   -3.063033    0.006199
     57          1           0        4.519465   -2.760871    0.260226
     58          7           0        3.572189   -2.451713    0.351236
     59          6           0        3.273204   -1.276268    0.908117
     60          6           0        3.772438    0.800122    1.957444
     61          7           0        2.491421    1.189421    2.066416
     62          1           0        0.615797    0.501120    1.609372
     63          6           0        1.677823    0.264380    1.561181
     64          7           0        1.975327   -0.913539    1.002994
     65          1           0        6.985902    0.991195    2.256257
     66          6           0        5.960727    0.687735    2.042098
     67          7           0        5.622113   -0.440530    1.467618
     68          6           0        4.237287   -0.381995    1.407879
     69          6           0        4.907432    2.811648    3.015583
     70          7           0        4.891346    1.486873    2.365401
 ---------------------------------------------------------------------
 Rotational constants (GHZ):           0.1271958           0.0552422           0.0514125
 Leave Link  202 at Thu Feb  1 13:19:30 2018, MaxMem=  4294967296 cpu:               4.4 elap:               0.2
 (Enter /share/apps/g16/l301.exe)
 Standard basis: CC-pVDZ (5D, 7F)
 Ernie: Thresh=  0.10000D-02 Tol=  0.10000D-05 Strict=F.
 Ernie:  86 primitive shells out of 1081 were deleted.
 There are   780 symmetry adapted cartesian basis functions of A   symmetry.
 There are   737 symmetry adapted basis functions of A   symmetry.
   737 basis functions,  1608 primitive gaussians,   780 cartesian basis functions
   154 alpha electrons      154 beta electrons
       nuclear repulsion energy      5450.6296610971 Hartrees.
 IExCor= 4639 DFT=T Ex+Corr=wB97XD ExCW=0 ScaHFX=  1.000000
 ScaDFX=  1.000000  1.000000  1.000000  1.000000 ScalE2=  1.000000  1.000000
 IRadAn=      5 IRanWt=     -1 IRanGd=            0 ICorTp=0 IEmpDi=121
 HFx  wShort=  0.000000 wLong=  0.200000 cFull=  0.222036 cShort=  0.000000 cLong=  0.777964
 DFx  wShort=  0.000000 wLong=  0.200000 cFull=  0.000000 cShort=  0.000000 cLong=  1.000000
 NAtoms=   70 NActive=   70 NUniq=   70 SFac= 1.00D+00 NAtFMM=   60 NAOKFM=T Big=T
 Integral buffers will be    131072 words long.
 Raffenetti 2 integral format.
 Two-electron integral symmetry is turned on.
 R6Disp:  Grimme-D2 Dispersion energy=       -0.0664016025 Hartrees.
 Nuclear repulsion after empirical dispersion term =     5450.5632594946 Hartrees.
 Leave Link  301 at Thu Feb  1 13:19:30 2018, MaxMem=  4294967296 cpu:               5.6 elap:               0.2
 (Enter /share/apps/g16/l302.exe)
 NPDir=0 NMtPBC=     1 NCelOv=     1 NCel=       1 NClECP=     1 NCelD=      1
         NCelK=      1 NCelE2=     1 NClLst=     1 CellRange=     0.0.
 One-electron integrals computed using PRISM.
 One-electron integral symmetry used in STVInt
 NBasis=   737 RedAO= T EigKep=  6.95D-04  NBF=   737
 NBsUse=   737 1.00D-06 EigRej= -1.00D+00 NBFU=   737
 Precomputing XC quadrature grid using
 IXCGrd= 4 IRadAn=           5 IRanWt=          -1 IRanGd=           0 AccXCQ= 0.00D+00.
 Generated NRdTot=       0 NPtTot=           0 NUsed=           0 NTot=          32
 NSgBfM=   764   762   764   764   764 MxSgAt=    70 MxSgA2=    70.
 Leave Link  302 at Thu Feb  1 13:19:43 2018, MaxMem=  4294967296 cpu:             369.1 elap:              13.5
 (Enter /share/apps/g16/l303.exe)
 DipDrv:  MaxL=1.
 Leave Link  303 at Thu Feb  1 13:19:44 2018, MaxMem=  4294967296 cpu:              26.7 elap:               1.0
 (Enter /share/apps/g16/l401.exe)
 ExpMin= 1.22D-01 ExpMax= 1.17D+04 ExpMxC= 4.01D+02 IAcc=3 IRadAn=         5 AccDes= 0.00D+00
 Harris functional with IExCor= 4639 and IRadAn=       5 diagonalized for initial guess.
 HarFok:  IExCor= 4639 AccDes= 0.00D+00 IRadAn=         5 IDoV= 1 UseB2=F ITyADJ=14
 ICtDFT=  3500011 ScaDFX=  1.000000  1.000000  1.000000  1.000000
 FoFCou: FMM=F IPFlag=           0 FMFlag=      100000 FMFlg1=        2001
         NFxFlg=           0 DoJE=T BraDBF=F KetDBF=T FulRan=T
         wScrn=  0.000000 ICntrl=       500 IOpCl=  0 I1Cent=   200000004 NGrid=           0
         NMat0=    1 NMatS0=      1 NMatT0=    0 NMatD0=    1 NMtDS0=    0 NMtDT0=    0
 Petite list used in FoFCou.
 Harris En= -1963.87460844427    
 JPrj=0 DoOrth=F DoCkMO=F.
 Leave Link  401 at Thu Feb  1 13:20:03 2018, MaxMem=  4294967296 cpu:             511.1 elap:              18.8
 (Enter /share/apps/g16/l502.exe)
 Integral symmetry usage will be decided dynamically.
 Closed shell SCF:
 Using DIIS extrapolation, IDIIS=  1040.
 NGot=  4294967296 LenX=  4293717438 LenY=  4293108258
 Requested convergence on RMS density matrix=1.00D-08 within  20 cycles.
 Requested convergence on MAX density matrix=1.00D-06.
 Requested convergence on             energy=1.00D-06.
 No special actions if energy rises.
 Fock matrices will be formed incrementally for  20 cycles.
 Integral accuracy reduced to 1.0D-05 until final iterations.

 Cycle   1  Pass 0  IDiag  1:
 FoFJK:  IHMeth= 1 ICntrl=       0 DoSepK=T KAlg= 0 I1Cent=           0 FoldK=F
 IRaf=         1 NMat=       1 IRICut=       1 DoRegI=T DoRafI=F ISym2E= 0 IDoP0=0 IntGTp=1.
 FoFCou: FMM=T IPFlag=           0 FMFlag=      100000 FMFlg1=        2001
         NFxFlg=           0 DoJE=T BraDBF=F KetDBF=F FulRan=T
         wScrn=  0.000000 ICntrl=       500 IOpCl=  0 I1Cent=           0 NGrid=           0
         NMat0=    1 NMatS0=      1 NMatT0=    0 NMatD0=    1 NMtDS0=    0 NMtDT0=    0
 Symmetry not used in FoFCou.
 FMM levels:  10  Number of levels for PrismC:   9
 E= -2048.30660150302    
 DIIS: error= 2.71D-02 at cycle   1 NSaved=   1.
 NSaved= 1 IEnMin= 1 EnMin= -2048.30660150302     IErMin= 1 ErrMin= 2.71D-02
 ErrMax= 2.71D-02  0.00D+00 EMaxC= 1.00D-01 BMatC= 8.31D-01 BMatP= 8.31D-01
 IDIUse=3 WtCom= 7.29D-01 WtEn= 2.71D-01
 Coeff-Com:  0.100D+01
 Coeff-En:   0.100D+01
 Coeff:      0.100D+01
 Gap=     0.253 Goal=   None    Shift=    0.000
 GapD=    0.253 DampG=1.000 DampE=0.500 DampFc=0.5000 IDamp=-1.
 Damping current iteration by 5.00D-01
 RMSDP=1.55D-03 MaxDP=1.31D-01              OVMax= 1.65D-01

 Cycle   2  Pass 0  IDiag  1:
 RMSU=  7.75D-04    CP:  9.98D-01
 E= -2048.50364420701     Delta-E=       -0.197042703986 Rises=F Damp=T
 DIIS: error= 1.52D-02 at cycle   2 NSaved=   2.
 NSaved= 2 IEnMin= 2 EnMin= -2048.50364420701     IErMin= 2 ErrMin= 1.52D-02
 ErrMax= 1.52D-02  0.00D+00 EMaxC= 1.00D-01 BMatC= 1.44D-01 BMatP= 8.31D-01
 IDIUse=3 WtCom= 8.48D-01 WtEn= 1.52D-01
 Coeff-Com: -0.202D+00 0.120D+01
 Coeff-En:   0.000D+00 0.100D+01
 Coeff:     -0.172D+00 0.117D+01
 Gap=     0.342 Goal=   None    Shift=    0.000
 RMSDP=5.77D-04 MaxDP=3.52D-02 DE=-1.97D-01 OVMax= 1.37D-01

 Cycle   3  Pass 0  IDiag  1:
 RMSU=  5.63D-04    CP:  9.94D-01  1.15D+00
 E= -2048.68452761887     Delta-E=       -0.180883411861 Rises=F Damp=F
 DIIS: error= 5.75D-03 at cycle   3 NSaved=   3.
 NSaved= 3 IEnMin= 3 EnMin= -2048.68452761887     IErMin= 3 ErrMin= 5.75D-03
 ErrMax= 5.75D-03  0.00D+00 EMaxC= 1.00D-01 BMatC= 5.96D-02 BMatP= 1.44D-01
 IDIUse=3 WtCom= 9.42D-01 WtEn= 5.75D-02
 Coeff-Com: -0.229D+00 0.542D+00 0.687D+00
 Coeff-En:   0.000D+00 0.000D+00 0.100D+01
 Coeff:     -0.216D+00 0.510D+00 0.705D+00
 Gap=     0.270 Goal=   None    Shift=    0.000
 RMSDP=3.38D-04 MaxDP=3.36D-02 DE=-1.81D-01 OVMax= 6.34D-02

 Cycle   4  Pass 0  IDiag  1:
 RMSU=  1.96D-04    CP:  9.95D-01  1.42D+00  6.86D-01
 E= -2048.72979442628     Delta-E=       -0.045266807414 Rises=F Damp=F
 DIIS: error= 2.42D-03 at cycle   4 NSaved=   4.
 NSaved= 4 IEnMin= 4 EnMin= -2048.72979442628     IErMin= 4 ErrMin= 2.42D-03
 ErrMax= 2.42D-03  0.00D+00 EMaxC= 1.00D-01 BMatC= 8.11D-03 BMatP= 5.96D-02
 IDIUse=3 WtCom= 9.76D-01 WtEn= 2.42D-02
 Coeff-Com: -0.962D-01 0.186D+00 0.374D+00 0.536D+00
 Coeff-En:   0.000D+00 0.000D+00 0.430D-01 0.957D+00
 Coeff:     -0.938D-01 0.182D+00 0.366D+00 0.546D+00
 Gap=     0.276 Goal=   None    Shift=    0.000
 RMSDP=1.19D-04 MaxDP=1.18D-02 DE=-4.53D-02 OVMax= 1.27D-02

 Cycle   5  Pass 0  IDiag  1:
 RMSU=  6.20D-05    CP:  9.94D-01  1.40D+00  8.10D-01  6.31D-01
 E= -2048.73635994675     Delta-E=       -0.006565520474 Rises=F Damp=F
 DIIS: error= 5.79D-04 at cycle   5 NSaved=   5.
 NSaved= 5 IEnMin= 5 EnMin= -2048.73635994675     IErMin= 5 ErrMin= 5.79D-04
 ErrMax= 5.79D-04  0.00D+00 EMaxC= 1.00D-01 BMatC= 2.88D-04 BMatP= 8.11D-03
 IDIUse=3 WtCom= 9.94D-01 WtEn= 5.79D-03
 Coeff-Com: -0.252D-01 0.434D-01 0.120D+00 0.242D+00 0.620D+00
 Coeff-En:   0.000D+00 0.000D+00 0.000D+00 0.000D+00 0.100D+01
 Coeff:     -0.250D-01 0.432D-01 0.119D+00 0.241D+00 0.622D+00
 Gap=     0.275 Goal=   None    Shift=    0.000
 RMSDP=2.53D-05 MaxDP=2.17D-03 DE=-6.57D-03 OVMax= 2.86D-03

 Failed to achieve initial convergence to 1.0D-08 in  6 cycles.
 Switch to full accuracy anyway.
 Cycle   6  Pass 1  IDiag  1:
 E= -2048.73660934109     Delta-E=       -0.000249394336 Rises=F Damp=F
 DIIS: error= 2.41D-04 at cycle   1 NSaved=   1.
 NSaved= 1 IEnMin= 1 EnMin= -2048.73660934109     IErMin= 1 ErrMin= 2.41D-04
 ErrMax= 2.41D-04  0.00D+00 EMaxC= 1.00D-01 BMatC= 7.72D-05 BMatP= 7.72D-05
 IDIUse=3 WtCom= 9.98D-01 WtEn= 2.41D-03
 Coeff-Com:  0.100D+01
 Coeff-En:   0.100D+01
 Coeff:      0.100D+01
 Gap=     0.276 Goal=   None    Shift=    0.000
 RMSDP=2.53D-05 MaxDP=2.17D-03 DE=-2.49D-04 OVMax= 1.91D-03

 Cycle   7  Pass 1  IDiag  1:
 RMSU=  1.17D-04    CP:  1.00D+00
 E= -2048.73666711175     Delta-E=       -0.000057770660 Rises=F Damp=F
 DIIS: error= 2.76D-04 at cycle   2 NSaved=   2.
 NSaved= 2 IEnMin= 2 EnMin= -2048.73666711175     IErMin= 1 ErrMin= 2.41D-04
 ErrMax= 2.76D-04  0.00D+00 EMaxC= 1.00D-01 BMatC= 4.58D-05 BMatP= 7.72D-05
 IDIUse=3 WtCom= 9.97D-01 WtEn= 2.76D-03
 Coeff-Com:  0.412D+00 0.588D+00
 Coeff-En:   0.000D+00 0.100D+01
 Coeff:      0.411D+00 0.589D+00
 Gap=     0.275 Goal=   None    Shift=    0.000
 RMSDP=1.13D-05 MaxDP=1.34D-03 DE=-5.78D-05 OVMax= 1.50D-03

 Cycle   8  Pass 1  IDiag  1:
 RMSU=  1.09D-05    CP:  1.00D+00  1.03D+00
 E= -2048.73669906473     Delta-E=       -0.000031952982 Rises=F Damp=F
 DIIS: error= 1.17D-04 at cycle   3 NSaved=   3.
 NSaved= 3 IEnMin= 3 EnMin= -2048.73669906473     IErMin= 3 ErrMin= 1.17D-04
 ErrMax= 1.17D-04  0.00D+00 EMaxC= 1.00D-01 BMatC= 1.09D-05 BMatP= 4.58D-05
 IDIUse=3 WtCom= 9.99D-01 WtEn= 1.17D-03
 Coeff-Com: -0.194D-01 0.315D+00 0.705D+00
 Coeff-En:   0.000D+00 0.136D+00 0.864D+00
 Coeff:     -0.194D-01 0.314D+00 0.705D+00
 Gap=     0.276 Goal=   None    Shift=    0.000
 RMSDP=5.74D-06 MaxDP=5.41D-04 DE=-3.20D-05 OVMax= 5.68D-04

 Cycle   9  Pass 1  IDiag  1:
 RMSU=  3.87D-06    CP:  1.00D+00  1.06D+00  7.61D-01
 E= -2048.73670878812     Delta-E=       -0.000009723383 Rises=F Damp=F
 DIIS: error= 2.89D-05 at cycle   4 NSaved=   4.
 NSaved= 4 IEnMin= 4 EnMin= -2048.73670878812     IErMin= 4 ErrMin= 2.89D-05
 ErrMax= 2.89D-05  0.00D+00 EMaxC= 1.00D-01 BMatC= 5.05D-07 BMatP= 1.09D-05
 IDIUse=1 WtCom= 1.00D+00 WtEn= 0.00D+00
 Coeff-Com: -0.305D-01 0.877D-01 0.259D+00 0.684D+00
 Coeff:     -0.305D-01 0.877D-01 0.259D+00 0.684D+00
 Gap=     0.276 Goal=   None    Shift=    0.000
 RMSDP=1.46D-06 MaxDP=1.42D-04 DE=-9.72D-06 OVMax= 3.50D-04

 Cycle  10  Pass 1  IDiag  1:
 RMSU=  1.29D-06    CP:  1.00D+00  1.06D+00  7.94D-01  1.11D+00
 E= -2048.73670963641     Delta-E=       -0.000000848297 Rises=F Damp=F
 DIIS: error= 1.31D-05 at cycle   5 NSaved=   5.
 NSaved= 5 IEnMin= 5 EnMin= -2048.73670963641     IErMin= 5 ErrMin= 1.31D-05
 ErrMax= 1.31D-05  0.00D+00 EMaxC= 1.00D-01 BMatC= 1.21D-07 BMatP= 5.05D-07
 IDIUse=1 WtCom= 1.00D+00 WtEn= 0.00D+00
 Coeff-Com: -0.259D-02-0.556D-01-0.122D+00 0.200D+00 0.980D+00
 Coeff:     -0.259D-02-0.556D-01-0.122D+00 0.200D+00 0.980D+00
 Gap=     0.276 Goal=   None    Shift=    0.000
 RMSDP=1.23D-06 MaxDP=8.08D-05 DE=-8.48D-07 OVMax= 2.05D-04

 Cycle  11  Pass 1  IDiag  1:
 RMSU=  5.20D-07    CP:  1.00D+00  1.06D+00  8.03D-01  1.39D+00  1.17D+00
 E= -2048.73670990458     Delta-E=       -0.000000268170 Rises=F Damp=F
 DIIS: error= 6.80D-06 at cycle   6 NSaved=   6.
 NSaved= 6 IEnMin= 6 EnMin= -2048.73670990458     IErMin= 6 ErrMin= 6.80D-06
 ErrMax= 6.80D-06  0.00D+00 EMaxC= 1.00D-01 BMatC= 2.96D-08 BMatP= 1.21D-07
 IDIUse=1 WtCom= 1.00D+00 WtEn= 0.00D+00
 Coeff-Com:  0.489D-02-0.461D-01-0.117D+00-0.613D-02 0.527D+00 0.638D+00
 Coeff:      0.489D-02-0.461D-01-0.117D+00-0.613D-02 0.527D+00 0.638D+00
 Gap=     0.276 Goal=   None    Shift=    0.000
 RMSDP=3.97D-07 MaxDP=3.83D-05 DE=-2.68D-07 OVMax= 9.69D-05

 Cycle  12  Pass 1  IDiag  1:
 RMSU=  1.99D-07    CP:  1.00D+00  1.06D+00  8.04D-01  1.47D+00  1.31D+00
                    CP:  9.29D-01
 E= -2048.73670994916     Delta-E=       -0.000000044575 Rises=F Damp=F
 DIIS: error= 1.16D-06 at cycle   7 NSaved=   7.
 NSaved= 7 IEnMin= 7 EnMin= -2048.73670994916     IErMin= 7 ErrMin= 1.16D-06
 ErrMax= 1.16D-06  0.00D+00 EMaxC= 1.00D-01 BMatC= 9.87D-10 BMatP= 2.96D-08
 IDIUse=1 WtCom= 1.00D+00 WtEn= 0.00D+00
 Coeff-Com:  0.124D-02-0.818D-02-0.223D-01-0.768D-02 0.647D-01 0.157D+00
 Coeff-Com:  0.816D+00
 Coeff:      0.124D-02-0.818D-02-0.223D-01-0.768D-02 0.647D-01 0.157D+00
 Coeff:      0.816D+00
 Gap=     0.276 Goal=   None    Shift=    0.000
 RMSDP=8.90D-08 MaxDP=6.05D-06 DE=-4.46D-08 OVMax= 1.91D-05

 Cycle  13  Pass 1  IDiag  1:
 RMSU=  5.45D-08    CP:  1.00D+00  1.06D+00  8.03D-01  1.48D+00  1.33D+00
                    CP:  1.02D+00  1.13D+00
 E= -2048.73670995093     Delta-E=       -0.000000001768 Rises=F Damp=F
 DIIS: error= 5.74D-07 at cycle   8 NSaved=   8.
 NSaved= 8 IEnMin= 8 EnMin= -2048.73670995093     IErMin= 8 ErrMin= 5.74D-07
 ErrMax= 5.74D-07  0.00D+00 EMaxC= 1.00D-01 BMatC= 3.91D-10 BMatP= 9.87D-10
 IDIUse=1 WtCom= 1.00D+00 WtEn= 0.00D+00
 Coeff-Com: -0.767D-03 0.906D-02 0.218D-01-0.651D-03-0.121D+00-0.967D-01
 Coeff-Com:  0.420D+00 0.768D+00
 Coeff:     -0.767D-03 0.906D-02 0.218D-01-0.651D-03-0.121D+00-0.967D-01
 Coeff:      0.420D+00 0.768D+00
 Gap=     0.276 Goal=   None    Shift=    0.000
 RMSDP=5.50D-08 MaxDP=3.27D-06 DE=-1.77D-09 OVMax= 1.06D-05

 Cycle  14  Pass 1  IDiag  1:
 RMSU=  3.07D-08    CP:  1.00D+00  1.06D+00  8.03D-01  1.48D+00  1.34D+00
                    CP:  1.07D+00  1.29D+00  1.08D+00
 E= -2048.73670995169     Delta-E=       -0.000000000761 Rises=F Damp=F
 DIIS: error= 2.17D-07 at cycle   9 NSaved=   9.
 NSaved= 9 IEnMin= 9 EnMin= -2048.73670995169     IErMin= 9 ErrMin= 2.17D-07
 ErrMax= 2.17D-07  0.00D+00 EMaxC= 1.00D-01 BMatC= 4.22D-11 BMatP= 3.91D-10
 IDIUse=1 WtCom= 1.00D+00 WtEn= 0.00D+00
 Coeff-Com: -0.494D-03 0.512D-02 0.126D-01 0.120D-02-0.616D-01-0.613D-01
 Coeff-Com:  0.929D-01 0.332D+00 0.680D+00
 Coeff:     -0.494D-03 0.512D-02 0.126D-01 0.120D-02-0.616D-01-0.613D-01
 Coeff:      0.929D-01 0.332D+00 0.680D+00
 Gap=     0.276 Goal=   None    Shift=    0.000
 RMSDP=1.50D-08 MaxDP=9.99D-07 DE=-7.61D-10 OVMax= 2.85D-06

 Cycle  15  Pass 1  IDiag  1:
 RMSU=  1.01D-08    CP:  1.00D+00  1.06D+00  8.03D-01  1.48D+00  1.34D+00
                    CP:  1.08D+00  1.31D+00  1.23D+00  1.09D+00
 E= -2048.73670995190     Delta-E=       -0.000000000210 Rises=F Damp=F
 DIIS: error= 6.79D-08 at cycle  10 NSaved=  10.
 NSaved=10 IEnMin=10 EnMin= -2048.73670995190     IErMin=10 ErrMin= 6.79D-08
 ErrMax= 6.79D-08  0.00D+00 EMaxC= 1.00D-01 BMatC= 5.62D-12 BMatP= 4.22D-11
 IDIUse=1 WtCom= 1.00D+00 WtEn= 0.00D+00
 Coeff-Com:  0.279D-05-0.291D-03-0.547D-03 0.157D-03 0.510D-02 0.859D-03
 Coeff-Com: -0.543D-01-0.556D-01 0.236D+00 0.868D+00
 Coeff:      0.279D-05-0.291D-03-0.547D-03 0.157D-03 0.510D-02 0.859D-03
 Coeff:     -0.543D-01-0.556D-01 0.236D+00 0.868D+00
 Gap=     0.276 Goal=   None    Shift=    0.000
 RMSDP=7.62D-09 MaxDP=4.93D-07 DE=-2.10D-10 OVMax= 1.58D-06

 SCF Done:  E(RwB97XD) =  -2048.73670995     A.U. after   15 cycles
            NFock= 15  Conv=0.76D-08     -V/T= 2.0054
 KE= 2.037745021999D+03 PE=-1.568188788327D+04 EE= 6.144842891821D+03
 Leave Link  502 at Thu Feb  1 13:33:52 2018, MaxMem=  4294967296 cpu:           22154.0 elap:             829.0
 (Enter /share/apps/g16/l601.exe)
 Copying SCF densities to generalized density rwf, IOpCl= 0 IROHF=0.

 **********************************************************************

            Population analysis using the SCF density.

 **********************************************************************

 Orbital symmetries:
       Occupied  (A) (A) (A) (A) (A) (A) (A) (A) (A) (A) (A) (A)
                 (A) (A) (A) (A) (A) (A) (A) (A) (A) (A) (A) (A)
                 (A) (A) (A) (A) (A) (A) (A) (A) (A) (A) (A) (A)
                 (A) (A) (A) (A) (A) (A) (A) (A) (A) (A) (A) (A)
                 (A) (A) (A) (A) (A) (A) (A) (A) (A) (A) (A) (A)
                 (A) (A) (A) (A) (A) (A) (A) (A) (A) (A) (A) (A)
                 (A) (A) (A) (A) (A) (A) (A) (A) (A) (A) (A) (A)
                 (A) (A) (A) (A) (A) (A) (A) (A) (A) (A) (A) (A)
                 (A) (A) (A) (A) (A) (A) (A) (A) (A) (A) (A) (A)
                 (A) (A) (A) (A) (A) (A) (A) (A) (A) (A) (A) (A)
                 (A) (A) (A) (A) (A) (A) (A) (A) (A) (A) (A) (A)
                 (A) (A) (A) (A) (A) (A) (A) (A) (A) (A) (A) (A)
                 (A) (A) (A) (A) (A) (A) (A) (A) (A) (A)
       Virtual   (A) (A) (A) (A) (A) (A) (A) (A) (A) (A) (A) (A)
                 (A) (A) (A) (A) (A) (A) (A) (A) (A) (A) (A) (A)
                 (A) (A) (A) (A) (A) (A) (A) (A) (A) (A) (A) (A)
                 (A) (A) (A) (A) (A) (A) (A) (A) (A) (A) (A) (A)
                 (A) (A) (A) (A) (A) (A) (A) (A) (A) (A) (A) (A)
                 (A) (A) (A) (A) (A) (A) (A) (A) (A) (A) (A) (A)
                 (A) (A) (A) (A) (A) (A) (A) (A) (A) (A) (A) (A)
                 (A) (A) (A) (A) (A) (A) (A) (A) (A) (A) (A) (A)
                 (A) (A) (A) (A) (A) (A) (A) (A) (A) (A) (A) (A)
                 (A) (A) (A) (A) (A) (A) (A) (A) (A) (A) (A) (A)
                 (A) (A) (A) (A) (A) (A) (A) (A) (A) (A) (A) (A)
                 (A) (A) (A) (A) (A) (A) (A) (A) (A) (A) (A) (A)
                 (A) (A) (A) (A) (A) (A) (A) (A) (A) (A) (A) (A)
                 (A) (A) (A) (A) (A) (A) (A) (A) (A) (A) (A) (A)
                 (A) (A) (A) (A) (A) (A) (A) (A) (A) (A) (A) (A)
                 (A) (A) (A) (A) (A) (A) (A) (A) (A) (A) (A) (A)
                 (A) (A) (A) (A) (A) (A) (A) (A) (A) (A) (A) (A)
                 (A) (A) (A) (A) (A) (A) (A) (A) (A) (A) (A) (A)
                 (A) (A) (A) (A) (A) (A) (A) (A) (A) (A) (A) (A)
                 (A) (A) (A) (A) (A) (A) (A) (A) (A) (A) (A) (A)
                 (A) (A) (A) (A) (A) (A) (A) (A) (A) (A) (A) (A)
                 (A) (A) (A) (A) (A) (A) (A) (A) (A) (A) (A) (A)
                 (A) (A) (A) (A) (A) (A) (A) (A) (A) (A) (A) (A)
                 (A) (A) (A) (A) (A) (A) (A) (A) (A) (A) (A) (A)
                 (A) (A) (A) (A) (A) (A) (A) (A) (A) (A) (A) (A)
                 (A) (A) (A) (A) (A) (A) (A) (A) (A) (A) (A) (A)
                 (A) (A) (A) (A) (A) (A) (A) (A) (A) (A) (A) (A)
                 (A) (A) (A) (A) (A) (A) (A) (A) (A) (A) (A) (A)
                 (A) (A) (A) (A) (A) (A) (A) (A) (A) (A) (A) (A)
                 (A) (A) (A) (A) (A) (A) (A) (A) (A) (A) (A) (A)
                 (A) (A) (A) (A) (A) (A) (A) (A) (A) (A) (A) (A)
                 (A) (A) (A) (A) (A) (A) (A) (A) (A) (A) (A) (A)
                 (A) (A) (A) (A) (A) (A) (A) (A) (A) (A) (A) (A)
                 (A) (A) (A) (A) (A) (A) (A) (A) (A) (A) (A) (A)
                 (A) (A) (A) (A) (A) (A) (A) (A) (A) (A) (A) (A)
                 (A) (A) (A) (A) (A) (A) (A) (A) (A) (A) (A) (A)
                 (A) (A) (A) (A) (A) (A) (A) (A) (A) (A) (A) (A)
                 (A) (A) (A) (A) (A) (A) (A) (A) (A) (A) (A) (A)
                 (A) (A) (A) (A) (A) (A) (A) (A) (A) (A) (A) (A)
                 (A) (A) (A) (A) (A) (A) (A) (A) (A) (A) (A) (A)
                 (A) (A) (A) (A) (A) (A) (A) (A) (A) (A) (A) (A)
                 (A) (A) (A) (A) (A) (A) (A) (A) (A) (A) (A) (A)
                 (A) (A) (A) (A) (A) (A) (A) (A) (A) (A) (A) (A)
                 (A) (A) (A) (A) (A) (A) (A) (A) (A) (A) (A) (A)
                 (A) (A) (A) (A) (A) (A) (A) (A) (A) (A) (A) (A)
                 (A) (A) (A) (A) (A) (A) (A) (A) (A) (A) (A) (A)
                 (A) (A) (A) (A) (A) (A) (A) (A) (A) (A) (A) (A)
                 (A) (A) (A) (A) (A) (A) (A) (A) (A) (A) (A) (A)
                 (A) (A) (A) (A) (A) (A) (A)
 The electronic state is 1-A.
 Alpha  occ. eigenvalues --  -19.26018 -19.22654 -19.20776 -14.52680 -14.52241
 Alpha  occ. eigenvalues --  -14.49011 -14.48014 -14.47972 -14.47949 -14.47108
 Alpha  occ. eigenvalues --  -14.46897 -14.45356 -14.44090 -14.43991 -14.42219
 Alpha  occ. eigenvalues --  -14.41630 -14.41161 -14.40502 -14.40367 -14.39788
 Alpha  occ. eigenvalues --  -10.45628 -10.41459 -10.40573 -10.39755 -10.38407
 Alpha  occ. eigenvalues --  -10.37909 -10.37839 -10.36969 -10.35535 -10.35061
 Alpha  occ. eigenvalues --  -10.34829 -10.34567 -10.33662 -10.33594 -10.33264
 Alpha  occ. eigenvalues --  -10.32649 -10.32564 -10.32494 -10.31269 -10.31105
 Alpha  occ. eigenvalues --  -10.30447 -10.28331 -10.27791  -1.19585  -1.14995
 Alpha  occ. eigenvalues --   -1.13578  -1.13393  -1.10802  -1.10539  -1.09620
 Alpha  occ. eigenvalues --   -1.09087  -1.08765  -1.04710  -1.04445  -1.02724
 Alpha  occ. eigenvalues --   -1.00836  -0.99965  -0.99813  -0.98752  -0.96818
 Alpha  occ. eigenvalues --   -0.96719  -0.96165  -0.92125  -0.91332  -0.87419
 Alpha  occ. eigenvalues --   -0.85693  -0.84338  -0.83692  -0.83256  -0.82709
 Alpha  occ. eigenvalues --   -0.81677  -0.79174  -0.76887  -0.74849  -0.74636
 Alpha  occ. eigenvalues --   -0.73863  -0.73583  -0.72261  -0.70447  -0.70260
 Alpha  occ. eigenvalues --   -0.67614  -0.66916  -0.66537  -0.65651  -0.64780
 Alpha  occ. eigenvalues --   -0.64198  -0.63902  -0.62866  -0.62077  -0.61984
 Alpha  occ. eigenvalues --   -0.60581  -0.60257  -0.60049  -0.59651  -0.59187
 Alpha  occ. eigenvalues --   -0.59133  -0.58589  -0.56811  -0.56176  -0.56000
 Alpha  occ. eigenvalues --   -0.55726  -0.55131  -0.54818  -0.54604  -0.54013
 Alpha  occ. eigenvalues --   -0.53881  -0.53730  -0.53522  -0.53386  -0.53207
 Alpha  occ. eigenvalues --   -0.52631  -0.52532  -0.51178  -0.50430  -0.50148
 Alpha  occ. eigenvalues --   -0.49816  -0.49695  -0.49492  -0.49174  -0.49086
 Alpha  occ. eigenvalues --   -0.48754  -0.48621  -0.48224  -0.47903  -0.47557
 Alpha  occ. eigenvalues --   -0.46348  -0.45917  -0.45526  -0.44282  -0.43347
 Alpha  occ. eigenvalues --   -0.40525  -0.40488  -0.39591  -0.37619  -0.37497
 Alpha  occ. eigenvalues --   -0.37487  -0.37375  -0.36484  -0.36163  -0.34544
 Alpha  occ. eigenvalues --   -0.34280  -0.33991  -0.33732  -0.32919  -0.32903
 Alpha  occ. eigenvalues --   -0.32828  -0.32720  -0.32534  -0.32080  -0.30274
 Alpha  occ. eigenvalues --   -0.29884  -0.29042  -0.25750  -0.25045
 Alpha virt. eigenvalues --    0.02526   0.04280   0.07042   0.08302   0.08590
 Alpha virt. eigenvalues --    0.09168   0.09567   0.10621   0.11621   0.11782
 Alpha virt. eigenvalues --    0.13238   0.14238   0.14548   0.14996   0.15081
 Alpha virt. eigenvalues --    0.15783   0.15866   0.17163   0.17475   0.17964
 Alpha virt. eigenvalues --    0.18338   0.19039   0.19719   0.20176   0.20580
 Alpha virt. eigenvalues --    0.20829   0.21061   0.21163   0.21568   0.21997
 Alpha virt. eigenvalues --    0.22315   0.22782   0.23055   0.23277   0.23670
 Alpha virt. eigenvalues --    0.24062   0.24441   0.24595   0.24837   0.25288
 Alpha virt. eigenvalues --    0.25659   0.26112   0.27318   0.27512   0.27869
 Alpha virt. eigenvalues --    0.28871   0.29311   0.29701   0.30663   0.30879
 Alpha virt. eigenvalues --    0.31442   0.32044   0.32355   0.32641   0.33158
 Alpha virt. eigenvalues --    0.34051   0.34183   0.35267   0.35942   0.36191
 Alpha virt. eigenvalues --    0.36759   0.37365   0.37854   0.38914   0.39482
 Alpha virt. eigenvalues --    0.39839   0.40534   0.40824   0.41490   0.41722
 Alpha virt. eigenvalues --    0.42054   0.42353   0.43308   0.43580   0.44109
 Alpha virt. eigenvalues --    0.44420   0.45561   0.46231   0.46738   0.47047
 Alpha virt. eigenvalues --    0.47371   0.47727   0.48244   0.48484   0.48987
 Alpha virt. eigenvalues --    0.49775   0.50199   0.50241   0.50879   0.51162
 Alpha virt. eigenvalues --    0.51504   0.51669   0.51875   0.52234   0.52947
 Alpha virt. eigenvalues --    0.53692   0.54196   0.54670   0.54926   0.55503
 Alpha virt. eigenvalues --    0.55944   0.56171   0.56716   0.57161   0.57477
 Alpha virt. eigenvalues --    0.57631   0.57946   0.59292   0.59467   0.59796
 Alpha virt. eigenvalues --    0.59944   0.60080   0.60495   0.60744   0.61023
 Alpha virt. eigenvalues --    0.61316   0.61932   0.62176   0.62511   0.62913
 Alpha virt. eigenvalues --    0.63095   0.63679   0.64593   0.64617   0.65415
 Alpha virt. eigenvalues --    0.65556   0.65930   0.66258   0.66792   0.67173
 Alpha virt. eigenvalues --    0.67459   0.67951   0.68348   0.68527   0.68667
 Alpha virt. eigenvalues --    0.70101   0.70657   0.70789   0.70951   0.71395
 Alpha virt. eigenvalues --    0.71644   0.72244   0.72666   0.73121   0.73467
 Alpha virt. eigenvalues --    0.74132   0.74344   0.74792   0.74859   0.75461
 Alpha virt. eigenvalues --    0.75808   0.75921   0.75991   0.76512   0.76623
 Alpha virt. eigenvalues --    0.76908   0.77497   0.78039   0.78143   0.78477
 Alpha virt. eigenvalues --    0.78590   0.79267   0.79799   0.80100   0.80291
 Alpha virt. eigenvalues --    0.81081   0.81444   0.81628   0.82013   0.82506
 Alpha virt. eigenvalues --    0.82678   0.83612   0.83849   0.84317   0.84548
 Alpha virt. eigenvalues --    0.85019   0.85655   0.85873   0.86794   0.87390
 Alpha virt. eigenvalues --    0.87603   0.88139   0.88545   0.89006   0.89449
 Alpha virt. eigenvalues --    0.90202   0.90365   0.90843   0.91144   0.91224
 Alpha virt. eigenvalues --    0.91947   0.92632   0.92724   0.93332   0.93914
 Alpha virt. eigenvalues --    0.94439   0.94886   0.95450   0.95486   0.96588
 Alpha virt. eigenvalues --    0.96920   0.97077   0.97604   0.98180   0.98340
 Alpha virt. eigenvalues --    0.98806   0.99526   0.99649   1.00243   1.00613
 Alpha virt. eigenvalues --    1.00778   1.01292   1.01687   1.02549   1.02810
 Alpha virt. eigenvalues --    1.02901   1.03215   1.03485   1.04158   1.04899
 Alpha virt. eigenvalues --    1.05041   1.05305   1.05663   1.06042   1.07162
 Alpha virt. eigenvalues --    1.07365   1.08360   1.08978   1.09605   1.10446
 Alpha virt. eigenvalues --    1.11025   1.11372   1.11946   1.13004   1.13491
 Alpha virt. eigenvalues --    1.13763   1.13962   1.14128   1.14751   1.15129
 Alpha virt. eigenvalues --    1.15498   1.15979   1.16595   1.16866   1.17645
 Alpha virt. eigenvalues --    1.18046   1.18442   1.18466   1.19232   1.19517
 Alpha virt. eigenvalues --    1.19651   1.20040   1.20636   1.21092   1.21332
 Alpha virt. eigenvalues --    1.21789   1.21883   1.22212   1.22758   1.23286
 Alpha virt. eigenvalues --    1.23594   1.23724   1.23816   1.24285   1.24580
 Alpha virt. eigenvalues --    1.25067   1.25614   1.26276   1.27068   1.27983
 Alpha virt. eigenvalues --    1.28066   1.28838   1.29300   1.30075   1.30433
 Alpha virt. eigenvalues --    1.30843   1.31469   1.32343   1.32602   1.33688
 Alpha virt. eigenvalues --    1.34160   1.34526   1.35322   1.35949   1.36554
 Alpha virt. eigenvalues --    1.36851   1.37469   1.38140   1.38905   1.39790
 Alpha virt. eigenvalues --    1.40393   1.40527   1.41332   1.41745   1.43384
 Alpha virt. eigenvalues --    1.44538   1.45295   1.45675   1.46240   1.46818
 Alpha virt. eigenvalues --    1.47456   1.48931   1.49076   1.49787   1.50052
 Alpha virt. eigenvalues --    1.51333   1.52334   1.52838   1.53186   1.53563
 Alpha virt. eigenvalues --    1.54346   1.55349   1.55916   1.56583   1.56944
 Alpha virt. eigenvalues --    1.57530   1.57976   1.58660   1.59269   1.60105
 Alpha virt. eigenvalues --    1.60717   1.61044   1.61796   1.62041   1.62842
 Alpha virt. eigenvalues --    1.63752   1.64329   1.64757   1.64868   1.65162
 Alpha virt. eigenvalues --    1.66466   1.66902   1.67552   1.68600   1.68961
 Alpha virt. eigenvalues --    1.69199   1.69969   1.70328   1.70721   1.71160
 Alpha virt. eigenvalues --    1.72220   1.72285   1.72607   1.72934   1.73443
 Alpha virt. eigenvalues --    1.73559   1.74375   1.74657   1.74694   1.75427
 Alpha virt. eigenvalues --    1.75523   1.75783   1.76061   1.76401   1.76852
 Alpha virt. eigenvalues --    1.77382   1.77648   1.77782   1.77969   1.78536
 Alpha virt. eigenvalues --    1.78805   1.78996   1.79705   1.79944   1.80170
 Alpha virt. eigenvalues --    1.80288   1.80447   1.80911   1.81545   1.81769
 Alpha virt. eigenvalues --    1.82303   1.82369   1.82957   1.83459   1.84023
 Alpha virt. eigenvalues --    1.84941   1.85337   1.85558   1.85896   1.86336
 Alpha virt. eigenvalues --    1.86901   1.87529   1.88181   1.88449   1.88936
 Alpha virt. eigenvalues --    1.89234   1.89825   1.90552   1.90979   1.91146
 Alpha virt. eigenvalues --    1.91942   1.92248   1.92885   1.93490   1.94045
 Alpha virt. eigenvalues --    1.94463   1.94735   1.95229   1.96788   1.97603
 Alpha virt. eigenvalues --    1.97951   1.98579   1.98867   1.99897   2.00778
 Alpha virt. eigenvalues --    2.00864   2.01393   2.01830   2.02348   2.03381
 Alpha virt. eigenvalues --    2.03815   2.04015   2.05957   2.06207   2.06488
 Alpha virt. eigenvalues --    2.07605   2.07845   2.08229   2.08600   2.09237
 Alpha virt. eigenvalues --    2.09672   2.09880   2.10783   2.11349   2.12408
 Alpha virt. eigenvalues --    2.12653   2.14300   2.16174   2.16293   2.16989
 Alpha virt. eigenvalues --    2.18402   2.18750   2.19399   2.20600   2.21238
 Alpha virt. eigenvalues --    2.21709   2.22102   2.22676   2.23516   2.23679
 Alpha virt. eigenvalues --    2.24216   2.24610   2.25340   2.25931   2.26428
 Alpha virt. eigenvalues --    2.27038   2.27401   2.28711   2.29381   2.29944
 Alpha virt. eigenvalues --    2.30278   2.30517   2.30760   2.31485   2.31941
 Alpha virt. eigenvalues --    2.32404   2.32922   2.33251   2.33587   2.33794
 Alpha virt. eigenvalues --    2.34145   2.34833   2.35206   2.35551   2.36813
 Alpha virt. eigenvalues --    2.37569   2.38613   2.39707   2.40230   2.40688
 Alpha virt. eigenvalues --    2.41660   2.42409   2.43505   2.43775   2.44089
 Alpha virt. eigenvalues --    2.44172   2.44837   2.45573   2.46568   2.47061
 Alpha virt. eigenvalues --    2.47831   2.48319   2.49505   2.50500   2.51258
 Alpha virt. eigenvalues --    2.51827   2.52845   2.54075   2.54959   2.55288
 Alpha virt. eigenvalues --    2.55737   2.57155   2.57841   2.58543   2.58786
 Alpha virt. eigenvalues --    2.60546   2.61453   2.62035   2.62385   2.63171
 Alpha virt. eigenvalues --    2.63525   2.64276   2.64770   2.64947   2.65902
 Alpha virt. eigenvalues --    2.65995   2.66778   2.67841   2.68054   2.68783
 Alpha virt. eigenvalues --    2.69568   2.70080   2.70652   2.70778   2.72175
 Alpha virt. eigenvalues --    2.72974   2.73975   2.75453   2.75980   2.76242
 Alpha virt. eigenvalues --    2.77164   2.77462   2.78373   2.78975   2.79137
 Alpha virt. eigenvalues --    2.79200   2.80141   2.80446   2.80618   2.81072
 Alpha virt. eigenvalues --    2.81647   2.82001   2.82127   2.83490   2.83631
 Alpha virt. eigenvalues --    2.84290   2.85030   2.85658   2.86012   2.86703
 Alpha virt. eigenvalues --    2.87583   2.87964   2.88498   2.89950   2.92409
 Alpha virt. eigenvalues --    2.93233   2.94651   2.95351   2.96040   2.98202
 Alpha virt. eigenvalues --    3.00206   3.00608   3.01205   3.04158   3.05237
 Alpha virt. eigenvalues --    3.05335   3.09806   3.11191   3.12671   3.14527
 Alpha virt. eigenvalues --    3.15484   3.15789   3.15991   3.17073   3.20481
 Alpha virt. eigenvalues --    3.20896   3.22030   3.23195   3.24513   3.25291
 Alpha virt. eigenvalues --    3.44888   3.47020   3.47538   3.49366   3.50221
 Alpha virt. eigenvalues --    3.53550   3.54305   3.55770   3.57410   3.59552
 Alpha virt. eigenvalues --    3.62159   3.70409   3.74447
          Condensed to atoms (all electrons):
 Mulliken charges:
               1
     1  N   -0.311951
     2  C    0.181164
     3  C    0.055893
     4  N   -0.255660
     5  C    0.140780
     6  H    0.024515
     7  N   -0.299653
     8  C    0.133033
     9  H    0.008923
    10  N   -0.290952
    11  C    0.249631
    12  C    0.099312
    13  N   -0.053930
    14  H    0.116316
    15  H    0.083047
    16  H    0.023584
    17  H    0.031000
    18  H    0.023786
    19  N   -0.310770
    20  C    0.254827
    21  C    0.180822
    22  N   -0.123189
    23  H    0.116709
    24  H    0.118495
    25  N   -0.311768
    26  C    0.248930
    27  N   -0.151460
    28  H    0.120569
    29  C    0.197953
    30  O   -0.321604
    31  C   -0.016013
    32  N   -0.225286
    33  C    0.128817
    34  H    0.021377
    35  H    0.029404
    36  H    0.029628
    37  H    0.024564
    38  H    0.064202
    39  H    0.059525
    40  H    0.073452
    41  H    0.025983
    42  C   -0.129412
    43  O   -0.267551
    44  C    0.157051
    45  H    0.130562
    46  N   -0.109295
    47  O   -0.343998
    48  C    0.337696
    49  H    0.046347
    50  C    0.172919
    51  C    0.038094
    52  N   -0.274236
    53  H    0.033699
    54  H    0.042321
    55  H    0.027414
    56  H    0.126590
    57  H    0.112251
    58  N   -0.042932
    59  C    0.087238
    60  C    0.249708
    61  N   -0.275068
    62  H    0.035607
    63  C    0.172194
    64  N   -0.313201
    65  H    0.036800
    66  C    0.135384
    67  N   -0.267307
    68  C    0.016618
    69  C    0.180706
    70  N   -0.310202
 Sum of Mulliken charges =  -0.00000
 Mulliken charges with hydrogens summed into heavy atoms:
               1
     1  N   -0.311951
     2  C    0.259533
     3  C    0.055893
     4  N   -0.255660
     5  C    0.165295
     7  N   -0.299653
     8  C    0.141956
    10  N   -0.290952
    11  C    0.249631
    12  C    0.099312
    13  N    0.145432
    19  N   -0.310770
    20  C    0.254827
    21  C    0.264418
    22  N    0.112016
    25  N   -0.311768
    26  C    0.248930
    27  N   -0.030890
    29  C    0.197953
    30  O   -0.321604
    31  C   -0.016013
    32  N   -0.225286
    33  C    0.150194
    42  C   -0.103429
    43  O   -0.267551
    44  C    0.157051
    46  N    0.021267
    47  O   -0.343998
    48  C    0.337696
    50  C    0.219266
    51  C    0.235273
    52  N   -0.274236
    58  N    0.195909
    59  C    0.087238
    60  C    0.249708
    61  N   -0.275068
    63  C    0.207802
    64  N   -0.313201
    66  C    0.172183
    67  N   -0.267307
    68  C    0.016618
    69  C    0.284141
    70  N   -0.310202
 Electronic spatial extent (au):  <R**2>=          22483.5454
 Charge=             -0.0000 electrons
 Dipole moment (field-independent basis, Debye):
    X=              7.8328    Y=              7.0240    Z=              1.2108  Tot=             10.5904
 Quadrupole moment (field-independent basis, Debye-Ang):
   XX=           -154.9984   YY=           -220.2904   ZZ=           -251.5649
   XY=              0.9617   XZ=             -5.9778   YZ=             -0.4787
 Traceless Quadrupole moment (field-independent basis, Debye-Ang):
   XX=             53.9529   YY=            -11.3392   ZZ=            -42.6136
   XY=              0.9617   XZ=             -5.9778   YZ=             -0.4787
 Octapole moment (field-independent basis, Debye-Ang**2):
  XXX=            -82.7582  YYY=            120.7717  ZZZ=              7.3735  XYY=             39.5595
  XXY=             70.5724  XXZ=             19.1651  XZZ=             94.6543  YZZ=             47.7022
  YYZ=             34.2016  XYZ=             78.5881
 Hexadecapole moment (field-independent basis, Debye-Ang**3):
 XXXX=         -15341.7224 YYYY=          -5607.4574 ZZZZ=          -4349.2676 XXXY=            491.2315
 XXXZ=            -58.3013 YYYX=            -97.6944 YYYZ=              6.6962 ZZZX=            102.3133
 ZZZY=             75.1002 XXYY=          -3320.9831 XXZZ=          -3631.8911 YYZZ=          -1747.0665
 XXYZ=            202.9993 YYXZ=             62.6589 ZZXY=            146.0400
 N-N= 5.450563259495D+03 E-N=-1.568188788518D+04  KE= 2.037745021999D+03
 No NMR shielding tensors so no spin-rotation constants.
 Leave Link  601 at Thu Feb  1 13:33:57 2018, MaxMem=  4294967296 cpu:             135.5 elap:               5.2
 (Enter /share/apps/g16/l9999.exe)
 1\1\GINC-ROCKS\SP\RwB97XD\CC-pVDZ\C23H27N17O3\SATYA\01-Feb-2018\0\\#p 
 wb97xd/cc-pvdz sp scf=(maxcycles=20)\\Base pair stacking\\0,1\N,0,5.93
 014,0.1769,-4.74112\C,0,6.95738,1.23357,-4.81998\C,0,4.10196,-1.00996,
 -5.03516\N,0,4.88839,-1.72338,-4.14225\C,0,5.95833,-0.97979,-4.00084\H
 ,0,6.80689,-1.22929,-3.36317\N,0,2.33569,-0.34855,-6.45141\C,0,3.06186
 ,0.74104,-6.72169\H,0,2.60611,1.44231,-7.41938\N,0,4.26085,1.09277,-6.
 26169\C,0,4.7309,0.16354,-5.41315\C,0,2.83627,-1.26456,-5.59384\N,0,2.
 11288,-2.35287,-5.32278\H,0,2.44412,-3.05712,-4.69387\H,0,1.21568,-2.5
 0127,-5.73888\H,0,7.81387,0.84316,-5.15788\H,0,6.65059,1.95182,-5.4437
 8\H,0,7.10672,1.6246,-3.9118\N,0,2.27854,3.56121,-3.15237\C,0,1.22146,
 2.71568,-3.3884\C,0,2.28742,5.01292,-3.42281\N,0,-2.02606,2.1998,-4.50
 61\H,0,-2.66113,1.43346,-4.59918\H,0,-2.35376,3.09868,-4.79822\N,0,0.0
 2293,3.06619,-3.9029\C,0,-0.79032,2.03064,-4.01188\N,0,-0.45726,0.7490
 7,-3.64558\H,0,-1.14277,0.01906,-3.76438\C,0,0.77003,0.36549,-3.11408\
 O,0,0.96904,-0.81876,-2.81629\C,0,1.65426,1.46725,-2.99104\N,0,2.95685
 ,1.52778,-2.51512\C,0,3.28489,2.78615,-2.6297\H,0,4.25164,3.20408,-2.3
 4683\H,0,3.01198,5.22738,-4.0769\H,0,1.40469,5.28416,-3.80422\H,0,2.44
 883,5.51124,-2.57168\H,0,-4.75512,-3.25801,-5.20121\H,0,-5.21226,-3.17
 82,-3.50142\H,0,-4.50304,-1.76882,-4.2901\H,0,-1.42117,-6.13019,-3.256
 5\C,0,-1.63272,-5.06621,-3.36335\O,0,0.56916,-4.38426,-2.8032\C,0,-0.5
 8789,-4.11738,-3.12691\H,0,-0.25034,-2.09888,-3.13089\N,0,-0.96167,-2.
 79861,-3.28934\O,0,-2.43601,-1.13778,-3.76383\C,0,-2.2007,-2.32736,-3.
 64469\H,0,-3.6802,-5.31783,-3.90218\C,0,-2.85154,-4.63722,-3.71128\C,0
 ,-4.49439,-2.84736,-4.23713\N,0,-3.15488,-3.30322,-3.85549\H,0,-4.6071
 2,-1.04635,-10.1921\H,0,-3.89821,-0.054,-9.10822\H,0,-5.40711,-0.61408
 ,-8.83689\H,0,-0.43997,-4.9929,-5.48836\H,0,-1.89311,-5.5867,-6.1561\N
 ,0,-1.26303,-4.81979,-6.02944\C,0,-1.51031,-3.61994,-6.55896\C,0,-2.76
 927,-2.03425,-7.80889\N,0,-1.90529,-1.02272,-7.6224\H,0,-0.11945,-0.65
 98,-6.68449\C,0,-0.87133,-1.42198,-6.88455\N,0,-0.62184,-2.62326,-6.35
 327\H,0,-5.41989,-3.53413,-8.89366\C,0,-4.4739,-3.27112,-8.41946\N,0,-
 3.73592,-4.09776,-7.71966\C,0,-2.65196,-3.32621,-7.32662\C,0,-4.51014,
 -0.83653,-9.21919\N,0,-3.94892,-2.00537,-8.5143\\Version=EM64L-G16RevA
 .03\State=1-A\HF=-2048.73671\RMSD=7.625e-09\Dipole=-3.8626673,0.762754
 5,-1.3632128\Quadrupole=24.95691,4.4926263,-29.4495363,20.8197574,11.6
 582646,6.1471877\PG=C01 [X(C23H27N17O3)]\\@


 BE CAREFUL NOT TO BECOME TOO GOOD OF A SONGBIRD OR 
 THEY'LL THROW YOU INTO A CAGE.

                                    -- SNOOPY TO WOODSTOCK
 Job cpu time:       0 days  6 hours 27 minutes  3.4 seconds.
 Elapsed time:       0 days  0 hours 14 minutes 28.6 seconds.
 File lengths (MBytes):  RWF=    298 Int=      0 D2E=      0 Chk=     33 Scr=      1
 Normal termination of Gaussian 16 at Thu Feb  1 13:33:58 2018.
