 Entering Gaussian System, Link 0=g16
 Input=str40.-10.2.5.com
 Output=str40.-10.2.5.log
 Initial command:
 /share/apps/g16/l1.exe "/state/partition1/scr/Gau-19547.inp" -scrdir="/state/partition1/scr/"
 Entering Link 1 = /share/apps/g16/l1.exe PID=     19548.
  
 Copyright (c) 1988,1990,1992,1993,1995,1998,2003,2009,2016,
            Gaussian, Inc.  All Rights Reserved.
  
 This is part of the Gaussian(R) 16 program.  It is based on
 the Gaussian(R) 09 system (copyright 2009, Gaussian, Inc.),
 the Gaussian(R) 03 system (copyright 2003, Gaussian, Inc.),
 the Gaussian(R) 98 system (copyright 1998, Gaussian, Inc.),
 the Gaussian(R) 94 system (copyright 1995, Gaussian, Inc.),
 the Gaussian 92(TM) system (copyright 1992, Gaussian, Inc.),
 the Gaussian 90(TM) system (copyright 1990, Gaussian, Inc.),
 the Gaussian 88(TM) system (copyright 1988, Gaussian, Inc.),
 the Gaussian 86(TM) system (copyright 1986, Carnegie Mellon
 University), and the Gaussian 82(TM) system (copyright 1983,
 Carnegie Mellon University). Gaussian is a federally registered
 trademark of Gaussian, Inc.
  
 This software contains proprietary and confidential information,
 including trade secrets, belonging to Gaussian, Inc.
  
 This software is provided under written license and may be
 used, copied, transmitted, or stored only in accord with that
 written license.
  
 The following legend is applicable only to US Government
 contracts under FAR:
  
                    RESTRICTED RIGHTS LEGEND
  
 Use, reproduction and disclosure by the US Government is
 subject to restrictions as set forth in subparagraphs (a)
 and (c) of the Commercial Computer Software - Restricted
 Rights clause in FAR 52.227-19.
  
 Gaussian, Inc.
 340 Quinnipiac St., Bldg. 40, Wallingford CT 06492
  
  
 ---------------------------------------------------------------
 Warning -- This program may not be used in any manner that
 competes with the business of Gaussian, Inc. or will provide
 assistance to any competitor of Gaussian, Inc.  The licensee
 of this program is prohibited from giving any competitor of
 Gaussian, Inc. access to this program.  By using this program,
 the user acknowledges that Gaussian, Inc. is engaged in the
 business of creating and licensing software in the field of
 computational chemistry and represents and warrants to the
 licensee that it is not a competitor of Gaussian, Inc. and that
 it will not use this program in any manner prohibited above.
 ---------------------------------------------------------------
  

 Cite this work as:
 Gaussian 16, Revision A.03,
 M. J. Frisch, G. W. Trucks, H. B. Schlegel, G. E. Scuseria, 
 M. A. Robb, J. R. Cheeseman, G. Scalmani, V. Barone, 
 G. A. Petersson, H. Nakatsuji, X. Li, M. Caricato, A. V. Marenich, 
 J. Bloino, B. G. Janesko, R. Gomperts, B. Mennucci, H. P. Hratchian, 
 J. V. Ortiz, A. F. Izmaylov, J. L. Sonnenberg, D. Williams-Young, 
 F. Ding, F. Lipparini, F. Egidi, J. Goings, B. Peng, A. Petrone, 
 T. Henderson, D. Ranasinghe, V. G. Zakrzewski, J. Gao, N. Rega, 
 G. Zheng, W. Liang, M. Hada, M. Ehara, K. Toyota, R. Fukuda, 
 J. Hasegawa, M. Ishida, T. Nakajima, Y. Honda, O. Kitao, H. Nakai, 
 T. Vreven, K. Throssell, J. A. Montgomery, Jr., J. E. Peralta, 
 F. Ogliaro, M. J. Bearpark, J. J. Heyd, E. N. Brothers, K. N. Kudin, 
 V. N. Staroverov, T. A. Keith, R. Kobayashi, J. Normand, 
 K. Raghavachari, A. P. Rendell, J. C. Burant, S. S. Iyengar, 
 J. Tomasi, M. Cossi, J. M. Millam, M. Klene, C. Adamo, R. Cammi, 
 J. W. Ochterski, R. L. Martin, K. Morokuma, O. Farkas, 
 J. B. Foresman, and D. J. Fox, Gaussian, Inc., Wallingford CT, 2016.
 
 ******************************************
 Gaussian 16:  EM64L-G16RevA.03 25-Dec-2016
                22-Jan-2018 
 ******************************************
 %nprocshared=32
 Will use up to   32 processors via shared memory.
 %mem=32GB
 %chk=allatoms_t.chk
 ---------------------------------------
 #p wb97xd/cc-pvdz sp scf=(maxcycles=20)
 ---------------------------------------
 1/38=1,172=1/1;
 2/12=2,17=6,18=5,40=1/2;
 3/5=16,11=2,25=1,30=1,74=-58/1,2,3;
 4//1;
 5/5=2,7=20,38=5/2;
 6/7=2,8=2,9=2,10=2,28=1/1;
 99/5=1,9=1/99;
 Leave Link    1 at Mon Jan 22 23:39:08 2018, MaxMem=  4294967296 cpu:               5.5 elap:               0.2
 (Enter /share/apps/g16/l101.exe)
 ------------------
 Base pair stacking
 ------------------
 Symbolic Z-matrix:
 Charge =  0 Multiplicity = 1
 N                     1.33816  -0.87288  -6.75192 
 C                     2.25206   0.28234  -6.84283 
 C                    -0.44451  -2.1326   -6.48265 
 N                     0.59795  -2.99555  -6.78814 
 C                     1.63022  -2.20208  -6.93814 
 H                     2.6379   -2.53603  -7.18714 
 N                    -2.57395  -1.27441  -5.94234 
 C                    -2.00505  -0.06454  -5.95351 
 H                    -2.67399   0.76592  -5.73188 
 N                    -0.73983   0.27194  -6.19622 
 C                    -0.00353  -0.82096  -6.45672 
 C                    -1.8064   -2.35385  -6.20836 
 N                    -2.37246  -3.56241  -6.19768 
 H                    -1.84246  -4.3893   -6.38891 
 H                    -3.34507  -3.68244  -5.99827 
 H                     2.64404   0.3275   -7.76179 
 H                     1.74633   1.12392  -6.65549 
 H                     2.98778   0.18149  -6.1731 
 N                     0.87      2.17395  -3.23343 
 C                    -0.20776   1.33023  -3.11252 
 C                     0.8031    3.64915  -3.23728 
 N                    -3.62825   0.85375  -2.74515 
 H                    -4.26215   0.0843   -2.67201 
 H                    -4.0234    1.77209  -2.70995 
 N                    -1.49857   1.70408  -2.978 
 C                    -2.30748   0.66366  -2.88422 
 N                    -1.88651  -0.64365  -2.91928 
 H                    -2.57587  -1.37546  -2.84051 
 C                    -0.56343  -1.05154  -3.05698 
 O                    -0.28988  -2.25799  -3.0771 
 C                     0.31736   0.05512  -3.15889 
 N                     1.69702   0.09747  -3.30596 
 C                     1.97912   1.37147  -3.34543 
 H                     2.98345   1.78198  -3.45531 
 H                     1.16833   3.99878  -4.09935 
 H                    -0.14829   3.93779  -3.13823 
 H                     1.34094   4.01085  -2.47655 
 H                    -6.55068  -4.53949  -3.04659 
 H                    -6.20312  -4.75509  -1.33272 
 H                    -5.87417  -3.2064   -2.11034 
 H                    -2.79116  -7.53252  -3.27977 
 C                    -2.99493  -6.47594  -3.10553 
 O                    -0.75317  -5.79358  -3.4743 
 C                    -1.92475  -5.531    -3.20369 
 H                    -1.56139  -3.52492  -3.02501 
 N                    -2.29054  -4.22166  -2.9648 
 O                    -3.7698   -2.57491  -2.45766 
 C                    -3.54321  -3.75621  -2.65221 
 H                    -5.07555  -6.73044  -2.71561 
 C                    -4.22753  -6.05244  -2.8023 
 C                    -5.87649  -4.27788  -2.24467 
 N                    -4.52167  -4.72781  -2.57601 
 H                    -10.34834  -1.5651   -4.47378 
 H                    -8.97636  -1.1261   -3.70759 
 H                    -10.06498  -2.07787  -2.95056 
 H                    -4.868    -6.26177  -6.19793 
 H                    -6.49585  -6.75284  -6.05985 
 N                    -5.8088   -6.03429  -5.94635 
 C                    -6.13381  -4.82674  -5.48013 
 C                    -7.62161  -3.16781  -4.64578 
 N                    -6.67806  -2.22232  -4.50379 
 H                    -4.66397  -1.9829   -4.79833 
 C                    -5.48946  -2.68851  -4.8817 
 N                    -5.1619   -3.89763  -5.34892 
 H                    -10.57554  -4.47716  -4.53574 
 C                    -9.51125  -4.28011  -4.66768 
 N                    -8.64292  -5.15045  -5.12175 
 C                    -7.44076  -4.45801  -5.11292 
 C                    -9.64221  -1.86136  -3.83066 
 N                    -8.96194  -3.05937  -4.35981 
 
 ITRead=  0  0  0  0  0  0  0  0  0  0  0  0  0  0  0  0  0  0  0  0
 ITRead=  0  0  0  0  0  0  0  0  0  0  0  0  0  0  0  0  0  0  0  0
 ITRead=  0  0  0  0  0  0  0  0  0  0  0  0  0  0  0  0  0  0  0  0
 ITRead=  0  0  0  0  0  0  0  0  0  0
 MicOpt= -1 -1 -1 -1 -1 -1 -1 -1 -1 -1 -1 -1 -1 -1 -1 -1 -1 -1 -1 -1
 MicOpt= -1 -1 -1 -1 -1 -1 -1 -1 -1 -1 -1 -1 -1 -1 -1 -1 -1 -1 -1 -1
 MicOpt= -1 -1 -1 -1 -1 -1 -1 -1 -1 -1 -1 -1 -1 -1 -1 -1 -1 -1 -1 -1
 MicOpt= -1 -1 -1 -1 -1 -1 -1 -1 -1 -1
 NAtoms=     70 NQM=       70 NQMF=       0 NMMI=      0 NMMIF=      0
                NMic=       0 NMicF=      0.
                    Isotopes and Nuclear Properties:
 (Nuclear quadrupole moments (NQMom) in fm**2, nuclear magnetic moments (NMagM)
  in nuclear magnetons)

  Atom         1           2           3           4           5           6           7           8           9          10
 IAtWgt=          14          12          12          14          12           1          14          12           1          14
 AtmWgt=  14.0030740  12.0000000  12.0000000  14.0030740  12.0000000   1.0078250  14.0030740  12.0000000   1.0078250  14.0030740
 NucSpn=           2           0           0           2           0           1           2           0           1           2
 AtZEff=  -0.0000000  -0.0000000  -0.0000000  -0.0000000  -0.0000000  -0.0000000  -0.0000000  -0.0000000  -0.0000000  -0.0000000
 NQMom=    2.0440000   0.0000000   0.0000000   2.0440000   0.0000000   0.0000000   2.0440000   0.0000000   0.0000000   2.0440000
 NMagM=    0.4037610   0.0000000   0.0000000   0.4037610   0.0000000   2.7928460   0.4037610   0.0000000   2.7928460   0.4037610
 AtZNuc=   7.0000000   6.0000000   6.0000000   7.0000000   6.0000000   1.0000000   7.0000000   6.0000000   1.0000000   7.0000000

  Atom        11          12          13          14          15          16          17          18          19          20
 IAtWgt=          12          12          14           1           1           1           1           1          14          12
 AtmWgt=  12.0000000  12.0000000  14.0030740   1.0078250   1.0078250   1.0078250   1.0078250   1.0078250  14.0030740  12.0000000
 NucSpn=           0           0           2           1           1           1           1           1           2           0
 AtZEff=  -0.0000000  -0.0000000  -0.0000000  -0.0000000  -0.0000000  -0.0000000  -0.0000000  -0.0000000  -0.0000000  -0.0000000
 NQMom=    0.0000000   0.0000000   2.0440000   0.0000000   0.0000000   0.0000000   0.0000000   0.0000000   2.0440000   0.0000000
 NMagM=    0.0000000   0.0000000   0.4037610   2.7928460   2.7928460   2.7928460   2.7928460   2.7928460   0.4037610   0.0000000
 AtZNuc=   6.0000000   6.0000000   7.0000000   1.0000000   1.0000000   1.0000000   1.0000000   1.0000000   7.0000000   6.0000000

  Atom        21          22          23          24          25          26          27          28          29          30
 IAtWgt=          12          14           1           1          14          12          14           1          12          16
 AtmWgt=  12.0000000  14.0030740   1.0078250   1.0078250  14.0030740  12.0000000  14.0030740   1.0078250  12.0000000  15.9949146
 NucSpn=           0           2           1           1           2           0           2           1           0           0
 AtZEff=  -0.0000000  -0.0000000  -0.0000000  -0.0000000  -0.0000000  -0.0000000  -0.0000000  -0.0000000  -0.0000000  -0.0000000
 NQMom=    0.0000000   2.0440000   0.0000000   0.0000000   2.0440000   0.0000000   2.0440000   0.0000000   0.0000000   0.0000000
 NMagM=    0.0000000   0.4037610   2.7928460   2.7928460   0.4037610   0.0000000   0.4037610   2.7928460   0.0000000   0.0000000
 AtZNuc=   6.0000000   7.0000000   1.0000000   1.0000000   7.0000000   6.0000000   7.0000000   1.0000000   6.0000000   8.0000000

  Atom        31          32          33          34          35          36          37          38          39          40
 IAtWgt=          12          14          12           1           1           1           1           1           1           1
 AtmWgt=  12.0000000  14.0030740  12.0000000   1.0078250   1.0078250   1.0078250   1.0078250   1.0078250   1.0078250   1.0078250
 NucSpn=           0           2           0           1           1           1           1           1           1           1
 AtZEff=  -0.0000000  -0.0000000  -0.0000000  -0.0000000  -0.0000000  -0.0000000  -0.0000000  -0.0000000  -0.0000000  -0.0000000
 NQMom=    0.0000000   2.0440000   0.0000000   0.0000000   0.0000000   0.0000000   0.0000000   0.0000000   0.0000000   0.0000000
 NMagM=    0.0000000   0.4037610   0.0000000   2.7928460   2.7928460   2.7928460   2.7928460   2.7928460   2.7928460   2.7928460
 AtZNuc=   6.0000000   7.0000000   6.0000000   1.0000000   1.0000000   1.0000000   1.0000000   1.0000000   1.0000000   1.0000000

  Atom        41          42          43          44          45          46          47          48          49          50
 IAtWgt=           1          12          16          12           1          14          16          12           1          12
 AtmWgt=   1.0078250  12.0000000  15.9949146  12.0000000   1.0078250  14.0030740  15.9949146  12.0000000   1.0078250  12.0000000
 NucSpn=           1           0           0           0           1           2           0           0           1           0
 AtZEff=  -0.0000000  -0.0000000  -0.0000000  -0.0000000  -0.0000000  -0.0000000  -0.0000000  -0.0000000  -0.0000000  -0.0000000
 NQMom=    0.0000000   0.0000000   0.0000000   0.0000000   0.0000000   2.0440000   0.0000000   0.0000000   0.0000000   0.0000000
 NMagM=    2.7928460   0.0000000   0.0000000   0.0000000   2.7928460   0.4037610   0.0000000   0.0000000   2.7928460   0.0000000
 AtZNuc=   1.0000000   6.0000000   8.0000000   6.0000000   1.0000000   7.0000000   8.0000000   6.0000000   1.0000000   6.0000000

  Atom        51          52          53          54          55          56          57          58          59          60
 IAtWgt=          12          14           1           1           1           1           1          14          12          12
 AtmWgt=  12.0000000  14.0030740   1.0078250   1.0078250   1.0078250   1.0078250   1.0078250  14.0030740  12.0000000  12.0000000
 NucSpn=           0           2           1           1           1           1           1           2           0           0
 AtZEff=  -0.0000000  -0.0000000  -0.0000000  -0.0000000  -0.0000000  -0.0000000  -0.0000000  -0.0000000  -0.0000000  -0.0000000
 NQMom=    0.0000000   2.0440000   0.0000000   0.0000000   0.0000000   0.0000000   0.0000000   2.0440000   0.0000000   0.0000000
 NMagM=    0.0000000   0.4037610   2.7928460   2.7928460   2.7928460   2.7928460   2.7928460   0.4037610   0.0000000   0.0000000
 AtZNuc=   6.0000000   7.0000000   1.0000000   1.0000000   1.0000000   1.0000000   1.0000000   7.0000000   6.0000000   6.0000000

  Atom        61          62          63          64          65          66          67          68          69          70
 IAtWgt=          14           1          12          14           1          12          14          12          12          14
 AtmWgt=  14.0030740   1.0078250  12.0000000  14.0030740   1.0078250  12.0000000  14.0030740  12.0000000  12.0000000  14.0030740
 NucSpn=           2           1           0           2           1           0           2           0           0           2
 AtZEff=  -0.0000000  -0.0000000  -0.0000000  -0.0000000  -0.0000000  -0.0000000  -0.0000000  -0.0000000  -0.0000000  -0.0000000
 NQMom=    2.0440000   0.0000000   0.0000000   2.0440000   0.0000000   0.0000000   2.0440000   0.0000000   0.0000000   2.0440000
 NMagM=    0.4037610   2.7928460   0.0000000   0.4037610   2.7928460   0.0000000   0.4037610   0.0000000   0.0000000   0.4037610
 AtZNuc=   7.0000000   1.0000000   6.0000000   7.0000000   1.0000000   6.0000000   7.0000000   6.0000000   6.0000000   7.0000000
 Leave Link  101 at Mon Jan 22 23:39:08 2018, MaxMem=  4294967296 cpu:               7.7 elap:               0.3
 (Enter /share/apps/g16/l202.exe)
 Stoichiometry    C23H27N17O3
 Framework group  C1[X(C23H27N17O3)]
 Deg. of freedom   204
 Full point group                 C1      NOp   1
 Largest Abelian subgroup         C1      NOp   1
 Largest concise Abelian subgroup C1      NOp   1
                         Standard orientation:                         
 ---------------------------------------------------------------------
 Center     Atomic      Atomic             Coordinates (Angstroms)
 Number     Number       Type             X           Y           Z
 ---------------------------------------------------------------------
      1          7           0        4.280502   -1.686880   -1.878434
      2          6           0        5.664335   -1.211314   -2.070415
      3          6           0        2.095220   -1.770789   -1.644315
      4          7           0        2.545614   -3.079968   -1.555296
      5          6           0        3.844139   -2.977021   -1.699907
      6          1           0        4.538273   -3.817784   -1.684499
      7          7           0        0.707249    0.135398   -1.698404
      8          6           0        1.822553    0.848141   -1.887217
      9          1           0        1.676685    1.923190   -1.983431
     10          7           0        3.085072    0.434240   -1.974627
     11          6           0        3.153124   -0.900899   -1.843475
     12          6           0        0.809148   -1.205592   -1.570139
     13          7           0       -0.303036   -1.918793   -1.381597
     14          1           0       -0.274849   -2.913983   -1.281511
     15          1           0       -1.201853   -1.482900   -1.333980
     16          1           0        6.051491   -1.630749   -2.891609
     17          1           0        5.664626   -0.217069   -2.173337
     18          1           0        6.218514   -1.462734   -1.276899
     19          7           0        5.354527    2.060558    0.707160
     20          6           0        3.991960    1.930238    0.827483
     21          6           0        6.065031    3.305644    0.352687
     22          7           0        0.813294    3.322473    0.687795
     23          1           0       -0.130318    3.021694    0.823292
     24          1           0        0.952716    4.281845    0.441020
     25          7           0        3.080583    2.909842    0.643583
     26          6           0        1.845986    2.478003    0.830370
     27          7           0        1.526232    1.186070    1.171209
     28          1           0        0.554693    0.945085    1.293702
     29          6           0        2.447541    0.161719    1.365557
     30          8           0        2.053975   -0.970618    1.671620
     31          6           0        3.778201    0.610429    1.168391
     32          7           0        4.982332   -0.074055    1.260233
     33          6           0        5.887135    0.824038    0.979210
     34          1           0        6.961307    0.637244    0.956108
     35          1           0        6.585955    3.166122   -0.488722
     36          1           0        5.400117    4.038401    0.214041
     37          1           0        6.688092    3.557944    1.092247
     38          1           0       -4.477065    0.233924    1.125367
     39          1           0       -4.346955    0.378819    2.876569
     40          1           0       -3.235857    1.267618    1.834054
     41          1           0       -2.818337   -4.139796    2.250439
     42          6           0       -2.448076   -3.120658    2.138608
     43          8           0       -0.168213   -3.765526    2.022579
     44          6           0       -1.040039   -2.896823    2.015468
     45          1           0        0.308063   -1.373741    1.789294
     46          7           0       -0.678601   -1.571692    1.878971
     47          8           0       -1.100391    0.654497    1.726115
     48          6           0       -1.515419   -0.484263    1.851176
     49          1           0       -4.368494   -2.196864    2.204857
     50          6           0       -3.289294   -2.080273    2.115020
     51          6           0       -3.791017    0.348833    1.951311
     52          7           0       -2.858353   -0.781349    1.975534
     53          1           0       -6.125396    4.133628   -1.591506
     54          1           0       -4.750417    4.041747   -0.717956
     55          1           0       -6.198634    4.010786    0.034216
     56          1           0       -3.837129   -2.914489   -1.199838
     57          1           0       -5.486234   -2.479872   -1.240758
     58          7           0       -4.529660   -2.193377   -1.176559
     59          6           0       -4.193583   -0.906617   -1.064887
     60          6           0       -4.626699    1.427862   -0.908822
     61          7           0       -3.334060    1.783339   -0.824450
     62          1           0       -1.481290    0.907215   -0.807618
     63          6           0       -2.550234    0.707961   -0.870267
     64          7           0       -2.884920   -0.581629   -0.982088
     65          1           0       -7.832335    1.832114   -1.021468
     66          6           0       -6.817345    1.433981   -1.006096
     67          7           0       -6.514691    0.161452   -1.088194
     68          6           0       -5.128776    0.143600   -1.027704
     69          6           0       -5.697288    3.728352   -0.783751
     70          7           0       -5.723220    2.257010   -0.895449
 ---------------------------------------------------------------------
 Rotational constants (GHZ):           0.1446898           0.0535945           0.0486819
 Leave Link  202 at Mon Jan 22 23:39:08 2018, MaxMem=  4294967296 cpu:               0.3 elap:               0.0
 (Enter /share/apps/g16/l301.exe)
 Standard basis: CC-pVDZ (5D, 7F)
 Ernie: Thresh=  0.10000D-02 Tol=  0.10000D-05 Strict=F.
 Ernie:  86 primitive shells out of 1081 were deleted.
 There are   780 symmetry adapted cartesian basis functions of A   symmetry.
 There are   737 symmetry adapted basis functions of A   symmetry.
   737 basis functions,  1608 primitive gaussians,   780 cartesian basis functions
   154 alpha electrons      154 beta electrons
       nuclear repulsion energy      5501.5788684585 Hartrees.
 IExCor= 4639 DFT=T Ex+Corr=wB97XD ExCW=0 ScaHFX=  1.000000
 ScaDFX=  1.000000  1.000000  1.000000  1.000000 ScalE2=  1.000000  1.000000
 IRadAn=      5 IRanWt=     -1 IRanGd=            0 ICorTp=0 IEmpDi=121
 HFx  wShort=  0.000000 wLong=  0.200000 cFull=  0.222036 cShort=  0.000000 cLong=  0.777964
 DFx  wShort=  0.000000 wLong=  0.200000 cFull=  0.000000 cShort=  0.000000 cLong=  1.000000
 NAtoms=   70 NActive=   70 NUniq=   70 SFac= 1.00D+00 NAtFMM=   60 NAOKFM=T Big=T
 Integral buffers will be    131072 words long.
 Raffenetti 2 integral format.
 Two-electron integral symmetry is turned on.
 R6Disp:  Grimme-D2 Dispersion energy=       -0.0721696912 Hartrees.
 Nuclear repulsion after empirical dispersion term =     5501.5066987673 Hartrees.
 Leave Link  301 at Mon Jan 22 23:39:08 2018, MaxMem=  4294967296 cpu:               2.1 elap:               0.1
 (Enter /share/apps/g16/l302.exe)
 NPDir=0 NMtPBC=     1 NCelOv=     1 NCel=       1 NClECP=     1 NCelD=      1
         NCelK=      1 NCelE2=     1 NClLst=     1 CellRange=     0.0.
 One-electron integrals computed using PRISM.
 One-electron integral symmetry used in STVInt
 NBasis=   737 RedAO= T EigKep=  6.67D-04  NBF=   737
 NBsUse=   737 1.00D-06 EigRej= -1.00D+00 NBFU=   737
 Precomputing XC quadrature grid using
 IXCGrd= 4 IRadAn=           5 IRanWt=          -1 IRanGd=           0 AccXCQ= 0.00D+00.
 Generated NRdTot=       0 NPtTot=           0 NUsed=           0 NTot=          32
 NSgBfM=   765   759   762   765   765 MxSgAt=    70 MxSgA2=    70.
 Leave Link  302 at Mon Jan 22 23:39:13 2018, MaxMem=  4294967296 cpu:             133.2 elap:               4.2
 (Enter /share/apps/g16/l303.exe)
 DipDrv:  MaxL=1.
 Leave Link  303 at Mon Jan 22 23:39:13 2018, MaxMem=  4294967296 cpu:              12.7 elap:               0.4
 (Enter /share/apps/g16/l401.exe)
 ExpMin= 1.22D-01 ExpMax= 1.17D+04 ExpMxC= 4.01D+02 IAcc=3 IRadAn=         5 AccDes= 0.00D+00
 Harris functional with IExCor= 4639 and IRadAn=       5 diagonalized for initial guess.
 HarFok:  IExCor= 4639 AccDes= 0.00D+00 IRadAn=         5 IDoV= 1 UseB2=F ITyADJ=14
 ICtDFT=  3500011 ScaDFX=  1.000000  1.000000  1.000000  1.000000
 FoFCou: FMM=F IPFlag=           0 FMFlag=      100000 FMFlg1=        2001
         NFxFlg=           0 DoJE=T BraDBF=F KetDBF=T FulRan=T
         wScrn=  0.000000 ICntrl=       500 IOpCl=  0 I1Cent=   200000004 NGrid=           0
         NMat0=    1 NMatS0=      1 NMatT0=    0 NMatD0=    1 NMtDS0=    0 NMtDT0=    0
 Petite list used in FoFCou.
 Harris En= -1963.88189685324    
 JPrj=0 DoOrth=F DoCkMO=F.
 Leave Link  401 at Mon Jan 22 23:39:26 2018, MaxMem=  4294967296 cpu:             400.6 elap:              12.6
 (Enter /share/apps/g16/l502.exe)
 Integral symmetry usage will be decided dynamically.
 Closed shell SCF:
 Using DIIS extrapolation, IDIIS=  1040.
 NGot=  4294967296 LenX=  4293717438 LenY=  4293108258
 Requested convergence on RMS density matrix=1.00D-08 within  20 cycles.
 Requested convergence on MAX density matrix=1.00D-06.
 Requested convergence on             energy=1.00D-06.
 No special actions if energy rises.
 Fock matrices will be formed incrementally for  20 cycles.
 Integral accuracy reduced to 1.0D-05 until final iterations.

 Cycle   1  Pass 0  IDiag  1:
 FoFJK:  IHMeth= 1 ICntrl=       0 DoSepK=T KAlg= 0 I1Cent=           0 FoldK=F
 IRaf=         1 NMat=       1 IRICut=       1 DoRegI=T DoRafI=F ISym2E= 0 IDoP0=0 IntGTp=1.
 FoFCou: FMM=T IPFlag=           0 FMFlag=      100000 FMFlg1=        2001
         NFxFlg=           0 DoJE=T BraDBF=F KetDBF=F FulRan=T
         wScrn=  0.000000 ICntrl=       500 IOpCl=  0 I1Cent=           0 NGrid=           0
         NMat0=    1 NMatS0=      1 NMatT0=    0 NMatD0=    1 NMtDS0=    0 NMtDT0=    0
 Symmetry not used in FoFCou.
 FMM levels:  10  Number of levels for PrismC:   9
 E= -2048.31721352233    
 DIIS: error= 2.24D-02 at cycle   1 NSaved=   1.
 NSaved= 1 IEnMin= 1 EnMin= -2048.31721352233     IErMin= 1 ErrMin= 2.24D-02
 ErrMax= 2.24D-02  0.00D+00 EMaxC= 1.00D-01 BMatC= 8.28D-01 BMatP= 8.28D-01
 IDIUse=3 WtCom= 7.76D-01 WtEn= 2.24D-01
 Coeff-Com:  0.100D+01
 Coeff-En:   0.100D+01
 Coeff:      0.100D+01
 Gap=     0.267 Goal=   None    Shift=    0.000
 GapD=    0.267 DampG=1.000 DampE=0.500 DampFc=0.5000 IDamp=-1.
 Damping current iteration by 5.00D-01
 RMSDP=1.54D-03 MaxDP=1.31D-01              OVMax= 2.06D-01

 Cycle   2  Pass 0  IDiag  1:
 RMSU=  7.70D-04    CP:  9.98D-01
 E= -2048.51481360906     Delta-E=       -0.197600086736 Rises=F Damp=T
 DIIS: error= 1.25D-02 at cycle   2 NSaved=   2.
 NSaved= 2 IEnMin= 2 EnMin= -2048.51481360906     IErMin= 2 ErrMin= 1.25D-02
 ErrMax= 1.25D-02  0.00D+00 EMaxC= 1.00D-01 BMatC= 1.44D-01 BMatP= 8.28D-01
 IDIUse=3 WtCom= 8.75D-01 WtEn= 1.25D-01
 Coeff-Com: -0.212D+00 0.121D+01
 Coeff-En:   0.000D+00 0.100D+01
 Coeff:     -0.185D+00 0.119D+01
 Gap=     0.291 Goal=   None    Shift=    0.000
 RMSDP=5.84D-04 MaxDP=3.60D-02 DE=-1.98D-01 OVMax= 1.47D-01

 Cycle   3  Pass 0  IDiag  1:
 RMSU=  5.64D-04    CP:  9.94D-01  1.18D+00
 E= -2048.69364862216     Delta-E=       -0.178835013092 Rises=F Damp=F
 DIIS: error= 5.95D-03 at cycle   3 NSaved=   3.
 NSaved= 3 IEnMin= 3 EnMin= -2048.69364862216     IErMin= 3 ErrMin= 5.95D-03
 ErrMax= 5.95D-03  0.00D+00 EMaxC= 1.00D-01 BMatC= 5.94D-02 BMatP= 1.44D-01
 IDIUse=3 WtCom= 9.40D-01 WtEn= 5.95D-02
 Coeff-Com: -0.233D+00 0.548D+00 0.685D+00
 Coeff-En:   0.000D+00 0.000D+00 0.100D+01
 Coeff:     -0.219D+00 0.515D+00 0.704D+00
 Gap=     0.286 Goal=   None    Shift=    0.000
 RMSDP=3.34D-04 MaxDP=3.55D-02 DE=-1.79D-01 OVMax= 7.67D-02

 Cycle   4  Pass 0  IDiag  1:
 RMSU=  1.94D-04    CP:  9.94D-01  1.45D+00  6.84D-01
 E= -2048.73841385598     Delta-E=       -0.044765233822 Rises=F Damp=F
 DIIS: error= 2.99D-03 at cycle   4 NSaved=   4.
 NSaved= 4 IEnMin= 4 EnMin= -2048.73841385598     IErMin= 4 ErrMin= 2.99D-03
 ErrMax= 2.99D-03  0.00D+00 EMaxC= 1.00D-01 BMatC= 8.01D-03 BMatP= 5.94D-02
 IDIUse=3 WtCom= 9.70D-01 WtEn= 2.99D-02
 Coeff-Com: -0.972D-01 0.188D+00 0.373D+00 0.536D+00
 Coeff-En:   0.000D+00 0.000D+00 0.377D-01 0.962D+00
 Coeff:     -0.943D-01 0.183D+00 0.363D+00 0.549D+00
 Gap=     0.287 Goal=   None    Shift=    0.000
 RMSDP=1.18D-04 MaxDP=1.29D-02 DE=-4.48D-02 OVMax= 1.46D-02

 Cycle   5  Pass 0  IDiag  1:
 RMSU=  6.11D-05    CP:  9.93D-01  1.43D+00  8.08D-01  6.36D-01
 E= -2048.74475659031     Delta-E=       -0.006342734329 Rises=F Damp=F
 DIIS: error= 5.46D-04 at cycle   5 NSaved=   5.
 NSaved= 5 IEnMin= 5 EnMin= -2048.74475659031     IErMin= 5 ErrMin= 5.46D-04
 ErrMax= 5.46D-04  0.00D+00 EMaxC= 1.00D-01 BMatC= 2.96D-04 BMatP= 8.01D-03
 IDIUse=3 WtCom= 9.95D-01 WtEn= 5.46D-03
 Coeff-Com: -0.260D-01 0.450D-01 0.122D+00 0.247D+00 0.612D+00
 Coeff-En:   0.000D+00 0.000D+00 0.000D+00 0.000D+00 0.100D+01
 Coeff:     -0.259D-01 0.448D-01 0.121D+00 0.246D+00 0.614D+00
 Gap=     0.286 Goal=   None    Shift=    0.000
 RMSDP=2.50D-05 MaxDP=2.60D-03 DE=-6.34D-03 OVMax= 3.91D-03

 Failed to achieve initial convergence to 1.0D-08 in  6 cycles.
 Switch to full accuracy anyway.
 Cycle   6  Pass 1  IDiag  1:
 E= -2048.74511529187     Delta-E=       -0.000358701564 Rises=F Damp=F
 DIIS: error= 2.42D-04 at cycle   1 NSaved=   1.
 NSaved= 1 IEnMin= 1 EnMin= -2048.74511529187     IErMin= 1 ErrMin= 2.42D-04
 ErrMax= 2.42D-04  0.00D+00 EMaxC= 1.00D-01 BMatC= 7.51D-05 BMatP= 7.51D-05
 IDIUse=3 WtCom= 9.98D-01 WtEn= 2.42D-03
 Coeff-Com:  0.100D+01
 Coeff-En:   0.100D+01
 Coeff:      0.100D+01
 Gap=     0.286 Goal=   None    Shift=    0.000
 RMSDP=2.50D-05 MaxDP=2.60D-03 DE=-3.59D-04 OVMax= 2.20D-03

 Cycle   7  Pass 1  IDiag  1:
 RMSU=  1.08D-04    CP:  1.00D+00
 E= -2048.74516555252     Delta-E=       -0.000050260646 Rises=F Damp=F
 DIIS: error= 2.61D-04 at cycle   2 NSaved=   2.
 NSaved= 2 IEnMin= 2 EnMin= -2048.74516555252     IErMin= 1 ErrMin= 2.42D-04
 ErrMax= 2.61D-04  0.00D+00 EMaxC= 1.00D-01 BMatC= 4.97D-05 BMatP= 7.51D-05
 IDIUse=3 WtCom= 9.97D-01 WtEn= 2.61D-03
 Coeff-Com:  0.432D+00 0.568D+00
 Coeff-En:   0.357D-01 0.964D+00
 Coeff:      0.431D+00 0.569D+00
 Gap=     0.287 Goal=   None    Shift=    0.000
 RMSDP=1.11D-05 MaxDP=1.51D-03 DE=-5.03D-05 OVMax= 1.71D-03

 Cycle   8  Pass 1  IDiag  1:
 RMSU=  1.08D-05    CP:  1.00D+00  1.02D+00
 E= -2048.74520019818     Delta-E=       -0.000034645662 Rises=F Damp=F
 DIIS: error= 1.40D-04 at cycle   3 NSaved=   3.
 NSaved= 3 IEnMin= 3 EnMin= -2048.74520019818     IErMin= 3 ErrMin= 1.40D-04
 ErrMax= 1.40D-04  0.00D+00 EMaxC= 1.00D-01 BMatC= 1.02D-05 BMatP= 4.97D-05
 IDIUse=3 WtCom= 9.99D-01 WtEn= 1.40D-03
 Coeff-Com: -0.194D-01 0.298D+00 0.721D+00
 Coeff-En:   0.000D+00 0.114D+00 0.886D+00
 Coeff:     -0.194D-01 0.298D+00 0.721D+00
 Gap=     0.287 Goal=   None    Shift=    0.000
 RMSDP=5.55D-06 MaxDP=5.66D-04 DE=-3.46D-05 OVMax= 5.28D-04

 Cycle   9  Pass 1  IDiag  1:
 RMSU=  3.81D-06    CP:  1.00D+00  1.05D+00  7.76D-01
 E= -2048.74520923347     Delta-E=       -0.000009035291 Rises=F Damp=F
 DIIS: error= 2.37D-05 at cycle   4 NSaved=   4.
 NSaved= 4 IEnMin= 4 EnMin= -2048.74520923347     IErMin= 4 ErrMin= 2.37D-05
 ErrMax= 2.37D-05  0.00D+00 EMaxC= 1.00D-01 BMatC= 4.54D-07 BMatP= 1.02D-05
 IDIUse=1 WtCom= 1.00D+00 WtEn= 0.00D+00
 Coeff-Com: -0.313D-01 0.801D-01 0.254D+00 0.697D+00
 Coeff:     -0.313D-01 0.801D-01 0.254D+00 0.697D+00
 Gap=     0.287 Goal=   None    Shift=    0.000
 RMSDP=1.39D-06 MaxDP=1.36D-04 DE=-9.04D-06 OVMax= 5.11D-04

 Cycle  10  Pass 1  IDiag  1:
 RMSU=  1.23D-06    CP:  1.00D+00  1.05D+00  8.04D-01  1.12D+00
 E= -2048.74521001583     Delta-E=       -0.000000782356 Rises=F Damp=F
 DIIS: error= 1.25D-05 at cycle   5 NSaved=   5.
 NSaved= 5 IEnMin= 5 EnMin= -2048.74521001583     IErMin= 5 ErrMin= 1.25D-05
 ErrMax= 1.25D-05  0.00D+00 EMaxC= 1.00D-01 BMatC= 1.05D-07 BMatP= 4.54D-07
 IDIUse=1 WtCom= 1.00D+00 WtEn= 0.00D+00
 Coeff-Com: -0.242D-02-0.522D-01-0.128D+00 0.185D+00 0.998D+00
 Coeff:     -0.242D-02-0.522D-01-0.128D+00 0.185D+00 0.998D+00
 Gap=     0.287 Goal=   None    Shift=    0.000
 RMSDP=1.18D-06 MaxDP=7.71D-05 DE=-7.82D-07 OVMax= 2.58D-04

 Cycle  11  Pass 1  IDiag  1:
 RMSU=  4.79D-07    CP:  1.00D+00  1.06D+00  8.11D-01  1.40D+00  1.18D+00
 E= -2048.74521024891     Delta-E=       -0.000000233087 Rises=F Damp=F
 DIIS: error= 6.63D-06 at cycle   6 NSaved=   6.
 NSaved= 6 IEnMin= 6 EnMin= -2048.74521024891     IErMin= 6 ErrMin= 6.63D-06
 ErrMax= 6.63D-06  0.00D+00 EMaxC= 1.00D-01 BMatC= 2.80D-08 BMatP= 1.05D-07
 IDIUse=1 WtCom= 1.00D+00 WtEn= 0.00D+00
 Coeff-Com:  0.455D-02-0.409D-01-0.114D+00-0.544D-02 0.543D+00 0.613D+00
 Coeff:      0.455D-02-0.409D-01-0.114D+00-0.544D-02 0.543D+00 0.613D+00
 Gap=     0.287 Goal=   None    Shift=    0.000
 RMSDP=3.42D-07 MaxDP=3.66D-05 DE=-2.33D-07 OVMax= 1.24D-04

 Cycle  12  Pass 1  IDiag  1:
 RMSU=  1.80D-07    CP:  1.00D+00  1.06D+00  8.12D-01  1.46D+00  1.31D+00
                    CP:  8.94D-01
 E= -2048.74521028677     Delta-E=       -0.000000037855 Rises=F Damp=F
 DIIS: error= 1.03D-06 at cycle   7 NSaved=   7.
 NSaved= 7 IEnMin= 7 EnMin= -2048.74521028677     IErMin= 7 ErrMin= 1.03D-06
 ErrMax= 1.03D-06  0.00D+00 EMaxC= 1.00D-01 BMatC= 8.54D-10 BMatP= 2.80D-08
 IDIUse=1 WtCom= 1.00D+00 WtEn= 0.00D+00
 Coeff-Com:  0.117D-02-0.711D-02-0.219D-01-0.809D-02 0.679D-01 0.149D+00
 Coeff-Com:  0.819D+00
 Coeff:      0.117D-02-0.711D-02-0.219D-01-0.809D-02 0.679D-01 0.149D+00
 Coeff:      0.819D+00
 Gap=     0.287 Goal=   None    Shift=    0.000
 RMSDP=8.12D-08 MaxDP=5.29D-06 DE=-3.79D-08 OVMax= 2.29D-05

 Cycle  13  Pass 1  IDiag  1:
 RMSU=  5.11D-08    CP:  1.00D+00  1.05D+00  8.11D-01  1.47D+00  1.33D+00
                    CP:  9.83D-01  1.11D+00
 E= -2048.74521028834     Delta-E=       -0.000000001569 Rises=F Damp=F
 DIIS: error= 5.38D-07 at cycle   8 NSaved=   8.
 NSaved= 8 IEnMin= 8 EnMin= -2048.74521028834     IErMin= 8 ErrMin= 5.38D-07
 ErrMax= 5.38D-07  0.00D+00 EMaxC= 1.00D-01 BMatC= 3.18D-10 BMatP= 8.54D-10
 IDIUse=1 WtCom= 1.00D+00 WtEn= 0.00D+00
 Coeff-Com: -0.657D-03 0.769D-02 0.198D-01-0.828D-03-0.115D+00-0.884D-01
 Coeff-Com:  0.406D+00 0.771D+00
 Coeff:     -0.657D-03 0.769D-02 0.198D-01-0.828D-03-0.115D+00-0.884D-01
 Coeff:      0.406D+00 0.771D+00
 Gap=     0.287 Goal=   None    Shift=    0.000
 RMSDP=4.81D-08 MaxDP=2.97D-06 DE=-1.57D-09 OVMax= 1.24D-05

 Cycle  14  Pass 1  IDiag  1:
 RMSU=  2.72D-08    CP:  1.00D+00  1.05D+00  8.11D-01  1.47D+00  1.33D+00
                    CP:  1.03D+00  1.27D+00  1.07D+00
 E= -2048.74521028859     Delta-E=       -0.000000000251 Rises=F Damp=F
 DIIS: error= 1.65D-07 at cycle   9 NSaved=   9.
 NSaved= 9 IEnMin= 9 EnMin= -2048.74521028859     IErMin= 9 ErrMin= 1.65D-07
 ErrMax= 1.65D-07  0.00D+00 EMaxC= 1.00D-01 BMatC= 3.35D-11 BMatP= 3.18D-10
 IDIUse=1 WtCom= 1.00D+00 WtEn= 0.00D+00
 Coeff-Com: -0.424D-03 0.426D-02 0.113D-01 0.106D-02-0.576D-01-0.556D-01
 Coeff-Com:  0.836D-01 0.323D+00 0.691D+00
 Coeff:     -0.424D-03 0.426D-02 0.113D-01 0.106D-02-0.576D-01-0.556D-01
 Coeff:      0.836D-01 0.323D+00 0.691D+00
 Gap=     0.287 Goal=   None    Shift=    0.000
 RMSDP=1.36D-08 MaxDP=8.32D-07 DE=-2.51D-10 OVMax= 3.57D-06

 Cycle  15  Pass 1  IDiag  1:
 RMSU=  9.29D-09    CP:  1.00D+00  1.05D+00  8.11D-01  1.47D+00  1.33D+00
                    CP:  1.03D+00  1.29D+00  1.21D+00  1.09D+00
 E= -2048.74521028886     Delta-E=       -0.000000000276 Rises=F Damp=F
 DIIS: error= 6.01D-08 at cycle  10 NSaved=  10.
 NSaved=10 IEnMin=10 EnMin= -2048.74521028886     IErMin=10 ErrMin= 6.01D-08
 ErrMax= 6.01D-08  0.00D+00 EMaxC= 1.00D-01 BMatC= 5.22D-12 BMatP= 3.35D-11
 IDIUse=1 WtCom= 1.00D+00 WtEn= 0.00D+00
 Coeff-Com: -0.104D-04-0.147D-03-0.226D-03 0.194D-03 0.355D-02-0.104D-02
 Coeff-Com: -0.521D-01-0.497D-01 0.257D+00 0.842D+00
 Coeff:     -0.104D-04-0.147D-03-0.226D-03 0.194D-03 0.355D-02-0.104D-02
 Coeff:     -0.521D-01-0.497D-01 0.257D+00 0.842D+00
 Gap=     0.287 Goal=   None    Shift=    0.000
 RMSDP=6.89D-09 MaxDP=3.95D-07 DE=-2.76D-10 OVMax= 1.68D-06

 SCF Done:  E(RwB97XD) =  -2048.74521029     A.U. after   15 cycles
            NFock= 15  Conv=0.69D-08     -V/T= 2.0054
 KE= 2.037764409543D+03 PE=-1.578351992829D+04 EE= 6.195503609687D+03
 Leave Link  502 at Mon Jan 22 23:50:45 2018, MaxMem=  4294967296 cpu:           21039.6 elap:             679.0
 (Enter /share/apps/g16/l601.exe)
 Copying SCF densities to generalized density rwf, IOpCl= 0 IROHF=0.

 **********************************************************************

            Population analysis using the SCF density.

 **********************************************************************

 Orbital symmetries:
       Occupied  (A) (A) (A) (A) (A) (A) (A) (A) (A) (A) (A) (A)
                 (A) (A) (A) (A) (A) (A) (A) (A) (A) (A) (A) (A)
                 (A) (A) (A) (A) (A) (A) (A) (A) (A) (A) (A) (A)
                 (A) (A) (A) (A) (A) (A) (A) (A) (A) (A) (A) (A)
                 (A) (A) (A) (A) (A) (A) (A) (A) (A) (A) (A) (A)
                 (A) (A) (A) (A) (A) (A) (A) (A) (A) (A) (A) (A)
                 (A) (A) (A) (A) (A) (A) (A) (A) (A) (A) (A) (A)
                 (A) (A) (A) (A) (A) (A) (A) (A) (A) (A) (A) (A)
                 (A) (A) (A) (A) (A) (A) (A) (A) (A) (A) (A) (A)
                 (A) (A) (A) (A) (A) (A) (A) (A) (A) (A) (A) (A)
                 (A) (A) (A) (A) (A) (A) (A) (A) (A) (A) (A) (A)
                 (A) (A) (A) (A) (A) (A) (A) (A) (A) (A) (A) (A)
                 (A) (A) (A) (A) (A) (A) (A) (A) (A) (A)
       Virtual   (A) (A) (A) (A) (A) (A) (A) (A) (A) (A) (A) (A)
                 (A) (A) (A) (A) (A) (A) (A) (A) (A) (A) (A) (A)
                 (A) (A) (A) (A) (A) (A) (A) (A) (A) (A) (A) (A)
                 (A) (A) (A) (A) (A) (A) (A) (A) (A) (A) (A) (A)
                 (A) (A) (A) (A) (A) (A) (A) (A) (A) (A) (A) (A)
                 (A) (A) (A) (A) (A) (A) (A) (A) (A) (A) (A) (A)
                 (A) (A) (A) (A) (A) (A) (A) (A) (A) (A) (A) (A)
                 (A) (A) (A) (A) (A) (A) (A) (A) (A) (A) (A) (A)
                 (A) (A) (A) (A) (A) (A) (A) (A) (A) (A) (A) (A)
                 (A) (A) (A) (A) (A) (A) (A) (A) (A) (A) (A) (A)
                 (A) (A) (A) (A) (A) (A) (A) (A) (A) (A) (A) (A)
                 (A) (A) (A) (A) (A) (A) (A) (A) (A) (A) (A) (A)
                 (A) (A) (A) (A) (A) (A) (A) (A) (A) (A) (A) (A)
                 (A) (A) (A) (A) (A) (A) (A) (A) (A) (A) (A) (A)
                 (A) (A) (A) (A) (A) (A) (A) (A) (A) (A) (A) (A)
                 (A) (A) (A) (A) (A) (A) (A) (A) (A) (A) (A) (A)
                 (A) (A) (A) (A) (A) (A) (A) (A) (A) (A) (A) (A)
                 (A) (A) (A) (A) (A) (A) (A) (A) (A) (A) (A) (A)
                 (A) (A) (A) (A) (A) (A) (A) (A) (A) (A) (A) (A)
                 (A) (A) (A) (A) (A) (A) (A) (A) (A) (A) (A) (A)
                 (A) (A) (A) (A) (A) (A) (A) (A) (A) (A) (A) (A)
                 (A) (A) (A) (A) (A) (A) (A) (A) (A) (A) (A) (A)
                 (A) (A) (A) (A) (A) (A) (A) (A) (A) (A) (A) (A)
                 (A) (A) (A) (A) (A) (A) (A) (A) (A) (A) (A) (A)
                 (A) (A) (A) (A) (A) (A) (A) (A) (A) (A) (A) (A)
                 (A) (A) (A) (A) (A) (A) (A) (A) (A) (A) (A) (A)
                 (A) (A) (A) (A) (A) (A) (A) (A) (A) (A) (A) (A)
                 (A) (A) (A) (A) (A) (A) (A) (A) (A) (A) (A) (A)
                 (A) (A) (A) (A) (A) (A) (A) (A) (A) (A) (A) (A)
                 (A) (A) (A) (A) (A) (A) (A) (A) (A) (A) (A) (A)
                 (A) (A) (A) (A) (A) (A) (A) (A) (A) (A) (A) (A)
                 (A) (A) (A) (A) (A) (A) (A) (A) (A) (A) (A) (A)
                 (A) (A) (A) (A) (A) (A) (A) (A) (A) (A) (A) (A)
                 (A) (A) (A) (A) (A) (A) (A) (A) (A) (A) (A) (A)
                 (A) (A) (A) (A) (A) (A) (A) (A) (A) (A) (A) (A)
                 (A) (A) (A) (A) (A) (A) (A) (A) (A) (A) (A) (A)
                 (A) (A) (A) (A) (A) (A) (A) (A) (A) (A) (A) (A)
                 (A) (A) (A) (A) (A) (A) (A) (A) (A) (A) (A) (A)
                 (A) (A) (A) (A) (A) (A) (A) (A) (A) (A) (A) (A)
                 (A) (A) (A) (A) (A) (A) (A) (A) (A) (A) (A) (A)
                 (A) (A) (A) (A) (A) (A) (A) (A) (A) (A) (A) (A)
                 (A) (A) (A) (A) (A) (A) (A) (A) (A) (A) (A) (A)
                 (A) (A) (A) (A) (A) (A) (A) (A) (A) (A) (A) (A)
                 (A) (A) (A) (A) (A) (A) (A) (A) (A) (A) (A) (A)
                 (A) (A) (A) (A) (A) (A) (A) (A) (A) (A) (A) (A)
                 (A) (A) (A) (A) (A) (A) (A) (A) (A) (A) (A) (A)
                 (A) (A) (A) (A) (A) (A) (A) (A) (A) (A) (A) (A)
                 (A) (A) (A) (A) (A) (A) (A) (A) (A) (A) (A) (A)
                 (A) (A) (A) (A) (A) (A) (A)
 The electronic state is 1-A.
 Alpha  occ. eigenvalues --  -19.25115 -19.21173 -19.20539 -14.52803 -14.51478
 Alpha  occ. eigenvalues --  -14.49061 -14.49052 -14.48326 -14.47036 -14.46653
 Alpha  occ. eigenvalues --  -14.46608 -14.45706 -14.45167 -14.44963 -14.43154
 Alpha  occ. eigenvalues --  -14.42002 -14.41368 -14.41195 -14.41005 -14.40738
 Alpha  occ. eigenvalues --  -10.44629 -10.41157 -10.40733 -10.39303 -10.38272
 Alpha  occ. eigenvalues --  -10.38161 -10.37705 -10.37109 -10.36433 -10.35892
 Alpha  occ. eigenvalues --  -10.34429 -10.34102 -10.33742 -10.33741 -10.33695
 Alpha  occ. eigenvalues --  -10.33269 -10.33259 -10.33229 -10.31176 -10.30418
 Alpha  occ. eigenvalues --  -10.30235 -10.28566 -10.28209  -1.18661  -1.15621
 Alpha  occ. eigenvalues --   -1.13172  -1.12208  -1.11013  -1.10745  -1.10105
 Alpha  occ. eigenvalues --   -1.08555  -1.08389  -1.05555  -1.05402  -1.01643
 Alpha  occ. eigenvalues --   -1.01349  -1.00894  -0.99666  -0.98565  -0.97619
 Alpha  occ. eigenvalues --   -0.96805  -0.96670  -0.93109  -0.90288  -0.88198
 Alpha  occ. eigenvalues --   -0.86260  -0.84288  -0.83746  -0.82771  -0.82575
 Alpha  occ. eigenvalues --   -0.81983  -0.78106  -0.77594  -0.75445  -0.74699
 Alpha  occ. eigenvalues --   -0.73586  -0.73040  -0.72568  -0.71220  -0.70968
 Alpha  occ. eigenvalues --   -0.67405  -0.67367  -0.66429  -0.65802  -0.64772
 Alpha  occ. eigenvalues --   -0.64320  -0.63340  -0.62910  -0.62542  -0.61793
 Alpha  occ. eigenvalues --   -0.61120  -0.60802  -0.60548  -0.59925  -0.58981
 Alpha  occ. eigenvalues --   -0.58813  -0.58292  -0.57054  -0.56663  -0.55951
 Alpha  occ. eigenvalues --   -0.55714  -0.55651  -0.55538  -0.55018  -0.54136
 Alpha  occ. eigenvalues --   -0.53965  -0.53776  -0.53269  -0.53148  -0.52924
 Alpha  occ. eigenvalues --   -0.51824  -0.51517  -0.51426  -0.50502  -0.50434
 Alpha  occ. eigenvalues --   -0.50154  -0.50035  -0.49656  -0.49034  -0.48960
 Alpha  occ. eigenvalues --   -0.48750  -0.48005  -0.47950  -0.47504  -0.47018
 Alpha  occ. eigenvalues --   -0.46903  -0.45636  -0.45441  -0.44917  -0.43047
 Alpha  occ. eigenvalues --   -0.41481  -0.41141  -0.38914  -0.38280  -0.38128
 Alpha  occ. eigenvalues --   -0.37553  -0.37272  -0.37008  -0.35476  -0.35180
 Alpha  occ. eigenvalues --   -0.35013  -0.34165  -0.33598  -0.33484  -0.32964
 Alpha  occ. eigenvalues --   -0.32566  -0.32332  -0.31864  -0.30958  -0.30751
 Alpha  occ. eigenvalues --   -0.30625  -0.30556  -0.26203  -0.25412
 Alpha virt. eigenvalues --    0.03259   0.04028   0.06254   0.07767   0.08904
 Alpha virt. eigenvalues --    0.09149   0.09761   0.10132   0.10722   0.11895
 Alpha virt. eigenvalues --    0.13526   0.14111   0.14382   0.14584   0.14681
 Alpha virt. eigenvalues --    0.15659   0.16263   0.16879   0.17414   0.17949
 Alpha virt. eigenvalues --    0.18766   0.19294   0.19741   0.20182   0.20770
 Alpha virt. eigenvalues --    0.20879   0.21247   0.21444   0.21532   0.21726
 Alpha virt. eigenvalues --    0.22206   0.22455   0.23083   0.23652   0.23728
 Alpha virt. eigenvalues --    0.23917   0.24390   0.24478   0.25054   0.25673
 Alpha virt. eigenvalues --    0.25897   0.26674   0.27562   0.27888   0.28266
 Alpha virt. eigenvalues --    0.28764   0.28893   0.30010   0.30684   0.31337
 Alpha virt. eigenvalues --    0.31774   0.31872   0.32690   0.33198   0.33421
 Alpha virt. eigenvalues --    0.33764   0.34810   0.34999   0.36123   0.36687
 Alpha virt. eigenvalues --    0.36919   0.37175   0.37966   0.38410   0.39041
 Alpha virt. eigenvalues --    0.39295   0.39865   0.40457   0.41104   0.41849
 Alpha virt. eigenvalues --    0.42321   0.42526   0.42913   0.43903   0.44179
 Alpha virt. eigenvalues --    0.45642   0.45953   0.46253   0.46787   0.47107
 Alpha virt. eigenvalues --    0.47263   0.47424   0.48175   0.48475   0.49289
 Alpha virt. eigenvalues --    0.49712   0.50190   0.50566   0.50773   0.51235
 Alpha virt. eigenvalues --    0.51769   0.52179   0.52754   0.52898   0.53363
 Alpha virt. eigenvalues --    0.54006   0.54465   0.54671   0.55077   0.55115
 Alpha virt. eigenvalues --    0.55386   0.56069   0.56524   0.56742   0.57196
 Alpha virt. eigenvalues --    0.57889   0.58087   0.58575   0.58795   0.59472
 Alpha virt. eigenvalues --    0.59734   0.60163   0.60553   0.60924   0.61183
 Alpha virt. eigenvalues --    0.61633   0.62030   0.62581   0.62925   0.63007
 Alpha virt. eigenvalues --    0.63815   0.64138   0.64302   0.64929   0.65285
 Alpha virt. eigenvalues --    0.65582   0.66087   0.66559   0.66796   0.67637
 Alpha virt. eigenvalues --    0.67719   0.68629   0.68927   0.69618   0.69807
 Alpha virt. eigenvalues --    0.70364   0.70898   0.71269   0.71566   0.71984
 Alpha virt. eigenvalues --    0.72110   0.72605   0.72667   0.73274   0.73837
 Alpha virt. eigenvalues --    0.74213   0.74542   0.74745   0.75107   0.75681
 Alpha virt. eigenvalues --    0.76286   0.76443   0.76741   0.77148   0.77340
 Alpha virt. eigenvalues --    0.77454   0.78009   0.78542   0.78848   0.79050
 Alpha virt. eigenvalues --    0.79831   0.79956   0.80377   0.80853   0.81285
 Alpha virt. eigenvalues --    0.81860   0.82073   0.82364   0.82496   0.83098
 Alpha virt. eigenvalues --    0.83429   0.84292   0.84652   0.84701   0.85329
 Alpha virt. eigenvalues --    0.85990   0.86347   0.86979   0.87364   0.87981
 Alpha virt. eigenvalues --    0.88315   0.88561   0.88910   0.89264   0.89408
 Alpha virt. eigenvalues --    0.90190   0.90517   0.91173   0.92130   0.92485
 Alpha virt. eigenvalues --    0.93054   0.93102   0.93630   0.94013   0.94398
 Alpha virt. eigenvalues --    0.94952   0.95258   0.95431   0.96114   0.96407
 Alpha virt. eigenvalues --    0.97314   0.97678   0.98245   0.98272   0.98553
 Alpha virt. eigenvalues --    0.98990   0.99534   0.99883   1.00688   1.01180
 Alpha virt. eigenvalues --    1.01724   1.02246   1.02400   1.03551   1.04135
 Alpha virt. eigenvalues --    1.04624   1.04877   1.05125   1.05324   1.05893
 Alpha virt. eigenvalues --    1.06503   1.07141   1.07515   1.07875   1.08041
 Alpha virt. eigenvalues --    1.08793   1.09602   1.09791   1.10349   1.11059
 Alpha virt. eigenvalues --    1.11505   1.12100   1.12531   1.13664   1.13984
 Alpha virt. eigenvalues --    1.14048   1.14437   1.14643   1.15259   1.15623
 Alpha virt. eigenvalues --    1.16171   1.16486   1.16924   1.17027   1.17402
 Alpha virt. eigenvalues --    1.18240   1.18481   1.18940   1.19561   1.19908
 Alpha virt. eigenvalues --    1.20044   1.20432   1.20478   1.20870   1.21265
 Alpha virt. eigenvalues --    1.21590   1.21898   1.22802   1.23104   1.23457
 Alpha virt. eigenvalues --    1.23647   1.24287   1.24425   1.24925   1.25612
 Alpha virt. eigenvalues --    1.26073   1.26480   1.27336   1.28380   1.28512
 Alpha virt. eigenvalues --    1.28905   1.29148   1.29298   1.30063   1.30615
 Alpha virt. eigenvalues --    1.31367   1.31874   1.32854   1.32878   1.33496
 Alpha virt. eigenvalues --    1.34305   1.34428   1.34935   1.35302   1.36248
 Alpha virt. eigenvalues --    1.37039   1.38072   1.38534   1.39198   1.40437
 Alpha virt. eigenvalues --    1.40541   1.42594   1.42974   1.43711   1.44573
 Alpha virt. eigenvalues --    1.45481   1.46093   1.46889   1.47197   1.48616
 Alpha virt. eigenvalues --    1.49537   1.50148   1.50520   1.51272   1.51912
 Alpha virt. eigenvalues --    1.52251   1.53030   1.53124   1.53529   1.55347
 Alpha virt. eigenvalues --    1.55814   1.56202   1.56923   1.57313   1.58132
 Alpha virt. eigenvalues --    1.58943   1.59250   1.59775   1.60657   1.60954
 Alpha virt. eigenvalues --    1.61667   1.62209   1.62840   1.63745   1.64248
 Alpha virt. eigenvalues --    1.64901   1.65431   1.65584   1.66105   1.66985
 Alpha virt. eigenvalues --    1.67071   1.67956   1.68829   1.69188   1.69386
 Alpha virt. eigenvalues --    1.69615   1.69934   1.70393   1.71459   1.71799
 Alpha virt. eigenvalues --    1.72453   1.73224   1.73478   1.73700   1.74123
 Alpha virt. eigenvalues --    1.74770   1.74982   1.75206   1.75531   1.75735
 Alpha virt. eigenvalues --    1.76141   1.76598   1.76838   1.77041   1.77411
 Alpha virt. eigenvalues --    1.77833   1.78050   1.78739   1.78982   1.79134
 Alpha virt. eigenvalues --    1.79599   1.79776   1.80002   1.80453   1.80971
 Alpha virt. eigenvalues --    1.81247   1.81452   1.81660   1.82152   1.82363
 Alpha virt. eigenvalues --    1.82871   1.83956   1.84585   1.84950   1.85084
 Alpha virt. eigenvalues --    1.85893   1.86140   1.86422   1.86525   1.86992
 Alpha virt. eigenvalues --    1.87752   1.87971   1.88534   1.88884   1.89276
 Alpha virt. eigenvalues --    1.89934   1.90055   1.91023   1.91293   1.92087
 Alpha virt. eigenvalues --    1.92355   1.93029   1.93423   1.94174   1.94749
 Alpha virt. eigenvalues --    1.95350   1.95378   1.96462   1.96746   1.97176
 Alpha virt. eigenvalues --    1.98676   1.98838   1.99840   2.00826   2.01387
 Alpha virt. eigenvalues --    2.02291   2.02405   2.03201   2.03266   2.04615
 Alpha virt. eigenvalues --    2.04729   2.05428   2.06212   2.06937   2.08005
 Alpha virt. eigenvalues --    2.08475   2.08815   2.09262   2.10042   2.10628
 Alpha virt. eigenvalues --    2.11337   2.11839   2.12519   2.13105   2.13961
 Alpha virt. eigenvalues --    2.14666   2.15298   2.15988   2.16453   2.17573
 Alpha virt. eigenvalues --    2.17886   2.18766   2.20519   2.21244   2.21912
 Alpha virt. eigenvalues --    2.22053   2.22182   2.22729   2.23728   2.24155
 Alpha virt. eigenvalues --    2.24500   2.24854   2.25847   2.26419   2.26787
 Alpha virt. eigenvalues --    2.27831   2.28537   2.28769   2.29438   2.30128
 Alpha virt. eigenvalues --    2.30201   2.30653   2.31548   2.31884   2.32331
 Alpha virt. eigenvalues --    2.33169   2.33821   2.33945   2.34592   2.34714
 Alpha virt. eigenvalues --    2.35166   2.35618   2.36614   2.36938   2.37406
 Alpha virt. eigenvalues --    2.38456   2.39015   2.39167   2.40037   2.40831
 Alpha virt. eigenvalues --    2.41927   2.42451   2.42928   2.43652   2.44189
 Alpha virt. eigenvalues --    2.44721   2.45000   2.45423   2.45538   2.46133
 Alpha virt. eigenvalues --    2.47698   2.48747   2.50309   2.51102   2.51315
 Alpha virt. eigenvalues --    2.52036   2.53420   2.54807   2.55814   2.56021
 Alpha virt. eigenvalues --    2.57785   2.57926   2.58155   2.59589   2.60750
 Alpha virt. eigenvalues --    2.61380   2.63205   2.63346   2.63822   2.64057
 Alpha virt. eigenvalues --    2.64649   2.65243   2.65299   2.65612   2.66713
 Alpha virt. eigenvalues --    2.67281   2.67652   2.69296   2.69931   2.70256
 Alpha virt. eigenvalues --    2.70733   2.71193   2.71401   2.71600   2.72455
 Alpha virt. eigenvalues --    2.73714   2.74543   2.75709   2.76305   2.76944
 Alpha virt. eigenvalues --    2.77158   2.77629   2.78058   2.79151   2.79263
 Alpha virt. eigenvalues --    2.79556   2.80091   2.80278   2.80608   2.81638
 Alpha virt. eigenvalues --    2.82103   2.82640   2.83210   2.84094   2.84646
 Alpha virt. eigenvalues --    2.85335   2.85782   2.86347   2.86945   2.87086
 Alpha virt. eigenvalues --    2.87725   2.88561   2.89416   2.92276   2.94141
 Alpha virt. eigenvalues --    2.94808   2.95508   2.96752   2.98690   2.99363
 Alpha virt. eigenvalues --    2.99779   3.01108   3.02394   3.04355   3.05308
 Alpha virt. eigenvalues --    3.06808   3.08822   3.10288   3.12150   3.14682
 Alpha virt. eigenvalues --    3.15059   3.15779   3.16813   3.19121   3.20346
 Alpha virt. eigenvalues --    3.20803   3.22907   3.24190   3.24846   3.25684
 Alpha virt. eigenvalues --    3.44259   3.47245   3.47840   3.49153   3.50961
 Alpha virt. eigenvalues --    3.52716   3.54891   3.56535   3.57985   3.60567
 Alpha virt. eigenvalues --    3.63761   3.71427   3.75318
          Condensed to atoms (all electrons):
 Mulliken charges:
               1
     1  N   -0.306584
     2  C    0.181828
     3  C    0.067136
     4  N   -0.260242
     5  C    0.149757
     6  H    0.029013
     7  N   -0.288528
     8  C    0.121959
     9  H    0.013363
    10  N   -0.271575
    11  C    0.244509
    12  C    0.077309
    13  N   -0.067475
    14  H    0.113228
    15  H    0.081940
    16  H    0.021372
    17  H    0.028752
    18  H    0.031798
    19  N   -0.309074
    20  C    0.267970
    21  C    0.182829
    22  N   -0.114123
    23  H    0.123703
    24  H    0.117462
    25  N   -0.300986
    26  C    0.208230
    27  N   -0.119946
    28  H    0.118381
    29  C    0.167840
    30  O   -0.318591
    31  C   -0.004395
    32  N   -0.231144
    33  C    0.113823
    34  H    0.021782
    35  H    0.025126
    36  H    0.030765
    37  H    0.024809
    38  H    0.066639
    39  H    0.053714
    40  H    0.077519
    41  H    0.024593
    42  C   -0.117534
    43  O   -0.264000
    44  C    0.173227
    45  H    0.134741
    46  N   -0.126296
    47  O   -0.348710
    48  C    0.347835
    49  H    0.042193
    50  C    0.167355
    51  C    0.041666
    52  N   -0.276363
    53  H    0.034716
    54  H    0.040230
    55  H    0.031081
    56  H    0.119139
    57  H    0.120611
    58  N   -0.064329
    59  C    0.077706
    60  C    0.217069
    61  N   -0.258520
    62  H    0.024365
    63  C    0.166134
    64  N   -0.304240
    65  H    0.040911
    66  C    0.139137
    67  N   -0.255732
    68  C    0.029640
    69  C    0.180743
    70  N   -0.307256
 Sum of Mulliken charges =  -0.00000
 Mulliken charges with hydrogens summed into heavy atoms:
               1
     1  N   -0.306584
     2  C    0.263750
     3  C    0.067136
     4  N   -0.260242
     5  C    0.178770
     7  N   -0.288528
     8  C    0.135321
    10  N   -0.271575
    11  C    0.244509
    12  C    0.077309
    13  N    0.127692
    19  N   -0.309074
    20  C    0.267970
    21  C    0.263529
    22  N    0.127042
    25  N   -0.300986
    26  C    0.208230
    27  N   -0.001565
    29  C    0.167840
    30  O   -0.318591
    31  C   -0.004395
    32  N   -0.231144
    33  C    0.135605
    42  C   -0.092942
    43  O   -0.264000
    44  C    0.173227
    46  N    0.008444
    47  O   -0.348710
    48  C    0.347835
    50  C    0.209548
    51  C    0.239538
    52  N   -0.276363
    58  N    0.175421
    59  C    0.077706
    60  C    0.217069
    61  N   -0.258520
    63  C    0.190499
    64  N   -0.304240
    66  C    0.180048
    67  N   -0.255732
    68  C    0.029640
    69  C    0.286771
    70  N   -0.307256
 Electronic spatial extent (au):  <R**2>=          22768.6449
 Charge=             -0.0000 electrons
 Dipole moment (field-independent basis, Debye):
    X=             -7.6937    Y=              7.0704    Z=             -1.6192  Tot=             10.5738
 Quadrupole moment (field-independent basis, Debye-Ang):
   XX=           -161.1845   YY=           -222.7942   ZZ=           -252.5585
   XY=              5.4423   XZ=            -17.5263   YZ=             12.0551
 Traceless Quadrupole moment (field-independent basis, Debye-Ang):
   XX=             50.9945   YY=            -10.6152   ZZ=            -40.3794
   XY=              5.4423   XZ=            -17.5263   YZ=             12.0551
 Octapole moment (field-independent basis, Debye-Ang**2):
  XXX=             66.1757  YYY=            144.1328  ZZZ=             15.6131  XYY=           -115.3198
  XXY=            138.5763  XXZ=            -49.7667  XZZ=            -29.4906  YZZ=              9.7686
  YYZ=            -46.4946  XYZ=             49.9867
 Hexadecapole moment (field-independent basis, Debye-Ang**3):
 XXXX=         -17016.1882 YYYY=          -5437.9771 ZZZZ=          -3452.0554 XXXY=           -428.8938
 XXXZ=           -359.6717 YYYX=             10.0365 YYYZ=            110.7021 ZZZX=            -96.5968
 ZZZY=             20.3358 XXYY=          -3251.6346 XXZZ=          -3968.2644 YYZZ=          -1582.0877
 XXYZ=             75.0327 YYXZ=             42.8435 ZZXY=              1.0733
 N-N= 5.501506698767D+03 E-N=-1.578351992270D+04  KE= 2.037764409543D+03
 No NMR shielding tensors so no spin-rotation constants.
 Leave Link  601 at Mon Jan 22 23:50:46 2018, MaxMem=  4294967296 cpu:              46.8 elap:               1.6
 (Enter /share/apps/g16/l9999.exe)
 1\1\GINC-COMPUTE-0-3\SP\RwB97XD\CC-pVDZ\C23H27N17O3\SATYA\22-Jan-2018\
 0\\#p wb97xd/cc-pvdz sp scf=(maxcycles=20)\\Base pair stacking\\0,1\N,
 0,1.33816,-0.87288,-6.75192\C,0,2.25206,0.28234,-6.84283\C,0,-0.44451,
 -2.1326,-6.48265\N,0,0.59795,-2.99555,-6.78814\C,0,1.63022,-2.20208,-6
 .93814\H,0,2.6379,-2.53603,-7.18714\N,0,-2.57395,-1.27441,-5.94234\C,0
 ,-2.00505,-0.06454,-5.95351\H,0,-2.67399,0.76592,-5.73188\N,0,-0.73983
 ,0.27194,-6.19622\C,0,-0.00353,-0.82096,-6.45672\C,0,-1.8064,-2.35385,
 -6.20836\N,0,-2.37246,-3.56241,-6.19768\H,0,-1.84246,-4.3893,-6.38891\
 H,0,-3.34507,-3.68244,-5.99827\H,0,2.64404,0.3275,-7.76179\H,0,1.74633
 ,1.12392,-6.65549\H,0,2.98778,0.18149,-6.1731\N,0,0.87,2.17395,-3.2334
 3\C,0,-0.20776,1.33023,-3.11252\C,0,0.8031,3.64915,-3.23728\N,0,-3.628
 25,0.85375,-2.74515\H,0,-4.26215,0.0843,-2.67201\H,0,-4.0234,1.77209,-
 2.70995\N,0,-1.49857,1.70408,-2.978\C,0,-2.30748,0.66366,-2.88422\N,0,
 -1.88651,-0.64365,-2.91928\H,0,-2.57587,-1.37546,-2.84051\C,0,-0.56343
 ,-1.05154,-3.05698\O,0,-0.28988,-2.25799,-3.0771\C,0,0.31736,0.05512,-
 3.15889\N,0,1.69702,0.09747,-3.30596\C,0,1.97912,1.37147,-3.34543\H,0,
 2.98345,1.78198,-3.45531\H,0,1.16833,3.99878,-4.09935\H,0,-0.14829,3.9
 3779,-3.13823\H,0,1.34094,4.01085,-2.47655\H,0,-6.55068,-4.53949,-3.04
 659\H,0,-6.20312,-4.75509,-1.33272\H,0,-5.87417,-3.2064,-2.11034\H,0,-
 2.79116,-7.53252,-3.27977\C,0,-2.99493,-6.47594,-3.10553\O,0,-0.75317,
 -5.79358,-3.4743\C,0,-1.92475,-5.531,-3.20369\H,0,-1.56139,-3.52492,-3
 .02501\N,0,-2.29054,-4.22166,-2.9648\O,0,-3.7698,-2.57491,-2.45766\C,0
 ,-3.54321,-3.75621,-2.65221\H,0,-5.07555,-6.73044,-2.71561\C,0,-4.2275
 3,-6.05244,-2.8023\C,0,-5.87649,-4.27788,-2.24467\N,0,-4.52167,-4.7278
 1,-2.57601\H,0,-10.34834,-1.5651,-4.47378\H,0,-8.97636,-1.1261,-3.7075
 9\H,0,-10.06498,-2.07787,-2.95056\H,0,-4.868,-6.26177,-6.19793\H,0,-6.
 49585,-6.75284,-6.05985\N,0,-5.8088,-6.03429,-5.94635\C,0,-6.13381,-4.
 82674,-5.48013\C,0,-7.62161,-3.16781,-4.64578\N,0,-6.67806,-2.22232,-4
 .50379\H,0,-4.66397,-1.9829,-4.79833\C,0,-5.48946,-2.68851,-4.8817\N,0
 ,-5.1619,-3.89763,-5.34892\H,0,-10.57554,-4.47716,-4.53574\C,0,-9.5112
 5,-4.28011,-4.66768\N,0,-8.64292,-5.15045,-5.12175\C,0,-7.44076,-4.458
 01,-5.11292\C,0,-9.64221,-1.86136,-3.83066\N,0,-8.96194,-3.05937,-4.35
 981\\Version=EM64L-G16RevA.03\State=1-A\HF=-2048.7452103\RMSD=6.887e-0
 9\Dipole=-4.0601997,0.8596069,0.2859942\Quadrupole=15.9452916,6.527209
 2,-22.4725008,26.7086565,-18.2346105,4.492746\PG=C01 [X(C23H27N17O3)]\
 \@


 LIFE IS SO UNCERTAIN - EAT DESSERT FIRST.
 Job cpu time:       0 days  6 hours  0 minutes 51.0 seconds.
 Elapsed time:       0 days  0 hours 11 minutes 38.5 seconds.
 File lengths (MBytes):  RWF=    298 Int=      0 D2E=      0 Chk=     33 Scr=      1
 Normal termination of Gaussian 16 at Mon Jan 22 23:50:47 2018.
