 Entering Gaussian System, Link 0=g16
 Input=str40.0.-2.0.com
 Output=str40.0.-2.0.log
 Initial command:
 /share/apps/g16/l1.exe "/state/partition1/scr/Gau-27575.inp" -scrdir="/state/partition1/scr/"
 Entering Link 1 = /share/apps/g16/l1.exe PID=     27576.
  
 Copyright (c) 1988,1990,1992,1993,1995,1998,2003,2009,2016,
            Gaussian, Inc.  All Rights Reserved.
  
 This is part of the Gaussian(R) 16 program.  It is based on
 the Gaussian(R) 09 system (copyright 2009, Gaussian, Inc.),
 the Gaussian(R) 03 system (copyright 2003, Gaussian, Inc.),
 the Gaussian(R) 98 system (copyright 1998, Gaussian, Inc.),
 the Gaussian(R) 94 system (copyright 1995, Gaussian, Inc.),
 the Gaussian 92(TM) system (copyright 1992, Gaussian, Inc.),
 the Gaussian 90(TM) system (copyright 1990, Gaussian, Inc.),
 the Gaussian 88(TM) system (copyright 1988, Gaussian, Inc.),
 the Gaussian 86(TM) system (copyright 1986, Carnegie Mellon
 University), and the Gaussian 82(TM) system (copyright 1983,
 Carnegie Mellon University). Gaussian is a federally registered
 trademark of Gaussian, Inc.
  
 This software contains proprietary and confidential information,
 including trade secrets, belonging to Gaussian, Inc.
  
 This software is provided under written license and may be
 used, copied, transmitted, or stored only in accord with that
 written license.
  
 The following legend is applicable only to US Government
 contracts under FAR:
  
                    RESTRICTED RIGHTS LEGEND
  
 Use, reproduction and disclosure by the US Government is
 subject to restrictions as set forth in subparagraphs (a)
 and (c) of the Commercial Computer Software - Restricted
 Rights clause in FAR 52.227-19.
  
 Gaussian, Inc.
 340 Quinnipiac St., Bldg. 40, Wallingford CT 06492
  
  
 ---------------------------------------------------------------
 Warning -- This program may not be used in any manner that
 competes with the business of Gaussian, Inc. or will provide
 assistance to any competitor of Gaussian, Inc.  The licensee
 of this program is prohibited from giving any competitor of
 Gaussian, Inc. access to this program.  By using this program,
 the user acknowledges that Gaussian, Inc. is engaged in the
 business of creating and licensing software in the field of
 computational chemistry and represents and warrants to the
 licensee that it is not a competitor of Gaussian, Inc. and that
 it will not use this program in any manner prohibited above.
 ---------------------------------------------------------------
  

 Cite this work as:
 Gaussian 16, Revision A.03,
 M. J. Frisch, G. W. Trucks, H. B. Schlegel, G. E. Scuseria, 
 M. A. Robb, J. R. Cheeseman, G. Scalmani, V. Barone, 
 G. A. Petersson, H. Nakatsuji, X. Li, M. Caricato, A. V. Marenich, 
 J. Bloino, B. G. Janesko, R. Gomperts, B. Mennucci, H. P. Hratchian, 
 J. V. Ortiz, A. F. Izmaylov, J. L. Sonnenberg, D. Williams-Young, 
 F. Ding, F. Lipparini, F. Egidi, J. Goings, B. Peng, A. Petrone, 
 T. Henderson, D. Ranasinghe, V. G. Zakrzewski, J. Gao, N. Rega, 
 G. Zheng, W. Liang, M. Hada, M. Ehara, K. Toyota, R. Fukuda, 
 J. Hasegawa, M. Ishida, T. Nakajima, Y. Honda, O. Kitao, H. Nakai, 
 T. Vreven, K. Throssell, J. A. Montgomery, Jr., J. E. Peralta, 
 F. Ogliaro, M. J. Bearpark, J. J. Heyd, E. N. Brothers, K. N. Kudin, 
 V. N. Staroverov, T. A. Keith, R. Kobayashi, J. Normand, 
 K. Raghavachari, A. P. Rendell, J. C. Burant, S. S. Iyengar, 
 J. Tomasi, M. Cossi, J. M. Millam, M. Klene, C. Adamo, R. Cammi, 
 J. W. Ochterski, R. L. Martin, K. Morokuma, O. Farkas, 
 J. B. Foresman, and D. J. Fox, Gaussian, Inc., Wallingford CT, 2016.
 
 ******************************************
 Gaussian 16:  EM64L-G16RevA.03 25-Dec-2016
                22-Jan-2018 
 ******************************************
 %nprocshared=32
 Will use up to   32 processors via shared memory.
 %mem=32GB
 %chk=allatoms_t.chk
 ---------------------------------------
 #p wb97xd/cc-pvdz sp scf=(maxcycles=20)
 ---------------------------------------
 1/38=1,172=1/1;
 2/12=2,17=6,18=5,40=1/2;
 3/5=16,11=2,25=1,30=1,74=-58/1,2,3;
 4//1;
 5/5=2,7=20,38=5/2;
 6/7=2,8=2,9=2,10=2,28=1/1;
 99/5=1,9=1/99;
 Leave Link    1 at Mon Jan 22 19:11:12 2018, MaxMem=  4294967296 cpu:               2.7 elap:               0.1
 (Enter /share/apps/g16/l101.exe)
 ------------------
 Base pair stacking
 ------------------
 Symbolic Z-matrix:
 Charge =  0 Multiplicity = 1
 N                     7.79391   5.2107   -6.47105 
 C                     8.71507   6.35915  -6.57363 
 C                     5.98535   3.96256  -6.37851 
 N                     7.0618    3.09548  -6.25948 
 C                     8.1083    3.88214  -6.32 
 H                     9.14294   3.54337  -6.25909 
 N                     3.79715   4.83067  -6.52372 
 C                     4.36479   6.03553  -6.6407 
 H                     3.67078   6.86818  -6.74702 
 N                     5.65495   6.36471  -6.64603 
 C                     6.42095   5.26968  -6.50964 
 C                     4.59496   3.74893  -6.38803 
 N                     4.0302    2.54537  -6.27112 
 H                     4.58205   1.71701  -6.1686 
 H                     3.03678   2.43072  -6.28203 
 H                     9.31121   6.24015  -7.36775 
 H                     8.18787   7.20205  -6.67715 
 H                     9.27305   6.41655  -5.74576 
 N                     2.68773   6.39148  -3.26456 
 C                     1.6026    5.54854  -3.26328 
 C                     2.62499   7.86369  -3.36129 
 N                    -1.83463   5.07017  -3.39872 
 H                    -2.47369   4.30173  -3.38065 
 H                    -2.22878   5.98635  -3.47605 
 N                     0.30715   5.92058  -3.34948 
 C                    -0.50853   4.88155  -3.32272 
 N                    -0.08962   3.57718  -3.21948 
 H                    -0.78428   2.84626  -3.20649 
 C                     1.23815   3.1712   -3.12957 
 O                     1.50927   1.96738  -3.03986 
 C                     2.12622   4.2764   -3.15705 
 N                     3.51218   4.31981  -3.09292 
 C                     3.79939   5.59151  -3.16 
 H                     4.80945   6.00203  -3.13738 
 H                     3.11887   8.16725  -4.17537 
 H                     1.67021   8.15097  -3.42565 
 H                     3.04036   8.27079  -2.54856 
 H                    -4.68628  -0.35109  -3.84208 
 H                    -4.60633  -0.46861  -2.08582 
 H                    -4.159     1.03658  -2.88935 
 H                    -0.94115  -3.32701  -3.32784 
 C                    -1.16726  -2.26378  -3.2464 
 O                     1.10582  -1.58789  -3.30466 
 C                    -0.09293  -1.31856  -3.23206 
 H                     0.24246   0.69676  -3.11248 
 N                    -0.48859  -0.00045  -3.12585 
 O                    -2.02508   1.66195  -2.94466 
 C                    -1.77352   0.47321  -3.03565 
 H                    -3.28356  -2.51022  -3.16654 
 C                    -2.43101  -1.83238  -3.16 
 C                    -4.14268  -0.04071  -2.96218 
 N                    -2.75391  -0.49923  -3.05609 
 H                    -4.10771   4.54569  -6.86174 
 H                    -2.94831   5.17426  -5.90113 
 H                    -4.19291   4.34764  -5.24405 
 H                     1.5773   -0.19241  -6.31721 
 H                    -0.04253  -0.70662  -6.46493 
 N                     0.60605   0.0449   -6.33931 
 C                     0.19304   1.3071   -6.20724 
 C                    -1.43208   3.04057  -6.08142 
 N                    -0.53852   4.02948  -5.91402 
 H                     1.49092   4.28081  -5.77681 
 C                     0.70082   3.54275  -5.90822 
 N                     1.11653   2.2789   -6.04035 
 H                    -4.34276   1.67023  -6.40123 
 C                    -3.27521   1.87679  -6.32 
 N                    -2.33344   0.96739  -6.38132 
 C                    -1.15984   1.6919   -6.23142 
 C                    -3.57422   4.40527  -6.02768 
 N                    -2.80099   3.15323  -6.1396 
 
 ITRead=  0  0  0  0  0  0  0  0  0  0  0  0  0  0  0  0  0  0  0  0
 ITRead=  0  0  0  0  0  0  0  0  0  0  0  0  0  0  0  0  0  0  0  0
 ITRead=  0  0  0  0  0  0  0  0  0  0  0  0  0  0  0  0  0  0  0  0
 ITRead=  0  0  0  0  0  0  0  0  0  0
 MicOpt= -1 -1 -1 -1 -1 -1 -1 -1 -1 -1 -1 -1 -1 -1 -1 -1 -1 -1 -1 -1
 MicOpt= -1 -1 -1 -1 -1 -1 -1 -1 -1 -1 -1 -1 -1 -1 -1 -1 -1 -1 -1 -1
 MicOpt= -1 -1 -1 -1 -1 -1 -1 -1 -1 -1 -1 -1 -1 -1 -1 -1 -1 -1 -1 -1
 MicOpt= -1 -1 -1 -1 -1 -1 -1 -1 -1 -1
 NAtoms=     70 NQM=       70 NQMF=       0 NMMI=      0 NMMIF=      0
                NMic=       0 NMicF=      0.
                    Isotopes and Nuclear Properties:
 (Nuclear quadrupole moments (NQMom) in fm**2, nuclear magnetic moments (NMagM)
  in nuclear magnetons)

  Atom         1           2           3           4           5           6           7           8           9          10
 IAtWgt=          14          12          12          14          12           1          14          12           1          14
 AtmWgt=  14.0030740  12.0000000  12.0000000  14.0030740  12.0000000   1.0078250  14.0030740  12.0000000   1.0078250  14.0030740
 NucSpn=           2           0           0           2           0           1           2           0           1           2
 AtZEff=  -0.0000000  -0.0000000  -0.0000000  -0.0000000  -0.0000000  -0.0000000  -0.0000000  -0.0000000  -0.0000000  -0.0000000
 NQMom=    2.0440000   0.0000000   0.0000000   2.0440000   0.0000000   0.0000000   2.0440000   0.0000000   0.0000000   2.0440000
 NMagM=    0.4037610   0.0000000   0.0000000   0.4037610   0.0000000   2.7928460   0.4037610   0.0000000   2.7928460   0.4037610
 AtZNuc=   7.0000000   6.0000000   6.0000000   7.0000000   6.0000000   1.0000000   7.0000000   6.0000000   1.0000000   7.0000000

  Atom        11          12          13          14          15          16          17          18          19          20
 IAtWgt=          12          12          14           1           1           1           1           1          14          12
 AtmWgt=  12.0000000  12.0000000  14.0030740   1.0078250   1.0078250   1.0078250   1.0078250   1.0078250  14.0030740  12.0000000
 NucSpn=           0           0           2           1           1           1           1           1           2           0
 AtZEff=  -0.0000000  -0.0000000  -0.0000000  -0.0000000  -0.0000000  -0.0000000  -0.0000000  -0.0000000  -0.0000000  -0.0000000
 NQMom=    0.0000000   0.0000000   2.0440000   0.0000000   0.0000000   0.0000000   0.0000000   0.0000000   2.0440000   0.0000000
 NMagM=    0.0000000   0.0000000   0.4037610   2.7928460   2.7928460   2.7928460   2.7928460   2.7928460   0.4037610   0.0000000
 AtZNuc=   6.0000000   6.0000000   7.0000000   1.0000000   1.0000000   1.0000000   1.0000000   1.0000000   7.0000000   6.0000000

  Atom        21          22          23          24          25          26          27          28          29          30
 IAtWgt=          12          14           1           1          14          12          14           1          12          16
 AtmWgt=  12.0000000  14.0030740   1.0078250   1.0078250  14.0030740  12.0000000  14.0030740   1.0078250  12.0000000  15.9949146
 NucSpn=           0           2           1           1           2           0           2           1           0           0
 AtZEff=  -0.0000000  -0.0000000  -0.0000000  -0.0000000  -0.0000000  -0.0000000  -0.0000000  -0.0000000  -0.0000000  -0.0000000
 NQMom=    0.0000000   2.0440000   0.0000000   0.0000000   2.0440000   0.0000000   2.0440000   0.0000000   0.0000000   0.0000000
 NMagM=    0.0000000   0.4037610   2.7928460   2.7928460   0.4037610   0.0000000   0.4037610   2.7928460   0.0000000   0.0000000
 AtZNuc=   6.0000000   7.0000000   1.0000000   1.0000000   7.0000000   6.0000000   7.0000000   1.0000000   6.0000000   8.0000000

  Atom        31          32          33          34          35          36          37          38          39          40
 IAtWgt=          12          14          12           1           1           1           1           1           1           1
 AtmWgt=  12.0000000  14.0030740  12.0000000   1.0078250   1.0078250   1.0078250   1.0078250   1.0078250   1.0078250   1.0078250
 NucSpn=           0           2           0           1           1           1           1           1           1           1
 AtZEff=  -0.0000000  -0.0000000  -0.0000000  -0.0000000  -0.0000000  -0.0000000  -0.0000000  -0.0000000  -0.0000000  -0.0000000
 NQMom=    0.0000000   2.0440000   0.0000000   0.0000000   0.0000000   0.0000000   0.0000000   0.0000000   0.0000000   0.0000000
 NMagM=    0.0000000   0.4037610   0.0000000   2.7928460   2.7928460   2.7928460   2.7928460   2.7928460   2.7928460   2.7928460
 AtZNuc=   6.0000000   7.0000000   6.0000000   1.0000000   1.0000000   1.0000000   1.0000000   1.0000000   1.0000000   1.0000000

  Atom        41          42          43          44          45          46          47          48          49          50
 IAtWgt=           1          12          16          12           1          14          16          12           1          12
 AtmWgt=   1.0078250  12.0000000  15.9949146  12.0000000   1.0078250  14.0030740  15.9949146  12.0000000   1.0078250  12.0000000
 NucSpn=           1           0           0           0           1           2           0           0           1           0
 AtZEff=  -0.0000000  -0.0000000  -0.0000000  -0.0000000  -0.0000000  -0.0000000  -0.0000000  -0.0000000  -0.0000000  -0.0000000
 NQMom=    0.0000000   0.0000000   0.0000000   0.0000000   0.0000000   2.0440000   0.0000000   0.0000000   0.0000000   0.0000000
 NMagM=    2.7928460   0.0000000   0.0000000   0.0000000   2.7928460   0.4037610   0.0000000   0.0000000   2.7928460   0.0000000
 AtZNuc=   1.0000000   6.0000000   8.0000000   6.0000000   1.0000000   7.0000000   8.0000000   6.0000000   1.0000000   6.0000000

  Atom        51          52          53          54          55          56          57          58          59          60
 IAtWgt=          12          14           1           1           1           1           1          14          12          12
 AtmWgt=  12.0000000  14.0030740   1.0078250   1.0078250   1.0078250   1.0078250   1.0078250  14.0030740  12.0000000  12.0000000
 NucSpn=           0           2           1           1           1           1           1           2           0           0
 AtZEff=  -0.0000000  -0.0000000  -0.0000000  -0.0000000  -0.0000000  -0.0000000  -0.0000000  -0.0000000  -0.0000000  -0.0000000
 NQMom=    0.0000000   2.0440000   0.0000000   0.0000000   0.0000000   0.0000000   0.0000000   2.0440000   0.0000000   0.0000000
 NMagM=    0.0000000   0.4037610   2.7928460   2.7928460   2.7928460   2.7928460   2.7928460   0.4037610   0.0000000   0.0000000
 AtZNuc=   6.0000000   7.0000000   1.0000000   1.0000000   1.0000000   1.0000000   1.0000000   7.0000000   6.0000000   6.0000000

  Atom        61          62          63          64          65          66          67          68          69          70
 IAtWgt=          14           1          12          14           1          12          14          12          12          14
 AtmWgt=  14.0030740   1.0078250  12.0000000  14.0030740   1.0078250  12.0000000  14.0030740  12.0000000  12.0000000  14.0030740
 NucSpn=           2           1           0           2           1           0           2           0           0           2
 AtZEff=  -0.0000000  -0.0000000  -0.0000000  -0.0000000  -0.0000000  -0.0000000  -0.0000000  -0.0000000  -0.0000000  -0.0000000
 NQMom=    2.0440000   0.0000000   0.0000000   2.0440000   0.0000000   0.0000000   2.0440000   0.0000000   0.0000000   2.0440000
 NMagM=    0.4037610   2.7928460   0.0000000   0.4037610   2.7928460   0.0000000   0.4037610   0.0000000   0.0000000   0.4037610
 AtZNuc=   7.0000000   1.0000000   6.0000000   7.0000000   1.0000000   6.0000000   7.0000000   6.0000000   6.0000000   7.0000000
 Leave Link  101 at Mon Jan 22 19:11:12 2018, MaxMem=  4294967296 cpu:               6.8 elap:               0.2
 (Enter /share/apps/g16/l202.exe)
 Stoichiometry    C23H27N17O3
 Framework group  C1[X(C23H27N17O3)]
 Deg. of freedom   204
 Full point group                 C1      NOp   1
 Largest Abelian subgroup         C1      NOp   1
 Largest concise Abelian subgroup C1      NOp   1
                         Standard orientation:                         
 ---------------------------------------------------------------------
 Center     Atomic      Atomic             Coordinates (Angstroms)
 Number     Number       Type             X           Y           Z
 ---------------------------------------------------------------------
      1          7           0       -6.930231   -1.381842    0.279621
      2          6           0       -8.294128   -0.823538    0.201667
      3          6           0       -4.761042   -1.611878    0.560706
      4          7           0       -5.238700   -2.860133    0.188629
      5          6           0       -6.526432   -2.671585    0.034183
      6          1           0       -7.235452   -3.445790   -0.260524
      7          7           0       -3.338121    0.155981    1.203270
      8          6           0       -4.429776    0.927762    1.218471
      9          1           0       -4.260066    1.967960    1.493148
     10          7           0       -5.693651    0.609022    0.946581
     11          6           0       -5.792034   -0.690508    0.621018
     12          6           0       -3.470282   -1.146957    0.871671
     13          7           0       -2.381733   -1.918963    0.855932
     14          1           0       -2.432672   -2.889142    0.616374
     15          1           0       -1.478690   -1.554100    1.082945
     16          1           0       -8.890846   -1.307139    0.842158
     17          1           0       -8.271507    0.147649    0.437085
     18          1           0       -8.648112   -0.931418   -0.727345
     19          7           0       -2.553119    2.450132   -1.696680
     20          6           0       -1.215835    2.223097   -1.477176
     21          6           0       -3.231919    3.754082   -1.556535
     22          7           0        1.930537    3.401873   -0.598219
     23          1           0        2.853324    3.032616   -0.491746
     24          1           0        1.808598    4.377921   -0.416062
     25          7           0       -0.304590    3.145660   -1.099623
     26          6           0        0.902171    2.623939   -0.968592
     27          7           0        1.196143    1.300260   -1.189907
     28          1           0        2.147325    0.989262   -1.065415
     29          6           0        0.274420    0.333327   -1.578936
     30          8           0        0.643465   -0.834785   -1.752312
     31          6           0       -1.026492    0.878798   -1.723776
     32          7           0       -2.220860    0.274050   -2.090719
     33          6           0       -3.096104    1.242178   -2.060945
     34          1           0       -4.154893    1.129547   -2.296613
     35          1           0       -3.950010    3.685284   -0.864868
     36          1           0       -2.566808    4.445359   -1.277177
     37          1           0       -3.636523    4.016879   -2.431764
     38          1           0        6.920023   -0.052787    0.344591
     39          1           0        7.228963    0.027466   -1.388258
     40          1           0        5.969167    1.032012   -0.670511
     41          1           0        5.256635   -4.347445   -1.046666
     42          6           0        4.948576   -3.301848   -1.053165
     43          8           0        2.666322   -3.785727   -1.482455
     44          6           0        3.573713   -2.978393   -1.283299
     45          1           0        2.330261   -1.359565   -1.430008
     46          7           0        3.291382   -1.627327   -1.271060
     47          8           0        3.830960    0.569689   -1.073117
     48          6           0        4.176458   -0.598746   -1.065640
     49          1           0        6.892211   -2.513550   -0.670146
     50          6           0        5.835368   -2.320621   -0.849623
     51          6           0        6.464991    0.073709   -0.626494
     52          7           0        5.483106   -0.990862   -0.850845
     53          1           0        3.497204    3.575983    3.268267
     54          1           0        2.375894    3.701563    2.089720
     55          1           0        3.961179    3.646001    1.705185
     56          1           0        1.036350   -3.165742    1.381794
     57          1           0        2.644021   -2.873138    1.871547
     58          7           0        1.747510   -2.505098    1.622484
     59          6           0        1.511875   -1.191501    1.612112
     60          6           0        2.082628    1.102289    1.885121
     61          7           0        0.869019    1.568018    1.546500
     62          1           0       -0.963146    0.852029    0.971041
     63          6           0        0.046773    0.561472    1.257222
     64          7           0        0.280890   -0.754842    1.267022
     65          1           0        5.178264    1.231155    2.808483
     66          6           0        4.180038    0.920639    2.498560
     67          7           0        3.805193   -0.324010    2.331111
     68          6           0        2.477335   -0.223035    1.942113
     69          6           0        3.261335    3.307494    2.334316
     70          7           0        3.187727    1.836176    2.245897
 ---------------------------------------------------------------------
 Rotational constants (GHZ):           0.1468261           0.0511678           0.0461100
 Leave Link  202 at Mon Jan 22 19:11:12 2018, MaxMem=  4294967296 cpu:               0.3 elap:               0.0
 (Enter /share/apps/g16/l301.exe)
 Standard basis: CC-pVDZ (5D, 7F)
 Ernie: Thresh=  0.10000D-02 Tol=  0.10000D-05 Strict=F.
 Ernie:  86 primitive shells out of 1081 were deleted.
 There are   780 symmetry adapted cartesian basis functions of A   symmetry.
 There are   737 symmetry adapted basis functions of A   symmetry.
   737 basis functions,  1608 primitive gaussians,   780 cartesian basis functions
   154 alpha electrons      154 beta electrons
       nuclear repulsion energy      5465.1205465460 Hartrees.
 IExCor= 4639 DFT=T Ex+Corr=wB97XD ExCW=0 ScaHFX=  1.000000
 ScaDFX=  1.000000  1.000000  1.000000  1.000000 ScalE2=  1.000000  1.000000
 IRadAn=      5 IRanWt=     -1 IRanGd=            0 ICorTp=0 IEmpDi=121
 HFx  wShort=  0.000000 wLong=  0.200000 cFull=  0.222036 cShort=  0.000000 cLong=  0.777964
 DFx  wShort=  0.000000 wLong=  0.200000 cFull=  0.000000 cShort=  0.000000 cLong=  1.000000
 NAtoms=   70 NActive=   70 NUniq=   70 SFac= 1.00D+00 NAtFMM=   60 NAOKFM=T Big=T
 Integral buffers will be    131072 words long.
 Raffenetti 2 integral format.
 Two-electron integral symmetry is turned on.
 R6Disp:  Grimme-D2 Dispersion energy=       -0.0702699420 Hartrees.
 Nuclear repulsion after empirical dispersion term =     5465.0502766040 Hartrees.
 Leave Link  301 at Mon Jan 22 19:11:13 2018, MaxMem=  4294967296 cpu:               2.1 elap:               0.1
 (Enter /share/apps/g16/l302.exe)
 NPDir=0 NMtPBC=     1 NCelOv=     1 NCel=       1 NClECP=     1 NCelD=      1
         NCelK=      1 NCelE2=     1 NClLst=     1 CellRange=     0.0.
 One-electron integrals computed using PRISM.
 One-electron integral symmetry used in STVInt
 NBasis=   737 RedAO= T EigKep=  7.05D-04  NBF=   737
 NBsUse=   737 1.00D-06 EigRej= -1.00D+00 NBFU=   737
 Precomputing XC quadrature grid using
 IXCGrd= 4 IRadAn=           5 IRanWt=          -1 IRanGd=           0 AccXCQ= 0.00D+00.
 Generated NRdTot=       0 NPtTot=           0 NUsed=           0 NTot=          32
 NSgBfM=   763   763   763   763   763 MxSgAt=    70 MxSgA2=    70.
 Leave Link  302 at Mon Jan 22 19:11:17 2018, MaxMem=  4294967296 cpu:             142.8 elap:               4.6
 (Enter /share/apps/g16/l303.exe)
 DipDrv:  MaxL=1.
 Leave Link  303 at Mon Jan 22 19:11:18 2018, MaxMem=  4294967296 cpu:              12.8 elap:               0.5
 (Enter /share/apps/g16/l401.exe)
 ExpMin= 1.22D-01 ExpMax= 1.17D+04 ExpMxC= 4.01D+02 IAcc=3 IRadAn=         5 AccDes= 0.00D+00
 Harris functional with IExCor= 4639 and IRadAn=       5 diagonalized for initial guess.
 HarFok:  IExCor= 4639 AccDes= 0.00D+00 IRadAn=         5 IDoV= 1 UseB2=F ITyADJ=14
 ICtDFT=  3500011 ScaDFX=  1.000000  1.000000  1.000000  1.000000
 FoFCou: FMM=F IPFlag=           0 FMFlag=      100000 FMFlg1=        2001
         NFxFlg=           0 DoJE=T BraDBF=F KetDBF=T FulRan=T
         wScrn=  0.000000 ICntrl=       500 IOpCl=  0 I1Cent=   200000004 NGrid=           0
         NMat0=    1 NMatS0=      1 NMatT0=    0 NMatD0=    1 NMtDS0=    0 NMtDT0=    0
 Petite list used in FoFCou.
 Harris En= -1963.87617710705    
 JPrj=0 DoOrth=F DoCkMO=F.
 Leave Link  401 at Mon Jan 22 19:11:30 2018, MaxMem=  4294967296 cpu:             396.1 elap:              12.4
 (Enter /share/apps/g16/l502.exe)
 Integral symmetry usage will be decided dynamically.
 Closed shell SCF:
 Using DIIS extrapolation, IDIIS=  1040.
 NGot=  4294967296 LenX=  4293717438 LenY=  4293108258
 Requested convergence on RMS density matrix=1.00D-08 within  20 cycles.
 Requested convergence on MAX density matrix=1.00D-06.
 Requested convergence on             energy=1.00D-06.
 No special actions if energy rises.
 Fock matrices will be formed incrementally for  20 cycles.
 Integral accuracy reduced to 1.0D-05 until final iterations.

 Cycle   1  Pass 0  IDiag  1:
 FoFJK:  IHMeth= 1 ICntrl=       0 DoSepK=T KAlg= 0 I1Cent=           0 FoldK=F
 IRaf=         1 NMat=       1 IRICut=       1 DoRegI=T DoRafI=F ISym2E= 0 IDoP0=0 IntGTp=1.
 FoFCou: FMM=T IPFlag=           0 FMFlag=      100000 FMFlg1=        2001
         NFxFlg=           0 DoJE=T BraDBF=F KetDBF=F FulRan=T
         wScrn=  0.000000 ICntrl=       500 IOpCl=  0 I1Cent=           0 NGrid=           0
         NMat0=    1 NMatS0=      1 NMatT0=    0 NMatD0=    1 NMtDS0=    0 NMtDT0=    0
 Symmetry not used in FoFCou.
 FMM levels:  10  Number of levels for PrismC:   9
 E= -2048.30795469791    
 DIIS: error= 2.45D-02 at cycle   1 NSaved=   1.
 NSaved= 1 IEnMin= 1 EnMin= -2048.30795469791     IErMin= 1 ErrMin= 2.45D-02
 ErrMax= 2.45D-02  0.00D+00 EMaxC= 1.00D-01 BMatC= 8.31D-01 BMatP= 8.31D-01
 IDIUse=3 WtCom= 7.55D-01 WtEn= 2.45D-01
 Coeff-Com:  0.100D+01
 Coeff-En:   0.100D+01
 Coeff:      0.100D+01
 Gap=     0.253 Goal=   None    Shift=    0.000
 GapD=    0.253 DampG=1.000 DampE=0.500 DampFc=0.5000 IDamp=-1.
 Damping current iteration by 5.00D-01
 RMSDP=1.57D-03 MaxDP=1.30D-01              OVMax= 1.91D-01

 Cycle   2  Pass 0  IDiag  1:
 RMSU=  7.84D-04    CP:  9.98D-01
 E= -2048.50504033829     Delta-E=       -0.197085640374 Rises=F Damp=T
 DIIS: error= 1.23D-02 at cycle   2 NSaved=   2.
 NSaved= 2 IEnMin= 2 EnMin= -2048.50504033829     IErMin= 2 ErrMin= 1.23D-02
 ErrMax= 1.23D-02  0.00D+00 EMaxC= 1.00D-01 BMatC= 1.45D-01 BMatP= 8.31D-01
 IDIUse=3 WtCom= 8.77D-01 WtEn= 1.23D-01
 Coeff-Com: -0.198D+00 0.120D+01
 Coeff-En:   0.000D+00 0.100D+01
 Coeff:     -0.174D+00 0.117D+01
 Gap=     0.361 Goal=   None    Shift=    0.000
 RMSDP=5.88D-04 MaxDP=3.36D-02 DE=-1.97D-01 OVMax= 1.44D-01

 Cycle   3  Pass 0  IDiag  1:
 RMSU=  5.77D-04    CP:  9.94D-01  1.13D+00
 E= -2048.68479058939     Delta-E=       -0.179750251104 Rises=F Damp=F
 DIIS: error= 6.80D-03 at cycle   3 NSaved=   3.
 NSaved= 3 IEnMin= 3 EnMin= -2048.68479058939     IErMin= 3 ErrMin= 6.80D-03
 ErrMax= 6.80D-03  0.00D+00 EMaxC= 1.00D-01 BMatC= 6.20D-02 BMatP= 1.45D-01
 IDIUse=3 WtCom= 9.32D-01 WtEn= 6.80D-02
 Coeff-Com: -0.232D+00 0.547D+00 0.685D+00
 Coeff-En:   0.000D+00 0.000D+00 0.100D+01
 Coeff:     -0.216D+00 0.510D+00 0.706D+00
 Gap=     0.280 Goal=   None    Shift=    0.000
 RMSDP=3.51D-04 MaxDP=3.29D-02 DE=-1.80D-01 OVMax= 6.85D-02

 Cycle   4  Pass 0  IDiag  1:
 RMSU=  2.01D-04    CP:  9.94D-01  1.42D+00  6.77D-01
 E= -2048.73220238856     Delta-E=       -0.047411799171 Rises=F Damp=F
 DIIS: error= 2.61D-03 at cycle   4 NSaved=   4.
 NSaved= 4 IEnMin= 4 EnMin= -2048.73220238856     IErMin= 4 ErrMin= 2.61D-03
 ErrMax= 2.61D-03  0.00D+00 EMaxC= 1.00D-01 BMatC= 8.59D-03 BMatP= 6.20D-02
 IDIUse=3 WtCom= 9.74D-01 WtEn= 2.61D-02
 Coeff-Com: -0.969D-01 0.188D+00 0.377D+00 0.532D+00
 Coeff-En:   0.000D+00 0.000D+00 0.533D-01 0.947D+00
 Coeff:     -0.943D-01 0.183D+00 0.368D+00 0.543D+00
 Gap=     0.285 Goal=   None    Shift=    0.000
 RMSDP=1.25D-04 MaxDP=1.18D-02 DE=-4.74D-02 OVMax= 1.31D-02

 Cycle   5  Pass 0  IDiag  1:
 RMSU=  6.12D-05    CP:  9.94D-01  1.39D+00  8.07D-01  6.17D-01
 E= -2048.73932062401     Delta-E=       -0.007118235449 Rises=F Damp=F
 DIIS: error= 6.03D-04 at cycle   5 NSaved=   5.
 NSaved= 5 IEnMin= 5 EnMin= -2048.73932062401     IErMin= 5 ErrMin= 6.03D-04
 ErrMax= 6.03D-04  0.00D+00 EMaxC= 1.00D-01 BMatC= 2.92D-04 BMatP= 8.59D-03
 IDIUse=3 WtCom= 9.94D-01 WtEn= 6.03D-03
 Coeff-Com: -0.252D-01 0.434D-01 0.121D+00 0.241D+00 0.620D+00
 Coeff-En:   0.000D+00 0.000D+00 0.000D+00 0.000D+00 0.100D+01
 Coeff:     -0.251D-01 0.431D-01 0.120D+00 0.239D+00 0.622D+00
 Gap=     0.285 Goal=   None    Shift=    0.000
 RMSDP=2.63D-05 MaxDP=1.93D-03 DE=-7.12D-03 OVMax= 3.21D-03

 Failed to achieve initial convergence to 1.0D-08 in  6 cycles.
 Switch to full accuracy anyway.
 Cycle   6  Pass 1  IDiag  1:
 E= -2048.73948301748     Delta-E=       -0.000162393473 Rises=F Damp=F
 DIIS: error= 2.78D-04 at cycle   1 NSaved=   1.
 NSaved= 1 IEnMin= 1 EnMin= -2048.73948301748     IErMin= 1 ErrMin= 2.78D-04
 ErrMax= 2.78D-04  0.00D+00 EMaxC= 1.00D-01 BMatC= 7.42D-05 BMatP= 7.42D-05
 IDIUse=3 WtCom= 9.97D-01 WtEn= 2.78D-03
 Coeff-Com:  0.100D+01
 Coeff-En:   0.100D+01
 Coeff:      0.100D+01
 Gap=     0.285 Goal=   None    Shift=    0.000
 RMSDP=2.63D-05 MaxDP=1.93D-03 DE=-1.62D-04 OVMax= 2.63D-03

 Cycle   7  Pass 1  IDiag  1:
 RMSU=  1.13D-04    CP:  1.00D+00
 E= -2048.73953839018     Delta-E=       -0.000055372697 Rises=F Damp=F
 DIIS: error= 2.48D-04 at cycle   2 NSaved=   2.
 NSaved= 2 IEnMin= 2 EnMin= -2048.73953839018     IErMin= 2 ErrMin= 2.48D-04
 ErrMax= 2.48D-04  0.00D+00 EMaxC= 1.00D-01 BMatC= 4.21D-05 BMatP= 7.42D-05
 IDIUse=3 WtCom= 9.98D-01 WtEn= 2.48D-03
 Coeff-Com:  0.404D+00 0.596D+00
 Coeff-En:   0.000D+00 0.100D+01
 Coeff:      0.403D+00 0.597D+00
 Gap=     0.285 Goal=   None    Shift=    0.000
 RMSDP=1.14D-05 MaxDP=1.08D-03 DE=-5.54D-05 OVMax= 1.49D-03

 Cycle   8  Pass 1  IDiag  1:
 RMSU=  1.11D-05    CP:  1.00D+00  1.03D+00
 E= -2048.73956859537     Delta-E=       -0.000030205194 Rises=F Damp=F
 DIIS: error= 1.10D-04 at cycle   3 NSaved=   3.
 NSaved= 3 IEnMin= 3 EnMin= -2048.73956859537     IErMin= 3 ErrMin= 1.10D-04
 ErrMax= 1.10D-04  0.00D+00 EMaxC= 1.00D-01 BMatC= 1.02D-05 BMatP= 4.21D-05
 IDIUse=3 WtCom= 9.99D-01 WtEn= 1.10D-03
 Coeff-Com: -0.201D-01 0.317D+00 0.703D+00
 Coeff-En:   0.000D+00 0.140D+00 0.860D+00
 Coeff:     -0.200D-01 0.317D+00 0.703D+00
 Gap=     0.285 Goal=   None    Shift=    0.000
 RMSDP=5.65D-06 MaxDP=4.54D-04 DE=-3.02D-05 OVMax= 5.38D-04

 Cycle   9  Pass 1  IDiag  1:
 RMSU=  3.81D-06    CP:  1.00D+00  1.05D+00  7.56D-01
 E= -2048.73957809473     Delta-E=       -0.000009499355 Rises=F Damp=F
 DIIS: error= 3.48D-05 at cycle   4 NSaved=   4.
 NSaved= 4 IEnMin= 4 EnMin= -2048.73957809473     IErMin= 4 ErrMin= 3.48D-05
 ErrMax= 3.48D-05  0.00D+00 EMaxC= 1.00D-01 BMatC= 4.88D-07 BMatP= 1.02D-05
 IDIUse=1 WtCom= 1.00D+00 WtEn= 0.00D+00
 Coeff-Com: -0.305D-01 0.863D-01 0.258D+00 0.686D+00
 Coeff:     -0.305D-01 0.863D-01 0.258D+00 0.686D+00
 Gap=     0.285 Goal=   None    Shift=    0.000
 RMSDP=1.41D-06 MaxDP=1.31D-04 DE=-9.50D-06 OVMax= 5.01D-04

 Cycle  10  Pass 1  IDiag  1:
 RMSU=  1.26D-06    CP:  1.00D+00  1.06D+00  7.89D-01  1.10D+00
 E= -2048.73957891106     Delta-E=       -0.000000816332 Rises=F Damp=F
 DIIS: error= 1.68D-05 at cycle   5 NSaved=   5.
 NSaved= 5 IEnMin= 5 EnMin= -2048.73957891106     IErMin= 5 ErrMin= 1.68D-05
 ErrMax= 1.68D-05  0.00D+00 EMaxC= 1.00D-01 BMatC= 1.16D-07 BMatP= 4.88D-07
 IDIUse=1 WtCom= 1.00D+00 WtEn= 0.00D+00
 Coeff-Com: -0.254D-02-0.585D-01-0.124D+00 0.200D+00 0.985D+00
 Coeff:     -0.254D-02-0.585D-01-0.124D+00 0.200D+00 0.985D+00
 Gap=     0.285 Goal=   None    Shift=    0.000
 RMSDP=1.20D-06 MaxDP=7.65D-05 DE=-8.16D-07 OVMax= 2.49D-04

 Cycle  11  Pass 1  IDiag  1:
 RMSU=  4.77D-07    CP:  1.00D+00  1.06D+00  7.99D-01  1.38D+00  1.17D+00
 E= -2048.73957916229     Delta-E=       -0.000000251224 Rises=F Damp=F
 DIIS: error= 8.18D-06 at cycle   6 NSaved=   6.
 NSaved= 6 IEnMin= 6 EnMin= -2048.73957916229     IErMin= 6 ErrMin= 8.18D-06
 ErrMax= 8.18D-06  0.00D+00 EMaxC= 1.00D-01 BMatC= 2.69D-08 BMatP= 1.16D-07
 IDIUse=1 WtCom= 1.00D+00 WtEn= 0.00D+00
 Coeff-Com:  0.461D-02-0.456D-01-0.112D+00-0.544D-05 0.522D+00 0.631D+00
 Coeff:      0.461D-02-0.456D-01-0.112D+00-0.544D-05 0.522D+00 0.631D+00
 Gap=     0.285 Goal=   None    Shift=    0.000
 RMSDP=3.46D-07 MaxDP=3.61D-05 DE=-2.51D-07 OVMax= 1.25D-04

 Cycle  12  Pass 1  IDiag  1:
 RMSU=  1.74D-07    CP:  1.00D+00  1.06D+00  8.00D-01  1.45D+00  1.30D+00
                    CP:  9.26D-01
 E= -2048.73957920058     Delta-E=       -0.000000038294 Rises=F Damp=F
 DIIS: error= 1.05D-06 at cycle   7 NSaved=   7.
 NSaved= 7 IEnMin= 7 EnMin= -2048.73957920058     IErMin= 7 ErrMin= 1.05D-06
 ErrMax= 1.05D-06  0.00D+00 EMaxC= 1.00D-01 BMatC= 6.77D-10 BMatP= 2.69D-08
 IDIUse=1 WtCom= 1.00D+00 WtEn= 0.00D+00
 Coeff-Com:  0.888D-03-0.547D-02-0.150D-01-0.771D-02 0.343D-01 0.112D+00
 Coeff-Com:  0.881D+00
 Coeff:      0.888D-03-0.547D-02-0.150D-01-0.771D-02 0.343D-01 0.112D+00
 Coeff:      0.881D+00
 Gap=     0.285 Goal=   None    Shift=    0.000
 RMSDP=8.37D-08 MaxDP=5.30D-06 DE=-3.83D-08 OVMax= 2.33D-05

 Cycle  13  Pass 1  IDiag  1:
 RMSU=  4.76D-08    CP:  1.00D+00  1.06D+00  8.00D-01  1.46D+00  1.32D+00
                    CP:  1.02D+00  1.16D+00
 E= -2048.73957920212     Delta-E=       -0.000000001537 Rises=F Damp=F
 DIIS: error= 6.58D-07 at cycle   8 NSaved=   8.
 NSaved= 8 IEnMin= 8 EnMin= -2048.73957920212     IErMin= 8 ErrMin= 6.58D-07
 ErrMax= 6.58D-07  0.00D+00 EMaxC= 1.00D-01 BMatC= 2.69D-10 BMatP= 6.77D-10
 IDIUse=1 WtCom= 1.00D+00 WtEn= 0.00D+00
 Coeff-Com: -0.717D-03 0.880D-02 0.207D-01-0.177D-02-0.112D+00-0.984D-01
 Coeff-Com:  0.426D+00 0.758D+00
 Coeff:     -0.717D-03 0.880D-02 0.207D-01-0.177D-02-0.112D+00-0.984D-01
 Coeff:      0.426D+00 0.758D+00
 Gap=     0.285 Goal=   None    Shift=    0.000
 RMSDP=4.13D-08 MaxDP=2.38D-06 DE=-1.54D-09 OVMax= 1.01D-05

 Cycle  14  Pass 1  IDiag  1:
 RMSU=  2.47D-08    CP:  1.00D+00  1.06D+00  8.00D-01  1.46D+00  1.32D+00
                    CP:  1.06D+00  1.30D+00  1.09D+00
 E= -2048.73957920243     Delta-E=       -0.000000000315 Rises=F Damp=F
 DIIS: error= 1.94D-07 at cycle   9 NSaved=   9.
 NSaved= 9 IEnMin= 9 EnMin= -2048.73957920243     IErMin= 9 ErrMin= 1.94D-07
 ErrMax= 1.94D-07  0.00D+00 EMaxC= 1.00D-01 BMatC= 2.24D-11 BMatP= 2.69D-10
 IDIUse=1 WtCom= 1.00D+00 WtEn= 0.00D+00
 Coeff-Com: -0.371D-03 0.400D-02 0.965D-02 0.242D-03-0.469D-01-0.502D-01
 Coeff-Com:  0.722D-01 0.272D+00 0.739D+00
 Coeff:     -0.371D-03 0.400D-02 0.965D-02 0.242D-03-0.469D-01-0.502D-01
 Coeff:      0.722D-01 0.272D+00 0.739D+00
 Gap=     0.285 Goal=   None    Shift=    0.000
 RMSDP=1.24D-08 MaxDP=8.44D-07 DE=-3.15D-10 OVMax= 3.37D-06

 Cycle  15  Pass 1  IDiag  1:
 RMSU=  8.18D-09    CP:  1.00D+00  1.06D+00  8.00D-01  1.46D+00  1.32D+00
                    CP:  1.06D+00  1.32D+00  1.22D+00  1.13D+00
 E= -2048.73957920244     Delta-E=       -0.000000000010 Rises=F Damp=F
 DIIS: error= 1.15D-07 at cycle  10 NSaved=  10.
 NSaved=10 IEnMin=10 EnMin= -2048.73957920244     IErMin=10 ErrMin= 1.15D-07
 ErrMax= 1.15D-07  0.00D+00 EMaxC= 1.00D-01 BMatC= 5.02D-12 BMatP= 2.24D-11
 IDIUse=1 WtCom= 1.00D+00 WtEn= 0.00D+00
 Coeff-Com:  0.212D-04-0.478D-03-0.103D-02 0.176D-03 0.730D-02 0.316D-02
 Coeff-Com: -0.607D-01-0.702D-01 0.302D+00 0.820D+00
 Coeff:      0.212D-04-0.478D-03-0.103D-02 0.176D-03 0.730D-02 0.316D-02
 Coeff:     -0.607D-01-0.702D-01 0.302D+00 0.820D+00
 Gap=     0.285 Goal=   None    Shift=    0.000
 RMSDP=6.15D-09 MaxDP=3.65D-07 DE=-1.00D-11 OVMax= 1.28D-06

 SCF Done:  E(RwB97XD) =  -2048.73957920     A.U. after   15 cycles
            NFock= 15  Conv=0.62D-08     -V/T= 2.0054
 KE= 2.037757579828D+03 PE=-1.571100164082D+04 EE= 6.159454205185D+03
 Leave Link  502 at Mon Jan 22 19:22:43 2018, MaxMem=  4294967296 cpu:           20840.6 elap:             673.3
 (Enter /share/apps/g16/l601.exe)
 Copying SCF densities to generalized density rwf, IOpCl= 0 IROHF=0.

 **********************************************************************

            Population analysis using the SCF density.

 **********************************************************************

 Orbital symmetries:
       Occupied  (A) (A) (A) (A) (A) (A) (A) (A) (A) (A) (A) (A)
                 (A) (A) (A) (A) (A) (A) (A) (A) (A) (A) (A) (A)
                 (A) (A) (A) (A) (A) (A) (A) (A) (A) (A) (A) (A)
                 (A) (A) (A) (A) (A) (A) (A) (A) (A) (A) (A) (A)
                 (A) (A) (A) (A) (A) (A) (A) (A) (A) (A) (A) (A)
                 (A) (A) (A) (A) (A) (A) (A) (A) (A) (A) (A) (A)
                 (A) (A) (A) (A) (A) (A) (A) (A) (A) (A) (A) (A)
                 (A) (A) (A) (A) (A) (A) (A) (A) (A) (A) (A) (A)
                 (A) (A) (A) (A) (A) (A) (A) (A) (A) (A) (A) (A)
                 (A) (A) (A) (A) (A) (A) (A) (A) (A) (A) (A) (A)
                 (A) (A) (A) (A) (A) (A) (A) (A) (A) (A) (A) (A)
                 (A) (A) (A) (A) (A) (A) (A) (A) (A) (A) (A) (A)
                 (A) (A) (A) (A) (A) (A) (A) (A) (A) (A)
       Virtual   (A) (A) (A) (A) (A) (A) (A) (A) (A) (A) (A) (A)
                 (A) (A) (A) (A) (A) (A) (A) (A) (A) (A) (A) (A)
                 (A) (A) (A) (A) (A) (A) (A) (A) (A) (A) (A) (A)
                 (A) (A) (A) (A) (A) (A) (A) (A) (A) (A) (A) (A)
                 (A) (A) (A) (A) (A) (A) (A) (A) (A) (A) (A) (A)
                 (A) (A) (A) (A) (A) (A) (A) (A) (A) (A) (A) (A)
                 (A) (A) (A) (A) (A) (A) (A) (A) (A) (A) (A) (A)
                 (A) (A) (A) (A) (A) (A) (A) (A) (A) (A) (A) (A)
                 (A) (A) (A) (A) (A) (A) (A) (A) (A) (A) (A) (A)
                 (A) (A) (A) (A) (A) (A) (A) (A) (A) (A) (A) (A)
                 (A) (A) (A) (A) (A) (A) (A) (A) (A) (A) (A) (A)
                 (A) (A) (A) (A) (A) (A) (A) (A) (A) (A) (A) (A)
                 (A) (A) (A) (A) (A) (A) (A) (A) (A) (A) (A) (A)
                 (A) (A) (A) (A) (A) (A) (A) (A) (A) (A) (A) (A)
                 (A) (A) (A) (A) (A) (A) (A) (A) (A) (A) (A) (A)
                 (A) (A) (A) (A) (A) (A) (A) (A) (A) (A) (A) (A)
                 (A) (A) (A) (A) (A) (A) (A) (A) (A) (A) (A) (A)
                 (A) (A) (A) (A) (A) (A) (A) (A) (A) (A) (A) (A)
                 (A) (A) (A) (A) (A) (A) (A) (A) (A) (A) (A) (A)
                 (A) (A) (A) (A) (A) (A) (A) (A) (A) (A) (A) (A)
                 (A) (A) (A) (A) (A) (A) (A) (A) (A) (A) (A) (A)
                 (A) (A) (A) (A) (A) (A) (A) (A) (A) (A) (A) (A)
                 (A) (A) (A) (A) (A) (A) (A) (A) (A) (A) (A) (A)
                 (A) (A) (A) (A) (A) (A) (A) (A) (A) (A) (A) (A)
                 (A) (A) (A) (A) (A) (A) (A) (A) (A) (A) (A) (A)
                 (A) (A) (A) (A) (A) (A) (A) (A) (A) (A) (A) (A)
                 (A) (A) (A) (A) (A) (A) (A) (A) (A) (A) (A) (A)
                 (A) (A) (A) (A) (A) (A) (A) (A) (A) (A) (A) (A)
                 (A) (A) (A) (A) (A) (A) (A) (A) (A) (A) (A) (A)
                 (A) (A) (A) (A) (A) (A) (A) (A) (A) (A) (A) (A)
                 (A) (A) (A) (A) (A) (A) (A) (A) (A) (A) (A) (A)
                 (A) (A) (A) (A) (A) (A) (A) (A) (A) (A) (A) (A)
                 (A) (A) (A) (A) (A) (A) (A) (A) (A) (A) (A) (A)
                 (A) (A) (A) (A) (A) (A) (A) (A) (A) (A) (A) (A)
                 (A) (A) (A) (A) (A) (A) (A) (A) (A) (A) (A) (A)
                 (A) (A) (A) (A) (A) (A) (A) (A) (A) (A) (A) (A)
                 (A) (A) (A) (A) (A) (A) (A) (A) (A) (A) (A) (A)
                 (A) (A) (A) (A) (A) (A) (A) (A) (A) (A) (A) (A)
                 (A) (A) (A) (A) (A) (A) (A) (A) (A) (A) (A) (A)
                 (A) (A) (A) (A) (A) (A) (A) (A) (A) (A) (A) (A)
                 (A) (A) (A) (A) (A) (A) (A) (A) (A) (A) (A) (A)
                 (A) (A) (A) (A) (A) (A) (A) (A) (A) (A) (A) (A)
                 (A) (A) (A) (A) (A) (A) (A) (A) (A) (A) (A) (A)
                 (A) (A) (A) (A) (A) (A) (A) (A) (A) (A) (A) (A)
                 (A) (A) (A) (A) (A) (A) (A) (A) (A) (A) (A) (A)
                 (A) (A) (A) (A) (A) (A) (A) (A) (A) (A) (A) (A)
                 (A) (A) (A) (A) (A) (A) (A) (A) (A) (A) (A) (A)
                 (A) (A) (A) (A) (A) (A) (A) (A) (A) (A) (A) (A)
                 (A) (A) (A) (A) (A) (A) (A)
 The electronic state is 1-A.
 Alpha  occ. eigenvalues --  -19.25959 -19.22121 -19.20636 -14.52476 -14.51598
 Alpha  occ. eigenvalues --  -14.49210 -14.48720 -14.47966 -14.46989 -14.46762
 Alpha  occ. eigenvalues --  -14.46743 -14.44572 -14.42975 -14.42766 -14.42500
 Alpha  occ. eigenvalues --  -14.42088 -14.41871 -14.41383 -14.40752 -14.40560
 Alpha  occ. eigenvalues --  -10.45579 -10.41299 -10.40232 -10.38639 -10.38252
 Alpha  occ. eigenvalues --  -10.37853 -10.37168 -10.36041 -10.35808 -10.35454
 Alpha  occ. eigenvalues --  -10.34528 -10.34420 -10.34379 -10.33830 -10.33548
 Alpha  occ. eigenvalues --  -10.33519 -10.33215 -10.31559 -10.31328 -10.31133
 Alpha  occ. eigenvalues --  -10.30746 -10.28996 -10.28154  -1.19507  -1.14254
 Alpha  occ. eigenvalues --   -1.13271  -1.13133  -1.11803  -1.10573  -1.09372
 Alpha  occ. eigenvalues --   -1.08678  -1.07960  -1.05398  -1.03530  -1.02585
 Alpha  occ. eigenvalues --   -1.00826  -1.00191  -0.99856  -0.98548  -0.97378
 Alpha  occ. eigenvalues --   -0.96532  -0.95553  -0.93042  -0.91107  -0.86692
 Alpha  occ. eigenvalues --   -0.85181  -0.84372  -0.84123  -0.83779  -0.82723
 Alpha  occ. eigenvalues --   -0.82454  -0.78934  -0.75956  -0.74670  -0.73818
 Alpha  occ. eigenvalues --   -0.73622  -0.73442  -0.73311  -0.71494  -0.69364
 Alpha  occ. eigenvalues --   -0.67502  -0.66706  -0.66622  -0.65700  -0.64526
 Alpha  occ. eigenvalues --   -0.63812  -0.63297  -0.63009  -0.62746  -0.61907
 Alpha  occ. eigenvalues --   -0.60587  -0.59884  -0.59611  -0.59495  -0.59183
 Alpha  occ. eigenvalues --   -0.58576  -0.58466  -0.56923  -0.56822  -0.56684
 Alpha  occ. eigenvalues --   -0.56048  -0.55748  -0.54999  -0.54488  -0.54395
 Alpha  occ. eigenvalues --   -0.53687  -0.53506  -0.52970  -0.52885  -0.52601
 Alpha  occ. eigenvalues --   -0.52344  -0.52118  -0.51852  -0.51177  -0.50587
 Alpha  occ. eigenvalues --   -0.50174  -0.49538  -0.49487  -0.48928  -0.48776
 Alpha  occ. eigenvalues --   -0.48705  -0.48278  -0.47861  -0.47802  -0.47447
 Alpha  occ. eigenvalues --   -0.47381  -0.45503  -0.45419  -0.44091  -0.43141
 Alpha  occ. eigenvalues --   -0.41617  -0.39680  -0.39523  -0.37626  -0.37391
 Alpha  occ. eigenvalues --   -0.37265  -0.36587  -0.36459  -0.35940  -0.34576
 Alpha  occ. eigenvalues --   -0.33988  -0.33890  -0.33309  -0.33252  -0.32883
 Alpha  occ. eigenvalues --   -0.32682  -0.32336  -0.32040  -0.31852  -0.31374
 Alpha  occ. eigenvalues --   -0.30769  -0.28681  -0.26201  -0.25483
 Alpha virt. eigenvalues --    0.03024   0.04888   0.07494   0.07834   0.08511
 Alpha virt. eigenvalues --    0.09373   0.09549   0.10508   0.11243   0.11969
 Alpha virt. eigenvalues --    0.12750   0.13681   0.14473   0.14720   0.14914
 Alpha virt. eigenvalues --    0.16106   0.16368   0.16652   0.16804   0.18170
 Alpha virt. eigenvalues --    0.18716   0.19407   0.19466   0.20061   0.20417
 Alpha virt. eigenvalues --    0.20634   0.21159   0.21422   0.21636   0.22214
 Alpha virt. eigenvalues --    0.22719   0.23392   0.23521   0.23656   0.23711
 Alpha virt. eigenvalues --    0.23949   0.24119   0.24379   0.25221   0.25466
 Alpha virt. eigenvalues --    0.26090   0.26675   0.27220   0.27652   0.28043
 Alpha virt. eigenvalues --    0.28895   0.29405   0.29673   0.30752   0.31003
 Alpha virt. eigenvalues --    0.31121   0.32064   0.32693   0.33292   0.33591
 Alpha virt. eigenvalues --    0.33877   0.34758   0.34996   0.35786   0.36504
 Alpha virt. eigenvalues --    0.36774   0.37624   0.38254   0.39506   0.39853
 Alpha virt. eigenvalues --    0.40014   0.40758   0.41388   0.41537   0.41668
 Alpha virt. eigenvalues --    0.42165   0.42694   0.43533   0.43788   0.44807
 Alpha virt. eigenvalues --    0.45113   0.45423   0.45905   0.46090   0.47127
 Alpha virt. eigenvalues --    0.47518   0.47904   0.48904   0.49160   0.49223
 Alpha virt. eigenvalues --    0.49831   0.50041   0.50493   0.51038   0.51194
 Alpha virt. eigenvalues --    0.51615   0.51674   0.52156   0.52776   0.53474
 Alpha virt. eigenvalues --    0.53888   0.54558   0.54686   0.55194   0.55554
 Alpha virt. eigenvalues --    0.55687   0.56087   0.56911   0.57085   0.57545
 Alpha virt. eigenvalues --    0.57761   0.58501   0.59092   0.59209   0.59809
 Alpha virt. eigenvalues --    0.60131   0.60338   0.60653   0.60984   0.61523
 Alpha virt. eigenvalues --    0.62026   0.62144   0.62665   0.62816   0.63665
 Alpha virt. eigenvalues --    0.63986   0.64408   0.64747   0.64998   0.65182
 Alpha virt. eigenvalues --    0.65743   0.66056   0.66526   0.66848   0.67310
 Alpha virt. eigenvalues --    0.67488   0.68281   0.68495   0.68791   0.69306
 Alpha virt. eigenvalues --    0.69829   0.70160   0.70492   0.71008   0.71395
 Alpha virt. eigenvalues --    0.71954   0.72355   0.72699   0.73207   0.73586
 Alpha virt. eigenvalues --    0.73814   0.74161   0.74425   0.74892   0.75519
 Alpha virt. eigenvalues --    0.75546   0.76179   0.76308   0.76583   0.76935
 Alpha virt. eigenvalues --    0.77294   0.77439   0.78024   0.78302   0.79017
 Alpha virt. eigenvalues --    0.79490   0.79700   0.79992   0.80206   0.80577
 Alpha virt. eigenvalues --    0.81282   0.82276   0.82551   0.82866   0.83098
 Alpha virt. eigenvalues --    0.83512   0.83764   0.84308   0.84893   0.85309
 Alpha virt. eigenvalues --    0.85804   0.86105   0.86191   0.87241   0.88006
 Alpha virt. eigenvalues --    0.88126   0.88707   0.88863   0.89298   0.89774
 Alpha virt. eigenvalues --    0.90363   0.90885   0.91623   0.91680   0.92261
 Alpha virt. eigenvalues --    0.92820   0.92995   0.93596   0.94076   0.94352
 Alpha virt. eigenvalues --    0.94445   0.95083   0.95723   0.96100   0.96479
 Alpha virt. eigenvalues --    0.97050   0.97162   0.97664   0.98219   0.98581
 Alpha virt. eigenvalues --    0.98798   1.00271   1.00535   1.00683   1.01381
 Alpha virt. eigenvalues --    1.02017   1.02238   1.02546   1.03001   1.03181
 Alpha virt. eigenvalues --    1.03934   1.04147   1.04808   1.04997   1.05568
 Alpha virt. eigenvalues --    1.05918   1.06327   1.06776   1.07184   1.08237
 Alpha virt. eigenvalues --    1.08932   1.09531   1.09779   1.10712   1.11160
 Alpha virt. eigenvalues --    1.11749   1.12202   1.12374   1.12584   1.13580
 Alpha virt. eigenvalues --    1.13775   1.14684   1.14829   1.15407   1.15747
 Alpha virt. eigenvalues --    1.15982   1.16033   1.17071   1.17311   1.17863
 Alpha virt. eigenvalues --    1.18173   1.18822   1.19626   1.19739   1.19925
 Alpha virt. eigenvalues --    1.20633   1.20899   1.21328   1.21455   1.21704
 Alpha virt. eigenvalues --    1.21975   1.22223   1.22695   1.22886   1.23327
 Alpha virt. eigenvalues --    1.23617   1.23844   1.24120   1.25242   1.25697
 Alpha virt. eigenvalues --    1.26077   1.26861   1.27191   1.28094   1.28675
 Alpha virt. eigenvalues --    1.29072   1.29583   1.30631   1.30839   1.31329
 Alpha virt. eigenvalues --    1.31726   1.32518   1.33286   1.34255   1.34929
 Alpha virt. eigenvalues --    1.34989   1.35198   1.35981   1.36316   1.36997
 Alpha virt. eigenvalues --    1.38079   1.38734   1.39020   1.39925   1.40446
 Alpha virt. eigenvalues --    1.41422   1.42371   1.43835   1.44529   1.44623
 Alpha virt. eigenvalues --    1.45244   1.46842   1.47408   1.48067   1.48402
 Alpha virt. eigenvalues --    1.48825   1.49121   1.49603   1.49772   1.50743
 Alpha virt. eigenvalues --    1.51479   1.51613   1.52837   1.53366   1.54124
 Alpha virt. eigenvalues --    1.55543   1.55756   1.56248   1.56573   1.57491
 Alpha virt. eigenvalues --    1.58698   1.59488   1.59576   1.60635   1.60996
 Alpha virt. eigenvalues --    1.61651   1.62178   1.62887   1.63312   1.64009
 Alpha virt. eigenvalues --    1.64495   1.65654   1.66275   1.66501   1.67066
 Alpha virt. eigenvalues --    1.67598   1.67746   1.68433   1.69194   1.69303
 Alpha virt. eigenvalues --    1.69690   1.69998   1.70528   1.70821   1.71473
 Alpha virt. eigenvalues --    1.72008   1.72469   1.72716   1.73373   1.73510
 Alpha virt. eigenvalues --    1.74265   1.74538   1.74961   1.75321   1.75482
 Alpha virt. eigenvalues --    1.75826   1.76183   1.76422   1.77021   1.77241
 Alpha virt. eigenvalues --    1.77382   1.78426   1.79013   1.79187   1.79659
 Alpha virt. eigenvalues --    1.79765   1.79954   1.80064   1.80242   1.80764
 Alpha virt. eigenvalues --    1.81088   1.81329   1.81816   1.82047   1.82684
 Alpha virt. eigenvalues --    1.82807   1.82883   1.83723   1.83958   1.84287
 Alpha virt. eigenvalues --    1.85059   1.86099   1.86408   1.87054   1.87611
 Alpha virt. eigenvalues --    1.87837   1.87899   1.88361   1.88811   1.89094
 Alpha virt. eigenvalues --    1.89441   1.89851   1.90536   1.90606   1.91255
 Alpha virt. eigenvalues --    1.92179   1.92711   1.93098   1.93299   1.93858
 Alpha virt. eigenvalues --    1.93905   1.95063   1.95439   1.96687   1.97595
 Alpha virt. eigenvalues --    1.98719   1.99416   1.99943   2.00644   2.01132
 Alpha virt. eigenvalues --    2.01500   2.01905   2.02375   2.03875   2.04458
 Alpha virt. eigenvalues --    2.04859   2.05533   2.06025   2.06670   2.06978
 Alpha virt. eigenvalues --    2.07719   2.08518   2.08589   2.09295   2.10089
 Alpha virt. eigenvalues --    2.11173   2.11394   2.11962   2.12702   2.13068
 Alpha virt. eigenvalues --    2.13780   2.14581   2.15641   2.17265   2.18546
 Alpha virt. eigenvalues --    2.18947   2.19650   2.20088   2.20520   2.21021
 Alpha virt. eigenvalues --    2.21571   2.22184   2.23065   2.23239   2.23694
 Alpha virt. eigenvalues --    2.23867   2.25147   2.25850   2.26188   2.27198
 Alpha virt. eigenvalues --    2.27800   2.28235   2.29305   2.29359   2.29703
 Alpha virt. eigenvalues --    2.30080   2.30310   2.31135   2.32071   2.32542
 Alpha virt. eigenvalues --    2.33645   2.33972   2.34187   2.34674   2.34863
 Alpha virt. eigenvalues --    2.35224   2.36391   2.36631   2.36962   2.38027
 Alpha virt. eigenvalues --    2.38575   2.39570   2.40357   2.41243   2.41514
 Alpha virt. eigenvalues --    2.41871   2.42287   2.43019   2.43585   2.44750
 Alpha virt. eigenvalues --    2.45114   2.45820   2.46135   2.46520   2.47110
 Alpha virt. eigenvalues --    2.48193   2.48973   2.49340   2.50269   2.51798
 Alpha virt. eigenvalues --    2.52565   2.53463   2.54605   2.54703   2.56568
 Alpha virt. eigenvalues --    2.56742   2.57140   2.57512   2.58238   2.59570
 Alpha virt. eigenvalues --    2.60718   2.61010   2.61530   2.62040   2.63431
 Alpha virt. eigenvalues --    2.64461   2.64682   2.64951   2.65393   2.66109
 Alpha virt. eigenvalues --    2.67099   2.67800   2.68411   2.68575   2.69398
 Alpha virt. eigenvalues --    2.70165   2.70853   2.71297   2.71729   2.72856
 Alpha virt. eigenvalues --    2.73513   2.74397   2.75028   2.75217   2.76170
 Alpha virt. eigenvalues --    2.77535   2.78974   2.79468   2.79576   2.79707
 Alpha virt. eigenvalues --    2.80187   2.80507   2.80591   2.81488   2.82053
 Alpha virt. eigenvalues --    2.82258   2.82439   2.82523   2.83589   2.84077
 Alpha virt. eigenvalues --    2.84895   2.85854   2.86436   2.86797   2.87131
 Alpha virt. eigenvalues --    2.87956   2.88345   2.89217   2.91743   2.92344
 Alpha virt. eigenvalues --    2.94452   2.96329   2.96774   2.98591   2.99019
 Alpha virt. eigenvalues --    2.99798   3.01714   3.03917   3.04987   3.06067
 Alpha virt. eigenvalues --    3.07162   3.09607   3.10589   3.13924   3.14546
 Alpha virt. eigenvalues --    3.15269   3.15763   3.16128   3.17617   3.20532
 Alpha virt. eigenvalues --    3.21968   3.22941   3.23449   3.23990   3.26865
 Alpha virt. eigenvalues --    3.46008   3.46926   3.47980   3.49981   3.50362
 Alpha virt. eigenvalues --    3.53006   3.53952   3.56329   3.58068   3.60020
 Alpha virt. eigenvalues --    3.62721   3.71198   3.74600
          Condensed to atoms (all electrons):
 Mulliken charges:
               1
     1  N   -0.311498
     2  C    0.180696
     3  C    0.036612
     4  N   -0.258290
     5  C    0.133673
     6  H    0.027893
     7  N   -0.285244
     8  C    0.123256
     9  H    0.013542
    10  N   -0.289051
    11  C    0.238340
    12  C    0.119717
    13  N   -0.051791
    14  H    0.108365
    15  H    0.088739
    16  H    0.026589
    17  H    0.034580
    18  H    0.026207
    19  N   -0.307609
    20  C    0.234373
    21  C    0.180930
    22  N   -0.109072
    23  H    0.113464
    24  H    0.116721
    25  N   -0.292500
    26  C    0.220724
    27  N   -0.118400
    28  H    0.118985
    29  C    0.142384
    30  O   -0.319235
    31  C    0.009191
    32  N   -0.221931
    33  C    0.128693
    34  H    0.029287
    35  H    0.029998
    36  H    0.027606
    37  H    0.024094
    38  H    0.060330
    39  H    0.060967
    40  H    0.070801
    41  H    0.030867
    42  C   -0.113615
    43  O   -0.269970
    44  C    0.169851
    45  H    0.137345
    46  N   -0.133702
    47  O   -0.352034
    48  C    0.361117
    49  H    0.048047
    50  C    0.178543
    51  C    0.040906
    52  N   -0.291894
    53  H    0.034604
    54  H    0.039216
    55  H    0.018032
    56  H    0.124003
    57  H    0.116476
    58  N   -0.058398
    59  C    0.112328
    60  C    0.228287
    61  N   -0.259437
    62  H    0.056939
    63  C    0.148387
    64  N   -0.298651
    65  H    0.028240
    66  C    0.129896
    67  N   -0.265481
    68  C    0.018780
    69  C    0.167800
    70  N   -0.308620
 Sum of Mulliken charges =  -0.00000
 Mulliken charges with hydrogens summed into heavy atoms:
               1
     1  N   -0.311498
     2  C    0.268073
     3  C    0.036612
     4  N   -0.258290
     5  C    0.161566
     7  N   -0.285244
     8  C    0.136798
    10  N   -0.289051
    11  C    0.238340
    12  C    0.119717
    13  N    0.145314
    19  N   -0.307609
    20  C    0.234373
    21  C    0.262628
    22  N    0.121114
    25  N   -0.292500
    26  C    0.220724
    27  N    0.000585
    29  C    0.142384
    30  O   -0.319235
    31  C    0.009191
    32  N   -0.221931
    33  C    0.157981
    42  C   -0.082748
    43  O   -0.269970
    44  C    0.169851
    46  N    0.003642
    47  O   -0.352034
    48  C    0.361117
    50  C    0.226590
    51  C    0.233004
    52  N   -0.291894
    58  N    0.182081
    59  C    0.112328
    60  C    0.228287
    61  N   -0.259437
    63  C    0.205326
    64  N   -0.298651
    66  C    0.158136
    67  N   -0.265481
    68  C    0.018780
    69  C    0.259651
    70  N   -0.308620
 Electronic spatial extent (au):  <R**2>=          23750.6274
 Charge=             -0.0000 electrons
 Dipole moment (field-independent basis, Debye):
    X=              7.2327    Y=              5.8667    Z=              2.7115  Tot=              9.6996
 Quadrupole moment (field-independent basis, Debye-Ang):
   XX=           -143.4752   YY=           -223.1651   ZZ=           -252.9738
   XY=              7.6271   XZ=             13.3052   YZ=             -8.4022
 Traceless Quadrupole moment (field-independent basis, Debye-Ang):
   XX=             63.0628   YY=            -16.6271   ZZ=            -46.4357
   XY=              7.6271   XZ=             13.3052   YZ=             -8.4022
 Octapole moment (field-independent basis, Debye-Ang**2):
  XXX=             21.1986  YYY=            113.0564  ZZZ=              6.1632  XYY=             59.7106
  XXY=            -37.6618  XXZ=            -63.0119  XZZ=             22.3303  YZZ=             38.0479
  YYZ=             50.7049  XYZ=             44.1256
 Hexadecapole moment (field-independent basis, Debye-Ang**3):
 XXXX=         -15771.0579 YYYY=          -5528.4754 ZZZZ=          -3217.4489 XXXY=            451.3103
 XXXZ=            177.9835 YYYX=             48.9838 YYYZ=           -107.3027 ZZZX=             58.9503
 ZZZY=             34.1491 XXYY=          -4105.5507 XXZZ=          -4210.2928 YYZZ=          -1478.1487
 XXYZ=             94.7705 YYXZ=            222.1430 ZZXY=             60.3678
 N-N= 5.465050276604D+03 E-N=-1.571100164105D+04  KE= 2.037757579828D+03
 No NMR shielding tensors so no spin-rotation constants.
 Leave Link  601 at Mon Jan 22 19:22:45 2018, MaxMem=  4294967296 cpu:              46.3 elap:               1.6
 (Enter /share/apps/g16/l9999.exe)
 1\1\GINC-COMPUTE-0-3\SP\RwB97XD\CC-pVDZ\C23H27N17O3\SATYA\22-Jan-2018\
 0\\#p wb97xd/cc-pvdz sp scf=(maxcycles=20)\\Base pair stacking\\0,1\N,
 0,7.79391,5.2107,-6.47105\C,0,8.71507,6.35915,-6.57363\C,0,5.98535,3.9
 6256,-6.37851\N,0,7.0618,3.09548,-6.25948\C,0,8.1083,3.88214,-6.32\H,0
 ,9.14294,3.54337,-6.25909\N,0,3.79715,4.83067,-6.52372\C,0,4.36479,6.0
 3553,-6.6407\H,0,3.67078,6.86818,-6.74702\N,0,5.65495,6.36471,-6.64603
 \C,0,6.42095,5.26968,-6.50964\C,0,4.59496,3.74893,-6.38803\N,0,4.0302,
 2.54537,-6.27112\H,0,4.58205,1.71701,-6.1686\H,0,3.03678,2.43072,-6.28
 203\H,0,9.31121,6.24015,-7.36775\H,0,8.18787,7.20205,-6.67715\H,0,9.27
 305,6.41655,-5.74576\N,0,2.68773,6.39148,-3.26456\C,0,1.6026,5.54854,-
 3.26328\C,0,2.62499,7.86369,-3.36129\N,0,-1.83463,5.07017,-3.39872\H,0
 ,-2.47369,4.30173,-3.38065\H,0,-2.22878,5.98635,-3.47605\N,0,0.30715,5
 .92058,-3.34948\C,0,-0.50853,4.88155,-3.32272\N,0,-0.08962,3.57718,-3.
 21948\H,0,-0.78428,2.84626,-3.20649\C,0,1.23815,3.1712,-3.12957\O,0,1.
 50927,1.96738,-3.03986\C,0,2.12622,4.2764,-3.15705\N,0,3.51218,4.31981
 ,-3.09292\C,0,3.79939,5.59151,-3.16\H,0,4.80945,6.00203,-3.13738\H,0,3
 .11887,8.16725,-4.17537\H,0,1.67021,8.15097,-3.42565\H,0,3.04036,8.270
 79,-2.54856\H,0,-4.68628,-0.35109,-3.84208\H,0,-4.60633,-0.46861,-2.08
 582\H,0,-4.159,1.03658,-2.88935\H,0,-0.94115,-3.32701,-3.32784\C,0,-1.
 16726,-2.26378,-3.2464\O,0,1.10582,-1.58789,-3.30466\C,0,-0.09293,-1.3
 1856,-3.23206\H,0,0.24246,0.69676,-3.11248\N,0,-0.48859,-0.00045,-3.12
 585\O,0,-2.02508,1.66195,-2.94466\C,0,-1.77352,0.47321,-3.03565\H,0,-3
 .28356,-2.51022,-3.16654\C,0,-2.43101,-1.83238,-3.16\C,0,-4.14268,-0.0
 4071,-2.96218\N,0,-2.75391,-0.49923,-3.05609\H,0,-4.10771,4.54569,-6.8
 6174\H,0,-2.94831,5.17426,-5.90113\H,0,-4.19291,4.34764,-5.24405\H,0,1
 .5773,-0.19241,-6.31721\H,0,-0.04253,-0.70662,-6.46493\N,0,0.60605,0.0
 449,-6.33931\C,0,0.19304,1.3071,-6.20724\C,0,-1.43208,3.04057,-6.08142
 \N,0,-0.53852,4.02948,-5.91402\H,0,1.49092,4.28081,-5.77681\C,0,0.7008
 2,3.54275,-5.90822\N,0,1.11653,2.2789,-6.04035\H,0,-4.34276,1.67023,-6
 .40123\C,0,-3.27521,1.87679,-6.32\N,0,-2.33344,0.96739,-6.38132\C,0,-1
 .15984,1.6919,-6.23142\C,0,-3.57422,4.40527,-6.02768\N,0,-2.80099,3.15
 323,-6.1396\\Version=EM64L-G16RevA.03\State=1-A\HF=-2048.7395792\RMSD=
 6.152e-09\Dipole=-3.7516629,0.65876,-0.2316602\Quadrupole=36.8601305,-
 3.6636948,-33.1964357,23.8976381,-9.9293658,5.8121325\PG=C01 [X(C23H27
 N17O3)]\\@


 SOME THINGS ARE EASY, THEY ARE ONLY HARD TO DO.
            -- A. EINSTEIN TO J. O. HIRSCHFELDER
 THE ONLY TROUBLE WITH A SURE THING IS THE UNCERTAINTY.
     -- FROM A TEABAG (BELONGING TO W.H.?)
 Job cpu time:       0 days  5 hours 57 minutes 33.0 seconds.
 Elapsed time:       0 days  0 hours 11 minutes 32.9 seconds.
 File lengths (MBytes):  RWF=    298 Int=      0 D2E=      0 Chk=     33 Scr=      1
 Normal termination of Gaussian 16 at Mon Jan 22 19:22:46 2018.
