 Entering Gaussian System, Link 0=g16
 Input=str40.-10.-2.5.com
 Output=str40.-10.-2.5.log
 Initial command:
 /share/apps/g16/l1.exe "/state/partition1/scr/Gau-18517.inp" -scrdir="/state/partition1/scr/"
 Entering Link 1 = /share/apps/g16/l1.exe PID=     18518.
  
 Copyright (c) 1988,1990,1992,1993,1995,1998,2003,2009,2016,
            Gaussian, Inc.  All Rights Reserved.
  
 This is part of the Gaussian(R) 16 program.  It is based on
 the Gaussian(R) 09 system (copyright 2009, Gaussian, Inc.),
 the Gaussian(R) 03 system (copyright 2003, Gaussian, Inc.),
 the Gaussian(R) 98 system (copyright 1998, Gaussian, Inc.),
 the Gaussian(R) 94 system (copyright 1995, Gaussian, Inc.),
 the Gaussian 92(TM) system (copyright 1992, Gaussian, Inc.),
 the Gaussian 90(TM) system (copyright 1990, Gaussian, Inc.),
 the Gaussian 88(TM) system (copyright 1988, Gaussian, Inc.),
 the Gaussian 86(TM) system (copyright 1986, Carnegie Mellon
 University), and the Gaussian 82(TM) system (copyright 1983,
 Carnegie Mellon University). Gaussian is a federally registered
 trademark of Gaussian, Inc.
  
 This software contains proprietary and confidential information,
 including trade secrets, belonging to Gaussian, Inc.
  
 This software is provided under written license and may be
 used, copied, transmitted, or stored only in accord with that
 written license.
  
 The following legend is applicable only to US Government
 contracts under FAR:
  
                    RESTRICTED RIGHTS LEGEND
  
 Use, reproduction and disclosure by the US Government is
 subject to restrictions as set forth in subparagraphs (a)
 and (c) of the Commercial Computer Software - Restricted
 Rights clause in FAR 52.227-19.
  
 Gaussian, Inc.
 340 Quinnipiac St., Bldg. 40, Wallingford CT 06492
  
  
 ---------------------------------------------------------------
 Warning -- This program may not be used in any manner that
 competes with the business of Gaussian, Inc. or will provide
 assistance to any competitor of Gaussian, Inc.  The licensee
 of this program is prohibited from giving any competitor of
 Gaussian, Inc. access to this program.  By using this program,
 the user acknowledges that Gaussian, Inc. is engaged in the
 business of creating and licensing software in the field of
 computational chemistry and represents and warrants to the
 licensee that it is not a competitor of Gaussian, Inc. and that
 it will not use this program in any manner prohibited above.
 ---------------------------------------------------------------
  

 Cite this work as:
 Gaussian 16, Revision A.03,
 M. J. Frisch, G. W. Trucks, H. B. Schlegel, G. E. Scuseria, 
 M. A. Robb, J. R. Cheeseman, G. Scalmani, V. Barone, 
 G. A. Petersson, H. Nakatsuji, X. Li, M. Caricato, A. V. Marenich, 
 J. Bloino, B. G. Janesko, R. Gomperts, B. Mennucci, H. P. Hratchian, 
 J. V. Ortiz, A. F. Izmaylov, J. L. Sonnenberg, D. Williams-Young, 
 F. Ding, F. Lipparini, F. Egidi, J. Goings, B. Peng, A. Petrone, 
 T. Henderson, D. Ranasinghe, V. G. Zakrzewski, J. Gao, N. Rega, 
 G. Zheng, W. Liang, M. Hada, M. Ehara, K. Toyota, R. Fukuda, 
 J. Hasegawa, M. Ishida, T. Nakajima, Y. Honda, O. Kitao, H. Nakai, 
 T. Vreven, K. Throssell, J. A. Montgomery, Jr., J. E. Peralta, 
 F. Ogliaro, M. J. Bearpark, J. J. Heyd, E. N. Brothers, K. N. Kudin, 
 V. N. Staroverov, T. A. Keith, R. Kobayashi, J. Normand, 
 K. Raghavachari, A. P. Rendell, J. C. Burant, S. S. Iyengar, 
 J. Tomasi, M. Cossi, J. M. Millam, M. Klene, C. Adamo, R. Cammi, 
 J. W. Ochterski, R. L. Martin, K. Morokuma, O. Farkas, 
 J. B. Foresman, and D. J. Fox, Gaussian, Inc., Wallingford CT, 2016.
 
 ******************************************
 Gaussian 16:  EM64L-G16RevA.03 25-Dec-2016
                22-Jan-2018 
 ******************************************
 %nprocshared=32
 Will use up to   32 processors via shared memory.
 %mem=32GB
 %chk=allatoms_t.chk
 ---------------------------------------
 #p wb97xd/cc-pvdz sp scf=(maxcycles=20)
 ---------------------------------------
 1/38=1,172=1/1;
 2/12=2,17=6,18=5,40=1/2;
 3/5=16,11=2,25=1,30=1,74=-58/1,2,3;
 4//1;
 5/5=2,7=20,38=5/2;
 6/7=2,8=2,9=2,10=2,28=1/1;
 99/5=1,9=1/99;
 Leave Link    1 at Mon Jan 22 23:27:27 2018, MaxMem=  4294967296 cpu:               3.2 elap:               0.1
 (Enter /share/apps/g16/l101.exe)
 ------------------
 Base pair stacking
 ------------------
 Symbolic Z-matrix:
 Charge =  0 Multiplicity = 1
 N                     7.2881    6.31498  -7.5691 
 C                     8.202     7.4702   -7.66 
 C                     5.50543   5.05526  -7.29982 
 N                     6.54789   4.19231  -7.60531 
 C                     7.58016   4.98579  -7.75531 
 H                     8.58784   4.65183  -8.00432 
 N                     3.37599   5.91345  -6.75951 
 C                     3.94489   7.12332  -6.77068 
 H                     3.27595   7.95378  -6.54905 
 N                     5.21011   7.4598   -7.01339 
 C                     5.9464    6.3669   -7.27389 
 C                     4.14354   4.83401  -7.02553 
 N                     3.57748   3.62545  -7.01485 
 H                     4.10748   2.79856  -7.20608 
 H                     2.60487   3.50542  -6.81544 
 H                     8.59398   7.51536  -8.57896 
 H                     7.69627   8.31179  -7.47266 
 H                     8.93772   7.36935  -6.99027 
 N                     2.56749   6.85495  -3.38168 
 C                     1.48973   6.01123  -3.26077 
 C                     2.50059   8.33015  -3.38553 
 N                    -1.93076   5.53475  -2.8934 
 H                    -2.56467   4.7653   -2.82026 
 H                    -2.32591   6.45308  -2.8582 
 N                     0.19892   6.38508  -3.12625 
 C                    -0.60999   5.34465  -3.03248 
 N                    -0.18902   4.03734  -3.06753 
 H                    -0.87839   3.30554  -2.98877 
 C                     1.13406   3.62945  -3.20523 
 O                     1.4076    2.42301  -3.22536 
 C                     2.01484   4.73612  -3.30715 
 N                     3.39451   4.77847  -3.45421 
 C                     3.6766    6.05247  -3.49369 
 H                     4.68094   6.46297  -3.60357 
 H                     2.86582   8.67978  -4.24761 
 H                     1.5492    8.61879  -3.28649 
 H                     3.03843   8.69185  -2.62481 
 H                    -4.8532    0.1415   -3.19485 
 H                    -4.50564  -0.0741   -1.48097 
 H                    -4.17669   1.4746   -2.2586 
 H                    -1.09367  -2.85152  -3.42802 
 C                    -1.29744  -1.79494  -3.25378 
 O                     0.94432  -1.11258  -3.62256 
 C                    -0.22726  -0.85     -3.35194 
 H                     0.1361    1.15608  -3.17327 
 N                    -0.59305   0.45934  -3.11305 
 O                    -2.07232   2.10609  -2.60591 
 C                    -1.84572   0.92479  -2.80047 
 H                    -3.37807  -2.04945  -2.86387 
 C                    -2.53004  -1.37144  -2.95055 
 C                    -4.179     0.40311  -2.39292 
 N                    -2.82419  -0.04682  -2.72426 
 H                    -4.3984    5.62277  -5.29095 
 H                    -3.02642   6.06176  -4.52476 
 H                    -4.11504   5.10999  -3.76773 
 H                     1.08194   0.92609  -7.0151 
 H                    -0.54591   0.43503  -6.87702 
 N                     0.14114   1.15357  -6.76352 
 C                    -0.18387   2.36112  -6.2973 
 C                    -1.67167   4.02005  -5.46295 
 N                    -0.72812   4.96554  -5.32096 
 H                     1.28597   5.20496  -5.6155 
 C                     0.46048   4.49935  -5.69887 
 N                     0.78804   3.29023  -6.1661 
 H                    -4.6256    2.7107   -5.35291 
 C                    -3.56131   2.90775  -5.48485 
 N                    -2.69298   2.03741  -5.93892 
 C                    -1.49082   2.72985  -5.9301 
 C                    -3.69227   5.3265   -4.64783 
 N                    -3.012     4.12849  -5.17698 
 
 ITRead=  0  0  0  0  0  0  0  0  0  0  0  0  0  0  0  0  0  0  0  0
 ITRead=  0  0  0  0  0  0  0  0  0  0  0  0  0  0  0  0  0  0  0  0
 ITRead=  0  0  0  0  0  0  0  0  0  0  0  0  0  0  0  0  0  0  0  0
 ITRead=  0  0  0  0  0  0  0  0  0  0
 MicOpt= -1 -1 -1 -1 -1 -1 -1 -1 -1 -1 -1 -1 -1 -1 -1 -1 -1 -1 -1 -1
 MicOpt= -1 -1 -1 -1 -1 -1 -1 -1 -1 -1 -1 -1 -1 -1 -1 -1 -1 -1 -1 -1
 MicOpt= -1 -1 -1 -1 -1 -1 -1 -1 -1 -1 -1 -1 -1 -1 -1 -1 -1 -1 -1 -1
 MicOpt= -1 -1 -1 -1 -1 -1 -1 -1 -1 -1
 NAtoms=     70 NQM=       70 NQMF=       0 NMMI=      0 NMMIF=      0
                NMic=       0 NMicF=      0.
                    Isotopes and Nuclear Properties:
 (Nuclear quadrupole moments (NQMom) in fm**2, nuclear magnetic moments (NMagM)
  in nuclear magnetons)

  Atom         1           2           3           4           5           6           7           8           9          10
 IAtWgt=          14          12          12          14          12           1          14          12           1          14
 AtmWgt=  14.0030740  12.0000000  12.0000000  14.0030740  12.0000000   1.0078250  14.0030740  12.0000000   1.0078250  14.0030740
 NucSpn=           2           0           0           2           0           1           2           0           1           2
 AtZEff=  -0.0000000  -0.0000000  -0.0000000  -0.0000000  -0.0000000  -0.0000000  -0.0000000  -0.0000000  -0.0000000  -0.0000000
 NQMom=    2.0440000   0.0000000   0.0000000   2.0440000   0.0000000   0.0000000   2.0440000   0.0000000   0.0000000   2.0440000
 NMagM=    0.4037610   0.0000000   0.0000000   0.4037610   0.0000000   2.7928460   0.4037610   0.0000000   2.7928460   0.4037610
 AtZNuc=   7.0000000   6.0000000   6.0000000   7.0000000   6.0000000   1.0000000   7.0000000   6.0000000   1.0000000   7.0000000

  Atom        11          12          13          14          15          16          17          18          19          20
 IAtWgt=          12          12          14           1           1           1           1           1          14          12
 AtmWgt=  12.0000000  12.0000000  14.0030740   1.0078250   1.0078250   1.0078250   1.0078250   1.0078250  14.0030740  12.0000000
 NucSpn=           0           0           2           1           1           1           1           1           2           0
 AtZEff=  -0.0000000  -0.0000000  -0.0000000  -0.0000000  -0.0000000  -0.0000000  -0.0000000  -0.0000000  -0.0000000  -0.0000000
 NQMom=    0.0000000   0.0000000   2.0440000   0.0000000   0.0000000   0.0000000   0.0000000   0.0000000   2.0440000   0.0000000
 NMagM=    0.0000000   0.0000000   0.4037610   2.7928460   2.7928460   2.7928460   2.7928460   2.7928460   0.4037610   0.0000000
 AtZNuc=   6.0000000   6.0000000   7.0000000   1.0000000   1.0000000   1.0000000   1.0000000   1.0000000   7.0000000   6.0000000

  Atom        21          22          23          24          25          26          27          28          29          30
 IAtWgt=          12          14           1           1          14          12          14           1          12          16
 AtmWgt=  12.0000000  14.0030740   1.0078250   1.0078250  14.0030740  12.0000000  14.0030740   1.0078250  12.0000000  15.9949146
 NucSpn=           0           2           1           1           2           0           2           1           0           0
 AtZEff=  -0.0000000  -0.0000000  -0.0000000  -0.0000000  -0.0000000  -0.0000000  -0.0000000  -0.0000000  -0.0000000  -0.0000000
 NQMom=    0.0000000   2.0440000   0.0000000   0.0000000   2.0440000   0.0000000   2.0440000   0.0000000   0.0000000   0.0000000
 NMagM=    0.0000000   0.4037610   2.7928460   2.7928460   0.4037610   0.0000000   0.4037610   2.7928460   0.0000000   0.0000000
 AtZNuc=   6.0000000   7.0000000   1.0000000   1.0000000   7.0000000   6.0000000   7.0000000   1.0000000   6.0000000   8.0000000

  Atom        31          32          33          34          35          36          37          38          39          40
 IAtWgt=          12          14          12           1           1           1           1           1           1           1
 AtmWgt=  12.0000000  14.0030740  12.0000000   1.0078250   1.0078250   1.0078250   1.0078250   1.0078250   1.0078250   1.0078250
 NucSpn=           0           2           0           1           1           1           1           1           1           1
 AtZEff=  -0.0000000  -0.0000000  -0.0000000  -0.0000000  -0.0000000  -0.0000000  -0.0000000  -0.0000000  -0.0000000  -0.0000000
 NQMom=    0.0000000   2.0440000   0.0000000   0.0000000   0.0000000   0.0000000   0.0000000   0.0000000   0.0000000   0.0000000
 NMagM=    0.0000000   0.4037610   0.0000000   2.7928460   2.7928460   2.7928460   2.7928460   2.7928460   2.7928460   2.7928460
 AtZNuc=   6.0000000   7.0000000   6.0000000   1.0000000   1.0000000   1.0000000   1.0000000   1.0000000   1.0000000   1.0000000

  Atom        41          42          43          44          45          46          47          48          49          50
 IAtWgt=           1          12          16          12           1          14          16          12           1          12
 AtmWgt=   1.0078250  12.0000000  15.9949146  12.0000000   1.0078250  14.0030740  15.9949146  12.0000000   1.0078250  12.0000000
 NucSpn=           1           0           0           0           1           2           0           0           1           0
 AtZEff=  -0.0000000  -0.0000000  -0.0000000  -0.0000000  -0.0000000  -0.0000000  -0.0000000  -0.0000000  -0.0000000  -0.0000000
 NQMom=    0.0000000   0.0000000   0.0000000   0.0000000   0.0000000   2.0440000   0.0000000   0.0000000   0.0000000   0.0000000
 NMagM=    2.7928460   0.0000000   0.0000000   0.0000000   2.7928460   0.4037610   0.0000000   0.0000000   2.7928460   0.0000000
 AtZNuc=   1.0000000   6.0000000   8.0000000   6.0000000   1.0000000   7.0000000   8.0000000   6.0000000   1.0000000   6.0000000

  Atom        51          52          53          54          55          56          57          58          59          60
 IAtWgt=          12          14           1           1           1           1           1          14          12          12
 AtmWgt=  12.0000000  14.0030740   1.0078250   1.0078250   1.0078250   1.0078250   1.0078250  14.0030740  12.0000000  12.0000000
 NucSpn=           0           2           1           1           1           1           1           2           0           0
 AtZEff=  -0.0000000  -0.0000000  -0.0000000  -0.0000000  -0.0000000  -0.0000000  -0.0000000  -0.0000000  -0.0000000  -0.0000000
 NQMom=    0.0000000   2.0440000   0.0000000   0.0000000   0.0000000   0.0000000   0.0000000   2.0440000   0.0000000   0.0000000
 NMagM=    0.0000000   0.4037610   2.7928460   2.7928460   2.7928460   2.7928460   2.7928460   0.4037610   0.0000000   0.0000000
 AtZNuc=   6.0000000   7.0000000   1.0000000   1.0000000   1.0000000   1.0000000   1.0000000   7.0000000   6.0000000   6.0000000

  Atom        61          62          63          64          65          66          67          68          69          70
 IAtWgt=          14           1          12          14           1          12          14          12          12          14
 AtmWgt=  14.0030740   1.0078250  12.0000000  14.0030740   1.0078250  12.0000000  14.0030740  12.0000000  12.0000000  14.0030740
 NucSpn=           2           1           0           2           1           0           2           0           0           2
 AtZEff=  -0.0000000  -0.0000000  -0.0000000  -0.0000000  -0.0000000  -0.0000000  -0.0000000  -0.0000000  -0.0000000  -0.0000000
 NQMom=    2.0440000   0.0000000   0.0000000   2.0440000   0.0000000   0.0000000   2.0440000   0.0000000   0.0000000   2.0440000
 NMagM=    0.4037610   2.7928460   0.0000000   0.4037610   2.7928460   0.0000000   0.4037610   0.0000000   0.0000000   0.4037610
 AtZNuc=   7.0000000   1.0000000   6.0000000   7.0000000   1.0000000   6.0000000   7.0000000   6.0000000   6.0000000   7.0000000
 Leave Link  101 at Mon Jan 22 23:27:28 2018, MaxMem=  4294967296 cpu:               7.4 elap:               0.3
 (Enter /share/apps/g16/l202.exe)
 Stoichiometry    C23H27N17O3
 Framework group  C1[X(C23H27N17O3)]
 Deg. of freedom   204
 Full point group                 C1      NOp   1
 Largest Abelian subgroup         C1      NOp   1
 Largest concise Abelian subgroup C1      NOp   1
                         Standard orientation:                         
 ---------------------------------------------------------------------
 Center     Atomic      Atomic             Coordinates (Angstroms)
 Number     Number       Type             X           Y           Z
 ---------------------------------------------------------------------
      1          7           0       -7.148458   -1.333181    0.165114
      2          6           0       -8.497765   -0.767031   -0.026858
      3          6           0       -4.993262   -1.560873    0.540087
      4          7           0       -5.486032   -2.838940    0.319967
      5          6           0       -6.764738   -2.650604    0.102866
      6          1           0       -7.481076   -3.444740   -0.109646
      7          7           0       -3.552646    0.251807    0.989259
      8          6           0       -4.628060    1.037188    0.870013
      9          1           0       -4.444628    2.101436    1.011415
     10          7           0       -5.890128    0.706872    0.603584
     11          6           0       -6.006224   -0.622295    0.447859
     12          6           0       -3.702393   -1.080980    0.826953
     13          7           0       -2.630078   -1.866612    0.945597
     14          1           0       -2.694359   -2.858839    0.833477
     15          1           0       -1.726409   -1.490383    1.150478
     16          1           0       -9.122153   -1.152231    0.652800
     17          1           0       -8.461649    0.226135    0.080153
     18          1           0       -8.827641   -0.989960   -0.944179
     19          7           0       -2.328295    2.340786   -1.672877
     20          6           0       -0.996616    2.121239   -1.415041
     21          6           0       -3.026286    3.632793   -1.517210
     22          7           0        2.104816    3.305887   -0.395494
     23          1           0        3.027686    2.943249   -0.268813
     24          1           0        1.965671    4.274697   -0.188715
     25          7           0       -0.109155    3.041518   -0.979668
     26          6           0        1.098416    2.528716   -0.823372
     27          7           0        1.414774    1.215424   -1.073745
     28          1           0        2.364743    0.910777   -0.926385
     29          6           0        0.517746    0.251032   -1.522259
     30          8           0        0.905734   -0.907434   -1.717576
     31          6           0       -0.783731    0.786998   -1.694825
     32          7           0       -1.958131    0.181096   -2.119769
     33          6           0       -2.844893    1.138714   -2.090962
     34          1           0       -3.893835    1.022152   -2.365586
     35          1           0       -3.766342    3.535772   -0.852591
     36          1           0       -2.378879    4.322272   -1.195113
     37          1           0       -3.404297    3.917502   -2.397461
     38          1           0        7.099090   -0.123252    0.612924
     39          1           0        7.465026    0.012190   -1.105334
     40          1           0        6.170454    0.981549   -0.401194
     41          1           0        5.532543   -4.391349   -0.960568
     42          6           0        5.212930   -3.349287   -0.946498
     43          8           0        2.952044   -3.843861   -1.466973
     44          6           0        3.842943   -3.033452   -1.213361
     45          1           0        2.586663   -1.424018   -1.354044
     46          7           0        3.544924   -1.686380   -1.170647
     47          8           0        4.052381    0.509221   -0.889508
     48          6           0        4.410780   -0.655245   -0.904965
     49          1           0        7.133479   -2.552606   -0.474675
     50          6           0        6.081105   -2.365420   -0.684045
     51          6           0        6.675458    0.027578   -0.368841
     52          7           0        5.713900   -1.039970   -0.657776
     53          1           0        3.291313    3.797581    2.797576
     54          1           0        2.206441    3.786226    1.578966
     55          1           0        3.800411    3.653932    1.253679
     56          1           0        0.745291   -3.091015    1.734262
     57          1           0        2.344275   -2.763784    2.230518
     58          7           0        1.462941   -2.416567    1.908167
     59          6           0        1.254963   -1.111919    1.718940
     60          6           0        1.865230    1.187901    1.707068
     61          7           0        0.671541    1.625535    1.273497
     62          1           0       -1.158168    0.871195    0.740796
     63          6           0       -0.162931    0.603727    1.093264
     64          7           0        0.043484   -0.703657    1.282237
     65          1           0        4.935684    1.384673    2.699944
     66          6           0        3.940342    1.053019    2.402874
     67          7           0        3.544650   -0.196333    2.388189
     68          6           0        2.230626   -0.124943    1.948890
     69          6           0        3.076284    3.412805    1.899964
     70          7           0        2.974727    1.944071    2.002441
 ---------------------------------------------------------------------
 Rotational constants (GHZ):           0.1537081           0.0495925           0.0444707
 Leave Link  202 at Mon Jan 22 23:27:28 2018, MaxMem=  4294967296 cpu:               0.4 elap:               0.0
 (Enter /share/apps/g16/l301.exe)
 Standard basis: CC-pVDZ (5D, 7F)
 Ernie: Thresh=  0.10000D-02 Tol=  0.10000D-05 Strict=F.
 Ernie:  86 primitive shells out of 1081 were deleted.
 There are   780 symmetry adapted cartesian basis functions of A   symmetry.
 There are   737 symmetry adapted basis functions of A   symmetry.
   737 basis functions,  1608 primitive gaussians,   780 cartesian basis functions
   154 alpha electrons      154 beta electrons
       nuclear repulsion energy      5477.5481716780 Hartrees.
 IExCor= 4639 DFT=T Ex+Corr=wB97XD ExCW=0 ScaHFX=  1.000000
 ScaDFX=  1.000000  1.000000  1.000000  1.000000 ScalE2=  1.000000  1.000000
 IRadAn=      5 IRanWt=     -1 IRanGd=            0 ICorTp=0 IEmpDi=121
 HFx  wShort=  0.000000 wLong=  0.200000 cFull=  0.222036 cShort=  0.000000 cLong=  0.777964
 DFx  wShort=  0.000000 wLong=  0.200000 cFull=  0.000000 cShort=  0.000000 cLong=  1.000000
 NAtoms=   70 NActive=   70 NUniq=   70 SFac= 1.00D+00 NAtFMM=   60 NAOKFM=T Big=T
 Integral buffers will be    131072 words long.
 Raffenetti 2 integral format.
 Two-electron integral symmetry is turned on.
 R6Disp:  Grimme-D2 Dispersion energy=       -0.0708017385 Hartrees.
 Nuclear repulsion after empirical dispersion term =     5477.4773699395 Hartrees.
 Leave Link  301 at Mon Jan 22 23:27:28 2018, MaxMem=  4294967296 cpu:               2.8 elap:               0.1
 (Enter /share/apps/g16/l302.exe)
 NPDir=0 NMtPBC=     1 NCelOv=     1 NCel=       1 NClECP=     1 NCelD=      1
         NCelK=      1 NCelE2=     1 NClLst=     1 CellRange=     0.0.
 One-electron integrals computed using PRISM.
 One-electron integral symmetry used in STVInt
 NBasis=   737 RedAO= T EigKep=  6.83D-04  NBF=   737
 NBsUse=   737 1.00D-06 EigRej= -1.00D+00 NBFU=   737
 Precomputing XC quadrature grid using
 IXCGrd= 4 IRadAn=           5 IRanWt=          -1 IRanGd=           0 AccXCQ= 0.00D+00.
 Generated NRdTot=       0 NPtTot=           0 NUsed=           0 NTot=          32
 NSgBfM=   756   756   756   756   756 MxSgAt=    70 MxSgA2=    70.
 Leave Link  302 at Mon Jan 22 23:27:32 2018, MaxMem=  4294967296 cpu:             135.7 elap:               4.3
 (Enter /share/apps/g16/l303.exe)
 DipDrv:  MaxL=1.
 Leave Link  303 at Mon Jan 22 23:27:33 2018, MaxMem=  4294967296 cpu:              12.4 elap:               0.4
 (Enter /share/apps/g16/l401.exe)
 ExpMin= 1.22D-01 ExpMax= 1.17D+04 ExpMxC= 4.01D+02 IAcc=3 IRadAn=         5 AccDes= 0.00D+00
 Harris functional with IExCor= 4639 and IRadAn=       5 diagonalized for initial guess.
 HarFok:  IExCor= 4639 AccDes= 0.00D+00 IRadAn=         5 IDoV= 1 UseB2=F ITyADJ=14
 ICtDFT=  3500011 ScaDFX=  1.000000  1.000000  1.000000  1.000000
 FoFCou: FMM=F IPFlag=           0 FMFlag=      100000 FMFlg1=        2001
         NFxFlg=           0 DoJE=T BraDBF=F KetDBF=T FulRan=T
         wScrn=  0.000000 ICntrl=       500 IOpCl=  0 I1Cent=   200000004 NGrid=           0
         NMat0=    1 NMatS0=      1 NMatT0=    0 NMatD0=    1 NMtDS0=    0 NMtDT0=    0
 Petite list used in FoFCou.
 Harris En= -1963.81308939321    
 JPrj=0 DoOrth=F DoCkMO=F.
 Leave Link  401 at Mon Jan 22 23:27:45 2018, MaxMem=  4294967296 cpu:             396.2 elap:              12.4
 (Enter /share/apps/g16/l502.exe)
 Integral symmetry usage will be decided dynamically.
 Closed shell SCF:
 Using DIIS extrapolation, IDIIS=  1040.
 NGot=  4294967296 LenX=  4293717438 LenY=  4293108258
 Requested convergence on RMS density matrix=1.00D-08 within  20 cycles.
 Requested convergence on MAX density matrix=1.00D-06.
 Requested convergence on             energy=1.00D-06.
 No special actions if energy rises.
 Fock matrices will be formed incrementally for  20 cycles.
 Integral accuracy reduced to 1.0D-05 until final iterations.

 Cycle   1  Pass 0  IDiag  1:
 FoFJK:  IHMeth= 1 ICntrl=       0 DoSepK=T KAlg= 0 I1Cent=           0 FoldK=F
 IRaf=         1 NMat=       1 IRICut=       1 DoRegI=T DoRafI=F ISym2E= 0 IDoP0=0 IntGTp=1.
 FoFCou: FMM=T IPFlag=           0 FMFlag=      100000 FMFlg1=        2001
         NFxFlg=           0 DoJE=T BraDBF=F KetDBF=F FulRan=T
         wScrn=  0.000000 ICntrl=       500 IOpCl=  0 I1Cent=           0 NGrid=           0
         NMat0=    1 NMatS0=      1 NMatT0=    0 NMatD0=    1 NMtDS0=    0 NMtDT0=    0
 Symmetry not used in FoFCou.
 FMM levels:  10  Number of levels for PrismC:   9
 E= -2048.25759307332    
 DIIS: error= 2.62D-02 at cycle   1 NSaved=   1.
 NSaved= 1 IEnMin= 1 EnMin= -2048.25759307332     IErMin= 1 ErrMin= 2.62D-02
 ErrMax= 2.62D-02  0.00D+00 EMaxC= 1.00D-01 BMatC= 8.33D-01 BMatP= 8.33D-01
 IDIUse=3 WtCom= 7.38D-01 WtEn= 2.62D-01
 Coeff-Com:  0.100D+01
 Coeff-En:   0.100D+01
 Coeff:      0.100D+01
 Gap=     0.252 Goal=   None    Shift=    0.000
 GapD=    0.252 DampG=1.000 DampE=0.500 DampFc=0.5000 IDamp=-1.
 Damping current iteration by 5.00D-01
 RMSDP=1.59D-03 MaxDP=1.30D-01              OVMax= 2.07D-01

 Cycle   2  Pass 0  IDiag  1:
 RMSU=  7.95D-04    CP:  9.97D-01
 E= -2048.45526124109     Delta-E=       -0.197668167772 Rises=F Damp=T
 DIIS: error= 1.31D-02 at cycle   2 NSaved=   2.
 NSaved= 2 IEnMin= 2 EnMin= -2048.45526124109     IErMin= 2 ErrMin= 1.31D-02
 ErrMax= 1.31D-02  0.00D+00 EMaxC= 1.00D-01 BMatC= 1.45D-01 BMatP= 8.33D-01
 IDIUse=3 WtCom= 8.69D-01 WtEn= 1.31D-01
 Coeff-Com: -0.194D+00 0.119D+01
 Coeff-En:   0.000D+00 0.100D+01
 Coeff:     -0.168D+00 0.117D+01
 Gap=     0.359 Goal=   None    Shift=    0.000
 RMSDP=5.98D-04 MaxDP=3.30D-02 DE=-1.98D-01 OVMax= 1.25D-01

 Cycle   3  Pass 0  IDiag  1:
 RMSU=  5.87D-04    CP:  9.94D-01  1.13D+00
 E= -2048.63695736434     Delta-E=       -0.181696123249 Rises=F Damp=F
 DIIS: error= 6.53D-03 at cycle   3 NSaved=   3.
 NSaved= 3 IEnMin= 3 EnMin= -2048.63695736434     IErMin= 3 ErrMin= 6.53D-03
 ErrMax= 6.53D-03  0.00D+00 EMaxC= 1.00D-01 BMatC= 6.22D-02 BMatP= 1.45D-01
 IDIUse=3 WtCom= 9.35D-01 WtEn= 6.53D-02
 Coeff-Com: -0.230D+00 0.544D+00 0.686D+00
 Coeff-En:   0.000D+00 0.000D+00 0.100D+01
 Coeff:     -0.215D+00 0.509D+00 0.706D+00
 Gap=     0.278 Goal=   None    Shift=    0.000
 RMSDP=3.58D-04 MaxDP=3.29D-02 DE=-1.82D-01 OVMax= 6.38D-02

 Cycle   4  Pass 0  IDiag  1:
 RMSU=  2.05D-04    CP:  9.94D-01  1.41D+00  6.80D-01
 E= -2048.68453755631     Delta-E=       -0.047580191975 Rises=F Damp=F
 DIIS: error= 2.56D-03 at cycle   4 NSaved=   4.
 NSaved= 4 IEnMin= 4 EnMin= -2048.68453755631     IErMin= 4 ErrMin= 2.56D-03
 ErrMax= 2.56D-03  0.00D+00 EMaxC= 1.00D-01 BMatC= 8.67D-03 BMatP= 6.22D-02
 IDIUse=3 WtCom= 9.74D-01 WtEn= 2.56D-02
 Coeff-Com: -0.970D-01 0.188D+00 0.378D+00 0.531D+00
 Coeff-En:   0.000D+00 0.000D+00 0.546D-01 0.945D+00
 Coeff:     -0.945D-01 0.183D+00 0.369D+00 0.542D+00
 Gap=     0.282 Goal=   None    Shift=    0.000
 RMSDP=1.28D-04 MaxDP=1.17D-02 DE=-4.76D-02 OVMax= 1.40D-02

 Cycle   5  Pass 0  IDiag  1:
 RMSU=  6.26D-05    CP:  9.93D-01  1.39D+00  8.09D-01  6.14D-01
 E= -2048.69175134873     Delta-E=       -0.007213792411 Rises=F Damp=F
 DIIS: error= 5.62D-04 at cycle   5 NSaved=   5.
 NSaved= 5 IEnMin= 5 EnMin= -2048.69175134873     IErMin= 5 ErrMin= 5.62D-04
 ErrMax= 5.62D-04  0.00D+00 EMaxC= 1.00D-01 BMatC= 3.01D-04 BMatP= 8.67D-03
 IDIUse=3 WtCom= 9.94D-01 WtEn= 5.62D-03
 Coeff-Com: -0.256D-01 0.440D-01 0.122D+00 0.241D+00 0.618D+00
 Coeff-En:   0.000D+00 0.000D+00 0.000D+00 0.000D+00 0.100D+01
 Coeff:     -0.254D-01 0.438D-01 0.121D+00 0.240D+00 0.620D+00
 Gap=     0.282 Goal=   None    Shift=    0.000
 RMSDP=2.76D-05 MaxDP=1.80D-03 DE=-7.21D-03 OVMax= 3.47D-03

 Failed to achieve initial convergence to 1.0D-08 in  6 cycles.
 Switch to full accuracy anyway.
 Cycle   6  Pass 1  IDiag  1:
 E= -2048.69193231579     Delta-E=       -0.000180967066 Rises=F Damp=F
 DIIS: error= 2.17D-04 at cycle   1 NSaved=   1.
 NSaved= 1 IEnMin= 1 EnMin= -2048.69193231579     IErMin= 1 ErrMin= 2.17D-04
 ErrMax= 2.17D-04  0.00D+00 EMaxC= 1.00D-01 BMatC= 7.56D-05 BMatP= 7.56D-05
 IDIUse=3 WtCom= 9.98D-01 WtEn= 2.17D-03
 Coeff-Com:  0.100D+01
 Coeff-En:   0.100D+01
 Coeff:      0.100D+01
 Gap=     0.282 Goal=   None    Shift=    0.000
 RMSDP=2.76D-05 MaxDP=1.80D-03 DE=-1.81D-04 OVMax= 2.43D-03

 Cycle   7  Pass 1  IDiag  1:
 RMSU=  1.08D-04    CP:  1.00D+00
 E= -2048.69198400960     Delta-E=       -0.000051693812 Rises=F Damp=F
 DIIS: error= 2.04D-04 at cycle   2 NSaved=   2.
 NSaved= 2 IEnMin= 2 EnMin= -2048.69198400960     IErMin= 2 ErrMin= 2.04D-04
 ErrMax= 2.04D-04  0.00D+00 EMaxC= 1.00D-01 BMatC= 4.67D-05 BMatP= 7.56D-05
 IDIUse=3 WtCom= 9.98D-01 WtEn= 2.04D-03
 Coeff-Com:  0.420D+00 0.580D+00
 Coeff-En:   0.249D-01 0.975D+00
 Coeff:      0.419D+00 0.581D+00
 Gap=     0.282 Goal=   None    Shift=    0.000
 RMSDP=1.23D-05 MaxDP=9.77D-04 DE=-5.17D-05 OVMax= 1.61D-03

 Cycle   8  Pass 1  IDiag  1:
 RMSU=  1.20D-05    CP:  1.00D+00  1.02D+00
 E= -2048.69201843027     Delta-E=       -0.000034420669 Rises=F Damp=F
 DIIS: error= 8.71D-05 at cycle   3 NSaved=   3.
 NSaved= 3 IEnMin= 3 EnMin= -2048.69201843027     IErMin= 3 ErrMin= 8.71D-05
 ErrMax= 8.71D-05  0.00D+00 EMaxC= 1.00D-01 BMatC= 1.01D-05 BMatP= 4.67D-05
 IDIUse=1 WtCom= 1.00D+00 WtEn= 0.00D+00
 Coeff-Com: -0.182D-01 0.304D+00 0.714D+00
 Coeff:     -0.182D-01 0.304D+00 0.714D+00
 Gap=     0.282 Goal=   None    Shift=    0.000
 RMSDP=5.78D-06 MaxDP=3.90D-04 DE=-3.44D-05 OVMax= 6.73D-04

 Cycle   9  Pass 1  IDiag  1:
 RMSU=  3.91D-06    CP:  1.00D+00  1.05D+00  7.66D-01
 E= -2048.69202811314     Delta-E=       -0.000009682867 Rises=F Damp=F
 DIIS: error= 4.20D-05 at cycle   4 NSaved=   4.
 NSaved= 4 IEnMin= 4 EnMin= -2048.69202811314     IErMin= 4 ErrMin= 4.20D-05
 ErrMax= 4.20D-05  0.00D+00 EMaxC= 1.00D-01 BMatC= 5.45D-07 BMatP= 1.01D-05
 IDIUse=1 WtCom= 1.00D+00 WtEn= 0.00D+00
 Coeff-Com: -0.318D-01 0.847D-01 0.272D+00 0.675D+00
 Coeff:     -0.318D-01 0.847D-01 0.272D+00 0.675D+00
 Gap=     0.282 Goal=   None    Shift=    0.000
 RMSDP=1.47D-06 MaxDP=1.19D-04 DE=-9.68D-06 OVMax= 4.53D-04

 Cycle  10  Pass 1  IDiag  1:
 RMSU=  1.32D-06    CP:  1.00D+00  1.05D+00  8.00D-01  1.10D+00
 E= -2048.69202899803     Delta-E=       -0.000000884887 Rises=F Damp=F
 DIIS: error= 1.51D-05 at cycle   5 NSaved=   5.
 NSaved= 5 IEnMin= 5 EnMin= -2048.69202899803     IErMin= 5 ErrMin= 1.51D-05
 ErrMax= 1.51D-05  0.00D+00 EMaxC= 1.00D-01 BMatC= 1.17D-07 BMatP= 5.45D-07
 IDIUse=1 WtCom= 1.00D+00 WtEn= 0.00D+00
 Coeff-Com: -0.348D-02-0.540D-01-0.118D+00 0.193D+00 0.982D+00
 Coeff:     -0.348D-02-0.540D-01-0.118D+00 0.193D+00 0.982D+00
 Gap=     0.282 Goal=   None    Shift=    0.000
 RMSDP=1.21D-06 MaxDP=7.53D-05 DE=-8.85D-07 OVMax= 2.42D-04

 Cycle  11  Pass 1  IDiag  1:
 RMSU=  4.95D-07    CP:  1.00D+00  1.06D+00  8.08D-01  1.37D+00  1.18D+00
 E= -2048.69202926327     Delta-E=       -0.000000265242 Rises=F Damp=F
 DIIS: error= 9.13D-06 at cycle   6 NSaved=   6.
 NSaved= 6 IEnMin= 6 EnMin= -2048.69202926327     IErMin= 6 ErrMin= 9.13D-06
 ErrMax= 9.13D-06  0.00D+00 EMaxC= 1.00D-01 BMatC= 3.00D-08 BMatP= 1.17D-07
 IDIUse=1 WtCom= 1.00D+00 WtEn= 0.00D+00
 Coeff-Com:  0.460D-02-0.444D-01-0.116D+00-0.809D-02 0.529D+00 0.634D+00
 Coeff:      0.460D-02-0.444D-01-0.116D+00-0.809D-02 0.529D+00 0.634D+00
 Gap=     0.282 Goal=   None    Shift=    0.000
 RMSDP=3.81D-07 MaxDP=3.36D-05 DE=-2.65D-07 OVMax= 1.15D-04

 Cycle  12  Pass 1  IDiag  1:
 RMSU=  1.89D-07    CP:  1.00D+00  1.06D+00  8.10D-01  1.44D+00  1.32D+00
                    CP:  9.32D-01
 E= -2048.69202930591     Delta-E=       -0.000000042643 Rises=F Damp=F
 DIIS: error= 1.18D-06 at cycle   7 NSaved=   7.
 NSaved= 7 IEnMin= 7 EnMin= -2048.69202930591     IErMin= 7 ErrMin= 1.18D-06
 ErrMax= 1.18D-06  0.00D+00 EMaxC= 1.00D-01 BMatC= 7.03D-10 BMatP= 3.00D-08
 IDIUse=1 WtCom= 1.00D+00 WtEn= 0.00D+00
 Coeff-Com:  0.999D-03-0.626D-02-0.177D-01-0.878D-02 0.502D-01 0.121D+00
 Coeff-Com:  0.860D+00
 Coeff:      0.999D-03-0.626D-02-0.177D-01-0.878D-02 0.502D-01 0.121D+00
 Coeff:      0.860D+00
 Gap=     0.282 Goal=   None    Shift=    0.000
 RMSDP=8.55D-08 MaxDP=5.59D-06 DE=-4.26D-08 OVMax= 2.30D-05

 Cycle  13  Pass 1  IDiag  1:
 RMSU=  5.37D-08    CP:  1.00D+00  1.06D+00  8.10D-01  1.45D+00  1.33D+00
                    CP:  1.02D+00  1.13D+00
 E= -2048.69202930764     Delta-E=       -0.000000001723 Rises=F Damp=F
 DIIS: error= 4.89D-07 at cycle   8 NSaved=   8.
 NSaved= 8 IEnMin= 8 EnMin= -2048.69202930764     IErMin= 8 ErrMin= 4.89D-07
 ErrMax= 4.89D-07  0.00D+00 EMaxC= 1.00D-01 BMatC= 3.50D-10 BMatP= 7.03D-10
 IDIUse=1 WtCom= 1.00D+00 WtEn= 0.00D+00
 Coeff-Com: -0.684D-03 0.848D-02 0.211D-01-0.139D-02-0.113D+00-0.105D+00
 Coeff-Com:  0.442D+00 0.748D+00
 Coeff:     -0.684D-03 0.848D-02 0.211D-01-0.139D-02-0.113D+00-0.105D+00
 Coeff:      0.442D+00 0.748D+00
 Gap=     0.282 Goal=   None    Shift=    0.000
 RMSDP=4.93D-08 MaxDP=3.25D-06 DE=-1.72D-09 OVMax= 9.28D-06

 Cycle  14  Pass 1  IDiag  1:
 RMSU=  2.86D-08    CP:  1.00D+00  1.06D+00  8.10D-01  1.45D+00  1.34D+00
                    CP:  1.06D+00  1.29D+00  1.04D+00
 E= -2048.69202930850     Delta-E=       -0.000000000869 Rises=F Damp=F
 DIIS: error= 2.30D-07 at cycle   9 NSaved=   9.
 NSaved= 9 IEnMin= 9 EnMin= -2048.69202930850     IErMin= 9 ErrMin= 2.30D-07
 ErrMax= 2.30D-07  0.00D+00 EMaxC= 1.00D-01 BMatC= 3.60D-11 BMatP= 3.50D-10
 IDIUse=1 WtCom= 1.00D+00 WtEn= 0.00D+00
 Coeff-Com: -0.424D-03 0.454D-02 0.115D-01 0.783D-03-0.551D-01-0.601D-01
 Coeff-Com:  0.108D+00 0.320D+00 0.671D+00
 Coeff:     -0.424D-03 0.454D-02 0.115D-01 0.783D-03-0.551D-01-0.601D-01
 Coeff:      0.108D+00 0.320D+00 0.671D+00
 Gap=     0.282 Goal=   None    Shift=    0.000
 RMSDP=1.36D-08 MaxDP=9.67D-07 DE=-8.69D-10 OVMax= 2.95D-06

 Cycle  15  Pass 1  IDiag  1:
 RMSU=  9.69D-09    CP:  1.00D+00  1.06D+00  8.09D-01  1.45D+00  1.34D+00
                    CP:  1.07D+00  1.31D+00  1.18D+00  1.06D+00
 E= -2048.69202930876     Delta-E=       -0.000000000261 Rises=F Damp=F
 DIIS: error= 9.59D-08 at cycle  10 NSaved=  10.
 NSaved=10 IEnMin=10 EnMin= -2048.69202930876     IErMin=10 ErrMin= 9.59D-08
 ErrMax= 9.59D-08  0.00D+00 EMaxC= 1.00D-01 BMatC= 6.14D-12 BMatP= 3.60D-11
 IDIUse=1 WtCom= 1.00D+00 WtEn= 0.00D+00
 Coeff-Com: -0.446D-05-0.214D-03-0.445D-03 0.210D-03 0.425D-02 0.718D-04
 Coeff-Com: -0.579D-01-0.563D-01 0.255D+00 0.855D+00
 Coeff:     -0.446D-05-0.214D-03-0.445D-03 0.210D-03 0.425D-02 0.718D-04
 Coeff:     -0.579D-01-0.563D-01 0.255D+00 0.855D+00
 Gap=     0.282 Goal=   None    Shift=    0.000
 RMSDP=7.79D-09 MaxDP=3.91D-07 DE=-2.61D-10 OVMax= 1.55D-06

 SCF Done:  E(RwB97XD) =  -2048.69202931     A.U. after   15 cycles
            NFock= 15  Conv=0.78D-08     -V/T= 2.0052
 KE= 2.038060952286D+03 PE=-1.573580224800D+04 EE= 6.171571896469D+03
 Leave Link  502 at Mon Jan 22 23:39:05 2018, MaxMem=  4294967296 cpu:           21106.4 elap:             680.4
 (Enter /share/apps/g16/l601.exe)
 Copying SCF densities to generalized density rwf, IOpCl= 0 IROHF=0.

 **********************************************************************

            Population analysis using the SCF density.

 **********************************************************************

 Orbital symmetries:
       Occupied  (A) (A) (A) (A) (A) (A) (A) (A) (A) (A) (A) (A)
                 (A) (A) (A) (A) (A) (A) (A) (A) (A) (A) (A) (A)
                 (A) (A) (A) (A) (A) (A) (A) (A) (A) (A) (A) (A)
                 (A) (A) (A) (A) (A) (A) (A) (A) (A) (A) (A) (A)
                 (A) (A) (A) (A) (A) (A) (A) (A) (A) (A) (A) (A)
                 (A) (A) (A) (A) (A) (A) (A) (A) (A) (A) (A) (A)
                 (A) (A) (A) (A) (A) (A) (A) (A) (A) (A) (A) (A)
                 (A) (A) (A) (A) (A) (A) (A) (A) (A) (A) (A) (A)
                 (A) (A) (A) (A) (A) (A) (A) (A) (A) (A) (A) (A)
                 (A) (A) (A) (A) (A) (A) (A) (A) (A) (A) (A) (A)
                 (A) (A) (A) (A) (A) (A) (A) (A) (A) (A) (A) (A)
                 (A) (A) (A) (A) (A) (A) (A) (A) (A) (A) (A) (A)
                 (A) (A) (A) (A) (A) (A) (A) (A) (A) (A)
       Virtual   (A) (A) (A) (A) (A) (A) (A) (A) (A) (A) (A) (A)
                 (A) (A) (A) (A) (A) (A) (A) (A) (A) (A) (A) (A)
                 (A) (A) (A) (A) (A) (A) (A) (A) (A) (A) (A) (A)
                 (A) (A) (A) (A) (A) (A) (A) (A) (A) (A) (A) (A)
                 (A) (A) (A) (A) (A) (A) (A) (A) (A) (A) (A) (A)
                 (A) (A) (A) (A) (A) (A) (A) (A) (A) (A) (A) (A)
                 (A) (A) (A) (A) (A) (A) (A) (A) (A) (A) (A) (A)
                 (A) (A) (A) (A) (A) (A) (A) (A) (A) (A) (A) (A)
                 (A) (A) (A) (A) (A) (A) (A) (A) (A) (A) (A) (A)
                 (A) (A) (A) (A) (A) (A) (A) (A) (A) (A) (A) (A)
                 (A) (A) (A) (A) (A) (A) (A) (A) (A) (A) (A) (A)
                 (A) (A) (A) (A) (A) (A) (A) (A) (A) (A) (A) (A)
                 (A) (A) (A) (A) (A) (A) (A) (A) (A) (A) (A) (A)
                 (A) (A) (A) (A) (A) (A) (A) (A) (A) (A) (A) (A)
                 (A) (A) (A) (A) (A) (A) (A) (A) (A) (A) (A) (A)
                 (A) (A) (A) (A) (A) (A) (A) (A) (A) (A) (A) (A)
                 (A) (A) (A) (A) (A) (A) (A) (A) (A) (A) (A) (A)
                 (A) (A) (A) (A) (A) (A) (A) (A) (A) (A) (A) (A)
                 (A) (A) (A) (A) (A) (A) (A) (A) (A) (A) (A) (A)
                 (A) (A) (A) (A) (A) (A) (A) (A) (A) (A) (A) (A)
                 (A) (A) (A) (A) (A) (A) (A) (A) (A) (A) (A) (A)
                 (A) (A) (A) (A) (A) (A) (A) (A) (A) (A) (A) (A)
                 (A) (A) (A) (A) (A) (A) (A) (A) (A) (A) (A) (A)
                 (A) (A) (A) (A) (A) (A) (A) (A) (A) (A) (A) (A)
                 (A) (A) (A) (A) (A) (A) (A) (A) (A) (A) (A) (A)
                 (A) (A) (A) (A) (A) (A) (A) (A) (A) (A) (A) (A)
                 (A) (A) (A) (A) (A) (A) (A) (A) (A) (A) (A) (A)
                 (A) (A) (A) (A) (A) (A) (A) (A) (A) (A) (A) (A)
                 (A) (A) (A) (A) (A) (A) (A) (A) (A) (A) (A) (A)
                 (A) (A) (A) (A) (A) (A) (A) (A) (A) (A) (A) (A)
                 (A) (A) (A) (A) (A) (A) (A) (A) (A) (A) (A) (A)
                 (A) (A) (A) (A) (A) (A) (A) (A) (A) (A) (A) (A)
                 (A) (A) (A) (A) (A) (A) (A) (A) (A) (A) (A) (A)
                 (A) (A) (A) (A) (A) (A) (A) (A) (A) (A) (A) (A)
                 (A) (A) (A) (A) (A) (A) (A) (A) (A) (A) (A) (A)
                 (A) (A) (A) (A) (A) (A) (A) (A) (A) (A) (A) (A)
                 (A) (A) (A) (A) (A) (A) (A) (A) (A) (A) (A) (A)
                 (A) (A) (A) (A) (A) (A) (A) (A) (A) (A) (A) (A)
                 (A) (A) (A) (A) (A) (A) (A) (A) (A) (A) (A) (A)
                 (A) (A) (A) (A) (A) (A) (A) (A) (A) (A) (A) (A)
                 (A) (A) (A) (A) (A) (A) (A) (A) (A) (A) (A) (A)
                 (A) (A) (A) (A) (A) (A) (A) (A) (A) (A) (A) (A)
                 (A) (A) (A) (A) (A) (A) (A) (A) (A) (A) (A) (A)
                 (A) (A) (A) (A) (A) (A) (A) (A) (A) (A) (A) (A)
                 (A) (A) (A) (A) (A) (A) (A) (A) (A) (A) (A) (A)
                 (A) (A) (A) (A) (A) (A) (A) (A) (A) (A) (A) (A)
                 (A) (A) (A) (A) (A) (A) (A) (A) (A) (A) (A) (A)
                 (A) (A) (A) (A) (A) (A) (A) (A) (A) (A) (A) (A)
                 (A) (A) (A) (A) (A) (A) (A)
 The electronic state is 1-A.
 Alpha  occ. eigenvalues --  -19.25942 -19.21972 -19.20504 -14.52461 -14.51737
 Alpha  occ. eigenvalues --  -14.49490 -14.48655 -14.47888 -14.46891 -14.46783
 Alpha  occ. eigenvalues --  -14.46269 -14.44555 -14.43001 -14.42858 -14.42486
 Alpha  occ. eigenvalues --  -14.42176 -14.41729 -14.41694 -14.40915 -14.40690
 Alpha  occ. eigenvalues --  -10.45553 -10.41321 -10.40096 -10.38699 -10.38118
 Alpha  occ. eigenvalues --  -10.37771 -10.37175 -10.36160 -10.35993 -10.35518
 Alpha  occ. eigenvalues --  -10.34828 -10.34287 -10.34280 -10.34154 -10.33916
 Alpha  occ. eigenvalues --  -10.33388 -10.33226 -10.31587 -10.31516 -10.31069
 Alpha  occ. eigenvalues --  -10.30702 -10.29340 -10.28096  -1.19487  -1.14516
 Alpha  occ. eigenvalues --   -1.13199  -1.13003  -1.12102  -1.10524  -1.09350
 Alpha  occ. eigenvalues --   -1.08855  -1.08021  -1.05753  -1.03598  -1.02513
 Alpha  occ. eigenvalues --   -1.01175  -1.01025  -0.99561  -0.98413  -0.97673
 Alpha  occ. eigenvalues --   -0.96487  -0.95658  -0.93398  -0.91052  -0.86969
 Alpha  occ. eigenvalues --   -0.85504  -0.84667  -0.84028  -0.83793  -0.82996
 Alpha  occ. eigenvalues --   -0.82436  -0.78885  -0.76056  -0.74720  -0.74030
 Alpha  occ. eigenvalues --   -0.73689  -0.73625  -0.73378  -0.71839  -0.69482
 Alpha  occ. eigenvalues --   -0.67755  -0.67023  -0.66592  -0.65879  -0.64488
 Alpha  occ. eigenvalues --   -0.63829  -0.63587  -0.63333  -0.62840  -0.62282
 Alpha  occ. eigenvalues --   -0.60896  -0.60177  -0.59808  -0.59561  -0.59497
 Alpha  occ. eigenvalues --   -0.58708  -0.58514  -0.57224  -0.57032  -0.56875
 Alpha  occ. eigenvalues --   -0.56101  -0.55911  -0.55433  -0.54582  -0.54346
 Alpha  occ. eigenvalues --   -0.53660  -0.53445  -0.53093  -0.52796  -0.52608
 Alpha  occ. eigenvalues --   -0.52369  -0.52203  -0.51922  -0.51460  -0.50873
 Alpha  occ. eigenvalues --   -0.50079  -0.49781  -0.49453  -0.49088  -0.48752
 Alpha  occ. eigenvalues --   -0.48587  -0.48227  -0.47980  -0.47739  -0.47507
 Alpha  occ. eigenvalues --   -0.47348  -0.45767  -0.45356  -0.44013  -0.42630
 Alpha  occ. eigenvalues --   -0.41957  -0.39569  -0.39396  -0.37955  -0.37359
 Alpha  occ. eigenvalues --   -0.37137  -0.36530  -0.36467  -0.35874  -0.35016
 Alpha  occ. eigenvalues --   -0.34276  -0.34187  -0.33171  -0.33058  -0.32767
 Alpha  occ. eigenvalues --   -0.32481  -0.32041  -0.31940  -0.31774  -0.31650
 Alpha  occ. eigenvalues --   -0.31103  -0.28604  -0.26547  -0.25090
 Alpha virt. eigenvalues --    0.03150   0.04664   0.07139   0.07725   0.08321
 Alpha virt. eigenvalues --    0.09567   0.09645   0.10146   0.11126   0.12415
 Alpha virt. eigenvalues --    0.12722   0.13450   0.14309   0.14614   0.14774
 Alpha virt. eigenvalues --    0.15936   0.16117   0.16521   0.16928   0.18194
 Alpha virt. eigenvalues --    0.18814   0.19307   0.19575   0.19931   0.20305
 Alpha virt. eigenvalues --    0.20695   0.21257   0.21519   0.21705   0.22099
 Alpha virt. eigenvalues --    0.23069   0.23312   0.23362   0.23524   0.23850
 Alpha virt. eigenvalues --    0.23962   0.24019   0.25103   0.25673   0.25748
 Alpha virt. eigenvalues --    0.25957   0.26659   0.27790   0.28148   0.28301
 Alpha virt. eigenvalues --    0.29224   0.29685   0.29863   0.30803   0.31115
 Alpha virt. eigenvalues --    0.31521   0.32137   0.32647   0.33189   0.33808
 Alpha virt. eigenvalues --    0.34257   0.34707   0.35201   0.35877   0.36567
 Alpha virt. eigenvalues --    0.37146   0.37855   0.38465   0.39295   0.40000
 Alpha virt. eigenvalues --    0.40534   0.40979   0.41409   0.41456   0.41721
 Alpha virt. eigenvalues --    0.42043   0.42957   0.43537   0.43658   0.44934
 Alpha virt. eigenvalues --    0.45325   0.45429   0.45905   0.46198   0.47335
 Alpha virt. eigenvalues --    0.47639   0.47940   0.48732   0.49246   0.49591
 Alpha virt. eigenvalues --    0.50248   0.50626   0.50657   0.51270   0.51738
 Alpha virt. eigenvalues --    0.51848   0.52259   0.52903   0.53255   0.53942
 Alpha virt. eigenvalues --    0.54209   0.54540   0.54739   0.55463   0.55747
 Alpha virt. eigenvalues --    0.55979   0.56859   0.57148   0.57768   0.58170
 Alpha virt. eigenvalues --    0.58504   0.58845   0.59154   0.59428   0.59813
 Alpha virt. eigenvalues --    0.60251   0.60701   0.60910   0.61455   0.61628
 Alpha virt. eigenvalues --    0.62188   0.62331   0.62403   0.63007   0.63455
 Alpha virt. eigenvalues --    0.64249   0.64364   0.64921   0.65218   0.65495
 Alpha virt. eigenvalues --    0.65712   0.66103   0.66273   0.66881   0.67109
 Alpha virt. eigenvalues --    0.67752   0.68200   0.68615   0.68771   0.68873
 Alpha virt. eigenvalues --    0.69687   0.70140   0.70324   0.71287   0.71425
 Alpha virt. eigenvalues --    0.71934   0.72704   0.73177   0.73760   0.74004
 Alpha virt. eigenvalues --    0.74339   0.74614   0.74670   0.75149   0.75513
 Alpha virt. eigenvalues --    0.75945   0.76162   0.76388   0.76780   0.76992
 Alpha virt. eigenvalues --    0.77368   0.77593   0.78241   0.78729   0.79130
 Alpha virt. eigenvalues --    0.79678   0.79758   0.80051   0.80504   0.80831
 Alpha virt. eigenvalues --    0.81210   0.81876   0.82661   0.82891   0.83222
 Alpha virt. eigenvalues --    0.83401   0.83679   0.83946   0.84632   0.84845
 Alpha virt. eigenvalues --    0.85306   0.85952   0.86352   0.86878   0.87481
 Alpha virt. eigenvalues --    0.87765   0.88482   0.88914   0.89202   0.89326
 Alpha virt. eigenvalues --    0.90238   0.90693   0.91441   0.91593   0.92268
 Alpha virt. eigenvalues --    0.92765   0.92880   0.93636   0.93767   0.94295
 Alpha virt. eigenvalues --    0.94508   0.95246   0.95575   0.95739   0.96461
 Alpha virt. eigenvalues --    0.96936   0.97418   0.97727   0.98076   0.98714
 Alpha virt. eigenvalues --    0.99023   0.99875   1.00267   1.01185   1.01818
 Alpha virt. eigenvalues --    1.01969   1.02068   1.02628   1.03732   1.03993
 Alpha virt. eigenvalues --    1.04346   1.04746   1.05353   1.05371   1.06127
 Alpha virt. eigenvalues --    1.06634   1.07059   1.07802   1.08189   1.09171
 Alpha virt. eigenvalues --    1.09552   1.10075   1.10709   1.11616   1.12139
 Alpha virt. eigenvalues --    1.12270   1.12679   1.13306   1.13761   1.13866
 Alpha virt. eigenvalues --    1.15045   1.15188   1.15442   1.15642   1.16285
 Alpha virt. eigenvalues --    1.16875   1.17345   1.17538   1.17982   1.18503
 Alpha virt. eigenvalues --    1.18771   1.19177   1.19448   1.20027   1.20485
 Alpha virt. eigenvalues --    1.20743   1.21269   1.21478   1.21953   1.22161
 Alpha virt. eigenvalues --    1.22306   1.22652   1.23185   1.23772   1.24084
 Alpha virt. eigenvalues --    1.24241   1.25685   1.25762   1.25914   1.26567
 Alpha virt. eigenvalues --    1.27221   1.27936   1.28322   1.28630   1.29434
 Alpha virt. eigenvalues --    1.29984   1.30395   1.30907   1.31518   1.31801
 Alpha virt. eigenvalues --    1.32875   1.33707   1.34491   1.34788   1.35002
 Alpha virt. eigenvalues --    1.36248   1.36728   1.37141   1.38181   1.38321
 Alpha virt. eigenvalues --    1.38842   1.39498   1.40228   1.41642   1.42112
 Alpha virt. eigenvalues --    1.43198   1.44255   1.44937   1.45102   1.45631
 Alpha virt. eigenvalues --    1.46692   1.47994   1.48062   1.48296   1.48559
 Alpha virt. eigenvalues --    1.48745   1.49502   1.50397   1.50915   1.51424
 Alpha virt. eigenvalues --    1.52797   1.53007   1.54003   1.54385   1.55584
 Alpha virt. eigenvalues --    1.55669   1.56184   1.56853   1.58607   1.58942
 Alpha virt. eigenvalues --    1.59468   1.60117   1.60773   1.60806   1.61697
 Alpha virt. eigenvalues --    1.62311   1.62806   1.63361   1.63711   1.64639
 Alpha virt. eigenvalues --    1.65416   1.66029   1.66685   1.66774   1.67445
 Alpha virt. eigenvalues --    1.67831   1.68034   1.69133   1.69295   1.69642
 Alpha virt. eigenvalues --    1.69868   1.70237   1.70579   1.70813   1.71422
 Alpha virt. eigenvalues --    1.71808   1.72507   1.72614   1.73332   1.73631
 Alpha virt. eigenvalues --    1.74602   1.74838   1.75001   1.75377   1.75708
 Alpha virt. eigenvalues --    1.76220   1.76514   1.76721   1.77089   1.77588
 Alpha virt. eigenvalues --    1.77909   1.78594   1.79103   1.79344   1.79722
 Alpha virt. eigenvalues --    1.79773   1.79813   1.80318   1.80610   1.80928
 Alpha virt. eigenvalues --    1.81887   1.82032   1.82581   1.82917   1.83414
 Alpha virt. eigenvalues --    1.83520   1.83719   1.84516   1.85330   1.86013
 Alpha virt. eigenvalues --    1.86137   1.86923   1.87247   1.87673   1.88203
 Alpha virt. eigenvalues --    1.88248   1.88500   1.88864   1.89155   1.89419
 Alpha virt. eigenvalues --    1.89759   1.91135   1.91246   1.91791   1.92471
 Alpha virt. eigenvalues --    1.92747   1.92892   1.93801   1.94839   1.95196
 Alpha virt. eigenvalues --    1.95603   1.96665   1.96706   1.98157   1.98947
 Alpha virt. eigenvalues --    1.99395   1.99976   2.00157   2.00707   2.01490
 Alpha virt. eigenvalues --    2.01850   2.02791   2.04081   2.04941   2.05100
 Alpha virt. eigenvalues --    2.05804   2.06040   2.06616   2.07303   2.08004
 Alpha virt. eigenvalues --    2.08342   2.08461   2.08749   2.09959   2.10243
 Alpha virt. eigenvalues --    2.11122   2.11714   2.12670   2.13325   2.13607
 Alpha virt. eigenvalues --    2.14649   2.15279   2.17308   2.18523   2.19059
 Alpha virt. eigenvalues --    2.19374   2.19816   2.20033   2.20566   2.21107
 Alpha virt. eigenvalues --    2.22557   2.23167   2.23619   2.23869   2.24223
 Alpha virt. eigenvalues --    2.24416   2.25641   2.26301   2.27728   2.28608
 Alpha virt. eigenvalues --    2.28851   2.29255   2.29425   2.29759   2.30148
 Alpha virt. eigenvalues --    2.30727   2.32059   2.32162   2.32919   2.33426
 Alpha virt. eigenvalues --    2.33872   2.34100   2.35140   2.35247   2.35644
 Alpha virt. eigenvalues --    2.36339   2.37274   2.37415   2.38174   2.38890
 Alpha virt. eigenvalues --    2.39337   2.40026   2.40624   2.40919   2.41728
 Alpha virt. eigenvalues --    2.42720   2.42820   2.43265   2.43864   2.44842
 Alpha virt. eigenvalues --    2.45182   2.46090   2.46542   2.47187   2.47669
 Alpha virt. eigenvalues --    2.48886   2.49368   2.50318   2.52335   2.52777
 Alpha virt. eigenvalues --    2.53517   2.54376   2.54737   2.56286   2.56938
 Alpha virt. eigenvalues --    2.57218   2.58844   2.59174   2.60109   2.60592
 Alpha virt. eigenvalues --    2.60791   2.61351   2.61695   2.62717   2.64096
 Alpha virt. eigenvalues --    2.64313   2.64805   2.65998   2.66325   2.67536
 Alpha virt. eigenvalues --    2.67736   2.67861   2.68342   2.69631   2.70173
 Alpha virt. eigenvalues --    2.70408   2.71422   2.72084   2.72834   2.73864
 Alpha virt. eigenvalues --    2.74845   2.74927   2.75648   2.75925   2.77299
 Alpha virt. eigenvalues --    2.78760   2.79176   2.79402   2.79702   2.79771
 Alpha virt. eigenvalues --    2.80137   2.80621   2.81152   2.82276   2.82437
 Alpha virt. eigenvalues --    2.82528   2.83125   2.83421   2.83866   2.84451
 Alpha virt. eigenvalues --    2.85768   2.86190   2.86680   2.87144   2.87266
 Alpha virt. eigenvalues --    2.88235   2.89758   2.90200   2.92070   2.93125
 Alpha virt. eigenvalues --    2.95126   2.96233   2.98362   2.98462   2.99057
 Alpha virt. eigenvalues --    2.99691   3.03116   3.04166   3.05113   3.06330
 Alpha virt. eigenvalues --    3.09376   3.10546   3.12408   3.14084   3.14532
 Alpha virt. eigenvalues --    3.15122   3.15580   3.16397   3.19135   3.21992
 Alpha virt. eigenvalues --    3.22621   3.23148   3.23194   3.26361   3.28727
 Alpha virt. eigenvalues --    3.46188   3.46721   3.48864   3.50032   3.50704
 Alpha virt. eigenvalues --    3.52920   3.53785   3.56598   3.58882   3.60230
 Alpha virt. eigenvalues --    3.62850   3.71428   3.74666
          Condensed to atoms (all electrons):
 Mulliken charges:
               1
     1  N   -0.311675
     2  C    0.180716
     3  C    0.034327
     4  N   -0.258886
     5  C    0.134868
     6  H    0.029076
     7  N   -0.282165
     8  C    0.115826
     9  H    0.017587
    10  N   -0.286248
    11  C    0.241009
    12  C    0.118423
    13  N   -0.052923
    14  H    0.107459
    15  H    0.088401
    16  H    0.026999
    17  H    0.035290
    18  H    0.027167
    19  N   -0.303394
    20  C    0.218751
    21  C    0.184783
    22  N   -0.101865
    23  H    0.118770
    24  H    0.113203
    25  N   -0.267977
    26  C    0.186236
    27  N   -0.103076
    28  H    0.120777
    29  C    0.139941
    30  O   -0.320627
    31  C    0.000920
    32  N   -0.220025
    33  C    0.129281
    34  H    0.030309
    35  H    0.022293
    36  H    0.027450
    37  H    0.024413
    38  H    0.060243
    39  H    0.061418
    40  H    0.069636
    41  H    0.031445
    42  C   -0.111851
    43  O   -0.267001
    44  C    0.178151
    45  H    0.135062
    46  N   -0.137849
    47  O   -0.352259
    48  C    0.366479
    49  H    0.047555
    50  C    0.174995
    51  C    0.041129
    52  N   -0.295188
    53  H    0.025599
    54  H    0.040908
    55  H   -0.000594
    56  H    0.120966
    57  H    0.117100
    58  N   -0.064209
    59  C    0.121968
    60  C    0.221943
    61  N   -0.260032
    62  H    0.063668
    63  C    0.146707
    64  N   -0.299005
    65  H    0.027212
    66  C    0.131635
    67  N   -0.263166
    68  C    0.022986
    69  C    0.190652
    70  N   -0.311717
 Sum of Mulliken charges =  -0.00000
 Mulliken charges with hydrogens summed into heavy atoms:
               1
     1  N   -0.311675
     2  C    0.270172
     3  C    0.034327
     4  N   -0.258886
     5  C    0.163944
     7  N   -0.282165
     8  C    0.133413
    10  N   -0.286248
    11  C    0.241009
    12  C    0.118423
    13  N    0.142937
    19  N   -0.303394
    20  C    0.218751
    21  C    0.258939
    22  N    0.130109
    25  N   -0.267977
    26  C    0.186236
    27  N    0.017701
    29  C    0.139941
    30  O   -0.320627
    31  C    0.000920
    32  N   -0.220025
    33  C    0.159590
    42  C   -0.080406
    43  O   -0.267001
    44  C    0.178151
    46  N   -0.002787
    47  O   -0.352259
    48  C    0.366479
    50  C    0.222549
    51  C    0.232426
    52  N   -0.295188
    58  N    0.173856
    59  C    0.121968
    60  C    0.221943
    61  N   -0.260032
    63  C    0.210375
    64  N   -0.299005
    66  C    0.158847
    67  N   -0.263166
    68  C    0.022986
    69  C    0.256565
    70  N   -0.311717
 Electronic spatial extent (au):  <R**2>=          24277.3871
 Charge=             -0.0000 electrons
 Dipole moment (field-independent basis, Debye):
    X=              6.6959    Y=              5.6501    Z=              3.4031  Tot=              9.3989
 Quadrupole moment (field-independent basis, Debye-Ang):
   XX=           -141.5059   YY=           -224.8174   ZZ=           -253.8467
   XY=              9.6299   XZ=             15.1135   YZ=            -10.5887
 Traceless Quadrupole moment (field-independent basis, Debye-Ang):
   XX=             65.2174   YY=            -18.0941   ZZ=            -47.1233
   XY=              9.6299   XZ=             15.1135   YZ=            -10.5887
 Octapole moment (field-independent basis, Debye-Ang**2):
  XXX=             31.6518  YYY=            111.2031  ZZZ=              2.9028  XYY=             56.2267
  XXY=            -57.5667  XXZ=            -59.4337  XZZ=              8.6707  YZZ=             26.5191
  YYZ=             59.2052  XYZ=             30.6935
 Hexadecapole moment (field-independent basis, Debye-Ang**3):
 XXXX=         -16190.9238 YYYY=          -5500.3344 ZZZZ=          -2932.0387 XXXY=            456.6688
 XXXZ=            266.8889 YYYX=             91.2838 YYYZ=           -122.4416 ZZZX=             35.0106
 ZZZY=             -9.2240 XXYY=          -4322.4459 XXZZ=          -4381.1729 YYZZ=          -1419.6011
 XXYZ=             84.9822 YYXZ=            227.1368 ZZXY=             32.6621
 N-N= 5.477477369939D+03 E-N=-1.573580223917D+04  KE= 2.038060952286D+03
 No NMR shielding tensors so no spin-rotation constants.
 Leave Link  601 at Mon Jan 22 23:39:07 2018, MaxMem=  4294967296 cpu:              45.5 elap:               1.6
 (Enter /share/apps/g16/l9999.exe)
 1\1\GINC-COMPUTE-0-3\SP\RwB97XD\CC-pVDZ\C23H27N17O3\SATYA\22-Jan-2018\
 0\\#p wb97xd/cc-pvdz sp scf=(maxcycles=20)\\Base pair stacking\\0,1\N,
 0,7.2881,6.31498,-7.5691\C,0,8.202,7.4702,-7.66\C,0,5.50543,5.05526,-7
 .29982\N,0,6.54789,4.19231,-7.60531\C,0,7.58016,4.98579,-7.75531\H,0,8
 .58784,4.65183,-8.00432\N,0,3.37599,5.91345,-6.75951\C,0,3.94489,7.123
 32,-6.77068\H,0,3.27595,7.95378,-6.54905\N,0,5.21011,7.4598,-7.01339\C
 ,0,5.9464,6.3669,-7.27389\C,0,4.14354,4.83401,-7.02553\N,0,3.57748,3.6
 2545,-7.01485\H,0,4.10748,2.79856,-7.20608\H,0,2.60487,3.50542,-6.8154
 4\H,0,8.59398,7.51536,-8.57896\H,0,7.69627,8.31179,-7.47266\H,0,8.9377
 2,7.36935,-6.99027\N,0,2.56749,6.85495,-3.38168\C,0,1.48973,6.01123,-3
 .26077\C,0,2.50059,8.33015,-3.38553\N,0,-1.93076,5.53475,-2.8934\H,0,-
 2.56467,4.7653,-2.82026\H,0,-2.32591,6.45308,-2.8582\N,0,0.19892,6.385
 08,-3.12625\C,0,-0.60999,5.34465,-3.03248\N,0,-0.18902,4.03734,-3.0675
 3\H,0,-0.87839,3.30554,-2.98877\C,0,1.13406,3.62945,-3.20523\O,0,1.407
 6,2.42301,-3.22536\C,0,2.01484,4.73612,-3.30715\N,0,3.39451,4.77847,-3
 .45421\C,0,3.6766,6.05247,-3.49369\H,0,4.68094,6.46297,-3.60357\H,0,2.
 86582,8.67978,-4.24761\H,0,1.5492,8.61879,-3.28649\H,0,3.03843,8.69185
 ,-2.62481\H,0,-4.8532,0.1415,-3.19485\H,0,-4.50564,-0.0741,-1.48097\H,
 0,-4.17669,1.4746,-2.2586\H,0,-1.09367,-2.85152,-3.42802\C,0,-1.29744,
 -1.79494,-3.25378\O,0,0.94432,-1.11258,-3.62256\C,0,-0.22726,-0.85,-3.
 35194\H,0,0.1361,1.15608,-3.17327\N,0,-0.59305,0.45934,-3.11305\O,0,-2
 .07232,2.10609,-2.60591\C,0,-1.84572,0.92479,-2.80047\H,0,-3.37807,-2.
 04945,-2.86387\C,0,-2.53004,-1.37144,-2.95055\C,0,-4.179,0.40311,-2.39
 292\N,0,-2.82419,-0.04682,-2.72426\H,0,-4.3984,5.62277,-5.29095\H,0,-3
 .02642,6.06176,-4.52476\H,0,-4.11504,5.10999,-3.76773\H,0,1.08194,0.92
 609,-7.0151\H,0,-0.54591,0.43503,-6.87702\N,0,0.14114,1.15357,-6.76352
 \C,0,-0.18387,2.36112,-6.2973\C,0,-1.67167,4.02005,-5.46295\N,0,-0.728
 12,4.96554,-5.32096\H,0,1.28597,5.20496,-5.6155\C,0,0.46048,4.49935,-5
 .69887\N,0,0.78804,3.29023,-6.1661\H,0,-4.6256,2.7107,-5.35291\C,0,-3.
 56131,2.90775,-5.48485\N,0,-2.69298,2.03741,-5.93892\C,0,-1.49082,2.72
 985,-5.9301\C,0,-3.69227,5.3265,-4.64783\N,0,-3.012,4.12849,-5.17698\\
 Version=EM64L-G16RevA.03\State=1-A\HF=-2048.6920293\RMSD=7.785e-09\Dip
 ole=-3.6287111,0.6776956,0.2169748\Quadrupole=32.3953528,-5.9285413,-2
 6.4668115,27.2984784,-21.5406617,4.1799642\PG=C01 [X(C23H27N17O3)]\\@


 WE SHOULD BE CAREFUL TO GET OUT OF AN EXPERIENCE ONLY THE WISDOM
 THAT IS IN IT -- AND STOP THERE;
 LEST WE BE LIKE THE CAT THAT SITS DOWN ON A HOT STOVE-LID.
 SHE WILL NEVER SIT DOWN ON A HOT STOVE LID AGAIN;
 BUT ALSO SHE WILL NEVER SIT DOWN ON A COLD ONE ANY MORE.

                                                     -- MARK TWAIN
 Job cpu time:       0 days  6 hours  1 minutes 52.6 seconds.
 Elapsed time:       0 days  0 hours 11 minutes 39.8 seconds.
 File lengths (MBytes):  RWF=    298 Int=      0 D2E=      0 Chk=     33 Scr=      1
 Normal termination of Gaussian 16 at Mon Jan 22 23:39:08 2018.
