 Entering Gaussian System, Link 0=g16
 Input=str40.20.2.0.com
 Output=str40.20.2.0.log
 Initial command:
 /share/apps/g16/l1.exe "/state/partition1/scr/Gau-31017.inp" -scrdir="/state/partition1/scr/"
 Entering Link 1 = /share/apps/g16/l1.exe PID=     31018.
  
 Copyright (c) 1988,1990,1992,1993,1995,1998,2003,2009,2016,
            Gaussian, Inc.  All Rights Reserved.
  
 This is part of the Gaussian(R) 16 program.  It is based on
 the Gaussian(R) 09 system (copyright 2009, Gaussian, Inc.),
 the Gaussian(R) 03 system (copyright 2003, Gaussian, Inc.),
 the Gaussian(R) 98 system (copyright 1998, Gaussian, Inc.),
 the Gaussian(R) 94 system (copyright 1995, Gaussian, Inc.),
 the Gaussian 92(TM) system (copyright 1992, Gaussian, Inc.),
 the Gaussian 90(TM) system (copyright 1990, Gaussian, Inc.),
 the Gaussian 88(TM) system (copyright 1988, Gaussian, Inc.),
 the Gaussian 86(TM) system (copyright 1986, Carnegie Mellon
 University), and the Gaussian 82(TM) system (copyright 1983,
 Carnegie Mellon University). Gaussian is a federally registered
 trademark of Gaussian, Inc.
  
 This software contains proprietary and confidential information,
 including trade secrets, belonging to Gaussian, Inc.
  
 This software is provided under written license and may be
 used, copied, transmitted, or stored only in accord with that
 written license.
  
 The following legend is applicable only to US Government
 contracts under FAR:
  
                    RESTRICTED RIGHTS LEGEND
  
 Use, reproduction and disclosure by the US Government is
 subject to restrictions as set forth in subparagraphs (a)
 and (c) of the Commercial Computer Software - Restricted
 Rights clause in FAR 52.227-19.
  
 Gaussian, Inc.
 340 Quinnipiac St., Bldg. 40, Wallingford CT 06492
  
  
 ---------------------------------------------------------------
 Warning -- This program may not be used in any manner that
 competes with the business of Gaussian, Inc. or will provide
 assistance to any competitor of Gaussian, Inc.  The licensee
 of this program is prohibited from giving any competitor of
 Gaussian, Inc. access to this program.  By using this program,
 the user acknowledges that Gaussian, Inc. is engaged in the
 business of creating and licensing software in the field of
 computational chemistry and represents and warrants to the
 licensee that it is not a competitor of Gaussian, Inc. and that
 it will not use this program in any manner prohibited above.
 ---------------------------------------------------------------
  

 Cite this work as:
 Gaussian 16, Revision A.03,
 M. J. Frisch, G. W. Trucks, H. B. Schlegel, G. E. Scuseria, 
 M. A. Robb, J. R. Cheeseman, G. Scalmani, V. Barone, 
 G. A. Petersson, H. Nakatsuji, X. Li, M. Caricato, A. V. Marenich, 
 J. Bloino, B. G. Janesko, R. Gomperts, B. Mennucci, H. P. Hratchian, 
 J. V. Ortiz, A. F. Izmaylov, J. L. Sonnenberg, D. Williams-Young, 
 F. Ding, F. Lipparini, F. Egidi, J. Goings, B. Peng, A. Petrone, 
 T. Henderson, D. Ranasinghe, V. G. Zakrzewski, J. Gao, N. Rega, 
 G. Zheng, W. Liang, M. Hada, M. Ehara, K. Toyota, R. Fukuda, 
 J. Hasegawa, M. Ishida, T. Nakajima, Y. Honda, O. Kitao, H. Nakai, 
 T. Vreven, K. Throssell, J. A. Montgomery, Jr., J. E. Peralta, 
 F. Ogliaro, M. J. Bearpark, J. J. Heyd, E. N. Brothers, K. N. Kudin, 
 V. N. Staroverov, T. A. Keith, R. Kobayashi, J. Normand, 
 K. Raghavachari, A. P. Rendell, J. C. Burant, S. S. Iyengar, 
 J. Tomasi, M. Cossi, J. M. Millam, M. Klene, C. Adamo, R. Cammi, 
 J. W. Ochterski, R. L. Martin, K. Morokuma, O. Farkas, 
 J. B. Foresman, and D. J. Fox, Gaussian, Inc., Wallingford CT, 2016.
 
 ******************************************
 Gaussian 16:  EM64L-G16RevA.03 25-Dec-2016
                23-Jan-2018 
 ******************************************
 %nprocshared=32
 Will use up to   32 processors via shared memory.
 %mem=32GB
 %chk=allatoms_t.chk
 ---------------------------------------
 #p wb97xd/cc-pvdz sp scf=(maxcycles=20)
 ---------------------------------------
 1/38=1,172=1/1;
 2/12=2,17=6,18=5,40=1/2;
 3/5=16,11=2,25=1,30=1,74=-58/1,2,3;
 4//1;
 5/5=2,7=20,38=5/2;
 6/7=2,8=2,9=2,10=2,28=1/1;
 99/5=1,9=1/99;
 Leave Link    1 at Tue Jan 23 07:37:45 2018, MaxMem=  4294967296 cpu:               2.7 elap:               0.1
 (Enter /share/apps/g16/l101.exe)
 ------------------
 Base pair stacking
 ------------------
 Symbolic Z-matrix:
 Charge =  0 Multiplicity = 1
 N                     4.79345  -1.25387  -5.05824 
 C                     5.82068  -0.19719  -5.13709 
 C                     2.96527  -2.44072  -5.35228 
 N                     3.75169  -3.15414  -4.45937 
 C                     4.82163  -2.41055  -4.31796 
 H                     5.6702   -2.66006  -3.68029 
 N                     1.19899  -1.77932  -6.76853 
 C                     1.92516  -0.68973  -7.03881 
 H                     1.46941   0.01154  -7.7365 
 N                     3.12415  -0.33799  -6.57881 
 C                     3.5942   -1.26722  -5.73027 
 C                     1.69957  -2.69532  -5.91095 
 N                     0.97618  -3.78363  -5.6399 
 H                     1.30743  -4.48788  -5.01099 
 H                     0.07898  -3.93204  -6.056 
 H                     6.67718  -0.5876   -5.475 
 H                     5.51389   0.52106  -5.7609 
 H                     5.97002   0.19384  -4.22892 
 N                     1.9467    2.63572  -3.21075 
 C                     0.88962   1.7902   -3.44678 
 C                     1.95558   4.08744  -3.4812 
 N                    -2.3579    1.27431  -4.56448 
 H                    -2.99296   0.50798  -4.65756 
 H                    -2.68559   2.1732   -4.8566 
 N                    -0.30891   2.1407   -3.96129 
 C                    -1.12216   1.10515  -4.07026 
 N                    -0.7891   -0.17641  -3.70397 
 H                    -1.47461  -0.90643  -3.82277 
 C                     0.43819  -0.56     -3.17247 
 O                     0.63721  -1.74425  -2.87468 
 C                     1.32242   0.54176  -3.04942 
 N                     2.62501   0.6023   -2.5735 
 C                     2.95306   1.86066  -2.68808 
 H                     3.9198    2.27859  -2.40521 
 H                     2.68014   4.3019   -4.13529 
 H                     1.07285   4.35868  -3.86261 
 H                     2.11699   4.58576  -2.63006 
 H                    -5.08696  -4.1835   -5.2596 
 H                    -5.5441   -4.10369  -3.5598 
 H                    -4.83488  -2.6943   -4.34848 
 H                    -1.753    -7.05567  -3.31488 
 C                    -1.96456  -5.99169  -3.42173 
 O                     0.23733  -5.30974  -2.86158 
 C                    -0.91973  -5.04287  -3.18529 
 H                    -0.58217  -3.02436  -3.18928 
 N                    -1.2935   -3.7241   -3.34773 
 O                    -2.76785  -2.06326  -3.82221 
 C                    -2.53253  -3.25284  -3.70307 
 H                    -4.01204  -6.24332  -3.96056 
 C                    -3.18338  -5.5627   -3.76966 
 C                    -4.82623  -3.77284  -4.29552 
 N                    -3.48672  -4.2287   -3.91387 
 H                    -5.74382  -2.47711  -10.50922 
 H                    -5.03491  -1.48477  -9.42534 
 H                    -6.5438   -2.04485  -9.15401 
 H                    -1.57667  -6.42366  -5.80548 
 H                    -3.02981  -7.01747  -6.47322 
 N                    -2.39972  -6.25055  -6.34655 
 C                    -2.64701  -5.0507   -6.87608 
 C                    -3.90597  -3.46501  -8.12601 
 N                    -3.04199  -2.45348  -7.93952 
 H                    -1.25615  -2.09056  -7.00161 
 C                    -2.00803  -2.85274  -7.20167 
 N                    -1.75854  -4.05402  -6.67038 
 H                    -6.55659  -4.96489  -9.21078 
 C                    -5.6106   -4.70188  -8.73658 
 N                    -4.87261  -5.52852  -8.03678 
 C                    -3.78866  -4.75697  -7.64374 
 C                    -5.64684  -2.2673   -9.5363 
 N                    -5.08562  -3.43613  -8.83142 
 
 ITRead=  0  0  0  0  0  0  0  0  0  0  0  0  0  0  0  0  0  0  0  0
 ITRead=  0  0  0  0  0  0  0  0  0  0  0  0  0  0  0  0  0  0  0  0
 ITRead=  0  0  0  0  0  0  0  0  0  0  0  0  0  0  0  0  0  0  0  0
 ITRead=  0  0  0  0  0  0  0  0  0  0
 MicOpt= -1 -1 -1 -1 -1 -1 -1 -1 -1 -1 -1 -1 -1 -1 -1 -1 -1 -1 -1 -1
 MicOpt= -1 -1 -1 -1 -1 -1 -1 -1 -1 -1 -1 -1 -1 -1 -1 -1 -1 -1 -1 -1
 MicOpt= -1 -1 -1 -1 -1 -1 -1 -1 -1 -1 -1 -1 -1 -1 -1 -1 -1 -1 -1 -1
 MicOpt= -1 -1 -1 -1 -1 -1 -1 -1 -1 -1
 NAtoms=     70 NQM=       70 NQMF=       0 NMMI=      0 NMMIF=      0
                NMic=       0 NMicF=      0.
                    Isotopes and Nuclear Properties:
 (Nuclear quadrupole moments (NQMom) in fm**2, nuclear magnetic moments (NMagM)
  in nuclear magnetons)

  Atom         1           2           3           4           5           6           7           8           9          10
 IAtWgt=          14          12          12          14          12           1          14          12           1          14
 AtmWgt=  14.0030740  12.0000000  12.0000000  14.0030740  12.0000000   1.0078250  14.0030740  12.0000000   1.0078250  14.0030740
 NucSpn=           2           0           0           2           0           1           2           0           1           2
 AtZEff=  -0.0000000  -0.0000000  -0.0000000  -0.0000000  -0.0000000  -0.0000000  -0.0000000  -0.0000000  -0.0000000  -0.0000000
 NQMom=    2.0440000   0.0000000   0.0000000   2.0440000   0.0000000   0.0000000   2.0440000   0.0000000   0.0000000   2.0440000
 NMagM=    0.4037610   0.0000000   0.0000000   0.4037610   0.0000000   2.7928460   0.4037610   0.0000000   2.7928460   0.4037610
 AtZNuc=   7.0000000   6.0000000   6.0000000   7.0000000   6.0000000   1.0000000   7.0000000   6.0000000   1.0000000   7.0000000

  Atom        11          12          13          14          15          16          17          18          19          20
 IAtWgt=          12          12          14           1           1           1           1           1          14          12
 AtmWgt=  12.0000000  12.0000000  14.0030740   1.0078250   1.0078250   1.0078250   1.0078250   1.0078250  14.0030740  12.0000000
 NucSpn=           0           0           2           1           1           1           1           1           2           0
 AtZEff=  -0.0000000  -0.0000000  -0.0000000  -0.0000000  -0.0000000  -0.0000000  -0.0000000  -0.0000000  -0.0000000  -0.0000000
 NQMom=    0.0000000   0.0000000   2.0440000   0.0000000   0.0000000   0.0000000   0.0000000   0.0000000   2.0440000   0.0000000
 NMagM=    0.0000000   0.0000000   0.4037610   2.7928460   2.7928460   2.7928460   2.7928460   2.7928460   0.4037610   0.0000000
 AtZNuc=   6.0000000   6.0000000   7.0000000   1.0000000   1.0000000   1.0000000   1.0000000   1.0000000   7.0000000   6.0000000

  Atom        21          22          23          24          25          26          27          28          29          30
 IAtWgt=          12          14           1           1          14          12          14           1          12          16
 AtmWgt=  12.0000000  14.0030740   1.0078250   1.0078250  14.0030740  12.0000000  14.0030740   1.0078250  12.0000000  15.9949146
 NucSpn=           0           2           1           1           2           0           2           1           0           0
 AtZEff=  -0.0000000  -0.0000000  -0.0000000  -0.0000000  -0.0000000  -0.0000000  -0.0000000  -0.0000000  -0.0000000  -0.0000000
 NQMom=    0.0000000   2.0440000   0.0000000   0.0000000   2.0440000   0.0000000   2.0440000   0.0000000   0.0000000   0.0000000
 NMagM=    0.0000000   0.4037610   2.7928460   2.7928460   0.4037610   0.0000000   0.4037610   2.7928460   0.0000000   0.0000000
 AtZNuc=   6.0000000   7.0000000   1.0000000   1.0000000   7.0000000   6.0000000   7.0000000   1.0000000   6.0000000   8.0000000

  Atom        31          32          33          34          35          36          37          38          39          40
 IAtWgt=          12          14          12           1           1           1           1           1           1           1
 AtmWgt=  12.0000000  14.0030740  12.0000000   1.0078250   1.0078250   1.0078250   1.0078250   1.0078250   1.0078250   1.0078250
 NucSpn=           0           2           0           1           1           1           1           1           1           1
 AtZEff=  -0.0000000  -0.0000000  -0.0000000  -0.0000000  -0.0000000  -0.0000000  -0.0000000  -0.0000000  -0.0000000  -0.0000000
 NQMom=    0.0000000   2.0440000   0.0000000   0.0000000   0.0000000   0.0000000   0.0000000   0.0000000   0.0000000   0.0000000
 NMagM=    0.0000000   0.4037610   0.0000000   2.7928460   2.7928460   2.7928460   2.7928460   2.7928460   2.7928460   2.7928460
 AtZNuc=   6.0000000   7.0000000   6.0000000   1.0000000   1.0000000   1.0000000   1.0000000   1.0000000   1.0000000   1.0000000

  Atom        41          42          43          44          45          46          47          48          49          50
 IAtWgt=           1          12          16          12           1          14          16          12           1          12
 AtmWgt=   1.0078250  12.0000000  15.9949146  12.0000000   1.0078250  14.0030740  15.9949146  12.0000000   1.0078250  12.0000000
 NucSpn=           1           0           0           0           1           2           0           0           1           0
 AtZEff=  -0.0000000  -0.0000000  -0.0000000  -0.0000000  -0.0000000  -0.0000000  -0.0000000  -0.0000000  -0.0000000  -0.0000000
 NQMom=    0.0000000   0.0000000   0.0000000   0.0000000   0.0000000   2.0440000   0.0000000   0.0000000   0.0000000   0.0000000
 NMagM=    2.7928460   0.0000000   0.0000000   0.0000000   2.7928460   0.4037610   0.0000000   0.0000000   2.7928460   0.0000000
 AtZNuc=   1.0000000   6.0000000   8.0000000   6.0000000   1.0000000   7.0000000   8.0000000   6.0000000   1.0000000   6.0000000

  Atom        51          52          53          54          55          56          57          58          59          60
 IAtWgt=          12          14           1           1           1           1           1          14          12          12
 AtmWgt=  12.0000000  14.0030740   1.0078250   1.0078250   1.0078250   1.0078250   1.0078250  14.0030740  12.0000000  12.0000000
 NucSpn=           0           2           1           1           1           1           1           2           0           0
 AtZEff=  -0.0000000  -0.0000000  -0.0000000  -0.0000000  -0.0000000  -0.0000000  -0.0000000  -0.0000000  -0.0000000  -0.0000000
 NQMom=    0.0000000   2.0440000   0.0000000   0.0000000   0.0000000   0.0000000   0.0000000   2.0440000   0.0000000   0.0000000
 NMagM=    0.0000000   0.4037610   2.7928460   2.7928460   2.7928460   2.7928460   2.7928460   0.4037610   0.0000000   0.0000000
 AtZNuc=   6.0000000   7.0000000   1.0000000   1.0000000   1.0000000   1.0000000   1.0000000   7.0000000   6.0000000   6.0000000

  Atom        61          62          63          64          65          66          67          68          69          70
 IAtWgt=          14           1          12          14           1          12          14          12          12          14
 AtmWgt=  14.0030740   1.0078250  12.0000000  14.0030740   1.0078250  12.0000000  14.0030740  12.0000000  12.0000000  14.0030740
 NucSpn=           2           1           0           2           1           0           2           0           0           2
 AtZEff=  -0.0000000  -0.0000000  -0.0000000  -0.0000000  -0.0000000  -0.0000000  -0.0000000  -0.0000000  -0.0000000  -0.0000000
 NQMom=    2.0440000   0.0000000   0.0000000   2.0440000   0.0000000   0.0000000   2.0440000   0.0000000   0.0000000   2.0440000
 NMagM=    0.4037610   2.7928460   0.0000000   0.4037610   2.7928460   0.0000000   0.4037610   0.0000000   0.0000000   0.4037610
 AtZNuc=   7.0000000   1.0000000   6.0000000   7.0000000   1.0000000   6.0000000   7.0000000   6.0000000   6.0000000   7.0000000
 Leave Link  101 at Tue Jan 23 07:37:46 2018, MaxMem=  4294967296 cpu:               7.8 elap:               0.3
 (Enter /share/apps/g16/l202.exe)
 Stoichiometry    C23H27N17O3
 Framework group  C1[X(C23H27N17O3)]
 Deg. of freedom   204
 Full point group                 C1      NOp   1
 Largest Abelian subgroup         C1      NOp   1
 Largest concise Abelian subgroup C1      NOp   1
                         Standard orientation:                         
 ---------------------------------------------------------------------
 Center     Atomic      Atomic             Coordinates (Angstroms)
 Number     Number       Type             X           Y           Z
 ---------------------------------------------------------------------
      1          7           0       -4.561866   -2.233889    1.610653
      2          6           0       -5.915640   -1.919570    2.107131
      3          6           0       -2.399892   -2.180644    1.210215
      4          7           0       -2.893499   -3.284434    0.529985
      5          6           0       -4.176257   -3.272334    0.798462
      6          1           0       -4.894378   -4.003884    0.426863
      7          7           0       -0.955785   -0.532493    2.082632
      8          6           0       -2.034946   -0.007742    2.672231
      9          1           0       -1.851514    0.886111    3.266906
     10          7           0       -3.300734   -0.419431    2.637698
     11          6           0       -3.416486   -1.523211    1.880923
     12          6           0       -1.105293   -1.642982    1.327953
     13          7           0       -0.029230   -2.168277    0.738603
     14          1           0       -0.093183   -2.989758    0.170887
     15          1           0        0.877024   -1.758835    0.844399
     16          1           0       -6.260681   -2.687326    2.647218
     17          1           0       -5.879939   -1.100461    2.678906
     18          1           0       -6.527482   -1.757218    1.333005
     19          7           0       -5.065187    2.402538   -0.602112
     20          6           0       -3.707060    2.307105   -0.787624
     21          6           0       -5.787173    3.624055   -0.193030
     22          7           0       -0.558608    3.772962   -0.770308
     23          1           0        0.384399    3.497305   -0.954638
     24          1           0       -0.708663    4.724432   -0.500296
     25          7           0       -2.811144    3.305156   -0.628642
     26          6           0       -1.576884    2.906356   -0.879988
     27          7           0       -1.243387    1.628381   -1.258214
     28          1           0       -0.273272    1.412951   -1.429774
     29          6           0       -2.148659    0.585528   -1.427964
     30          8           0       -1.743549   -0.531723   -1.772017
     31          6           0       -3.478758    0.998708   -1.161509
     32          7           0       -4.669608    0.287052   -1.209751
     33          6           0       -5.580976    1.158268   -0.871216
     34          1           0       -6.648256    0.945288   -0.801797
     35          1           0       -6.264891    3.457983    0.668955
     36          1           0       -5.133762    4.370193   -0.072246
     37          1           0       -6.449771    3.873596   -0.898373
     38          1           0        4.776058    0.820464   -1.507020
     39          1           0        4.561047    0.991437   -3.247481
     40          1           0        3.479399    1.835676   -2.139019
     41          1           0        3.168907   -3.572513   -2.631921
     42          6           0        2.780646   -2.564604   -2.484948
     43          8           0        0.524303   -3.266049   -2.275111
     44          6           0        1.375058   -2.376838   -2.292857
     45          1           0        0.003877   -0.890655   -1.977473
     46          7           0        0.989622   -1.063264   -2.116204
     47          8           0        1.366148    1.169580   -1.943385
     48          6           0        1.801284    0.043389   -2.107771
     49          1           0        4.673866   -1.593850   -2.623468
     50          6           0        3.597598   -1.504797   -2.481761
     51          6           0        4.049725    0.932612   -2.298180
     52          7           0        3.143515   -0.219141   -2.299374
     53          1           0        5.970198    3.054640    3.441134
     54          1           0        4.539142    3.390471    2.733048
     55          1           0        5.933761    3.737254    1.959203
     56          1           0        3.454649   -2.929535   -0.154311
     57          1           0        5.115001   -2.559782   -0.025408
     58          7           0        4.165136   -2.283813    0.125663
     59          6           0        3.860552   -1.106766    0.676104
     60          6           0        4.351174    1.012195    1.640993
     61          7           0        3.066807    1.356288    1.831872
     62          1           0        1.191878    0.587705    1.524412
     63          6           0        2.256299    0.389406    1.406289
     64          7           0        2.559419   -0.790195    0.854703
     65          1           0        7.567847    1.329747    1.706818
     66          6           0        6.542727    0.983221    1.572704
     67          7           0        6.208700   -0.170788    1.048896
     68          6           0        4.821873   -0.165174    1.086239
     69          6           0        5.478651    3.090156    2.571008
     70          7           0        5.468439    1.749931    1.953206
 ---------------------------------------------------------------------
 Rotational constants (GHZ):           0.1282678           0.0535336           0.0499144
 Leave Link  202 at Tue Jan 23 07:37:46 2018, MaxMem=  4294967296 cpu:               0.4 elap:               0.0
 (Enter /share/apps/g16/l301.exe)
 Standard basis: CC-pVDZ (5D, 7F)
 Ernie: Thresh=  0.10000D-02 Tol=  0.10000D-05 Strict=F.
 Ernie:  86 primitive shells out of 1081 were deleted.
 There are   780 symmetry adapted cartesian basis functions of A   symmetry.
 There are   737 symmetry adapted basis functions of A   symmetry.
   737 basis functions,  1608 primitive gaussians,   780 cartesian basis functions
   154 alpha electrons      154 beta electrons
       nuclear repulsion energy      5421.0980023408 Hartrees.
 IExCor= 4639 DFT=T Ex+Corr=wB97XD ExCW=0 ScaHFX=  1.000000
 ScaDFX=  1.000000  1.000000  1.000000  1.000000 ScalE2=  1.000000  1.000000
 IRadAn=      5 IRanWt=     -1 IRanGd=            0 ICorTp=0 IEmpDi=121
 HFx  wShort=  0.000000 wLong=  0.200000 cFull=  0.222036 cShort=  0.000000 cLong=  0.777964
 DFx  wShort=  0.000000 wLong=  0.200000 cFull=  0.000000 cShort=  0.000000 cLong=  1.000000
 NAtoms=   70 NActive=   70 NUniq=   70 SFac= 1.00D+00 NAtFMM=   60 NAOKFM=T Big=T
 Integral buffers will be    131072 words long.
 Raffenetti 2 integral format.
 Two-electron integral symmetry is turned on.
 R6Disp:  Grimme-D2 Dispersion energy=       -0.0655869980 Hartrees.
 Nuclear repulsion after empirical dispersion term =     5421.0324153428 Hartrees.
 Leave Link  301 at Tue Jan 23 07:37:46 2018, MaxMem=  4294967296 cpu:               3.0 elap:               0.1
 (Enter /share/apps/g16/l302.exe)
 NPDir=0 NMtPBC=     1 NCelOv=     1 NCel=       1 NClECP=     1 NCelD=      1
         NCelK=      1 NCelE2=     1 NClLst=     1 CellRange=     0.0.
 One-electron integrals computed using PRISM.
 One-electron integral symmetry used in STVInt
 NBasis=   737 RedAO= T EigKep=  7.16D-04  NBF=   737
 NBsUse=   737 1.00D-06 EigRej= -1.00D+00 NBFU=   737
 Precomputing XC quadrature grid using
 IXCGrd= 4 IRadAn=           5 IRanWt=          -1 IRanGd=           0 AccXCQ= 0.00D+00.
 Generated NRdTot=       0 NPtTot=           0 NUsed=           0 NTot=          32
 NSgBfM=   762   761   761   762   762 MxSgAt=    70 MxSgA2=    70.
 Leave Link  302 at Tue Jan 23 07:37:51 2018, MaxMem=  4294967296 cpu:             137.2 elap:               4.3
 (Enter /share/apps/g16/l303.exe)
 DipDrv:  MaxL=1.
 Leave Link  303 at Tue Jan 23 07:37:51 2018, MaxMem=  4294967296 cpu:              12.4 elap:               0.4
 (Enter /share/apps/g16/l401.exe)
 ExpMin= 1.22D-01 ExpMax= 1.17D+04 ExpMxC= 4.01D+02 IAcc=3 IRadAn=         5 AccDes= 0.00D+00
 Harris functional with IExCor= 4639 and IRadAn=       5 diagonalized for initial guess.
 HarFok:  IExCor= 4639 AccDes= 0.00D+00 IRadAn=         5 IDoV= 1 UseB2=F ITyADJ=14
 ICtDFT=  3500011 ScaDFX=  1.000000  1.000000  1.000000  1.000000
 FoFCou: FMM=F IPFlag=           0 FMFlag=      100000 FMFlg1=        2001
         NFxFlg=           0 DoJE=T BraDBF=F KetDBF=T FulRan=T
         wScrn=  0.000000 ICntrl=       500 IOpCl=  0 I1Cent=   200000004 NGrid=           0
         NMat0=    1 NMatS0=      1 NMatT0=    0 NMatD0=    1 NMtDS0=    0 NMtDT0=    0
 Petite list used in FoFCou.
 Harris En= -1963.88059718815    
 JPrj=0 DoOrth=F DoCkMO=F.
 Leave Link  401 at Tue Jan 23 07:38:03 2018, MaxMem=  4294967296 cpu:             388.9 elap:              12.2
 (Enter /share/apps/g16/l502.exe)
 Integral symmetry usage will be decided dynamically.
 Closed shell SCF:
 Using DIIS extrapolation, IDIIS=  1040.
 NGot=  4294967296 LenX=  4293717438 LenY=  4293108258
 Requested convergence on RMS density matrix=1.00D-08 within  20 cycles.
 Requested convergence on MAX density matrix=1.00D-06.
 Requested convergence on             energy=1.00D-06.
 No special actions if energy rises.
 Fock matrices will be formed incrementally for  20 cycles.
 Integral accuracy reduced to 1.0D-05 until final iterations.

 Cycle   1  Pass 0  IDiag  1:
 FoFJK:  IHMeth= 1 ICntrl=       0 DoSepK=T KAlg= 0 I1Cent=           0 FoldK=F
 IRaf=         1 NMat=       1 IRICut=       1 DoRegI=T DoRafI=F ISym2E= 0 IDoP0=0 IntGTp=1.
 FoFCou: FMM=T IPFlag=           0 FMFlag=      100000 FMFlg1=        2001
         NFxFlg=           0 DoJE=T BraDBF=F KetDBF=F FulRan=T
         wScrn=  0.000000 ICntrl=       500 IOpCl=  0 I1Cent=           0 NGrid=           0
         NMat0=    1 NMatS0=      1 NMatT0=    0 NMatD0=    1 NMtDS0=    0 NMtDT0=    0
 Symmetry not used in FoFCou.
 FMM levels:  10  Number of levels for PrismC:   9
 E= -2048.31259872270    
 DIIS: error= 2.69D-02 at cycle   1 NSaved=   1.
 NSaved= 1 IEnMin= 1 EnMin= -2048.31259872270     IErMin= 1 ErrMin= 2.69D-02
 ErrMax= 2.69D-02  0.00D+00 EMaxC= 1.00D-01 BMatC= 8.29D-01 BMatP= 8.29D-01
 IDIUse=3 WtCom= 7.31D-01 WtEn= 2.69D-01
 Coeff-Com:  0.100D+01
 Coeff-En:   0.100D+01
 Coeff:      0.100D+01
 Gap=     0.260 Goal=   None    Shift=    0.000
 GapD=    0.260 DampG=1.000 DampE=0.500 DampFc=0.5000 IDamp=-1.
 Damping current iteration by 5.00D-01
 RMSDP=1.54D-03 MaxDP=1.31D-01              OVMax= 1.36D-01

 Cycle   2  Pass 0  IDiag  1:
 RMSU=  7.71D-04    CP:  9.98D-01
 E= -2048.50942812456     Delta-E=       -0.196829401863 Rises=F Damp=T
 DIIS: error= 1.50D-02 at cycle   2 NSaved=   2.
 NSaved= 2 IEnMin= 2 EnMin= -2048.50942812456     IErMin= 2 ErrMin= 1.50D-02
 ErrMax= 1.50D-02  0.00D+00 EMaxC= 1.00D-01 BMatC= 1.44D-01 BMatP= 8.29D-01
 IDIUse=3 WtCom= 8.50D-01 WtEn= 1.50D-01
 Coeff-Com: -0.206D+00 0.121D+01
 Coeff-En:   0.000D+00 0.100D+01
 Coeff:     -0.175D+00 0.117D+01
 Gap=     0.327 Goal=   None    Shift=    0.000
 RMSDP=5.76D-04 MaxDP=3.54D-02 DE=-1.97D-01 OVMax= 1.37D-01

 Cycle   3  Pass 0  IDiag  1:
 RMSU=  5.61D-04    CP:  9.94D-01  1.16D+00
 E= -2048.68992778810     Delta-E=       -0.180499663539 Rises=F Damp=F
 DIIS: error= 6.29D-03 at cycle   3 NSaved=   3.
 NSaved= 3 IEnMin= 3 EnMin= -2048.68992778810     IErMin= 3 ErrMin= 6.29D-03
 ErrMax= 6.29D-03  0.00D+00 EMaxC= 1.00D-01 BMatC= 5.90D-02 BMatP= 1.44D-01
 IDIUse=3 WtCom= 9.37D-01 WtEn= 6.29D-02
 Coeff-Com: -0.230D+00 0.542D+00 0.688D+00
 Coeff-En:   0.000D+00 0.000D+00 0.100D+01
 Coeff:     -0.215D+00 0.508D+00 0.707D+00
 Gap=     0.272 Goal=   None    Shift=    0.000
 RMSDP=3.35D-04 MaxDP=3.40D-02 DE=-1.80D-01 OVMax= 5.12D-02

 Cycle   4  Pass 0  IDiag  1:
 RMSU=  1.93D-04    CP:  9.95D-01  1.43D+00  6.87D-01
 E= -2048.73455232734     Delta-E=       -0.044624539243 Rises=F Damp=F
 DIIS: error= 2.41D-03 at cycle   4 NSaved=   4.
 NSaved= 4 IEnMin= 4 EnMin= -2048.73455232734     IErMin= 4 ErrMin= 2.41D-03
 ErrMax= 2.41D-03  0.00D+00 EMaxC= 1.00D-01 BMatC= 8.07D-03 BMatP= 5.90D-02
 IDIUse=3 WtCom= 9.76D-01 WtEn= 2.41D-02
 Coeff-Com: -0.958D-01 0.185D+00 0.374D+00 0.536D+00
 Coeff-En:   0.000D+00 0.000D+00 0.429D-01 0.957D+00
 Coeff:     -0.934D-01 0.181D+00 0.366D+00 0.546D+00
 Gap=     0.278 Goal=   None    Shift=    0.000
 RMSDP=1.18D-04 MaxDP=1.23D-02 DE=-4.46D-02 OVMax= 1.24D-02

 Cycle   5  Pass 0  IDiag  1:
 RMSU=  6.18D-05    CP:  9.94D-01  1.41D+00  8.10D-01  6.31D-01
 E= -2048.74101798229     Delta-E=       -0.006465654952 Rises=F Damp=F
 DIIS: error= 6.68D-04 at cycle   5 NSaved=   5.
 NSaved= 5 IEnMin= 5 EnMin= -2048.74101798229     IErMin= 5 ErrMin= 6.68D-04
 ErrMax= 6.68D-04  0.00D+00 EMaxC= 1.00D-01 BMatC= 2.89D-04 BMatP= 8.07D-03
 IDIUse=3 WtCom= 9.93D-01 WtEn= 6.68D-03
 Coeff-Com: -0.251D-01 0.433D-01 0.121D+00 0.244D+00 0.617D+00
 Coeff-En:   0.000D+00 0.000D+00 0.000D+00 0.000D+00 0.100D+01
 Coeff:     -0.250D-01 0.430D-01 0.120D+00 0.242D+00 0.620D+00
 Gap=     0.278 Goal=   None    Shift=    0.000
 RMSDP=2.48D-05 MaxDP=2.28D-03 DE=-6.47D-03 OVMax= 3.12D-03

 Failed to achieve initial convergence to 1.0D-08 in  6 cycles.
 Switch to full accuracy anyway.
 Cycle   6  Pass 1  IDiag  1:
 E= -2048.74122721598     Delta-E=       -0.000209233691 Rises=F Damp=F
 DIIS: error= 2.59D-04 at cycle   1 NSaved=   1.
 NSaved= 1 IEnMin= 1 EnMin= -2048.74122721598     IErMin= 1 ErrMin= 2.59D-04
 ErrMax= 2.59D-04  0.00D+00 EMaxC= 1.00D-01 BMatC= 7.56D-05 BMatP= 7.56D-05
 IDIUse=3 WtCom= 9.97D-01 WtEn= 2.59D-03
 Coeff-Com:  0.100D+01
 Coeff-En:   0.100D+01
 Coeff:      0.100D+01
 Gap=     0.278 Goal=   None    Shift=    0.000
 RMSDP=2.48D-05 MaxDP=2.28D-03 DE=-2.09D-04 OVMax= 1.88D-03

 Cycle   7  Pass 1  IDiag  1:
 RMSU=  1.15D-04    CP:  1.00D+00
 E= -2048.74128080638     Delta-E=       -0.000053590397 Rises=F Damp=F
 DIIS: error= 2.94D-04 at cycle   2 NSaved=   2.
 NSaved= 2 IEnMin= 2 EnMin= -2048.74128080638     IErMin= 1 ErrMin= 2.59D-04
 ErrMax= 2.94D-04  0.00D+00 EMaxC= 1.00D-01 BMatC= 4.65D-05 BMatP= 7.56D-05
 IDIUse=3 WtCom= 9.97D-01 WtEn= 2.94D-03
 Coeff-Com:  0.419D+00 0.581D+00
 Coeff-En:   0.000D+00 0.100D+01
 Coeff:      0.418D+00 0.582D+00
 Gap=     0.278 Goal=   None    Shift=    0.000
 RMSDP=1.11D-05 MaxDP=1.39D-03 DE=-5.36D-05 OVMax= 1.60D-03

 Cycle   8  Pass 1  IDiag  1:
 RMSU=  1.07D-05    CP:  1.00D+00  1.02D+00
 E= -2048.74131292656     Delta-E=       -0.000032120179 Rises=F Damp=F
 DIIS: error= 1.13D-04 at cycle   3 NSaved=   3.
 NSaved= 3 IEnMin= 3 EnMin= -2048.74131292656     IErMin= 3 ErrMin= 1.13D-04
 ErrMax= 1.13D-04  0.00D+00 EMaxC= 1.00D-01 BMatC= 1.05D-05 BMatP= 4.65D-05
 IDIUse=3 WtCom= 9.99D-01 WtEn= 1.13D-03
 Coeff-Com: -0.181D-01 0.309D+00 0.709D+00
 Coeff-En:   0.000D+00 0.130D+00 0.870D+00
 Coeff:     -0.181D-01 0.309D+00 0.709D+00
 Gap=     0.278 Goal=   None    Shift=    0.000
 RMSDP=5.55D-06 MaxDP=5.42D-04 DE=-3.21D-05 OVMax= 5.37D-04

 Cycle   9  Pass 1  IDiag  1:
 RMSU=  3.72D-06    CP:  1.00D+00  1.05D+00  7.64D-01
 E= -2048.74132212743     Delta-E=       -0.000009200867 Rises=F Damp=F
 DIIS: error= 2.76D-05 at cycle   4 NSaved=   4.
 NSaved= 4 IEnMin= 4 EnMin= -2048.74132212743     IErMin= 4 ErrMin= 2.76D-05
 ErrMax= 2.76D-05  0.00D+00 EMaxC= 1.00D-01 BMatC= 4.71D-07 BMatP= 1.05D-05
 IDIUse=1 WtCom= 1.00D+00 WtEn= 0.00D+00
 Coeff-Com: -0.299D-01 0.855D-01 0.257D+00 0.687D+00
 Coeff:     -0.299D-01 0.855D-01 0.257D+00 0.687D+00
 Gap=     0.278 Goal=   None    Shift=    0.000
 RMSDP=1.39D-06 MaxDP=1.37D-04 DE=-9.20D-06 OVMax= 4.34D-04

 Cycle  10  Pass 1  IDiag  1:
 RMSU=  1.23D-06    CP:  1.00D+00  1.06D+00  7.95D-01  1.11D+00
 E= -2048.74132291591     Delta-E=       -0.000000788485 Rises=F Damp=F
 DIIS: error= 1.22D-05 at cycle   5 NSaved=   5.
 NSaved= 5 IEnMin= 5 EnMin= -2048.74132291591     IErMin= 5 ErrMin= 1.22D-05
 ErrMax= 1.22D-05  0.00D+00 EMaxC= 1.00D-01 BMatC= 1.09D-07 BMatP= 4.71D-07
 IDIUse=1 WtCom= 1.00D+00 WtEn= 0.00D+00
 Coeff-Com: -0.261D-02-0.535D-01-0.122D+00 0.190D+00 0.988D+00
 Coeff:     -0.261D-02-0.535D-01-0.122D+00 0.190D+00 0.988D+00
 Gap=     0.278 Goal=   None    Shift=    0.000
 RMSDP=1.18D-06 MaxDP=7.64D-05 DE=-7.88D-07 OVMax= 2.10D-04

 Cycle  11  Pass 1  IDiag  1:
 RMSU=  4.93D-07    CP:  1.00D+00  1.06D+00  8.03D-01  1.39D+00  1.18D+00
 E= -2048.74132315764     Delta-E=       -0.000000241728 Rises=F Damp=F
 DIIS: error= 6.56D-06 at cycle   6 NSaved=   6.
 NSaved= 6 IEnMin= 6 EnMin= -2048.74132315764     IErMin= 6 ErrMin= 6.56D-06
 ErrMax= 6.56D-06  0.00D+00 EMaxC= 1.00D-01 BMatC= 2.76D-08 BMatP= 1.09D-07
 IDIUse=1 WtCom= 1.00D+00 WtEn= 0.00D+00
 Coeff-Com:  0.463D-02-0.439D-01-0.115D+00-0.987D-02 0.532D+00 0.632D+00
 Coeff:      0.463D-02-0.439D-01-0.115D+00-0.987D-02 0.532D+00 0.632D+00
 Gap=     0.278 Goal=   None    Shift=    0.000
 RMSDP=3.65D-07 MaxDP=3.66D-05 DE=-2.42D-07 OVMax= 1.12D-04

 Cycle  12  Pass 1  IDiag  1:
 RMSU=  1.86D-07    CP:  1.00D+00  1.06D+00  8.04D-01  1.46D+00  1.31D+00
                    CP:  9.21D-01
 E= -2048.74132319792     Delta-E=       -0.000000040276 Rises=F Damp=F
 DIIS: error= 9.27D-07 at cycle   7 NSaved=   7.
 NSaved= 7 IEnMin= 7 EnMin= -2048.74132319792     IErMin= 7 ErrMin= 9.27D-07
 ErrMax= 9.27D-07  0.00D+00 EMaxC= 1.00D-01 BMatC= 8.60D-10 BMatP= 2.76D-08
 IDIUse=1 WtCom= 1.00D+00 WtEn= 0.00D+00
 Coeff-Com:  0.112D-02-0.725D-02-0.208D-01-0.866D-02 0.597D-01 0.147D+00
 Coeff-Com:  0.829D+00
 Coeff:      0.112D-02-0.725D-02-0.208D-01-0.866D-02 0.597D-01 0.147D+00
 Coeff:      0.829D+00
 Gap=     0.278 Goal=   None    Shift=    0.000
 RMSDP=8.41D-08 MaxDP=5.40D-06 DE=-4.03D-08 OVMax= 2.12D-05

 Cycle  13  Pass 1  IDiag  1:
 RMSU=  5.09D-08    CP:  1.00D+00  1.06D+00  8.03D-01  1.47D+00  1.33D+00
                    CP:  1.01D+00  1.13D+00
 E= -2048.74132319933     Delta-E=       -0.000000001416 Rises=F Damp=F
 DIIS: error= 5.67D-07 at cycle   8 NSaved=   8.
 NSaved= 8 IEnMin= 8 EnMin= -2048.74132319933     IErMin= 8 ErrMin= 5.67D-07
 ErrMax= 5.67D-07  0.00D+00 EMaxC= 1.00D-01 BMatC= 3.39D-10 BMatP= 8.60D-10
 IDIUse=1 WtCom= 1.00D+00 WtEn= 0.00D+00
 Coeff-Com: -0.723D-03 0.865D-02 0.213D-01 0.950D-04-0.120D+00-0.970D-01
 Coeff-Com:  0.420D+00 0.767D+00
 Coeff:     -0.723D-03 0.865D-02 0.213D-01 0.950D-04-0.120D+00-0.970D-01
 Coeff:      0.420D+00 0.767D+00
 Gap=     0.278 Goal=   None    Shift=    0.000
 RMSDP=5.02D-08 MaxDP=3.05D-06 DE=-1.42D-09 OVMax= 1.17D-05

 Cycle  14  Pass 1  IDiag  1:
 RMSU=  2.82D-08    CP:  1.00D+00  1.06D+00  8.03D-01  1.48D+00  1.34D+00
                    CP:  1.06D+00  1.29D+00  1.08D+00
 E= -2048.74132319989     Delta-E=       -0.000000000556 Rises=F Damp=F
 DIIS: error= 1.55D-07 at cycle   9 NSaved=   9.
 NSaved= 9 IEnMin= 9 EnMin= -2048.74132319989     IErMin= 9 ErrMin= 1.55D-07
 ErrMax= 1.55D-07  0.00D+00 EMaxC= 1.00D-01 BMatC= 3.54D-11 BMatP= 3.39D-10
 IDIUse=1 WtCom= 1.00D+00 WtEn= 0.00D+00
 Coeff-Com: -0.449D-03 0.469D-02 0.119D-01 0.150D-02-0.589D-01-0.589D-01
 Coeff-Com:  0.879D-01 0.322D+00 0.690D+00
 Coeff:     -0.449D-03 0.469D-02 0.119D-01 0.150D-02-0.589D-01-0.589D-01
 Coeff:      0.879D-01 0.322D+00 0.690D+00
 Gap=     0.278 Goal=   None    Shift=    0.000
 RMSDP=1.39D-08 MaxDP=9.05D-07 DE=-5.56D-10 OVMax= 3.36D-06

 Cycle  15  Pass 1  IDiag  1:
 RMSU=  9.39D-09    CP:  1.00D+00  1.06D+00  8.03D-01  1.48D+00  1.34D+00
                    CP:  1.06D+00  1.31D+00  1.23D+00  1.09D+00
 E= -2048.74132320001     Delta-E=       -0.000000000124 Rises=F Damp=F
 DIIS: error= 7.04D-08 at cycle  10 NSaved=  10.
 NSaved=10 IEnMin=10 EnMin= -2048.74132320001     IErMin=10 ErrMin= 7.04D-08
 ErrMax= 7.04D-08  0.00D+00 EMaxC= 1.00D-01 BMatC= 5.43D-12 BMatP= 3.54D-11
 IDIUse=1 WtCom= 1.00D+00 WtEn= 0.00D+00
 Coeff-Com:  0.224D-06-0.268D-03-0.496D-03 0.152D-03 0.498D-02 0.436D-03
 Coeff-Com: -0.563D-01-0.547D-01 0.256D+00 0.850D+00
 Coeff:      0.224D-06-0.268D-03-0.496D-03 0.152D-03 0.498D-02 0.436D-03
 Coeff:     -0.563D-01-0.547D-01 0.256D+00 0.850D+00
 Gap=     0.278 Goal=   None    Shift=    0.000
 RMSDP=7.08D-09 MaxDP=4.31D-07 DE=-1.24D-10 OVMax= 1.56D-06

 SCF Done:  E(RwB97XD) =  -2048.74132320     A.U. after   15 cycles
            NFock= 15  Conv=0.71D-08     -V/T= 2.0054
 KE= 2.037716586606D+03 PE=-1.562269045783D+04 EE= 6.115200132677D+03
 Leave Link  502 at Tue Jan 23 07:48:38 2018, MaxMem=  4294967296 cpu:           19650.0 elap:             634.8
 (Enter /share/apps/g16/l601.exe)
 Copying SCF densities to generalized density rwf, IOpCl= 0 IROHF=0.

 **********************************************************************

            Population analysis using the SCF density.

 **********************************************************************

 Orbital symmetries:
       Occupied  (A) (A) (A) (A) (A) (A) (A) (A) (A) (A) (A) (A)
                 (A) (A) (A) (A) (A) (A) (A) (A) (A) (A) (A) (A)
                 (A) (A) (A) (A) (A) (A) (A) (A) (A) (A) (A) (A)
                 (A) (A) (A) (A) (A) (A) (A) (A) (A) (A) (A) (A)
                 (A) (A) (A) (A) (A) (A) (A) (A) (A) (A) (A) (A)
                 (A) (A) (A) (A) (A) (A) (A) (A) (A) (A) (A) (A)
                 (A) (A) (A) (A) (A) (A) (A) (A) (A) (A) (A) (A)
                 (A) (A) (A) (A) (A) (A) (A) (A) (A) (A) (A) (A)
                 (A) (A) (A) (A) (A) (A) (A) (A) (A) (A) (A) (A)
                 (A) (A) (A) (A) (A) (A) (A) (A) (A) (A) (A) (A)
                 (A) (A) (A) (A) (A) (A) (A) (A) (A) (A) (A) (A)
                 (A) (A) (A) (A) (A) (A) (A) (A) (A) (A) (A) (A)
                 (A) (A) (A) (A) (A) (A) (A) (A) (A) (A)
       Virtual   (A) (A) (A) (A) (A) (A) (A) (A) (A) (A) (A) (A)
                 (A) (A) (A) (A) (A) (A) (A) (A) (A) (A) (A) (A)
                 (A) (A) (A) (A) (A) (A) (A) (A) (A) (A) (A) (A)
                 (A) (A) (A) (A) (A) (A) (A) (A) (A) (A) (A) (A)
                 (A) (A) (A) (A) (A) (A) (A) (A) (A) (A) (A) (A)
                 (A) (A) (A) (A) (A) (A) (A) (A) (A) (A) (A) (A)
                 (A) (A) (A) (A) (A) (A) (A) (A) (A) (A) (A) (A)
                 (A) (A) (A) (A) (A) (A) (A) (A) (A) (A) (A) (A)
                 (A) (A) (A) (A) (A) (A) (A) (A) (A) (A) (A) (A)
                 (A) (A) (A) (A) (A) (A) (A) (A) (A) (A) (A) (A)
                 (A) (A) (A) (A) (A) (A) (A) (A) (A) (A) (A) (A)
                 (A) (A) (A) (A) (A) (A) (A) (A) (A) (A) (A) (A)
                 (A) (A) (A) (A) (A) (A) (A) (A) (A) (A) (A) (A)
                 (A) (A) (A) (A) (A) (A) (A) (A) (A) (A) (A) (A)
                 (A) (A) (A) (A) (A) (A) (A) (A) (A) (A) (A) (A)
                 (A) (A) (A) (A) (A) (A) (A) (A) (A) (A) (A) (A)
                 (A) (A) (A) (A) (A) (A) (A) (A) (A) (A) (A) (A)
                 (A) (A) (A) (A) (A) (A) (A) (A) (A) (A) (A) (A)
                 (A) (A) (A) (A) (A) (A) (A) (A) (A) (A) (A) (A)
                 (A) (A) (A) (A) (A) (A) (A) (A) (A) (A) (A) (A)
                 (A) (A) (A) (A) (A) (A) (A) (A) (A) (A) (A) (A)
                 (A) (A) (A) (A) (A) (A) (A) (A) (A) (A) (A) (A)
                 (A) (A) (A) (A) (A) (A) (A) (A) (A) (A) (A) (A)
                 (A) (A) (A) (A) (A) (A) (A) (A) (A) (A) (A) (A)
                 (A) (A) (A) (A) (A) (A) (A) (A) (A) (A) (A) (A)
                 (A) (A) (A) (A) (A) (A) (A) (A) (A) (A) (A) (A)
                 (A) (A) (A) (A) (A) (A) (A) (A) (A) (A) (A) (A)
                 (A) (A) (A) (A) (A) (A) (A) (A) (A) (A) (A) (A)
                 (A) (A) (A) (A) (A) (A) (A) (A) (A) (A) (A) (A)
                 (A) (A) (A) (A) (A) (A) (A) (A) (A) (A) (A) (A)
                 (A) (A) (A) (A) (A) (A) (A) (A) (A) (A) (A) (A)
                 (A) (A) (A) (A) (A) (A) (A) (A) (A) (A) (A) (A)
                 (A) (A) (A) (A) (A) (A) (A) (A) (A) (A) (A) (A)
                 (A) (A) (A) (A) (A) (A) (A) (A) (A) (A) (A) (A)
                 (A) (A) (A) (A) (A) (A) (A) (A) (A) (A) (A) (A)
                 (A) (A) (A) (A) (A) (A) (A) (A) (A) (A) (A) (A)
                 (A) (A) (A) (A) (A) (A) (A) (A) (A) (A) (A) (A)
                 (A) (A) (A) (A) (A) (A) (A) (A) (A) (A) (A) (A)
                 (A) (A) (A) (A) (A) (A) (A) (A) (A) (A) (A) (A)
                 (A) (A) (A) (A) (A) (A) (A) (A) (A) (A) (A) (A)
                 (A) (A) (A) (A) (A) (A) (A) (A) (A) (A) (A) (A)
                 (A) (A) (A) (A) (A) (A) (A) (A) (A) (A) (A) (A)
                 (A) (A) (A) (A) (A) (A) (A) (A) (A) (A) (A) (A)
                 (A) (A) (A) (A) (A) (A) (A) (A) (A) (A) (A) (A)
                 (A) (A) (A) (A) (A) (A) (A) (A) (A) (A) (A) (A)
                 (A) (A) (A) (A) (A) (A) (A) (A) (A) (A) (A) (A)
                 (A) (A) (A) (A) (A) (A) (A) (A) (A) (A) (A) (A)
                 (A) (A) (A) (A) (A) (A) (A) (A) (A) (A) (A) (A)
                 (A) (A) (A) (A) (A) (A) (A)
 The electronic state is 1-A.
 Alpha  occ. eigenvalues --  -19.25832 -19.22050 -19.20788 -14.52507 -14.52411
 Alpha  occ. eigenvalues --  -14.49202 -14.48376 -14.47736 -14.47675 -14.47117
 Alpha  occ. eigenvalues --  -14.46948 -14.45429 -14.44603 -14.44405 -14.42298
 Alpha  occ. eigenvalues --  -14.41896 -14.41415 -14.40389 -14.40260 -14.39925
 Alpha  occ. eigenvalues --  -10.45433 -10.41527 -10.40174 -10.40163 -10.38456
 Alpha  occ. eigenvalues --  -10.38093 -10.37985 -10.37278 -10.35930 -10.35009
 Alpha  occ. eigenvalues --  -10.34958 -10.34717 -10.33820 -10.33759 -10.33060
 Alpha  occ. eigenvalues --  -10.32805 -10.32582 -10.32573 -10.31275 -10.30943
 Alpha  occ. eigenvalues --  -10.30108 -10.28476 -10.27763  -1.19370  -1.15203
 Alpha  occ. eigenvalues --   -1.13460  -1.13086  -1.10944  -1.10363  -1.09699
 Alpha  occ. eigenvalues --   -1.09208  -1.08816  -1.05052  -1.04534  -1.02386
 Alpha  occ. eigenvalues --   -1.01000  -1.00022  -0.99925  -0.98848  -0.97077
 Alpha  occ. eigenvalues --   -0.96984  -0.96017  -0.92231  -0.91182  -0.87676
 Alpha  occ. eigenvalues --   -0.85861  -0.84493  -0.83552  -0.83110  -0.82857
 Alpha  occ. eigenvalues --   -0.81509  -0.78951  -0.77170  -0.74965  -0.74948
 Alpha  occ. eigenvalues --   -0.73920  -0.73336  -0.72245  -0.70569  -0.70373
 Alpha  occ. eigenvalues --   -0.67692  -0.66985  -0.66567  -0.65649  -0.64668
 Alpha  occ. eigenvalues --   -0.64354  -0.63958  -0.62912  -0.62101  -0.62062
 Alpha  occ. eigenvalues --   -0.60749  -0.60333  -0.60103  -0.59584  -0.59267
 Alpha  occ. eigenvalues --   -0.59217  -0.58651  -0.56975  -0.56085  -0.55978
 Alpha  occ. eigenvalues --   -0.55424  -0.55280  -0.54968  -0.54575  -0.54290
 Alpha  occ. eigenvalues --   -0.53867  -0.53751  -0.53644  -0.53290  -0.53105
 Alpha  occ. eigenvalues --   -0.52826  -0.52382  -0.51018  -0.50461  -0.50108
 Alpha  occ. eigenvalues --   -0.49916  -0.49608  -0.49495  -0.49438  -0.49084
 Alpha  occ. eigenvalues --   -0.48637  -0.48372  -0.48222  -0.48095  -0.47465
 Alpha  occ. eigenvalues --   -0.46276  -0.45846  -0.45678  -0.44343  -0.43284
 Alpha  occ. eigenvalues --   -0.40730  -0.40595  -0.39449  -0.37860  -0.37656
 Alpha  occ. eigenvalues --   -0.37628  -0.37578  -0.36404  -0.35838  -0.34947
 Alpha  occ. eigenvalues --   -0.34470  -0.34256  -0.33366  -0.32974  -0.32879
 Alpha  occ. eigenvalues --   -0.32799  -0.32562  -0.32302  -0.32120  -0.30187
 Alpha  occ. eigenvalues --   -0.29890  -0.29743  -0.25863  -0.25179
 Alpha virt. eigenvalues --    0.02660   0.04015   0.06721   0.08473   0.08828
 Alpha virt. eigenvalues --    0.08907   0.09489   0.10489   0.11379   0.11593
 Alpha virt. eigenvalues --    0.13489   0.14101   0.14337   0.15159   0.15198
 Alpha virt. eigenvalues --    0.15928   0.16021   0.17142   0.17296   0.17552
 Alpha virt. eigenvalues --    0.18308   0.18991   0.19703   0.20360   0.20665
 Alpha virt. eigenvalues --    0.21046   0.21162   0.21264   0.21553   0.21947
 Alpha virt. eigenvalues --    0.22223   0.22862   0.23062   0.23221   0.23637
 Alpha virt. eigenvalues --    0.23990   0.24501   0.24735   0.24928   0.24982
 Alpha virt. eigenvalues --    0.25820   0.26287   0.27416   0.27567   0.27768
 Alpha virt. eigenvalues --    0.29012   0.29255   0.29553   0.30841   0.31216
 Alpha virt. eigenvalues --    0.31425   0.32254   0.32300   0.33011   0.33180
 Alpha virt. eigenvalues --    0.33793   0.34367   0.34829   0.35967   0.36255
 Alpha virt. eigenvalues --    0.36457   0.37519   0.37946   0.38629   0.39353
 Alpha virt. eigenvalues --    0.39598   0.40500   0.40556   0.41071   0.41463
 Alpha virt. eigenvalues --    0.42056   0.42493   0.42934   0.43962   0.44384
 Alpha virt. eigenvalues --    0.44993   0.46125   0.46285   0.46471   0.46701
 Alpha virt. eigenvalues --    0.47279   0.47705   0.48055   0.48794   0.49212
 Alpha virt. eigenvalues --    0.49686   0.50074   0.50355   0.50953   0.51282
 Alpha virt. eigenvalues --    0.51454   0.51777   0.52140   0.52444   0.52912
 Alpha virt. eigenvalues --    0.53874   0.54455   0.54649   0.54919   0.55434
 Alpha virt. eigenvalues --    0.56011   0.56257   0.56568   0.57007   0.57360
 Alpha virt. eigenvalues --    0.57856   0.58123   0.58403   0.59222   0.59532
 Alpha virt. eigenvalues --    0.59717   0.59885   0.60288   0.60691   0.61140
 Alpha virt. eigenvalues --    0.61190   0.61423   0.62024   0.62365   0.63059
 Alpha virt. eigenvalues --    0.63481   0.64101   0.64698   0.64997   0.65068
 Alpha virt. eigenvalues --    0.65762   0.66057   0.66298   0.66897   0.67115
 Alpha virt. eigenvalues --    0.67276   0.67437   0.67753   0.68808   0.69065
 Alpha virt. eigenvalues --    0.69428   0.69622   0.70227   0.70915   0.71325
 Alpha virt. eigenvalues --    0.71454   0.72134   0.72506   0.72857   0.73644
 Alpha virt. eigenvalues --    0.74054   0.74518   0.74552   0.75007   0.75269
 Alpha virt. eigenvalues --    0.75772   0.75842   0.76249   0.76409   0.76554
 Alpha virt. eigenvalues --    0.76968   0.77418   0.77613   0.77828   0.78355
 Alpha virt. eigenvalues --    0.78531   0.79250   0.79699   0.80031   0.80308
 Alpha virt. eigenvalues --    0.81249   0.81597   0.81751   0.82309   0.82473
 Alpha virt. eigenvalues --    0.83129   0.83783   0.84558   0.84894   0.84969
 Alpha virt. eigenvalues --    0.85659   0.86044   0.86231   0.86955   0.87304
 Alpha virt. eigenvalues --    0.87477   0.88306   0.88780   0.89245   0.89807
 Alpha virt. eigenvalues --    0.90439   0.90772   0.91011   0.91418   0.91919
 Alpha virt. eigenvalues --    0.92331   0.92630   0.92933   0.93402   0.93949
 Alpha virt. eigenvalues --    0.94345   0.94842   0.95319   0.95825   0.96147
 Alpha virt. eigenvalues --    0.96858   0.97094   0.97278   0.98130   0.98348
 Alpha virt. eigenvalues --    0.98490   0.98699   0.99044   0.99623   1.00109
 Alpha virt. eigenvalues --    1.00539   1.00709   1.01480   1.01843   1.02590
 Alpha virt. eigenvalues --    1.03060   1.03285   1.04059   1.04150   1.04414
 Alpha virt. eigenvalues --    1.04952   1.05750   1.05963   1.06270   1.06995
 Alpha virt. eigenvalues --    1.07107   1.07719   1.08177   1.08966   1.10708
 Alpha virt. eigenvalues --    1.10809   1.11695   1.11872   1.12381   1.12856
 Alpha virt. eigenvalues --    1.13140   1.13638   1.13926   1.14506   1.15085
 Alpha virt. eigenvalues --    1.15803   1.16270   1.16548   1.16865   1.16997
 Alpha virt. eigenvalues --    1.17471   1.17731   1.17956   1.18643   1.19114
 Alpha virt. eigenvalues --    1.19300   1.19532   1.20034   1.20533   1.20879
 Alpha virt. eigenvalues --    1.21604   1.21784   1.22312   1.22624   1.23194
 Alpha virt. eigenvalues --    1.23381   1.23657   1.23815   1.23988   1.24396
 Alpha virt. eigenvalues --    1.24797   1.25086   1.26218   1.26531   1.27228
 Alpha virt. eigenvalues --    1.27990   1.28566   1.28725   1.29796   1.30171
 Alpha virt. eigenvalues --    1.31381   1.31936   1.32328   1.32968   1.33838
 Alpha virt. eigenvalues --    1.34172   1.34255   1.34847   1.35429   1.36475
 Alpha virt. eigenvalues --    1.36724   1.36966   1.37994   1.38375   1.39200
 Alpha virt. eigenvalues --    1.39956   1.41242   1.41492   1.41862   1.43335
 Alpha virt. eigenvalues --    1.44326   1.45294   1.45996   1.46270   1.46487
 Alpha virt. eigenvalues --    1.47033   1.48324   1.48894   1.49172   1.50364
 Alpha virt. eigenvalues --    1.50640   1.51889   1.52474   1.53436   1.53555
 Alpha virt. eigenvalues --    1.53721   1.54285   1.55769   1.56596   1.56978
 Alpha virt. eigenvalues --    1.57207   1.58366   1.58460   1.59427   1.60139
 Alpha virt. eigenvalues --    1.60643   1.60938   1.61134   1.62145   1.62315
 Alpha virt. eigenvalues --    1.63516   1.63814   1.63977   1.64605   1.65051
 Alpha virt. eigenvalues --    1.65990   1.66525   1.66974   1.68203   1.68630
 Alpha virt. eigenvalues --    1.68961   1.69371   1.70060   1.71124   1.71387
 Alpha virt. eigenvalues --    1.71619   1.71937   1.72177   1.72280   1.73225
 Alpha virt. eigenvalues --    1.73305   1.73693   1.73883   1.74782   1.75238
 Alpha virt. eigenvalues --    1.75428   1.75819   1.76054   1.76584   1.76775
 Alpha virt. eigenvalues --    1.76905   1.77398   1.77517   1.78098   1.78385
 Alpha virt. eigenvalues --    1.78766   1.79275   1.79646   1.79706   1.79919
 Alpha virt. eigenvalues --    1.80139   1.81128   1.81175   1.81618   1.82592
 Alpha virt. eigenvalues --    1.82687   1.82879   1.83335   1.84149   1.84238
 Alpha virt. eigenvalues --    1.84950   1.85277   1.85428   1.85624   1.86338
 Alpha virt. eigenvalues --    1.86774   1.87361   1.87569   1.87836   1.88499
 Alpha virt. eigenvalues --    1.89436   1.89598   1.90191   1.90251   1.90905
 Alpha virt. eigenvalues --    1.91352   1.91745   1.92655   1.93271   1.94509
 Alpha virt. eigenvalues --    1.94902   1.95606   1.95949   1.96204   1.97211
 Alpha virt. eigenvalues --    1.97803   1.98085   1.99350   1.99955   2.00490
 Alpha virt. eigenvalues --    2.00543   2.01499   2.01976   2.02395   2.02759
 Alpha virt. eigenvalues --    2.03507   2.03799   2.05469   2.05804   2.05965
 Alpha virt. eigenvalues --    2.07308   2.07957   2.08223   2.08376   2.09503
 Alpha virt. eigenvalues --    2.09966   2.10074   2.10519   2.11172   2.11580
 Alpha virt. eigenvalues --    2.12833   2.13802   2.14309   2.16070   2.16887
 Alpha virt. eigenvalues --    2.17549   2.19261   2.20029   2.20662   2.21265
 Alpha virt. eigenvalues --    2.21641   2.22065   2.22568   2.23266   2.23412
 Alpha virt. eigenvalues --    2.23825   2.24616   2.25441   2.25683   2.26069
 Alpha virt. eigenvalues --    2.26329   2.27552   2.28232   2.28742   2.29834
 Alpha virt. eigenvalues --    2.30018   2.30338   2.30910   2.31393   2.32068
 Alpha virt. eigenvalues --    2.32328   2.32750   2.33120   2.33455   2.33688
 Alpha virt. eigenvalues --    2.34035   2.34692   2.35228   2.36072   2.36960
 Alpha virt. eigenvalues --    2.37312   2.38042   2.38277   2.39664   2.40784
 Alpha virt. eigenvalues --    2.41519   2.42579   2.43161   2.43602   2.43911
 Alpha virt. eigenvalues --    2.43994   2.44921   2.45818   2.46172   2.46242
 Alpha virt. eigenvalues --    2.48019   2.48200   2.49422   2.50822   2.51080
 Alpha virt. eigenvalues --    2.51580   2.52569   2.53466   2.55439   2.55668
 Alpha virt. eigenvalues --    2.56153   2.56681   2.57423   2.58188   2.59160
 Alpha virt. eigenvalues --    2.60915   2.61950   2.61983   2.62590   2.63410
 Alpha virt. eigenvalues --    2.64005   2.64408   2.64997   2.65410   2.65507
 Alpha virt. eigenvalues --    2.66357   2.66964   2.67171   2.67817   2.68700
 Alpha virt. eigenvalues --    2.68896   2.70022   2.70537   2.70840   2.72134
 Alpha virt. eigenvalues --    2.73053   2.74259   2.75116   2.76373   2.76508
 Alpha virt. eigenvalues --    2.76927   2.77571   2.77744   2.78716   2.79012
 Alpha virt. eigenvalues --    2.79275   2.79632   2.80089   2.80519   2.81307
 Alpha virt. eigenvalues --    2.81790   2.82272   2.82317   2.83510   2.83706
 Alpha virt. eigenvalues --    2.83976   2.85162   2.85614   2.86693   2.86872
 Alpha virt. eigenvalues --    2.87556   2.88117   2.88563   2.90047   2.92513
 Alpha virt. eigenvalues --    2.93181   2.94499   2.95070   2.95858   2.97985
 Alpha virt. eigenvalues --    3.00169   3.00548   3.01567   3.03272   3.04945
 Alpha virt. eigenvalues --    3.04978   3.09170   3.10741   3.12368   3.14495
 Alpha virt. eigenvalues --    3.15628   3.16216   3.16338   3.17920   3.19284
 Alpha virt. eigenvalues --    3.20621   3.22365   3.23157   3.24770   3.25161
 Alpha virt. eigenvalues --    3.44191   3.46838   3.47342   3.49119   3.50181
 Alpha virt. eigenvalues --    3.53678   3.54540   3.55831   3.57497   3.59752
 Alpha virt. eigenvalues --    3.62530   3.70412   3.74872
          Condensed to atoms (all electrons):
 Mulliken charges:
               1
     1  N   -0.309904
     2  C    0.182009
     3  C    0.053143
     4  N   -0.252650
     5  C    0.147324
     6  H    0.025557
     7  N   -0.300195
     8  C    0.130660
     9  H    0.008740
    10  N   -0.286929
    11  C    0.251371
    12  C    0.090899
    13  N   -0.067293
    14  H    0.117114
    15  H    0.086102
    16  H    0.021640
    17  H    0.029833
    18  H    0.026220
    19  N   -0.310835
    20  C    0.256585
    21  C    0.181075
    22  N   -0.124320
    23  H    0.118222
    24  H    0.119021
    25  N   -0.312613
    26  C    0.250678
    27  N   -0.150130
    28  H    0.120698
    29  C    0.199020
    30  O   -0.319480
    31  C   -0.015428
    32  N   -0.229604
    33  C    0.124192
    34  H    0.022549
    35  H    0.028072
    36  H    0.030501
    37  H    0.025304
    38  H    0.067111
    39  H    0.059464
    40  H    0.075196
    41  H    0.026218
    42  C   -0.142037
    43  O   -0.268583
    44  C    0.172681
    45  H    0.132568
    46  N   -0.123075
    47  O   -0.350488
    48  C    0.353297
    49  H    0.041914
    50  C    0.181312
    51  C    0.037149
    52  N   -0.277052
    53  H    0.033949
    54  H    0.042625
    55  H    0.028845
    56  H    0.121640
    57  H    0.114551
    58  N   -0.060025
    59  C    0.098478
    60  C    0.247814
    61  N   -0.271117
    62  H    0.034961
    63  C    0.175903
    64  N   -0.317635
    65  H    0.038905
    66  C    0.138050
    67  N   -0.263633
    68  C    0.013758
    69  C    0.180523
    70  N   -0.310413
 Sum of Mulliken charges =  -0.00000
 Mulliken charges with hydrogens summed into heavy atoms:
               1
     1  N   -0.309904
     2  C    0.259702
     3  C    0.053143
     4  N   -0.252650
     5  C    0.172881
     7  N   -0.300195
     8  C    0.139399
    10  N   -0.286929
    11  C    0.251371
    12  C    0.090899
    13  N    0.135923
    19  N   -0.310835
    20  C    0.256585
    21  C    0.264952
    22  N    0.112923
    25  N   -0.312613
    26  C    0.250678
    27  N   -0.029432
    29  C    0.199020
    30  O   -0.319480
    31  C   -0.015428
    32  N   -0.229604
    33  C    0.146741
    42  C   -0.115818
    43  O   -0.268583
    44  C    0.172681
    46  N    0.009493
    47  O   -0.350488
    48  C    0.353297
    50  C    0.223226
    51  C    0.238920
    52  N   -0.277052
    58  N    0.176166
    59  C    0.098478
    60  C    0.247814
    61  N   -0.271117
    63  C    0.210864
    64  N   -0.317635
    66  C    0.176955
    67  N   -0.263633
    68  C    0.013758
    69  C    0.285941
    70  N   -0.310413
 Electronic spatial extent (au):  <R**2>=          22985.3531
 Charge=             -0.0000 electrons
 Dipole moment (field-independent basis, Debye):
    X=              7.6747    Y=              7.5574    Z=              0.5674  Tot=             10.7860
 Quadrupole moment (field-independent basis, Debye-Ang):
   XX=           -158.7515   YY=           -220.4316   ZZ=           -249.8485
   XY=             -0.1089   XZ=            -13.2752   YZ=             -1.6320
 Traceless Quadrupole moment (field-independent basis, Debye-Ang):
   XX=             50.9257   YY=            -10.7544   ZZ=            -40.1713
   XY=             -0.1089   XZ=            -13.2752   YZ=             -1.6320
 Octapole moment (field-independent basis, Debye-Ang**2):
  XXX=            -80.6673  YYY=            130.7588  ZZZ=            -14.6931  XYY=             50.7133
  XXY=            109.7006  XXZ=             60.6379  XZZ=             84.2865  YZZ=             38.1101
  YYZ=             37.4491  XYZ=             85.4890
 Hexadecapole moment (field-independent basis, Debye-Ang**3):
 XXXX=         -16212.7171 YYYY=          -5588.4043 ZZZZ=          -4330.8818 XXXY=            461.7705
 XXXZ=            -74.2109 YYYX=            -53.4855 YYYZ=              3.5552 ZZZX=             16.4991
 ZZZY=             45.8957 XXYY=          -3292.0359 XXZZ=          -3748.5958 YYZZ=          -1727.2503
 XXYZ=            225.6525 YYXZ=             20.4516 ZZXY=            136.3503
 N-N= 5.421032415343D+03 E-N=-1.562269045985D+04  KE= 2.037716586606D+03
 No NMR shielding tensors so no spin-rotation constants.
 Leave Link  601 at Tue Jan 23 07:48:40 2018, MaxMem=  4294967296 cpu:              50.3 elap:               1.8
 (Enter /share/apps/g16/l9999.exe)
 1\1\GINC-COMPUTE-0-3\SP\RwB97XD\CC-pVDZ\C23H27N17O3\SATYA\23-Jan-2018\
 0\\#p wb97xd/cc-pvdz sp scf=(maxcycles=20)\\Base pair stacking\\0,1\N,
 0,4.79345,-1.25387,-5.05824\C,0,5.82068,-0.19719,-5.13709\C,0,2.96527,
 -2.44072,-5.35228\N,0,3.75169,-3.15414,-4.45937\C,0,4.82163,-2.41055,-
 4.31796\H,0,5.6702,-2.66006,-3.68029\N,0,1.19899,-1.77932,-6.76853\C,0
 ,1.92516,-0.68973,-7.03881\H,0,1.46941,0.01154,-7.7365\N,0,3.12415,-0.
 33799,-6.57881\C,0,3.5942,-1.26722,-5.73027\C,0,1.69957,-2.69532,-5.91
 095\N,0,0.97618,-3.78363,-5.6399\H,0,1.30743,-4.48788,-5.01099\H,0,0.0
 7898,-3.93204,-6.056\H,0,6.67718,-0.5876,-5.475\H,0,5.51389,0.52106,-5
 .7609\H,0,5.97002,0.19384,-4.22892\N,0,1.9467,2.63572,-3.21075\C,0,0.8
 8962,1.7902,-3.44678\C,0,1.95558,4.08744,-3.4812\N,0,-2.3579,1.27431,-
 4.56448\H,0,-2.99296,0.50798,-4.65756\H,0,-2.68559,2.1732,-4.8566\N,0,
 -0.30891,2.1407,-3.96129\C,0,-1.12216,1.10515,-4.07026\N,0,-0.7891,-0.
 17641,-3.70397\H,0,-1.47461,-0.90643,-3.82277\C,0,0.43819,-0.56,-3.172
 47\O,0,0.63721,-1.74425,-2.87468\C,0,1.32242,0.54176,-3.04942\N,0,2.62
 501,0.6023,-2.5735\C,0,2.95306,1.86066,-2.68808\H,0,3.9198,2.27859,-2.
 40521\H,0,2.68014,4.3019,-4.13529\H,0,1.07285,4.35868,-3.86261\H,0,2.1
 1699,4.58576,-2.63006\H,0,-5.08696,-4.1835,-5.2596\H,0,-5.5441,-4.1036
 9,-3.5598\H,0,-4.83488,-2.6943,-4.34848\H,0,-1.753,-7.05567,-3.31488\C
 ,0,-1.96456,-5.99169,-3.42173\O,0,0.23733,-5.30974,-2.86158\C,0,-0.919
 73,-5.04287,-3.18529\H,0,-0.58217,-3.02436,-3.18928\N,0,-1.2935,-3.724
 1,-3.34773\O,0,-2.76785,-2.06326,-3.82221\C,0,-2.53253,-3.25284,-3.703
 07\H,0,-4.01204,-6.24332,-3.96056\C,0,-3.18338,-5.5627,-3.76966\C,0,-4
 .82623,-3.77284,-4.29552\N,0,-3.48672,-4.2287,-3.91387\H,0,-5.74382,-2
 .47711,-10.50922\H,0,-5.03491,-1.48477,-9.42534\H,0,-6.5438,-2.04485,-
 9.15401\H,0,-1.57667,-6.42366,-5.80548\H,0,-3.02981,-7.01747,-6.47322\
 N,0,-2.39972,-6.25055,-6.34655\C,0,-2.64701,-5.0507,-6.87608\C,0,-3.90
 597,-3.46501,-8.12601\N,0,-3.04199,-2.45348,-7.93952\H,0,-1.25615,-2.0
 9056,-7.00161\C,0,-2.00803,-2.85274,-7.20167\N,0,-1.75854,-4.05402,-6.
 67038\H,0,-6.55659,-4.96489,-9.21078\C,0,-5.6106,-4.70188,-8.73658\N,0
 ,-4.87261,-5.52852,-8.03678\C,0,-3.78866,-4.75697,-7.64374\C,0,-5.6468
 4,-2.2673,-9.5363\N,0,-5.08562,-3.43613,-8.83142\\Version=EM64L-G16Rev
 A.03\State=1-A\HF=-2048.7413232\RMSD=7.079e-09\Dipole=-3.9185326,0.825
 4481,-1.4040248\Quadrupole=22.566411,6.6419975,-29.2084085,21.1169969,
 10.3556199,6.10012\PG=C01 [X(C23H27N17O3)]\\@


 LEARN FROM YESTERDAY,
 LIVE FOR TODAY,
 LOOK TO TOMORROW,
 REST THIS AFTERNOON.

           -- SNOOPY
 Job cpu time:       0 days  5 hours 37 minutes 35.2 seconds.
 Elapsed time:       0 days  0 hours 10 minutes 54.1 seconds.
 File lengths (MBytes):  RWF=    298 Int=      0 D2E=      0 Chk=     33 Scr=      1
 Normal termination of Gaussian 16 at Tue Jan 23 07:48:40 2018.
