 Entering Gaussian System, Link 0=g16
 Input=str40.5.-2.5.com
 Output=str40.5.-2.5.log
 Initial command:
 /share/apps/g16/l1.exe "/state/partition1/scr/Gau-25010.inp" -scrdir="/state/partition1/scr/"
 Entering Link 1 = /share/apps/g16/l1.exe PID=     25011.
  
 Copyright (c) 1988,1990,1992,1993,1995,1998,2003,2009,2016,
            Gaussian, Inc.  All Rights Reserved.
  
 This is part of the Gaussian(R) 16 program.  It is based on
 the Gaussian(R) 09 system (copyright 2009, Gaussian, Inc.),
 the Gaussian(R) 03 system (copyright 2003, Gaussian, Inc.),
 the Gaussian(R) 98 system (copyright 1998, Gaussian, Inc.),
 the Gaussian(R) 94 system (copyright 1995, Gaussian, Inc.),
 the Gaussian 92(TM) system (copyright 1992, Gaussian, Inc.),
 the Gaussian 90(TM) system (copyright 1990, Gaussian, Inc.),
 the Gaussian 88(TM) system (copyright 1988, Gaussian, Inc.),
 the Gaussian 86(TM) system (copyright 1986, Carnegie Mellon
 University), and the Gaussian 82(TM) system (copyright 1983,
 Carnegie Mellon University). Gaussian is a federally registered
 trademark of Gaussian, Inc.
  
 This software contains proprietary and confidential information,
 including trade secrets, belonging to Gaussian, Inc.
  
 This software is provided under written license and may be
 used, copied, transmitted, or stored only in accord with that
 written license.
  
 The following legend is applicable only to US Government
 contracts under FAR:
  
                    RESTRICTED RIGHTS LEGEND
  
 Use, reproduction and disclosure by the US Government is
 subject to restrictions as set forth in subparagraphs (a)
 and (c) of the Commercial Computer Software - Restricted
 Rights clause in FAR 52.227-19.
  
 Gaussian, Inc.
 340 Quinnipiac St., Bldg. 40, Wallingford CT 06492
  
  
 ---------------------------------------------------------------
 Warning -- This program may not be used in any manner that
 competes with the business of Gaussian, Inc. or will provide
 assistance to any competitor of Gaussian, Inc.  The licensee
 of this program is prohibited from giving any competitor of
 Gaussian, Inc. access to this program.  By using this program,
 the user acknowledges that Gaussian, Inc. is engaged in the
 business of creating and licensing software in the field of
 computational chemistry and represents and warrants to the
 licensee that it is not a competitor of Gaussian, Inc. and that
 it will not use this program in any manner prohibited above.
 ---------------------------------------------------------------
  

 Cite this work as:
 Gaussian 16, Revision A.03,
 M. J. Frisch, G. W. Trucks, H. B. Schlegel, G. E. Scuseria, 
 M. A. Robb, J. R. Cheeseman, G. Scalmani, V. Barone, 
 G. A. Petersson, H. Nakatsuji, X. Li, M. Caricato, A. V. Marenich, 
 J. Bloino, B. G. Janesko, R. Gomperts, B. Mennucci, H. P. Hratchian, 
 J. V. Ortiz, A. F. Izmaylov, J. L. Sonnenberg, D. Williams-Young, 
 F. Ding, F. Lipparini, F. Egidi, J. Goings, B. Peng, A. Petrone, 
 T. Henderson, D. Ranasinghe, V. G. Zakrzewski, J. Gao, N. Rega, 
 G. Zheng, W. Liang, M. Hada, M. Ehara, K. Toyota, R. Fukuda, 
 J. Hasegawa, M. Ishida, T. Nakajima, Y. Honda, O. Kitao, H. Nakai, 
 T. Vreven, K. Throssell, J. A. Montgomery, Jr., J. E. Peralta, 
 F. Ogliaro, M. J. Bearpark, J. J. Heyd, E. N. Brothers, K. N. Kudin, 
 V. N. Staroverov, T. A. Keith, R. Kobayashi, J. Normand, 
 K. Raghavachari, A. P. Rendell, J. C. Burant, S. S. Iyengar, 
 J. Tomasi, M. Cossi, J. M. Millam, M. Klene, C. Adamo, R. Cammi, 
 J. W. Ochterski, R. L. Martin, K. Morokuma, O. Farkas, 
 J. B. Foresman, and D. J. Fox, Gaussian, Inc., Wallingford CT, 2016.
 
 ******************************************
 Gaussian 16:  EM64L-G16RevA.03 25-Dec-2016
                23-Jan-2018 
 ******************************************
 %nprocshared=32
 Will use up to   32 processors via shared memory.
 %mem=32GB
 %chk=allatoms_t.chk
 ---------------------------------------
 #p wb97xd/cc-pvdz sp scf=(maxcycles=20)
 ---------------------------------------
 1/38=1,172=1/1;
 2/12=2,17=6,18=5,40=1/2;
 3/5=16,11=2,25=1,30=1,74=-58/1,2,3;
 4//1;
 5/5=2,7=20,38=5/2;
 6/7=2,8=2,9=2,10=2,28=1/1;
 99/5=1,9=1/99;
 Leave Link    1 at Tue Jan 23 12:27:42 2018, MaxMem=  4294967296 cpu:               2.7 elap:               0.1
 (Enter /share/apps/g16/l101.exe)
 ------------------
 Base pair stacking
 ------------------
 Symbolic Z-matrix:
 Charge =  0 Multiplicity = 1
 N                     8.87328   5.73911  -5.83455 
 C                     9.81066   6.87405  -5.94054 
 C                     7.05491   4.50185  -5.83287 
 N                     8.10198   3.65331  -5.50373 
 C                     9.15558   4.43267  -5.51792 
 H                     10.1728   4.10403  -5.30299 
 N                     4.90684   5.34619  -6.31852 
 C                     5.49535   6.53499  -6.48578 
 H                     4.82626   7.35144  -6.75409 
 N                     6.78024   6.86513  -6.3719 
 C                     7.51488   5.79072  -6.03967 
 C                     5.67328   4.285    -5.98454 
 N                     5.08765   3.09749  -5.81714 
 H                     5.61605   2.2846   -5.5697 
 H                     4.10132   2.97995  -5.9333 
 H                     10.49455   6.67875  -6.64363 
 H                     9.307     7.70137  -6.1875 
 H                     10.2684   7.01412  -5.06255 
 N                     3.0045    6.8553   -3.19629 
 C                     1.92103   6.01226  -3.25479 
 C                     2.95188   8.32421  -3.33862 
 N                    -1.49648   5.52879  -3.64029 
 H                    -2.13636   4.76087  -3.64989 
 H                    -1.88196   6.44227  -3.7732 
 N                     0.63665   6.38117  -3.45054 
 C                    -0.18045   5.34294  -3.45747 
 N                     0.22707   4.04216  -3.286 
 H                    -0.46779   3.31158  -3.30597 
 C                     1.54332   3.63943  -3.08312 
 O                     1.8047    2.43871  -2.93929 
 C                     2.43277   4.74381  -3.07319 
 N                     3.8098    4.78961  -2.90409 
 C                     4.10348   6.05906  -2.9844 
 H                     5.10953   6.47049  -2.89578 
 H                     3.50731   8.6051   -4.12054 
 H                     2.00536   8.60916  -3.48408 
 H                     3.30435   8.75406  -2.50807 
 H                    -4.31497   0.096    -4.14974 
 H                    -4.37025   0.02768  -2.38993 
 H                    -3.85999   1.51001  -3.19845 
 H                    -0.62545  -2.86274  -3.26661 
 C                    -0.85533  -1.79774  -3.23248 
 O                     1.41667  -1.12275  -3.13492 
 C                     0.21635  -0.85203  -3.16211 
 H                     0.54503   1.166    -3.07344 
 N                    -0.18404   0.46837  -3.12343 
 O                    -1.72705   2.13451  -3.10721 
 C                    -1.47129   0.9438   -3.1454 
 H                    -2.97193  -2.04278  -3.30848 
 C                    -2.12123  -1.36465  -3.25544 
 C                    -3.83997   0.43111  -3.23971 
 N                    -2.44888  -0.02925  -3.21388 
 H                    -2.90639   5.01039  -7.55264 
 H                    -1.86167   5.73337  -6.52894 
 H                    -3.18219   4.97259  -5.94456 
 H                     2.63189   0.36265  -5.88184 
 H                     1.03582  -0.16748  -6.16751 
 N                     1.67213   0.59431  -6.04102 
 C                     1.25815   1.86239  -6.08293 
 C                    -0.35448   3.59593  -6.31959 
 N                     0.52241   4.59865  -6.14636 
 H                     2.52406   4.86714  -5.79718 
 C                     1.74801   4.11783  -5.94733 
 N                     2.16467   2.84811  -5.905 
 H                    -3.22021   2.19379  -6.84281 
 C                    -2.16765   2.4099   -6.65748 
 N                    -1.23361   1.50114  -6.51822 
 C                    -0.07899   2.23969  -6.30344 
 C                    -2.47552   4.95416  -6.65198 
 N                    -1.70608   3.69903  -6.54886 
 
 ITRead=  0  0  0  0  0  0  0  0  0  0  0  0  0  0  0  0  0  0  0  0
 ITRead=  0  0  0  0  0  0  0  0  0  0  0  0  0  0  0  0  0  0  0  0
 ITRead=  0  0  0  0  0  0  0  0  0  0  0  0  0  0  0  0  0  0  0  0
 ITRead=  0  0  0  0  0  0  0  0  0  0
 MicOpt= -1 -1 -1 -1 -1 -1 -1 -1 -1 -1 -1 -1 -1 -1 -1 -1 -1 -1 -1 -1
 MicOpt= -1 -1 -1 -1 -1 -1 -1 -1 -1 -1 -1 -1 -1 -1 -1 -1 -1 -1 -1 -1
 MicOpt= -1 -1 -1 -1 -1 -1 -1 -1 -1 -1 -1 -1 -1 -1 -1 -1 -1 -1 -1 -1
 MicOpt= -1 -1 -1 -1 -1 -1 -1 -1 -1 -1
 NAtoms=     70 NQM=       70 NQMF=       0 NMMI=      0 NMMIF=      0
                NMic=       0 NMicF=      0.
                    Isotopes and Nuclear Properties:
 (Nuclear quadrupole moments (NQMom) in fm**2, nuclear magnetic moments (NMagM)
  in nuclear magnetons)

  Atom         1           2           3           4           5           6           7           8           9          10
 IAtWgt=          14          12          12          14          12           1          14          12           1          14
 AtmWgt=  14.0030740  12.0000000  12.0000000  14.0030740  12.0000000   1.0078250  14.0030740  12.0000000   1.0078250  14.0030740
 NucSpn=           2           0           0           2           0           1           2           0           1           2
 AtZEff=  -0.0000000  -0.0000000  -0.0000000  -0.0000000  -0.0000000  -0.0000000  -0.0000000  -0.0000000  -0.0000000  -0.0000000
 NQMom=    2.0440000   0.0000000   0.0000000   2.0440000   0.0000000   0.0000000   2.0440000   0.0000000   0.0000000   2.0440000
 NMagM=    0.4037610   0.0000000   0.0000000   0.4037610   0.0000000   2.7928460   0.4037610   0.0000000   2.7928460   0.4037610
 AtZNuc=   7.0000000   6.0000000   6.0000000   7.0000000   6.0000000   1.0000000   7.0000000   6.0000000   1.0000000   7.0000000

  Atom        11          12          13          14          15          16          17          18          19          20
 IAtWgt=          12          12          14           1           1           1           1           1          14          12
 AtmWgt=  12.0000000  12.0000000  14.0030740   1.0078250   1.0078250   1.0078250   1.0078250   1.0078250  14.0030740  12.0000000
 NucSpn=           0           0           2           1           1           1           1           1           2           0
 AtZEff=  -0.0000000  -0.0000000  -0.0000000  -0.0000000  -0.0000000  -0.0000000  -0.0000000  -0.0000000  -0.0000000  -0.0000000
 NQMom=    0.0000000   0.0000000   2.0440000   0.0000000   0.0000000   0.0000000   0.0000000   0.0000000   2.0440000   0.0000000
 NMagM=    0.0000000   0.0000000   0.4037610   2.7928460   2.7928460   2.7928460   2.7928460   2.7928460   0.4037610   0.0000000
 AtZNuc=   6.0000000   6.0000000   7.0000000   1.0000000   1.0000000   1.0000000   1.0000000   1.0000000   7.0000000   6.0000000

  Atom        21          22          23          24          25          26          27          28          29          30
 IAtWgt=          12          14           1           1          14          12          14           1          12          16
 AtmWgt=  12.0000000  14.0030740   1.0078250   1.0078250  14.0030740  12.0000000  14.0030740   1.0078250  12.0000000  15.9949146
 NucSpn=           0           2           1           1           2           0           2           1           0           0
 AtZEff=  -0.0000000  -0.0000000  -0.0000000  -0.0000000  -0.0000000  -0.0000000  -0.0000000  -0.0000000  -0.0000000  -0.0000000
 NQMom=    0.0000000   2.0440000   0.0000000   0.0000000   2.0440000   0.0000000   2.0440000   0.0000000   0.0000000   0.0000000
 NMagM=    0.0000000   0.4037610   2.7928460   2.7928460   0.4037610   0.0000000   0.4037610   2.7928460   0.0000000   0.0000000
 AtZNuc=   6.0000000   7.0000000   1.0000000   1.0000000   7.0000000   6.0000000   7.0000000   1.0000000   6.0000000   8.0000000

  Atom        31          32          33          34          35          36          37          38          39          40
 IAtWgt=          12          14          12           1           1           1           1           1           1           1
 AtmWgt=  12.0000000  14.0030740  12.0000000   1.0078250   1.0078250   1.0078250   1.0078250   1.0078250   1.0078250   1.0078250
 NucSpn=           0           2           0           1           1           1           1           1           1           1
 AtZEff=  -0.0000000  -0.0000000  -0.0000000  -0.0000000  -0.0000000  -0.0000000  -0.0000000  -0.0000000  -0.0000000  -0.0000000
 NQMom=    0.0000000   2.0440000   0.0000000   0.0000000   0.0000000   0.0000000   0.0000000   0.0000000   0.0000000   0.0000000
 NMagM=    0.0000000   0.4037610   0.0000000   2.7928460   2.7928460   2.7928460   2.7928460   2.7928460   2.7928460   2.7928460
 AtZNuc=   6.0000000   7.0000000   6.0000000   1.0000000   1.0000000   1.0000000   1.0000000   1.0000000   1.0000000   1.0000000

  Atom        41          42          43          44          45          46          47          48          49          50
 IAtWgt=           1          12          16          12           1          14          16          12           1          12
 AtmWgt=   1.0078250  12.0000000  15.9949146  12.0000000   1.0078250  14.0030740  15.9949146  12.0000000   1.0078250  12.0000000
 NucSpn=           1           0           0           0           1           2           0           0           1           0
 AtZEff=  -0.0000000  -0.0000000  -0.0000000  -0.0000000  -0.0000000  -0.0000000  -0.0000000  -0.0000000  -0.0000000  -0.0000000
 NQMom=    0.0000000   0.0000000   0.0000000   0.0000000   0.0000000   2.0440000   0.0000000   0.0000000   0.0000000   0.0000000
 NMagM=    2.7928460   0.0000000   0.0000000   0.0000000   2.7928460   0.4037610   0.0000000   0.0000000   2.7928460   0.0000000
 AtZNuc=   1.0000000   6.0000000   8.0000000   6.0000000   1.0000000   7.0000000   8.0000000   6.0000000   1.0000000   6.0000000

  Atom        51          52          53          54          55          56          57          58          59          60
 IAtWgt=          12          14           1           1           1           1           1          14          12          12
 AtmWgt=  12.0000000  14.0030740   1.0078250   1.0078250   1.0078250   1.0078250   1.0078250  14.0030740  12.0000000  12.0000000
 NucSpn=           0           2           1           1           1           1           1           2           0           0
 AtZEff=  -0.0000000  -0.0000000  -0.0000000  -0.0000000  -0.0000000  -0.0000000  -0.0000000  -0.0000000  -0.0000000  -0.0000000
 NQMom=    0.0000000   2.0440000   0.0000000   0.0000000   0.0000000   0.0000000   0.0000000   2.0440000   0.0000000   0.0000000
 NMagM=    0.0000000   0.4037610   2.7928460   2.7928460   2.7928460   2.7928460   2.7928460   0.4037610   0.0000000   0.0000000
 AtZNuc=   6.0000000   7.0000000   1.0000000   1.0000000   1.0000000   1.0000000   1.0000000   7.0000000   6.0000000   6.0000000

  Atom        61          62          63          64          65          66          67          68          69          70
 IAtWgt=          14           1          12          14           1          12          14          12          12          14
 AtmWgt=  14.0030740   1.0078250  12.0000000  14.0030740   1.0078250  12.0000000  14.0030740  12.0000000  12.0000000  14.0030740
 NucSpn=           2           1           0           2           1           0           2           0           0           2
 AtZEff=  -0.0000000  -0.0000000  -0.0000000  -0.0000000  -0.0000000  -0.0000000  -0.0000000  -0.0000000  -0.0000000  -0.0000000
 NQMom=    2.0440000   0.0000000   0.0000000   2.0440000   0.0000000   0.0000000   2.0440000   0.0000000   0.0000000   2.0440000
 NMagM=    0.4037610   2.7928460   0.0000000   0.4037610   2.7928460   0.0000000   0.4037610   0.0000000   0.0000000   0.4037610
 AtZNuc=   7.0000000   1.0000000   6.0000000   7.0000000   1.0000000   6.0000000   7.0000000   6.0000000   6.0000000   7.0000000
 Leave Link  101 at Tue Jan 23 12:27:42 2018, MaxMem=  4294967296 cpu:               7.8 elap:               0.3
 (Enter /share/apps/g16/l202.exe)
 Stoichiometry    C23H27N17O3
 Framework group  C1[X(C23H27N17O3)]
 Deg. of freedom   204
 Full point group                 C1      NOp   1
 Largest Abelian subgroup         C1      NOp   1
 Largest concise Abelian subgroup C1      NOp   1
                         Standard orientation:                         
 ---------------------------------------------------------------------
 Center     Atomic      Atomic             Coordinates (Angstroms)
 Number     Number       Type             X           Y           Z
 ---------------------------------------------------------------------
      1          7           0       -7.196521   -1.334889    0.114874
      2          6           0       -8.560734   -0.775587    0.050789
      3          6           0       -5.029838   -1.575175    0.406483
      4          7           0       -5.501018   -2.804083   -0.032247
      5          6           0       -6.787509   -2.610142   -0.190367
      6          1           0       -7.491829   -3.369824   -0.530592
      7          7           0       -3.617306    0.160741    1.151008
      8          6           0       -4.710690    0.929038    1.193400
      9          1           0       -4.546003    1.954517    1.521323
     10          7           0       -5.971046    0.622226    0.892947
     11          6           0       -6.063341   -0.659605    0.502024
     12          6           0       -3.743306   -1.124261    0.753526
     13          7           0       -2.653020   -1.892763    0.710555
     14          1           0       -2.699456   -2.849867    0.422422
     15          1           0       -1.753117   -1.538219    0.964774
     16          1           0       -9.162937   -1.291496    0.660194
     17          1           0       -8.542583    0.182680    0.334542
     18          1           0       -8.904983   -0.837587   -0.886046
     19          7           0       -2.233943    2.486779   -1.733517
     20          6           0       -0.901565    2.248229   -1.497066
     21          6           0       -2.895508    3.803574   -1.638087
     22          7           0        2.254514    3.409959   -0.630304
     23          1           0        3.171288    3.031497   -0.505676
     24          1           0        2.144870    4.392662   -0.478720
     25          7           0        0.019708    3.169265   -1.140702
     26          6           0        1.218110    2.635283   -0.984765
     27          7           0        1.495201    1.301595   -1.163651
     28          1           0        2.441046    0.981518   -1.022570
     29          6           0        0.562932    0.336004   -1.530223
     30          8           0        0.916907   -0.841783   -1.665331
     31          6           0       -0.729182    0.894586   -1.701405
     32          7           0       -1.929197    0.295389   -2.058940
     33          6           0       -2.791060    1.275876   -2.065157
     34          1           0       -3.849596    1.170645   -2.305351
     35          1           0       -3.619447    3.765666   -0.950136
     36          1           0       -2.222871    4.493839   -1.374744
     37          1           0       -3.290115    4.045169   -2.523940
     38          1           0        7.188516   -0.082487    0.454631
     39          1           0        7.510990   -0.059165   -1.277455
     40          1           0        6.260172    0.983895   -0.600069
     41          1           0        5.475536   -4.394250   -0.818560
     42          6           0        5.182123   -3.345202   -0.859067
     43          8           0        2.896496   -3.810593   -1.290850
     44          6           0        3.813588   -3.010098   -1.109336
     45          1           0        2.593873   -1.379590   -1.314465
     46          7           0        3.550013   -1.655534   -1.140165
     47          8           0        4.118689    0.538876   -1.004750
     48          6           0        4.447827   -0.633413   -0.959259
     49          1           0        7.133739   -2.572337   -0.485315
     50          6           0        6.080994   -2.370496   -0.678585
     51          6           0        6.742275    0.020667   -0.523278
     52          7           0        5.747305   -1.036676   -0.722760
     53          1           0        3.189300    3.484521    3.454262
     54          1           0        2.079824    3.666900    2.271933
     55          1           0        3.669062    3.633129    1.901471
     56          1           0        0.762151   -3.158713    1.208823
     57          1           0        2.364108   -2.888299    1.729105
     58          7           0        1.469411   -2.509741    1.489471
     59          6           0        1.231106   -1.197645    1.542157
     60          6           0        1.794173    1.080591    1.935020
     61          7           0        0.583107    1.560666    1.607546
     62          1           0       -1.241563    0.871324    0.978257
     63          6           0       -0.234005    0.568480    1.259994
     64          7           0        0.002787   -0.746307    1.206584
     65          1           0        4.879932    1.168240    2.895526
     66          6           0        3.885584    0.871956    2.560233
     67          7           0        3.515120   -0.363389    2.327104
     68          6           0        2.191089   -0.245295    1.929953
     69          6           0        2.963552    3.262553    2.505701
     70          7           0        2.893980    1.797354    2.343300
 ---------------------------------------------------------------------
 Rotational constants (GHZ):           0.1480727           0.0488885           0.0440880
 Leave Link  202 at Tue Jan 23 12:27:43 2018, MaxMem=  4294967296 cpu:               0.3 elap:               0.0
 (Enter /share/apps/g16/l301.exe)
 Standard basis: CC-pVDZ (5D, 7F)
 Ernie: Thresh=  0.10000D-02 Tol=  0.10000D-05 Strict=F.
 Ernie:  86 primitive shells out of 1081 were deleted.
 There are   780 symmetry adapted cartesian basis functions of A   symmetry.
 There are   737 symmetry adapted basis functions of A   symmetry.
   737 basis functions,  1608 primitive gaussians,   780 cartesian basis functions
   154 alpha electrons      154 beta electrons
       nuclear repulsion energy      5422.7777573956 Hartrees.
 IExCor= 4639 DFT=T Ex+Corr=wB97XD ExCW=0 ScaHFX=  1.000000
 ScaDFX=  1.000000  1.000000  1.000000  1.000000 ScalE2=  1.000000  1.000000
 IRadAn=      5 IRanWt=     -1 IRanGd=            0 ICorTp=0 IEmpDi=121
 HFx  wShort=  0.000000 wLong=  0.200000 cFull=  0.222036 cShort=  0.000000 cLong=  0.777964
 DFx  wShort=  0.000000 wLong=  0.200000 cFull=  0.000000 cShort=  0.000000 cLong=  1.000000
 NAtoms=   70 NActive=   70 NUniq=   70 SFac= 1.00D+00 NAtFMM=   60 NAOKFM=T Big=T
 Integral buffers will be    131072 words long.
 Raffenetti 2 integral format.
 Two-electron integral symmetry is turned on.
 R6Disp:  Grimme-D2 Dispersion energy=       -0.0685758341 Hartrees.
 Nuclear repulsion after empirical dispersion term =     5422.7091815615 Hartrees.
 Leave Link  301 at Tue Jan 23 12:27:43 2018, MaxMem=  4294967296 cpu:               2.2 elap:               0.1
 (Enter /share/apps/g16/l302.exe)
 NPDir=0 NMtPBC=     1 NCelOv=     1 NCel=       1 NClECP=     1 NCelD=      1
         NCelK=      1 NCelE2=     1 NClLst=     1 CellRange=     0.0.
 One-electron integrals computed using PRISM.
 One-electron integral symmetry used in STVInt
 NBasis=   737 RedAO= T EigKep=  7.02D-04  NBF=   737
 NBsUse=   737 1.00D-06 EigRej= -1.00D+00 NBFU=   737
 Precomputing XC quadrature grid using
 IXCGrd= 4 IRadAn=           5 IRanWt=          -1 IRanGd=           0 AccXCQ= 0.00D+00.
 Generated NRdTot=       0 NPtTot=           0 NUsed=           0 NTot=          32
 NSgBfM=   756   754   755   755   756 MxSgAt=    70 MxSgA2=    70.
 Leave Link  302 at Tue Jan 23 12:27:47 2018, MaxMem=  4294967296 cpu:             133.4 elap:               4.2
 (Enter /share/apps/g16/l303.exe)
 DipDrv:  MaxL=1.
 Leave Link  303 at Tue Jan 23 12:27:47 2018, MaxMem=  4294967296 cpu:              12.4 elap:               0.4
 (Enter /share/apps/g16/l401.exe)
 ExpMin= 1.22D-01 ExpMax= 1.17D+04 ExpMxC= 4.01D+02 IAcc=3 IRadAn=         5 AccDes= 0.00D+00
 Harris functional with IExCor= 4639 and IRadAn=       5 diagonalized for initial guess.
 HarFok:  IExCor= 4639 AccDes= 0.00D+00 IRadAn=         5 IDoV= 1 UseB2=F ITyADJ=14
 ICtDFT=  3500011 ScaDFX=  1.000000  1.000000  1.000000  1.000000
 FoFCou: FMM=F IPFlag=           0 FMFlag=      100000 FMFlg1=        2001
         NFxFlg=           0 DoJE=T BraDBF=F KetDBF=T FulRan=T
         wScrn=  0.000000 ICntrl=       500 IOpCl=  0 I1Cent=   200000004 NGrid=           0
         NMat0=    1 NMatS0=      1 NMatT0=    0 NMatD0=    1 NMtDS0=    0 NMtDT0=    0
 Petite list used in FoFCou.
 Harris En= -1963.88150457663    
 JPrj=0 DoOrth=F DoCkMO=F.
 Leave Link  401 at Tue Jan 23 12:28:00 2018, MaxMem=  4294967296 cpu:             388.2 elap:              12.2
 (Enter /share/apps/g16/l502.exe)
 Integral symmetry usage will be decided dynamically.
 Closed shell SCF:
 Using DIIS extrapolation, IDIIS=  1040.
 NGot=  4294967296 LenX=  4293717438 LenY=  4293108258
 Requested convergence on RMS density matrix=1.00D-08 within  20 cycles.
 Requested convergence on MAX density matrix=1.00D-06.
 Requested convergence on             energy=1.00D-06.
 No special actions if energy rises.
 Fock matrices will be formed incrementally for  20 cycles.
 Integral accuracy reduced to 1.0D-05 until final iterations.

 Cycle   1  Pass 0  IDiag  1:
 FoFJK:  IHMeth= 1 ICntrl=       0 DoSepK=T KAlg= 0 I1Cent=           0 FoldK=F
 IRaf=         1 NMat=       1 IRICut=       1 DoRegI=T DoRafI=F ISym2E= 0 IDoP0=0 IntGTp=1.
 FoFCou: FMM=T IPFlag=           0 FMFlag=      100000 FMFlg1=        2001
         NFxFlg=           0 DoJE=T BraDBF=F KetDBF=F FulRan=T
         wScrn=  0.000000 ICntrl=       500 IOpCl=  0 I1Cent=           0 NGrid=           0
         NMat0=    1 NMatS0=      1 NMatT0=    0 NMatD0=    1 NMtDS0=    0 NMtDT0=    0
 Symmetry not used in FoFCou.
 FMM levels:  10  Number of levels for PrismC:   9
 E= -2048.31138810807    
 DIIS: error= 2.40D-02 at cycle   1 NSaved=   1.
 NSaved= 1 IEnMin= 1 EnMin= -2048.31138810807     IErMin= 1 ErrMin= 2.40D-02
 ErrMax= 2.40D-02  0.00D+00 EMaxC= 1.00D-01 BMatC= 8.32D-01 BMatP= 8.32D-01
 IDIUse=3 WtCom= 7.60D-01 WtEn= 2.40D-01
 Coeff-Com:  0.100D+01
 Coeff-En:   0.100D+01
 Coeff:      0.100D+01
 Gap=     0.255 Goal=   None    Shift=    0.000
 GapD=    0.255 DampG=1.000 DampE=0.500 DampFc=0.5000 IDamp=-1.
 Damping current iteration by 5.00D-01
 RMSDP=1.57D-03 MaxDP=1.30D-01              OVMax= 2.03D-01

 Cycle   2  Pass 0  IDiag  1:
 RMSU=  7.82D-04    CP:  9.98D-01
 E= -2048.50862324935     Delta-E=       -0.197235141281 Rises=F Damp=T
 DIIS: error= 1.20D-02 at cycle   2 NSaved=   2.
 NSaved= 2 IEnMin= 2 EnMin= -2048.50862324935     IErMin= 2 ErrMin= 1.20D-02
 ErrMax= 1.20D-02  0.00D+00 EMaxC= 1.00D-01 BMatC= 1.45D-01 BMatP= 8.32D-01
 IDIUse=3 WtCom= 8.80D-01 WtEn= 1.20D-01
 Coeff-Com: -0.197D+00 0.120D+01
 Coeff-En:   0.000D+00 0.100D+01
 Coeff:     -0.173D+00 0.117D+01
 Gap=     0.365 Goal=   None    Shift=    0.000
 RMSDP=5.87D-04 MaxDP=3.35D-02 DE=-1.97D-01 OVMax= 1.46D-01

 Cycle   3  Pass 0  IDiag  1:
 RMSU=  5.76D-04    CP:  9.94D-01  1.13D+00
 E= -2048.68845453688     Delta-E=       -0.179831287536 Rises=F Damp=F
 DIIS: error= 7.19D-03 at cycle   3 NSaved=   3.
 NSaved= 3 IEnMin= 3 EnMin= -2048.68845453688     IErMin= 3 ErrMin= 7.19D-03
 ErrMax= 7.19D-03  0.00D+00 EMaxC= 1.00D-01 BMatC= 6.24D-02 BMatP= 1.45D-01
 IDIUse=3 WtCom= 9.28D-01 WtEn= 7.19D-02
 Coeff-Com: -0.232D+00 0.548D+00 0.684D+00
 Coeff-En:   0.000D+00 0.000D+00 0.100D+01
 Coeff:     -0.215D+00 0.508D+00 0.707D+00
 Gap=     0.281 Goal=   None    Shift=    0.000
 RMSDP=3.53D-04 MaxDP=3.26D-02 DE=-1.80D-01 OVMax= 6.36D-02

 Cycle   4  Pass 0  IDiag  1:
 RMSU=  2.02D-04    CP:  9.94D-01  1.41D+00  6.75D-01
 E= -2048.73612165757     Delta-E=       -0.047667120692 Rises=F Damp=F
 DIIS: error= 2.45D-03 at cycle   4 NSaved=   4.
 NSaved= 4 IEnMin= 4 EnMin= -2048.73612165757     IErMin= 4 ErrMin= 2.45D-03
 ErrMax= 2.45D-03  0.00D+00 EMaxC= 1.00D-01 BMatC= 8.79D-03 BMatP= 6.24D-02
 IDIUse=3 WtCom= 9.76D-01 WtEn= 2.45D-02
 Coeff-Com: -0.965D-01 0.187D+00 0.378D+00 0.532D+00
 Coeff-En:   0.000D+00 0.000D+00 0.577D-01 0.942D+00
 Coeff:     -0.941D-01 0.183D+00 0.370D+00 0.542D+00
 Gap=     0.285 Goal=   None    Shift=    0.000
 RMSDP=1.26D-04 MaxDP=1.16D-02 DE=-4.77D-02 OVMax= 1.26D-02

 Cycle   5  Pass 0  IDiag  1:
 RMSU=  6.10D-05    CP:  9.94D-01  1.39D+00  8.06D-01  6.16D-01
 E= -2048.74340135627     Delta-E=       -0.007279698694 Rises=F Damp=F
 DIIS: error= 6.03D-04 at cycle   5 NSaved=   5.
 NSaved= 5 IEnMin= 5 EnMin= -2048.74340135627     IErMin= 5 ErrMin= 6.03D-04
 ErrMax= 6.03D-04  0.00D+00 EMaxC= 1.00D-01 BMatC= 2.96D-04 BMatP= 8.79D-03
 IDIUse=3 WtCom= 9.94D-01 WtEn= 6.03D-03
 Coeff-Com: -0.256D-01 0.440D-01 0.123D+00 0.242D+00 0.616D+00
 Coeff-En:   0.000D+00 0.000D+00 0.000D+00 0.000D+00 0.100D+01
 Coeff:     -0.254D-01 0.437D-01 0.123D+00 0.240D+00 0.619D+00
 Gap=     0.286 Goal=   None    Shift=    0.000
 RMSDP=2.66D-05 MaxDP=1.87D-03 DE=-7.28D-03 OVMax= 3.27D-03

 Failed to achieve initial convergence to 1.0D-08 in  6 cycles.
 Switch to full accuracy anyway.
 Cycle   6  Pass 1  IDiag  1:
 E= -2048.74361258100     Delta-E=       -0.000211224733 Rises=F Damp=F
 DIIS: error= 2.29D-04 at cycle   1 NSaved=   1.
 NSaved= 1 IEnMin= 1 EnMin= -2048.74361258100     IErMin= 1 ErrMin= 2.29D-04
 ErrMax= 2.29D-04  0.00D+00 EMaxC= 1.00D-01 BMatC= 6.94D-05 BMatP= 6.94D-05
 IDIUse=3 WtCom= 9.98D-01 WtEn= 2.29D-03
 Coeff-Com:  0.100D+01
 Coeff-En:   0.100D+01
 Coeff:      0.100D+01
 Gap=     0.285 Goal=   None    Shift=    0.000
 RMSDP=2.66D-05 MaxDP=1.87D-03 DE=-2.11D-04 OVMax= 2.49D-03

 Cycle   7  Pass 1  IDiag  1:
 RMSU=  9.95D-05    CP:  1.00D+00
 E= -2048.74366184392     Delta-E=       -0.000049262921 Rises=F Damp=F
 DIIS: error= 2.37D-04 at cycle   2 NSaved=   2.
 NSaved= 2 IEnMin= 2 EnMin= -2048.74366184392     IErMin= 1 ErrMin= 2.29D-04
 ErrMax= 2.37D-04  0.00D+00 EMaxC= 1.00D-01 BMatC= 4.26D-05 BMatP= 6.94D-05
 IDIUse=3 WtCom= 9.98D-01 WtEn= 2.37D-03
 Coeff-Com:  0.419D+00 0.581D+00
 Coeff-En:   0.000D+00 0.100D+01
 Coeff:      0.418D+00 0.582D+00
 Gap=     0.286 Goal=   None    Shift=    0.000
 RMSDP=1.13D-05 MaxDP=1.01D-03 DE=-4.93D-05 OVMax= 1.51D-03

 Cycle   8  Pass 1  IDiag  1:
 RMSU=  1.10D-05    CP:  1.00D+00  1.02D+00
 E= -2048.74369333197     Delta-E=       -0.000031488051 Rises=F Damp=F
 DIIS: error= 9.08D-05 at cycle   3 NSaved=   3.
 NSaved= 3 IEnMin= 3 EnMin= -2048.74369333197     IErMin= 3 ErrMin= 9.08D-05
 ErrMax= 9.08D-05  0.00D+00 EMaxC= 1.00D-01 BMatC= 9.14D-06 BMatP= 4.26D-05
 IDIUse=1 WtCom= 1.00D+00 WtEn= 0.00D+00
 Coeff-Com: -0.190D-01 0.302D+00 0.717D+00
 Coeff:     -0.190D-01 0.302D+00 0.717D+00
 Gap=     0.286 Goal=   None    Shift=    0.000
 RMSDP=5.42D-06 MaxDP=4.18D-04 DE=-3.15D-05 OVMax= 5.30D-04

 Cycle   9  Pass 1  IDiag  1:
 RMSU=  3.76D-06    CP:  1.00D+00  1.05D+00  7.73D-01
 E= -2048.74370208150     Delta-E=       -0.000008749532 Rises=F Damp=F
 DIIS: error= 4.03D-05 at cycle   4 NSaved=   4.
 NSaved= 4 IEnMin= 4 EnMin= -2048.74370208150     IErMin= 4 ErrMin= 4.03D-05
 ErrMax= 4.03D-05  0.00D+00 EMaxC= 1.00D-01 BMatC= 4.89D-07 BMatP= 9.14D-06
 IDIUse=1 WtCom= 1.00D+00 WtEn= 0.00D+00
 Coeff-Com: -0.328D-01 0.796D-01 0.264D+00 0.689D+00
 Coeff:     -0.328D-01 0.796D-01 0.264D+00 0.689D+00
 Gap=     0.286 Goal=   None    Shift=    0.000
 RMSDP=1.43D-06 MaxDP=1.23D-04 DE=-8.75D-06 OVMax= 4.78D-04

 Cycle  10  Pass 1  IDiag  1:
 RMSU=  1.26D-06    CP:  1.00D+00  1.06D+00  8.08D-01  1.11D+00
 E= -2048.74370290740     Delta-E=       -0.000000825898 Rises=F Damp=F
 DIIS: error= 1.61D-05 at cycle   5 NSaved=   5.
 NSaved= 5 IEnMin= 5 EnMin= -2048.74370290740     IErMin= 5 ErrMin= 1.61D-05
 ErrMax= 1.61D-05  0.00D+00 EMaxC= 1.00D-01 BMatC= 1.13D-07 BMatP= 4.89D-07
 IDIUse=1 WtCom= 1.00D+00 WtEn= 0.00D+00
 Coeff-Com: -0.359D-02-0.546D-01-0.122D+00 0.201D+00 0.980D+00
 Coeff:     -0.359D-02-0.546D-01-0.122D+00 0.201D+00 0.980D+00
 Gap=     0.286 Goal=   None    Shift=    0.000
 RMSDP=1.18D-06 MaxDP=7.57D-05 DE=-8.26D-07 OVMax= 2.39D-04

 Cycle  11  Pass 1  IDiag  1:
 RMSU=  4.70D-07    CP:  1.00D+00  1.06D+00  8.18D-01  1.39D+00  1.17D+00
 E= -2048.74370315304     Delta-E=       -0.000000245638 Rises=F Damp=F
 DIIS: error= 9.64D-06 at cycle   6 NSaved=   6.
 NSaved= 6 IEnMin= 6 EnMin= -2048.74370315304     IErMin= 6 ErrMin= 9.64D-06
 ErrMax= 9.64D-06  0.00D+00 EMaxC= 1.00D-01 BMatC= 2.68D-08 BMatP= 1.13D-07
 IDIUse=1 WtCom= 1.00D+00 WtEn= 0.00D+00
 Coeff-Com:  0.451D-02-0.424D-01-0.113D+00-0.865D-03 0.520D+00 0.631D+00
 Coeff:      0.451D-02-0.424D-01-0.113D+00-0.865D-03 0.520D+00 0.631D+00
 Gap=     0.286 Goal=   None    Shift=    0.000
 RMSDP=3.43D-07 MaxDP=3.46D-05 DE=-2.46D-07 OVMax= 1.16D-04

 Cycle  12  Pass 1  IDiag  1:
 RMSU=  1.75D-07    CP:  1.00D+00  1.06D+00  8.19D-01  1.45D+00  1.29D+00
                    CP:  9.28D-01
 E= -2048.74370319065     Delta-E=       -0.000000037607 Rises=F Damp=F
 DIIS: error= 1.05D-06 at cycle   7 NSaved=   7.
 NSaved= 7 IEnMin= 7 EnMin= -2048.74370319065     IErMin= 7 ErrMin= 1.05D-06
 ErrMax= 1.05D-06  0.00D+00 EMaxC= 1.00D-01 BMatC= 6.41D-10 BMatP= 2.68D-08
 IDIUse=1 WtCom= 1.00D+00 WtEn= 0.00D+00
 Coeff-Com:  0.875D-03-0.476D-02-0.143D-01-0.796D-02 0.309D-01 0.107D+00
 Coeff-Com:  0.888D+00
 Coeff:      0.875D-03-0.476D-02-0.143D-01-0.796D-02 0.309D-01 0.107D+00
 Coeff:      0.888D+00
 Gap=     0.286 Goal=   None    Shift=    0.000
 RMSDP=8.27D-08 MaxDP=5.27D-06 DE=-3.76D-08 OVMax= 2.28D-05

 Cycle  13  Pass 1  IDiag  1:
 RMSU=  4.78D-08    CP:  1.00D+00  1.06D+00  8.19D-01  1.46D+00  1.31D+00
                    CP:  1.02D+00  1.15D+00
 E= -2048.74370319246     Delta-E=       -0.000000001811 Rises=F Damp=F
 DIIS: error= 5.12D-07 at cycle   8 NSaved=   8.
 NSaved= 8 IEnMin= 8 EnMin= -2048.74370319246     IErMin= 8 ErrMin= 5.12D-07
 ErrMax= 5.12D-07  0.00D+00 EMaxC= 1.00D-01 BMatC= 2.62D-10 BMatP= 6.41D-10
 IDIUse=1 WtCom= 1.00D+00 WtEn= 0.00D+00
 Coeff-Com: -0.702D-03 0.840D-02 0.213D-01-0.164D-02-0.114D+00-0.103D+00
 Coeff-Com:  0.425D+00 0.765D+00
 Coeff:     -0.702D-03 0.840D-02 0.213D-01-0.164D-02-0.114D+00-0.103D+00
 Coeff:      0.425D+00 0.765D+00
 Gap=     0.286 Goal=   None    Shift=    0.000
 RMSDP=4.19D-08 MaxDP=2.36D-06 DE=-1.81D-09 OVMax= 9.48D-06

 Cycle  14  Pass 1  IDiag  1:
 RMSU=  2.45D-08    CP:  1.00D+00  1.06D+00  8.18D-01  1.46D+00  1.32D+00
                    CP:  1.06D+00  1.30D+00  1.10D+00
 E= -2048.74370319303     Delta-E=       -0.000000000571 Rises=F Damp=F
 DIIS: error= 1.98D-07 at cycle   9 NSaved=   9.
 NSaved= 9 IEnMin= 9 EnMin= -2048.74370319303     IErMin= 9 ErrMin= 1.98D-07
 ErrMax= 1.98D-07  0.00D+00 EMaxC= 1.00D-01 BMatC= 1.92D-11 BMatP= 2.62D-10
 IDIUse=1 WtCom= 1.00D+00 WtEn= 0.00D+00
 Coeff-Com: -0.342D-03 0.352D-02 0.913D-02 0.280D-03-0.440D-01-0.478D-01
 Coeff-Com:  0.714D-01 0.259D+00 0.749D+00
 Coeff:     -0.342D-03 0.352D-02 0.913D-02 0.280D-03-0.440D-01-0.478D-01
 Coeff:      0.714D-01 0.259D+00 0.749D+00
 Gap=     0.286 Goal=   None    Shift=    0.000
 RMSDP=1.17D-08 MaxDP=6.98D-07 DE=-5.71D-10 OVMax= 3.13D-06

 Cycle  15  Pass 1  IDiag  1:
 RMSU=  7.99D-09    CP:  1.00D+00  1.06D+00  8.18D-01  1.46D+00  1.32D+00
                    CP:  1.06D+00  1.32D+00  1.23D+00  1.11D+00
 E= -2048.74370319309     Delta-E=       -0.000000000065 Rises=F Damp=F
 DIIS: error= 7.31D-08 at cycle  10 NSaved=  10.
 NSaved=10 IEnMin=10 EnMin= -2048.74370319309     IErMin=10 ErrMin= 7.31D-08
 ErrMax= 7.31D-08  0.00D+00 EMaxC= 1.00D-01 BMatC= 4.55D-12 BMatP= 1.92D-11
 IDIUse=1 WtCom= 1.00D+00 WtEn= 0.00D+00
 Coeff-Com:  0.277D-04-0.549D-03-0.130D-02 0.183D-03 0.852D-02 0.457D-02
 Coeff-Com: -0.638D-01-0.804D-01 0.296D+00 0.837D+00
 Coeff:      0.277D-04-0.549D-03-0.130D-02 0.183D-03 0.852D-02 0.457D-02
 Coeff:     -0.638D-01-0.804D-01 0.296D+00 0.837D+00
 Gap=     0.286 Goal=   None    Shift=    0.000
 RMSDP=6.12D-09 MaxDP=3.47D-07 DE=-6.46D-11 OVMax= 1.25D-06

 SCF Done:  E(RwB97XD) =  -2048.74370319     A.U. after   15 cycles
            NFock= 15  Conv=0.61D-08     -V/T= 2.0054
 KE= 2.037721775657D+03 PE=-1.562638856144D+04 EE= 6.117213901025D+03
 Leave Link  502 at Tue Jan 23 12:38:54 2018, MaxMem=  4294967296 cpu:           20236.8 elap:             654.4
 (Enter /share/apps/g16/l601.exe)
 Copying SCF densities to generalized density rwf, IOpCl= 0 IROHF=0.

 **********************************************************************

            Population analysis using the SCF density.

 **********************************************************************

 Orbital symmetries:
       Occupied  (A) (A) (A) (A) (A) (A) (A) (A) (A) (A) (A) (A)
                 (A) (A) (A) (A) (A) (A) (A) (A) (A) (A) (A) (A)
                 (A) (A) (A) (A) (A) (A) (A) (A) (A) (A) (A) (A)
                 (A) (A) (A) (A) (A) (A) (A) (A) (A) (A) (A) (A)
                 (A) (A) (A) (A) (A) (A) (A) (A) (A) (A) (A) (A)
                 (A) (A) (A) (A) (A) (A) (A) (A) (A) (A) (A) (A)
                 (A) (A) (A) (A) (A) (A) (A) (A) (A) (A) (A) (A)
                 (A) (A) (A) (A) (A) (A) (A) (A) (A) (A) (A) (A)
                 (A) (A) (A) (A) (A) (A) (A) (A) (A) (A) (A) (A)
                 (A) (A) (A) (A) (A) (A) (A) (A) (A) (A) (A) (A)
                 (A) (A) (A) (A) (A) (A) (A) (A) (A) (A) (A) (A)
                 (A) (A) (A) (A) (A) (A) (A) (A) (A) (A) (A) (A)
                 (A) (A) (A) (A) (A) (A) (A) (A) (A) (A)
       Virtual   (A) (A) (A) (A) (A) (A) (A) (A) (A) (A) (A) (A)
                 (A) (A) (A) (A) (A) (A) (A) (A) (A) (A) (A) (A)
                 (A) (A) (A) (A) (A) (A) (A) (A) (A) (A) (A) (A)
                 (A) (A) (A) (A) (A) (A) (A) (A) (A) (A) (A) (A)
                 (A) (A) (A) (A) (A) (A) (A) (A) (A) (A) (A) (A)
                 (A) (A) (A) (A) (A) (A) (A) (A) (A) (A) (A) (A)
                 (A) (A) (A) (A) (A) (A) (A) (A) (A) (A) (A) (A)
                 (A) (A) (A) (A) (A) (A) (A) (A) (A) (A) (A) (A)
                 (A) (A) (A) (A) (A) (A) (A) (A) (A) (A) (A) (A)
                 (A) (A) (A) (A) (A) (A) (A) (A) (A) (A) (A) (A)
                 (A) (A) (A) (A) (A) (A) (A) (A) (A) (A) (A) (A)
                 (A) (A) (A) (A) (A) (A) (A) (A) (A) (A) (A) (A)
                 (A) (A) (A) (A) (A) (A) (A) (A) (A) (A) (A) (A)
                 (A) (A) (A) (A) (A) (A) (A) (A) (A) (A) (A) (A)
                 (A) (A) (A) (A) (A) (A) (A) (A) (A) (A) (A) (A)
                 (A) (A) (A) (A) (A) (A) (A) (A) (A) (A) (A) (A)
                 (A) (A) (A) (A) (A) (A) (A) (A) (A) (A) (A) (A)
                 (A) (A) (A) (A) (A) (A) (A) (A) (A) (A) (A) (A)
                 (A) (A) (A) (A) (A) (A) (A) (A) (A) (A) (A) (A)
                 (A) (A) (A) (A) (A) (A) (A) (A) (A) (A) (A) (A)
                 (A) (A) (A) (A) (A) (A) (A) (A) (A) (A) (A) (A)
                 (A) (A) (A) (A) (A) (A) (A) (A) (A) (A) (A) (A)
                 (A) (A) (A) (A) (A) (A) (A) (A) (A) (A) (A) (A)
                 (A) (A) (A) (A) (A) (A) (A) (A) (A) (A) (A) (A)
                 (A) (A) (A) (A) (A) (A) (A) (A) (A) (A) (A) (A)
                 (A) (A) (A) (A) (A) (A) (A) (A) (A) (A) (A) (A)
                 (A) (A) (A) (A) (A) (A) (A) (A) (A) (A) (A) (A)
                 (A) (A) (A) (A) (A) (A) (A) (A) (A) (A) (A) (A)
                 (A) (A) (A) (A) (A) (A) (A) (A) (A) (A) (A) (A)
                 (A) (A) (A) (A) (A) (A) (A) (A) (A) (A) (A) (A)
                 (A) (A) (A) (A) (A) (A) (A) (A) (A) (A) (A) (A)
                 (A) (A) (A) (A) (A) (A) (A) (A) (A) (A) (A) (A)
                 (A) (A) (A) (A) (A) (A) (A) (A) (A) (A) (A) (A)
                 (A) (A) (A) (A) (A) (A) (A) (A) (A) (A) (A) (A)
                 (A) (A) (A) (A) (A) (A) (A) (A) (A) (A) (A) (A)
                 (A) (A) (A) (A) (A) (A) (A) (A) (A) (A) (A) (A)
                 (A) (A) (A) (A) (A) (A) (A) (A) (A) (A) (A) (A)
                 (A) (A) (A) (A) (A) (A) (A) (A) (A) (A) (A) (A)
                 (A) (A) (A) (A) (A) (A) (A) (A) (A) (A) (A) (A)
                 (A) (A) (A) (A) (A) (A) (A) (A) (A) (A) (A) (A)
                 (A) (A) (A) (A) (A) (A) (A) (A) (A) (A) (A) (A)
                 (A) (A) (A) (A) (A) (A) (A) (A) (A) (A) (A) (A)
                 (A) (A) (A) (A) (A) (A) (A) (A) (A) (A) (A) (A)
                 (A) (A) (A) (A) (A) (A) (A) (A) (A) (A) (A) (A)
                 (A) (A) (A) (A) (A) (A) (A) (A) (A) (A) (A) (A)
                 (A) (A) (A) (A) (A) (A) (A) (A) (A) (A) (A) (A)
                 (A) (A) (A) (A) (A) (A) (A) (A) (A) (A) (A) (A)
                 (A) (A) (A) (A) (A) (A) (A) (A) (A) (A) (A) (A)
                 (A) (A) (A) (A) (A) (A) (A)
 The electronic state is 1-A.
 Alpha  occ. eigenvalues --  -19.25998 -19.22219 -19.20778 -14.52541 -14.51245
 Alpha  occ. eigenvalues --  -14.49274 -14.48832 -14.48007 -14.47358 -14.47011
 Alpha  occ. eigenvalues --  -14.46287 -14.44208 -14.42548 -14.42513 -14.42498
 Alpha  occ. eigenvalues --  -14.42196 -14.41956 -14.41409 -14.40860 -14.40623
 Alpha  occ. eigenvalues --  -10.45628 -10.41483 -10.40309 -10.38415 -10.38232
 Alpha  occ. eigenvalues --  -10.37890 -10.36790 -10.35858 -10.35682 -10.35539
 Alpha  occ. eigenvalues --  -10.34606 -10.34468 -10.34125 -10.33900 -10.33585
 Alpha  occ. eigenvalues --  -10.33361 -10.33133 -10.31357 -10.31175 -10.31171
 Alpha  occ. eigenvalues --  -10.30831 -10.29076 -10.28291  -1.19545  -1.13913
 Alpha  occ. eigenvalues --   -1.13384  -1.13221  -1.11875  -1.10704  -1.09439
 Alpha  occ. eigenvalues --   -1.08869  -1.07543  -1.05457  -1.03116  -1.02637
 Alpha  occ. eigenvalues --   -1.00861  -1.00271  -0.99615  -0.98672  -0.97435
 Alpha  occ. eigenvalues --   -0.96652  -0.95147  -0.93089  -0.91153  -0.86312
 Alpha  occ. eigenvalues --   -0.84778  -0.84428  -0.84247  -0.83854  -0.82776
 Alpha  occ. eigenvalues --   -0.82562  -0.78991  -0.75554  -0.74781  -0.73981
 Alpha  occ. eigenvalues --   -0.73501  -0.73371  -0.73246  -0.71545  -0.68947
 Alpha  occ. eigenvalues --   -0.67675  -0.66750  -0.66682  -0.65284  -0.64601
 Alpha  occ. eigenvalues --   -0.63909  -0.63196  -0.62876  -0.62711  -0.62092
 Alpha  occ. eigenvalues --   -0.60597  -0.59756  -0.59642  -0.59140  -0.59091
 Alpha  occ. eigenvalues --   -0.58643  -0.58213  -0.56895  -0.56856  -0.56736
 Alpha  occ. eigenvalues --   -0.56127  -0.55772  -0.54735  -0.54527  -0.54083
 Alpha  occ. eigenvalues --   -0.53787  -0.53522  -0.53077  -0.52664  -0.52565
 Alpha  occ. eigenvalues --   -0.52183  -0.52074  -0.51503  -0.51227  -0.50622
 Alpha  occ. eigenvalues --   -0.50289  -0.49583  -0.49510  -0.48985  -0.48748
 Alpha  occ. eigenvalues --   -0.48590  -0.48392  -0.47915  -0.47617  -0.47469
 Alpha  occ. eigenvalues --   -0.47417  -0.45553  -0.45266  -0.44162  -0.43024
 Alpha  occ. eigenvalues --   -0.41666  -0.39589  -0.39310  -0.37682  -0.37539
 Alpha  occ. eigenvalues --   -0.37378  -0.36228  -0.36193  -0.35936  -0.34904
 Alpha  occ. eigenvalues --   -0.34015  -0.33976  -0.33398  -0.33009  -0.32896
 Alpha  occ. eigenvalues --   -0.32541  -0.32267  -0.32084  -0.31968  -0.31466
 Alpha  occ. eigenvalues --   -0.30802  -0.28404  -0.26252  -0.25581
 Alpha virt. eigenvalues --    0.02995   0.05350   0.07460   0.08259   0.08329
 Alpha virt. eigenvalues --    0.09342   0.09511   0.10454   0.11336   0.12285
 Alpha virt. eigenvalues --    0.12694   0.13580   0.14488   0.14618   0.15345
 Alpha virt. eigenvalues --    0.16068   0.16558   0.16580   0.16986   0.18241
 Alpha virt. eigenvalues --    0.18791   0.19390   0.19450   0.19945   0.20441
 Alpha virt. eigenvalues --    0.20651   0.20899   0.21277   0.21563   0.22387
 Alpha virt. eigenvalues --    0.22959   0.23285   0.23348   0.23584   0.23692
 Alpha virt. eigenvalues --    0.23835   0.24087   0.24126   0.25201   0.25597
 Alpha virt. eigenvalues --    0.26314   0.26839   0.27259   0.27468   0.27900
 Alpha virt. eigenvalues --    0.28853   0.29413   0.29651   0.30794   0.31014
 Alpha virt. eigenvalues --    0.31210   0.31557   0.32865   0.33090   0.33641
 Alpha virt. eigenvalues --    0.34059   0.34703   0.34985   0.35831   0.36714
 Alpha virt. eigenvalues --    0.36769   0.37685   0.38414   0.39505   0.39927
 Alpha virt. eigenvalues --    0.40243   0.40827   0.41261   0.41398   0.41691
 Alpha virt. eigenvalues --    0.42156   0.42864   0.43577   0.43794   0.44420
 Alpha virt. eigenvalues --    0.45225   0.45380   0.45880   0.46158   0.46737
 Alpha virt. eigenvalues --    0.47534   0.48094   0.48746   0.49225   0.49441
 Alpha virt. eigenvalues --    0.49784   0.50095   0.50569   0.50874   0.51184
 Alpha virt. eigenvalues --    0.51998   0.52236   0.52369   0.52751   0.53326
 Alpha virt. eigenvalues --    0.53921   0.54167   0.54750   0.55176   0.55192
 Alpha virt. eigenvalues --    0.55606   0.56283   0.56747   0.57128   0.57400
 Alpha virt. eigenvalues --    0.57630   0.58363   0.58880   0.59329   0.59565
 Alpha virt. eigenvalues --    0.59879   0.60267   0.60690   0.60906   0.61490
 Alpha virt. eigenvalues --    0.61805   0.61919   0.62291   0.62837   0.63606
 Alpha virt. eigenvalues --    0.63963   0.64374   0.64880   0.65051   0.65149
 Alpha virt. eigenvalues --    0.65570   0.65876   0.66291   0.66748   0.67217
 Alpha virt. eigenvalues --    0.67277   0.67673   0.68460   0.68782   0.68903
 Alpha virt. eigenvalues --    0.69545   0.69938   0.70362   0.70755   0.70994
 Alpha virt. eigenvalues --    0.71402   0.72191   0.72379   0.73030   0.73475
 Alpha virt. eigenvalues --    0.74116   0.74174   0.74633   0.75111   0.75379
 Alpha virt. eigenvalues --    0.75797   0.76092   0.76326   0.76389   0.76753
 Alpha virt. eigenvalues --    0.77280   0.77867   0.78146   0.78208   0.78911
 Alpha virt. eigenvalues --    0.79253   0.79890   0.80161   0.80242   0.80454
 Alpha virt. eigenvalues --    0.81086   0.81784   0.82366   0.82590   0.83257
 Alpha virt. eigenvalues --    0.83434   0.83677   0.84444   0.84649   0.85235
 Alpha virt. eigenvalues --    0.85609   0.85861   0.86334   0.87283   0.87740
 Alpha virt. eigenvalues --    0.88275   0.88358   0.88450   0.89436   0.90008
 Alpha virt. eigenvalues --    0.90832   0.90922   0.91229   0.91830   0.91871
 Alpha virt. eigenvalues --    0.92245   0.92838   0.92945   0.93720   0.93988
 Alpha virt. eigenvalues --    0.94785   0.95408   0.95607   0.96397   0.96600
 Alpha virt. eigenvalues --    0.97143   0.97556   0.97791   0.98053   0.98406
 Alpha virt. eigenvalues --    0.98897   0.99642   1.00267   1.00663   1.01796
 Alpha virt. eigenvalues --    1.02028   1.02165   1.02399   1.02930   1.03445
 Alpha virt. eigenvalues --    1.03737   1.03794   1.04356   1.04948   1.05286
 Alpha virt. eigenvalues --    1.05660   1.05864   1.06469   1.07569   1.08158
 Alpha virt. eigenvalues --    1.08242   1.08998   1.09663   1.10575   1.10676
 Alpha virt. eigenvalues --    1.11432   1.12073   1.12435   1.12718   1.13159
 Alpha virt. eigenvalues --    1.13907   1.14394   1.14665   1.14874   1.15295
 Alpha virt. eigenvalues --    1.15953   1.16485   1.17095   1.17281   1.17818
 Alpha virt. eigenvalues --    1.17983   1.18261   1.18747   1.19092   1.19551
 Alpha virt. eigenvalues --    1.19954   1.20557   1.20895   1.21231   1.21280
 Alpha virt. eigenvalues --    1.22044   1.22137   1.22383   1.22701   1.22988
 Alpha virt. eigenvalues --    1.23382   1.24018   1.24243   1.24719   1.25319
 Alpha virt. eigenvalues --    1.25837   1.26288   1.26334   1.27618   1.28368
 Alpha virt. eigenvalues --    1.28622   1.29410   1.29993   1.30148   1.31215
 Alpha virt. eigenvalues --    1.31983   1.32243   1.33140   1.33847   1.34277
 Alpha virt. eigenvalues --    1.34997   1.35236   1.35413   1.36505   1.37158
 Alpha virt. eigenvalues --    1.38041   1.38486   1.39097   1.39286   1.40039
 Alpha virt. eigenvalues --    1.41158   1.42871   1.43302   1.44346   1.44922
 Alpha virt. eigenvalues --    1.45068   1.45854   1.47465   1.47936   1.48099
 Alpha virt. eigenvalues --    1.48628   1.48707   1.49303   1.49976   1.50746
 Alpha virt. eigenvalues --    1.51430   1.51897   1.52741   1.53136   1.54340
 Alpha virt. eigenvalues --    1.55330   1.55731   1.56264   1.57547   1.57842
 Alpha virt. eigenvalues --    1.58765   1.59089   1.59596   1.60683   1.60971
 Alpha virt. eigenvalues --    1.61521   1.62008   1.62414   1.62861   1.63794
 Alpha virt. eigenvalues --    1.64379   1.65181   1.65822   1.66749   1.66754
 Alpha virt. eigenvalues --    1.67546   1.67730   1.68189   1.68688   1.69165
 Alpha virt. eigenvalues --    1.69767   1.70274   1.70435   1.70680   1.70967
 Alpha virt. eigenvalues --    1.71827   1.71899   1.72466   1.73181   1.73226
 Alpha virt. eigenvalues --    1.74288   1.74619   1.74651   1.74969   1.75360
 Alpha virt. eigenvalues --    1.75568   1.75826   1.75845   1.76632   1.77141
 Alpha virt. eigenvalues --    1.77440   1.77673   1.78230   1.79096   1.79405
 Alpha virt. eigenvalues --    1.79602   1.79806   1.80147   1.80201   1.80555
 Alpha virt. eigenvalues --    1.80700   1.81473   1.81614   1.82003   1.82281
 Alpha virt. eigenvalues --    1.82733   1.82830   1.83259   1.84034   1.84978
 Alpha virt. eigenvalues --    1.85345   1.85988   1.86067   1.86794   1.87105
 Alpha virt. eigenvalues --    1.87694   1.87898   1.88142   1.88484   1.88646
 Alpha virt. eigenvalues --    1.88939   1.89227   1.90145   1.90521   1.91232
 Alpha virt. eigenvalues --    1.92140   1.92422   1.93012   1.93563   1.93671
 Alpha virt. eigenvalues --    1.94366   1.94629   1.95380   1.96327   1.96876
 Alpha virt. eigenvalues --    1.98648   1.99173   1.99618   2.00147   2.01080
 Alpha virt. eigenvalues --    2.01701   2.02479   2.02911   2.04156   2.04594
 Alpha virt. eigenvalues --    2.04718   2.05842   2.06090   2.06726   2.07215
 Alpha virt. eigenvalues --    2.07868   2.08158   2.08698   2.09132   2.09934
 Alpha virt. eigenvalues --    2.10446   2.10602   2.11318   2.12491   2.13041
 Alpha virt. eigenvalues --    2.13690   2.13895   2.15005   2.16347   2.18150
 Alpha virt. eigenvalues --    2.18802   2.19391   2.19939   2.20327   2.20879
 Alpha virt. eigenvalues --    2.21533   2.22157   2.22775   2.23261   2.23709
 Alpha virt. eigenvalues --    2.24364   2.25337   2.25808   2.26229   2.27307
 Alpha virt. eigenvalues --    2.27646   2.28539   2.28923   2.29072   2.29210
 Alpha virt. eigenvalues --    2.29781   2.30839   2.30958   2.32115   2.32515
 Alpha virt. eigenvalues --    2.33670   2.33804   2.34339   2.34396   2.34800
 Alpha virt. eigenvalues --    2.34880   2.35470   2.36420   2.36528   2.37461
 Alpha virt. eigenvalues --    2.38148   2.39550   2.40145   2.41144   2.41415
 Alpha virt. eigenvalues --    2.41768   2.42350   2.42963   2.43193   2.44180
 Alpha virt. eigenvalues --    2.45378   2.45436   2.45637   2.46096   2.46906
 Alpha virt. eigenvalues --    2.47463   2.48529   2.49122   2.50210   2.51613
 Alpha virt. eigenvalues --    2.52421   2.53261   2.54395   2.54550   2.56181
 Alpha virt. eigenvalues --    2.56522   2.56853   2.57138   2.58861   2.59799
 Alpha virt. eigenvalues --    2.60262   2.60847   2.61673   2.62409   2.63102
 Alpha virt. eigenvalues --    2.64422   2.64503   2.64982   2.65262   2.66305
 Alpha virt. eigenvalues --    2.67329   2.67821   2.68305   2.68514   2.69336
 Alpha virt. eigenvalues --    2.70345   2.70886   2.71074   2.71863   2.72609
 Alpha virt. eigenvalues --    2.73708   2.74116   2.74668   2.75135   2.75822
 Alpha virt. eigenvalues --    2.77881   2.78988   2.79182   2.79537   2.79650
 Alpha virt. eigenvalues --    2.79787   2.80179   2.80647   2.81355   2.81631
 Alpha virt. eigenvalues --    2.81971   2.82396   2.82529   2.83346   2.83887
 Alpha virt. eigenvalues --    2.84777   2.85816   2.86582   2.86769   2.86891
 Alpha virt. eigenvalues --    2.87531   2.88243   2.88981   2.91018   2.91581
 Alpha virt. eigenvalues --    2.94023   2.96331   2.97175   2.97972   2.98882
 Alpha virt. eigenvalues --    2.99678   3.01588   3.02427   3.04374   3.05911
 Alpha virt. eigenvalues --    3.06675   3.09504   3.10606   3.14077   3.14489
 Alpha virt. eigenvalues --    3.14947   3.15310   3.15888   3.17601   3.20434
 Alpha virt. eigenvalues --    3.22030   3.22737   3.23306   3.23681   3.26343
 Alpha virt. eigenvalues --    3.46378   3.46897   3.47620   3.49764   3.50852
 Alpha virt. eigenvalues --    3.53010   3.53765   3.56166   3.57775   3.59844
 Alpha virt. eigenvalues --    3.62494   3.71107   3.74389
          Condensed to atoms (all electrons):
 Mulliken charges:
               1
     1  N   -0.310987
     2  C    0.180785
     3  C    0.031424
     4  N   -0.258036
     5  C    0.133565
     6  H    0.028092
     7  N   -0.286760
     8  C    0.124289
     9  H    0.013498
    10  N   -0.287955
    11  C    0.238625
    12  C    0.117378
    13  N   -0.049623
    14  H    0.107935
    15  H    0.089002
    16  H    0.026704
    17  H    0.035302
    18  H    0.026145
    19  N   -0.307501
    20  C    0.239241
    21  C    0.181383
    22  N   -0.118548
    23  H    0.116076
    24  H    0.117082
    25  N   -0.292099
    26  C    0.229026
    27  N   -0.121786
    28  H    0.117956
    29  C    0.155986
    30  O   -0.321754
    31  C   -0.007385
    32  N   -0.220971
    33  C    0.131680
    34  H    0.030647
    35  H    0.030886
    36  H    0.027928
    37  H    0.024421
    38  H    0.059927
    39  H    0.061104
    40  H    0.071480
    41  H    0.031445
    42  C   -0.110531
    43  O   -0.272165
    44  C    0.169531
    45  H    0.135783
    46  N   -0.134784
    47  O   -0.353756
    48  C    0.366886
    49  H    0.048253
    50  C    0.177865
    51  C    0.041475
    52  N   -0.295344
    53  H    0.032579
    54  H    0.042599
    55  H    0.008738
    56  H    0.122185
    57  H    0.117344
    58  N   -0.052149
    59  C    0.112627
    60  C    0.233223
    61  N   -0.260259
    62  H    0.046347
    63  C    0.149016
    64  N   -0.298916
    65  H    0.025750
    66  C    0.129872
    67  N   -0.265483
    68  C    0.019691
    69  C    0.175438
    70  N   -0.307425
 Sum of Mulliken charges =  -0.00000
 Mulliken charges with hydrogens summed into heavy atoms:
               1
     1  N   -0.310987
     2  C    0.268936
     3  C    0.031424
     4  N   -0.258036
     5  C    0.161657
     7  N   -0.286760
     8  C    0.137788
    10  N   -0.287955
    11  C    0.238625
    12  C    0.117378
    13  N    0.147314
    19  N   -0.307501
    20  C    0.239241
    21  C    0.264619
    22  N    0.114611
    25  N   -0.292099
    26  C    0.229026
    27  N   -0.003829
    29  C    0.155986
    30  O   -0.321754
    31  C   -0.007385
    32  N   -0.220971
    33  C    0.162327
    42  C   -0.079086
    43  O   -0.272165
    44  C    0.169531
    46  N    0.000999
    47  O   -0.353756
    48  C    0.366886
    50  C    0.226118
    51  C    0.233985
    52  N   -0.295344
    58  N    0.187380
    59  C    0.112627
    60  C    0.233223
    61  N   -0.260259
    63  C    0.195363
    64  N   -0.298916
    66  C    0.155622
    67  N   -0.265483
    68  C    0.019691
    69  C    0.259354
    70  N   -0.307425
 Electronic spatial extent (au):  <R**2>=          24632.2761
 Charge=              0.0000 electrons
 Dipole moment (field-independent basis, Debye):
    X=              7.2885    Y=              5.8439    Z=              2.3467  Tot=              9.6323
 Quadrupole moment (field-independent basis, Debye-Ang):
   XX=           -141.3060   YY=           -223.1128   ZZ=           -251.4057
   XY=              8.6478   XZ=             15.8249   YZ=             -7.4812
 Traceless Quadrupole moment (field-independent basis, Debye-Ang):
   XX=             63.9688   YY=            -17.8379   ZZ=            -46.1309
   XY=              8.6478   XZ=             15.8249   YZ=             -7.4812
 Octapole moment (field-independent basis, Debye-Ang**2):
  XXX=             54.0873  YYY=            113.4030  ZZZ=              5.9220  XYY=             57.3072
  XXY=            -51.4076  XXZ=            -68.8621  XZZ=             20.5073  YZZ=             40.5140
  YYZ=             44.0027  XYZ=             40.7869
 Hexadecapole moment (field-independent basis, Debye-Ang**3):
 XXXX=         -16286.1168 YYYY=          -5539.1200 ZZZZ=          -3115.9778 XXXY=            428.4969
 XXXZ=            303.3356 YYYX=             68.7287 YYYZ=           -103.7435 ZZZX=             72.0580
 ZZZY=             49.9321 XXYY=          -4346.8378 XXZZ=          -4407.0563 YYZZ=          -1457.1463
 XXYZ=             88.6083 YYXZ=            211.4492 ZZXY=             65.5180
 N-N= 5.422709181561D+03 E-N=-1.562638855763D+04  KE= 2.037721775657D+03
 No NMR shielding tensors so no spin-rotation constants.
 Leave Link  601 at Tue Jan 23 12:38:56 2018, MaxMem=  4294967296 cpu:              47.8 elap:               1.7
 (Enter /share/apps/g16/l9999.exe)
 1\1\GINC-COMPUTE-0-3\SP\RwB97XD\CC-pVDZ\C23H27N17O3\SATYA\23-Jan-2018\
 0\\#p wb97xd/cc-pvdz sp scf=(maxcycles=20)\\Base pair stacking\\0,1\N,
 0,8.87328,5.73911,-5.83455\C,0,9.81066,6.87405,-5.94054\C,0,7.05491,4.
 50185,-5.83287\N,0,8.10198,3.65331,-5.50373\C,0,9.15558,4.43267,-5.517
 92\H,0,10.1728,4.10403,-5.30299\N,0,4.90684,5.34619,-6.31852\C,0,5.495
 35,6.53499,-6.48578\H,0,4.82626,7.35144,-6.75409\N,0,6.78024,6.86513,-
 6.3719\C,0,7.51488,5.79072,-6.03967\C,0,5.67328,4.285,-5.98454\N,0,5.0
 8765,3.09749,-5.81714\H,0,5.61605,2.2846,-5.5697\H,0,4.10132,2.97995,-
 5.9333\H,0,10.49455,6.67875,-6.64363\H,0,9.307,7.70137,-6.1875\H,0,10.
 2684,7.01412,-5.06255\N,0,3.0045,6.8553,-3.19629\C,0,1.92103,6.01226,-
 3.25479\C,0,2.95188,8.32421,-3.33862\N,0,-1.49648,5.52879,-3.64029\H,0
 ,-2.13636,4.76087,-3.64989\H,0,-1.88196,6.44227,-3.7732\N,0,0.63665,6.
 38117,-3.45054\C,0,-0.18045,5.34294,-3.45747\N,0,0.22707,4.04216,-3.28
 6\H,0,-0.46779,3.31158,-3.30597\C,0,1.54332,3.63943,-3.08312\O,0,1.804
 7,2.43871,-2.93929\C,0,2.43277,4.74381,-3.07319\N,0,3.8098,4.78961,-2.
 90409\C,0,4.10348,6.05906,-2.9844\H,0,5.10953,6.47049,-2.89578\H,0,3.5
 0731,8.6051,-4.12054\H,0,2.00536,8.60916,-3.48408\H,0,3.30435,8.75406,
 -2.50807\H,0,-4.31497,0.096,-4.14974\H,0,-4.37025,0.02768,-2.38993\H,0
 ,-3.85999,1.51001,-3.19845\H,0,-0.62545,-2.86274,-3.26661\C,0,-0.85533
 ,-1.79774,-3.23248\O,0,1.41667,-1.12275,-3.13492\C,0,0.21635,-0.85203,
 -3.16211\H,0,0.54503,1.166,-3.07344\N,0,-0.18404,0.46837,-3.12343\O,0,
 -1.72705,2.13451,-3.10721\C,0,-1.47129,0.9438,-3.1454\H,0,-2.97193,-2.
 04278,-3.30848\C,0,-2.12123,-1.36465,-3.25544\C,0,-3.83997,0.43111,-3.
 23971\N,0,-2.44888,-0.02925,-3.21388\H,0,-2.90639,5.01039,-7.55264\H,0
 ,-1.86167,5.73337,-6.52894\H,0,-3.18219,4.97259,-5.94456\H,0,2.63189,0
 .36265,-5.88184\H,0,1.03582,-0.16748,-6.16751\N,0,1.67213,0.59431,-6.0
 4102\C,0,1.25815,1.86239,-6.08293\C,0,-0.35448,3.59593,-6.31959\N,0,0.
 52241,4.59865,-6.14636\H,0,2.52406,4.86714,-5.79718\C,0,1.74801,4.1178
 3,-5.94733\N,0,2.16467,2.84811,-5.905\H,0,-3.22021,2.19379,-6.84281\C,
 0,-2.16765,2.4099,-6.65748\N,0,-1.23361,1.50114,-6.51822\C,0,-0.07899,
 2.23969,-6.30344\C,0,-2.47552,4.95416,-6.65198\N,0,-1.70608,3.69903,-6
 .54886\\Version=EM64L-G16RevA.03\State=1-A\HF=-2048.7437032\RMSD=6.117
 e-09\Dipole=-3.7063301,0.6538118,-0.4438167\Quadrupole=40.0300307,-4.5
 194131,-35.5106176,22.9139368,-3.3671433,6.2791301\PG=C01 [X(C23H27N17
 O3)]\\@


 IT'S WHAT A FELLER THINKS HE KNOWS THAT HURTS HIM...
                    ------
           KIN HUBBARD
 Job cpu time:       0 days  5 hours 47 minutes 13.9 seconds.
 Elapsed time:       0 days  0 hours 11 minutes 13.5 seconds.
 File lengths (MBytes):  RWF=    298 Int=      0 D2E=      0 Chk=     33 Scr=      1
 Normal termination of Gaussian 16 at Tue Jan 23 12:38:56 2018.
