 Entering Gaussian System, Link 0=g16
 Input=str40.20.0.5.com
 Output=str40.20.0.5.log
 Initial command:
 /share/apps/g16/l1.exe "/state/partition1/scr/Gau-19461.inp" -scrdir="/state/partition1/scr/"
 Entering Link 1 = /share/apps/g16/l1.exe PID=     19462.
  
 Copyright (c) 1988,1990,1992,1993,1995,1998,2003,2009,2016,
            Gaussian, Inc.  All Rights Reserved.
  
 This is part of the Gaussian(R) 16 program.  It is based on
 the Gaussian(R) 09 system (copyright 2009, Gaussian, Inc.),
 the Gaussian(R) 03 system (copyright 2003, Gaussian, Inc.),
 the Gaussian(R) 98 system (copyright 1998, Gaussian, Inc.),
 the Gaussian(R) 94 system (copyright 1995, Gaussian, Inc.),
 the Gaussian 92(TM) system (copyright 1992, Gaussian, Inc.),
 the Gaussian 90(TM) system (copyright 1990, Gaussian, Inc.),
 the Gaussian 88(TM) system (copyright 1988, Gaussian, Inc.),
 the Gaussian 86(TM) system (copyright 1986, Carnegie Mellon
 University), and the Gaussian 82(TM) system (copyright 1983,
 Carnegie Mellon University). Gaussian is a federally registered
 trademark of Gaussian, Inc.
  
 This software contains proprietary and confidential information,
 including trade secrets, belonging to Gaussian, Inc.
  
 This software is provided under written license and may be
 used, copied, transmitted, or stored only in accord with that
 written license.
  
 The following legend is applicable only to US Government
 contracts under FAR:
  
                    RESTRICTED RIGHTS LEGEND
  
 Use, reproduction and disclosure by the US Government is
 subject to restrictions as set forth in subparagraphs (a)
 and (c) of the Commercial Computer Software - Restricted
 Rights clause in FAR 52.227-19.
  
 Gaussian, Inc.
 340 Quinnipiac St., Bldg. 40, Wallingford CT 06492
  
  
 ---------------------------------------------------------------
 Warning -- This program may not be used in any manner that
 competes with the business of Gaussian, Inc. or will provide
 assistance to any competitor of Gaussian, Inc.  The licensee
 of this program is prohibited from giving any competitor of
 Gaussian, Inc. access to this program.  By using this program,
 the user acknowledges that Gaussian, Inc. is engaged in the
 business of creating and licensing software in the field of
 computational chemistry and represents and warrants to the
 licensee that it is not a competitor of Gaussian, Inc. and that
 it will not use this program in any manner prohibited above.
 ---------------------------------------------------------------
  

 Cite this work as:
 Gaussian 16, Revision A.03,
 M. J. Frisch, G. W. Trucks, H. B. Schlegel, G. E. Scuseria, 
 M. A. Robb, J. R. Cheeseman, G. Scalmani, V. Barone, 
 G. A. Petersson, H. Nakatsuji, X. Li, M. Caricato, A. V. Marenich, 
 J. Bloino, B. G. Janesko, R. Gomperts, B. Mennucci, H. P. Hratchian, 
 J. V. Ortiz, A. F. Izmaylov, J. L. Sonnenberg, D. Williams-Young, 
 F. Ding, F. Lipparini, F. Egidi, J. Goings, B. Peng, A. Petrone, 
 T. Henderson, D. Ranasinghe, V. G. Zakrzewski, J. Gao, N. Rega, 
 G. Zheng, W. Liang, M. Hada, M. Ehara, K. Toyota, R. Fukuda, 
 J. Hasegawa, M. Ishida, T. Nakajima, Y. Honda, O. Kitao, H. Nakai, 
 T. Vreven, K. Throssell, J. A. Montgomery, Jr., J. E. Peralta, 
 F. Ogliaro, M. J. Bearpark, J. J. Heyd, E. N. Brothers, K. N. Kudin, 
 V. N. Staroverov, T. A. Keith, R. Kobayashi, J. Normand, 
 K. Raghavachari, A. P. Rendell, J. C. Burant, S. S. Iyengar, 
 J. Tomasi, M. Cossi, J. M. Millam, M. Klene, C. Adamo, R. Cammi, 
 J. W. Ochterski, R. L. Martin, K. Morokuma, O. Farkas, 
 J. B. Foresman, and D. J. Fox, Gaussian, Inc., Wallingford CT, 2016.
 
 ******************************************
 Gaussian 16:  EM64L-G16RevA.03 25-Dec-2016
                23-Jan-2018 
 ******************************************
 %nprocshared=32
 Will use up to   32 processors via shared memory.
 %mem=32GB
 %chk=allatoms_t.chk
 ---------------------------------------
 #p wb97xd/cc-pvdz sp scf=(maxcycles=20)
 ---------------------------------------
 1/38=1,172=1/1;
 2/12=2,17=6,18=5,40=1/2;
 3/5=16,11=2,25=1,30=1,74=-58/1,2,3;
 4//1;
 5/5=2,7=20,38=5/2;
 6/7=2,8=2,9=2,10=2,28=1/1;
 99/5=1,9=1/99;
 Leave Link    1 at Tue Jan 23 05:28:40 2018, MaxMem=  4294967296 cpu:               2.7 elap:               0.1
 (Enter /share/apps/g16/l101.exe)
 ------------------
 Base pair stacking
 ------------------
 Symbolic Z-matrix:
 Charge =  0 Multiplicity = 1
 N                     6.49849   0.89228  -4.58256 
 C                     7.52573   1.94896  -4.66142 
 C                     4.67031  -0.29457  -4.8766 
 N                     5.45674  -1.008    -3.98369 
 C                     6.52668  -0.26441  -3.84228 
 H                     7.37524  -0.51391  -3.20461 
 N                     2.90404   0.36683  -6.29285 
 C                     3.63021   1.45642  -6.56313 
 H                     3.17446   2.15769  -7.26082 
 N                     4.8292    1.80815  -6.10313 
 C                     5.29924   0.87892  -5.25459 
 C                     3.40462  -0.54918  -5.43528 
 N                     2.68123  -1.63748  -5.16422 
 H                     3.01247  -2.34173  -4.53531 
 H                     1.78402  -1.78589  -5.58032 
 H                     8.38222   1.55855  -4.99932 
 H                     7.21894   2.6672   -5.28522 
 H                     7.67507   2.33998  -3.75324 
 N                     2.44446   4.02395  -3.12317 
 C                     1.38738   3.17843  -3.35921 
 C                     2.45334   5.47567  -3.39362 
 N                    -1.86014   2.66254  -4.47691 
 H                    -2.49521   1.89621  -4.56999 
 H                    -2.18784   3.56143  -4.76902 
 N                     0.18884   3.52893  -3.87371 
 C                    -0.62441   2.49338  -3.98268 
 N                    -0.29134   1.21182  -3.61639 
 H                    -0.97685   0.4818   -3.73519 
 C                     0.93595   0.82823  -3.08489 
 O                     1.13496  -0.35602  -2.7871 
 C                     1.82018   1.92999  -2.96185 
 N                     3.12277   1.99053  -2.48593 
 C                     3.45081   3.24889  -2.6005 
 H                     4.41755   3.66682  -2.31764 
 H                     3.17789   5.69012  -4.04771 
 H                     1.5706    5.7469   -3.77503 
 H                     2.61475   5.97399  -2.54248 
 H                    -4.5892   -2.79527  -5.17202 
 H                    -5.04634  -2.71546  -3.47223 
 H                    -4.33712  -1.30608  -4.2609 
 H                    -1.25525  -5.66745  -3.22731 
 C                    -1.4668   -4.60346  -3.33416 
 O                     0.73508  -3.92152  -2.77401 
 C                    -0.42198  -3.65464  -3.09771 
 H                    -0.08442  -1.63614  -3.1017 
 N                    -0.79575  -2.33587  -3.26015 
 O                    -2.27009  -0.67503  -3.73463 
 C                    -2.03478  -1.86461  -3.6155 
 H                    -3.51428  -4.85509  -3.87298 
 C                    -2.68562  -4.17448  -3.68209 
 C                    -4.32847  -2.38462  -4.20794 
 N                    -2.98896  -2.84048  -3.82629 
 H                    -4.03877  -0.33097  -10.03354 
 H                    -3.32986   0.66138  -8.94967 
 H                    -4.83876   0.1013   -8.67833 
 H                     0.12837  -4.27751  -5.3298 
 H                    -1.32477  -4.87132  -5.99754 
 N                    -0.69468  -4.1044   -5.87088 
 C                    -0.94197  -2.90456  -6.4004 
 C                    -2.20092  -1.31887  -7.65033 
 N                    -1.33695  -0.30734  -7.46384 
 H                     0.4489    0.05558  -6.52593 
 C                    -0.30298  -0.7066   -6.72599 
 N                    -0.05349  -1.90788  -6.19471 
 H                    -4.85154  -2.81875  -8.7351 
 C                    -3.90555  -2.55574  -8.2609 
 N                    -3.16757  -3.38238  -7.5611 
 C                    -2.08361  -2.61083  -7.16806 
 C                    -3.94179  -0.12115  -9.06063 
 N                    -3.38057  -1.28999  -8.35574 
 
 ITRead=  0  0  0  0  0  0  0  0  0  0  0  0  0  0  0  0  0  0  0  0
 ITRead=  0  0  0  0  0  0  0  0  0  0  0  0  0  0  0  0  0  0  0  0
 ITRead=  0  0  0  0  0  0  0  0  0  0  0  0  0  0  0  0  0  0  0  0
 ITRead=  0  0  0  0  0  0  0  0  0  0
 MicOpt= -1 -1 -1 -1 -1 -1 -1 -1 -1 -1 -1 -1 -1 -1 -1 -1 -1 -1 -1 -1
 MicOpt= -1 -1 -1 -1 -1 -1 -1 -1 -1 -1 -1 -1 -1 -1 -1 -1 -1 -1 -1 -1
 MicOpt= -1 -1 -1 -1 -1 -1 -1 -1 -1 -1 -1 -1 -1 -1 -1 -1 -1 -1 -1 -1
 MicOpt= -1 -1 -1 -1 -1 -1 -1 -1 -1 -1
 NAtoms=     70 NQM=       70 NQMF=       0 NMMI=      0 NMMIF=      0
                NMic=       0 NMicF=      0.
                    Isotopes and Nuclear Properties:
 (Nuclear quadrupole moments (NQMom) in fm**2, nuclear magnetic moments (NMagM)
  in nuclear magnetons)

  Atom         1           2           3           4           5           6           7           8           9          10
 IAtWgt=          14          12          12          14          12           1          14          12           1          14
 AtmWgt=  14.0030740  12.0000000  12.0000000  14.0030740  12.0000000   1.0078250  14.0030740  12.0000000   1.0078250  14.0030740
 NucSpn=           2           0           0           2           0           1           2           0           1           2
 AtZEff=  -0.0000000  -0.0000000  -0.0000000  -0.0000000  -0.0000000  -0.0000000  -0.0000000  -0.0000000  -0.0000000  -0.0000000
 NQMom=    2.0440000   0.0000000   0.0000000   2.0440000   0.0000000   0.0000000   2.0440000   0.0000000   0.0000000   2.0440000
 NMagM=    0.4037610   0.0000000   0.0000000   0.4037610   0.0000000   2.7928460   0.4037610   0.0000000   2.7928460   0.4037610
 AtZNuc=   7.0000000   6.0000000   6.0000000   7.0000000   6.0000000   1.0000000   7.0000000   6.0000000   1.0000000   7.0000000

  Atom        11          12          13          14          15          16          17          18          19          20
 IAtWgt=          12          12          14           1           1           1           1           1          14          12
 AtmWgt=  12.0000000  12.0000000  14.0030740   1.0078250   1.0078250   1.0078250   1.0078250   1.0078250  14.0030740  12.0000000
 NucSpn=           0           0           2           1           1           1           1           1           2           0
 AtZEff=  -0.0000000  -0.0000000  -0.0000000  -0.0000000  -0.0000000  -0.0000000  -0.0000000  -0.0000000  -0.0000000  -0.0000000
 NQMom=    0.0000000   0.0000000   2.0440000   0.0000000   0.0000000   0.0000000   0.0000000   0.0000000   2.0440000   0.0000000
 NMagM=    0.0000000   0.0000000   0.4037610   2.7928460   2.7928460   2.7928460   2.7928460   2.7928460   0.4037610   0.0000000
 AtZNuc=   6.0000000   6.0000000   7.0000000   1.0000000   1.0000000   1.0000000   1.0000000   1.0000000   7.0000000   6.0000000

  Atom        21          22          23          24          25          26          27          28          29          30
 IAtWgt=          12          14           1           1          14          12          14           1          12          16
 AtmWgt=  12.0000000  14.0030740   1.0078250   1.0078250  14.0030740  12.0000000  14.0030740   1.0078250  12.0000000  15.9949146
 NucSpn=           0           2           1           1           2           0           2           1           0           0
 AtZEff=  -0.0000000  -0.0000000  -0.0000000  -0.0000000  -0.0000000  -0.0000000  -0.0000000  -0.0000000  -0.0000000  -0.0000000
 NQMom=    0.0000000   2.0440000   0.0000000   0.0000000   2.0440000   0.0000000   2.0440000   0.0000000   0.0000000   0.0000000
 NMagM=    0.0000000   0.4037610   2.7928460   2.7928460   0.4037610   0.0000000   0.4037610   2.7928460   0.0000000   0.0000000
 AtZNuc=   6.0000000   7.0000000   1.0000000   1.0000000   7.0000000   6.0000000   7.0000000   1.0000000   6.0000000   8.0000000

  Atom        31          32          33          34          35          36          37          38          39          40
 IAtWgt=          12          14          12           1           1           1           1           1           1           1
 AtmWgt=  12.0000000  14.0030740  12.0000000   1.0078250   1.0078250   1.0078250   1.0078250   1.0078250   1.0078250   1.0078250
 NucSpn=           0           2           0           1           1           1           1           1           1           1
 AtZEff=  -0.0000000  -0.0000000  -0.0000000  -0.0000000  -0.0000000  -0.0000000  -0.0000000  -0.0000000  -0.0000000  -0.0000000
 NQMom=    0.0000000   2.0440000   0.0000000   0.0000000   0.0000000   0.0000000   0.0000000   0.0000000   0.0000000   0.0000000
 NMagM=    0.0000000   0.4037610   0.0000000   2.7928460   2.7928460   2.7928460   2.7928460   2.7928460   2.7928460   2.7928460
 AtZNuc=   6.0000000   7.0000000   6.0000000   1.0000000   1.0000000   1.0000000   1.0000000   1.0000000   1.0000000   1.0000000

  Atom        41          42          43          44          45          46          47          48          49          50
 IAtWgt=           1          12          16          12           1          14          16          12           1          12
 AtmWgt=   1.0078250  12.0000000  15.9949146  12.0000000   1.0078250  14.0030740  15.9949146  12.0000000   1.0078250  12.0000000
 NucSpn=           1           0           0           0           1           2           0           0           1           0
 AtZEff=  -0.0000000  -0.0000000  -0.0000000  -0.0000000  -0.0000000  -0.0000000  -0.0000000  -0.0000000  -0.0000000  -0.0000000
 NQMom=    0.0000000   0.0000000   0.0000000   0.0000000   0.0000000   2.0440000   0.0000000   0.0000000   0.0000000   0.0000000
 NMagM=    2.7928460   0.0000000   0.0000000   0.0000000   2.7928460   0.4037610   0.0000000   0.0000000   2.7928460   0.0000000
 AtZNuc=   1.0000000   6.0000000   8.0000000   6.0000000   1.0000000   7.0000000   8.0000000   6.0000000   1.0000000   6.0000000

  Atom        51          52          53          54          55          56          57          58          59          60
 IAtWgt=          12          14           1           1           1           1           1          14          12          12
 AtmWgt=  12.0000000  14.0030740   1.0078250   1.0078250   1.0078250   1.0078250   1.0078250  14.0030740  12.0000000  12.0000000
 NucSpn=           0           2           1           1           1           1           1           2           0           0
 AtZEff=  -0.0000000  -0.0000000  -0.0000000  -0.0000000  -0.0000000  -0.0000000  -0.0000000  -0.0000000  -0.0000000  -0.0000000
 NQMom=    0.0000000   2.0440000   0.0000000   0.0000000   0.0000000   0.0000000   0.0000000   2.0440000   0.0000000   0.0000000
 NMagM=    0.0000000   0.4037610   2.7928460   2.7928460   2.7928460   2.7928460   2.7928460   0.4037610   0.0000000   0.0000000
 AtZNuc=   6.0000000   7.0000000   1.0000000   1.0000000   1.0000000   1.0000000   1.0000000   7.0000000   6.0000000   6.0000000

  Atom        61          62          63          64          65          66          67          68          69          70
 IAtWgt=          14           1          12          14           1          12          14          12          12          14
 AtmWgt=  14.0030740   1.0078250  12.0000000  14.0030740   1.0078250  12.0000000  14.0030740  12.0000000  12.0000000  14.0030740
 NucSpn=           2           1           0           2           1           0           2           0           0           2
 AtZEff=  -0.0000000  -0.0000000  -0.0000000  -0.0000000  -0.0000000  -0.0000000  -0.0000000  -0.0000000  -0.0000000  -0.0000000
 NQMom=    2.0440000   0.0000000   0.0000000   2.0440000   0.0000000   0.0000000   2.0440000   0.0000000   0.0000000   2.0440000
 NMagM=    0.4037610   2.7928460   0.0000000   0.4037610   2.7928460   0.0000000   0.4037610   0.0000000   0.0000000   0.4037610
 AtZNuc=   7.0000000   1.0000000   6.0000000   7.0000000   1.0000000   6.0000000   7.0000000   6.0000000   6.0000000   7.0000000
 Leave Link  101 at Tue Jan 23 05:28:40 2018, MaxMem=  4294967296 cpu:               7.6 elap:               0.3
 (Enter /share/apps/g16/l202.exe)
 Stoichiometry    C23H27N17O3
 Framework group  C1[X(C23H27N17O3)]
 Deg. of freedom   204
 Full point group                 C1      NOp   1
 Largest Abelian subgroup         C1      NOp   1
 Largest concise Abelian subgroup C1      NOp   1
                         Standard orientation:                         
 ---------------------------------------------------------------------
 Center     Atomic      Atomic             Coordinates (Angstroms)
 Number     Number       Type             X           Y           Z
 ---------------------------------------------------------------------
      1          7           0       -5.556564   -1.979555    1.026257
      2          6           0       -6.935796   -1.593693    1.382406
      3          6           0       -3.364547   -2.047728    0.859735
      4          7           0       -3.844163   -3.109739    0.106844
      5          6           0       -5.145581   -3.026162    0.237303
      6          1           0       -5.860042   -3.708165   -0.224588
      7          7           0       -1.931184   -0.501472    1.916847
      8          6           0       -3.035873    0.076780    2.399410
      9          1           0       -2.866880    0.948867    3.029619
     10          7           0       -4.311976   -0.258925    2.221211
     11          6           0       -4.408299   -1.342008    1.432490
     12          6           0       -2.061620   -1.589305    1.126476
     13          7           0       -0.960071   -2.167912    0.643810
     14          1           0       -1.009244   -2.975228    0.054709
     15          1           0       -0.048610   -1.814351    0.854486
     16          1           0       -7.380157   -2.348078    1.865746
     17          1           0       -6.915226   -0.787144    1.972467
     18          1           0       -7.450493   -1.383475    0.551210
     19          7           0       -4.078610    2.700041   -1.044823
     20          6           0       -2.716062    2.527545   -1.086587
     21          6           0       -4.769640    3.955500   -0.688432
     22          7           0        0.490625    3.804627   -0.701871
     23          1           0        1.430751    3.476724   -0.790643
     24          1           0        0.366853    4.758971   -0.428689
     25          7           0       -1.787044    3.468397   -0.811301
     26          6           0       -0.557646    3.001435   -0.938341
     27          7           0       -0.258759    1.712060   -1.306687
     28          1           0        0.710324    1.442466   -1.378558
     29          6           0       -1.198450    0.727213   -1.594664
     30          8           0       -0.822986   -0.406486   -1.917904
     31          6           0       -2.523779    1.213949   -1.462494
     32          7           0       -3.741128    0.574637   -1.652884
     33          6           0       -4.632494    1.492727   -1.394462
     34          1           0       -5.711437    1.342036   -1.443824
     35          1           0       -5.346045    3.804476    0.113905
     36          1           0       -4.091560    4.659806   -0.482449
     37          1           0       -5.337153    4.254675   -1.454747
     38          1           0        5.696605    0.554358   -0.930229
     39          1           0        5.680300    0.764847   -2.679532
     40          1           0        4.535499    1.654034   -1.674483
     41          1           0        3.972167   -3.718058   -2.315621
     42          6           0        3.628405   -2.691408   -2.188884
     43          8           0        1.326309   -3.261689   -2.236045
     44          6           0        2.223311   -2.424049   -2.143623
     45          1           0        0.913095   -0.864658   -1.943774
     46          7           0        1.896592   -1.092936   -1.980409
     47          8           0        2.378957    1.110828   -1.719740
     48          6           0        2.764375   -0.036368   -1.861364
     49          1           0        5.577762   -1.832012   -2.103657
     50          6           0        4.499336   -1.681839   -2.075523
     51          6           0        5.067244    0.721485   -1.791645
     52          7           0        4.102270   -0.374632   -1.914543
     53          1           0        5.001430    2.649114    4.083637
     54          1           0        3.676391    3.079811    3.234603
     55          1           0        5.163700    3.355734    2.621518
     56          1           0        2.550611   -3.119381    0.110809
     57          1           0        4.205797   -2.850296    0.423947
     58          7           0        3.262472   -2.521151    0.478940
     59          6           0        2.967987   -1.336922    1.019348
     60          6           0        3.471842    0.734084    2.077060
     61          7           0        2.196109    1.150346    2.137456
     62          1           0        0.324427    0.498616    1.615250
     63          6           0        1.382336    0.239724    1.606922
     64          7           0        1.675352   -0.946959    1.065163
     65          1           0        6.675575    0.860221    2.492194
     66          6           0        5.652777    0.576919    2.242073
     67          7           0        5.311863   -0.547054    1.660582
     68          6           0        3.931653   -0.460210    1.550048
     69          6           0        4.609233    2.727148    3.167081
     70          7           0        4.589223    1.399652    2.522583
 ---------------------------------------------------------------------
 Rotational constants (GHZ):           0.1276542           0.0554361           0.0514979
 Leave Link  202 at Tue Jan 23 05:28:41 2018, MaxMem=  4294967296 cpu:               0.4 elap:               0.0
 (Enter /share/apps/g16/l301.exe)
 Standard basis: CC-pVDZ (5D, 7F)
 Ernie: Thresh=  0.10000D-02 Tol=  0.10000D-05 Strict=F.
 Ernie:  86 primitive shells out of 1081 were deleted.
 There are   780 symmetry adapted cartesian basis functions of A   symmetry.
 There are   737 symmetry adapted basis functions of A   symmetry.
   737 basis functions,  1608 primitive gaussians,   780 cartesian basis functions
   154 alpha electrons      154 beta electrons
       nuclear repulsion energy      5457.4464684224 Hartrees.
 IExCor= 4639 DFT=T Ex+Corr=wB97XD ExCW=0 ScaHFX=  1.000000
 ScaDFX=  1.000000  1.000000  1.000000  1.000000 ScalE2=  1.000000  1.000000
 IRadAn=      5 IRanWt=     -1 IRanGd=            0 ICorTp=0 IEmpDi=121
 HFx  wShort=  0.000000 wLong=  0.200000 cFull=  0.222036 cShort=  0.000000 cLong=  0.777964
 DFx  wShort=  0.000000 wLong=  0.200000 cFull=  0.000000 cShort=  0.000000 cLong=  1.000000
 NAtoms=   70 NActive=   70 NUniq=   70 SFac= 1.00D+00 NAtFMM=   60 NAOKFM=T Big=T
 Integral buffers will be    131072 words long.
 Raffenetti 2 integral format.
 Two-electron integral symmetry is turned on.
 R6Disp:  Grimme-D2 Dispersion energy=       -0.0665143332 Hartrees.
 Nuclear repulsion after empirical dispersion term =     5457.3799540892 Hartrees.
 Leave Link  301 at Tue Jan 23 05:28:41 2018, MaxMem=  4294967296 cpu:               2.9 elap:               0.1
 (Enter /share/apps/g16/l302.exe)
 NPDir=0 NMtPBC=     1 NCelOv=     1 NCel=       1 NClECP=     1 NCelD=      1
         NCelK=      1 NCelE2=     1 NClLst=     1 CellRange=     0.0.
 One-electron integrals computed using PRISM.
 One-electron integral symmetry used in STVInt
 NBasis=   737 RedAO= T EigKep=  6.88D-04  NBF=   737
 NBsUse=   737 1.00D-06 EigRej= -1.00D+00 NBFU=   737
 Precomputing XC quadrature grid using
 IXCGrd= 4 IRadAn=           5 IRanWt=          -1 IRanGd=           0 AccXCQ= 0.00D+00.
 Generated NRdTot=       0 NPtTot=           0 NUsed=           0 NTot=          32
 NSgBfM=   765   761   762   765   765 MxSgAt=    70 MxSgA2=    70.
 Leave Link  302 at Tue Jan 23 05:28:45 2018, MaxMem=  4294967296 cpu:             137.3 elap:               4.3
 (Enter /share/apps/g16/l303.exe)
 DipDrv:  MaxL=1.
 Leave Link  303 at Tue Jan 23 05:28:46 2018, MaxMem=  4294967296 cpu:              12.3 elap:               0.4
 (Enter /share/apps/g16/l401.exe)
 ExpMin= 1.22D-01 ExpMax= 1.17D+04 ExpMxC= 4.01D+02 IAcc=3 IRadAn=         5 AccDes= 0.00D+00
 Harris functional with IExCor= 4639 and IRadAn=       5 diagonalized for initial guess.
 HarFok:  IExCor= 4639 AccDes= 0.00D+00 IRadAn=         5 IDoV= 1 UseB2=F ITyADJ=14
 ICtDFT=  3500011 ScaDFX=  1.000000  1.000000  1.000000  1.000000
 FoFCou: FMM=F IPFlag=           0 FMFlag=      100000 FMFlg1=        2001
         NFxFlg=           0 DoJE=T BraDBF=F KetDBF=T FulRan=T
         wScrn=  0.000000 ICntrl=       500 IOpCl=  0 I1Cent=   200000004 NGrid=           0
         NMat0=    1 NMatS0=      1 NMatT0=    0 NMatD0=    1 NMtDS0=    0 NMtDT0=    0
 Petite list used in FoFCou.
 Harris En= -1963.87510862020    
 JPrj=0 DoOrth=F DoCkMO=F.
 Leave Link  401 at Tue Jan 23 05:28:58 2018, MaxMem=  4294967296 cpu:             391.7 elap:              12.3
 (Enter /share/apps/g16/l502.exe)
 Integral symmetry usage will be decided dynamically.
 Closed shell SCF:
 Using DIIS extrapolation, IDIIS=  1040.
 NGot=  4294967296 LenX=  4293717438 LenY=  4293108258
 Requested convergence on RMS density matrix=1.00D-08 within  20 cycles.
 Requested convergence on MAX density matrix=1.00D-06.
 Requested convergence on             energy=1.00D-06.
 No special actions if energy rises.
 Fock matrices will be formed incrementally for  20 cycles.
 Integral accuracy reduced to 1.0D-05 until final iterations.

 Cycle   1  Pass 0  IDiag  1:
 FoFJK:  IHMeth= 1 ICntrl=       0 DoSepK=T KAlg= 0 I1Cent=           0 FoldK=F
 IRaf=         1 NMat=       1 IRICut=       1 DoRegI=T DoRafI=F ISym2E= 0 IDoP0=0 IntGTp=1.
 FoFCou: FMM=T IPFlag=           0 FMFlag=      100000 FMFlg1=        2001
         NFxFlg=           0 DoJE=T BraDBF=F KetDBF=F FulRan=T
         wScrn=  0.000000 ICntrl=       500 IOpCl=  0 I1Cent=           0 NGrid=           0
         NMat0=    1 NMatS0=      1 NMatT0=    0 NMatD0=    1 NMtDS0=    0 NMtDT0=    0
 Symmetry not used in FoFCou.
 FMM levels:  10  Number of levels for PrismC:   9
 E= -2048.30820646381    
 DIIS: error= 2.57D-02 at cycle   1 NSaved=   1.
 NSaved= 1 IEnMin= 1 EnMin= -2048.30820646381     IErMin= 1 ErrMin= 2.57D-02
 ErrMax= 2.57D-02  0.00D+00 EMaxC= 1.00D-01 BMatC= 8.31D-01 BMatP= 8.31D-01
 IDIUse=3 WtCom= 7.43D-01 WtEn= 2.57D-01
 Coeff-Com:  0.100D+01
 Coeff-En:   0.100D+01
 Coeff:      0.100D+01
 Gap=     0.251 Goal=   None    Shift=    0.000
 GapD=    0.251 DampG=1.000 DampE=0.500 DampFc=0.5000 IDamp=-1.
 Damping current iteration by 5.00D-01
 RMSDP=1.55D-03 MaxDP=1.31D-01              OVMax= 1.47D-01

 Cycle   2  Pass 0  IDiag  1:
 RMSU=  7.75D-04    CP:  9.98D-01
 E= -2048.50543486805     Delta-E=       -0.197228404236 Rises=F Damp=T
 DIIS: error= 1.43D-02 at cycle   2 NSaved=   2.
 NSaved= 2 IEnMin= 2 EnMin= -2048.50543486805     IErMin= 2 ErrMin= 1.43D-02
 ErrMax= 1.43D-02  0.00D+00 EMaxC= 1.00D-01 BMatC= 1.44D-01 BMatP= 8.31D-01
 IDIUse=3 WtCom= 8.57D-01 WtEn= 1.43D-01
 Coeff-Com: -0.202D+00 0.120D+01
 Coeff-En:   0.000D+00 0.100D+01
 Coeff:     -0.173D+00 0.117D+01
 Gap=     0.351 Goal=   None    Shift=    0.000
 RMSDP=5.76D-04 MaxDP=3.48D-02 DE=-1.97D-01 OVMax= 1.36D-01

 Cycle   3  Pass 0  IDiag  1:
 RMSU=  5.63D-04    CP:  9.94D-01  1.15D+00
 E= -2048.68581081364     Delta-E=       -0.180375945594 Rises=F Damp=F
 DIIS: error= 6.08D-03 at cycle   3 NSaved=   3.
 NSaved= 3 IEnMin= 3 EnMin= -2048.68581081364     IErMin= 3 ErrMin= 6.08D-03
 ErrMax= 6.08D-03  0.00D+00 EMaxC= 1.00D-01 BMatC= 6.00D-02 BMatP= 1.44D-01
 IDIUse=3 WtCom= 9.39D-01 WtEn= 6.08D-02
 Coeff-Com: -0.230D+00 0.543D+00 0.687D+00
 Coeff-En:   0.000D+00 0.000D+00 0.100D+01
 Coeff:     -0.216D+00 0.510D+00 0.706D+00
 Gap=     0.270 Goal=   None    Shift=    0.000
 RMSDP=3.40D-04 MaxDP=3.36D-02 DE=-1.80D-01 OVMax= 6.46D-02

 Cycle   4  Pass 0  IDiag  1:
 RMSU=  1.97D-04    CP:  9.95D-01  1.42D+00  6.83D-01
 E= -2048.73138463981     Delta-E=       -0.045573826171 Rises=F Damp=F
 DIIS: error= 2.54D-03 at cycle   4 NSaved=   4.
 NSaved= 4 IEnMin= 4 EnMin= -2048.73138463981     IErMin= 4 ErrMin= 2.54D-03
 ErrMax= 2.54D-03  0.00D+00 EMaxC= 1.00D-01 BMatC= 8.25D-03 BMatP= 6.00D-02
 IDIUse=3 WtCom= 9.75D-01 WtEn= 2.54D-02
 Coeff-Com: -0.961D-01 0.186D+00 0.375D+00 0.535D+00
 Coeff-En:   0.000D+00 0.000D+00 0.475D-01 0.953D+00
 Coeff:     -0.936D-01 0.181D+00 0.366D+00 0.546D+00
 Gap=     0.276 Goal=   None    Shift=    0.000
 RMSDP=1.20D-04 MaxDP=1.14D-02 DE=-4.56D-02 OVMax= 1.34D-02

 Cycle   5  Pass 0  IDiag  1:
 RMSU=  6.17D-05    CP:  9.94D-01  1.40D+00  8.08D-01  6.28D-01
 E= -2048.73810971886     Delta-E=       -0.006725079049 Rises=F Damp=F
 DIIS: error= 5.26D-04 at cycle   5 NSaved=   5.
 NSaved= 5 IEnMin= 5 EnMin= -2048.73810971886     IErMin= 5 ErrMin= 5.26D-04
 ErrMax= 5.26D-04  0.00D+00 EMaxC= 1.00D-01 BMatC= 2.84D-04 BMatP= 8.25D-03
 IDIUse=3 WtCom= 9.95D-01 WtEn= 5.26D-03
 Coeff-Com: -0.249D-01 0.429D-01 0.120D+00 0.241D+00 0.621D+00
 Coeff-En:   0.000D+00 0.000D+00 0.000D+00 0.000D+00 0.100D+01
 Coeff:     -0.248D-01 0.427D-01 0.119D+00 0.240D+00 0.623D+00
 Gap=     0.275 Goal=   None    Shift=    0.000
 RMSDP=2.54D-05 MaxDP=1.97D-03 DE=-6.73D-03 OVMax= 2.94D-03

 Failed to achieve initial convergence to 1.0D-08 in  6 cycles.
 Switch to full accuracy anyway.
 Cycle   6  Pass 1  IDiag  1:
 E= -2048.73843526107     Delta-E=       -0.000325542212 Rises=F Damp=F
 DIIS: error= 2.99D-04 at cycle   1 NSaved=   1.
 NSaved= 1 IEnMin= 1 EnMin= -2048.73843526107     IErMin= 1 ErrMin= 2.99D-04
 ErrMax= 2.99D-04  0.00D+00 EMaxC= 1.00D-01 BMatC= 7.67D-05 BMatP= 7.67D-05
 IDIUse=3 WtCom= 9.97D-01 WtEn= 2.99D-03
 Coeff-Com:  0.100D+01
 Coeff-En:   0.100D+01
 Coeff:      0.100D+01
 Gap=     0.276 Goal=   None    Shift=    0.000
 RMSDP=2.54D-05 MaxDP=1.97D-03 DE=-3.26D-04 OVMax= 1.74D-03

 Cycle   7  Pass 1  IDiag  1:
 RMSU=  1.20D-04    CP:  1.00D+00
 E= -2048.73849304694     Delta-E=       -0.000057785873 Rises=F Damp=F
 DIIS: error= 2.40D-04 at cycle   2 NSaved=   2.
 NSaved= 2 IEnMin= 2 EnMin= -2048.73849304694     IErMin= 2 ErrMin= 2.40D-04
 ErrMax= 2.40D-04  0.00D+00 EMaxC= 1.00D-01 BMatC= 4.39D-05 BMatP= 7.67D-05
 IDIUse=3 WtCom= 9.98D-01 WtEn= 2.40D-03
 Coeff-Com:  0.406D+00 0.594D+00
 Coeff-En:   0.000D+00 0.100D+01
 Coeff:      0.405D+00 0.595D+00
 Gap=     0.276 Goal=   None    Shift=    0.000
 RMSDP=1.13D-05 MaxDP=1.23D-03 DE=-5.78D-05 OVMax= 1.40D-03

 Cycle   8  Pass 1  IDiag  1:
 RMSU=  1.09D-05    CP:  1.00D+00  1.03D+00
 E= -2048.73852388894     Delta-E=       -0.000030841996 Rises=F Damp=F
 DIIS: error= 1.13D-04 at cycle   3 NSaved=   3.
 NSaved= 3 IEnMin= 3 EnMin= -2048.73852388894     IErMin= 3 ErrMin= 1.13D-04
 ErrMax= 1.13D-04  0.00D+00 EMaxC= 1.00D-01 BMatC= 1.08D-05 BMatP= 4.39D-05
 IDIUse=3 WtCom= 9.99D-01 WtEn= 1.13D-03
 Coeff-Com: -0.197D-01 0.319D+00 0.701D+00
 Coeff-En:   0.000D+00 0.142D+00 0.858D+00
 Coeff:     -0.196D-01 0.319D+00 0.701D+00
 Gap=     0.276 Goal=   None    Shift=    0.000
 RMSDP=5.78D-06 MaxDP=5.48D-04 DE=-3.08D-05 OVMax= 5.05D-04

 Cycle   9  Pass 1  IDiag  1:
 RMSU=  3.91D-06    CP:  1.00D+00  1.05D+00  7.60D-01
 E= -2048.73853369243     Delta-E=       -0.000009803486 Rises=F Damp=F
 DIIS: error= 2.49D-05 at cycle   4 NSaved=   4.
 NSaved= 4 IEnMin= 4 EnMin= -2048.73853369243     IErMin= 4 ErrMin= 2.49D-05
 ErrMax= 2.49D-05  0.00D+00 EMaxC= 1.00D-01 BMatC= 4.95D-07 BMatP= 1.08D-05
 IDIUse=1 WtCom= 1.00D+00 WtEn= 0.00D+00
 Coeff-Com: -0.301D-01 0.874D-01 0.255D+00 0.688D+00
 Coeff:     -0.301D-01 0.874D-01 0.255D+00 0.688D+00
 Gap=     0.276 Goal=   None    Shift=    0.000
 RMSDP=1.46D-06 MaxDP=1.41D-04 DE=-9.80D-06 OVMax= 3.25D-04

 Cycle  10  Pass 1  IDiag  1:
 RMSU=  1.29D-06    CP:  1.00D+00  1.06D+00  7.94D-01  1.11D+00
 E= -2048.73853453917     Delta-E=       -0.000000846747 Rises=F Damp=F
 DIIS: error= 1.48D-05 at cycle   5 NSaved=   5.
 NSaved= 5 IEnMin= 5 EnMin= -2048.73853453917     IErMin= 5 ErrMin= 1.48D-05
 ErrMax= 1.48D-05  0.00D+00 EMaxC= 1.00D-01 BMatC= 1.24D-07 BMatP= 4.95D-07
 IDIUse=1 WtCom= 1.00D+00 WtEn= 0.00D+00
 Coeff-Com: -0.251D-02-0.583D-01-0.125D+00 0.206D+00 0.979D+00
 Coeff:     -0.251D-02-0.583D-01-0.125D+00 0.206D+00 0.979D+00
 Gap=     0.276 Goal=   None    Shift=    0.000
 RMSDP=1.25D-06 MaxDP=8.14D-05 DE=-8.47D-07 OVMax= 1.97D-04

 Cycle  11  Pass 1  IDiag  1:
 RMSU=  5.18D-07    CP:  1.00D+00  1.06D+00  8.05D-01  1.40D+00  1.18D+00
 E= -2048.73853481127     Delta-E=       -0.000000272102 Rises=F Damp=F
 DIIS: error= 7.12D-06 at cycle   6 NSaved=   6.
 NSaved= 6 IEnMin= 6 EnMin= -2048.73853481127     IErMin= 6 ErrMin= 7.12D-06
 ErrMax= 7.12D-06  0.00D+00 EMaxC= 1.00D-01 BMatC= 2.95D-08 BMatP= 1.24D-07
 IDIUse=1 WtCom= 1.00D+00 WtEn= 0.00D+00
 Coeff-Com:  0.476D-02-0.472D-01-0.116D+00-0.110D-02 0.525D+00 0.635D+00
 Coeff:      0.476D-02-0.472D-01-0.116D+00-0.110D-02 0.525D+00 0.635D+00
 Gap=     0.276 Goal=   None    Shift=    0.000
 RMSDP=3.94D-07 MaxDP=3.86D-05 DE=-2.72D-07 OVMax= 9.14D-05

 Cycle  12  Pass 1  IDiag  1:
 RMSU=  2.00D-07    CP:  1.00D+00  1.06D+00  8.06D-01  1.47D+00  1.31D+00
                    CP:  9.30D-01
 E= -2048.73853485526     Delta-E=       -0.000000043990 Rises=F Damp=F
 DIIS: error= 1.06D-06 at cycle   7 NSaved=   7.
 NSaved= 7 IEnMin= 7 EnMin= -2048.73853485526     IErMin= 7 ErrMin= 1.06D-06
 ErrMax= 1.06D-06  0.00D+00 EMaxC= 1.00D-01 BMatC= 9.82D-10 BMatP= 2.95D-08
 IDIUse=1 WtCom= 1.00D+00 WtEn= 0.00D+00
 Coeff-Com:  0.121D-02-0.831D-02-0.221D-01-0.684D-02 0.645D-01 0.156D+00
 Coeff-Com:  0.816D+00
 Coeff:      0.121D-02-0.831D-02-0.221D-01-0.684D-02 0.645D-01 0.156D+00
 Coeff:      0.816D+00
 Gap=     0.276 Goal=   None    Shift=    0.000
 RMSDP=8.92D-08 MaxDP=5.87D-06 DE=-4.40D-08 OVMax= 1.88D-05

 Cycle  13  Pass 1  IDiag  1:
 RMSU=  5.48D-08    CP:  1.00D+00  1.06D+00  8.06D-01  1.48D+00  1.33D+00
                    CP:  1.02D+00  1.12D+00
 E= -2048.73853485698     Delta-E=       -0.000000001721 Rises=F Damp=F
 DIIS: error= 5.90D-07 at cycle   8 NSaved=   8.
 NSaved= 8 IEnMin= 8 EnMin= -2048.73853485698     IErMin= 8 ErrMin= 5.90D-07
 ErrMax= 5.90D-07  0.00D+00 EMaxC= 1.00D-01 BMatC= 3.96D-10 BMatP= 9.82D-10
 IDIUse=1 WtCom= 1.00D+00 WtEn= 0.00D+00
 Coeff-Com: -0.735D-03 0.920D-02 0.216D-01-0.186D-02-0.120D+00-0.945D-01
 Coeff-Com:  0.427D+00 0.759D+00
 Coeff:     -0.735D-03 0.920D-02 0.216D-01-0.186D-02-0.120D+00-0.945D-01
 Coeff:      0.427D+00 0.759D+00
 Gap=     0.276 Goal=   None    Shift=    0.000
 RMSDP=5.45D-08 MaxDP=3.20D-06 DE=-1.72D-09 OVMax= 1.15D-05

 Cycle  14  Pass 1  IDiag  1:
 RMSU=  3.08D-08    CP:  1.00D+00  1.06D+00  8.05D-01  1.48D+00  1.34D+00
                    CP:  1.07D+00  1.28D+00  1.07D+00
 E= -2048.73853485784     Delta-E=       -0.000000000858 Rises=F Damp=F
 DIIS: error= 2.04D-07 at cycle   9 NSaved=   9.
 NSaved= 9 IEnMin= 9 EnMin= -2048.73853485784     IErMin= 9 ErrMin= 2.04D-07
 ErrMax= 2.04D-07  0.00D+00 EMaxC= 1.00D-01 BMatC= 4.19D-11 BMatP= 3.96D-10
 IDIUse=1 WtCom= 1.00D+00 WtEn= 0.00D+00
 Coeff-Com: -0.476D-03 0.521D-02 0.125D-01 0.509D-03-0.611D-01-0.604D-01
 Coeff-Com:  0.939D-01 0.327D+00 0.683D+00
 Coeff:     -0.476D-03 0.521D-02 0.125D-01 0.509D-03-0.611D-01-0.604D-01
 Coeff:      0.939D-01 0.327D+00 0.683D+00
 Gap=     0.276 Goal=   None    Shift=    0.000
 RMSDP=1.51D-08 MaxDP=9.76D-07 DE=-8.58D-10 OVMax= 2.89D-06

 Cycle  15  Pass 1  IDiag  1:
 RMSU=  1.00D-08    CP:  1.00D+00  1.06D+00  8.06D-01  1.48D+00  1.34D+00
                    CP:  1.08D+00  1.30D+00  1.22D+00  1.10D+00
 E= -2048.73853485782     Delta-E=        0.000000000022 Rises=F Damp=F
 DIIS: error= 8.08D-08 at cycle  10 NSaved=  10.
 NSaved=10 IEnMin= 9 EnMin= -2048.73853485784     IErMin=10 ErrMin= 8.08D-08
 ErrMax= 8.08D-08  0.00D+00 EMaxC= 1.00D-01 BMatC= 5.49D-12 BMatP= 4.19D-11
 IDIUse=1 WtCom= 1.00D+00 WtEn= 0.00D+00
 Coeff-Com:  0.304D-05-0.301D-03-0.570D-03 0.180D-03 0.520D-02 0.863D-03
 Coeff-Com: -0.548D-01-0.545D-01 0.235D+00 0.869D+00
 Coeff:      0.304D-05-0.301D-03-0.570D-03 0.180D-03 0.520D-02 0.863D-03
 Coeff:     -0.548D-01-0.545D-01 0.235D+00 0.869D+00
 Gap=     0.276 Goal=   None    Shift=    0.000
 RMSDP=7.61D-09 MaxDP=4.82D-07 DE= 2.18D-11 OVMax= 1.70D-06

 SCF Done:  E(RwB97XD) =  -2048.73853486     A.U. after   15 cycles
            NFock= 15  Conv=0.76D-08     -V/T= 2.0054
 KE= 2.037745408050D+03 PE=-1.569556474353D+04 EE= 6.151700846529D+03
 Leave Link  502 at Tue Jan 23 05:39:43 2018, MaxMem=  4294967296 cpu:           19986.2 elap:             645.4
 (Enter /share/apps/g16/l601.exe)
 Copying SCF densities to generalized density rwf, IOpCl= 0 IROHF=0.

 **********************************************************************

            Population analysis using the SCF density.

 **********************************************************************

 Orbital symmetries:
       Occupied  (A) (A) (A) (A) (A) (A) (A) (A) (A) (A) (A) (A)
                 (A) (A) (A) (A) (A) (A) (A) (A) (A) (A) (A) (A)
                 (A) (A) (A) (A) (A) (A) (A) (A) (A) (A) (A) (A)
                 (A) (A) (A) (A) (A) (A) (A) (A) (A) (A) (A) (A)
                 (A) (A) (A) (A) (A) (A) (A) (A) (A) (A) (A) (A)
                 (A) (A) (A) (A) (A) (A) (A) (A) (A) (A) (A) (A)
                 (A) (A) (A) (A) (A) (A) (A) (A) (A) (A) (A) (A)
                 (A) (A) (A) (A) (A) (A) (A) (A) (A) (A) (A) (A)
                 (A) (A) (A) (A) (A) (A) (A) (A) (A) (A) (A) (A)
                 (A) (A) (A) (A) (A) (A) (A) (A) (A) (A) (A) (A)
                 (A) (A) (A) (A) (A) (A) (A) (A) (A) (A) (A) (A)
                 (A) (A) (A) (A) (A) (A) (A) (A) (A) (A) (A) (A)
                 (A) (A) (A) (A) (A) (A) (A) (A) (A) (A)
       Virtual   (A) (A) (A) (A) (A) (A) (A) (A) (A) (A) (A) (A)
                 (A) (A) (A) (A) (A) (A) (A) (A) (A) (A) (A) (A)
                 (A) (A) (A) (A) (A) (A) (A) (A) (A) (A) (A) (A)
                 (A) (A) (A) (A) (A) (A) (A) (A) (A) (A) (A) (A)
                 (A) (A) (A) (A) (A) (A) (A) (A) (A) (A) (A) (A)
                 (A) (A) (A) (A) (A) (A) (A) (A) (A) (A) (A) (A)
                 (A) (A) (A) (A) (A) (A) (A) (A) (A) (A) (A) (A)
                 (A) (A) (A) (A) (A) (A) (A) (A) (A) (A) (A) (A)
                 (A) (A) (A) (A) (A) (A) (A) (A) (A) (A) (A) (A)
                 (A) (A) (A) (A) (A) (A) (A) (A) (A) (A) (A) (A)
                 (A) (A) (A) (A) (A) (A) (A) (A) (A) (A) (A) (A)
                 (A) (A) (A) (A) (A) (A) (A) (A) (A) (A) (A) (A)
                 (A) (A) (A) (A) (A) (A) (A) (A) (A) (A) (A) (A)
                 (A) (A) (A) (A) (A) (A) (A) (A) (A) (A) (A) (A)
                 (A) (A) (A) (A) (A) (A) (A) (A) (A) (A) (A) (A)
                 (A) (A) (A) (A) (A) (A) (A) (A) (A) (A) (A) (A)
                 (A) (A) (A) (A) (A) (A) (A) (A) (A) (A) (A) (A)
                 (A) (A) (A) (A) (A) (A) (A) (A) (A) (A) (A) (A)
                 (A) (A) (A) (A) (A) (A) (A) (A) (A) (A) (A) (A)
                 (A) (A) (A) (A) (A) (A) (A) (A) (A) (A) (A) (A)
                 (A) (A) (A) (A) (A) (A) (A) (A) (A) (A) (A) (A)
                 (A) (A) (A) (A) (A) (A) (A) (A) (A) (A) (A) (A)
                 (A) (A) (A) (A) (A) (A) (A) (A) (A) (A) (A) (A)
                 (A) (A) (A) (A) (A) (A) (A) (A) (A) (A) (A) (A)
                 (A) (A) (A) (A) (A) (A) (A) (A) (A) (A) (A) (A)
                 (A) (A) (A) (A) (A) (A) (A) (A) (A) (A) (A) (A)
                 (A) (A) (A) (A) (A) (A) (A) (A) (A) (A) (A) (A)
                 (A) (A) (A) (A) (A) (A) (A) (A) (A) (A) (A) (A)
                 (A) (A) (A) (A) (A) (A) (A) (A) (A) (A) (A) (A)
                 (A) (A) (A) (A) (A) (A) (A) (A) (A) (A) (A) (A)
                 (A) (A) (A) (A) (A) (A) (A) (A) (A) (A) (A) (A)
                 (A) (A) (A) (A) (A) (A) (A) (A) (A) (A) (A) (A)
                 (A) (A) (A) (A) (A) (A) (A) (A) (A) (A) (A) (A)
                 (A) (A) (A) (A) (A) (A) (A) (A) (A) (A) (A) (A)
                 (A) (A) (A) (A) (A) (A) (A) (A) (A) (A) (A) (A)
                 (A) (A) (A) (A) (A) (A) (A) (A) (A) (A) (A) (A)
                 (A) (A) (A) (A) (A) (A) (A) (A) (A) (A) (A) (A)
                 (A) (A) (A) (A) (A) (A) (A) (A) (A) (A) (A) (A)
                 (A) (A) (A) (A) (A) (A) (A) (A) (A) (A) (A) (A)
                 (A) (A) (A) (A) (A) (A) (A) (A) (A) (A) (A) (A)
                 (A) (A) (A) (A) (A) (A) (A) (A) (A) (A) (A) (A)
                 (A) (A) (A) (A) (A) (A) (A) (A) (A) (A) (A) (A)
                 (A) (A) (A) (A) (A) (A) (A) (A) (A) (A) (A) (A)
                 (A) (A) (A) (A) (A) (A) (A) (A) (A) (A) (A) (A)
                 (A) (A) (A) (A) (A) (A) (A) (A) (A) (A) (A) (A)
                 (A) (A) (A) (A) (A) (A) (A) (A) (A) (A) (A) (A)
                 (A) (A) (A) (A) (A) (A) (A) (A) (A) (A) (A) (A)
                 (A) (A) (A) (A) (A) (A) (A) (A) (A) (A) (A) (A)
                 (A) (A) (A) (A) (A) (A) (A)
 The electronic state is 1-A.
 Alpha  occ. eigenvalues --  -19.26078 -19.22835 -19.20791 -14.52667 -14.52154
 Alpha  occ. eigenvalues --  -14.48942 -14.48114 -14.48095 -14.47721 -14.47125
 Alpha  occ. eigenvalues --  -14.46888 -14.45300 -14.43922 -14.43866 -14.42201
 Alpha  occ. eigenvalues --  -14.41597 -14.41067 -14.40646 -14.40400 -14.39764
 Alpha  occ. eigenvalues --  -10.45679 -10.41441 -10.40718 -10.39568 -10.38403
 Alpha  occ. eigenvalues --  -10.37839 -10.37768 -10.36844 -10.35375 -10.35062
 Alpha  occ. eigenvalues --  -10.34829 -10.34512 -10.33621 -10.33507 -10.33383
 Alpha  occ. eigenvalues --  -10.32716 -10.32594 -10.32377 -10.31389 -10.31037
 Alpha  occ. eigenvalues --  -10.30579 -10.28280 -10.27850  -1.19644  -1.14899
 Alpha  occ. eigenvalues --   -1.13768  -1.13383  -1.10757  -1.10660  -1.09578
 Alpha  occ. eigenvalues --   -1.08959  -1.08757  -1.04553  -1.04449  -1.02820
 Alpha  occ. eigenvalues --   -1.00738  -0.99956  -0.99830  -0.98728  -0.96760
 Alpha  occ. eigenvalues --   -0.96574  -0.96247  -0.92128  -0.91346  -0.87315
 Alpha  occ. eigenvalues --   -0.85617  -0.84283  -0.83705  -0.83354  -0.82655
 Alpha  occ. eigenvalues --   -0.81768  -0.79179  -0.76744  -0.74810  -0.74498
 Alpha  occ. eigenvalues --   -0.73858  -0.73651  -0.72315  -0.70487  -0.70145
 Alpha  occ. eigenvalues --   -0.67589  -0.66878  -0.66462  -0.65704  -0.64791
 Alpha  occ. eigenvalues --   -0.64126  -0.63826  -0.62850  -0.62127  -0.61952
 Alpha  occ. eigenvalues --   -0.60503  -0.60181  -0.59979  -0.59653  -0.59146
 Alpha  occ. eigenvalues --   -0.59079  -0.58575  -0.56754  -0.56203  -0.56044
 Alpha  occ. eigenvalues --   -0.55868  -0.55081  -0.54810  -0.54624  -0.54208
 Alpha  occ. eigenvalues --   -0.53878  -0.53653  -0.53461  -0.53260  -0.53179
 Alpha  occ. eigenvalues --   -0.52575  -0.52499  -0.51272  -0.50428  -0.50217
 Alpha  occ. eigenvalues --   -0.49802  -0.49729  -0.49475  -0.49200  -0.49123
 Alpha  occ. eigenvalues --   -0.48601  -0.48503  -0.48206  -0.47834  -0.47594
 Alpha  occ. eigenvalues --   -0.46412  -0.45895  -0.45138  -0.44358  -0.43613
 Alpha  occ. eigenvalues --   -0.40525  -0.40419  -0.39637  -0.37533  -0.37462
 Alpha  occ. eigenvalues --   -0.37450  -0.37243  -0.36559  -0.36316  -0.34490
 Alpha  occ. eigenvalues --   -0.34224  -0.33923  -0.33860  -0.32988  -0.32918
 Alpha  occ. eigenvalues --   -0.32813  -0.32707  -0.32468  -0.32064  -0.30343
 Alpha  occ. eigenvalues --   -0.29919  -0.29067  -0.25730  -0.24998
 Alpha virt. eigenvalues --    0.02608   0.04324   0.07466   0.08011   0.08429
 Alpha virt. eigenvalues --    0.09223   0.09612   0.10762   0.11597   0.12112
 Alpha virt. eigenvalues --    0.13135   0.14318   0.14657   0.14914   0.15200
 Alpha virt. eigenvalues --    0.15787   0.15830   0.17086   0.17447   0.18312
 Alpha virt. eigenvalues --    0.18354   0.19149   0.19705   0.20163   0.20666
 Alpha virt. eigenvalues --    0.20728   0.20956   0.21198   0.21547   0.22003
 Alpha virt. eigenvalues --    0.22416   0.22751   0.23092   0.23393   0.23675
 Alpha virt. eigenvalues --    0.24091   0.24421   0.24500   0.24833   0.25396
 Alpha virt. eigenvalues --    0.25434   0.25956   0.27183   0.27381   0.27939
 Alpha virt. eigenvalues --    0.28810   0.29254   0.29759   0.30682   0.30873
 Alpha virt. eigenvalues --    0.31353   0.31834   0.32360   0.32533   0.33276
 Alpha virt. eigenvalues --    0.34129   0.34150   0.35219   0.36031   0.36220
 Alpha virt. eigenvalues --    0.36669   0.37153   0.37942   0.39009   0.39331
 Alpha virt. eigenvalues --    0.39893   0.40533   0.41179   0.41466   0.41539
 Alpha virt. eigenvalues --    0.42356   0.42660   0.43033   0.43503   0.44258
 Alpha virt. eigenvalues --    0.44574   0.45167   0.46245   0.46770   0.47142
 Alpha virt. eigenvalues --    0.47481   0.48032   0.48370   0.48433   0.49156
 Alpha virt. eigenvalues --    0.49805   0.50156   0.50266   0.50838   0.51189
 Alpha virt. eigenvalues --    0.51349   0.51633   0.51901   0.52536   0.53033
 Alpha virt. eigenvalues --    0.53488   0.54285   0.54661   0.54932   0.55446
 Alpha virt. eigenvalues --    0.55888   0.56307   0.56739   0.57028   0.57467
 Alpha virt. eigenvalues --    0.57630   0.57972   0.58877   0.59247   0.59566
 Alpha virt. eigenvalues --    0.59928   0.60257   0.60394   0.60758   0.61438
 Alpha virt. eigenvalues --    0.61514   0.61973   0.62086   0.62517   0.62924
 Alpha virt. eigenvalues --    0.63165   0.63786   0.64537   0.64654   0.65447
 Alpha virt. eigenvalues --    0.65649   0.65908   0.66236   0.66789   0.67394
 Alpha virt. eigenvalues --    0.67713   0.67868   0.68296   0.68547   0.68767
 Alpha virt. eigenvalues --    0.70330   0.70511   0.70981   0.71140   0.71364
 Alpha virt. eigenvalues --    0.71550   0.72197   0.72543   0.73253   0.73352
 Alpha virt. eigenvalues --    0.74199   0.74416   0.74553   0.74800   0.75278
 Alpha virt. eigenvalues --    0.75837   0.75962   0.76253   0.76345   0.76453
 Alpha virt. eigenvalues --    0.76972   0.77570   0.78098   0.78326   0.78527
 Alpha virt. eigenvalues --    0.79026   0.79347   0.79626   0.79923   0.80275
 Alpha virt. eigenvalues --    0.81268   0.81417   0.81575   0.82296   0.82495
 Alpha virt. eigenvalues --    0.82903   0.83412   0.83803   0.84371   0.84565
 Alpha virt. eigenvalues --    0.85117   0.85556   0.85927   0.86728   0.87315
 Alpha virt. eigenvalues --    0.87539   0.88165   0.88490   0.89157   0.89480
 Alpha virt. eigenvalues --    0.89907   0.90574   0.91015   0.91143   0.91546
 Alpha virt. eigenvalues --    0.92080   0.92575   0.92790   0.93625   0.93774
 Alpha virt. eigenvalues --    0.94206   0.95099   0.95541   0.95640   0.96293
 Alpha virt. eigenvalues --    0.96755   0.96948   0.97451   0.97874   0.98232
 Alpha virt. eigenvalues --    0.98754   0.99092   0.99945   1.00133   1.00695
 Alpha virt. eigenvalues --    1.00773   1.01223   1.02075   1.02516   1.03063
 Alpha virt. eigenvalues --    1.03155   1.03327   1.03659   1.04320   1.04858
 Alpha virt. eigenvalues --    1.05331   1.05583   1.06244   1.06347   1.07323
 Alpha virt. eigenvalues --    1.07421   1.08055   1.09011   1.10291   1.10924
 Alpha virt. eigenvalues --    1.10962   1.11188   1.11919   1.12479   1.13291
 Alpha virt. eigenvalues --    1.13703   1.14394   1.14633   1.14886   1.15307
 Alpha virt. eigenvalues --    1.15457   1.16202   1.16577   1.16993   1.17330
 Alpha virt. eigenvalues --    1.18259   1.18514   1.18823   1.18975   1.19664
 Alpha virt. eigenvalues --    1.19905   1.20029   1.20385   1.20860   1.21295
 Alpha virt. eigenvalues --    1.21431   1.22087   1.22330   1.22749   1.23006
 Alpha virt. eigenvalues --    1.23283   1.23620   1.24139   1.24375   1.24638
 Alpha virt. eigenvalues --    1.24793   1.25522   1.25967   1.26620   1.27367
 Alpha virt. eigenvalues --    1.27915   1.28397   1.29118   1.30283   1.30350
 Alpha virt. eigenvalues --    1.31179   1.32032   1.32768   1.32914   1.33805
 Alpha virt. eigenvalues --    1.34134   1.34638   1.35822   1.36436   1.36799
 Alpha virt. eigenvalues --    1.37426   1.38014   1.38243   1.39484   1.39768
 Alpha virt. eigenvalues --    1.40153   1.40512   1.41285   1.42040   1.42440
 Alpha virt. eigenvalues --    1.45534   1.45556   1.46093   1.46492   1.47144
 Alpha virt. eigenvalues --    1.47547   1.49055   1.49229   1.49899   1.50190
 Alpha virt. eigenvalues --    1.51066   1.51880   1.52724   1.53302   1.53611
 Alpha virt. eigenvalues --    1.54398   1.55469   1.56009   1.56447   1.57561
 Alpha virt. eigenvalues --    1.57988   1.58388   1.58813   1.59490   1.60015
 Alpha virt. eigenvalues --    1.60537   1.61328   1.61687   1.62366   1.62753
 Alpha virt. eigenvalues --    1.63946   1.64370   1.64693   1.65017   1.65538
 Alpha virt. eigenvalues --    1.66514   1.67292   1.67802   1.68811   1.68893
 Alpha virt. eigenvalues --    1.69445   1.69828   1.70423   1.70680   1.71416
 Alpha virt. eigenvalues --    1.72095   1.72356   1.72493   1.72866   1.73548
 Alpha virt. eigenvalues --    1.73818   1.74036   1.74422   1.75209   1.75342
 Alpha virt. eigenvalues --    1.75561   1.75874   1.75975   1.76441   1.77099
 Alpha virt. eigenvalues --    1.77615   1.77832   1.78235   1.78472   1.78503
 Alpha virt. eigenvalues --    1.78592   1.79328   1.79718   1.79811   1.80058
 Alpha virt. eigenvalues --    1.80404   1.80555   1.80882   1.81144   1.81377
 Alpha virt. eigenvalues --    1.81720   1.82384   1.83207   1.83609   1.84234
 Alpha virt. eigenvalues --    1.84956   1.85244   1.85760   1.86368   1.86452
 Alpha virt. eigenvalues --    1.87084   1.87496   1.88181   1.88829   1.88912
 Alpha virt. eigenvalues --    1.89418   1.89604   1.90226   1.90612   1.91296
 Alpha virt. eigenvalues --    1.91474   1.92581   1.92897   1.93331   1.93566
 Alpha virt. eigenvalues --    1.94111   1.94713   1.95376   1.96326   1.97934
 Alpha virt. eigenvalues --    1.98099   1.98584   1.99436   2.00051   2.00907
 Alpha virt. eigenvalues --    2.01276   2.01511   2.01836   2.02285   2.03190
 Alpha virt. eigenvalues --    2.03505   2.04414   2.06040   2.06184   2.06905
 Alpha virt. eigenvalues --    2.07778   2.07994   2.08168   2.08546   2.08926
 Alpha virt. eigenvalues --    2.09428   2.10247   2.10738   2.11409   2.12309
 Alpha virt. eigenvalues --    2.12883   2.14160   2.15253   2.16209   2.17895
 Alpha virt. eigenvalues --    2.18793   2.19019   2.19530   2.20966   2.21390
 Alpha virt. eigenvalues --    2.21772   2.22142   2.22655   2.23168   2.23953
 Alpha virt. eigenvalues --    2.24316   2.24689   2.25414   2.25667   2.26156
 Alpha virt. eigenvalues --    2.27155   2.27422   2.28743   2.29053   2.30115
 Alpha virt. eigenvalues --    2.30209   2.30586   2.31097   2.31392   2.32014
 Alpha virt. eigenvalues --    2.32625   2.32911   2.33417   2.33573   2.34554
 Alpha virt. eigenvalues --    2.34659   2.34947   2.35314   2.35627   2.36643
 Alpha virt. eigenvalues --    2.37616   2.38418   2.39670   2.40390   2.41131
 Alpha virt. eigenvalues --    2.42126   2.42356   2.43224   2.43828   2.44053
 Alpha virt. eigenvalues --    2.44436   2.44597   2.45223   2.46604   2.47360
 Alpha virt. eigenvalues --    2.47786   2.49432   2.50451   2.51312   2.51471
 Alpha virt. eigenvalues --    2.51877   2.52769   2.54334   2.54979   2.55271
 Alpha virt. eigenvalues --    2.55996   2.56989   2.57743   2.57839   2.59047
 Alpha virt. eigenvalues --    2.60801   2.61082   2.61887   2.62267   2.62924
 Alpha virt. eigenvalues --    2.63386   2.64773   2.64917   2.64995   2.65694
 Alpha virt. eigenvalues --    2.66049   2.67140   2.67986   2.68077   2.69158
 Alpha virt. eigenvalues --    2.69623   2.69926   2.70718   2.71138   2.72602
 Alpha virt. eigenvalues --    2.72890   2.73811   2.75677   2.75846   2.76143
 Alpha virt. eigenvalues --    2.77171   2.77265   2.78553   2.78925   2.79271
 Alpha virt. eigenvalues --    2.79337   2.80250   2.80511   2.80583   2.81367
 Alpha virt. eigenvalues --    2.81822   2.81882   2.82596   2.83365   2.83870
 Alpha virt. eigenvalues --    2.84473   2.84900   2.85743   2.85872   2.86780
 Alpha virt. eigenvalues --    2.87574   2.88054   2.88546   2.90259   2.92880
 Alpha virt. eigenvalues --    2.93502   2.95025   2.95650   2.96325   2.98138
 Alpha virt. eigenvalues --    3.00077   3.00650   3.01303   3.04287   3.05485
 Alpha virt. eigenvalues --    3.05695   3.10085   3.11499   3.13000   3.14778
 Alpha virt. eigenvalues --    3.15261   3.15851   3.16146   3.16753   3.20146
 Alpha virt. eigenvalues --    3.21110   3.22246   3.23287   3.24520   3.25226
 Alpha virt. eigenvalues --    3.45125   3.47101   3.47689   3.49663   3.50048
 Alpha virt. eigenvalues --    3.53520   3.54211   3.55762   3.57430   3.59519
 Alpha virt. eigenvalues --    3.62124   3.70368   3.74487
          Condensed to atoms (all electrons):
 Mulliken charges:
               1
     1  N   -0.312743
     2  C    0.180874
     3  C    0.057766
     4  N   -0.256432
     5  C    0.137266
     6  H    0.024330
     7  N   -0.298619
     8  C    0.134010
     9  H    0.009016
    10  N   -0.292393
    11  C    0.246588
    12  C    0.103355
    13  N   -0.050280
    14  H    0.115306
    15  H    0.083630
    16  H    0.024276
    17  H    0.031574
    18  H    0.023298
    19  N   -0.310914
    20  C    0.253633
    21  C    0.180630
    22  N   -0.122394
    23  H    0.115609
    24  H    0.118175
    25  N   -0.311272
    26  C    0.247531
    27  N   -0.151526
    28  H    0.121664
    29  C    0.196212
    30  O   -0.322726
    31  C   -0.014894
    32  N   -0.224702
    33  C    0.131476
    34  H    0.021636
    35  H    0.030116
    36  H    0.029218
    37  H    0.024332
    38  H    0.062709
    39  H    0.059265
    40  H    0.072393
    41  H    0.026326
    42  C   -0.121943
    43  O   -0.267517
    44  C    0.146097
    45  H    0.131546
    46  N   -0.104579
    47  O   -0.342187
    48  C    0.333949
    49  H    0.048131
    50  C    0.171964
    51  C    0.038484
    52  N   -0.275148
    53  H    0.033590
    54  H    0.042343
    55  H    0.026617
    56  H    0.126203
    57  H    0.113362
    58  N   -0.042474
    59  C    0.078463
    60  C    0.249515
    61  N   -0.275210
    62  H    0.036714
    63  C    0.168907
    64  N   -0.308086
    65  H    0.035867
    66  C    0.135736
    67  N   -0.268104
    68  C    0.024635
    69  C    0.180487
    70  N   -0.310679
 Sum of Mulliken charges =  -0.00000
 Mulliken charges with hydrogens summed into heavy atoms:
               1
     1  N   -0.312743
     2  C    0.260021
     3  C    0.057766
     4  N   -0.256432
     5  C    0.161596
     7  N   -0.298619
     8  C    0.143027
    10  N   -0.292393
    11  C    0.246588
    12  C    0.103355
    13  N    0.148655
    19  N   -0.310914
    20  C    0.253633
    21  C    0.264295
    22  N    0.111390
    25  N   -0.311272
    26  C    0.247531
    27  N   -0.029862
    29  C    0.196212
    30  O   -0.322726
    31  C   -0.014894
    32  N   -0.224702
    33  C    0.153112
    42  C   -0.095616
    43  O   -0.267517
    44  C    0.146097
    46  N    0.026967
    47  O   -0.342187
    48  C    0.333949
    50  C    0.220095
    51  C    0.232851
    52  N   -0.275148
    58  N    0.197091
    59  C    0.078463
    60  C    0.249515
    61  N   -0.275210
    63  C    0.205621
    64  N   -0.308086
    66  C    0.171604
    67  N   -0.268104
    68  C    0.024635
    69  C    0.283036
    70  N   -0.310679
 Electronic spatial extent (au):  <R**2>=          22432.5211
 Charge=             -0.0000 electrons
 Dipole moment (field-independent basis, Debye):
    X=              7.9166    Y=              6.8098    Z=              1.4683  Tot=             10.5452
 Quadrupole moment (field-independent basis, Debye-Ang):
   XX=           -153.3256   YY=           -220.4574   ZZ=           -251.7947
   XY=              1.2629   XZ=             -1.8154   YZ=             -0.4538
 Traceless Quadrupole moment (field-independent basis, Debye-Ang):
   XX=             55.2003   YY=            -11.9315   ZZ=            -43.2688
   XY=              1.2629   XZ=             -1.8154   YZ=             -0.4538
 Octapole moment (field-independent basis, Debye-Ang**2):
  XXX=            -73.2527  YYY=            118.1859  ZZZ=             16.4664  XYY=             37.9742
  XXY=             54.8062  XXZ=             -2.6932  XZZ=             93.3318  YZZ=             50.1840
  YYZ=             32.1431  XYZ=             75.2757
 Hexadecapole moment (field-independent basis, Debye-Ang**3):
 XXXX=         -15102.4584 YYYY=          -5602.4036 ZZZZ=          -4292.7374 XXXY=            495.6994
 XXXZ=            -41.4527 YYYX=           -109.7301 YYYZ=             -3.0037 ZZZX=            135.4742
 ZZZY=             88.4053 XXYY=          -3385.9944 XXZZ=          -3642.1366 YYZZ=          -1739.7454
 XXYZ=            188.8907 YYXZ=             87.4963 ZZXY=            144.2433
 N-N= 5.457379954089D+03 E-N=-1.569556474581D+04  KE= 2.037745408050D+03
 No NMR shielding tensors so no spin-rotation constants.
 Leave Link  601 at Tue Jan 23 05:39:45 2018, MaxMem=  4294967296 cpu:              45.6 elap:               1.6
 (Enter /share/apps/g16/l9999.exe)
 1\1\GINC-COMPUTE-0-3\SP\RwB97XD\CC-pVDZ\C23H27N17O3\SATYA\23-Jan-2018\
 0\\#p wb97xd/cc-pvdz sp scf=(maxcycles=20)\\Base pair stacking\\0,1\N,
 0,6.49849,0.89228,-4.58256\C,0,7.52573,1.94896,-4.66142\C,0,4.67031,-0
 .29457,-4.8766\N,0,5.45674,-1.008,-3.98369\C,0,6.52668,-0.26441,-3.842
 28\H,0,7.37524,-0.51391,-3.20461\N,0,2.90404,0.36683,-6.29285\C,0,3.63
 021,1.45642,-6.56313\H,0,3.17446,2.15769,-7.26082\N,0,4.8292,1.80815,-
 6.10313\C,0,5.29924,0.87892,-5.25459\C,0,3.40462,-0.54918,-5.43528\N,0
 ,2.68123,-1.63748,-5.16422\H,0,3.01247,-2.34173,-4.53531\H,0,1.78402,-
 1.78589,-5.58032\H,0,8.38222,1.55855,-4.99932\H,0,7.21894,2.6672,-5.28
 522\H,0,7.67507,2.33998,-3.75324\N,0,2.44446,4.02395,-3.12317\C,0,1.38
 738,3.17843,-3.35921\C,0,2.45334,5.47567,-3.39362\N,0,-1.86014,2.66254
 ,-4.47691\H,0,-2.49521,1.89621,-4.56999\H,0,-2.18784,3.56143,-4.76902\
 N,0,0.18884,3.52893,-3.87371\C,0,-0.62441,2.49338,-3.98268\N,0,-0.2913
 4,1.21182,-3.61639\H,0,-0.97685,0.4818,-3.73519\C,0,0.93595,0.82823,-3
 .08489\O,0,1.13496,-0.35602,-2.7871\C,0,1.82018,1.92999,-2.96185\N,0,3
 .12277,1.99053,-2.48593\C,0,3.45081,3.24889,-2.6005\H,0,4.41755,3.6668
 2,-2.31764\H,0,3.17789,5.69012,-4.04771\H,0,1.5706,5.7469,-3.77503\H,0
 ,2.61475,5.97399,-2.54248\H,0,-4.5892,-2.79527,-5.17202\H,0,-5.04634,-
 2.71546,-3.47223\H,0,-4.33712,-1.30608,-4.2609\H,0,-1.25525,-5.66745,-
 3.22731\C,0,-1.4668,-4.60346,-3.33416\O,0,0.73508,-3.92152,-2.77401\C,
 0,-0.42198,-3.65464,-3.09771\H,0,-0.08442,-1.63614,-3.1017\N,0,-0.7957
 5,-2.33587,-3.26015\O,0,-2.27009,-0.67503,-3.73463\C,0,-2.03478,-1.864
 61,-3.6155\H,0,-3.51428,-4.85509,-3.87298\C,0,-2.68562,-4.17448,-3.682
 09\C,0,-4.32847,-2.38462,-4.20794\N,0,-2.98896,-2.84048,-3.82629\H,0,-
 4.03877,-0.33097,-10.03354\H,0,-3.32986,0.66138,-8.94967\H,0,-4.83876,
 0.1013,-8.67833\H,0,0.12837,-4.27751,-5.3298\H,0,-1.32477,-4.87132,-5.
 99754\N,0,-0.69468,-4.1044,-5.87088\C,0,-0.94197,-2.90456,-6.4004\C,0,
 -2.20092,-1.31887,-7.65033\N,0,-1.33695,-0.30734,-7.46384\H,0,0.4489,0
 .05558,-6.52593\C,0,-0.30298,-0.7066,-6.72599\N,0,-0.05349,-1.90788,-6
 .19471\H,0,-4.85154,-2.81875,-8.7351\C,0,-3.90555,-2.55574,-8.2609\N,0
 ,-3.16757,-3.38238,-7.5611\C,0,-2.08361,-2.61083,-7.16806\C,0,-3.94179
 ,-0.12115,-9.06063\N,0,-3.38057,-1.28999,-8.35574\\Version=EM64L-G16Re
 vA.03\State=1-A\HF=-2048.7385349\RMSD=7.607e-09\Dipole=-3.8471301,0.74
 59413,-1.3622767\Quadrupole=26.1917265,3.2497158,-29.4414424,20.668495
 8,12.4021451,6.2494768\PG=C01 [X(C23H27N17O3)]\\@


 MANHOOD BEGINS BY TRYING TO SHAVE FACE,
 AND ENDS BY TRYING TO SAVE FACE.
 Job cpu time:       0 days  5 hours 43 minutes  9.7 seconds.
 Elapsed time:       0 days  0 hours 11 minutes  4.7 seconds.
 File lengths (MBytes):  RWF=    298 Int=      0 D2E=      0 Chk=     33 Scr=      1
 Normal termination of Gaussian 16 at Tue Jan 23 05:39:46 2018.
