 Entering Gaussian System, Link 0=g16
 Input=str40.-20.-1.0.com
 Output=str40.-20.-1.0.log
 Initial command:
 /share/apps/g16/l1.exe "/state/partition1/scr/Gau-20458.inp" -scrdir="/state/partition1/scr/"
 Entering Link 1 = /share/apps/g16/l1.exe PID=     20459.
  
 Copyright (c) 1988,1990,1992,1993,1995,1998,2003,2009,2016,
            Gaussian, Inc.  All Rights Reserved.
  
 This is part of the Gaussian(R) 16 program.  It is based on
 the Gaussian(R) 09 system (copyright 2009, Gaussian, Inc.),
 the Gaussian(R) 03 system (copyright 2003, Gaussian, Inc.),
 the Gaussian(R) 98 system (copyright 1998, Gaussian, Inc.),
 the Gaussian(R) 94 system (copyright 1995, Gaussian, Inc.),
 the Gaussian 92(TM) system (copyright 1992, Gaussian, Inc.),
 the Gaussian 90(TM) system (copyright 1990, Gaussian, Inc.),
 the Gaussian 88(TM) system (copyright 1988, Gaussian, Inc.),
 the Gaussian 86(TM) system (copyright 1986, Carnegie Mellon
 University), and the Gaussian 82(TM) system (copyright 1983,
 Carnegie Mellon University). Gaussian is a federally registered
 trademark of Gaussian, Inc.
  
 This software contains proprietary and confidential information,
 including trade secrets, belonging to Gaussian, Inc.
  
 This software is provided under written license and may be
 used, copied, transmitted, or stored only in accord with that
 written license.
  
 The following legend is applicable only to US Government
 contracts under FAR:
  
                    RESTRICTED RIGHTS LEGEND
  
 Use, reproduction and disclosure by the US Government is
 subject to restrictions as set forth in subparagraphs (a)
 and (c) of the Commercial Computer Software - Restricted
 Rights clause in FAR 52.227-19.
  
 Gaussian, Inc.
 340 Quinnipiac St., Bldg. 40, Wallingford CT 06492
  
  
 ---------------------------------------------------------------
 Warning -- This program may not be used in any manner that
 competes with the business of Gaussian, Inc. or will provide
 assistance to any competitor of Gaussian, Inc.  The licensee
 of this program is prohibited from giving any competitor of
 Gaussian, Inc. access to this program.  By using this program,
 the user acknowledges that Gaussian, Inc. is engaged in the
 business of creating and licensing software in the field of
 computational chemistry and represents and warrants to the
 licensee that it is not a competitor of Gaussian, Inc. and that
 it will not use this program in any manner prohibited above.
 ---------------------------------------------------------------
  

 Cite this work as:
 Gaussian 16, Revision A.03,
 M. J. Frisch, G. W. Trucks, H. B. Schlegel, G. E. Scuseria, 
 M. A. Robb, J. R. Cheeseman, G. Scalmani, V. Barone, 
 G. A. Petersson, H. Nakatsuji, X. Li, M. Caricato, A. V. Marenich, 
 J. Bloino, B. G. Janesko, R. Gomperts, B. Mennucci, H. P. Hratchian, 
 J. V. Ortiz, A. F. Izmaylov, J. L. Sonnenberg, D. Williams-Young, 
 F. Ding, F. Lipparini, F. Egidi, J. Goings, B. Peng, A. Petrone, 
 T. Henderson, D. Ranasinghe, V. G. Zakrzewski, J. Gao, N. Rega, 
 G. Zheng, W. Liang, M. Hada, M. Ehara, K. Toyota, R. Fukuda, 
 J. Hasegawa, M. Ishida, T. Nakajima, Y. Honda, O. Kitao, H. Nakai, 
 T. Vreven, K. Throssell, J. A. Montgomery, Jr., J. E. Peralta, 
 F. Ogliaro, M. J. Bearpark, J. J. Heyd, E. N. Brothers, K. N. Kudin, 
 V. N. Staroverov, T. A. Keith, R. Kobayashi, J. Normand, 
 K. Raghavachari, A. P. Rendell, J. C. Burant, S. S. Iyengar, 
 J. Tomasi, M. Cossi, J. M. Millam, M. Klene, C. Adamo, R. Cammi, 
 J. W. Ochterski, R. L. Martin, K. Morokuma, O. Farkas, 
 J. B. Foresman, and D. J. Fox, Gaussian, Inc., Wallingford CT, 2016.
 
 ******************************************
 Gaussian 16:  EM64L-G16RevA.03 25-Dec-2016
                23-Jan-2018 
 ******************************************
 %nprocshared=32
 Will use up to   32 processors via shared memory.
 %mem=32GB
 %chk=allatoms_t.chk
 ---------------------------------------
 #p wb97xd/cc-pvdz sp scf=(maxcycles=20)
 ---------------------------------------
 1/38=1,172=1/1;
 2/12=2,17=6,18=5,40=1/2;
 3/5=16,11=2,25=1,30=1,74=-58/1,2,3;
 4//1;
 5/5=2,7=20,38=5/2;
 6/7=2,8=2,9=2,10=2,28=1/1;
 99/5=1,9=1/99;
 Leave Link    1 at Tue Jan 23 05:39:46 2018, MaxMem=  4294967296 cpu:               4.1 elap:               0.1
 (Enter /share/apps/g16/l101.exe)
 ------------------
 Base pair stacking
 ------------------
 Symbolic Z-matrix:
 Charge =  0 Multiplicity = 1
 N                     4.3157    4.54328  -7.92625 
 C                     5.25465   5.67838  -8.01517 
 C                     2.56717   3.28567  -7.48084 
 N                     3.45604   2.48125  -8.1791 
 C                     4.47388   3.2711   -8.41949 
 H                     5.37487   2.97503  -8.95755 
 N                     0.67592   4.0581   -6.30209 
 C                     1.30142   5.23712  -6.22313 
 H                     0.75416   6.01969  -5.69933 
 N                     2.49582   5.59293  -6.69185 
 C                     3.08325   4.55943  -7.31733 
 C                     1.29329   3.03835  -6.93774 
 N                     0.67051   1.86066  -7.0176 
 H                     1.08999   1.07802  -7.47883 
 H                    -0.23608   1.72059  -6.61933 
 H                     5.42769   5.89512  -8.97603 
 H                     4.85878   6.47578  -7.56067 
 H                     6.11649   5.43647  -7.5694 
 N                     1.78206   5.43562  -3.38662 
 C                     0.72574   4.5898   -3.14816 
 C                     1.73253   6.90892  -3.29934 
 N                    -2.60354   4.10415  -2.28691 
 H                    -3.2277    3.33378  -2.15963 
 H                    -2.97793   5.0203   -2.14124 
 N                    -0.52483   4.95955  -2.79688 
 C                    -1.32192   3.91803  -2.63722 
 N                    -0.92652   2.61342  -2.80803 
 H                    -1.60419   1.8805   -2.66462 
 C                     0.35505   2.20976  -3.16927 
 O                     0.60823   1.00549  -3.29719 
 C                     1.22269   3.31766  -3.34435 
 N                     2.56399   3.36388  -3.69885 
 C                     2.85154   4.63721  -3.71129 
 H                     3.83194   5.0501   -3.95134 
 H                     1.96557   7.30508  -4.18678 
 H                     0.81094   7.19452  -3.03981 
 H                     2.38464   7.22584  -2.6115 
 H                    -5.60029  -1.2547   -2.43133 
 H                    -4.99706  -1.56689  -0.80551 
 H                    -4.77298   0.02184  -1.53838 
 H                    -1.95585  -4.24166  -3.40228 
 C                    -2.11824  -3.19585  -3.14121 
 O                     0.04847  -2.5009   -3.81169 
 C                    -1.06475  -2.25023  -3.35051 
 H                    -0.655    -0.25842  -3.12009 
 N                    -1.3744   -0.95517  -2.98695 
 O                    -2.73935   0.66523  -2.16938 
 C                    -2.55897  -0.50404  -2.46082 
 H                    -4.1175   -3.4653   -2.45117 
 C                    -3.28489  -2.78615  -2.62968 
 C                    -4.8083   -1.04044  -1.72925 
 N                    -3.52549  -1.47534  -2.28871 
 H                    -6.55779   3.61874  -3.11419 
 H                    -5.02213   3.87664  -2.62702 
 H                    -5.96552   2.81419  -1.82371 
 H                    -1.922    -0.74414  -6.92737 
 H                    -3.50227  -1.22501  -6.50121 
 N                    -2.76408  -0.55413  -6.42244 
 C                    -2.8977    0.54474  -5.67691 
 C                    -4.04837   2.03424  -4.22121 
 N                    -3.04032   2.91778  -4.13394 
 H                    -1.13639   3.1758   -4.84745 
 C                    -2.00136   2.51409  -4.8623 
 N                    -1.86559   1.41383  -5.60968 
 H                    -6.97423   0.77887  -3.65947 
 C                    -5.95832   0.97977  -4.00082 
 N                    -5.27312   0.20001  -4.80091 
 C                    -4.06015   0.85696  -4.9488 
 C                    -5.74298   3.19087  -2.72303 
 N                    -5.27808   2.1076   -3.61094 
 
 ITRead=  0  0  0  0  0  0  0  0  0  0  0  0  0  0  0  0  0  0  0  0
 ITRead=  0  0  0  0  0  0  0  0  0  0  0  0  0  0  0  0  0  0  0  0
 ITRead=  0  0  0  0  0  0  0  0  0  0  0  0  0  0  0  0  0  0  0  0
 ITRead=  0  0  0  0  0  0  0  0  0  0
 MicOpt= -1 -1 -1 -1 -1 -1 -1 -1 -1 -1 -1 -1 -1 -1 -1 -1 -1 -1 -1 -1
 MicOpt= -1 -1 -1 -1 -1 -1 -1 -1 -1 -1 -1 -1 -1 -1 -1 -1 -1 -1 -1 -1
 MicOpt= -1 -1 -1 -1 -1 -1 -1 -1 -1 -1 -1 -1 -1 -1 -1 -1 -1 -1 -1 -1
 MicOpt= -1 -1 -1 -1 -1 -1 -1 -1 -1 -1
 NAtoms=     70 NQM=       70 NQMF=       0 NMMI=      0 NMMIF=      0
                NMic=       0 NMicF=      0.
                    Isotopes and Nuclear Properties:
 (Nuclear quadrupole moments (NQMom) in fm**2, nuclear magnetic moments (NMagM)
  in nuclear magnetons)

  Atom         1           2           3           4           5           6           7           8           9          10
 IAtWgt=          14          12          12          14          12           1          14          12           1          14
 AtmWgt=  14.0030740  12.0000000  12.0000000  14.0030740  12.0000000   1.0078250  14.0030740  12.0000000   1.0078250  14.0030740
 NucSpn=           2           0           0           2           0           1           2           0           1           2
 AtZEff=  -0.0000000  -0.0000000  -0.0000000  -0.0000000  -0.0000000  -0.0000000  -0.0000000  -0.0000000  -0.0000000  -0.0000000
 NQMom=    2.0440000   0.0000000   0.0000000   2.0440000   0.0000000   0.0000000   2.0440000   0.0000000   0.0000000   2.0440000
 NMagM=    0.4037610   0.0000000   0.0000000   0.4037610   0.0000000   2.7928460   0.4037610   0.0000000   2.7928460   0.4037610
 AtZNuc=   7.0000000   6.0000000   6.0000000   7.0000000   6.0000000   1.0000000   7.0000000   6.0000000   1.0000000   7.0000000

  Atom        11          12          13          14          15          16          17          18          19          20
 IAtWgt=          12          12          14           1           1           1           1           1          14          12
 AtmWgt=  12.0000000  12.0000000  14.0030740   1.0078250   1.0078250   1.0078250   1.0078250   1.0078250  14.0030740  12.0000000
 NucSpn=           0           0           2           1           1           1           1           1           2           0
 AtZEff=  -0.0000000  -0.0000000  -0.0000000  -0.0000000  -0.0000000  -0.0000000  -0.0000000  -0.0000000  -0.0000000  -0.0000000
 NQMom=    0.0000000   0.0000000   2.0440000   0.0000000   0.0000000   0.0000000   0.0000000   0.0000000   2.0440000   0.0000000
 NMagM=    0.0000000   0.0000000   0.4037610   2.7928460   2.7928460   2.7928460   2.7928460   2.7928460   0.4037610   0.0000000
 AtZNuc=   6.0000000   6.0000000   7.0000000   1.0000000   1.0000000   1.0000000   1.0000000   1.0000000   7.0000000   6.0000000

  Atom        21          22          23          24          25          26          27          28          29          30
 IAtWgt=          12          14           1           1          14          12          14           1          12          16
 AtmWgt=  12.0000000  14.0030740   1.0078250   1.0078250  14.0030740  12.0000000  14.0030740   1.0078250  12.0000000  15.9949146
 NucSpn=           0           2           1           1           2           0           2           1           0           0
 AtZEff=  -0.0000000  -0.0000000  -0.0000000  -0.0000000  -0.0000000  -0.0000000  -0.0000000  -0.0000000  -0.0000000  -0.0000000
 NQMom=    0.0000000   2.0440000   0.0000000   0.0000000   2.0440000   0.0000000   2.0440000   0.0000000   0.0000000   0.0000000
 NMagM=    0.0000000   0.4037610   2.7928460   2.7928460   0.4037610   0.0000000   0.4037610   2.7928460   0.0000000   0.0000000
 AtZNuc=   6.0000000   7.0000000   1.0000000   1.0000000   7.0000000   6.0000000   7.0000000   1.0000000   6.0000000   8.0000000

  Atom        31          32          33          34          35          36          37          38          39          40
 IAtWgt=          12          14          12           1           1           1           1           1           1           1
 AtmWgt=  12.0000000  14.0030740  12.0000000   1.0078250   1.0078250   1.0078250   1.0078250   1.0078250   1.0078250   1.0078250
 NucSpn=           0           2           0           1           1           1           1           1           1           1
 AtZEff=  -0.0000000  -0.0000000  -0.0000000  -0.0000000  -0.0000000  -0.0000000  -0.0000000  -0.0000000  -0.0000000  -0.0000000
 NQMom=    0.0000000   2.0440000   0.0000000   0.0000000   0.0000000   0.0000000   0.0000000   0.0000000   0.0000000   0.0000000
 NMagM=    0.0000000   0.4037610   0.0000000   2.7928460   2.7928460   2.7928460   2.7928460   2.7928460   2.7928460   2.7928460
 AtZNuc=   6.0000000   7.0000000   6.0000000   1.0000000   1.0000000   1.0000000   1.0000000   1.0000000   1.0000000   1.0000000

  Atom        41          42          43          44          45          46          47          48          49          50
 IAtWgt=           1          12          16          12           1          14          16          12           1          12
 AtmWgt=   1.0078250  12.0000000  15.9949146  12.0000000   1.0078250  14.0030740  15.9949146  12.0000000   1.0078250  12.0000000
 NucSpn=           1           0           0           0           1           2           0           0           1           0
 AtZEff=  -0.0000000  -0.0000000  -0.0000000  -0.0000000  -0.0000000  -0.0000000  -0.0000000  -0.0000000  -0.0000000  -0.0000000
 NQMom=    0.0000000   0.0000000   0.0000000   0.0000000   0.0000000   2.0440000   0.0000000   0.0000000   0.0000000   0.0000000
 NMagM=    2.7928460   0.0000000   0.0000000   0.0000000   2.7928460   0.4037610   0.0000000   0.0000000   2.7928460   0.0000000
 AtZNuc=   1.0000000   6.0000000   8.0000000   6.0000000   1.0000000   7.0000000   8.0000000   6.0000000   1.0000000   6.0000000

  Atom        51          52          53          54          55          56          57          58          59          60
 IAtWgt=          12          14           1           1           1           1           1          14          12          12
 AtmWgt=  12.0000000  14.0030740   1.0078250   1.0078250   1.0078250   1.0078250   1.0078250  14.0030740  12.0000000  12.0000000
 NucSpn=           0           2           1           1           1           1           1           2           0           0
 AtZEff=  -0.0000000  -0.0000000  -0.0000000  -0.0000000  -0.0000000  -0.0000000  -0.0000000  -0.0000000  -0.0000000  -0.0000000
 NQMom=    0.0000000   2.0440000   0.0000000   0.0000000   0.0000000   0.0000000   0.0000000   2.0440000   0.0000000   0.0000000
 NMagM=    0.0000000   0.4037610   2.7928460   2.7928460   2.7928460   2.7928460   2.7928460   0.4037610   0.0000000   0.0000000
 AtZNuc=   6.0000000   7.0000000   1.0000000   1.0000000   1.0000000   1.0000000   1.0000000   7.0000000   6.0000000   6.0000000

  Atom        61          62          63          64          65          66          67          68          69          70
 IAtWgt=          14           1          12          14           1          12          14          12          12          14
 AtmWgt=  14.0030740   1.0078250  12.0000000  14.0030740   1.0078250  12.0000000  14.0030740  12.0000000  12.0000000  14.0030740
 NucSpn=           2           1           0           2           1           0           2           0           0           2
 AtZEff=  -0.0000000  -0.0000000  -0.0000000  -0.0000000  -0.0000000  -0.0000000  -0.0000000  -0.0000000  -0.0000000  -0.0000000
 NQMom=    2.0440000   0.0000000   0.0000000   2.0440000   0.0000000   0.0000000   2.0440000   0.0000000   0.0000000   2.0440000
 NMagM=    0.4037610   2.7928460   0.0000000   0.4037610   2.7928460   0.0000000   0.4037610   0.0000000   0.0000000   0.4037610
 AtZNuc=   7.0000000   1.0000000   6.0000000   7.0000000   1.0000000   6.0000000   7.0000000   6.0000000   6.0000000   7.0000000
 Leave Link  101 at Tue Jan 23 05:39:46 2018, MaxMem=  4294967296 cpu:               7.8 elap:               0.3
 (Enter /share/apps/g16/l202.exe)
 Stoichiometry    C23H27N17O3
 Framework group  C1[X(C23H27N17O3)]
 Deg. of freedom   204
 Full point group                 C1      NOp   1
 Largest Abelian subgroup         C1      NOp   1
 Largest concise Abelian subgroup C1      NOp   1
                         Standard orientation:                         
 ---------------------------------------------------------------------
 Center     Atomic      Atomic             Coordinates (Angstroms)
 Number     Number       Type             X           Y           Z
 ---------------------------------------------------------------------
      1          7           0       -6.335791   -1.441208    0.674501
      2          6           0       -7.696106   -0.900394    0.487288
      3          6           0       -4.164498   -1.624998    0.972893
      4          7           0       -4.658019   -2.919872    0.905914
      5          6           0       -5.946376   -2.757322    0.728822
      6          1           0       -6.666142   -3.570471    0.630460
      7          7           0       -2.717466    0.227020    1.170519
      8          6           0       -3.802404    0.993912    1.020992
      9          1           0       -3.619996    2.067415    1.045373
     10          7           0       -5.072865    0.635530    0.846688
     11          6           0       -5.186875   -0.702829    0.831868
     12          6           0       -2.865364   -1.115677    1.151045
     13          7           0       -1.783539   -1.882887    1.300146
     14          1           0       -1.846088   -2.881509    1.292177
     15          1           0       -0.874165   -1.485847    1.424813
     16          1           0       -8.286871   -1.215930    1.229989
     17          1           0       -7.661933    0.098579    0.491351
     18          1           0       -8.065167   -1.216028   -0.386879
     19          7           0       -3.267259    2.244446   -1.521839
     20          6           0       -1.920043    2.049534   -1.334480
     21          6           0       -3.992449    3.503537   -1.258259
     22          7           0        1.190055    3.262752   -0.376821
     23          1           0        2.127093    2.920757   -0.311674
     24          1           0        1.033957    4.212916   -0.105637
     25          7           0       -1.039526    2.968108   -0.881764
     26          6           0        0.187206    2.482991   -0.808301
     27          7           0        0.527685    1.196972   -1.151455
     28          1           0        1.491133    0.912416   -1.063303
     29          6           0       -0.361768    0.234883   -1.619554
     30          8           0        0.048477   -0.897806   -1.901413
     31          6           0       -1.683628    0.741311   -1.703871
     32          7           0       -2.858757    0.127263   -2.114857
     33          6           0       -3.769011    1.054682   -1.990203
     34          1           0       -4.825494    0.923637   -2.226759
     35          1           0       -4.699607    3.345047   -0.570067
     36          1           0       -3.350400    4.191462   -0.922427
     37          1           0       -4.416450    3.828975   -2.102725
     38          1           0        6.314971   -0.070647    0.208268
     39          1           0        6.601050    0.178017   -1.512477
     40          1           0        5.312969    1.064688   -0.696367
     41          1           0        4.796832   -4.281756   -1.554807
     42          6           0        4.450042   -3.252347   -1.463704
     43          8           0        2.182646   -3.781880   -1.917182
     44          6           0        3.061571   -2.961967   -1.652579
     45          1           0        1.757179   -1.385029   -1.641540
     46          7           0        2.729340   -1.629302   -1.515224
     47          8           0        3.189016    0.559678   -1.122456
     48          6           0        3.577807   -0.590620   -1.224057
     49          1           0        6.367216   -2.428583   -1.025919
     50          6           0        5.301962   -2.260571   -1.178745
     51          6           0        5.844565    0.125919   -0.743652
     52          7           0        4.900485   -0.950546   -1.056179
     53          1           0        4.176492    3.952839    2.299198
     54          1           0        3.038307    3.815456    1.138268
     55          1           0        4.617005    3.654259    0.756402
     56          1           0        1.631876   -3.013594    2.055577
     57          1           0        3.249216   -2.634223    2.443378
     58          7           0        2.352039   -2.323428    2.127641
     59          6           0        2.127034   -1.045184    1.816756
     60          6           0        2.720674    1.242846    1.544314
     61          7           0        1.505862    1.631613    1.122986
     62          1           0       -0.340715    0.823136    0.752667
     63          6           0        0.671058    0.594994    1.085114
     64          7           0        0.894512   -0.686000    1.396086
     65          1           0        5.831053    1.546041    2.372428
     66          6           0        4.825676    1.183792    2.155760
     67          7           0        4.438142   -0.061444    2.285661
     68          6           0        3.105336   -0.037854    1.901184
     69          6           0        3.924137    3.478441    1.455838
     70          7           0        3.837144    2.027492    1.711116
 ---------------------------------------------------------------------
 Rotational constants (GHZ):           0.1499664           0.0554326           0.0499248
 Leave Link  202 at Tue Jan 23 05:39:46 2018, MaxMem=  4294967296 cpu:               0.4 elap:               0.0
 (Enter /share/apps/g16/l301.exe)
 Standard basis: CC-pVDZ (5D, 7F)
 Ernie: Thresh=  0.10000D-02 Tol=  0.10000D-05 Strict=F.
 Ernie:  86 primitive shells out of 1081 were deleted.
 There are   780 symmetry adapted cartesian basis functions of A   symmetry.
 There are   737 symmetry adapted basis functions of A   symmetry.
   737 basis functions,  1608 primitive gaussians,   780 cartesian basis functions
   154 alpha electrons      154 beta electrons
       nuclear repulsion energy      5581.2031510876 Hartrees.
 IExCor= 4639 DFT=T Ex+Corr=wB97XD ExCW=0 ScaHFX=  1.000000
 ScaDFX=  1.000000  1.000000  1.000000  1.000000 ScalE2=  1.000000  1.000000
 IRadAn=      5 IRanWt=     -1 IRanGd=            0 ICorTp=0 IEmpDi=121
 HFx  wShort=  0.000000 wLong=  0.200000 cFull=  0.222036 cShort=  0.000000 cLong=  0.777964
 DFx  wShort=  0.000000 wLong=  0.200000 cFull=  0.000000 cShort=  0.000000 cLong=  1.000000
 NAtoms=   70 NActive=   70 NUniq=   70 SFac= 1.00D+00 NAtFMM=   60 NAOKFM=T Big=T
 Integral buffers will be    131072 words long.
 Raffenetti 2 integral format.
 Two-electron integral symmetry is turned on.
 R6Disp:  Grimme-D2 Dispersion energy=       -0.0755740166 Hartrees.
 Nuclear repulsion after empirical dispersion term =     5581.1275770710 Hartrees.
 Leave Link  301 at Tue Jan 23 05:39:46 2018, MaxMem=  4294967296 cpu:               3.0 elap:               0.1
 (Enter /share/apps/g16/l302.exe)
 NPDir=0 NMtPBC=     1 NCelOv=     1 NCel=       1 NClECP=     1 NCelD=      1
         NCelK=      1 NCelE2=     1 NClLst=     1 CellRange=     0.0.
 One-electron integrals computed using PRISM.
 One-electron integral symmetry used in STVInt
 NBasis=   737 RedAO= T EigKep=  7.09D-04  NBF=   737
 NBsUse=   737 1.00D-06 EigRej= -1.00D+00 NBFU=   737
 Precomputing XC quadrature grid using
 IXCGrd= 4 IRadAn=           5 IRanWt=          -1 IRanGd=           0 AccXCQ= 0.00D+00.
 Generated NRdTot=       0 NPtTot=           0 NUsed=           0 NTot=          32
 NSgBfM=   769   769   769   769   769 MxSgAt=    70 MxSgA2=    70.
 Leave Link  302 at Tue Jan 23 05:39:51 2018, MaxMem=  4294967296 cpu:             136.4 elap:               4.3
 (Enter /share/apps/g16/l303.exe)
 DipDrv:  MaxL=1.
 Leave Link  303 at Tue Jan 23 05:39:51 2018, MaxMem=  4294967296 cpu:              20.6 elap:               0.7
 (Enter /share/apps/g16/l401.exe)
 ExpMin= 1.22D-01 ExpMax= 1.17D+04 ExpMxC= 4.01D+02 IAcc=3 IRadAn=         5 AccDes= 0.00D+00
 Harris functional with IExCor= 4639 and IRadAn=       5 diagonalized for initial guess.
 HarFok:  IExCor= 4639 AccDes= 0.00D+00 IRadAn=         5 IDoV= 1 UseB2=F ITyADJ=14
 ICtDFT=  3500011 ScaDFX=  1.000000  1.000000  1.000000  1.000000
 FoFCou: FMM=F IPFlag=           0 FMFlag=      100000 FMFlg1=        2001
         NFxFlg=           0 DoJE=T BraDBF=F KetDBF=T FulRan=T
         wScrn=  0.000000 ICntrl=       500 IOpCl=  0 I1Cent=   200000004 NGrid=           0
         NMat0=    1 NMatS0=      1 NMatT0=    0 NMatD0=    1 NMtDS0=    0 NMtDT0=    0
 Petite list used in FoFCou.
 Harris En= -1963.78906356733    
 JPrj=0 DoOrth=F DoCkMO=F.
 Leave Link  401 at Tue Jan 23 05:40:04 2018, MaxMem=  4294967296 cpu:             407.5 elap:              12.8
 (Enter /share/apps/g16/l502.exe)
 Integral symmetry usage will be decided dynamically.
 Closed shell SCF:
 Using DIIS extrapolation, IDIIS=  1040.
 NGot=  4294967296 LenX=  4293717438 LenY=  4293108258
 Requested convergence on RMS density matrix=1.00D-08 within  20 cycles.
 Requested convergence on MAX density matrix=1.00D-06.
 Requested convergence on             energy=1.00D-06.
 No special actions if energy rises.
 Fock matrices will be formed incrementally for  20 cycles.
 Integral accuracy reduced to 1.0D-05 until final iterations.

 Cycle   1  Pass 0  IDiag  1:
 FoFJK:  IHMeth= 1 ICntrl=       0 DoSepK=T KAlg= 0 I1Cent=           0 FoldK=F
 IRaf=         1 NMat=       1 IRICut=       1 DoRegI=T DoRafI=F ISym2E= 0 IDoP0=0 IntGTp=1.
 FoFCou: FMM=T IPFlag=           0 FMFlag=      100000 FMFlg1=        2001
         NFxFlg=           0 DoJE=T BraDBF=F KetDBF=F FulRan=T
         wScrn=  0.000000 ICntrl=       500 IOpCl=  0 I1Cent=           0 NGrid=           0
         NMat0=    1 NMatS0=      1 NMatT0=    0 NMatD0=    1 NMtDS0=    0 NMtDT0=    0
 Symmetry not used in FoFCou.
 FMM levels:  10  Number of levels for PrismC:   9
 E= -2048.24544006977    
 DIIS: error= 2.27D-02 at cycle   1 NSaved=   1.
 NSaved= 1 IEnMin= 1 EnMin= -2048.24544006977     IErMin= 1 ErrMin= 2.27D-02
 ErrMax= 2.27D-02  0.00D+00 EMaxC= 1.00D-01 BMatC= 8.26D-01 BMatP= 8.26D-01
 IDIUse=3 WtCom= 7.73D-01 WtEn= 2.27D-01
 Coeff-Com:  0.100D+01
 Coeff-En:   0.100D+01
 Coeff:      0.100D+01
 Gap=     0.261 Goal=   None    Shift=    0.000
 GapD=    0.261 DampG=1.000 DampE=0.500 DampFc=0.5000 IDamp=-1.
 Damping current iteration by 5.00D-01
 RMSDP=1.56D-03 MaxDP=1.30D-01              OVMax= 1.62D-01

 Cycle   2  Pass 0  IDiag  1:
 RMSU=  7.82D-04    CP:  9.97D-01
 E= -2048.44118576035     Delta-E=       -0.195745690571 Rises=F Damp=T
 DIIS: error= 1.27D-02 at cycle   2 NSaved=   2.
 NSaved= 2 IEnMin= 2 EnMin= -2048.44118576035     IErMin= 2 ErrMin= 1.27D-02
 ErrMax= 1.27D-02  0.00D+00 EMaxC= 1.00D-01 BMatC= 1.44D-01 BMatP= 8.26D-01
 IDIUse=3 WtCom= 8.73D-01 WtEn= 1.27D-01
 Coeff-Com: -0.202D+00 0.120D+01
 Coeff-En:   0.000D+00 0.100D+01
 Coeff:     -0.177D+00 0.118D+01
 Gap=     0.353 Goal=   None    Shift=    0.000
 RMSDP=5.85D-04 MaxDP=3.41D-02 DE=-1.96D-01 OVMax= 1.54D-01

 Cycle   3  Pass 0  IDiag  1:
 RMSU=  5.72D-04    CP:  9.94D-01  1.14D+00
 E= -2048.62007118418     Delta-E=       -0.178885423834 Rises=F Damp=F
 DIIS: error= 5.94D-03 at cycle   3 NSaved=   3.
 NSaved= 3 IEnMin= 3 EnMin= -2048.62007118418     IErMin= 3 ErrMin= 5.94D-03
 ErrMax= 5.94D-03  0.00D+00 EMaxC= 1.00D-01 BMatC= 6.05D-02 BMatP= 1.44D-01
 IDIUse=3 WtCom= 9.41D-01 WtEn= 5.94D-02
 Coeff-Com: -0.232D+00 0.545D+00 0.687D+00
 Coeff-En:   0.000D+00 0.000D+00 0.100D+01
 Coeff:     -0.218D+00 0.513D+00 0.706D+00
 Gap=     0.273 Goal=   None    Shift=    0.000
 RMSDP=3.46D-04 MaxDP=3.36D-02 DE=-1.79D-01 OVMax= 7.53D-02

 Cycle   4  Pass 0  IDiag  1:
 RMSU=  2.01D-04    CP:  9.94D-01  1.42D+00  6.88D-01
 E= -2048.66620726410     Delta-E=       -0.046136079918 Rises=F Damp=F
 DIIS: error= 2.38D-03 at cycle   4 NSaved=   4.
 NSaved= 4 IEnMin= 4 EnMin= -2048.66620726410     IErMin= 4 ErrMin= 2.38D-03
 ErrMax= 2.38D-03  0.00D+00 EMaxC= 1.00D-01 BMatC= 8.25D-03 BMatP= 6.05D-02
 IDIUse=3 WtCom= 9.76D-01 WtEn= 2.38D-02
 Coeff-Com: -0.986D-01 0.191D+00 0.377D+00 0.531D+00
 Coeff-En:   0.000D+00 0.000D+00 0.457D-01 0.954D+00
 Coeff:     -0.962D-01 0.187D+00 0.369D+00 0.541D+00
 Gap=     0.277 Goal=   None    Shift=    0.000
 RMSDP=1.23D-04 MaxDP=1.19D-02 DE=-4.61D-02 OVMax= 1.36D-02

 Cycle   5  Pass 0  IDiag  1:
 RMSU=  6.23D-05    CP:  9.93D-01  1.40D+00  8.12D-01  6.17D-01
 E= -2048.67301759448     Delta-E=       -0.006810330380 Rises=F Damp=F
 DIIS: error= 5.67D-04 at cycle   5 NSaved=   5.
 NSaved= 5 IEnMin= 5 EnMin= -2048.67301759448     IErMin= 5 ErrMin= 5.67D-04
 ErrMax= 5.67D-04  0.00D+00 EMaxC= 1.00D-01 BMatC= 2.77D-04 BMatP= 8.25D-03
 IDIUse=3 WtCom= 9.94D-01 WtEn= 5.67D-03
 Coeff-Com: -0.247D-01 0.424D-01 0.117D+00 0.235D+00 0.631D+00
 Coeff-En:   0.000D+00 0.000D+00 0.000D+00 0.000D+00 0.100D+01
 Coeff:     -0.246D-01 0.422D-01 0.116D+00 0.233D+00 0.633D+00
 Gap=     0.277 Goal=   None    Shift=    0.000
 RMSDP=2.61D-05 MaxDP=1.94D-03 DE=-6.81D-03 OVMax= 3.31D-03

 Failed to achieve initial convergence to 1.0D-08 in  6 cycles.
 Switch to full accuracy anyway.
 Cycle   6  Pass 1  IDiag  1:
 E= -2048.67330309603     Delta-E=       -0.000285501548 Rises=F Damp=F
 DIIS: error= 2.53D-04 at cycle   1 NSaved=   1.
 NSaved= 1 IEnMin= 1 EnMin= -2048.67330309603     IErMin= 1 ErrMin= 2.53D-04
 ErrMax= 2.53D-04  0.00D+00 EMaxC= 1.00D-01 BMatC= 7.77D-05 BMatP= 7.77D-05
 IDIUse=3 WtCom= 9.97D-01 WtEn= 2.53D-03
 Coeff-Com:  0.100D+01
 Coeff-En:   0.100D+01
 Coeff:      0.100D+01
 Gap=     0.277 Goal=   None    Shift=    0.000
 RMSDP=2.61D-05 MaxDP=1.94D-03 DE=-2.86D-04 OVMax= 2.67D-03

 Cycle   7  Pass 1  IDiag  1:
 RMSU=  1.13D-04    CP:  1.00D+00
 E= -2048.67336081304     Delta-E=       -0.000057717009 Rises=F Damp=F
 DIIS: error= 2.38D-04 at cycle   2 NSaved=   2.
 NSaved= 2 IEnMin= 2 EnMin= -2048.67336081304     IErMin= 2 ErrMin= 2.38D-04
 ErrMax= 2.38D-04  0.00D+00 EMaxC= 1.00D-01 BMatC= 4.20D-05 BMatP= 7.77D-05
 IDIUse=3 WtCom= 9.98D-01 WtEn= 2.38D-03
 Coeff-Com:  0.396D+00 0.604D+00
 Coeff-En:   0.000D+00 0.100D+01
 Coeff:      0.395D+00 0.605D+00
 Gap=     0.277 Goal=   None    Shift=    0.000
 RMSDP=1.14D-05 MaxDP=1.15D-03 DE=-5.77D-05 OVMax= 1.49D-03

 Cycle   8  Pass 1  IDiag  1:
 RMSU=  1.10D-05    CP:  1.00D+00  1.03D+00
 E= -2048.67339081372     Delta-E=       -0.000030000688 Rises=F Damp=F
 DIIS: error= 1.03D-04 at cycle   3 NSaved=   3.
 NSaved= 3 IEnMin= 3 EnMin= -2048.67339081372     IErMin= 3 ErrMin= 1.03D-04
 ErrMax= 1.03D-04  0.00D+00 EMaxC= 1.00D-01 BMatC= 1.07D-05 BMatP= 4.20D-05
 IDIUse=3 WtCom= 9.99D-01 WtEn= 1.03D-03
 Coeff-Com: -0.189D-01 0.323D+00 0.696D+00
 Coeff-En:   0.000D+00 0.148D+00 0.852D+00
 Coeff:     -0.189D-01 0.323D+00 0.696D+00
 Gap=     0.277 Goal=   None    Shift=    0.000
 RMSDP=5.65D-06 MaxDP=4.84D-04 DE=-3.00D-05 OVMax= 5.48D-04

 Cycle   9  Pass 1  IDiag  1:
 RMSU=  3.86D-06    CP:  1.00D+00  1.05D+00  7.58D-01
 E= -2048.67340075342     Delta-E=       -0.000009939701 Rises=F Damp=F
 DIIS: error= 2.74D-05 at cycle   4 NSaved=   4.
 NSaved= 4 IEnMin= 4 EnMin= -2048.67340075342     IErMin= 4 ErrMin= 2.74D-05
 ErrMax= 2.74D-05  0.00D+00 EMaxC= 1.00D-01 BMatC= 5.17D-07 BMatP= 1.07D-05
 IDIUse=1 WtCom= 1.00D+00 WtEn= 0.00D+00
 Coeff-Com: -0.295D-01 0.899D-01 0.260D+00 0.679D+00
 Coeff:     -0.295D-01 0.899D-01 0.260D+00 0.679D+00
 Gap=     0.277 Goal=   None    Shift=    0.000
 RMSDP=1.45D-06 MaxDP=1.46D-04 DE=-9.94D-06 OVMax= 5.18D-04

 Cycle  10  Pass 1  IDiag  1:
 RMSU=  1.30D-06    CP:  1.00D+00  1.06D+00  7.93D-01  1.10D+00
 E= -2048.67340160143     Delta-E=       -0.000000848006 Rises=F Damp=F
 DIIS: error= 1.54D-05 at cycle   5 NSaved=   5.
 NSaved= 5 IEnMin= 5 EnMin= -2048.67340160143     IErMin= 5 ErrMin= 1.54D-05
 ErrMax= 1.54D-05  0.00D+00 EMaxC= 1.00D-01 BMatC= 1.22D-07 BMatP= 5.17D-07
 IDIUse=1 WtCom= 1.00D+00 WtEn= 0.00D+00
 Coeff-Com: -0.257D-02-0.592D-01-0.121D+00 0.203D+00 0.980D+00
 Coeff:     -0.257D-02-0.592D-01-0.121D+00 0.203D+00 0.980D+00
 Gap=     0.277 Goal=   None    Shift=    0.000
 RMSDP=1.23D-06 MaxDP=7.38D-05 DE=-8.48D-07 OVMax= 2.44D-04

 Cycle  11  Pass 1  IDiag  1:
 RMSU=  5.06D-07    CP:  1.00D+00  1.06D+00  8.06D-01  1.38D+00  1.18D+00
 E= -2048.67340186521     Delta-E=       -0.000000263779 Rises=F Damp=F
 DIIS: error= 6.91D-06 at cycle   6 NSaved=   6.
 NSaved= 6 IEnMin= 6 EnMin= -2048.67340186521     IErMin= 6 ErrMin= 6.91D-06
 ErrMax= 6.91D-06  0.00D+00 EMaxC= 1.00D-01 BMatC= 2.90D-08 BMatP= 1.22D-07
 IDIUse=1 WtCom= 1.00D+00 WtEn= 0.00D+00
 Coeff-Com:  0.453D-02-0.479D-01-0.114D+00-0.224D-03 0.525D+00 0.632D+00
 Coeff:      0.453D-02-0.479D-01-0.114D+00-0.224D-03 0.525D+00 0.632D+00
 Gap=     0.277 Goal=   None    Shift=    0.000
 RMSDP=3.75D-07 MaxDP=3.80D-05 DE=-2.64D-07 OVMax= 1.31D-04

 Cycle  12  Pass 1  IDiag  1:
 RMSU=  1.86D-07    CP:  1.00D+00  1.06D+00  8.08D-01  1.45D+00  1.31D+00
                    CP:  9.28D-01
 E= -2048.67340190704     Delta-E=       -0.000000041829 Rises=F Damp=F
 DIIS: error= 1.54D-06 at cycle   7 NSaved=   7.
 NSaved= 7 IEnMin= 7 EnMin= -2048.67340190704     IErMin= 7 ErrMin= 1.54D-06
 ErrMax= 1.54D-06  0.00D+00 EMaxC= 1.00D-01 BMatC= 9.10D-10 BMatP= 2.90D-08
 IDIUse=1 WtCom= 1.00D+00 WtEn= 0.00D+00
 Coeff-Com:  0.122D-02-0.930D-02-0.235D-01-0.743D-02 0.751D-01 0.160D+00
 Coeff-Com:  0.804D+00
 Coeff:      0.122D-02-0.930D-02-0.235D-01-0.743D-02 0.751D-01 0.160D+00
 Coeff:      0.804D+00
 Gap=     0.277 Goal=   None    Shift=    0.000
 RMSDP=8.58D-08 MaxDP=4.81D-06 DE=-4.18D-08 OVMax= 2.13D-05

 Cycle  13  Pass 1  IDiag  1:
 RMSU=  5.27D-08    CP:  1.00D+00  1.06D+00  8.08D-01  1.46D+00  1.33D+00
                    CP:  1.02D+00  1.13D+00
 E= -2048.67340190880     Delta-E=       -0.000000001761 Rises=F Damp=F
 DIIS: error= 5.91D-07 at cycle   8 NSaved=   8.
 NSaved= 8 IEnMin= 8 EnMin= -2048.67340190880     IErMin= 8 ErrMin= 5.91D-07
 ErrMax= 5.91D-07  0.00D+00 EMaxC= 1.00D-01 BMatC= 3.75D-10 BMatP= 9.10D-10
 IDIUse=1 WtCom= 1.00D+00 WtEn= 0.00D+00
 Coeff-Com: -0.640D-03 0.864D-02 0.196D-01-0.247D-02-0.110D+00-0.896D-01
 Coeff-Com:  0.426D+00 0.749D+00
 Coeff:     -0.640D-03 0.864D-02 0.196D-01-0.247D-02-0.110D+00-0.896D-01
 Coeff:      0.426D+00 0.749D+00
 Gap=     0.277 Goal=   None    Shift=    0.000
 RMSDP=5.04D-08 MaxDP=2.88D-06 DE=-1.76D-09 OVMax= 1.11D-05

 Cycle  14  Pass 1  IDiag  1:
 RMSU=  3.00D-08    CP:  1.00D+00  1.06D+00  8.08D-01  1.46D+00  1.33D+00
                    CP:  1.06D+00  1.28D+00  1.04D+00
 E= -2048.67340190946     Delta-E=       -0.000000000663 Rises=F Damp=F
 DIIS: error= 2.05D-07 at cycle   9 NSaved=   9.
 NSaved= 9 IEnMin= 9 EnMin= -2048.67340190946     IErMin= 9 ErrMin= 2.05D-07
 ErrMax= 2.05D-07  0.00D+00 EMaxC= 1.00D-01 BMatC= 4.17D-11 BMatP= 3.75D-10
 IDIUse=1 WtCom= 1.00D+00 WtEn= 0.00D+00
 Coeff-Com: -0.445D-03 0.518D-02 0.121D-01 0.246D-03-0.589D-01-0.608D-01
 Coeff-Com:  0.906D-01 0.325D+00 0.687D+00
 Coeff:     -0.445D-03 0.518D-02 0.121D-01 0.246D-03-0.589D-01-0.608D-01
 Coeff:      0.906D-01 0.325D+00 0.687D+00
 Gap=     0.277 Goal=   None    Shift=    0.000
 RMSDP=1.54D-08 MaxDP=7.57D-07 DE=-6.63D-10 OVMax= 3.51D-06

 Cycle  15  Pass 1  IDiag  1:
 RMSU=  1.01D-08    CP:  1.00D+00  1.06D+00  8.08D-01  1.46D+00  1.34D+00
                    CP:  1.07D+00  1.31D+00  1.20D+00  1.10D+00
 E= -2048.67340190931     Delta-E=        0.000000000152 Rises=F Damp=F
 DIIS: error= 7.01D-08 at cycle  10 NSaved=  10.
 NSaved=10 IEnMin= 9 EnMin= -2048.67340190946     IErMin=10 ErrMin= 7.01D-08
 ErrMax= 7.01D-08  0.00D+00 EMaxC= 1.00D-01 BMatC= 5.80D-12 BMatP= 4.17D-11
 IDIUse=1 WtCom= 1.00D+00 WtEn= 0.00D+00
 Coeff-Com: -0.962D-05-0.162D-03-0.278D-03 0.223D-03 0.376D-02-0.107D-02
 Coeff-Com: -0.551D-01-0.516D-01 0.245D+00 0.859D+00
 Coeff:     -0.962D-05-0.162D-03-0.278D-03 0.223D-03 0.376D-02-0.107D-02
 Coeff:     -0.551D-01-0.516D-01 0.245D+00 0.859D+00
 Gap=     0.277 Goal=   None    Shift=    0.000
 RMSDP=7.84D-09 MaxDP=4.09D-07 DE= 1.52D-10 OVMax= 1.53D-06

 SCF Done:  E(RwB97XD) =  -2048.67340191     A.U. after   15 cycles
            NFock= 15  Conv=0.78D-08     -V/T= 2.0051
 KE= 2.038193728447D+03 PE=-1.594323630312D+04 EE= 6.275241595693D+03
 Leave Link  502 at Tue Jan 23 05:52:02 2018, MaxMem=  4294967296 cpu:           22271.2 elap:             717.8
 (Enter /share/apps/g16/l601.exe)
 Copying SCF densities to generalized density rwf, IOpCl= 0 IROHF=0.

 **********************************************************************

            Population analysis using the SCF density.

 **********************************************************************

 Orbital symmetries:
       Occupied  (A) (A) (A) (A) (A) (A) (A) (A) (A) (A) (A) (A)
                 (A) (A) (A) (A) (A) (A) (A) (A) (A) (A) (A) (A)
                 (A) (A) (A) (A) (A) (A) (A) (A) (A) (A) (A) (A)
                 (A) (A) (A) (A) (A) (A) (A) (A) (A) (A) (A) (A)
                 (A) (A) (A) (A) (A) (A) (A) (A) (A) (A) (A) (A)
                 (A) (A) (A) (A) (A) (A) (A) (A) (A) (A) (A) (A)
                 (A) (A) (A) (A) (A) (A) (A) (A) (A) (A) (A) (A)
                 (A) (A) (A) (A) (A) (A) (A) (A) (A) (A) (A) (A)
                 (A) (A) (A) (A) (A) (A) (A) (A) (A) (A) (A) (A)
                 (A) (A) (A) (A) (A) (A) (A) (A) (A) (A) (A) (A)
                 (A) (A) (A) (A) (A) (A) (A) (A) (A) (A) (A) (A)
                 (A) (A) (A) (A) (A) (A) (A) (A) (A) (A) (A) (A)
                 (A) (A) (A) (A) (A) (A) (A) (A) (A) (A)
       Virtual   (A) (A) (A) (A) (A) (A) (A) (A) (A) (A) (A) (A)
                 (A) (A) (A) (A) (A) (A) (A) (A) (A) (A) (A) (A)
                 (A) (A) (A) (A) (A) (A) (A) (A) (A) (A) (A) (A)
                 (A) (A) (A) (A) (A) (A) (A) (A) (A) (A) (A) (A)
                 (A) (A) (A) (A) (A) (A) (A) (A) (A) (A) (A) (A)
                 (A) (A) (A) (A) (A) (A) (A) (A) (A) (A) (A) (A)
                 (A) (A) (A) (A) (A) (A) (A) (A) (A) (A) (A) (A)
                 (A) (A) (A) (A) (A) (A) (A) (A) (A) (A) (A) (A)
                 (A) (A) (A) (A) (A) (A) (A) (A) (A) (A) (A) (A)
                 (A) (A) (A) (A) (A) (A) (A) (A) (A) (A) (A) (A)
                 (A) (A) (A) (A) (A) (A) (A) (A) (A) (A) (A) (A)
                 (A) (A) (A) (A) (A) (A) (A) (A) (A) (A) (A) (A)
                 (A) (A) (A) (A) (A) (A) (A) (A) (A) (A) (A) (A)
                 (A) (A) (A) (A) (A) (A) (A) (A) (A) (A) (A) (A)
                 (A) (A) (A) (A) (A) (A) (A) (A) (A) (A) (A) (A)
                 (A) (A) (A) (A) (A) (A) (A) (A) (A) (A) (A) (A)
                 (A) (A) (A) (A) (A) (A) (A) (A) (A) (A) (A) (A)
                 (A) (A) (A) (A) (A) (A) (A) (A) (A) (A) (A) (A)
                 (A) (A) (A) (A) (A) (A) (A) (A) (A) (A) (A) (A)
                 (A) (A) (A) (A) (A) (A) (A) (A) (A) (A) (A) (A)
                 (A) (A) (A) (A) (A) (A) (A) (A) (A) (A) (A) (A)
                 (A) (A) (A) (A) (A) (A) (A) (A) (A) (A) (A) (A)
                 (A) (A) (A) (A) (A) (A) (A) (A) (A) (A) (A) (A)
                 (A) (A) (A) (A) (A) (A) (A) (A) (A) (A) (A) (A)
                 (A) (A) (A) (A) (A) (A) (A) (A) (A) (A) (A) (A)
                 (A) (A) (A) (A) (A) (A) (A) (A) (A) (A) (A) (A)
                 (A) (A) (A) (A) (A) (A) (A) (A) (A) (A) (A) (A)
                 (A) (A) (A) (A) (A) (A) (A) (A) (A) (A) (A) (A)
                 (A) (A) (A) (A) (A) (A) (A) (A) (A) (A) (A) (A)
                 (A) (A) (A) (A) (A) (A) (A) (A) (A) (A) (A) (A)
                 (A) (A) (A) (A) (A) (A) (A) (A) (A) (A) (A) (A)
                 (A) (A) (A) (A) (A) (A) (A) (A) (A) (A) (A) (A)
                 (A) (A) (A) (A) (A) (A) (A) (A) (A) (A) (A) (A)
                 (A) (A) (A) (A) (A) (A) (A) (A) (A) (A) (A) (A)
                 (A) (A) (A) (A) (A) (A) (A) (A) (A) (A) (A) (A)
                 (A) (A) (A) (A) (A) (A) (A) (A) (A) (A) (A) (A)
                 (A) (A) (A) (A) (A) (A) (A) (A) (A) (A) (A) (A)
                 (A) (A) (A) (A) (A) (A) (A) (A) (A) (A) (A) (A)
                 (A) (A) (A) (A) (A) (A) (A) (A) (A) (A) (A) (A)
                 (A) (A) (A) (A) (A) (A) (A) (A) (A) (A) (A) (A)
                 (A) (A) (A) (A) (A) (A) (A) (A) (A) (A) (A) (A)
                 (A) (A) (A) (A) (A) (A) (A) (A) (A) (A) (A) (A)
                 (A) (A) (A) (A) (A) (A) (A) (A) (A) (A) (A) (A)
                 (A) (A) (A) (A) (A) (A) (A) (A) (A) (A) (A) (A)
                 (A) (A) (A) (A) (A) (A) (A) (A) (A) (A) (A) (A)
                 (A) (A) (A) (A) (A) (A) (A) (A) (A) (A) (A) (A)
                 (A) (A) (A) (A) (A) (A) (A) (A) (A) (A) (A) (A)
                 (A) (A) (A) (A) (A) (A) (A) (A) (A) (A) (A) (A)
                 (A) (A) (A) (A) (A) (A) (A)
 The electronic state is 1-A.
 Alpha  occ. eigenvalues --  -19.25829 -19.21842 -19.20486 -14.52353 -14.52246
 Alpha  occ. eigenvalues --  -14.49120 -14.48393 -14.47800 -14.47792 -14.46331
 Alpha  occ. eigenvalues --  -14.45275 -14.45162 -14.43755 -14.42783 -14.42265
 Alpha  occ. eigenvalues --  -14.41871 -14.41763 -14.41403 -14.40559 -14.40540
 Alpha  occ. eigenvalues --  -10.45430 -10.40446 -10.39973 -10.39480 -10.37904
 Alpha  occ. eigenvalues --  -10.37697 -10.37671 -10.36748 -10.35870 -10.35390
 Alpha  occ. eigenvalues --  -10.35086 -10.34625 -10.34416 -10.34026 -10.33746
 Alpha  occ. eigenvalues --  -10.33527 -10.33028 -10.31914 -10.31328 -10.30991
 Alpha  occ. eigenvalues --  -10.30503 -10.28884 -10.27798  -1.19468  -1.14959
 Alpha  occ. eigenvalues --   -1.13211  -1.12889  -1.11705  -1.10403  -1.09262
 Alpha  occ. eigenvalues --   -1.09022  -1.08242  -1.05431  -1.04370  -1.02407
 Alpha  occ. eigenvalues --   -1.00936  -1.00867  -0.99434  -0.98436  -0.97352
 Alpha  occ. eigenvalues --   -0.96486  -0.96147  -0.93117  -0.90939  -0.87507
 Alpha  occ. eigenvalues --   -0.86109  -0.84331  -0.83801  -0.83554  -0.82699
 Alpha  occ. eigenvalues --   -0.82207  -0.78774  -0.76799  -0.74836  -0.74432
 Alpha  occ. eigenvalues --   -0.73375  -0.73309  -0.73261  -0.71537  -0.70316
 Alpha  occ. eigenvalues --   -0.67167  -0.66756  -0.66710  -0.66422  -0.64385
 Alpha  occ. eigenvalues --   -0.64194  -0.63584  -0.63178  -0.62900  -0.61467
 Alpha  occ. eigenvalues --   -0.60857  -0.60708  -0.60377  -0.59511  -0.59345
 Alpha  occ. eigenvalues --   -0.59155  -0.58332  -0.57414  -0.56803  -0.56552
 Alpha  occ. eigenvalues --   -0.56006  -0.55711  -0.55362  -0.55184  -0.54305
 Alpha  occ. eigenvalues --   -0.54149  -0.53431  -0.53202  -0.52807  -0.52665
 Alpha  occ. eigenvalues --   -0.52338  -0.52219  -0.52117  -0.51222  -0.50524
 Alpha  occ. eigenvalues --   -0.49930  -0.49557  -0.49360  -0.48881  -0.48734
 Alpha  occ. eigenvalues --   -0.48561  -0.48248  -0.47991  -0.47472  -0.47255
 Alpha  occ. eigenvalues --   -0.47202  -0.46103  -0.45107  -0.43766  -0.43672
 Alpha  occ. eigenvalues --   -0.41537  -0.41063  -0.39473  -0.37893  -0.37692
 Alpha  occ. eigenvalues --   -0.37493  -0.37084  -0.36541  -0.35940  -0.34513
 Alpha  occ. eigenvalues --   -0.34128  -0.33955  -0.33784  -0.33023  -0.32503
 Alpha  occ. eigenvalues --   -0.32281  -0.31826  -0.31653  -0.31393  -0.30846
 Alpha  occ. eigenvalues --   -0.30302  -0.28792  -0.26167  -0.24532
 Alpha virt. eigenvalues --    0.03196   0.04347   0.07100   0.07618   0.08672
 Alpha virt. eigenvalues --    0.09440   0.10136   0.10587   0.10864   0.11597
 Alpha virt. eigenvalues --    0.13008   0.13860   0.13976   0.14705   0.14900
 Alpha virt. eigenvalues --    0.15813   0.15915   0.16895   0.17352   0.17904
 Alpha virt. eigenvalues --    0.18798   0.19234   0.19287   0.19965   0.20581
 Alpha virt. eigenvalues --    0.20636   0.21185   0.21489   0.22168   0.22343
 Alpha virt. eigenvalues --    0.23081   0.23299   0.23713   0.23777   0.24116
 Alpha virt. eigenvalues --    0.24145   0.24354   0.24817   0.25446   0.25505
 Alpha virt. eigenvalues --    0.26210   0.26803   0.27349   0.27494   0.28171
 Alpha virt. eigenvalues --    0.28710   0.29353   0.29655   0.30549   0.30846
 Alpha virt. eigenvalues --    0.31310   0.32206   0.32794   0.33346   0.33867
 Alpha virt. eigenvalues --    0.34025   0.34515   0.35036   0.36183   0.36452
 Alpha virt. eigenvalues --    0.37279   0.37498   0.38015   0.39211   0.39789
 Alpha virt. eigenvalues --    0.39987   0.40738   0.41472   0.41531   0.41807
 Alpha virt. eigenvalues --    0.42353   0.42470   0.43460   0.44437   0.44805
 Alpha virt. eigenvalues --    0.45113   0.45533   0.46005   0.46879   0.47826
 Alpha virt. eigenvalues --    0.48005   0.48530   0.48977   0.49629   0.49733
 Alpha virt. eigenvalues --    0.50108   0.50621   0.51044   0.51494   0.51588
 Alpha virt. eigenvalues --    0.51868   0.52775   0.53301   0.53705   0.54071
 Alpha virt. eigenvalues --    0.54205   0.54968   0.55477   0.55640   0.56110
 Alpha virt. eigenvalues --    0.56174   0.57036   0.57540   0.57967   0.58063
 Alpha virt. eigenvalues --    0.58328   0.58687   0.59509   0.59764   0.59820
 Alpha virt. eigenvalues --    0.59951   0.60430   0.60914   0.61378   0.61979
 Alpha virt. eigenvalues --    0.62563   0.62690   0.63279   0.63910   0.64260
 Alpha virt. eigenvalues --    0.64624   0.64698   0.65234   0.65406   0.66175
 Alpha virt. eigenvalues --    0.66581   0.66682   0.67095   0.67935   0.68037
 Alpha virt. eigenvalues --    0.68526   0.68761   0.69436   0.69765   0.70051
 Alpha virt. eigenvalues --    0.70697   0.70758   0.71185   0.71718   0.72038
 Alpha virt. eigenvalues --    0.73206   0.73413   0.73653   0.74176   0.74286
 Alpha virt. eigenvalues --    0.74796   0.74863   0.75283   0.75570   0.75869
 Alpha virt. eigenvalues --    0.76540   0.76680   0.77022   0.77271   0.77475
 Alpha virt. eigenvalues --    0.77860   0.77896   0.78323   0.78615   0.78885
 Alpha virt. eigenvalues --    0.79508   0.79616   0.80475   0.80667   0.80921
 Alpha virt. eigenvalues --    0.81369   0.82190   0.82273   0.83174   0.83402
 Alpha virt. eigenvalues --    0.83916   0.84132   0.84385   0.85136   0.85387
 Alpha virt. eigenvalues --    0.85888   0.86114   0.86479   0.87178   0.87442
 Alpha virt. eigenvalues --    0.88242   0.88766   0.89231   0.89459   0.90233
 Alpha virt. eigenvalues --    0.90769   0.91488   0.91707   0.92037   0.92627
 Alpha virt. eigenvalues --    0.93009   0.93158   0.93708   0.94154   0.94645
 Alpha virt. eigenvalues --    0.95321   0.95882   0.96289   0.96572   0.97071
 Alpha virt. eigenvalues --    0.97468   0.97787   0.98095   0.98587   0.98877
 Alpha virt. eigenvalues --    0.99968   1.00496   1.00782   1.01661   1.02179
 Alpha virt. eigenvalues --    1.02243   1.02524   1.03042   1.03477   1.03954
 Alpha virt. eigenvalues --    1.04572   1.05019   1.05289   1.06135   1.06680
 Alpha virt. eigenvalues --    1.06992   1.07585   1.08094   1.08249   1.09226
 Alpha virt. eigenvalues --    1.09872   1.10287   1.10591   1.11649   1.11866
 Alpha virt. eigenvalues --    1.12329   1.12798   1.13256   1.13671   1.14431
 Alpha virt. eigenvalues --    1.14728   1.15266   1.15505   1.16020   1.16795
 Alpha virt. eigenvalues --    1.16961   1.17645   1.17780   1.18101   1.18571
 Alpha virt. eigenvalues --    1.18701   1.19139   1.19701   1.20139   1.20392
 Alpha virt. eigenvalues --    1.20867   1.20980   1.21500   1.21570   1.22045
 Alpha virt. eigenvalues --    1.22355   1.23637   1.23998   1.24247   1.24415
 Alpha virt. eigenvalues --    1.24719   1.25435   1.25769   1.26396   1.26916
 Alpha virt. eigenvalues --    1.27765   1.28338   1.28653   1.29905   1.30149
 Alpha virt. eigenvalues --    1.31184   1.31460   1.32419   1.32857   1.33839
 Alpha virt. eigenvalues --    1.34135   1.34610   1.35297   1.35573   1.35918
 Alpha virt. eigenvalues --    1.36994   1.37379   1.38389   1.38849   1.40131
 Alpha virt. eigenvalues --    1.40521   1.40776   1.41455   1.42106   1.42955
 Alpha virt. eigenvalues --    1.43192   1.43988   1.44252   1.45116   1.45945
 Alpha virt. eigenvalues --    1.47436   1.48732   1.48941   1.49430   1.49692
 Alpha virt. eigenvalues --    1.50374   1.50892   1.52001   1.52224   1.52374
 Alpha virt. eigenvalues --    1.53020   1.53357   1.54326   1.55589   1.55743
 Alpha virt. eigenvalues --    1.55946   1.56770   1.57832   1.57952   1.59493
 Alpha virt. eigenvalues --    1.59849   1.60191   1.61480   1.61817   1.62370
 Alpha virt. eigenvalues --    1.63385   1.63807   1.64342   1.64507   1.64850
 Alpha virt. eigenvalues --    1.65604   1.66076   1.66911   1.67157   1.67733
 Alpha virt. eigenvalues --    1.68051   1.68297   1.69034   1.69584   1.70337
 Alpha virt. eigenvalues --    1.70537   1.70863   1.71514   1.71894   1.72324
 Alpha virt. eigenvalues --    1.72856   1.73050   1.73842   1.74144   1.74455
 Alpha virt. eigenvalues --    1.74915   1.75277   1.75483   1.75922   1.76034
 Alpha virt. eigenvalues --    1.76371   1.76972   1.77526   1.77583   1.78159
 Alpha virt. eigenvalues --    1.78435   1.79187   1.79500   1.79726   1.79764
 Alpha virt. eigenvalues --    1.79987   1.80330   1.80864   1.81347   1.81568
 Alpha virt. eigenvalues --    1.82172   1.82302   1.82778   1.83348   1.83822
 Alpha virt. eigenvalues --    1.84245   1.84442   1.84540   1.84900   1.85739
 Alpha virt. eigenvalues --    1.86855   1.87182   1.88132   1.88302   1.88455
 Alpha virt. eigenvalues --    1.89077   1.89171   1.89998   1.90230   1.90541
 Alpha virt. eigenvalues --    1.91493   1.91851   1.92159   1.92626   1.93161
 Alpha virt. eigenvalues --    1.93548   1.94278   1.94972   1.95436   1.95990
 Alpha virt. eigenvalues --    1.96243   1.96486   1.98396   1.98672   1.99239
 Alpha virt. eigenvalues --    1.99773   2.01280   2.01965   2.02163   2.02427
 Alpha virt. eigenvalues --    2.03202   2.03680   2.04099   2.05000   2.05539
 Alpha virt. eigenvalues --    2.05912   2.06266   2.07722   2.08267   2.08368
 Alpha virt. eigenvalues --    2.08866   2.09257   2.10389   2.10488   2.11290
 Alpha virt. eigenvalues --    2.11814   2.12237   2.12597   2.13438   2.14320
 Alpha virt. eigenvalues --    2.15245   2.15876   2.16994   2.17451   2.18515
 Alpha virt. eigenvalues --    2.19912   2.20388   2.20850   2.20944   2.21510
 Alpha virt. eigenvalues --    2.22229   2.22597   2.23119   2.24397   2.24547
 Alpha virt. eigenvalues --    2.24981   2.26517   2.26944   2.27032   2.27570
 Alpha virt. eigenvalues --    2.27998   2.28688   2.29170   2.30073   2.30991
 Alpha virt. eigenvalues --    2.31349   2.31743   2.32652   2.32792   2.32906
 Alpha virt. eigenvalues --    2.33742   2.34508   2.34690   2.35433   2.36390
 Alpha virt. eigenvalues --    2.36588   2.37197   2.37665   2.38083   2.38418
 Alpha virt. eigenvalues --    2.39703   2.40378   2.40823   2.41338   2.42003
 Alpha virt. eigenvalues --    2.42368   2.42758   2.43308   2.43472   2.43985
 Alpha virt. eigenvalues --    2.45321   2.45516   2.46549   2.47883   2.48161
 Alpha virt. eigenvalues --    2.48593   2.49496   2.50310   2.50825   2.52584
 Alpha virt. eigenvalues --    2.53384   2.53657   2.55940   2.56539   2.56877
 Alpha virt. eigenvalues --    2.57324   2.58421   2.58885   2.59811   2.60697
 Alpha virt. eigenvalues --    2.61720   2.62277   2.62963   2.63395   2.64444
 Alpha virt. eigenvalues --    2.65112   2.65598   2.65867   2.66476   2.67149
 Alpha virt. eigenvalues --    2.68398   2.68576   2.69064   2.69957   2.70415
 Alpha virt. eigenvalues --    2.71410   2.71513   2.72282   2.72974   2.73512
 Alpha virt. eigenvalues --    2.74165   2.74820   2.75061   2.75531   2.75591
 Alpha virt. eigenvalues --    2.78542   2.79137   2.79762   2.80085   2.80502
 Alpha virt. eigenvalues --    2.80590   2.80900   2.81681   2.82218   2.82328
 Alpha virt. eigenvalues --    2.82815   2.83473   2.84356   2.84684   2.85143
 Alpha virt. eigenvalues --    2.86000   2.86781   2.86950   2.87127   2.88088
 Alpha virt. eigenvalues --    2.89554   2.89991   2.90701   2.92748   2.94621
 Alpha virt. eigenvalues --    2.95607   2.97505   2.98417   2.99119   3.00048
 Alpha virt. eigenvalues --    3.01162   3.02232   3.03630   3.05346   3.07286
 Alpha virt. eigenvalues --    3.09353   3.10810   3.11454   3.14023   3.14938
 Alpha virt. eigenvalues --    3.15384   3.16685   3.17033   3.18498   3.21747
 Alpha virt. eigenvalues --    3.22577   3.23507   3.23709   3.24172   3.27939
 Alpha virt. eigenvalues --    3.45739   3.47580   3.49424   3.49797   3.50724
 Alpha virt. eigenvalues --    3.53533   3.54319   3.56780   3.58352   3.60752
 Alpha virt. eigenvalues --    3.64065   3.70824   3.74995
          Condensed to atoms (all electrons):
 Mulliken charges:
               1
     1  N   -0.313242
     2  C    0.180632
     3  C    0.049102
     4  N   -0.261097
     5  C    0.134949
     6  H    0.027517
     7  N   -0.278769
     8  C    0.143115
     9  H    0.004399
    10  N   -0.292855
    11  C    0.242974
    12  C    0.114700
    13  N   -0.055379
    14  H    0.107426
    15  H    0.086502
    16  H    0.026381
    17  H    0.031485
    18  H    0.027284
    19  N   -0.294715
    20  C    0.228356
    21  C    0.176415
    22  N   -0.048355
    23  H    0.105768
    24  H    0.109154
    25  N   -0.290755
    26  C    0.187362
    27  N   -0.134847
    28  H    0.127613
    29  C    0.141181
    30  O   -0.320278
    31  C    0.032126
    32  N   -0.220480
    33  C    0.120247
    34  H    0.020071
    35  H    0.032174
    36  H    0.026669
    37  H    0.023757
    38  H    0.061992
    39  H    0.058673
    40  H    0.066427
    41  H    0.030615
    42  C   -0.113814
    43  O   -0.264400
    44  C    0.178869
    45  H    0.132620
    46  N   -0.130572
    47  O   -0.343223
    48  C    0.352352
    49  H    0.047179
    50  C    0.173900
    51  C    0.044806
    52  N   -0.288329
    53  H    0.039367
    54  H    0.013750
    55  H    0.030020
    56  H    0.121721
    57  H    0.117360
    58  N   -0.066979
    59  C    0.104285
    60  C    0.270203
    61  N   -0.322538
    62  H    0.033989
    63  C    0.193521
    64  N   -0.305362
    65  H    0.032488
    66  C    0.114807
    67  N   -0.255958
    68  C    0.001068
    69  C    0.182092
    70  N   -0.307514
 Sum of Mulliken charges =  -0.00000
 Mulliken charges with hydrogens summed into heavy atoms:
               1
     1  N   -0.313242
     2  C    0.265782
     3  C    0.049102
     4  N   -0.261097
     5  C    0.162466
     7  N   -0.278769
     8  C    0.147514
    10  N   -0.292855
    11  C    0.242974
    12  C    0.114700
    13  N    0.138549
    19  N   -0.294715
    20  C    0.228356
    21  C    0.259014
    22  N    0.166567
    25  N   -0.290755
    26  C    0.187362
    27  N   -0.007234
    29  C    0.141181
    30  O   -0.320278
    31  C    0.032126
    32  N   -0.220480
    33  C    0.140318
    42  C   -0.083199
    43  O   -0.264400
    44  C    0.178869
    46  N    0.002048
    47  O   -0.343223
    48  C    0.352352
    50  C    0.221078
    51  C    0.231898
    52  N   -0.288329
    58  N    0.172102
    59  C    0.104285
    60  C    0.270203
    61  N   -0.322538
    63  C    0.227510
    64  N   -0.305362
    66  C    0.147296
    67  N   -0.255958
    68  C    0.001068
    69  C    0.265229
    70  N   -0.307514
 Electronic spatial extent (au):  <R**2>=          22167.3015
 Charge=             -0.0000 electrons
 Dipole moment (field-independent basis, Debye):
    X=              7.0373    Y=              5.9439    Z=              3.6716  Tot=              9.9164
 Quadrupole moment (field-independent basis, Debye-Ang):
   XX=           -147.8499   YY=           -224.9871   ZZ=           -256.7262
   XY=              5.7764   XZ=              5.8764   YZ=            -12.4215
 Traceless Quadrupole moment (field-independent basis, Debye-Ang):
   XX=             62.0045   YY=            -15.1327   ZZ=            -46.8718
   XY=              5.7764   XZ=              5.8764   YZ=            -12.4215
 Octapole moment (field-independent basis, Debye-Ang**2):
  XXX=            -42.7549  YYY=            115.1546  ZZZ=              8.2425  XYY=             72.9228
  XXY=             -6.2450  XXZ=            -47.1104  XZZ=             19.9317  YZZ=             20.9606
  YYZ=             68.6772  XYZ=             38.2023
 Hexadecapole moment (field-independent basis, Debye-Ang**3):
 XXXX=         -15125.1330 YYYY=          -5416.4572 ZZZZ=          -3252.8958 XXXY=            490.5590
 XXXZ=            -73.2339 YYYX=             54.3236 YYYZ=           -120.9410 ZZZX=              4.6046
 ZZZY=            -48.9353 XXYY=          -3651.8352 XXZZ=          -3924.5337 YYZZ=          -1474.0552
 XXYZ=             61.3938 YYXZ=            227.0669 ZZXY=             -3.4199
 N-N= 5.581127577071D+03 E-N=-1.594323629401D+04  KE= 2.038193728447D+03
 No NMR shielding tensors so no spin-rotation constants.
 Leave Link  601 at Tue Jan 23 05:52:04 2018, MaxMem=  4294967296 cpu:              49.1 elap:               1.7
 (Enter /share/apps/g16/l9999.exe)
 1\1\GINC-COMPUTE-0-3\SP\RwB97XD\CC-pVDZ\C23H27N17O3\SATYA\23-Jan-2018\
 0\\#p wb97xd/cc-pvdz sp scf=(maxcycles=20)\\Base pair stacking\\0,1\N,
 0,4.3157,4.54328,-7.92625\C,0,5.25465,5.67838,-8.01517\C,0,2.56717,3.2
 8567,-7.48084\N,0,3.45604,2.48125,-8.1791\C,0,4.47388,3.2711,-8.41949\
 H,0,5.37487,2.97503,-8.95755\N,0,0.67592,4.0581,-6.30209\C,0,1.30142,5
 .23712,-6.22313\H,0,0.75416,6.01969,-5.69933\N,0,2.49582,5.59293,-6.69
 185\C,0,3.08325,4.55943,-7.31733\C,0,1.29329,3.03835,-6.93774\N,0,0.67
 051,1.86066,-7.0176\H,0,1.08999,1.07802,-7.47883\H,0,-0.23608,1.72059,
 -6.61933\H,0,5.42769,5.89512,-8.97603\H,0,4.85878,6.47578,-7.56067\H,0
 ,6.11649,5.43647,-7.5694\N,0,1.78206,5.43562,-3.38662\C,0,0.72574,4.58
 98,-3.14816\C,0,1.73253,6.90892,-3.29934\N,0,-2.60354,4.10415,-2.28691
 \H,0,-3.2277,3.33378,-2.15963\H,0,-2.97793,5.0203,-2.14124\N,0,-0.5248
 3,4.95955,-2.79688\C,0,-1.32192,3.91803,-2.63722\N,0,-0.92652,2.61342,
 -2.80803\H,0,-1.60419,1.8805,-2.66462\C,0,0.35505,2.20976,-3.16927\O,0
 ,0.60823,1.00549,-3.29719\C,0,1.22269,3.31766,-3.34435\N,0,2.56399,3.3
 6388,-3.69885\C,0,2.85154,4.63721,-3.71129\H,0,3.83194,5.0501,-3.95134
 \H,0,1.96557,7.30508,-4.18678\H,0,0.81094,7.19452,-3.03981\H,0,2.38464
 ,7.22584,-2.6115\H,0,-5.60029,-1.2547,-2.43133\H,0,-4.99706,-1.56689,-
 0.80551\H,0,-4.77298,0.02184,-1.53838\H,0,-1.95585,-4.24166,-3.40228\C
 ,0,-2.11824,-3.19585,-3.14121\O,0,0.04847,-2.5009,-3.81169\C,0,-1.0647
 5,-2.25023,-3.35051\H,0,-0.655,-0.25842,-3.12009\N,0,-1.3744,-0.95517,
 -2.98695\O,0,-2.73935,0.66523,-2.16938\C,0,-2.55897,-0.50404,-2.46082\
 H,0,-4.1175,-3.4653,-2.45117\C,0,-3.28489,-2.78615,-2.62968\C,0,-4.808
 3,-1.04044,-1.72925\N,0,-3.52549,-1.47534,-2.28871\H,0,-6.55779,3.6187
 4,-3.11419\H,0,-5.02213,3.87664,-2.62702\H,0,-5.96552,2.81419,-1.82371
 \H,0,-1.922,-0.74414,-6.92737\H,0,-3.50227,-1.22501,-6.50121\N,0,-2.76
 408,-0.55413,-6.42244\C,0,-2.8977,0.54474,-5.67691\C,0,-4.04837,2.0342
 4,-4.22121\N,0,-3.04032,2.91778,-4.13394\H,0,-1.13639,3.1758,-4.84745\
 C,0,-2.00136,2.51409,-4.8623\N,0,-1.86559,1.41383,-5.60968\H,0,-6.9742
 3,0.77887,-3.65947\C,0,-5.95832,0.97977,-4.00082\N,0,-5.27312,0.20001,
 -4.80091\C,0,-4.06015,0.85696,-4.9488\C,0,-5.74298,3.19087,-2.72303\N,
 0,-5.27808,2.1076,-3.61094\\Version=EM64L-G16RevA.03\State=1-A\HF=-204
 8.6734019\RMSD=7.842e-09\Dipole=-3.7410863,0.7184759,0.8420073\Quadrup
 ole=17.8826956,-3.5537117,-14.3289839,29.6636335,-26.5763607,0.8642247
 \PG=C01 [X(C23H27N17O3)]\\@


 ONE THORN OF EXPERIENCE IS WORTH A WHOLE WILDERNESS OF
 WARNING....  LOWELL - AMONG MY BOOKS
 Job cpu time:       0 days  6 hours 21 minutes 42.6 seconds.
 Elapsed time:       0 days  0 hours 12 minutes 18.0 seconds.
 File lengths (MBytes):  RWF=    298 Int=      0 D2E=      0 Chk=     33 Scr=      1
 Normal termination of Gaussian 16 at Tue Jan 23 05:52:04 2018.
