 Entering Gaussian System, Link 0=g16
 Input=str40.10.-1.5.com
 Output=str40.10.-1.5.log
 Initial command:
 /share/apps/g16/l1.exe "/state/partition1/scr/Gau-12263.inp" -scrdir="/state/partition1/scr/"
 Entering Link 1 = /share/apps/g16/l1.exe PID=     12264.
  
 Copyright (c) 1988,1990,1992,1993,1995,1998,2003,2009,2016,
            Gaussian, Inc.  All Rights Reserved.
  
 This is part of the Gaussian(R) 16 program.  It is based on
 the Gaussian(R) 09 system (copyright 2009, Gaussian, Inc.),
 the Gaussian(R) 03 system (copyright 2003, Gaussian, Inc.),
 the Gaussian(R) 98 system (copyright 1998, Gaussian, Inc.),
 the Gaussian(R) 94 system (copyright 1995, Gaussian, Inc.),
 the Gaussian 92(TM) system (copyright 1992, Gaussian, Inc.),
 the Gaussian 90(TM) system (copyright 1990, Gaussian, Inc.),
 the Gaussian 88(TM) system (copyright 1988, Gaussian, Inc.),
 the Gaussian 86(TM) system (copyright 1986, Carnegie Mellon
 University), and the Gaussian 82(TM) system (copyright 1983,
 Carnegie Mellon University). Gaussian is a federally registered
 trademark of Gaussian, Inc.
  
 This software contains proprietary and confidential information,
 including trade secrets, belonging to Gaussian, Inc.
  
 This software is provided under written license and may be
 used, copied, transmitted, or stored only in accord with that
 written license.
  
 The following legend is applicable only to US Government
 contracts under FAR:
  
                    RESTRICTED RIGHTS LEGEND
  
 Use, reproduction and disclosure by the US Government is
 subject to restrictions as set forth in subparagraphs (a)
 and (c) of the Commercial Computer Software - Restricted
 Rights clause in FAR 52.227-19.
  
 Gaussian, Inc.
 340 Quinnipiac St., Bldg. 40, Wallingford CT 06492
  
  
 ---------------------------------------------------------------
 Warning -- This program may not be used in any manner that
 competes with the business of Gaussian, Inc. or will provide
 assistance to any competitor of Gaussian, Inc.  The licensee
 of this program is prohibited from giving any competitor of
 Gaussian, Inc. access to this program.  By using this program,
 the user acknowledges that Gaussian, Inc. is engaged in the
 business of creating and licensing software in the field of
 computational chemistry and represents and warrants to the
 licensee that it is not a competitor of Gaussian, Inc. and that
 it will not use this program in any manner prohibited above.
 ---------------------------------------------------------------
  

 Cite this work as:
 Gaussian 16, Revision A.03,
 M. J. Frisch, G. W. Trucks, H. B. Schlegel, G. E. Scuseria, 
 M. A. Robb, J. R. Cheeseman, G. Scalmani, V. Barone, 
 G. A. Petersson, H. Nakatsuji, X. Li, M. Caricato, A. V. Marenich, 
 J. Bloino, B. G. Janesko, R. Gomperts, B. Mennucci, H. P. Hratchian, 
 J. V. Ortiz, A. F. Izmaylov, J. L. Sonnenberg, D. Williams-Young, 
 F. Ding, F. Lipparini, F. Egidi, J. Goings, B. Peng, A. Petrone, 
 T. Henderson, D. Ranasinghe, V. G. Zakrzewski, J. Gao, N. Rega, 
 G. Zheng, W. Liang, M. Hada, M. Ehara, K. Toyota, R. Fukuda, 
 J. Hasegawa, M. Ishida, T. Nakajima, Y. Honda, O. Kitao, H. Nakai, 
 T. Vreven, K. Throssell, J. A. Montgomery, Jr., J. E. Peralta, 
 F. Ogliaro, M. J. Bearpark, J. J. Heyd, E. N. Brothers, K. N. Kudin, 
 V. N. Staroverov, T. A. Keith, R. Kobayashi, J. Normand, 
 K. Raghavachari, A. P. Rendell, J. C. Burant, S. S. Iyengar, 
 J. Tomasi, M. Cossi, J. M. Millam, M. Klene, C. Adamo, R. Cammi, 
 J. W. Ochterski, R. L. Martin, K. Morokuma, O. Farkas, 
 J. B. Foresman, and D. J. Fox, Gaussian, Inc., Wallingford CT, 2016.
 
 ******************************************
 Gaussian 16:  EM64L-G16RevA.03 25-Dec-2016
                22-Jan-2018 
 ******************************************
 %nprocshared=32
 Will use up to   32 processors via shared memory.
 %mem=32GB
 %chk=allatoms_t.chk
 ---------------------------------------
 #p wb97xd/cc-pvdz sp scf=(maxcycles=20)
 ---------------------------------------
 1/38=1,172=1/1;
 2/12=2,17=6,18=5,40=1/2;
 3/5=16,11=2,25=1,30=1,74=-58/1,2,3;
 4//1;
 5/5=2,7=20,38=5/2;
 6/7=2,8=2,9=2,10=2,28=1/1;
 99/5=1,9=1/99;
 Leave Link    1 at Mon Jan 22 22:18:04 2018, MaxMem=  4294967296 cpu:               2.7 elap:               0.1
 (Enter /share/apps/g16/l101.exe)
 ------------------
 Base pair stacking
 ------------------
 Symbolic Z-matrix:
 Charge =  0 Multiplicity = 1
 N                     8.09893   4.11237  -5.30525 
 C                     9.06019   5.2273   -5.40986 
 C                     6.27354   2.88901  -5.39813 
 N                     7.26105   2.07282  -4.8658 
 C                     8.32126   2.84252  -4.83114 
 H                     9.30082   2.53249  -4.46605 
 N                     4.21113   3.69015  -6.21521 
 C                     4.83404   4.85407  -6.42699 
 H                     4.21418   5.64276  -6.85128 
 N                     6.10172   5.18845  -6.19444 
 C                     6.77505   4.14913  -5.674 
 C                     4.91604   2.66402  -5.69056 
 N                     4.29601   1.50139  -5.47843 
 H                     4.77867   0.71477  -5.09179 
 H                     3.32843   1.37707  -5.69863 
 H                     9.81878   4.96048  -6.00444 
 H                     8.60225   6.02821  -5.7945 
 H                     9.41371   5.45167  -4.50175 
 N                     2.81099   5.907    -3.15029 
 C                     1.73284   5.06342  -3.26867 
 C                     2.77376   7.37135  -3.3373 
 N                    -1.64611   4.57176  -3.90327 
 H                    -2.28556   3.80433  -3.94077 
 H                    -2.01755   5.48142  -4.09106 
 N                     0.46847   5.42761  -3.57327 
 C                    -0.34866   4.39018  -3.61423 
 N                     0.04065   3.09444  -3.37548 
 H                    -0.6527    2.3641   -3.4286 
 C                     1.33615   2.69663  -3.06036 
 O                     1.58218   1.50024  -2.86323 
 C                     2.22537   3.80022  -3.01268 
 N                     3.58536   3.84976  -2.73909 
 C                     3.88803   5.11624  -2.83196 
 H                     4.88543   5.52928  -2.67746 
 H                     3.38869   7.62975  -4.08155 
 H                     1.84211   7.65278  -3.56335 
 H                     3.06232   7.82414  -2.49437 
 H                    -4.43256  -0.87118  -4.47664 
 H                    -4.62369  -0.88994  -2.72513 
 H                    -4.04828   0.5687   -3.533 
 H                    -0.83077  -3.80656  -3.22877 
 C                    -1.05952  -2.74086  -3.24231 
 O                     1.20012  -2.06503  -2.9885 
 C                     0.00627  -1.79431  -3.11588 
 H                     0.33295   0.22517  -3.0586 
 N                    -0.3921   -0.47307  -3.14519 
 O                    -1.92694   1.19399  -3.29482 
 C                    -1.67244   0.00249  -3.27981 
 H                    -3.16464  -2.98641  -3.47466 
 C                    -2.31862  -2.30768  -3.37507 
 C                    -4.02825  -0.51095  -3.54238 
 N                    -2.64463  -0.9714   -3.39633 
 H                    -3.40721   3.26667  -8.32798 
 H                    -2.47871   4.08305  -7.26331 
 H                    -3.87069   3.38941  -6.768 
 H                     1.82174  -1.21607  -5.56599 
 H                     0.26209  -1.76517  -5.98561 
 N                     0.89114  -0.99728  -5.8597 
 C                     0.50516   0.26215  -6.0742 
 C                    -1.04073   1.97051  -6.66875 
 N                    -0.17446   2.98177  -6.4917 
 H                     1.77629   3.27508  -5.93566 
 C                     1.01146   2.51786  -6.10273 
 N                     1.40003   1.25683  -5.88734 
 H                    -3.84701   0.53552  -7.38832 
 C                    -2.82023   0.76449  -7.10156 
 N                    -1.92358  -0.12994  -6.76435 
 C                    -0.79063   0.62139  -6.48749 
 C                    -3.08614   3.29807  -7.38145 
 N                    -2.3542    2.05609  -7.06559 
 
 ITRead=  0  0  0  0  0  0  0  0  0  0  0  0  0  0  0  0  0  0  0  0
 ITRead=  0  0  0  0  0  0  0  0  0  0  0  0  0  0  0  0  0  0  0  0
 ITRead=  0  0  0  0  0  0  0  0  0  0  0  0  0  0  0  0  0  0  0  0
 ITRead=  0  0  0  0  0  0  0  0  0  0
 MicOpt= -1 -1 -1 -1 -1 -1 -1 -1 -1 -1 -1 -1 -1 -1 -1 -1 -1 -1 -1 -1
 MicOpt= -1 -1 -1 -1 -1 -1 -1 -1 -1 -1 -1 -1 -1 -1 -1 -1 -1 -1 -1 -1
 MicOpt= -1 -1 -1 -1 -1 -1 -1 -1 -1 -1 -1 -1 -1 -1 -1 -1 -1 -1 -1 -1
 MicOpt= -1 -1 -1 -1 -1 -1 -1 -1 -1 -1
 NAtoms=     70 NQM=       70 NQMF=       0 NMMI=      0 NMMIF=      0
                NMic=       0 NMicF=      0.
                    Isotopes and Nuclear Properties:
 (Nuclear quadrupole moments (NQMom) in fm**2, nuclear magnetic moments (NMagM)
  in nuclear magnetons)

  Atom         1           2           3           4           5           6           7           8           9          10
 IAtWgt=          14          12          12          14          12           1          14          12           1          14
 AtmWgt=  14.0030740  12.0000000  12.0000000  14.0030740  12.0000000   1.0078250  14.0030740  12.0000000   1.0078250  14.0030740
 NucSpn=           2           0           0           2           0           1           2           0           1           2
 AtZEff=  -0.0000000  -0.0000000  -0.0000000  -0.0000000  -0.0000000  -0.0000000  -0.0000000  -0.0000000  -0.0000000  -0.0000000
 NQMom=    2.0440000   0.0000000   0.0000000   2.0440000   0.0000000   0.0000000   2.0440000   0.0000000   0.0000000   2.0440000
 NMagM=    0.4037610   0.0000000   0.0000000   0.4037610   0.0000000   2.7928460   0.4037610   0.0000000   2.7928460   0.4037610
 AtZNuc=   7.0000000   6.0000000   6.0000000   7.0000000   6.0000000   1.0000000   7.0000000   6.0000000   1.0000000   7.0000000

  Atom        11          12          13          14          15          16          17          18          19          20
 IAtWgt=          12          12          14           1           1           1           1           1          14          12
 AtmWgt=  12.0000000  12.0000000  14.0030740   1.0078250   1.0078250   1.0078250   1.0078250   1.0078250  14.0030740  12.0000000
 NucSpn=           0           0           2           1           1           1           1           1           2           0
 AtZEff=  -0.0000000  -0.0000000  -0.0000000  -0.0000000  -0.0000000  -0.0000000  -0.0000000  -0.0000000  -0.0000000  -0.0000000
 NQMom=    0.0000000   0.0000000   2.0440000   0.0000000   0.0000000   0.0000000   0.0000000   0.0000000   2.0440000   0.0000000
 NMagM=    0.0000000   0.0000000   0.4037610   2.7928460   2.7928460   2.7928460   2.7928460   2.7928460   0.4037610   0.0000000
 AtZNuc=   6.0000000   6.0000000   7.0000000   1.0000000   1.0000000   1.0000000   1.0000000   1.0000000   7.0000000   6.0000000

  Atom        21          22          23          24          25          26          27          28          29          30
 IAtWgt=          12          14           1           1          14          12          14           1          12          16
 AtmWgt=  12.0000000  14.0030740   1.0078250   1.0078250  14.0030740  12.0000000  14.0030740   1.0078250  12.0000000  15.9949146
 NucSpn=           0           2           1           1           2           0           2           1           0           0
 AtZEff=  -0.0000000  -0.0000000  -0.0000000  -0.0000000  -0.0000000  -0.0000000  -0.0000000  -0.0000000  -0.0000000  -0.0000000
 NQMom=    0.0000000   2.0440000   0.0000000   0.0000000   2.0440000   0.0000000   2.0440000   0.0000000   0.0000000   0.0000000
 NMagM=    0.0000000   0.4037610   2.7928460   2.7928460   0.4037610   0.0000000   0.4037610   2.7928460   0.0000000   0.0000000
 AtZNuc=   6.0000000   7.0000000   1.0000000   1.0000000   7.0000000   6.0000000   7.0000000   1.0000000   6.0000000   8.0000000

  Atom        31          32          33          34          35          36          37          38          39          40
 IAtWgt=          12          14          12           1           1           1           1           1           1           1
 AtmWgt=  12.0000000  14.0030740  12.0000000   1.0078250   1.0078250   1.0078250   1.0078250   1.0078250   1.0078250   1.0078250
 NucSpn=           0           2           0           1           1           1           1           1           1           1
 AtZEff=  -0.0000000  -0.0000000  -0.0000000  -0.0000000  -0.0000000  -0.0000000  -0.0000000  -0.0000000  -0.0000000  -0.0000000
 NQMom=    0.0000000   2.0440000   0.0000000   0.0000000   0.0000000   0.0000000   0.0000000   0.0000000   0.0000000   0.0000000
 NMagM=    0.0000000   0.4037610   0.0000000   2.7928460   2.7928460   2.7928460   2.7928460   2.7928460   2.7928460   2.7928460
 AtZNuc=   6.0000000   7.0000000   6.0000000   1.0000000   1.0000000   1.0000000   1.0000000   1.0000000   1.0000000   1.0000000

  Atom        41          42          43          44          45          46          47          48          49          50
 IAtWgt=           1          12          16          12           1          14          16          12           1          12
 AtmWgt=   1.0078250  12.0000000  15.9949146  12.0000000   1.0078250  14.0030740  15.9949146  12.0000000   1.0078250  12.0000000
 NucSpn=           1           0           0           0           1           2           0           0           1           0
 AtZEff=  -0.0000000  -0.0000000  -0.0000000  -0.0000000  -0.0000000  -0.0000000  -0.0000000  -0.0000000  -0.0000000  -0.0000000
 NQMom=    0.0000000   0.0000000   0.0000000   0.0000000   0.0000000   2.0440000   0.0000000   0.0000000   0.0000000   0.0000000
 NMagM=    2.7928460   0.0000000   0.0000000   0.0000000   2.7928460   0.4037610   0.0000000   0.0000000   2.7928460   0.0000000
 AtZNuc=   1.0000000   6.0000000   8.0000000   6.0000000   1.0000000   7.0000000   8.0000000   6.0000000   1.0000000   6.0000000

  Atom        51          52          53          54          55          56          57          58          59          60
 IAtWgt=          12          14           1           1           1           1           1          14          12          12
 AtmWgt=  12.0000000  14.0030740   1.0078250   1.0078250   1.0078250   1.0078250   1.0078250  14.0030740  12.0000000  12.0000000
 NucSpn=           0           2           1           1           1           1           1           2           0           0
 AtZEff=  -0.0000000  -0.0000000  -0.0000000  -0.0000000  -0.0000000  -0.0000000  -0.0000000  -0.0000000  -0.0000000  -0.0000000
 NQMom=    0.0000000   2.0440000   0.0000000   0.0000000   0.0000000   0.0000000   0.0000000   2.0440000   0.0000000   0.0000000
 NMagM=    0.0000000   0.4037610   2.7928460   2.7928460   2.7928460   2.7928460   2.7928460   0.4037610   0.0000000   0.0000000
 AtZNuc=   6.0000000   7.0000000   1.0000000   1.0000000   1.0000000   1.0000000   1.0000000   7.0000000   6.0000000   6.0000000

  Atom        61          62          63          64          65          66          67          68          69          70
 IAtWgt=          14           1          12          14           1          12          14          12          12          14
 AtmWgt=  14.0030740   1.0078250  12.0000000  14.0030740   1.0078250  12.0000000  14.0030740  12.0000000  12.0000000  14.0030740
 NucSpn=           2           1           0           2           1           0           2           0           0           2
 AtZEff=  -0.0000000  -0.0000000  -0.0000000  -0.0000000  -0.0000000  -0.0000000  -0.0000000  -0.0000000  -0.0000000  -0.0000000
 NQMom=    2.0440000   0.0000000   0.0000000   2.0440000   0.0000000   0.0000000   2.0440000   0.0000000   0.0000000   2.0440000
 NMagM=    0.4037610   2.7928460   0.0000000   0.4037610   2.7928460   0.0000000   0.4037610   0.0000000   0.0000000   0.4037610
 AtZNuc=   7.0000000   1.0000000   6.0000000   7.0000000   1.0000000   6.0000000   7.0000000   6.0000000   6.0000000   7.0000000
 Leave Link  101 at Mon Jan 22 22:18:05 2018, MaxMem=  4294967296 cpu:              10.5 elap:               0.4
 (Enter /share/apps/g16/l202.exe)
 Stoichiometry    C23H27N17O3
 Framework group  C1[X(C23H27N17O3)]
 Deg. of freedom   204
 Full point group                 C1      NOp   1
 Largest Abelian subgroup         C1      NOp   1
 Largest concise Abelian subgroup C1      NOp   1
                         Standard orientation:                         
 ---------------------------------------------------------------------
 Center     Atomic      Atomic             Coordinates (Angstroms)
 Number     Number       Type             X           Y           Z
 ---------------------------------------------------------------------
      1          7           0       -6.696832   -1.461781    0.394998
      2          6           0       -8.072639   -0.930028    0.444249
      3          6           0       -4.515348   -1.680373    0.570012
      4          7           0       -4.982634   -2.870378    0.031264
      5          6           0       -6.278199   -2.691054   -0.052622
      6          1           0       -6.982683   -3.429268   -0.436929
      7          7           0       -3.103667    0.005241    1.423735
      8          6           0       -4.208118    0.740556    1.588288
      9          1           0       -4.048099    1.732149    2.009498
     10          7           0       -5.474603    0.436326    1.311949
     11          6           0       -5.560356   -0.802428    0.799551
     12          6           0       -3.223315   -1.236790    0.905911
     13          7           0       -2.121998   -1.972327    0.740895
     14          1           0       -2.163399   -2.897127    0.361089
     15          1           0       -1.218466   -1.624250    0.991150
     16          1           0       -8.637794   -1.517109    1.024001
     17          1           0       -8.059681   -0.004283    0.821001
     18          1           0       -8.456587   -0.907070   -0.478811
     19          7           0       -2.799500    2.591563   -1.656358
     20          6           0       -1.456435    2.356299   -1.486427
     21          6           0       -3.462297    3.902556   -1.505763
     22          7           0        1.730825    3.519855   -0.745306
     23          1           0        2.654229    3.144401   -0.670400
     24          1           0        1.623580    4.498956   -0.570453
     25          7           0       -0.524088    3.275856   -1.155987
     26          6           0        0.682849    2.745945   -1.065776
     27          7           0        0.957802    1.417389   -1.282212
     28          1           0        1.910712    1.100182   -1.191136
     29          6           0        0.014206    0.453416   -1.623178
     30          8           0        0.367236   -0.719636   -1.796551
     31          6           0       -1.287166    1.007674   -1.723805
     32          7           0       -2.499560    0.408328   -2.036475
     33          6           0       -3.365532    1.383822   -1.984410
     34          1           0       -4.433566    1.276996   -2.177204
     35          1           0       -4.153314    3.847828   -0.785819
     36          1           0       -2.781508    4.591681   -1.261007
     37          1           0       -3.898797    4.158206   -2.367695
     38          1           0        6.726787    0.036235    0.044262
     39          1           0        6.968341    0.093367   -1.700174
     40          1           0        5.745296    1.116586   -0.946142
     41          1           0        4.977461   -4.261005   -1.228574
     42          6           0        4.677397   -3.213086   -1.235811
     43          8           0        2.376463   -3.683487   -1.569823
     44          6           0        3.297093   -2.881245   -1.416065
     45          1           0        2.061276   -1.254232   -1.533906
     46          7           0        3.025811   -1.527881   -1.409316
     47          8           0        3.589502    0.666882   -1.259382
     48          6           0        3.926087   -0.504148   -1.251126
     49          1           0        6.640490   -2.436103   -0.938530
     50          6           0        5.578947   -2.236757   -1.078994
     51          6           0        6.235113    0.154873   -0.909812
     52          7           0        5.237086   -0.904279   -1.082695
     53          1           0        3.735266    3.239286    3.758724
     54          1           0        2.571634    3.512211    2.648057
     55          1           0        4.143379    3.551287    2.209687
     56          1           0        1.334569   -3.203332    0.966810
     57          1           0        2.952625   -2.949259    1.443718
     58          7           0        2.041416   -2.569326    1.280744
     59          6           0        1.781494   -1.274593    1.473780
     60          6           0        2.319192    0.965954    2.067572
     61          7           0        1.086226    1.448369    1.840662
     62          1           0       -0.751355    0.783199    1.223019
     63          6           0        0.273046    0.477008    1.430647
     64          7           0        0.531469   -0.820364    1.236690
     65          1           0        5.442108    1.028481    2.901639
     66          6           0        4.439596    0.744216    2.580549
     67          7           0        4.082071   -0.470195    2.241315
     68          6           0        2.739889   -0.343591    1.913837
     69          6           0        3.472104    3.106948    2.803097
     70          7           0        3.422496    1.663731    2.498660
 ---------------------------------------------------------------------
 Rotational constants (GHZ):           0.1398036           0.0524464           0.0477146
 Leave Link  202 at Mon Jan 22 22:18:05 2018, MaxMem=  4294967296 cpu:               0.4 elap:               0.0
 (Enter /share/apps/g16/l301.exe)
 Standard basis: CC-pVDZ (5D, 7F)
 Ernie: Thresh=  0.10000D-02 Tol=  0.10000D-05 Strict=F.
 Ernie:  86 primitive shells out of 1081 were deleted.
 There are   780 symmetry adapted cartesian basis functions of A   symmetry.
 There are   737 symmetry adapted basis functions of A   symmetry.
   737 basis functions,  1608 primitive gaussians,   780 cartesian basis functions
   154 alpha electrons      154 beta electrons
       nuclear repulsion energy      5454.5791237390 Hartrees.
 IExCor= 4639 DFT=T Ex+Corr=wB97XD ExCW=0 ScaHFX=  1.000000
 ScaDFX=  1.000000  1.000000  1.000000  1.000000 ScalE2=  1.000000  1.000000
 IRadAn=      5 IRanWt=     -1 IRanGd=            0 ICorTp=0 IEmpDi=121
 HFx  wShort=  0.000000 wLong=  0.200000 cFull=  0.222036 cShort=  0.000000 cLong=  0.777964
 DFx  wShort=  0.000000 wLong=  0.200000 cFull=  0.000000 cShort=  0.000000 cLong=  1.000000
 NAtoms=   70 NActive=   70 NUniq=   70 SFac= 1.00D+00 NAtFMM=   60 NAOKFM=T Big=T
 Integral buffers will be    131072 words long.
 Raffenetti 2 integral format.
 Two-electron integral symmetry is turned on.
 R6Disp:  Grimme-D2 Dispersion energy=       -0.0682299465 Hartrees.
 Nuclear repulsion after empirical dispersion term =     5454.5108937924 Hartrees.
 Leave Link  301 at Mon Jan 22 22:18:05 2018, MaxMem=  4294967296 cpu:               3.0 elap:               0.1
 (Enter /share/apps/g16/l302.exe)
 NPDir=0 NMtPBC=     1 NCelOv=     1 NCel=       1 NClECP=     1 NCelD=      1
         NCelK=      1 NCelE2=     1 NClLst=     1 CellRange=     0.0.
 One-electron integrals computed using PRISM.
 One-electron integral symmetry used in STVInt
 NBasis=   737 RedAO= T EigKep=  7.14D-04  NBF=   737
 NBsUse=   737 1.00D-06 EigRej= -1.00D+00 NBFU=   737
 Precomputing XC quadrature grid using
 IXCGrd= 4 IRadAn=           5 IRanWt=          -1 IRanGd=           0 AccXCQ= 0.00D+00.
 Generated NRdTot=       0 NPtTot=           0 NUsed=           0 NTot=          32
 NSgBfM=   767   763   763   767   767 MxSgAt=    70 MxSgA2=    70.
 Leave Link  302 at Mon Jan 22 22:18:09 2018, MaxMem=  4294967296 cpu:             135.3 elap:               4.3
 (Enter /share/apps/g16/l303.exe)
 DipDrv:  MaxL=1.
 Leave Link  303 at Mon Jan 22 22:18:10 2018, MaxMem=  4294967296 cpu:              12.3 elap:               0.4
 (Enter /share/apps/g16/l401.exe)
 ExpMin= 1.22D-01 ExpMax= 1.17D+04 ExpMxC= 4.01D+02 IAcc=3 IRadAn=         5 AccDes= 0.00D+00
 Harris functional with IExCor= 4639 and IRadAn=       5 diagonalized for initial guess.
 HarFok:  IExCor= 4639 AccDes= 0.00D+00 IRadAn=         5 IDoV= 1 UseB2=F ITyADJ=14
 ICtDFT=  3500011 ScaDFX=  1.000000  1.000000  1.000000  1.000000
 FoFCou: FMM=F IPFlag=           0 FMFlag=      100000 FMFlg1=        2001
         NFxFlg=           0 DoJE=T BraDBF=F KetDBF=T FulRan=T
         wScrn=  0.000000 ICntrl=       500 IOpCl=  0 I1Cent=   200000004 NGrid=           0
         NMat0=    1 NMatS0=      1 NMatT0=    0 NMatD0=    1 NMtDS0=    0 NMtDT0=    0
 Petite list used in FoFCou.
 Harris En= -1963.88507462605    
 JPrj=0 DoOrth=F DoCkMO=F.
 Leave Link  401 at Mon Jan 22 22:18:22 2018, MaxMem=  4294967296 cpu:             393.1 elap:              12.3
 (Enter /share/apps/g16/l502.exe)
 Integral symmetry usage will be decided dynamically.
 Closed shell SCF:
 Using DIIS extrapolation, IDIIS=  1040.
 NGot=  4294967296 LenX=  4293717438 LenY=  4293108258
 Requested convergence on RMS density matrix=1.00D-08 within  20 cycles.
 Requested convergence on MAX density matrix=1.00D-06.
 Requested convergence on             energy=1.00D-06.
 No special actions if energy rises.
 Fock matrices will be formed incrementally for  20 cycles.
 Integral accuracy reduced to 1.0D-05 until final iterations.

 Cycle   1  Pass 0  IDiag  1:
 FoFJK:  IHMeth= 1 ICntrl=       0 DoSepK=T KAlg= 0 I1Cent=           0 FoldK=F
 IRaf=         1 NMat=       1 IRICut=       1 DoRegI=T DoRafI=F ISym2E= 0 IDoP0=0 IntGTp=1.
 FoFCou: FMM=T IPFlag=           0 FMFlag=      100000 FMFlg1=        2001
         NFxFlg=           0 DoJE=T BraDBF=F KetDBF=F FulRan=T
         wScrn=  0.000000 ICntrl=       500 IOpCl=  0 I1Cent=           0 NGrid=           0
         NMat0=    1 NMatS0=      1 NMatT0=    0 NMatD0=    1 NMtDS0=    0 NMtDT0=    0
 Symmetry not used in FoFCou.
 FMM levels:  10  Number of levels for PrismC:   9
 E= -2048.31667566211    
 DIIS: error= 2.44D-02 at cycle   1 NSaved=   1.
 NSaved= 1 IEnMin= 1 EnMin= -2048.31667566211     IErMin= 1 ErrMin= 2.44D-02
 ErrMax= 2.44D-02  0.00D+00 EMaxC= 1.00D-01 BMatC= 8.31D-01 BMatP= 8.31D-01
 IDIUse=3 WtCom= 7.56D-01 WtEn= 2.44D-01
 Coeff-Com:  0.100D+01
 Coeff-En:   0.100D+01
 Coeff:      0.100D+01
 Gap=     0.253 Goal=   None    Shift=    0.000
 GapD=    0.253 DampG=1.000 DampE=0.500 DampFc=0.5000 IDamp=-1.
 Damping current iteration by 5.00D-01
 RMSDP=1.56D-03 MaxDP=1.31D-01              OVMax= 1.94D-01

 Cycle   2  Pass 0  IDiag  1:
 RMSU=  7.82D-04    CP:  9.98D-01
 E= -2048.51357616542     Delta-E=       -0.196900503310 Rises=F Damp=T
 DIIS: error= 1.34D-02 at cycle   2 NSaved=   2.
 NSaved= 2 IEnMin= 2 EnMin= -2048.51357616542     IErMin= 2 ErrMin= 1.34D-02
 ErrMax= 1.34D-02  0.00D+00 EMaxC= 1.00D-01 BMatC= 1.44D-01 BMatP= 8.31D-01
 IDIUse=3 WtCom= 8.66D-01 WtEn= 1.34D-01
 Coeff-Com: -0.200D+00 0.120D+01
 Coeff-En:   0.000D+00 0.100D+01
 Coeff:     -0.173D+00 0.117D+01
 Gap=     0.364 Goal=   None    Shift=    0.000
 RMSDP=5.84D-04 MaxDP=3.37D-02 DE=-1.97D-01 OVMax= 1.50D-01

 Cycle   3  Pass 0  IDiag  1:
 RMSU=  5.71D-04    CP:  9.94D-01  1.14D+00
 E= -2048.69333525740     Delta-E=       -0.179759091979 Rises=F Damp=F
 DIIS: error= 7.79D-03 at cycle   3 NSaved=   3.
 NSaved= 3 IEnMin= 3 EnMin= -2048.69333525740     IErMin= 3 ErrMin= 7.79D-03
 ErrMax= 7.79D-03  0.00D+00 EMaxC= 1.00D-01 BMatC= 6.10D-02 BMatP= 1.44D-01
 IDIUse=3 WtCom= 9.22D-01 WtEn= 7.79D-02
 Coeff-Com: -0.231D+00 0.545D+00 0.686D+00
 Coeff-En:   0.000D+00 0.000D+00 0.100D+01
 Coeff:     -0.213D+00 0.503D+00 0.710D+00
 Gap=     0.278 Goal=   None    Shift=    0.000
 RMSDP=3.51D-04 MaxDP=3.31D-02 DE=-1.80D-01 OVMax= 7.24D-02

 Cycle   4  Pass 0  IDiag  1:
 RMSU=  2.01D-04    CP:  9.94D-01  1.42D+00  6.75D-01
 E= -2048.73955423636     Delta-E=       -0.046218978963 Rises=F Damp=F
 DIIS: error= 2.71D-03 at cycle   4 NSaved=   4.
 NSaved= 4 IEnMin= 4 EnMin= -2048.73955423636     IErMin= 4 ErrMin= 2.71D-03
 ErrMax= 2.71D-03  0.00D+00 EMaxC= 1.00D-01 BMatC= 8.97D-03 BMatP= 6.10D-02
 IDIUse=3 WtCom= 9.73D-01 WtEn= 2.71D-02
 Coeff-Com: -0.950D-01 0.184D+00 0.380D+00 0.531D+00
 Coeff-En:   0.000D+00 0.000D+00 0.669D-01 0.933D+00
 Coeff:     -0.924D-01 0.179D+00 0.372D+00 0.541D+00
 Gap=     0.283 Goal=   None    Shift=    0.000
 RMSDP=1.26D-04 MaxDP=1.15D-02 DE=-4.62D-02 OVMax= 1.41D-02

 Cycle   5  Pass 0  IDiag  1:
 RMSU=  6.06D-05    CP:  9.94D-01  1.40D+00  8.08D-01  6.17D-01
 E= -2048.74697578385     Delta-E=       -0.007421547488 Rises=F Damp=F
 DIIS: error= 6.97D-04 at cycle   5 NSaved=   5.
 NSaved= 5 IEnMin= 5 EnMin= -2048.74697578385     IErMin= 5 ErrMin= 6.97D-04
 ErrMax= 6.97D-04  0.00D+00 EMaxC= 1.00D-01 BMatC= 2.90D-04 BMatP= 8.97D-03
 IDIUse=3 WtCom= 9.93D-01 WtEn= 6.97D-03
 Coeff-Com: -0.245D-01 0.420D-01 0.123D+00 0.240D+00 0.620D+00
 Coeff-En:   0.000D+00 0.000D+00 0.000D+00 0.000D+00 0.100D+01
 Coeff:     -0.243D-01 0.417D-01 0.122D+00 0.238D+00 0.622D+00
 Gap=     0.283 Goal=   None    Shift=    0.000
 RMSDP=2.61D-05 MaxDP=1.87D-03 DE=-7.42D-03 OVMax= 3.14D-03

 Failed to achieve initial convergence to 1.0D-08 in  6 cycles.
 Switch to full accuracy anyway.
 Cycle   6  Pass 1  IDiag  1:
 E= -2048.74709039075     Delta-E=       -0.000114606898 Rises=F Damp=F
 DIIS: error= 1.98D-04 at cycle   1 NSaved=   1.
 NSaved= 1 IEnMin= 1 EnMin= -2048.74709039075     IErMin= 1 ErrMin= 1.98D-04
 ErrMax= 1.98D-04  0.00D+00 EMaxC= 1.00D-01 BMatC= 7.36D-05 BMatP= 7.36D-05
 IDIUse=3 WtCom= 9.98D-01 WtEn= 1.98D-03
 Coeff-Com:  0.100D+01
 Coeff-En:   0.100D+01
 Coeff:      0.100D+01
 Gap=     0.283 Goal=   None    Shift=    0.000
 RMSDP=2.61D-05 MaxDP=1.87D-03 DE=-1.15D-04 OVMax= 2.60D-03

 Cycle   7  Pass 1  IDiag  1:
 RMSU=  1.15D-04    CP:  1.00D+00
 E= -2048.74714732254     Delta-E=       -0.000056931794 Rises=F Damp=F
 DIIS: error= 2.77D-04 at cycle   2 NSaved=   2.
 NSaved= 2 IEnMin= 2 EnMin= -2048.74714732254     IErMin= 1 ErrMin= 1.98D-04
 ErrMax= 2.77D-04  0.00D+00 EMaxC= 1.00D-01 BMatC= 4.07D-05 BMatP= 7.36D-05
 IDIUse=3 WtCom= 9.97D-01 WtEn= 2.77D-03
 Coeff-Com:  0.400D+00 0.600D+00
 Coeff-En:   0.000D+00 0.100D+01
 Coeff:      0.399D+00 0.601D+00
 Gap=     0.283 Goal=   None    Shift=    0.000
 RMSDP=1.12D-05 MaxDP=1.08D-03 DE=-5.69D-05 OVMax= 1.46D-03

 Cycle   8  Pass 1  IDiag  1:
 RMSU=  1.08D-05    CP:  1.00D+00  1.03D+00
 E= -2048.74717631785     Delta-E=       -0.000028995304 Rises=F Damp=F
 DIIS: error= 1.05D-04 at cycle   3 NSaved=   3.
 NSaved= 3 IEnMin= 3 EnMin= -2048.74717631785     IErMin= 3 ErrMin= 1.05D-04
 ErrMax= 1.05D-04  0.00D+00 EMaxC= 1.00D-01 BMatC= 1.02D-05 BMatP= 4.07D-05
 IDIUse=3 WtCom= 9.99D-01 WtEn= 1.05D-03
 Coeff-Com: -0.211D-01 0.321D+00 0.700D+00
 Coeff-En:   0.000D+00 0.145D+00 0.855D+00
 Coeff:     -0.211D-01 0.321D+00 0.700D+00
 Gap=     0.283 Goal=   None    Shift=    0.000
 RMSDP=5.59D-06 MaxDP=4.48D-04 DE=-2.90D-05 OVMax= 5.42D-04

 Cycle   9  Pass 1  IDiag  1:
 RMSU=  3.75D-06    CP:  1.00D+00  1.05D+00  7.56D-01
 E= -2048.74718578441     Delta-E=       -0.000009466561 Rises=F Damp=F
 DIIS: error= 3.16D-05 at cycle   4 NSaved=   4.
 NSaved= 4 IEnMin= 4 EnMin= -2048.74718578441     IErMin= 4 ErrMin= 3.16D-05
 ErrMax= 3.16D-05  0.00D+00 EMaxC= 1.00D-01 BMatC= 4.73D-07 BMatP= 1.02D-05
 IDIUse=1 WtCom= 1.00D+00 WtEn= 0.00D+00
 Coeff-Com: -0.302D-01 0.868D-01 0.255D+00 0.689D+00
 Coeff:     -0.302D-01 0.868D-01 0.255D+00 0.689D+00
 Gap=     0.283 Goal=   None    Shift=    0.000
 RMSDP=1.40D-06 MaxDP=1.37D-04 DE=-9.47D-06 OVMax= 5.04D-04

 Cycle  10  Pass 1  IDiag  1:
 RMSU=  1.25D-06    CP:  1.00D+00  1.06D+00  7.90D-01  1.10D+00
 E= -2048.74718658463     Delta-E=       -0.000000800216 Rises=F Damp=F
 DIIS: error= 1.51D-05 at cycle   5 NSaved=   5.
 NSaved= 5 IEnMin= 5 EnMin= -2048.74718658463     IErMin= 5 ErrMin= 1.51D-05
 ErrMax= 1.51D-05  0.00D+00 EMaxC= 1.00D-01 BMatC= 1.17D-07 BMatP= 4.73D-07
 IDIUse=1 WtCom= 1.00D+00 WtEn= 0.00D+00
 Coeff-Com: -0.232D-02-0.594D-01-0.124D+00 0.208D+00 0.978D+00
 Coeff:     -0.232D-02-0.594D-01-0.124D+00 0.208D+00 0.978D+00
 Gap=     0.283 Goal=   None    Shift=    0.000
 RMSDP=1.19D-06 MaxDP=7.81D-05 DE=-8.00D-07 OVMax= 2.47D-04

 Cycle  11  Pass 1  IDiag  1:
 RMSU=  4.87D-07    CP:  1.00D+00  1.06D+00  8.01D-01  1.38D+00  1.16D+00
 E= -2048.74718683556     Delta-E=       -0.000000250934 Rises=F Damp=F
 DIIS: error= 8.75D-06 at cycle   6 NSaved=   6.
 NSaved= 6 IEnMin= 6 EnMin= -2048.74718683556     IErMin= 6 ErrMin= 8.75D-06
 ErrMax= 8.75D-06  0.00D+00 EMaxC= 1.00D-01 BMatC= 2.64D-08 BMatP= 1.17D-07
 IDIUse=1 WtCom= 1.00D+00 WtEn= 0.00D+00
 Coeff-Com:  0.473D-02-0.465D-01-0.113D+00 0.247D-02 0.517D+00 0.635D+00
 Coeff:      0.473D-02-0.465D-01-0.113D+00 0.247D-02 0.517D+00 0.635D+00
 Gap=     0.283 Goal=   None    Shift=    0.000
 RMSDP=3.48D-07 MaxDP=3.73D-05 DE=-2.51D-07 OVMax= 1.27D-04

 Cycle  12  Pass 1  IDiag  1:
 RMSU=  1.77D-07    CP:  1.00D+00  1.06D+00  8.02D-01  1.45D+00  1.29D+00
                    CP:  9.41D-01
 E= -2048.74718687343     Delta-E=       -0.000000037870 Rises=F Damp=F
 DIIS: error= 1.19D-06 at cycle   7 NSaved=   7.
 NSaved= 7 IEnMin= 7 EnMin= -2048.74718687343     IErMin= 7 ErrMin= 1.19D-06
 ErrMax= 1.19D-06  0.00D+00 EMaxC= 1.00D-01 BMatC= 7.42D-10 BMatP= 2.64D-08
 IDIUse=1 WtCom= 1.00D+00 WtEn= 0.00D+00
 Coeff-Com:  0.101D-02-0.650D-02-0.172D-01-0.718D-02 0.441D-01 0.128D+00
 Coeff-Com:  0.858D+00
 Coeff:      0.101D-02-0.650D-02-0.172D-01-0.718D-02 0.441D-01 0.128D+00
 Coeff:      0.858D+00
 Gap=     0.283 Goal=   None    Shift=    0.000
 RMSDP=8.41D-08 MaxDP=5.21D-06 DE=-3.79D-08 OVMax= 2.29D-05

 Cycle  13  Pass 1  IDiag  1:
 RMSU=  4.86D-08    CP:  1.00D+00  1.06D+00  8.02D-01  1.46D+00  1.31D+00
                    CP:  1.03D+00  1.15D+00
 E= -2048.74718687535     Delta-E=       -0.000000001919 Rises=F Damp=F
 DIIS: error= 5.81D-07 at cycle   8 NSaved=   8.
 NSaved= 8 IEnMin= 8 EnMin= -2048.74718687535     IErMin= 8 ErrMin= 5.81D-07
 ErrMax= 5.81D-07  0.00D+00 EMaxC= 1.00D-01 BMatC= 3.02D-10 BMatP= 7.42D-10
 IDIUse=1 WtCom= 1.00D+00 WtEn= 0.00D+00
 Coeff-Com: -0.714D-03 0.877D-02 0.202D-01-0.247D-02-0.111D+00-0.933D-01
 Coeff-Com:  0.436D+00 0.743D+00
 Coeff:     -0.714D-03 0.877D-02 0.202D-01-0.247D-02-0.111D+00-0.933D-01
 Coeff:      0.436D+00 0.743D+00
 Gap=     0.283 Goal=   None    Shift=    0.000
 RMSDP=4.30D-08 MaxDP=2.59D-06 DE=-1.92D-09 OVMax= 1.09D-05

 Cycle  14  Pass 1  IDiag  1:
 RMSU=  2.58D-08    CP:  1.00D+00  1.06D+00  8.01D-01  1.46D+00  1.31D+00
                    CP:  1.08D+00  1.28D+00  1.07D+00
 E= -2048.74718687572     Delta-E=       -0.000000000371 Rises=F Damp=F
 DIIS: error= 2.05D-07 at cycle   9 NSaved=   9.
 NSaved= 9 IEnMin= 9 EnMin= -2048.74718687572     IErMin= 9 ErrMin= 2.05D-07
 ErrMax= 2.05D-07  0.00D+00 EMaxC= 1.00D-01 BMatC= 2.97D-11 BMatP= 3.02D-10
 IDIUse=1 WtCom= 1.00D+00 WtEn= 0.00D+00
 Coeff-Com: -0.424D-03 0.458D-02 0.108D-01-0.239D-04-0.529D-01-0.551D-01
 Coeff-Com:  0.882D-01 0.301D+00 0.704D+00
 Coeff:     -0.424D-03 0.458D-02 0.108D-01-0.239D-04-0.529D-01-0.551D-01
 Coeff:      0.882D-01 0.301D+00 0.704D+00
 Gap=     0.283 Goal=   None    Shift=    0.000
 RMSDP=1.31D-08 MaxDP=8.86D-07 DE=-3.71D-10 OVMax= 3.47D-06

 Cycle  15  Pass 1  IDiag  1:
 RMSU=  8.84D-09    CP:  1.00D+00  1.06D+00  8.01D-01  1.46D+00  1.31D+00
                    CP:  1.08D+00  1.31D+00  1.21D+00  1.11D+00
 E= -2048.74718687589     Delta-E=       -0.000000000166 Rises=F Damp=F
 DIIS: error= 7.86D-08 at cycle  10 NSaved=  10.
 NSaved=10 IEnMin=10 EnMin= -2048.74718687589     IErMin=10 ErrMin= 7.86D-08
 ErrMax= 7.86D-08  0.00D+00 EMaxC= 1.00D-01 BMatC= 5.33D-12 BMatP= 2.97D-11
 IDIUse=1 WtCom= 1.00D+00 WtEn= 0.00D+00
 Coeff-Com:  0.302D-05-0.281D-03-0.543D-03 0.227D-03 0.490D-02 0.609D-03
 Coeff-Com: -0.561D-01-0.539D-01 0.282D+00 0.823D+00
 Coeff:      0.302D-05-0.281D-03-0.543D-03 0.227D-03 0.490D-02 0.609D-03
 Coeff:     -0.561D-01-0.539D-01 0.282D+00 0.823D+00
 Gap=     0.283 Goal=   None    Shift=    0.000
 RMSDP=6.47D-09 MaxDP=4.13D-07 DE=-1.66D-10 OVMax= 1.48D-06

 SCF Done:  E(RwB97XD) =  -2048.74718688     A.U. after   15 cycles
            NFock= 15  Conv=0.65D-08     -V/T= 2.0054
 KE= 2.037699268192D+03 PE=-1.569000008699D+04 EE= 6.149042738135D+03
 Leave Link  502 at Mon Jan 22 22:29:28 2018, MaxMem=  4294967296 cpu:           20560.2 elap:             665.6
 (Enter /share/apps/g16/l601.exe)
 Copying SCF densities to generalized density rwf, IOpCl= 0 IROHF=0.

 **********************************************************************

            Population analysis using the SCF density.

 **********************************************************************

 Orbital symmetries:
       Occupied  (A) (A) (A) (A) (A) (A) (A) (A) (A) (A) (A) (A)
                 (A) (A) (A) (A) (A) (A) (A) (A) (A) (A) (A) (A)
                 (A) (A) (A) (A) (A) (A) (A) (A) (A) (A) (A) (A)
                 (A) (A) (A) (A) (A) (A) (A) (A) (A) (A) (A) (A)
                 (A) (A) (A) (A) (A) (A) (A) (A) (A) (A) (A) (A)
                 (A) (A) (A) (A) (A) (A) (A) (A) (A) (A) (A) (A)
                 (A) (A) (A) (A) (A) (A) (A) (A) (A) (A) (A) (A)
                 (A) (A) (A) (A) (A) (A) (A) (A) (A) (A) (A) (A)
                 (A) (A) (A) (A) (A) (A) (A) (A) (A) (A) (A) (A)
                 (A) (A) (A) (A) (A) (A) (A) (A) (A) (A) (A) (A)
                 (A) (A) (A) (A) (A) (A) (A) (A) (A) (A) (A) (A)
                 (A) (A) (A) (A) (A) (A) (A) (A) (A) (A) (A) (A)
                 (A) (A) (A) (A) (A) (A) (A) (A) (A) (A)
       Virtual   (A) (A) (A) (A) (A) (A) (A) (A) (A) (A) (A) (A)
                 (A) (A) (A) (A) (A) (A) (A) (A) (A) (A) (A) (A)
                 (A) (A) (A) (A) (A) (A) (A) (A) (A) (A) (A) (A)
                 (A) (A) (A) (A) (A) (A) (A) (A) (A) (A) (A) (A)
                 (A) (A) (A) (A) (A) (A) (A) (A) (A) (A) (A) (A)
                 (A) (A) (A) (A) (A) (A) (A) (A) (A) (A) (A) (A)
                 (A) (A) (A) (A) (A) (A) (A) (A) (A) (A) (A) (A)
                 (A) (A) (A) (A) (A) (A) (A) (A) (A) (A) (A) (A)
                 (A) (A) (A) (A) (A) (A) (A) (A) (A) (A) (A) (A)
                 (A) (A) (A) (A) (A) (A) (A) (A) (A) (A) (A) (A)
                 (A) (A) (A) (A) (A) (A) (A) (A) (A) (A) (A) (A)
                 (A) (A) (A) (A) (A) (A) (A) (A) (A) (A) (A) (A)
                 (A) (A) (A) (A) (A) (A) (A) (A) (A) (A) (A) (A)
                 (A) (A) (A) (A) (A) (A) (A) (A) (A) (A) (A) (A)
                 (A) (A) (A) (A) (A) (A) (A) (A) (A) (A) (A) (A)
                 (A) (A) (A) (A) (A) (A) (A) (A) (A) (A) (A) (A)
                 (A) (A) (A) (A) (A) (A) (A) (A) (A) (A) (A) (A)
                 (A) (A) (A) (A) (A) (A) (A) (A) (A) (A) (A) (A)
                 (A) (A) (A) (A) (A) (A) (A) (A) (A) (A) (A) (A)
                 (A) (A) (A) (A) (A) (A) (A) (A) (A) (A) (A) (A)
                 (A) (A) (A) (A) (A) (A) (A) (A) (A) (A) (A) (A)
                 (A) (A) (A) (A) (A) (A) (A) (A) (A) (A) (A) (A)
                 (A) (A) (A) (A) (A) (A) (A) (A) (A) (A) (A) (A)
                 (A) (A) (A) (A) (A) (A) (A) (A) (A) (A) (A) (A)
                 (A) (A) (A) (A) (A) (A) (A) (A) (A) (A) (A) (A)
                 (A) (A) (A) (A) (A) (A) (A) (A) (A) (A) (A) (A)
                 (A) (A) (A) (A) (A) (A) (A) (A) (A) (A) (A) (A)
                 (A) (A) (A) (A) (A) (A) (A) (A) (A) (A) (A) (A)
                 (A) (A) (A) (A) (A) (A) (A) (A) (A) (A) (A) (A)
                 (A) (A) (A) (A) (A) (A) (A) (A) (A) (A) (A) (A)
                 (A) (A) (A) (A) (A) (A) (A) (A) (A) (A) (A) (A)
                 (A) (A) (A) (A) (A) (A) (A) (A) (A) (A) (A) (A)
                 (A) (A) (A) (A) (A) (A) (A) (A) (A) (A) (A) (A)
                 (A) (A) (A) (A) (A) (A) (A) (A) (A) (A) (A) (A)
                 (A) (A) (A) (A) (A) (A) (A) (A) (A) (A) (A) (A)
                 (A) (A) (A) (A) (A) (A) (A) (A) (A) (A) (A) (A)
                 (A) (A) (A) (A) (A) (A) (A) (A) (A) (A) (A) (A)
                 (A) (A) (A) (A) (A) (A) (A) (A) (A) (A) (A) (A)
                 (A) (A) (A) (A) (A) (A) (A) (A) (A) (A) (A) (A)
                 (A) (A) (A) (A) (A) (A) (A) (A) (A) (A) (A) (A)
                 (A) (A) (A) (A) (A) (A) (A) (A) (A) (A) (A) (A)
                 (A) (A) (A) (A) (A) (A) (A) (A) (A) (A) (A) (A)
                 (A) (A) (A) (A) (A) (A) (A) (A) (A) (A) (A) (A)
                 (A) (A) (A) (A) (A) (A) (A) (A) (A) (A) (A) (A)
                 (A) (A) (A) (A) (A) (A) (A) (A) (A) (A) (A) (A)
                 (A) (A) (A) (A) (A) (A) (A) (A) (A) (A) (A) (A)
                 (A) (A) (A) (A) (A) (A) (A) (A) (A) (A) (A) (A)
                 (A) (A) (A) (A) (A) (A) (A) (A) (A) (A) (A) (A)
                 (A) (A) (A) (A) (A) (A) (A)
 The electronic state is 1-A.
 Alpha  occ. eigenvalues --  -19.26026 -19.22339 -19.20739 -14.52580 -14.51594
 Alpha  occ. eigenvalues --  -14.48906 -14.48778 -14.48050 -14.47014 -14.46977
 Alpha  occ. eigenvalues --  -14.46595 -14.44657 -14.43065 -14.43005 -14.42166
 Alpha  occ. eigenvalues --  -14.42142 -14.41536 -14.41028 -14.40831 -14.40221
 Alpha  occ. eigenvalues --  -10.45662 -10.41371 -10.40450 -10.38639 -10.38336
 Alpha  occ. eigenvalues --  -10.38039 -10.37201 -10.36133 -10.35451 -10.35417
 Alpha  occ. eigenvalues --  -10.34602 -10.34434 -10.34199 -10.33480 -10.33398
 Alpha  occ. eigenvalues --  -10.33275 -10.33195 -10.31593 -10.31277 -10.31120
 Alpha  occ. eigenvalues --  -10.30819 -10.28627 -10.28194  -1.19594  -1.14264
 Alpha  occ. eigenvalues --   -1.13370  -1.13329  -1.11477  -1.10632  -1.09474
 Alpha  occ. eigenvalues --   -1.08707  -1.07997  -1.05046  -1.03567  -1.02710
 Alpha  occ. eigenvalues --   -1.00470  -1.00068  -0.99952  -0.98638  -0.97062
 Alpha  occ. eigenvalues --   -0.96597  -0.95584  -0.92691  -0.91249  -0.86678
 Alpha  occ. eigenvalues --   -0.85122  -0.84160  -0.84061  -0.83815  -0.82503
 Alpha  occ. eigenvalues --   -0.82429  -0.79065  -0.75961  -0.74699  -0.73820
 Alpha  occ. eigenvalues --   -0.73693  -0.73560  -0.72974  -0.71145  -0.69342
 Alpha  occ. eigenvalues --   -0.67525  -0.66739  -0.66373  -0.65685  -0.64629
 Alpha  occ. eigenvalues --   -0.63877  -0.63185  -0.62796  -0.62727  -0.61885
 Alpha  occ. eigenvalues --   -0.60288  -0.59940  -0.59698  -0.59464  -0.58929
 Alpha  occ. eigenvalues --   -0.58562  -0.58547  -0.56690  -0.56587  -0.56509
 Alpha  occ. eigenvalues --   -0.56134  -0.55432  -0.54692  -0.54565  -0.54383
 Alpha  occ. eigenvalues --   -0.53763  -0.53593  -0.53035  -0.52855  -0.52644
 Alpha  occ. eigenvalues --   -0.52514  -0.51864  -0.51847  -0.50874  -0.50289
 Alpha  occ. eigenvalues --   -0.50276  -0.49639  -0.49283  -0.49112  -0.48983
 Alpha  occ. eigenvalues --   -0.48603  -0.48364  -0.47945  -0.47694  -0.47538
 Alpha  occ. eigenvalues --   -0.47055  -0.45528  -0.45119  -0.44292  -0.43393
 Alpha  occ. eigenvalues --   -0.41259  -0.39768  -0.39598  -0.37391  -0.37325
 Alpha  occ. eigenvalues --   -0.37274  -0.36637  -0.36507  -0.36052  -0.34377
 Alpha  occ. eigenvalues --   -0.33816  -0.33574  -0.33539  -0.33409  -0.33018
 Alpha  occ. eigenvalues --   -0.32791  -0.32421  -0.32223  -0.31899  -0.31039
 Alpha  occ. eigenvalues --   -0.30452  -0.28801  -0.25830  -0.25558
 Alpha virt. eigenvalues --    0.02749   0.05054   0.07637   0.07879   0.08756
 Alpha virt. eigenvalues --    0.09193   0.09558   0.10887   0.11278   0.11733
 Alpha virt. eigenvalues --    0.12734   0.13936   0.14536   0.14684   0.15340
 Alpha virt. eigenvalues --    0.16143   0.16191   0.16868   0.17111   0.18004
 Alpha virt. eigenvalues --    0.18838   0.19403   0.19531   0.20245   0.20471
 Alpha virt. eigenvalues --    0.20594   0.21014   0.21478   0.21868   0.22336
 Alpha virt. eigenvalues --    0.22415   0.23033   0.23446   0.23641   0.23794
 Alpha virt. eigenvalues --    0.23917   0.24005   0.24294   0.24688   0.25114
 Alpha virt. eigenvalues --    0.26117   0.26596   0.26784   0.27184   0.27926
 Alpha virt. eigenvalues --    0.28979   0.29342   0.29826   0.30568   0.31028
 Alpha virt. eigenvalues --    0.31270   0.31776   0.32515   0.33073   0.33602
 Alpha virt. eigenvalues --    0.33745   0.34562   0.34809   0.35708   0.36577
 Alpha virt. eigenvalues --    0.36592   0.37489   0.38084   0.39394   0.39529
 Alpha virt. eigenvalues --    0.40011   0.40474   0.41407   0.41616   0.41673
 Alpha virt. eigenvalues --    0.42199   0.42445   0.43393   0.44095   0.44668
 Alpha virt. eigenvalues --    0.44954   0.45634   0.46028   0.46231   0.46854
 Alpha virt. eigenvalues --    0.47368   0.48055   0.48606   0.48924   0.49343
 Alpha virt. eigenvalues --    0.49741   0.50201   0.50465   0.50717   0.51281
 Alpha virt. eigenvalues --    0.51437   0.51811   0.51932   0.52557   0.53500
 Alpha virt. eigenvalues --    0.53840   0.54393   0.54572   0.55027   0.55090
 Alpha virt. eigenvalues --    0.55850   0.55984   0.56192   0.56799   0.57343
 Alpha virt. eigenvalues --    0.57788   0.58264   0.58635   0.59179   0.60005
 Alpha virt. eigenvalues --    0.60180   0.60269   0.60579   0.61047   0.61612
 Alpha virt. eigenvalues --    0.61829   0.62112   0.62537   0.63180   0.63695
 Alpha virt. eigenvalues --    0.63939   0.64180   0.64405   0.64779   0.65060
 Alpha virt. eigenvalues --    0.65797   0.66278   0.66641   0.66899   0.67149
 Alpha virt. eigenvalues --    0.67644   0.68240   0.68372   0.69049   0.69194
 Alpha virt. eigenvalues --    0.69864   0.70086   0.70578   0.70938   0.71539
 Alpha virt. eigenvalues --    0.71728   0.72079   0.72522   0.72890   0.73225
 Alpha virt. eigenvalues --    0.73559   0.74080   0.74362   0.74772   0.75468
 Alpha virt. eigenvalues --    0.75601   0.76060   0.76353   0.76646   0.76672
 Alpha virt. eigenvalues --    0.77157   0.77419   0.77618   0.78300   0.78653
 Alpha virt. eigenvalues --    0.78940   0.79085   0.79573   0.80110   0.80437
 Alpha virt. eigenvalues --    0.81201   0.81759   0.82085   0.82861   0.83245
 Alpha virt. eigenvalues --    0.83420   0.83574   0.83837   0.84864   0.85199
 Alpha virt. eigenvalues --    0.85617   0.85951   0.86291   0.87109   0.87670
 Alpha virt. eigenvalues --    0.88287   0.88438   0.88929   0.89244   0.89840
 Alpha virt. eigenvalues --    0.90383   0.90889   0.91057   0.91286   0.91759
 Alpha virt. eigenvalues --    0.92476   0.92780   0.93487   0.93608   0.93857
 Alpha virt. eigenvalues --    0.94194   0.95272   0.95733   0.95822   0.96186
 Alpha virt. eigenvalues --    0.96609   0.97345   0.97589   0.97919   0.98635
 Alpha virt. eigenvalues --    0.98795   0.98986   1.00073   1.00572   1.00761
 Alpha virt. eigenvalues --    1.01475   1.01976   1.02307   1.02747   1.03150
 Alpha virt. eigenvalues --    1.03323   1.04086   1.04480   1.05140   1.05217
 Alpha virt. eigenvalues --    1.05712   1.06148   1.06846   1.07758   1.08347
 Alpha virt. eigenvalues --    1.09129   1.09624   1.09919   1.10135   1.10910
 Alpha virt. eigenvalues --    1.11462   1.11826   1.12163   1.12803   1.13470
 Alpha virt. eigenvalues --    1.13803   1.14497   1.14994   1.15096   1.15303
 Alpha virt. eigenvalues --    1.16108   1.16343   1.16628   1.17148   1.17736
 Alpha virt. eigenvalues --    1.18433   1.18773   1.19193   1.19492   1.19603
 Alpha virt. eigenvalues --    1.19792   1.20394   1.20778   1.20847   1.21421
 Alpha virt. eigenvalues --    1.21870   1.22332   1.22672   1.23115   1.23314
 Alpha virt. eigenvalues --    1.23538   1.23804   1.23914   1.24749   1.24847
 Alpha virt. eigenvalues --    1.25636   1.25873   1.26250   1.27373   1.28383
 Alpha virt. eigenvalues --    1.28642   1.29072   1.29928   1.30014   1.30655
 Alpha virt. eigenvalues --    1.31725   1.32245   1.32692   1.33229   1.33478
 Alpha virt. eigenvalues --    1.34399   1.34524   1.34890   1.35537   1.36741
 Alpha virt. eigenvalues --    1.37411   1.38164   1.38742   1.39306   1.40095
 Alpha virt. eigenvalues --    1.41231   1.41504   1.42657   1.43637   1.43856
 Alpha virt. eigenvalues --    1.44588   1.45517   1.46179   1.47707   1.48181
 Alpha virt. eigenvalues --    1.48437   1.48666   1.49197   1.49366   1.49921
 Alpha virt. eigenvalues --    1.50647   1.51496   1.52384   1.52896   1.53870
 Alpha virt. eigenvalues --    1.54554   1.54769   1.55942   1.56244   1.57316
 Alpha virt. eigenvalues --    1.57858   1.59009   1.59907   1.60092   1.60795
 Alpha virt. eigenvalues --    1.61156   1.61560   1.62443   1.63002   1.63351
 Alpha virt. eigenvalues --    1.64034   1.65429   1.66069   1.66313   1.66858
 Alpha virt. eigenvalues --    1.67618   1.67812   1.67927   1.68467   1.69097
 Alpha virt. eigenvalues --    1.69328   1.69626   1.70416   1.71124   1.71284
 Alpha virt. eigenvalues --    1.71533   1.72013   1.72857   1.73484   1.73831
 Alpha virt. eigenvalues --    1.74028   1.74302   1.74880   1.74995   1.75412
 Alpha virt. eigenvalues --    1.75575   1.75829   1.76056   1.76717   1.76934
 Alpha virt. eigenvalues --    1.77286   1.77562   1.78148   1.78542   1.79350
 Alpha virt. eigenvalues --    1.79906   1.80037   1.80114   1.80312   1.80386
 Alpha virt. eigenvalues --    1.80600   1.80960   1.81547   1.81761   1.82119
 Alpha virt. eigenvalues --    1.82368   1.82831   1.83420   1.83949   1.84280
 Alpha virt. eigenvalues --    1.84651   1.85615   1.86061   1.86483   1.86701
 Alpha virt. eigenvalues --    1.87112   1.87636   1.88203   1.88385   1.88480
 Alpha virt. eigenvalues --    1.89469   1.89812   1.90057   1.90839   1.91671
 Alpha virt. eigenvalues --    1.92215   1.92396   1.92631   1.93488   1.93594
 Alpha virt. eigenvalues --    1.94214   1.95355   1.96151   1.96561   1.97021
 Alpha virt. eigenvalues --    1.98550   1.98771   1.99728   2.00336   2.00884
 Alpha virt. eigenvalues --    2.01726   2.01954   2.02423   2.03185   2.03885
 Alpha virt. eigenvalues --    2.04201   2.05011   2.06079   2.06833   2.06926
 Alpha virt. eigenvalues --    2.07414   2.08736   2.08818   2.08939   2.09419
 Alpha virt. eigenvalues --    2.10563   2.11226   2.11496   2.11823   2.12346
 Alpha virt. eigenvalues --    2.13568   2.14878   2.16222   2.16953   2.17433
 Alpha virt. eigenvalues --    2.18652   2.19882   2.20434   2.20779   2.20856
 Alpha virt. eigenvalues --    2.21424   2.22064   2.22806   2.23113   2.23655
 Alpha virt. eigenvalues --    2.23778   2.24653   2.25251   2.26460   2.26552
 Alpha virt. eigenvalues --    2.27189   2.27382   2.28668   2.29483   2.29651
 Alpha virt. eigenvalues --    2.29929   2.30425   2.31190   2.31728   2.32131
 Alpha virt. eigenvalues --    2.33022   2.33625   2.34143   2.34285   2.34780
 Alpha virt. eigenvalues --    2.35078   2.35667   2.36235   2.37047   2.38069
 Alpha virt. eigenvalues --    2.38945   2.39117   2.39999   2.40877   2.41320
 Alpha virt. eigenvalues --    2.41687   2.42002   2.42738   2.43461   2.43813
 Alpha virt. eigenvalues --    2.45408   2.45633   2.46240   2.46350   2.46538
 Alpha virt. eigenvalues --    2.47203   2.48195   2.48918   2.50343   2.51562
 Alpha virt. eigenvalues --    2.51970   2.53648   2.54453   2.54755   2.55282
 Alpha virt. eigenvalues --    2.56395   2.56923   2.57356   2.58401   2.59218
 Alpha virt. eigenvalues --    2.60910   2.61236   2.61664   2.61991   2.62692
 Alpha virt. eigenvalues --    2.63980   2.64713   2.65019   2.65257   2.65781
 Alpha virt. eigenvalues --    2.66620   2.67756   2.68541   2.68604   2.69313
 Alpha virt. eigenvalues --    2.69520   2.70048   2.70885   2.71282   2.71965
 Alpha virt. eigenvalues --    2.73509   2.74121   2.74944   2.75449   2.75654
 Alpha virt. eigenvalues --    2.77113   2.78031   2.78925   2.79414   2.79664
 Alpha virt. eigenvalues --    2.79907   2.79922   2.80387   2.80975   2.81738
 Alpha virt. eigenvalues --    2.82152   2.82232   2.82468   2.82934   2.84040
 Alpha virt. eigenvalues --    2.84541   2.84775   2.86038   2.86731   2.87045
 Alpha virt. eigenvalues --    2.87245   2.88178   2.88995   2.91511   2.92142
 Alpha virt. eigenvalues --    2.94314   2.96248   2.96337   2.97699   2.99215
 Alpha virt. eigenvalues --    3.00137   3.00987   3.02255   3.04804   3.05864
 Alpha virt. eigenvalues --    3.06683   3.09870   3.10835   3.13545   3.14855
 Alpha virt. eigenvalues --    3.15353   3.15789   3.16234   3.17372   3.19728
 Alpha virt. eigenvalues --    3.21834   3.23144   3.23690   3.23753   3.26192
 Alpha virt. eigenvalues --    3.45757   3.46972   3.47822   3.49920   3.50157
 Alpha virt. eigenvalues --    3.53228   3.54332   3.56071   3.57782   3.59916
 Alpha virt. eigenvalues --    3.62546   3.70745   3.74599
          Condensed to atoms (all electrons):
 Mulliken charges:
               1
     1  N   -0.311417
     2  C    0.180670
     3  C    0.040738
     4  N   -0.257711
     5  C    0.132610
     6  H    0.026574
     7  N   -0.289714
     8  C    0.129302
     9  H    0.011093
    10  N   -0.290914
    11  C    0.236366
    12  C    0.118888
    13  N   -0.050141
    14  H    0.109834
    15  H    0.090278
    16  H    0.026106
    17  H    0.033969
    18  H    0.025098
    19  N   -0.310676
    20  C    0.247251
    21  C    0.180568
    22  N   -0.118357
    23  H    0.113106
    24  H    0.116536
    25  N   -0.304142
    26  C    0.238962
    27  N   -0.132094
    28  H    0.115446
    29  C    0.158876
    30  O   -0.320442
    31  C    0.005511
    32  N   -0.224074
    33  C    0.129802
    34  H    0.028051
    35  H    0.031599
    36  H    0.027966
    37  H    0.024025
    38  H    0.060828
    39  H    0.060403
    40  H    0.071650
    41  H    0.030341
    42  C   -0.115184
    43  O   -0.274333
    44  C    0.156572
    45  H    0.137517
    46  N   -0.124989
    47  O   -0.350818
    48  C    0.356880
    49  H    0.049115
    50  C    0.182846
    51  C    0.041062
    52  N   -0.288244
    53  H    0.033235
    54  H    0.040946
    55  H    0.020753
    56  H    0.127623
    57  H    0.114085
    58  N   -0.050907
    59  C    0.099611
    60  C    0.237720
    61  N   -0.266194
    62  H    0.043243
    63  C    0.162632
    64  N   -0.299313
    65  H    0.029779
    66  C    0.130451
    67  N   -0.265789
    68  C    0.013552
    69  C    0.177480
    70  N   -0.312095
 Sum of Mulliken charges =  -0.00000
 Mulliken charges with hydrogens summed into heavy atoms:
               1
     1  N   -0.311417
     2  C    0.265843
     3  C    0.040738
     4  N   -0.257711
     5  C    0.159184
     7  N   -0.289714
     8  C    0.140395
    10  N   -0.290914
    11  C    0.236366
    12  C    0.118888
    13  N    0.149970
    19  N   -0.310676
    20  C    0.247251
    21  C    0.264156
    22  N    0.111284
    25  N   -0.304142
    26  C    0.238962
    27  N   -0.016648
    29  C    0.158876
    30  O   -0.320442
    31  C    0.005511
    32  N   -0.224074
    33  C    0.157853
    42  C   -0.084843
    43  O   -0.274333
    44  C    0.156572
    46  N    0.012528
    47  O   -0.350818
    48  C    0.356880
    50  C    0.231961
    51  C    0.233944
    52  N   -0.288244
    58  N    0.190800
    59  C    0.099611
    60  C    0.237720
    61  N   -0.266194
    63  C    0.205875
    64  N   -0.299313
    66  C    0.160230
    67  N   -0.265789
    68  C    0.013552
    69  C    0.272415
    70  N   -0.312095
 Electronic spatial extent (au):  <R**2>=          23343.0918
 Charge=             -0.0000 electrons
 Dipole moment (field-independent basis, Debye):
    X=              7.7224    Y=              6.0916    Z=              2.0977  Tot=             10.0570
 Quadrupole moment (field-independent basis, Debye-Ang):
   XX=           -145.4627   YY=           -222.0067   ZZ=           -252.2006
   XY=              5.2841   XZ=             11.0805   YZ=             -5.6807
 Traceless Quadrupole moment (field-independent basis, Debye-Ang):
   XX=             61.0940   YY=            -15.4500   ZZ=            -45.6439
   XY=              5.2841   XZ=             11.0805   YZ=             -5.6807
 Octapole moment (field-independent basis, Debye-Ang**2):
  XXX=              9.1650  YYY=            114.3945  ZZZ=             13.3140  XYY=             56.8575
  XXY=            -17.3835  XXZ=            -64.3961  XZZ=             40.5615  YZZ=             47.3498
  YYZ=             39.7828  XYZ=             56.7373
 Hexadecapole moment (field-independent basis, Debye-Ang**3):
 XXXX=         -15411.0023 YYYY=          -5542.8460 ZZZZ=          -3560.9427 XXXY=            442.3160
 XXXZ=            102.2551 YYYX=             -6.9707 YYYZ=            -87.6627 ZZZX=             98.0970
 ZZZY=             73.9816 XXYY=          -3908.5250 XXZZ=          -4056.4505 YYZZ=          -1555.3317
 XXYZ=            113.5689 YYXZ=            199.1339 ZZXY=             92.3179
 N-N= 5.454510893792D+03 E-N=-1.569000008842D+04  KE= 2.037699268192D+03
 No NMR shielding tensors so no spin-rotation constants.
 Leave Link  601 at Mon Jan 22 22:29:29 2018, MaxMem=  4294967296 cpu:              45.6 elap:               1.6
 (Enter /share/apps/g16/l9999.exe)
 1\1\GINC-COMPUTE-0-3\SP\RwB97XD\CC-pVDZ\C23H27N17O3\SATYA\22-Jan-2018\
 0\\#p wb97xd/cc-pvdz sp scf=(maxcycles=20)\\Base pair stacking\\0,1\N,
 0,8.09893,4.11237,-5.30525\C,0,9.06019,5.2273,-5.40986\C,0,6.27354,2.8
 8901,-5.39813\N,0,7.26105,2.07282,-4.8658\C,0,8.32126,2.84252,-4.83114
 \H,0,9.30082,2.53249,-4.46605\N,0,4.21113,3.69015,-6.21521\C,0,4.83404
 ,4.85407,-6.42699\H,0,4.21418,5.64276,-6.85128\N,0,6.10172,5.18845,-6.
 19444\C,0,6.77505,4.14913,-5.674\C,0,4.91604,2.66402,-5.69056\N,0,4.29
 601,1.50139,-5.47843\H,0,4.77867,0.71477,-5.09179\H,0,3.32843,1.37707,
 -5.69863\H,0,9.81878,4.96048,-6.00444\H,0,8.60225,6.02821,-5.7945\H,0,
 9.41371,5.45167,-4.50175\N,0,2.81099,5.907,-3.15029\C,0,1.73284,5.0634
 2,-3.26867\C,0,2.77376,7.37135,-3.3373\N,0,-1.64611,4.57176,-3.90327\H
 ,0,-2.28556,3.80433,-3.94077\H,0,-2.01755,5.48142,-4.09106\N,0,0.46847
 ,5.42761,-3.57327\C,0,-0.34866,4.39018,-3.61423\N,0,0.04065,3.09444,-3
 .37548\H,0,-0.6527,2.3641,-3.4286\C,0,1.33615,2.69663,-3.06036\O,0,1.5
 8218,1.50024,-2.86323\C,0,2.22537,3.80022,-3.01268\N,0,3.58536,3.84976
 ,-2.73909\C,0,3.88803,5.11624,-2.83196\H,0,4.88543,5.52928,-2.67746\H,
 0,3.38869,7.62975,-4.08155\H,0,1.84211,7.65278,-3.56335\H,0,3.06232,7.
 82414,-2.49437\H,0,-4.43256,-0.87118,-4.47664\H,0,-4.62369,-0.88994,-2
 .72513\H,0,-4.04828,0.5687,-3.533\H,0,-0.83077,-3.80656,-3.22877\C,0,-
 1.05952,-2.74086,-3.24231\O,0,1.20012,-2.06503,-2.9885\C,0,0.00627,-1.
 79431,-3.11588\H,0,0.33295,0.22517,-3.0586\N,0,-0.3921,-0.47307,-3.145
 19\O,0,-1.92694,1.19399,-3.29482\C,0,-1.67244,0.00249,-3.27981\H,0,-3.
 16464,-2.98641,-3.47466\C,0,-2.31862,-2.30768,-3.37507\C,0,-4.02825,-0
 .51095,-3.54238\N,0,-2.64463,-0.9714,-3.39633\H,0,-3.40721,3.26667,-8.
 32798\H,0,-2.47871,4.08305,-7.26331\H,0,-3.87069,3.38941,-6.768\H,0,1.
 82174,-1.21607,-5.56599\H,0,0.26209,-1.76517,-5.98561\N,0,0.89114,-0.9
 9728,-5.8597\C,0,0.50516,0.26215,-6.0742\C,0,-1.04073,1.97051,-6.66875
 \N,0,-0.17446,2.98177,-6.4917\H,0,1.77629,3.27508,-5.93566\C,0,1.01146
 ,2.51786,-6.10273\N,0,1.40003,1.25683,-5.88734\H,0,-3.84701,0.53552,-7
 .38832\C,0,-2.82023,0.76449,-7.10156\N,0,-1.92358,-0.12994,-6.76435\C,
 0,-0.79063,0.62139,-6.48749\C,0,-3.08614,3.29807,-7.38145\N,0,-2.3542,
 2.05609,-7.06559\\Version=EM64L-G16RevA.03\State=1-A\HF=-2048.7471869\
 RMSD=6.470e-09\Dipole=-3.830609,0.6639939,-0.7356931\Quadrupole=36.295
 179,-1.7836712,-34.5115077,21.7467629,2.7592844,6.1774945\PG=C01 [X(C2
 3H27N17O3)]\\@


 There ain't no surer way to find out whether you
 like people or hate them than to travel with them.
                                     -- Mark Twain
 Job cpu time:       0 days  5 hours 52 minutes 45.7 seconds.
 Elapsed time:       0 days  0 hours 11 minutes 24.9 seconds.
 File lengths (MBytes):  RWF=    298 Int=      0 D2E=      0 Chk=     33 Scr=      1
 Normal termination of Gaussian 16 at Mon Jan 22 22:29:30 2018.
