 Entering Gaussian System, Link 0=g16
 Input=str40.-15.-2.5.com
 Output=str40.-15.-2.5.log
 Initial command:
 /share/apps/g16/l1.exe "/state/partition1/scr/Gau-9997.inp" -scrdir="/state/partition1/scr/"
 Entering Link 1 = /share/apps/g16/l1.exe PID=      9998.
  
 Copyright (c) 1988,1990,1992,1993,1995,1998,2003,2009,2016,
            Gaussian, Inc.  All Rights Reserved.
  
 This is part of the Gaussian(R) 16 program.  It is based on
 the Gaussian(R) 09 system (copyright 2009, Gaussian, Inc.),
 the Gaussian(R) 03 system (copyright 2003, Gaussian, Inc.),
 the Gaussian(R) 98 system (copyright 1998, Gaussian, Inc.),
 the Gaussian(R) 94 system (copyright 1995, Gaussian, Inc.),
 the Gaussian 92(TM) system (copyright 1992, Gaussian, Inc.),
 the Gaussian 90(TM) system (copyright 1990, Gaussian, Inc.),
 the Gaussian 88(TM) system (copyright 1988, Gaussian, Inc.),
 the Gaussian 86(TM) system (copyright 1986, Carnegie Mellon
 University), and the Gaussian 82(TM) system (copyright 1983,
 Carnegie Mellon University). Gaussian is a federally registered
 trademark of Gaussian, Inc.
  
 This software contains proprietary and confidential information,
 including trade secrets, belonging to Gaussian, Inc.
  
 This software is provided under written license and may be
 used, copied, transmitted, or stored only in accord with that
 written license.
  
 The following legend is applicable only to US Government
 contracts under FAR:
  
                    RESTRICTED RIGHTS LEGEND
  
 Use, reproduction and disclosure by the US Government is
 subject to restrictions as set forth in subparagraphs (a)
 and (c) of the Commercial Computer Software - Restricted
 Rights clause in FAR 52.227-19.
  
 Gaussian, Inc.
 340 Quinnipiac St., Bldg. 40, Wallingford CT 06492
  
  
 ---------------------------------------------------------------
 Warning -- This program may not be used in any manner that
 competes with the business of Gaussian, Inc. or will provide
 assistance to any competitor of Gaussian, Inc.  The licensee
 of this program is prohibited from giving any competitor of
 Gaussian, Inc. access to this program.  By using this program,
 the user acknowledges that Gaussian, Inc. is engaged in the
 business of creating and licensing software in the field of
 computational chemistry and represents and warrants to the
 licensee that it is not a competitor of Gaussian, Inc. and that
 it will not use this program in any manner prohibited above.
 ---------------------------------------------------------------
  

 Cite this work as:
 Gaussian 16, Revision A.03,
 M. J. Frisch, G. W. Trucks, H. B. Schlegel, G. E. Scuseria, 
 M. A. Robb, J. R. Cheeseman, G. Scalmani, V. Barone, 
 G. A. Petersson, H. Nakatsuji, X. Li, M. Caricato, A. V. Marenich, 
 J. Bloino, B. G. Janesko, R. Gomperts, B. Mennucci, H. P. Hratchian, 
 J. V. Ortiz, A. F. Izmaylov, J. L. Sonnenberg, D. Williams-Young, 
 F. Ding, F. Lipparini, F. Egidi, J. Goings, B. Peng, A. Petrone, 
 T. Henderson, D. Ranasinghe, V. G. Zakrzewski, J. Gao, N. Rega, 
 G. Zheng, W. Liang, M. Hada, M. Ehara, K. Toyota, R. Fukuda, 
 J. Hasegawa, M. Ishida, T. Nakajima, Y. Honda, O. Kitao, H. Nakai, 
 T. Vreven, K. Throssell, J. A. Montgomery, Jr., J. E. Peralta, 
 F. Ogliaro, M. J. Bearpark, J. J. Heyd, E. N. Brothers, K. N. Kudin, 
 V. N. Staroverov, T. A. Keith, R. Kobayashi, J. Normand, 
 K. Raghavachari, A. P. Rendell, J. C. Burant, S. S. Iyengar, 
 J. Tomasi, M. Cossi, J. M. Millam, M. Klene, C. Adamo, R. Cammi, 
 J. W. Ochterski, R. L. Martin, K. Morokuma, O. Farkas, 
 J. B. Foresman, and D. J. Fox, Gaussian, Inc., Wallingford CT, 2016.
 
 ******************************************
 Gaussian 16:  EM64L-G16RevA.03 25-Dec-2016
                23-Jan-2018 
 ******************************************
 %nprocshared=32
 Will use up to   32 processors via shared memory.
 %mem=32GB
 %chk=allatoms_t.chk
 ---------------------------------------
 #p wb97xd/cc-pvdz sp scf=(maxcycles=20)
 ---------------------------------------
 1/38=1,172=1/1;
 2/12=2,17=6,18=5,40=1/2;
 3/5=16,11=2,25=1,30=1,74=-58/1,2,3;
 4//1;
 5/5=2,7=20,38=5/2;
 6/7=2,8=2,9=2,10=2,28=1/1;
 99/5=1,9=1/99;
 Leave Link    1 at Tue Jan 23 03:43:11 2018, MaxMem=  4294967296 cpu:               2.7 elap:               0.1
 (Enter /share/apps/g16/l101.exe)
 ------------------
 Base pair stacking
 ------------------
 Symbolic Z-matrix:
 Charge =  0 Multiplicity = 1
 N                     6.66806   6.50573  -8.02083 
 C                     7.59064   7.65429  -8.1083 
 C                     4.90151   5.24512  -7.66378 
 N                     5.88131   4.40504  -8.17267 
 C                     6.90638   5.19813  -8.36741 
 H                     7.87013   4.87929  -8.76547 
 N                     2.86995   6.06924  -6.79398 
 C                     3.46059   7.26812  -6.75636 
 H                     2.84106   8.08004  -6.3779 
 N                     4.69581   7.61301  -7.11437 
 C                     5.37177   6.54301  -7.56449 
 C                     3.57659   5.01285  -7.25197 
 N                     2.98874   3.81529  -7.29029 
 H                     3.47397   3.00545  -7.62183 
 H                     2.0438    3.68686  -6.98907 
 H                     7.873     7.78515  -9.05873 
 H                     7.12938   8.47888  -7.78207 
 H                     8.39742   7.4802   -7.54367 
 N                     2.42227   6.84263  -3.4309 
 C                     1.35359   5.99794  -3.25071 
 C                     2.3613    8.31749  -3.38858 
 N                    -2.03034   5.51795  -2.63397 
 H                    -2.65986   4.74797  -2.53356 
 H                    -2.41785   6.43569  -2.54289 
 N                     0.07852   6.37036  -3.00669 
 C                    -0.725     5.32928  -2.87974 
 N                    -0.31332   4.02265  -2.98349 
 H                    -0.99755   3.29026  -2.87215 
 C                     0.99353   3.61623  -3.23412 
 O                     1.25978   2.4103   -3.3088 
 C                     1.86836   4.72362  -3.37287 
 N                     3.23275   4.76741  -3.62469 
 C                     3.51617   6.04147  -3.65039 
 H                     4.51072   6.45295  -3.82596 
 H                     2.66044   8.69044  -4.26621 
 H                     1.42156   8.60507  -3.20846 
 H                     2.95763   8.65669  -2.66185 
 H                    -4.98932   0.14092  -2.85886 
 H                    -4.51161  -0.1233   -1.18356 
 H                    -4.23724   1.44594  -1.9409 
 H                    -1.2712   -2.85164  -3.46443 
 C                    -1.45661  -1.79998  -3.2457 
 O                     0.75284  -1.11188  -3.76719 
 C                    -0.39333  -0.85472  -3.39981 
 H                    -0.00909   1.14486  -3.19402 
 N                    -0.73427   0.44812  -3.09712 
 O                    -2.16332   2.08285  -2.43182 
 C                    -1.95722   0.90704  -2.67603 
 H                    -3.50203  -2.06129  -2.70367 
 C                    -2.66045  -1.38276  -2.83664 
 C                    -4.25427   0.37865  -2.10437 
 N                    -2.93087  -0.06443  -2.55161 
 H                    -4.68297   5.72039  -4.44578 
 H                    -3.22106   6.06713  -3.80961 
 H                    -4.23441   5.05756  -3.0235 
 H                     0.45052   1.15629  -7.25323 
 H                    -1.16048   0.67177  -6.97034 
 N                    -0.44892   1.36819  -6.87081 
 C                    -0.68983   2.52762  -6.2553 
 C                    -2.03188   4.11274  -5.09425 
 N                    -1.05722   5.02942  -4.97526 
 H                     0.91325   5.27467  -5.48292 
 C                     0.06806   4.58967  -5.53496 
 N                     0.31135   3.42875  -6.15192 
 H                    -4.9811    2.8311   -4.76 
 C                    -3.93549   3.02857  -4.99805 
 N                    -3.14617   2.1976   -5.63377 
 C                    -1.93607   2.87273  -5.70148 
 C                    -3.91308   5.35478  -3.92272 
 N                    -3.32662   4.20716  -4.64177 
 
 ITRead=  0  0  0  0  0  0  0  0  0  0  0  0  0  0  0  0  0  0  0  0
 ITRead=  0  0  0  0  0  0  0  0  0  0  0  0  0  0  0  0  0  0  0  0
 ITRead=  0  0  0  0  0  0  0  0  0  0  0  0  0  0  0  0  0  0  0  0
 ITRead=  0  0  0  0  0  0  0  0  0  0
 MicOpt= -1 -1 -1 -1 -1 -1 -1 -1 -1 -1 -1 -1 -1 -1 -1 -1 -1 -1 -1 -1
 MicOpt= -1 -1 -1 -1 -1 -1 -1 -1 -1 -1 -1 -1 -1 -1 -1 -1 -1 -1 -1 -1
 MicOpt= -1 -1 -1 -1 -1 -1 -1 -1 -1 -1 -1 -1 -1 -1 -1 -1 -1 -1 -1 -1
 MicOpt= -1 -1 -1 -1 -1 -1 -1 -1 -1 -1
 NAtoms=     70 NQM=       70 NQMF=       0 NMMI=      0 NMMIF=      0
                NMic=       0 NMicF=      0.
                    Isotopes and Nuclear Properties:
 (Nuclear quadrupole moments (NQMom) in fm**2, nuclear magnetic moments (NMagM)
  in nuclear magnetons)

  Atom         1           2           3           4           5           6           7           8           9          10
 IAtWgt=          14          12          12          14          12           1          14          12           1          14
 AtmWgt=  14.0030740  12.0000000  12.0000000  14.0030740  12.0000000   1.0078250  14.0030740  12.0000000   1.0078250  14.0030740
 NucSpn=           2           0           0           2           0           1           2           0           1           2
 AtZEff=  -0.0000000  -0.0000000  -0.0000000  -0.0000000  -0.0000000  -0.0000000  -0.0000000  -0.0000000  -0.0000000  -0.0000000
 NQMom=    2.0440000   0.0000000   0.0000000   2.0440000   0.0000000   0.0000000   2.0440000   0.0000000   0.0000000   2.0440000
 NMagM=    0.4037610   0.0000000   0.0000000   0.4037610   0.0000000   2.7928460   0.4037610   0.0000000   2.7928460   0.4037610
 AtZNuc=   7.0000000   6.0000000   6.0000000   7.0000000   6.0000000   1.0000000   7.0000000   6.0000000   1.0000000   7.0000000

  Atom        11          12          13          14          15          16          17          18          19          20
 IAtWgt=          12          12          14           1           1           1           1           1          14          12
 AtmWgt=  12.0000000  12.0000000  14.0030740   1.0078250   1.0078250   1.0078250   1.0078250   1.0078250  14.0030740  12.0000000
 NucSpn=           0           0           2           1           1           1           1           1           2           0
 AtZEff=  -0.0000000  -0.0000000  -0.0000000  -0.0000000  -0.0000000  -0.0000000  -0.0000000  -0.0000000  -0.0000000  -0.0000000
 NQMom=    0.0000000   0.0000000   2.0440000   0.0000000   0.0000000   0.0000000   0.0000000   0.0000000   2.0440000   0.0000000
 NMagM=    0.0000000   0.0000000   0.4037610   2.7928460   2.7928460   2.7928460   2.7928460   2.7928460   0.4037610   0.0000000
 AtZNuc=   6.0000000   6.0000000   7.0000000   1.0000000   1.0000000   1.0000000   1.0000000   1.0000000   7.0000000   6.0000000

  Atom        21          22          23          24          25          26          27          28          29          30
 IAtWgt=          12          14           1           1          14          12          14           1          12          16
 AtmWgt=  12.0000000  14.0030740   1.0078250   1.0078250  14.0030740  12.0000000  14.0030740   1.0078250  12.0000000  15.9949146
 NucSpn=           0           2           1           1           2           0           2           1           0           0
 AtZEff=  -0.0000000  -0.0000000  -0.0000000  -0.0000000  -0.0000000  -0.0000000  -0.0000000  -0.0000000  -0.0000000  -0.0000000
 NQMom=    0.0000000   2.0440000   0.0000000   0.0000000   2.0440000   0.0000000   2.0440000   0.0000000   0.0000000   0.0000000
 NMagM=    0.0000000   0.4037610   2.7928460   2.7928460   0.4037610   0.0000000   0.4037610   2.7928460   0.0000000   0.0000000
 AtZNuc=   6.0000000   7.0000000   1.0000000   1.0000000   7.0000000   6.0000000   7.0000000   1.0000000   6.0000000   8.0000000

  Atom        31          32          33          34          35          36          37          38          39          40
 IAtWgt=          12          14          12           1           1           1           1           1           1           1
 AtmWgt=  12.0000000  14.0030740  12.0000000   1.0078250   1.0078250   1.0078250   1.0078250   1.0078250   1.0078250   1.0078250
 NucSpn=           0           2           0           1           1           1           1           1           1           1
 AtZEff=  -0.0000000  -0.0000000  -0.0000000  -0.0000000  -0.0000000  -0.0000000  -0.0000000  -0.0000000  -0.0000000  -0.0000000
 NQMom=    0.0000000   2.0440000   0.0000000   0.0000000   0.0000000   0.0000000   0.0000000   0.0000000   0.0000000   0.0000000
 NMagM=    0.0000000   0.4037610   0.0000000   2.7928460   2.7928460   2.7928460   2.7928460   2.7928460   2.7928460   2.7928460
 AtZNuc=   6.0000000   7.0000000   6.0000000   1.0000000   1.0000000   1.0000000   1.0000000   1.0000000   1.0000000   1.0000000

  Atom        41          42          43          44          45          46          47          48          49          50
 IAtWgt=           1          12          16          12           1          14          16          12           1          12
 AtmWgt=   1.0078250  12.0000000  15.9949146  12.0000000   1.0078250  14.0030740  15.9949146  12.0000000   1.0078250  12.0000000
 NucSpn=           1           0           0           0           1           2           0           0           1           0
 AtZEff=  -0.0000000  -0.0000000  -0.0000000  -0.0000000  -0.0000000  -0.0000000  -0.0000000  -0.0000000  -0.0000000  -0.0000000
 NQMom=    0.0000000   0.0000000   0.0000000   0.0000000   0.0000000   2.0440000   0.0000000   0.0000000   0.0000000   0.0000000
 NMagM=    2.7928460   0.0000000   0.0000000   0.0000000   2.7928460   0.4037610   0.0000000   0.0000000   2.7928460   0.0000000
 AtZNuc=   1.0000000   6.0000000   8.0000000   6.0000000   1.0000000   7.0000000   8.0000000   6.0000000   1.0000000   6.0000000

  Atom        51          52          53          54          55          56          57          58          59          60
 IAtWgt=          12          14           1           1           1           1           1          14          12          12
 AtmWgt=  12.0000000  14.0030740   1.0078250   1.0078250   1.0078250   1.0078250   1.0078250  14.0030740  12.0000000  12.0000000
 NucSpn=           0           2           1           1           1           1           1           2           0           0
 AtZEff=  -0.0000000  -0.0000000  -0.0000000  -0.0000000  -0.0000000  -0.0000000  -0.0000000  -0.0000000  -0.0000000  -0.0000000
 NQMom=    0.0000000   2.0440000   0.0000000   0.0000000   0.0000000   0.0000000   0.0000000   2.0440000   0.0000000   0.0000000
 NMagM=    0.0000000   0.4037610   2.7928460   2.7928460   2.7928460   2.7928460   2.7928460   0.4037610   0.0000000   0.0000000
 AtZNuc=   6.0000000   7.0000000   1.0000000   1.0000000   1.0000000   1.0000000   1.0000000   7.0000000   6.0000000   6.0000000

  Atom        61          62          63          64          65          66          67          68          69          70
 IAtWgt=          14           1          12          14           1          12          14          12          12          14
 AtmWgt=  14.0030740   1.0078250  12.0000000  14.0030740   1.0078250  12.0000000  14.0030740  12.0000000  12.0000000  14.0030740
 NucSpn=           2           1           0           2           1           0           2           0           0           2
 AtZEff=  -0.0000000  -0.0000000  -0.0000000  -0.0000000  -0.0000000  -0.0000000  -0.0000000  -0.0000000  -0.0000000  -0.0000000
 NQMom=    2.0440000   0.0000000   0.0000000   2.0440000   0.0000000   0.0000000   2.0440000   0.0000000   0.0000000   2.0440000
 NMagM=    0.4037610   2.7928460   0.0000000   0.4037610   2.7928460   0.0000000   0.4037610   0.0000000   0.0000000   0.4037610
 AtZNuc=   7.0000000   1.0000000   6.0000000   7.0000000   1.0000000   6.0000000   7.0000000   6.0000000   6.0000000   7.0000000
 Leave Link  101 at Tue Jan 23 03:43:11 2018, MaxMem=  4294967296 cpu:               5.7 elap:               0.2
 (Enter /share/apps/g16/l202.exe)
 Stoichiometry    C23H27N17O3
 Framework group  C1[X(C23H27N17O3)]
 Deg. of freedom   204
 Full point group                 C1      NOp   1
 Largest Abelian subgroup         C1      NOp   1
 Largest concise Abelian subgroup C1      NOp   1
                         Standard orientation:                         
 ---------------------------------------------------------------------
 Center     Atomic      Atomic             Coordinates (Angstroms)
 Number     Number       Type             X           Y           Z
 ---------------------------------------------------------------------
      1          7           0       -7.127355   -1.332744    0.179360
      2          6           0       -8.471353   -0.769854   -0.054778
      3          6           0       -4.976318   -1.552398    0.581988
      4          7           0       -5.476618   -2.837853    0.433607
      5          6           0       -6.752515   -2.654075    0.196973
      6          1           0       -7.473010   -3.454504    0.026311
      7          7           0       -3.525948    0.273866    0.934339
      8          6           0       -4.595011    1.058050    0.761875
      9          1           0       -4.405018    2.127508    0.842036
     10          7           0       -5.857590    0.721084    0.506459
     11          6           0       -5.982022   -0.614125    0.427963
     12          6           0       -3.684009   -1.065101    0.849250
     13          7           0       -2.618041   -1.849552    1.021111
     14          1           0       -2.688571   -2.846187    0.966792
     15          1           0       -1.713114   -1.467976    1.209914
     16          1           0       -9.102875   -1.110441    0.641891
     17          1           0       -8.428947    0.227613   -0.005816
     18          1           0       -8.796771   -1.043928   -0.959762
     19          7           0       -2.363506    2.297444   -1.646885
     20          6           0       -1.032279    2.082715   -1.382744
     21          6           0       -3.073154    3.580137   -1.468504
     22          7           0        2.050972    3.268773   -0.311029
     23          1           0        2.975655    2.910677   -0.184640
     24          1           0        1.902321    4.231615   -0.083995
     25          7           0       -0.155893    3.000037   -0.919587
     26          6           0        1.054438    2.493418   -0.764523
     27          7           0        1.383423    1.188540   -1.041269
     28          1           0        2.334565    0.888179   -0.892694
     29          6           0        0.497940    0.227336   -1.518613
     30          8           0        0.896855   -0.923408   -1.736301
     31          6           0       -0.806345    0.756744   -1.690248
     32          7           0       -1.972266    0.151215   -2.138415
     33          6           0       -2.866933    1.100939   -2.095872
     34          1           0       -3.912589    0.982264   -2.381861
     35          1           0       -3.817872    3.462539   -0.812473
     36          1           0       -2.434007    4.267352   -1.125747
     37          1           0       -3.446155    3.881370   -2.345391
     38          1           0        7.064208   -0.142513    0.663228
     39          1           0        7.443227    0.033980   -1.048450
     40          1           0        6.135118    0.977214   -0.333945
     41          1           0        5.545177   -4.386758   -1.017688
     42          6           0        5.217068   -3.347833   -0.983215
     43          8           0        2.964622   -3.848492   -1.533608
     44          6           0        3.846837   -3.036926   -1.254570
     45          1           0        2.578830   -1.434704   -1.370131
     46          7           0        3.537622   -1.693523   -1.184514
     47          8           0        4.025026    0.499195   -0.850480
     48          6           0        4.392916   -0.661770   -0.888728
     49          1           0        7.127164   -2.546734   -0.477651
     50          6           0        6.075090   -2.363232   -0.691683
     51          6           0        6.647504    0.026771   -0.318489
     52          7           0        5.697002   -1.041623   -0.639130
     53          1           0        3.330799    3.873916    2.579633
     54          1           0        2.253872    3.798428    1.356256
     55          1           0        3.848979    3.636742    1.050362
     56          1           0        0.743382   -3.048052    1.903521
     57          1           0        2.341347   -2.702957    2.390885
     58          7           0        1.464609   -2.369366    2.042644
     59          6           0        1.267063   -1.076683    1.775971
     60          6           0        1.893562    1.214392    1.633794
     61          7           0        0.705841    1.633805    1.167066
     62          1           0       -1.125597    0.861729    0.666711
     63          6           0       -0.134594    0.608762    1.041145
     64          7           0        0.061371   -0.686655    1.307710
     65          1           0        4.958756    1.448565    2.634779
     66          6           0        3.963066    1.106705    2.350708
     67          7           0        3.558698   -0.138711    2.406399
     68          6           0        2.248119   -0.084428    1.954554
     69          6           0        3.118955    3.438681    1.704599
     70          7           0        3.006387    1.979173    1.892125
 ---------------------------------------------------------------------
 Rotational constants (GHZ):           0.1555354           0.0498317           0.0446707
 Leave Link  202 at Tue Jan 23 03:43:12 2018, MaxMem=  4294967296 cpu:               0.3 elap:               0.0
 (Enter /share/apps/g16/l301.exe)
 Standard basis: CC-pVDZ (5D, 7F)
 Ernie: Thresh=  0.10000D-02 Tol=  0.10000D-05 Strict=F.
 Ernie:  86 primitive shells out of 1081 were deleted.
 There are   780 symmetry adapted cartesian basis functions of A   symmetry.
 There are   737 symmetry adapted basis functions of A   symmetry.
   737 basis functions,  1608 primitive gaussians,   780 cartesian basis functions
   154 alpha electrons      154 beta electrons
       nuclear repulsion energy      5499.1994660549 Hartrees.
 IExCor= 4639 DFT=T Ex+Corr=wB97XD ExCW=0 ScaHFX=  1.000000
 ScaDFX=  1.000000  1.000000  1.000000  1.000000 ScalE2=  1.000000  1.000000
 IRadAn=      5 IRanWt=     -1 IRanGd=            0 ICorTp=0 IEmpDi=121
 HFx  wShort=  0.000000 wLong=  0.200000 cFull=  0.222036 cShort=  0.000000 cLong=  0.777964
 DFx  wShort=  0.000000 wLong=  0.200000 cFull=  0.000000 cShort=  0.000000 cLong=  1.000000
 NAtoms=   70 NActive=   70 NUniq=   70 SFac= 1.00D+00 NAtFMM=   60 NAOKFM=T Big=T
 Integral buffers will be    131072 words long.
 Raffenetti 2 integral format.
 Two-electron integral symmetry is turned on.
 R6Disp:  Grimme-D2 Dispersion energy=       -0.0712890943 Hartrees.
 Nuclear repulsion after empirical dispersion term =     5499.1281769606 Hartrees.
 Leave Link  301 at Tue Jan 23 03:43:12 2018, MaxMem=  4294967296 cpu:               2.4 elap:               0.1
 (Enter /share/apps/g16/l302.exe)
 NPDir=0 NMtPBC=     1 NCelOv=     1 NCel=       1 NClECP=     1 NCelD=      1
         NCelK=      1 NCelE2=     1 NClLst=     1 CellRange=     0.0.
 One-electron integrals computed using PRISM.
 One-electron integral symmetry used in STVInt
 NBasis=   737 RedAO= T EigKep=  6.68D-04  NBF=   737
 NBsUse=   737 1.00D-06 EigRej= -1.00D+00 NBFU=   737
 Precomputing XC quadrature grid using
 IXCGrd= 4 IRadAn=           5 IRanWt=          -1 IRanGd=           0 AccXCQ= 0.00D+00.
 Generated NRdTot=       0 NPtTot=           0 NUsed=           0 NTot=          32
 NSgBfM=   757   757   757   757   757 MxSgAt=    70 MxSgA2=    70.
 Leave Link  302 at Tue Jan 23 03:43:16 2018, MaxMem=  4294967296 cpu:             137.4 elap:               4.3
 (Enter /share/apps/g16/l303.exe)
 DipDrv:  MaxL=1.
 Leave Link  303 at Tue Jan 23 03:43:16 2018, MaxMem=  4294967296 cpu:              12.4 elap:               0.4
 (Enter /share/apps/g16/l401.exe)
 ExpMin= 1.22D-01 ExpMax= 1.17D+04 ExpMxC= 4.01D+02 IAcc=3 IRadAn=         5 AccDes= 0.00D+00
 Harris functional with IExCor= 4639 and IRadAn=       5 diagonalized for initial guess.
 HarFok:  IExCor= 4639 AccDes= 0.00D+00 IRadAn=         5 IDoV= 1 UseB2=F ITyADJ=14
 ICtDFT=  3500011 ScaDFX=  1.000000  1.000000  1.000000  1.000000
 FoFCou: FMM=F IPFlag=           0 FMFlag=      100000 FMFlg1=        2001
         NFxFlg=           0 DoJE=T BraDBF=F KetDBF=T FulRan=T
         wScrn=  0.000000 ICntrl=       500 IOpCl=  0 I1Cent=   200000004 NGrid=           0
         NMat0=    1 NMatS0=      1 NMatT0=    0 NMatD0=    1 NMtDS0=    0 NMtDT0=    0
 Petite list used in FoFCou.
 Harris En= -1963.74573846227    
 JPrj=0 DoOrth=F DoCkMO=F.
 Leave Link  401 at Tue Jan 23 03:43:29 2018, MaxMem=  4294967296 cpu:             398.0 elap:              12.5
 (Enter /share/apps/g16/l502.exe)
 Integral symmetry usage will be decided dynamically.
 Closed shell SCF:
 Using DIIS extrapolation, IDIIS=  1040.
 NGot=  4294967296 LenX=  4293717438 LenY=  4293108258
 Requested convergence on RMS density matrix=1.00D-08 within  20 cycles.
 Requested convergence on MAX density matrix=1.00D-06.
 Requested convergence on             energy=1.00D-06.
 No special actions if energy rises.
 Fock matrices will be formed incrementally for  20 cycles.
 Integral accuracy reduced to 1.0D-05 until final iterations.

 Cycle   1  Pass 0  IDiag  1:
 FoFJK:  IHMeth= 1 ICntrl=       0 DoSepK=T KAlg= 0 I1Cent=           0 FoldK=F
 IRaf=         1 NMat=       1 IRICut=       1 DoRegI=T DoRafI=F ISym2E= 0 IDoP0=0 IntGTp=1.
 FoFCou: FMM=T IPFlag=           0 FMFlag=      100000 FMFlg1=        2001
         NFxFlg=           0 DoJE=T BraDBF=F KetDBF=F FulRan=T
         wScrn=  0.000000 ICntrl=       500 IOpCl=  0 I1Cent=           0 NGrid=           0
         NMat0=    1 NMatS0=      1 NMatT0=    0 NMatD0=    1 NMtDS0=    0 NMtDT0=    0
 Symmetry not used in FoFCou.
 FMM levels:  10  Number of levels for PrismC:   9
 E= -2048.20015678597    
 DIIS: error= 2.30D-02 at cycle   1 NSaved=   1.
 NSaved= 1 IEnMin= 1 EnMin= -2048.20015678597     IErMin= 1 ErrMin= 2.30D-02
 ErrMax= 2.30D-02  0.00D+00 EMaxC= 1.00D-01 BMatC= 8.35D-01 BMatP= 8.35D-01
 IDIUse=3 WtCom= 7.70D-01 WtEn= 2.30D-01
 Coeff-Com:  0.100D+01
 Coeff-En:   0.100D+01
 Coeff:      0.100D+01
 Gap=     0.253 Goal=   None    Shift=    0.000
 GapD=    0.253 DampG=1.000 DampE=0.500 DampFc=0.5000 IDamp=-1.
 Damping current iteration by 5.00D-01
 RMSDP=1.61D-03 MaxDP=1.29D-01              OVMax= 2.06D-01

 Cycle   2  Pass 0  IDiag  1:
 RMSU=  8.04D-04    CP:  9.97D-01
 E= -2048.39862282349     Delta-E=       -0.198466037517 Rises=F Damp=T
 DIIS: error= 1.27D-02 at cycle   2 NSaved=   2.
 NSaved= 2 IEnMin= 2 EnMin= -2048.39862282349     IErMin= 2 ErrMin= 1.27D-02
 ErrMax= 1.27D-02  0.00D+00 EMaxC= 1.00D-01 BMatC= 1.45D-01 BMatP= 8.35D-01
 IDIUse=3 WtCom= 8.73D-01 WtEn= 1.27D-01
 Coeff-Com: -0.191D+00 0.119D+01
 Coeff-En:   0.000D+00 0.100D+01
 Coeff:     -0.167D+00 0.117D+01
 Gap=     0.355 Goal=   None    Shift=    0.000
 RMSDP=6.05D-04 MaxDP=3.28D-02 DE=-1.98D-01 OVMax= 1.48D-01

 Cycle   3  Pass 0  IDiag  1:
 RMSU=  5.95D-04    CP:  9.94D-01  1.13D+00
 E= -2048.58124830186     Delta-E=       -0.182625478379 Rises=F Damp=F
 DIIS: error= 8.09D-03 at cycle   3 NSaved=   3.
 NSaved= 3 IEnMin= 3 EnMin= -2048.58124830186     IErMin= 3 ErrMin= 8.09D-03
 ErrMax= 8.09D-03  0.00D+00 EMaxC= 1.00D-01 BMatC= 6.30D-02 BMatP= 1.45D-01
 IDIUse=3 WtCom= 9.19D-01 WtEn= 8.09D-02
 Coeff-Com: -0.230D+00 0.544D+00 0.685D+00
 Coeff-En:   0.000D+00 0.000D+00 0.100D+01
 Coeff:     -0.211D+00 0.500D+00 0.711D+00
 Gap=     0.276 Goal=   None    Shift=    0.000
 RMSDP=3.70D-04 MaxDP=3.33D-02 DE=-1.83D-01 OVMax= 7.36D-02

 Cycle   4  Pass 0  IDiag  1:
 RMSU=  2.10D-04    CP:  9.94D-01  1.42D+00  6.72D-01
 E= -2048.62877541520     Delta-E=       -0.047527113334 Rises=F Damp=F
 DIIS: error= 3.16D-03 at cycle   4 NSaved=   4.
 NSaved= 4 IEnMin= 4 EnMin= -2048.62877541520     IErMin= 4 ErrMin= 3.16D-03
 ErrMax= 3.16D-03  0.00D+00 EMaxC= 1.00D-01 BMatC= 9.62D-03 BMatP= 6.30D-02
 IDIUse=3 WtCom= 9.68D-01 WtEn= 3.16D-02
 Coeff-Com: -0.957D-01 0.186D+00 0.384D+00 0.526D+00
 Coeff-En:   0.000D+00 0.000D+00 0.770D-01 0.923D+00
 Coeff:     -0.927D-01 0.180D+00 0.375D+00 0.538D+00
 Gap=     0.279 Goal=   None    Shift=    0.000
 RMSDP=1.35D-04 MaxDP=1.20D-02 DE=-4.75D-02 OVMax= 1.57D-02

 Cycle   5  Pass 0  IDiag  1:
 RMSU=  6.37D-05    CP:  9.93D-01  1.38D+00  8.10D-01  6.05D-01
 E= -2048.63679373787     Delta-E=       -0.008018322674 Rises=F Damp=F
 DIIS: error= 4.68D-04 at cycle   5 NSaved=   5.
 NSaved= 5 IEnMin= 5 EnMin= -2048.63679373787     IErMin= 5 ErrMin= 4.68D-04
 ErrMax= 4.68D-04  0.00D+00 EMaxC= 1.00D-01 BMatC= 3.18D-04 BMatP= 9.62D-03
 IDIUse=3 WtCom= 9.95D-01 WtEn= 4.68D-03
 Coeff-Com: -0.250D-01 0.428D-01 0.125D+00 0.242D+00 0.616D+00
 Coeff-En:   0.000D+00 0.000D+00 0.000D+00 0.000D+00 0.100D+01
 Coeff:     -0.249D-01 0.426D-01 0.124D+00 0.240D+00 0.618D+00
 Gap=     0.280 Goal=   None    Shift=    0.000
 RMSDP=2.86D-05 MaxDP=1.88D-03 DE=-8.02D-03 OVMax= 3.64D-03

 Failed to achieve initial convergence to 1.0D-08 in  6 cycles.
 Switch to full accuracy anyway.
 Cycle   6  Pass 1  IDiag  1:
 E= -2048.63701471709     Delta-E=       -0.000220979214 Rises=F Damp=F
 DIIS: error= 2.27D-04 at cycle   1 NSaved=   1.
 NSaved= 1 IEnMin= 1 EnMin= -2048.63701471709     IErMin= 1 ErrMin= 2.27D-04
 ErrMax= 2.27D-04  0.00D+00 EMaxC= 1.00D-01 BMatC= 7.94D-05 BMatP= 7.94D-05
 IDIUse=3 WtCom= 9.98D-01 WtEn= 2.27D-03
 Coeff-Com:  0.100D+01
 Coeff-En:   0.100D+01
 Coeff:      0.100D+01
 Gap=     0.279 Goal=   None    Shift=    0.000
 RMSDP=2.86D-05 MaxDP=1.88D-03 DE=-2.21D-04 OVMax= 2.40D-03

 Cycle   7  Pass 1  IDiag  1:
 RMSU=  1.15D-04    CP:  1.00D+00
 E= -2048.63706766874     Delta-E=       -0.000052951656 Rises=F Damp=F
 DIIS: error= 1.86D-04 at cycle   2 NSaved=   2.
 NSaved= 2 IEnMin= 2 EnMin= -2048.63706766874     IErMin= 2 ErrMin= 1.86D-04
 ErrMax= 1.86D-04  0.00D+00 EMaxC= 1.00D-01 BMatC= 5.09D-05 BMatP= 7.94D-05
 IDIUse=3 WtCom= 9.98D-01 WtEn= 1.86D-03
 Coeff-Com:  0.426D+00 0.574D+00
 Coeff-En:   0.580D-01 0.942D+00
 Coeff:      0.425D+00 0.575D+00
 Gap=     0.280 Goal=   None    Shift=    0.000
 RMSDP=1.31D-05 MaxDP=1.07D-03 DE=-5.30D-05 OVMax= 1.69D-03

 Cycle   8  Pass 1  IDiag  1:
 RMSU=  1.28D-05    CP:  1.00D+00  1.02D+00
 E= -2048.63710543912     Delta-E=       -0.000037770375 Rises=F Damp=F
 DIIS: error= 9.00D-05 at cycle   3 NSaved=   3.
 NSaved= 3 IEnMin= 3 EnMin= -2048.63710543912     IErMin= 3 ErrMin= 9.00D-05
 ErrMax= 9.00D-05  0.00D+00 EMaxC= 1.00D-01 BMatC= 1.06D-05 BMatP= 5.09D-05
 IDIUse=1 WtCom= 1.00D+00 WtEn= 0.00D+00
 Coeff-Com: -0.172D-01 0.300D+00 0.717D+00
 Coeff:     -0.172D-01 0.300D+00 0.717D+00
 Gap=     0.279 Goal=   None    Shift=    0.000
 RMSDP=6.05D-06 MaxDP=3.85D-04 DE=-3.78D-05 OVMax= 7.90D-04

 Cycle   9  Pass 1  IDiag  1:
 RMSU=  4.03D-06    CP:  1.00D+00  1.05D+00  7.68D-01
 E= -2048.63711571492     Delta-E=       -0.000010275804 Rises=F Damp=F
 DIIS: error= 3.52D-05 at cycle   4 NSaved=   4.
 NSaved= 4 IEnMin= 4 EnMin= -2048.63711571492     IErMin= 4 ErrMin= 3.52D-05
 ErrMax= 3.52D-05  0.00D+00 EMaxC= 1.00D-01 BMatC= 6.11D-07 BMatP= 1.06D-05
 IDIUse=1 WtCom= 1.00D+00 WtEn= 0.00D+00
 Coeff-Com: -0.321D-01 0.859D-01 0.281D+00 0.665D+00
 Coeff:     -0.321D-01 0.859D-01 0.281D+00 0.665D+00
 Gap=     0.279 Goal=   None    Shift=    0.000
 RMSDP=1.55D-06 MaxDP=1.17D-04 DE=-1.03D-05 OVMax= 4.06D-04

 Cycle  10  Pass 1  IDiag  1:
 RMSU=  1.38D-06    CP:  1.00D+00  1.05D+00  8.03D-01  1.09D+00
 E= -2048.63711667990     Delta-E=       -0.000000964983 Rises=F Damp=F
 DIIS: error= 1.53D-05 at cycle   5 NSaved=   5.
 NSaved= 5 IEnMin= 5 EnMin= -2048.63711667990     IErMin= 5 ErrMin= 1.53D-05
 ErrMax= 1.53D-05  0.00D+00 EMaxC= 1.00D-01 BMatC= 1.21D-07 BMatP= 6.11D-07
 IDIUse=1 WtCom= 1.00D+00 WtEn= 0.00D+00
 Coeff-Com: -0.371D-02-0.527D-01-0.115D+00 0.185D+00 0.986D+00
 Coeff:     -0.371D-02-0.527D-01-0.115D+00 0.185D+00 0.986D+00
 Gap=     0.279 Goal=   None    Shift=    0.000
 RMSDP=1.26D-06 MaxDP=7.62D-05 DE=-9.65D-07 OVMax= 2.33D-04

 Cycle  11  Pass 1  IDiag  1:
 RMSU=  5.15D-07    CP:  1.00D+00  1.06D+00  8.10D-01  1.37D+00  1.19D+00
 E= -2048.63711696728     Delta-E=       -0.000000287381 Rises=F Damp=F
 DIIS: error= 1.07D-05 at cycle   6 NSaved=   6.
 NSaved= 6 IEnMin= 6 EnMin= -2048.63711696728     IErMin= 6 ErrMin= 1.07D-05
 ErrMax= 1.07D-05  0.00D+00 EMaxC= 1.00D-01 BMatC= 3.38D-08 BMatP= 1.21D-07
 IDIUse=1 WtCom= 1.00D+00 WtEn= 0.00D+00
 Coeff-Com:  0.474D-02-0.451D-01-0.118D+00-0.157D-01 0.539D+00 0.635D+00
 Coeff:      0.474D-02-0.451D-01-0.118D+00-0.157D-01 0.539D+00 0.635D+00
 Gap=     0.279 Goal=   None    Shift=    0.000
 RMSDP=4.20D-07 MaxDP=3.30D-05 DE=-2.87D-07 OVMax= 1.05D-04

 Cycle  12  Pass 1  IDiag  1:
 RMSU=  2.05D-07    CP:  1.00D+00  1.06D+00  8.14D-01  1.44D+00  1.34D+00
                    CP:  9.32D-01
 E= -2048.63711701533     Delta-E=       -0.000000048050 Rises=F Damp=F
 DIIS: error= 1.37D-06 at cycle   7 NSaved=   7.
 NSaved= 7 IEnMin= 7 EnMin= -2048.63711701533     IErMin= 7 ErrMin= 1.37D-06
 ErrMax= 1.37D-06  0.00D+00 EMaxC= 1.00D-01 BMatC= 8.33D-10 BMatP= 3.38D-08
 IDIUse=1 WtCom= 1.00D+00 WtEn= 0.00D+00
 Coeff-Com:  0.119D-02-0.795D-02-0.223D-01-0.103D-01 0.733D-01 0.140D+00
 Coeff-Com:  0.826D+00
 Coeff:      0.119D-02-0.795D-02-0.223D-01-0.103D-01 0.733D-01 0.140D+00
 Coeff:      0.826D+00
 Gap=     0.279 Goal=   None    Shift=    0.000
 RMSDP=8.93D-08 MaxDP=6.25D-06 DE=-4.81D-08 OVMax= 2.12D-05

 Cycle  13  Pass 1  IDiag  1:
 RMSU=  5.92D-08    CP:  1.00D+00  1.06D+00  8.13D-01  1.45D+00  1.36D+00
                    CP:  1.02D+00  1.12D+00
 E= -2048.63711701708     Delta-E=       -0.000000001745 Rises=F Damp=F
 DIIS: error= 6.32D-07 at cycle   8 NSaved=   8.
 NSaved= 8 IEnMin= 8 EnMin= -2048.63711701708     IErMin= 8 ErrMin= 6.32D-07
 ErrMax= 6.32D-07  0.00D+00 EMaxC= 1.00D-01 BMatC= 4.52D-10 BMatP= 8.33D-10
 IDIUse=1 WtCom= 1.00D+00 WtEn= 0.00D+00
 Coeff-Com: -0.697D-03 0.854D-02 0.215D-01-0.614D-03-0.115D+00-0.109D+00
 Coeff-Com:  0.444D+00 0.751D+00
 Coeff:     -0.697D-03 0.854D-02 0.215D-01-0.614D-03-0.115D+00-0.109D+00
 Coeff:      0.444D+00 0.751D+00
 Gap=     0.279 Goal=   None    Shift=    0.000
 RMSDP=5.78D-08 MaxDP=4.01D-06 DE=-1.75D-09 OVMax= 1.00D-05

 Cycle  14  Pass 1  IDiag  1:
 RMSU=  3.21D-08    CP:  1.00D+00  1.06D+00  8.13D-01  1.45D+00  1.37D+00
                    CP:  1.06D+00  1.29D+00  1.03D+00
 E= -2048.63711701759     Delta-E=       -0.000000000512 Rises=F Damp=F
 DIIS: error= 2.63D-07 at cycle   9 NSaved=   9.
 NSaved= 9 IEnMin= 9 EnMin= -2048.63711701759     IErMin= 9 ErrMin= 2.63D-07
 ErrMax= 2.63D-07  0.00D+00 EMaxC= 1.00D-01 BMatC= 4.92D-11 BMatP= 4.52D-10
 IDIUse=1 WtCom= 1.00D+00 WtEn= 0.00D+00
 Coeff-Com: -0.480D-03 0.506D-02 0.130D-01 0.153D-02-0.613D-01-0.680D-01
 Coeff-Com:  0.116D+00 0.338D+00 0.656D+00
 Coeff:     -0.480D-03 0.506D-02 0.130D-01 0.153D-02-0.613D-01-0.680D-01
 Coeff:      0.116D+00 0.338D+00 0.656D+00
 Gap=     0.279 Goal=   None    Shift=    0.000
 RMSDP=1.52D-08 MaxDP=1.01D-06 DE=-5.12D-10 OVMax= 2.79D-06

 Cycle  15  Pass 1  IDiag  1:
 RMSU=  1.04D-08    CP:  1.00D+00  1.06D+00  8.13D-01  1.45D+00  1.37D+00
                    CP:  1.07D+00  1.31D+00  1.18D+00  1.08D+00
 E= -2048.63711701800     Delta-E=       -0.000000000411 Rises=F Damp=F
 DIIS: error= 1.10D-07 at cycle  10 NSaved=  10.
 NSaved=10 IEnMin=10 EnMin= -2048.63711701800     IErMin=10 ErrMin= 1.10D-07
 ErrMax= 1.10D-07  0.00D+00 EMaxC= 1.00D-01 BMatC= 6.23D-12 BMatP= 4.92D-11
 IDIUse=1 WtCom= 1.00D+00 WtEn= 0.00D+00
 Coeff-Com: -0.832D-05-0.173D-03-0.369D-03 0.206D-03 0.384D-02-0.155D-03
 Coeff-Com: -0.563D-01-0.536D-01 0.212D+00 0.894D+00
 Coeff:     -0.832D-05-0.173D-03-0.369D-03 0.206D-03 0.384D-02-0.155D-03
 Coeff:     -0.563D-01-0.536D-01 0.212D+00 0.894D+00
 Gap=     0.279 Goal=   None    Shift=    0.000
 RMSDP=9.00D-09 MaxDP=4.68D-07 DE=-4.11D-10 OVMax= 1.80D-06

 SCF Done:  E(RwB97XD) =  -2048.63711702     A.U. after   15 cycles
            NFock= 15  Conv=0.90D-08     -V/T= 2.0050
 KE= 2.038358176969D+03 PE=-1.577909194021D+04 EE= 6.192968469262D+03
 Leave Link  502 at Tue Jan 23 03:55:10 2018, MaxMem=  4294967296 cpu:           21645.4 elap:             700.8
 (Enter /share/apps/g16/l601.exe)
 Copying SCF densities to generalized density rwf, IOpCl= 0 IROHF=0.

 **********************************************************************

            Population analysis using the SCF density.

 **********************************************************************

 Orbital symmetries:
       Occupied  (A) (A) (A) (A) (A) (A) (A) (A) (A) (A) (A) (A)
                 (A) (A) (A) (A) (A) (A) (A) (A) (A) (A) (A) (A)
                 (A) (A) (A) (A) (A) (A) (A) (A) (A) (A) (A) (A)
                 (A) (A) (A) (A) (A) (A) (A) (A) (A) (A) (A) (A)
                 (A) (A) (A) (A) (A) (A) (A) (A) (A) (A) (A) (A)
                 (A) (A) (A) (A) (A) (A) (A) (A) (A) (A) (A) (A)
                 (A) (A) (A) (A) (A) (A) (A) (A) (A) (A) (A) (A)
                 (A) (A) (A) (A) (A) (A) (A) (A) (A) (A) (A) (A)
                 (A) (A) (A) (A) (A) (A) (A) (A) (A) (A) (A) (A)
                 (A) (A) (A) (A) (A) (A) (A) (A) (A) (A) (A) (A)
                 (A) (A) (A) (A) (A) (A) (A) (A) (A) (A) (A) (A)
                 (A) (A) (A) (A) (A) (A) (A) (A) (A) (A) (A) (A)
                 (A) (A) (A) (A) (A) (A) (A) (A) (A) (A)
       Virtual   (A) (A) (A) (A) (A) (A) (A) (A) (A) (A) (A) (A)
                 (A) (A) (A) (A) (A) (A) (A) (A) (A) (A) (A) (A)
                 (A) (A) (A) (A) (A) (A) (A) (A) (A) (A) (A) (A)
                 (A) (A) (A) (A) (A) (A) (A) (A) (A) (A) (A) (A)
                 (A) (A) (A) (A) (A) (A) (A) (A) (A) (A) (A) (A)
                 (A) (A) (A) (A) (A) (A) (A) (A) (A) (A) (A) (A)
                 (A) (A) (A) (A) (A) (A) (A) (A) (A) (A) (A) (A)
                 (A) (A) (A) (A) (A) (A) (A) (A) (A) (A) (A) (A)
                 (A) (A) (A) (A) (A) (A) (A) (A) (A) (A) (A) (A)
                 (A) (A) (A) (A) (A) (A) (A) (A) (A) (A) (A) (A)
                 (A) (A) (A) (A) (A) (A) (A) (A) (A) (A) (A) (A)
                 (A) (A) (A) (A) (A) (A) (A) (A) (A) (A) (A) (A)
                 (A) (A) (A) (A) (A) (A) (A) (A) (A) (A) (A) (A)
                 (A) (A) (A) (A) (A) (A) (A) (A) (A) (A) (A) (A)
                 (A) (A) (A) (A) (A) (A) (A) (A) (A) (A) (A) (A)
                 (A) (A) (A) (A) (A) (A) (A) (A) (A) (A) (A) (A)
                 (A) (A) (A) (A) (A) (A) (A) (A) (A) (A) (A) (A)
                 (A) (A) (A) (A) (A) (A) (A) (A) (A) (A) (A) (A)
                 (A) (A) (A) (A) (A) (A) (A) (A) (A) (A) (A) (A)
                 (A) (A) (A) (A) (A) (A) (A) (A) (A) (A) (A) (A)
                 (A) (A) (A) (A) (A) (A) (A) (A) (A) (A) (A) (A)
                 (A) (A) (A) (A) (A) (A) (A) (A) (A) (A) (A) (A)
                 (A) (A) (A) (A) (A) (A) (A) (A) (A) (A) (A) (A)
                 (A) (A) (A) (A) (A) (A) (A) (A) (A) (A) (A) (A)
                 (A) (A) (A) (A) (A) (A) (A) (A) (A) (A) (A) (A)
                 (A) (A) (A) (A) (A) (A) (A) (A) (A) (A) (A) (A)
                 (A) (A) (A) (A) (A) (A) (A) (A) (A) (A) (A) (A)
                 (A) (A) (A) (A) (A) (A) (A) (A) (A) (A) (A) (A)
                 (A) (A) (A) (A) (A) (A) (A) (A) (A) (A) (A) (A)
                 (A) (A) (A) (A) (A) (A) (A) (A) (A) (A) (A) (A)
                 (A) (A) (A) (A) (A) (A) (A) (A) (A) (A) (A) (A)
                 (A) (A) (A) (A) (A) (A) (A) (A) (A) (A) (A) (A)
                 (A) (A) (A) (A) (A) (A) (A) (A) (A) (A) (A) (A)
                 (A) (A) (A) (A) (A) (A) (A) (A) (A) (A) (A) (A)
                 (A) (A) (A) (A) (A) (A) (A) (A) (A) (A) (A) (A)
                 (A) (A) (A) (A) (A) (A) (A) (A) (A) (A) (A) (A)
                 (A) (A) (A) (A) (A) (A) (A) (A) (A) (A) (A) (A)
                 (A) (A) (A) (A) (A) (A) (A) (A) (A) (A) (A) (A)
                 (A) (A) (A) (A) (A) (A) (A) (A) (A) (A) (A) (A)
                 (A) (A) (A) (A) (A) (A) (A) (A) (A) (A) (A) (A)
                 (A) (A) (A) (A) (A) (A) (A) (A) (A) (A) (A) (A)
                 (A) (A) (A) (A) (A) (A) (A) (A) (A) (A) (A) (A)
                 (A) (A) (A) (A) (A) (A) (A) (A) (A) (A) (A) (A)
                 (A) (A) (A) (A) (A) (A) (A) (A) (A) (A) (A) (A)
                 (A) (A) (A) (A) (A) (A) (A) (A) (A) (A) (A) (A)
                 (A) (A) (A) (A) (A) (A) (A) (A) (A) (A) (A) (A)
                 (A) (A) (A) (A) (A) (A) (A) (A) (A) (A) (A) (A)
                 (A) (A) (A) (A) (A) (A) (A) (A) (A) (A) (A) (A)
                 (A) (A) (A) (A) (A) (A) (A)
 The electronic state is 1-A.
 Alpha  occ. eigenvalues --  -19.25947 -19.21931 -19.20379 -14.52462 -14.51948
 Alpha  occ. eigenvalues --  -14.49562 -14.48553 -14.47875 -14.47122 -14.46355
 Alpha  occ. eigenvalues --  -14.45862 -14.44723 -14.43226 -14.42985 -14.42557
 Alpha  occ. eigenvalues --  -14.42251 -14.41838 -14.41405 -14.41011 -14.40606
 Alpha  occ. eigenvalues --  -10.45553 -10.41378 -10.40060 -10.38901 -10.37976
 Alpha  occ. eigenvalues --  -10.37758 -10.37348 -10.36264 -10.36160 -10.35534
 Alpha  occ. eigenvalues --  -10.34902 -10.34373 -10.34239 -10.34204 -10.34025
 Alpha  occ. eigenvalues --  -10.33161 -10.33139 -10.31788 -10.31568 -10.31059
 Alpha  occ. eigenvalues --  -10.30644 -10.29429 -10.27973  -1.19497  -1.14940
 Alpha  occ. eigenvalues --   -1.13191  -1.12969  -1.12178  -1.10446  -1.09347
 Alpha  occ. eigenvalues --   -1.09081  -1.08256  -1.05854  -1.03816  -1.02506
 Alpha  occ. eigenvalues --   -1.01857  -1.01283  -0.99465  -0.98324  -0.97754
 Alpha  occ. eigenvalues --   -0.96439  -0.95918  -0.93504  -0.91045  -0.87429
 Alpha  occ. eigenvalues --   -0.85954  -0.84749  -0.83868  -0.83784  -0.83069
 Alpha  occ. eigenvalues --   -0.82380  -0.78876  -0.76364  -0.74820  -0.74250
 Alpha  occ. eigenvalues --   -0.73819  -0.73714  -0.73367  -0.71944  -0.69742
 Alpha  occ. eigenvalues --   -0.68019  -0.67119  -0.66627  -0.66231  -0.64494
 Alpha  occ. eigenvalues --   -0.64067  -0.63789  -0.63519  -0.62967  -0.62508
 Alpha  occ. eigenvalues --   -0.61014  -0.60651  -0.60081  -0.59674  -0.59494
 Alpha  occ. eigenvalues --   -0.58941  -0.58710  -0.57335  -0.57089  -0.56874
 Alpha  occ. eigenvalues --   -0.56225  -0.55801  -0.55594  -0.54536  -0.54321
 Alpha  occ. eigenvalues --   -0.53723  -0.53416  -0.53093  -0.52763  -0.52598
 Alpha  occ. eigenvalues --   -0.52465  -0.52334  -0.51940  -0.51536  -0.50946
 Alpha  occ. eigenvalues --   -0.49995  -0.49880  -0.49431  -0.49330  -0.48728
 Alpha  occ. eigenvalues --   -0.48554  -0.48161  -0.48029  -0.47803  -0.47519
 Alpha  occ. eigenvalues --   -0.47267  -0.45838  -0.45374  -0.43996  -0.42480
 Alpha  occ. eigenvalues --   -0.42056  -0.39562  -0.39310  -0.38048  -0.37339
 Alpha  occ. eigenvalues --   -0.37030  -0.36726  -0.36421  -0.35859  -0.35120
 Alpha  occ. eigenvalues --   -0.34364  -0.34268  -0.33121  -0.32923  -0.32705
 Alpha  occ. eigenvalues --   -0.32354  -0.31971  -0.31923  -0.31690  -0.31611
 Alpha  occ. eigenvalues --   -0.31202  -0.28538  -0.26648  -0.24774
 Alpha virt. eigenvalues --    0.03169   0.04254   0.07037   0.07486   0.08286
 Alpha virt. eigenvalues --    0.09489   0.09660   0.10048   0.11140   0.12504
 Alpha virt. eigenvalues --    0.12710   0.13446   0.14131   0.14415   0.14923
 Alpha virt. eigenvalues --    0.15758   0.16183   0.16610   0.17006   0.18084
 Alpha virt. eigenvalues --    0.18875   0.19271   0.19599   0.19972   0.20228
 Alpha virt. eigenvalues --    0.20714   0.21266   0.21612   0.21873   0.22274
 Alpha virt. eigenvalues --    0.23117   0.23273   0.23309   0.23471   0.23921
 Alpha virt. eigenvalues --    0.23970   0.24076   0.25318   0.25648   0.25865
 Alpha virt. eigenvalues --    0.26243   0.26585   0.27870   0.28284   0.28572
 Alpha virt. eigenvalues --    0.29202   0.29695   0.30000   0.30864   0.31077
 Alpha virt. eigenvalues --    0.31870   0.32226   0.32426   0.33348   0.33895
 Alpha virt. eigenvalues --    0.34275   0.34652   0.35303   0.35840   0.36530
 Alpha virt. eigenvalues --    0.37412   0.37731   0.38632   0.39250   0.39808
 Alpha virt. eigenvalues --    0.40650   0.41030   0.41389   0.41532   0.41780
 Alpha virt. eigenvalues --    0.42016   0.43011   0.43471   0.43677   0.44780
 Alpha virt. eigenvalues --    0.45341   0.45392   0.45835   0.46194   0.47195
 Alpha virt. eigenvalues --    0.47641   0.48073   0.48539   0.49216   0.49272
 Alpha virt. eigenvalues --    0.50278   0.50713   0.50782   0.51373   0.51638
 Alpha virt. eigenvalues --    0.52056   0.52143   0.52745   0.53195   0.53865
 Alpha virt. eigenvalues --    0.54312   0.54514   0.54777   0.55467   0.55855
 Alpha virt. eigenvalues --    0.55994   0.56977   0.57205   0.57884   0.58218
 Alpha virt. eigenvalues --    0.58497   0.59141   0.59339   0.59533   0.59835
 Alpha virt. eigenvalues --    0.60248   0.60679   0.60863   0.61456   0.61719
 Alpha virt. eigenvalues --    0.62192   0.62385   0.63107   0.63256   0.63538
 Alpha virt. eigenvalues --    0.64195   0.64510   0.64888   0.65493   0.65597
 Alpha virt. eigenvalues --    0.66060   0.66131   0.66770   0.66896   0.67156
 Alpha virt. eigenvalues --    0.68377   0.68462   0.68589   0.68774   0.69261
 Alpha virt. eigenvalues --    0.69484   0.70097   0.70258   0.71302   0.71609
 Alpha virt. eigenvalues --    0.72217   0.72577   0.73355   0.73986   0.74145
 Alpha virt. eigenvalues --    0.74563   0.74725   0.75072   0.75380   0.75535
 Alpha virt. eigenvalues --    0.75598   0.76192   0.76361   0.76756   0.76993
 Alpha virt. eigenvalues --    0.77210   0.77706   0.78331   0.79081   0.79153
 Alpha virt. eigenvalues --    0.79415   0.79780   0.79931   0.80617   0.80901
 Alpha virt. eigenvalues --    0.81287   0.81975   0.82655   0.82793   0.83156
 Alpha virt. eigenvalues --    0.83367   0.84036   0.84390   0.84624   0.84803
 Alpha virt. eigenvalues --    0.85225   0.86140   0.86633   0.86955   0.87374
 Alpha virt. eigenvalues --    0.88037   0.88293   0.88893   0.88969   0.89548
 Alpha virt. eigenvalues --    0.90274   0.90633   0.91303   0.91769   0.92401
 Alpha virt. eigenvalues --    0.93038   0.93380   0.93801   0.94027   0.94380
 Alpha virt. eigenvalues --    0.94587   0.95309   0.95715   0.95970   0.96347
 Alpha virt. eigenvalues --    0.97167   0.97830   0.98021   0.98284   0.99020
 Alpha virt. eigenvalues --    0.99369   0.99747   1.00295   1.01289   1.01831
 Alpha virt. eigenvalues --    1.01946   1.02226   1.02503   1.04068   1.04286
 Alpha virt. eigenvalues --    1.04537   1.05388   1.05441   1.05851   1.06112
 Alpha virt. eigenvalues --    1.06944   1.07430   1.07932   1.08285   1.09292
 Alpha virt. eigenvalues --    1.09874   1.10137   1.10939   1.11883   1.12156
 Alpha virt. eigenvalues --    1.12594   1.12747   1.13446   1.13912   1.13953
 Alpha virt. eigenvalues --    1.14971   1.15483   1.15710   1.16172   1.16608
 Alpha virt. eigenvalues --    1.17143   1.17707   1.18117   1.18669   1.18807
 Alpha virt. eigenvalues --    1.19126   1.19720   1.19954   1.20503   1.20875
 Alpha virt. eigenvalues --    1.21065   1.21420   1.21810   1.22141   1.22324
 Alpha virt. eigenvalues --    1.22640   1.23419   1.23715   1.24359   1.24634
 Alpha virt. eigenvalues --    1.24951   1.25846   1.25954   1.26553   1.27034
 Alpha virt. eigenvalues --    1.27696   1.28767   1.29097   1.29502   1.30425
 Alpha virt. eigenvalues --    1.31028   1.31370   1.31588   1.31990   1.32077
 Alpha virt. eigenvalues --    1.33608   1.33992   1.34585   1.34863   1.35372
 Alpha virt. eigenvalues --    1.36768   1.36970   1.37312   1.38264   1.38556
 Alpha virt. eigenvalues --    1.39292   1.39799   1.40605   1.42330   1.43018
 Alpha virt. eigenvalues --    1.44240   1.44753   1.45197   1.45697   1.46864
 Alpha virt. eigenvalues --    1.47840   1.48131   1.48351   1.48589   1.48757
 Alpha virt. eigenvalues --    1.49330   1.49932   1.50770   1.50992   1.51808
 Alpha virt. eigenvalues --    1.52801   1.53733   1.54277   1.54880   1.55539
 Alpha virt. eigenvalues --    1.55945   1.56873   1.57217   1.58546   1.58757
 Alpha virt. eigenvalues --    1.59499   1.60525   1.60819   1.61500   1.61829
 Alpha virt. eigenvalues --    1.62463   1.62802   1.63670   1.64093   1.64419
 Alpha virt. eigenvalues --    1.65550   1.65947   1.66589   1.66748   1.66958
 Alpha virt. eigenvalues --    1.67640   1.68115   1.69170   1.69302   1.69813
 Alpha virt. eigenvalues --    1.70157   1.70359   1.70780   1.71318   1.71712
 Alpha virt. eigenvalues --    1.72010   1.72586   1.73015   1.73282   1.74022
 Alpha virt. eigenvalues --    1.74587   1.74821   1.75290   1.75398   1.75639
 Alpha virt. eigenvalues --    1.76487   1.76765   1.77039   1.77795   1.78184
 Alpha virt. eigenvalues --    1.78508   1.78615   1.79155   1.79391   1.79715
 Alpha virt. eigenvalues --    1.79919   1.80387   1.80689   1.81191   1.81583
 Alpha virt. eigenvalues --    1.82065   1.82630   1.82962   1.83416   1.83988
 Alpha virt. eigenvalues --    1.84406   1.84462   1.84879   1.85753   1.86162
 Alpha virt. eigenvalues --    1.87191   1.87435   1.88093   1.88204   1.88540
 Alpha virt. eigenvalues --    1.88676   1.88943   1.89223   1.89437   1.89593
 Alpha virt. eigenvalues --    1.91033   1.91366   1.92076   1.92430   1.92813
 Alpha virt. eigenvalues --    1.93372   1.93614   1.93874   1.95144   1.95260
 Alpha virt. eigenvalues --    1.95954   1.97166   1.97386   1.99125   1.99619
 Alpha virt. eigenvalues --    1.99973   2.00424   2.01007   2.01226   2.01884
 Alpha virt. eigenvalues --    2.02762   2.03165   2.05184   2.05472   2.05795
 Alpha virt. eigenvalues --    2.05828   2.06306   2.06917   2.07658   2.08306
 Alpha virt. eigenvalues --    2.08421   2.08987   2.09804   2.10382   2.10793
 Alpha virt. eigenvalues --    2.11986   2.12343   2.13289   2.13623   2.14162
 Alpha virt. eigenvalues --    2.14835   2.16901   2.18242   2.18742   2.19475
 Alpha virt. eigenvalues --    2.19966   2.20250   2.20449   2.20736   2.21364
 Alpha virt. eigenvalues --    2.22640   2.23609   2.23637   2.24382   2.24697
 Alpha virt. eigenvalues --    2.25313   2.25933   2.27120   2.28152   2.28844
 Alpha virt. eigenvalues --    2.29102   2.29508   2.29769   2.30596   2.30747
 Alpha virt. eigenvalues --    2.31005   2.32138   2.32761   2.33062   2.33789
 Alpha virt. eigenvalues --    2.33888   2.34612   2.35158   2.35852   2.36198
 Alpha virt. eigenvalues --    2.37284   2.37541   2.38379   2.38853   2.39210
 Alpha virt. eigenvalues --    2.40284   2.40590   2.40810   2.40915   2.41960
 Alpha virt. eigenvalues --    2.42713   2.42915   2.43388   2.44642   2.44780
 Alpha virt. eigenvalues --    2.45255   2.46350   2.46632   2.47709   2.48941
 Alpha virt. eigenvalues --    2.49036   2.49629   2.50933   2.52822   2.53090
 Alpha virt. eigenvalues --    2.53721   2.54428   2.54966   2.56374   2.57094
 Alpha virt. eigenvalues --    2.57645   2.59197   2.60030   2.60461   2.60693
 Alpha virt. eigenvalues --    2.61198   2.61844   2.62846   2.63340   2.63935
 Alpha virt. eigenvalues --    2.64319   2.64716   2.65885   2.66588   2.67759
 Alpha virt. eigenvalues --    2.68273   2.68606   2.69548   2.70177   2.70587
 Alpha virt. eigenvalues --    2.70687   2.72128   2.72697   2.73354   2.74262
 Alpha virt. eigenvalues --    2.74855   2.75083   2.75987   2.77226   2.77798
 Alpha virt. eigenvalues --    2.79079   2.79347   2.79714   2.80155   2.80244
 Alpha virt. eigenvalues --    2.80340   2.80896   2.81250   2.82249   2.82654
 Alpha virt. eigenvalues --    2.83430   2.83870   2.84563   2.84793   2.85875
 Alpha virt. eigenvalues --    2.86364   2.86841   2.87226   2.87336   2.88408
 Alpha virt. eigenvalues --    2.88818   2.90387   2.92465   2.93523   2.94121
 Alpha virt. eigenvalues --    2.95715   2.97269   2.98390   2.99089   2.99463
 Alpha virt. eigenvalues --    3.00793   3.03527   3.04712   3.05371   3.06983
 Alpha virt. eigenvalues --    3.09467   3.10746   3.13788   3.14052   3.14690
 Alpha virt. eigenvalues --    3.15270   3.15791   3.16632   3.19554   3.22063
 Alpha virt. eigenvalues --    3.22969   3.23132   3.23461   3.27416   3.32867
 Alpha virt. eigenvalues --    3.46071   3.46692   3.49366   3.49937   3.51106
 Alpha virt. eigenvalues --    3.52883   3.53812   3.56760   3.59633   3.60413
 Alpha virt. eigenvalues --    3.62936   3.71601   3.74762
          Condensed to atoms (all electrons):
 Mulliken charges:
               1
     1  N   -0.311995
     2  C    0.180688
     3  C    0.035265
     4  N   -0.259185
     5  C    0.135266
     6  H    0.029371
     7  N   -0.280420
     8  C    0.113001
     9  H    0.018810
    10  N   -0.285131
    11  C    0.242058
    12  C    0.118484
    13  N   -0.054019
    14  H    0.107305
    15  H    0.088238
    16  H    0.027084
    17  H    0.035302
    18  H    0.027527
    19  N   -0.301879
    20  C    0.211701
    21  C    0.186756
    22  N   -0.087645
    23  H    0.116973
    24  H    0.105620
    25  N   -0.259751
    26  C    0.169548
    27  N   -0.099115
    28  H    0.122332
    29  C    0.134774
    30  O   -0.320904
    31  C    0.003026
    32  N   -0.219263
    33  C    0.127455
    34  H    0.029956
    35  H    0.017284
    36  H    0.027249
    37  H    0.024431
    38  H    0.060508
    39  H    0.061674
    40  H    0.069014
    41  H    0.031570
    42  C   -0.111509
    43  O   -0.265747
    44  C    0.179559
    45  H    0.134759
    46  N   -0.138228
    47  O   -0.351838
    48  C    0.366447
    49  H    0.047431
    50  C    0.174052
    51  C    0.040791
    52  N   -0.295194
    53  H    0.017720
    54  H    0.039088
    55  H   -0.006570
    56  H    0.120642
    57  H    0.117422
    58  N   -0.066551
    59  C    0.123811
    60  C    0.222645
    61  N   -0.261884
    62  H    0.072038
    63  C    0.149498
    64  N   -0.299488
    65  H    0.028143
    66  C    0.133873
    67  N   -0.262654
    68  C    0.023211
    69  C    0.207448
    70  N   -0.317877
 Sum of Mulliken charges =  -0.00000
 Mulliken charges with hydrogens summed into heavy atoms:
               1
     1  N   -0.311995
     2  C    0.270600
     3  C    0.035265
     4  N   -0.259185
     5  C    0.164637
     7  N   -0.280420
     8  C    0.131811
    10  N   -0.285131
    11  C    0.242058
    12  C    0.118484
    13  N    0.141525
    19  N   -0.301879
    20  C    0.211701
    21  C    0.255719
    22  N    0.134949
    25  N   -0.259751
    26  C    0.169548
    27  N    0.023217
    29  C    0.134774
    30  O   -0.320904
    31  C    0.003026
    32  N   -0.219263
    33  C    0.157411
    42  C   -0.079939
    43  O   -0.265747
    44  C    0.179559
    46  N   -0.003469
    47  O   -0.351838
    48  C    0.366447
    50  C    0.221483
    51  C    0.231986
    52  N   -0.295194
    58  N    0.171513
    59  C    0.123811
    60  C    0.222645
    61  N   -0.261884
    63  C    0.221536
    64  N   -0.299488
    66  C    0.162016
    67  N   -0.262654
    68  C    0.023211
    69  C    0.257686
    70  N   -0.317877
 Electronic spatial extent (au):  <R**2>=          24145.5412
 Charge=             -0.0000 electrons
 Dipole moment (field-independent basis, Debye):
    X=              6.5203    Y=              5.5223    Z=              3.7887  Tot=              9.3469
 Quadrupole moment (field-independent basis, Debye-Ang):
   XX=           -141.6544   YY=           -225.7713   ZZ=           -254.6562
   XY=              9.6163   XZ=             14.6568   YZ=            -11.6784
 Traceless Quadrupole moment (field-independent basis, Debye-Ang):
   XX=             65.7062   YY=            -18.4106   ZZ=            -47.2955
   XY=              9.6163   XZ=             14.6568   YZ=            -11.6784
 Octapole moment (field-independent basis, Debye-Ang**2):
  XXX=             24.6817  YYY=            109.2344  ZZZ=              3.9344  XYY=             54.4895
  XXY=            -60.4958  XXZ=            -57.2565  XZZ=              5.5101  YZZ=             21.1116
  YYZ=             62.5954  XYZ=             26.2336
 Hexadecapole moment (field-independent basis, Debye-Ang**3):
 XXXX=         -16142.8388 YYYY=          -5478.0907 ZZZZ=          -2892.0412 XXXY=            459.6457
 XXXZ=            251.0680 YYYX=             92.9785 YYYZ=           -130.6988 ZZZX=             26.5453
 ZZZY=            -31.0775 XXYY=          -4308.9892 XXZZ=          -4373.7652 YYZZ=          -1410.0911
 XXYZ=             80.5379 YYXZ=            225.0732 ZZXY=             20.0768
 N-N= 5.499128176961D+03 E-N=-1.577909192869D+04  KE= 2.038358176969D+03
 No NMR shielding tensors so no spin-rotation constants.
 Leave Link  601 at Tue Jan 23 03:55:11 2018, MaxMem=  4294967296 cpu:              44.4 elap:               1.6
 (Enter /share/apps/g16/l9999.exe)
 1\1\GINC-COMPUTE-0-3\SP\RwB97XD\CC-pVDZ\C23H27N17O3\SATYA\23-Jan-2018\
 0\\#p wb97xd/cc-pvdz sp scf=(maxcycles=20)\\Base pair stacking\\0,1\N,
 0,6.66806,6.50573,-8.02083\C,0,7.59064,7.65429,-8.1083\C,0,4.90151,5.2
 4512,-7.66378\N,0,5.88131,4.40504,-8.17267\C,0,6.90638,5.19813,-8.3674
 1\H,0,7.87013,4.87929,-8.76547\N,0,2.86995,6.06924,-6.79398\C,0,3.4605
 9,7.26812,-6.75636\H,0,2.84106,8.08004,-6.3779\N,0,4.69581,7.61301,-7.
 11437\C,0,5.37177,6.54301,-7.56449\C,0,3.57659,5.01285,-7.25197\N,0,2.
 98874,3.81529,-7.29029\H,0,3.47397,3.00545,-7.62183\H,0,2.0438,3.68686
 ,-6.98907\H,0,7.873,7.78515,-9.05873\H,0,7.12938,8.47888,-7.78207\H,0,
 8.39742,7.4802,-7.54367\N,0,2.42227,6.84263,-3.4309\C,0,1.35359,5.9979
 4,-3.25071\C,0,2.3613,8.31749,-3.38858\N,0,-2.03034,5.51795,-2.63397\H
 ,0,-2.65986,4.74797,-2.53356\H,0,-2.41785,6.43569,-2.54289\N,0,0.07852
 ,6.37036,-3.00669\C,0,-0.725,5.32928,-2.87974\N,0,-0.31332,4.02265,-2.
 98349\H,0,-0.99755,3.29026,-2.87215\C,0,0.99353,3.61623,-3.23412\O,0,1
 .25978,2.4103,-3.3088\C,0,1.86836,4.72362,-3.37287\N,0,3.23275,4.76741
 ,-3.62469\C,0,3.51617,6.04147,-3.65039\H,0,4.51072,6.45295,-3.82596\H,
 0,2.66044,8.69044,-4.26621\H,0,1.42156,8.60507,-3.20846\H,0,2.95763,8.
 65669,-2.66185\H,0,-4.98932,0.14092,-2.85886\H,0,-4.51161,-0.1233,-1.1
 8356\H,0,-4.23724,1.44594,-1.9409\H,0,-1.2712,-2.85164,-3.46443\C,0,-1
 .45661,-1.79998,-3.2457\O,0,0.75284,-1.11188,-3.76719\C,0,-0.39333,-0.
 85472,-3.39981\H,0,-0.00909,1.14486,-3.19402\N,0,-0.73427,0.44812,-3.0
 9712\O,0,-2.16332,2.08285,-2.43182\C,0,-1.95722,0.90704,-2.67603\H,0,-
 3.50203,-2.06129,-2.70367\C,0,-2.66045,-1.38276,-2.83664\C,0,-4.25427,
 0.37865,-2.10437\N,0,-2.93087,-0.06443,-2.55161\H,0,-4.68297,5.72039,-
 4.44578\H,0,-3.22106,6.06713,-3.80961\H,0,-4.23441,5.05756,-3.0235\H,0
 ,0.45052,1.15629,-7.25323\H,0,-1.16048,0.67177,-6.97034\N,0,-0.44892,1
 .36819,-6.87081\C,0,-0.68983,2.52762,-6.2553\C,0,-2.03188,4.11274,-5.0
 9425\N,0,-1.05722,5.02942,-4.97526\H,0,0.91325,5.27467,-5.48292\C,0,0.
 06806,4.58967,-5.53496\N,0,0.31135,3.42875,-6.15192\H,0,-4.9811,2.8311
 ,-4.76\C,0,-3.93549,3.02857,-4.99805\N,0,-3.14617,2.1976,-5.63377\C,0,
 -1.93607,2.87273,-5.70148\C,0,-3.91308,5.35478,-3.92272\N,0,-3.32662,4
 .20716,-4.64177\\Version=EM64L-G16RevA.03\State=1-A\HF=-2048.637117\RM
 SD=9.002e-09\Dipole=-3.5907406,0.6751246,0.4166773\Quadrupole=27.52910
 84,-6.4624389,-21.0666696,29.2150796,-25.8506173,2.620929\PG=C01 [X(C2
 3H27N17O3)]\\@


 I MET A TRAVELLER FROM AN ANTIQUE LAND
 WHO SAID... TWO VAST AND TRUNKLESS LEGS OF STONE
 STAND IN THE DESERT..... NEAR THEM,  ON THE SAND,
 HALF SUNK,  A SHATTERED VISAGE LIES,  WHOSE FROWN,
 AND WRINKLED LIP,  AND SNEER OF COLD COMMAND
 TELL THAT ITS SCULPTOR WELL THOSE PASSIONS READ
 WHICH YET SURVIVE,  STAMPED ON THESE LIFELESS THINGS
 THE HAND THAT MOCKED THEM,  AND THE HEART THAT FED-
 AND ON THE PEDESTAL THESE WORDS APPEAR 
 MY NAME IS OZYMANDIAS, KING OF KINGS--   
 LOOK ON MY WORKS YE MIGHTY AND DESPAIR. 
 NOTHING BESIDE REMAINS,  ROUND THE DECAY 
 OF THAT COLOSSAL WRECK,  BOUNDLESS AND BARE
 THE LONE AND LEVEL SANDS STRETCH FAR AWAY.
                                    SHELLEY
 Job cpu time:       0 days  6 hours 10 minutes 51.0 seconds.
 Elapsed time:       0 days  0 hours 12 minutes  0.1 seconds.
 File lengths (MBytes):  RWF=    298 Int=      0 D2E=      0 Chk=     33 Scr=      1
 Normal termination of Gaussian 16 at Tue Jan 23 03:55:12 2018.
