 Entering Gaussian System, Link 0=g16
 Input=str40.20.-2.5.com
 Output=str40.20.-2.5.log
 Initial command:
 /share/apps/g16/l1.exe "/state/partition1/scr/Gau-2081.inp" -scrdir="/state/partition1/scr/"
 Entering Link 1 = /share/apps/g16/l1.exe PID=      2082.
  
 Copyright (c) 1988,1990,1992,1993,1995,1998,2003,2009,2016,
            Gaussian, Inc.  All Rights Reserved.
  
 This is part of the Gaussian(R) 16 program.  It is based on
 the Gaussian(R) 09 system (copyright 2009, Gaussian, Inc.),
 the Gaussian(R) 03 system (copyright 2003, Gaussian, Inc.),
 the Gaussian(R) 98 system (copyright 1998, Gaussian, Inc.),
 the Gaussian(R) 94 system (copyright 1995, Gaussian, Inc.),
 the Gaussian 92(TM) system (copyright 1992, Gaussian, Inc.),
 the Gaussian 90(TM) system (copyright 1990, Gaussian, Inc.),
 the Gaussian 88(TM) system (copyright 1988, Gaussian, Inc.),
 the Gaussian 86(TM) system (copyright 1986, Carnegie Mellon
 University), and the Gaussian 82(TM) system (copyright 1983,
 Carnegie Mellon University). Gaussian is a federally registered
 trademark of Gaussian, Inc.
  
 This software contains proprietary and confidential information,
 including trade secrets, belonging to Gaussian, Inc.
  
 This software is provided under written license and may be
 used, copied, transmitted, or stored only in accord with that
 written license.
  
 The following legend is applicable only to US Government
 contracts under FAR:
  
                    RESTRICTED RIGHTS LEGEND
  
 Use, reproduction and disclosure by the US Government is
 subject to restrictions as set forth in subparagraphs (a)
 and (c) of the Commercial Computer Software - Restricted
 Rights clause in FAR 52.227-19.
  
 Gaussian, Inc.
 340 Quinnipiac St., Bldg. 40, Wallingford CT 06492
  
  
 ---------------------------------------------------------------
 Warning -- This program may not be used in any manner that
 competes with the business of Gaussian, Inc. or will provide
 assistance to any competitor of Gaussian, Inc.  The licensee
 of this program is prohibited from giving any competitor of
 Gaussian, Inc. access to this program.  By using this program,
 the user acknowledges that Gaussian, Inc. is engaged in the
 business of creating and licensing software in the field of
 computational chemistry and represents and warrants to the
 licensee that it is not a competitor of Gaussian, Inc. and that
 it will not use this program in any manner prohibited above.
 ---------------------------------------------------------------
  

 Cite this work as:
 Gaussian 16, Revision A.03,
 M. J. Frisch, G. W. Trucks, H. B. Schlegel, G. E. Scuseria, 
 M. A. Robb, J. R. Cheeseman, G. Scalmani, V. Barone, 
 G. A. Petersson, H. Nakatsuji, X. Li, M. Caricato, A. V. Marenich, 
 J. Bloino, B. G. Janesko, R. Gomperts, B. Mennucci, H. P. Hratchian, 
 J. V. Ortiz, A. F. Izmaylov, J. L. Sonnenberg, D. Williams-Young, 
 F. Ding, F. Lipparini, F. Egidi, J. Goings, B. Peng, A. Petrone, 
 T. Henderson, D. Ranasinghe, V. G. Zakrzewski, J. Gao, N. Rega, 
 G. Zheng, W. Liang, M. Hada, M. Ehara, K. Toyota, R. Fukuda, 
 J. Hasegawa, M. Ishida, T. Nakajima, Y. Honda, O. Kitao, H. Nakai, 
 T. Vreven, K. Throssell, J. A. Montgomery, Jr., J. E. Peralta, 
 F. Ogliaro, M. J. Bearpark, J. J. Heyd, E. N. Brothers, K. N. Kudin, 
 V. N. Staroverov, T. A. Keith, R. Kobayashi, J. Normand, 
 K. Raghavachari, A. P. Rendell, J. C. Burant, S. S. Iyengar, 
 J. Tomasi, M. Cossi, J. M. Millam, M. Klene, C. Adamo, R. Cammi, 
 J. W. Ochterski, R. L. Martin, K. Morokuma, O. Farkas, 
 J. B. Foresman, and D. J. Fox, Gaussian, Inc., Wallingford CT, 2016.
 
 ******************************************
 Gaussian 16:  EM64L-G16RevA.03 25-Dec-2016
                23-Jan-2018 
 ******************************************
 %nprocshared=32
 Will use up to   32 processors via shared memory.
 %mem=32GB
 %chk=allatoms_t.chk
 ---------------------------------------
 #p wb97xd/cc-pvdz sp scf=(maxcycles=20)
 ---------------------------------------
 1/38=1,172=1/1;
 2/12=2,17=6,18=5,40=1/2;
 3/5=16,11=2,25=1,30=1,74=-58/1,2,3;
 4//1;
 5/5=2,7=20,38=5/2;
 6/7=2,8=2,9=2,10=2,28=1/1;
 99/5=1,9=1/99;
 Leave Link    1 at Tue Jan 23 08:13:41 2018, MaxMem=  4294967296 cpu:               2.7 elap:               0.1
 (Enter /share/apps/g16/l101.exe)
 ------------------
 Base pair stacking
 ------------------
 Symbolic Z-matrix:
 Charge =  0 Multiplicity = 1
 N                     9.90858   5.18456  -3.6312 
 C                     10.93582   6.24124  -3.71006 
 C                     8.08041   3.99771  -3.92525 
 N                     8.86683   3.28429  -3.03234 
 C                     9.93677   4.02788  -2.89092 
 H                     10.78534   3.77838  -2.25326 
 N                     6.31413   4.65911  -5.3415 
 C                     7.0403    5.7487   -5.61178 
 H                     6.58455   6.44997  -6.30947 
 N                     8.23929   6.10044  -5.15177 
 C                     8.70934   5.17121  -4.30324 
 C                     6.81471   3.74311  -4.48392 
 N                     6.09132   2.6548   -4.21286 
 H                     6.42256   1.95055  -3.58395 
 H                     5.19412   2.5064   -4.62897 
 H                     11.79231   5.85083  -4.04796 
 H                     10.62903   6.95949  -4.33386 
 H                     11.08516   6.63227  -2.80188 
 N                     3.43997   6.80041  -2.94802 
 C                     2.38289   5.95488  -3.18406 
 C                     3.44885   8.25212  -3.21847 
 N                    -0.86463   5.439    -4.30175 
 H                    -1.49969   4.67266  -4.39484 
 H                    -1.19232   6.33788  -4.59387 
 N                     1.18436   6.30539  -3.69856 
 C                     0.37111   5.26984  -3.80753 
 N                     0.70417   3.98827  -3.44124 
 H                     0.01866   3.25826  -3.56004 
 C                     1.93146   3.60469  -2.90974 
 O                     2.13047   2.42044  -2.61195 
 C                     2.81569   4.70645  -2.7867 
 N                     4.11828   4.76698  -2.31078 
 C                     4.44632   6.02534  -2.42535 
 H                     5.41307   6.44328  -2.14248 
 H                     4.17341   8.46658  -3.87256 
 H                     2.56612   8.52336  -3.59988 
 H                     3.61026   8.75044  -2.36733 
 H                    -3.59369  -0.01881  -4.99687 
 H                    -4.05083   0.061    -3.29707 
 H                    -3.34161   1.47038  -4.08575 
 H                    -0.25974  -2.89099  -3.05215 
 C                    -0.47129  -1.82701  -3.159 
 O                     1.73059  -1.14506  -2.59886 
 C                     0.57354  -0.87818  -2.92256 
 H                     0.91109   1.14032  -2.92655 
 N                     0.19976   0.44059  -3.085 
 O                    -1.27458   2.10142  -3.55948 
 C                    -1.03926   0.91184  -3.44035 
 H                    -2.51877  -2.07863  -3.69783 
 C                    -1.69011  -1.39802  -3.50693 
 C                    -3.33296   0.39184  -4.03279 
 N                    -1.99345  -0.06402  -3.65114 
 H                    -0.62868   3.96132  -9.08219 
 H                     0.08023   4.95366  -7.99831 
 H                    -1.42866   4.39358  -7.72698 
 H                     3.53847   0.01477  -4.37845 
 H                     2.08533  -0.57903  -5.04619 
 N                     2.71541   0.18788  -4.91952 
 C                     2.46813   1.38773  -5.44905 
 C                     1.20917   2.97342  -6.69898 
 N                     2.07315   3.98495  -6.51248 
 H                     3.85899   4.34787  -5.57458 
 C                     3.10711   3.58569  -5.77464 
 N                     3.3566    2.38441  -5.24335 
 H                    -1.44145   1.47354  -7.78375 
 C                    -0.49546   1.73655  -7.30955 
 N                     0.24252   0.90991  -6.60974 
 C                     1.32648   1.68146  -6.2167 
 C                    -0.5317    4.17113  -8.10927 
 N                     0.02952   3.0023   -7.40439 
 
 ITRead=  0  0  0  0  0  0  0  0  0  0  0  0  0  0  0  0  0  0  0  0
 ITRead=  0  0  0  0  0  0  0  0  0  0  0  0  0  0  0  0  0  0  0  0
 ITRead=  0  0  0  0  0  0  0  0  0  0  0  0  0  0  0  0  0  0  0  0
 ITRead=  0  0  0  0  0  0  0  0  0  0
 MicOpt= -1 -1 -1 -1 -1 -1 -1 -1 -1 -1 -1 -1 -1 -1 -1 -1 -1 -1 -1 -1
 MicOpt= -1 -1 -1 -1 -1 -1 -1 -1 -1 -1 -1 -1 -1 -1 -1 -1 -1 -1 -1 -1
 MicOpt= -1 -1 -1 -1 -1 -1 -1 -1 -1 -1 -1 -1 -1 -1 -1 -1 -1 -1 -1 -1
 MicOpt= -1 -1 -1 -1 -1 -1 -1 -1 -1 -1
 NAtoms=     70 NQM=       70 NQMF=       0 NMMI=      0 NMMIF=      0
                NMic=       0 NMicF=      0.
                    Isotopes and Nuclear Properties:
 (Nuclear quadrupole moments (NQMom) in fm**2, nuclear magnetic moments (NMagM)
  in nuclear magnetons)

  Atom         1           2           3           4           5           6           7           8           9          10
 IAtWgt=          14          12          12          14          12           1          14          12           1          14
 AtmWgt=  14.0030740  12.0000000  12.0000000  14.0030740  12.0000000   1.0078250  14.0030740  12.0000000   1.0078250  14.0030740
 NucSpn=           2           0           0           2           0           1           2           0           1           2
 AtZEff=  -0.0000000  -0.0000000  -0.0000000  -0.0000000  -0.0000000  -0.0000000  -0.0000000  -0.0000000  -0.0000000  -0.0000000
 NQMom=    2.0440000   0.0000000   0.0000000   2.0440000   0.0000000   0.0000000   2.0440000   0.0000000   0.0000000   2.0440000
 NMagM=    0.4037610   0.0000000   0.0000000   0.4037610   0.0000000   2.7928460   0.4037610   0.0000000   2.7928460   0.4037610
 AtZNuc=   7.0000000   6.0000000   6.0000000   7.0000000   6.0000000   1.0000000   7.0000000   6.0000000   1.0000000   7.0000000

  Atom        11          12          13          14          15          16          17          18          19          20
 IAtWgt=          12          12          14           1           1           1           1           1          14          12
 AtmWgt=  12.0000000  12.0000000  14.0030740   1.0078250   1.0078250   1.0078250   1.0078250   1.0078250  14.0030740  12.0000000
 NucSpn=           0           0           2           1           1           1           1           1           2           0
 AtZEff=  -0.0000000  -0.0000000  -0.0000000  -0.0000000  -0.0000000  -0.0000000  -0.0000000  -0.0000000  -0.0000000  -0.0000000
 NQMom=    0.0000000   0.0000000   2.0440000   0.0000000   0.0000000   0.0000000   0.0000000   0.0000000   2.0440000   0.0000000
 NMagM=    0.0000000   0.0000000   0.4037610   2.7928460   2.7928460   2.7928460   2.7928460   2.7928460   0.4037610   0.0000000
 AtZNuc=   6.0000000   6.0000000   7.0000000   1.0000000   1.0000000   1.0000000   1.0000000   1.0000000   7.0000000   6.0000000

  Atom        21          22          23          24          25          26          27          28          29          30
 IAtWgt=          12          14           1           1          14          12          14           1          12          16
 AtmWgt=  12.0000000  14.0030740   1.0078250   1.0078250  14.0030740  12.0000000  14.0030740   1.0078250  12.0000000  15.9949146
 NucSpn=           0           2           1           1           2           0           2           1           0           0
 AtZEff=  -0.0000000  -0.0000000  -0.0000000  -0.0000000  -0.0000000  -0.0000000  -0.0000000  -0.0000000  -0.0000000  -0.0000000
 NQMom=    0.0000000   2.0440000   0.0000000   0.0000000   2.0440000   0.0000000   2.0440000   0.0000000   0.0000000   0.0000000
 NMagM=    0.0000000   0.4037610   2.7928460   2.7928460   0.4037610   0.0000000   0.4037610   2.7928460   0.0000000   0.0000000
 AtZNuc=   6.0000000   7.0000000   1.0000000   1.0000000   7.0000000   6.0000000   7.0000000   1.0000000   6.0000000   8.0000000

  Atom        31          32          33          34          35          36          37          38          39          40
 IAtWgt=          12          14          12           1           1           1           1           1           1           1
 AtmWgt=  12.0000000  14.0030740  12.0000000   1.0078250   1.0078250   1.0078250   1.0078250   1.0078250   1.0078250   1.0078250
 NucSpn=           0           2           0           1           1           1           1           1           1           1
 AtZEff=  -0.0000000  -0.0000000  -0.0000000  -0.0000000  -0.0000000  -0.0000000  -0.0000000  -0.0000000  -0.0000000  -0.0000000
 NQMom=    0.0000000   2.0440000   0.0000000   0.0000000   0.0000000   0.0000000   0.0000000   0.0000000   0.0000000   0.0000000
 NMagM=    0.0000000   0.4037610   0.0000000   2.7928460   2.7928460   2.7928460   2.7928460   2.7928460   2.7928460   2.7928460
 AtZNuc=   6.0000000   7.0000000   6.0000000   1.0000000   1.0000000   1.0000000   1.0000000   1.0000000   1.0000000   1.0000000

  Atom        41          42          43          44          45          46          47          48          49          50
 IAtWgt=           1          12          16          12           1          14          16          12           1          12
 AtmWgt=   1.0078250  12.0000000  15.9949146  12.0000000   1.0078250  14.0030740  15.9949146  12.0000000   1.0078250  12.0000000
 NucSpn=           1           0           0           0           1           2           0           0           1           0
 AtZEff=  -0.0000000  -0.0000000  -0.0000000  -0.0000000  -0.0000000  -0.0000000  -0.0000000  -0.0000000  -0.0000000  -0.0000000
 NQMom=    0.0000000   0.0000000   0.0000000   0.0000000   0.0000000   2.0440000   0.0000000   0.0000000   0.0000000   0.0000000
 NMagM=    2.7928460   0.0000000   0.0000000   0.0000000   2.7928460   0.4037610   0.0000000   0.0000000   2.7928460   0.0000000
 AtZNuc=   1.0000000   6.0000000   8.0000000   6.0000000   1.0000000   7.0000000   8.0000000   6.0000000   1.0000000   6.0000000

  Atom        51          52          53          54          55          56          57          58          59          60
 IAtWgt=          12          14           1           1           1           1           1          14          12          12
 AtmWgt=  12.0000000  14.0030740   1.0078250   1.0078250   1.0078250   1.0078250   1.0078250  14.0030740  12.0000000  12.0000000
 NucSpn=           0           2           1           1           1           1           1           2           0           0
 AtZEff=  -0.0000000  -0.0000000  -0.0000000  -0.0000000  -0.0000000  -0.0000000  -0.0000000  -0.0000000  -0.0000000  -0.0000000
 NQMom=    0.0000000   2.0440000   0.0000000   0.0000000   0.0000000   0.0000000   0.0000000   2.0440000   0.0000000   0.0000000
 NMagM=    0.0000000   0.4037610   2.7928460   2.7928460   2.7928460   2.7928460   2.7928460   0.4037610   0.0000000   0.0000000
 AtZNuc=   6.0000000   7.0000000   1.0000000   1.0000000   1.0000000   1.0000000   1.0000000   7.0000000   6.0000000   6.0000000

  Atom        61          62          63          64          65          66          67          68          69          70
 IAtWgt=          14           1          12          14           1          12          14          12          12          14
 AtmWgt=  14.0030740   1.0078250  12.0000000  14.0030740   1.0078250  12.0000000  14.0030740  12.0000000  12.0000000  14.0030740
 NucSpn=           2           1           0           2           1           0           2           0           0           2
 AtZEff=  -0.0000000  -0.0000000  -0.0000000  -0.0000000  -0.0000000  -0.0000000  -0.0000000  -0.0000000  -0.0000000  -0.0000000
 NQMom=    2.0440000   0.0000000   0.0000000   2.0440000   0.0000000   0.0000000   2.0440000   0.0000000   0.0000000   2.0440000
 NMagM=    0.4037610   2.7928460   0.0000000   0.4037610   2.7928460   0.0000000   0.4037610   0.0000000   0.0000000   0.4037610
 AtZNuc=   7.0000000   1.0000000   6.0000000   7.0000000   1.0000000   6.0000000   7.0000000   6.0000000   6.0000000   7.0000000
 Leave Link  101 at Tue Jan 23 08:13:41 2018, MaxMem=  4294967296 cpu:               7.4 elap:               0.3
 (Enter /share/apps/g16/l202.exe)
 Stoichiometry    C23H27N17O3
 Framework group  C1[X(C23H27N17O3)]
 Deg. of freedom   204
 Full point group                 C1      NOp   1
 Largest Abelian subgroup         C1      NOp   1
 Largest concise Abelian subgroup C1      NOp   1
                         Standard orientation:                         
 ---------------------------------------------------------------------
 Center     Atomic      Atomic             Coordinates (Angstroms)
 Number     Number       Type             X           Y           Z
 ---------------------------------------------------------------------
      1          7           0       -7.221497   -1.337752    0.038026
      2          6           0       -8.599203   -0.813061    0.106150
      3          6           0       -5.044758   -1.574349    0.245661
      4          7           0       -5.495653   -2.702665   -0.423897
      5          6           0       -6.789022   -2.514967   -0.522194
      6          1           0       -7.481920   -3.209545   -0.997995
      7          7           0       -3.658856    0.014184    1.303394
      8          6           0       -4.768666    0.729419    1.513970
      9          1           0       -4.621524    1.672572    2.038441
     10          7           0       -6.027040    0.455806    1.175532
     11          6           0       -6.097108   -0.723925    0.536984
     12          6           0       -3.762663   -1.168221    0.658242
     13          7           0       -2.655955   -1.883624    0.447097
     14          1           0       -2.685727   -2.764649   -0.026322
     15          1           0       -1.759855   -1.563501    0.754771
     16          1           0       -9.177795   -1.456094    0.608058
     17          1           0       -8.597800    0.069244    0.575899
     18          1           0       -8.959466   -0.695489   -0.819260
     19          7           0       -2.156576    2.678627   -1.732823
     20          6           0       -0.824564    2.412364   -1.525694
     21          6           0       -2.779689    4.015952   -1.669774
     22          7           0        2.385788    3.518259   -0.796046
     23          1           0        3.295463    3.119514   -0.683187
     24          1           0        2.306920    4.508692   -0.679766
     25          7           0        0.131127    3.320399   -1.232153
     26          6           0        1.318997    2.759691   -1.090078
     27          7           0        1.555023    1.412964   -1.224757
     28          1           0        2.495786    1.072379   -1.098590
     29          6           0        0.586843    0.460349   -1.526452
     30          8           0        0.905140   -0.731108   -1.625697
     31          6           0       -0.694464    1.047656   -1.682011
     32          7           0       -1.920136    0.468785   -1.981244
     33          6           0       -2.755379    1.471875   -2.000861
     34          1           0       -3.823049    1.386989   -2.206215
     35          1           0       -3.483547    4.024442   -0.960319
     36          1           0       -2.081354    4.696825   -1.452983
     37          1           0       -3.193973    4.234430   -2.552639
     38          1           0        7.255187   -0.065882    0.281702
     39          1           0        7.526359   -0.117641   -1.458543
     40          1           0        6.324531    0.984834   -0.786590
     41          1           0        5.390769   -4.373868   -0.772704
     42          6           0        5.124316   -3.319395   -0.845586
     43          8           0        2.815249   -3.737282   -1.192956
     44          6           0        3.758326   -2.956212   -1.069238
     45          1           0        2.576910   -1.301485   -1.302550
     46          7           0        3.530129   -1.597019   -1.145225
     47          8           0        4.160832    0.584326   -1.111831
     48          6           0        4.459839   -0.594061   -1.030180
     49          1           0        7.106103   -2.587303   -0.558551
     50          6           0        6.053817   -2.363840   -0.729167
     51          6           0        6.782889    0.012227   -0.686233
     52          7           0        5.754599   -1.023931   -0.815649
     53          1           0        3.111423    2.988288    4.131875
     54          1           0        1.976025    3.374151    3.025498
     55          1           0        3.558378    3.457018    2.633898
     56          1           0        0.796229   -3.133248    0.634412
     57          1           0        2.401027   -2.930250    1.176173
     58          7           0        1.493509   -2.535117    1.029624
     59          6           0        1.226055   -1.266797    1.347464
     60          6           0        1.743767    0.900857    2.181111
     61          7           0        0.516009    1.404666    1.973213
     62          1           0       -1.303788    0.807286    1.243784
     63          6           0       -0.284404    0.480857    1.445193
     64          7           0       -0.018421   -0.789984    1.126125
     65          1           0        4.844189    0.875891    3.097035
     66          6           0        3.850807    0.626562    2.722916
     67          7           0        3.504591   -0.546524    2.252081
     68          6           0        2.170961   -0.386295    1.904956
     69          6           0        2.873072    2.954633    3.161280
     70          7           0        2.834237    1.550211    2.709531
 ---------------------------------------------------------------------
 Rotational constants (GHZ):           0.1422136           0.0482313           0.0440147
 Leave Link  202 at Tue Jan 23 08:13:42 2018, MaxMem=  4294967296 cpu:               0.3 elap:               0.0
 (Enter /share/apps/g16/l301.exe)
 Standard basis: CC-pVDZ (5D, 7F)
 Ernie: Thresh=  0.10000D-02 Tol=  0.10000D-05 Strict=F.
 Ernie:  86 primitive shells out of 1081 were deleted.
 There are   780 symmetry adapted cartesian basis functions of A   symmetry.
 There are   737 symmetry adapted basis functions of A   symmetry.
   737 basis functions,  1608 primitive gaussians,   780 cartesian basis functions
   154 alpha electrons      154 beta electrons
       nuclear repulsion energy      5382.5257510365 Hartrees.
 IExCor= 4639 DFT=T Ex+Corr=wB97XD ExCW=0 ScaHFX=  1.000000
 ScaDFX=  1.000000  1.000000  1.000000  1.000000 ScalE2=  1.000000  1.000000
 IRadAn=      5 IRanWt=     -1 IRanGd=            0 ICorTp=0 IEmpDi=121
 HFx  wShort=  0.000000 wLong=  0.200000 cFull=  0.222036 cShort=  0.000000 cLong=  0.777964
 DFx  wShort=  0.000000 wLong=  0.200000 cFull=  0.000000 cShort=  0.000000 cLong=  1.000000
 NAtoms=   70 NActive=   70 NUniq=   70 SFac= 1.00D+00 NAtFMM=   60 NAOKFM=T Big=T
 Integral buffers will be    131072 words long.
 Raffenetti 2 integral format.
 Two-electron integral symmetry is turned on.
 R6Disp:  Grimme-D2 Dispersion energy=       -0.0652165245 Hartrees.
 Nuclear repulsion after empirical dispersion term =     5382.4605345120 Hartrees.
 Leave Link  301 at Tue Jan 23 08:13:42 2018, MaxMem=  4294967296 cpu:               5.4 elap:               0.2
 (Enter /share/apps/g16/l302.exe)
 NPDir=0 NMtPBC=     1 NCelOv=     1 NCel=       1 NClECP=     1 NCelD=      1
         NCelK=      1 NCelE2=     1 NClLst=     1 CellRange=     0.0.
 One-electron integrals computed using PRISM.
 One-electron integral symmetry used in STVInt
 NBasis=   737 RedAO= T EigKep=  7.06D-04  NBF=   737
 NBsUse=   737 1.00D-06 EigRej= -1.00D+00 NBFU=   737
 Precomputing XC quadrature grid using
 IXCGrd= 4 IRadAn=           5 IRanWt=          -1 IRanGd=           0 AccXCQ= 0.00D+00.
 Generated NRdTot=       0 NPtTot=           0 NUsed=           0 NTot=          32
 NSgBfM=   755   754   755   755   755 MxSgAt=    70 MxSgA2=    70.
 Leave Link  302 at Tue Jan 23 08:13:46 2018, MaxMem=  4294967296 cpu:             133.1 elap:               4.2
 (Enter /share/apps/g16/l303.exe)
 DipDrv:  MaxL=1.
 Leave Link  303 at Tue Jan 23 08:13:46 2018, MaxMem=  4294967296 cpu:              12.3 elap:               0.4
 (Enter /share/apps/g16/l401.exe)
 ExpMin= 1.22D-01 ExpMax= 1.17D+04 ExpMxC= 4.01D+02 IAcc=3 IRadAn=         5 AccDes= 0.00D+00
 Harris functional with IExCor= 4639 and IRadAn=       5 diagonalized for initial guess.
 HarFok:  IExCor= 4639 AccDes= 0.00D+00 IRadAn=         5 IDoV= 1 UseB2=F ITyADJ=14
 ICtDFT=  3500011 ScaDFX=  1.000000  1.000000  1.000000  1.000000
 FoFCou: FMM=F IPFlag=           0 FMFlag=      100000 FMFlg1=        2001
         NFxFlg=           0 DoJE=T BraDBF=F KetDBF=T FulRan=T
         wScrn=  0.000000 ICntrl=       500 IOpCl=  0 I1Cent=   200000004 NGrid=           0
         NMat0=    1 NMatS0=      1 NMatT0=    0 NMatD0=    1 NMtDS0=    0 NMtDT0=    0
 Petite list used in FoFCou.
 Harris En= -1963.88243858184    
 JPrj=0 DoOrth=F DoCkMO=F.
 Leave Link  401 at Tue Jan 23 08:13:58 2018, MaxMem=  4294967296 cpu:             383.9 elap:              12.1
 (Enter /share/apps/g16/l502.exe)
 Integral symmetry usage will be decided dynamically.
 Closed shell SCF:
 Using DIIS extrapolation, IDIIS=  1040.
 NGot=  4294967296 LenX=  4293717438 LenY=  4293108258
 Requested convergence on RMS density matrix=1.00D-08 within  20 cycles.
 Requested convergence on MAX density matrix=1.00D-06.
 Requested convergence on             energy=1.00D-06.
 No special actions if energy rises.
 Fock matrices will be formed incrementally for  20 cycles.
 Integral accuracy reduced to 1.0D-05 until final iterations.

 Cycle   1  Pass 0  IDiag  1:
 FoFJK:  IHMeth= 1 ICntrl=       0 DoSepK=T KAlg= 0 I1Cent=           0 FoldK=F
 IRaf=         1 NMat=       1 IRICut=       1 DoRegI=T DoRafI=F ISym2E= 0 IDoP0=0 IntGTp=1.
 FoFCou: FMM=T IPFlag=           0 FMFlag=      100000 FMFlg1=        2001
         NFxFlg=           0 DoJE=T BraDBF=F KetDBF=F FulRan=T
         wScrn=  0.000000 ICntrl=       500 IOpCl=  0 I1Cent=           0 NGrid=           0
         NMat0=    1 NMatS0=      1 NMatT0=    0 NMatD0=    1 NMtDS0=    0 NMtDT0=    0
 Symmetry not used in FoFCou.
 FMM levels:  10  Number of levels for PrismC:   9
 E= -2048.31523637338    
 DIIS: error= 2.43D-02 at cycle   1 NSaved=   1.
 NSaved= 1 IEnMin= 1 EnMin= -2048.31523637338     IErMin= 1 ErrMin= 2.43D-02
 ErrMax= 2.43D-02  0.00D+00 EMaxC= 1.00D-01 BMatC= 8.31D-01 BMatP= 8.31D-01
 IDIUse=3 WtCom= 7.57D-01 WtEn= 2.43D-01
 Coeff-Com:  0.100D+01
 Coeff-En:   0.100D+01
 Coeff:      0.100D+01
 Gap=     0.255 Goal=   None    Shift=    0.000
 GapD=    0.255 DampG=1.000 DampE=0.500 DampFc=0.5000 IDamp=-1.
 Damping current iteration by 5.00D-01
 RMSDP=1.55D-03 MaxDP=1.30D-01              OVMax= 1.56D-01

 Cycle   2  Pass 0  IDiag  1:
 RMSU=  7.75D-04    CP:  9.98D-01
 E= -2048.51207176694     Delta-E=       -0.196835393559 Rises=F Damp=T
 DIIS: error= 1.37D-02 at cycle   2 NSaved=   2.
 NSaved= 2 IEnMin= 2 EnMin= -2048.51207176694     IErMin= 2 ErrMin= 1.37D-02
 ErrMax= 1.37D-02  0.00D+00 EMaxC= 1.00D-01 BMatC= 1.44D-01 BMatP= 8.31D-01
 IDIUse=3 WtCom= 8.63D-01 WtEn= 1.37D-01
 Coeff-Com: -0.199D+00 0.120D+01
 Coeff-En:   0.000D+00 0.100D+01
 Coeff:     -0.172D+00 0.117D+01
 Gap=     0.369 Goal=   None    Shift=    0.000
 RMSDP=5.78D-04 MaxDP=3.33D-02 DE=-1.97D-01 OVMax= 1.47D-01

 Cycle   3  Pass 0  IDiag  1:
 RMSU=  5.67D-04    CP:  9.94D-01  1.13D+00
 E= -2048.69191072822     Delta-E=       -0.179838961275 Rises=F Damp=F
 DIIS: error= 6.63D-03 at cycle   3 NSaved=   3.
 NSaved= 3 IEnMin= 3 EnMin= -2048.69191072822     IErMin= 3 ErrMin= 6.63D-03
 ErrMax= 6.63D-03  0.00D+00 EMaxC= 1.00D-01 BMatC= 6.12D-02 BMatP= 1.44D-01
 IDIUse=3 WtCom= 9.34D-01 WtEn= 6.63D-02
 Coeff-Com: -0.230D+00 0.545D+00 0.685D+00
 Coeff-En:   0.000D+00 0.000D+00 0.100D+01
 Coeff:     -0.215D+00 0.509D+00 0.706D+00
 Gap=     0.280 Goal=   None    Shift=    0.000
 RMSDP=3.48D-04 MaxDP=3.20D-02 DE=-1.80D-01 OVMax= 4.91D-02

 Cycle   4  Pass 0  IDiag  1:
 RMSU=  2.01D-04    CP:  9.95D-01  1.41D+00  6.78D-01
 E= -2048.73866106450     Delta-E=       -0.046750336284 Rises=F Damp=F
 DIIS: error= 2.69D-03 at cycle   4 NSaved=   4.
 NSaved= 4 IEnMin= 4 EnMin= -2048.73866106450     IErMin= 4 ErrMin= 2.69D-03
 ErrMax= 2.69D-03  0.00D+00 EMaxC= 1.00D-01 BMatC= 8.60D-03 BMatP= 6.12D-02
 IDIUse=3 WtCom= 9.73D-01 WtEn= 2.69D-02
 Coeff-Com: -0.963D-01 0.187D+00 0.377D+00 0.532D+00
 Coeff-En:   0.000D+00 0.000D+00 0.561D-01 0.944D+00
 Coeff:     -0.938D-01 0.182D+00 0.368D+00 0.544D+00
 Gap=     0.284 Goal=   None    Shift=    0.000
 RMSDP=1.24D-04 MaxDP=1.07D-02 DE=-4.68D-02 OVMax= 1.27D-02

 Cycle   5  Pass 0  IDiag  1:
 RMSU=  6.01D-05    CP:  9.94D-01  1.39D+00  8.08D-01  6.17D-01
 E= -2048.74578859259     Delta-E=       -0.007127528093 Rises=F Damp=F
 DIIS: error= 5.35D-04 at cycle   5 NSaved=   5.
 NSaved= 5 IEnMin= 5 EnMin= -2048.74578859259     IErMin= 5 ErrMin= 5.35D-04
 ErrMax= 5.35D-04  0.00D+00 EMaxC= 1.00D-01 BMatC= 2.98D-04 BMatP= 8.60D-03
 IDIUse=3 WtCom= 9.95D-01 WtEn= 5.35D-03
 Coeff-Com: -0.258D-01 0.445D-01 0.124D+00 0.244D+00 0.614D+00
 Coeff-En:   0.000D+00 0.000D+00 0.000D+00 0.000D+00 0.100D+01
 Coeff:     -0.257D-01 0.443D-01 0.123D+00 0.243D+00 0.616D+00
 Gap=     0.284 Goal=   None    Shift=    0.000
 RMSDP=2.65D-05 MaxDP=1.79D-03 DE=-7.13D-03 OVMax= 3.10D-03

 Failed to achieve initial convergence to 1.0D-08 in  6 cycles.
 Switch to full accuracy anyway.
 Cycle   6  Pass 1  IDiag  1:
 E= -2048.74592403796     Delta-E=       -0.000135445362 Rises=F Damp=F
 DIIS: error= 2.71D-04 at cycle   1 NSaved=   1.
 NSaved= 1 IEnMin= 1 EnMin= -2048.74592403796     IErMin= 1 ErrMin= 2.71D-04
 ErrMax= 2.71D-04  0.00D+00 EMaxC= 1.00D-01 BMatC= 6.54D-05 BMatP= 6.54D-05
 IDIUse=3 WtCom= 9.97D-01 WtEn= 2.71D-03
 Coeff-Com:  0.100D+01
 Coeff-En:   0.100D+01
 Coeff:      0.100D+01
 Gap=     0.284 Goal=   None    Shift=    0.000
 RMSDP=2.65D-05 MaxDP=1.79D-03 DE=-1.35D-04 OVMax= 2.13D-03

 Cycle   7  Pass 1  IDiag  1:
 RMSU=  9.45D-05    CP:  1.00D+00
 E= -2048.74597143664     Delta-E=       -0.000047398683 Rises=F Damp=F
 DIIS: error= 2.03D-04 at cycle   2 NSaved=   2.
 NSaved= 2 IEnMin= 2 EnMin= -2048.74597143664     IErMin= 2 ErrMin= 2.03D-04
 ErrMax= 2.03D-04  0.00D+00 EMaxC= 1.00D-01 BMatC= 4.07D-05 BMatP= 6.54D-05
 IDIUse=3 WtCom= 9.98D-01 WtEn= 2.03D-03
 Coeff-Com:  0.421D+00 0.579D+00
 Coeff-En:   0.000D+00 0.100D+01
 Coeff:      0.420D+00 0.580D+00
 Gap=     0.284 Goal=   None    Shift=    0.000
 RMSDP=1.09D-05 MaxDP=9.80D-04 DE=-4.74D-05 OVMax= 1.42D-03

 Cycle   8  Pass 1  IDiag  1:
 RMSU=  1.07D-05    CP:  1.00D+00  1.02D+00
 E= -2048.74600175152     Delta-E=       -0.000030314880 Rises=F Damp=F
 DIIS: error= 8.97D-05 at cycle   3 NSaved=   3.
 NSaved= 3 IEnMin= 3 EnMin= -2048.74600175152     IErMin= 3 ErrMin= 8.97D-05
 ErrMax= 8.97D-05  0.00D+00 EMaxC= 1.00D-01 BMatC= 8.51D-06 BMatP= 4.07D-05
 IDIUse=1 WtCom= 1.00D+00 WtEn= 0.00D+00
 Coeff-Com: -0.199D-01 0.298D+00 0.722D+00
 Coeff:     -0.199D-01 0.298D+00 0.722D+00
 Gap=     0.284 Goal=   None    Shift=    0.000
 RMSDP=5.26D-06 MaxDP=3.78D-04 DE=-3.03D-05 OVMax= 5.14D-04

 Cycle   9  Pass 1  IDiag  1:
 RMSU=  3.72D-06    CP:  1.00D+00  1.05D+00  7.80D-01
 E= -2048.74601001735     Delta-E=       -0.000008265833 Rises=F Damp=F
 DIIS: error= 2.22D-05 at cycle   4 NSaved=   4.
 NSaved= 4 IEnMin= 4 EnMin= -2048.74601001735     IErMin= 4 ErrMin= 2.22D-05
 ErrMax= 2.22D-05  0.00D+00 EMaxC= 1.00D-01 BMatC= 4.69D-07 BMatP= 8.51D-06
 IDIUse=1 WtCom= 1.00D+00 WtEn= 0.00D+00
 Coeff-Com: -0.341D-01 0.756D-01 0.263D+00 0.696D+00
 Coeff:     -0.341D-01 0.756D-01 0.263D+00 0.696D+00
 Gap=     0.284 Goal=   None    Shift=    0.000
 RMSDP=1.42D-06 MaxDP=1.25D-04 DE=-8.27D-06 OVMax= 4.22D-04

 Cycle  10  Pass 1  IDiag  1:
 RMSU=  1.24D-06    CP:  1.00D+00  1.06D+00  8.18D-01  1.12D+00
 E= -2048.74601083140     Delta-E=       -0.000000814047 Rises=F Damp=F
 DIIS: error= 1.28D-05 at cycle   5 NSaved=   5.
 NSaved= 5 IEnMin= 5 EnMin= -2048.74601083140     IErMin= 5 ErrMin= 1.28D-05
 ErrMax= 1.28D-05  0.00D+00 EMaxC= 1.00D-01 BMatC= 1.12D-07 BMatP= 4.69D-07
 IDIUse=1 WtCom= 1.00D+00 WtEn= 0.00D+00
 Coeff-Com: -0.375D-02-0.550D-01-0.124D+00 0.205D+00 0.977D+00
 Coeff:     -0.375D-02-0.550D-01-0.124D+00 0.205D+00 0.977D+00
 Gap=     0.284 Goal=   None    Shift=    0.000
 RMSDP=1.17D-06 MaxDP=7.68D-05 DE=-8.14D-07 OVMax= 2.10D-04

 Cycle  11  Pass 1  IDiag  1:
 RMSU=  4.59D-07    CP:  1.00D+00  1.06D+00  8.29D-01  1.40D+00  1.17D+00
 E= -2048.74601107322     Delta-E=       -0.000000241823 Rises=F Damp=F
 DIIS: error= 6.20D-06 at cycle   6 NSaved=   6.
 NSaved= 6 IEnMin= 6 EnMin= -2048.74601107322     IErMin= 6 ErrMin= 6.20D-06
 ErrMax= 6.20D-06  0.00D+00 EMaxC= 1.00D-01 BMatC= 2.59D-08 BMatP= 1.12D-07
 IDIUse=1 WtCom= 1.00D+00 WtEn= 0.00D+00
 Coeff-Com:  0.461D-02-0.416D-01-0.113D+00 0.252D-02 0.517D+00 0.630D+00
 Coeff:      0.461D-02-0.416D-01-0.113D+00 0.252D-02 0.517D+00 0.630D+00
 Gap=     0.284 Goal=   None    Shift=    0.000
 RMSDP=3.34D-07 MaxDP=3.45D-05 DE=-2.42D-07 OVMax= 1.00D-04

 Cycle  12  Pass 1  IDiag  1:
 RMSU=  1.71D-07    CP:  1.00D+00  1.06D+00  8.31D-01  1.46D+00  1.29D+00
                    CP:  9.25D-01
 E= -2048.74601110991     Delta-E=       -0.000000036686 Rises=F Damp=F
 DIIS: error= 9.69D-07 at cycle   7 NSaved=   7.
 NSaved= 7 IEnMin= 7 EnMin= -2048.74601110991     IErMin= 7 ErrMin= 9.69D-07
 ErrMax= 9.69D-07  0.00D+00 EMaxC= 1.00D-01 BMatC= 6.42D-10 BMatP= 2.59D-08
 IDIUse=1 WtCom= 1.00D+00 WtEn= 0.00D+00
 Coeff-Com:  0.902D-03-0.465D-02-0.143D-01-0.751D-02 0.302D-01 0.108D+00
 Coeff-Com:  0.887D+00
 Coeff:      0.902D-03-0.465D-02-0.143D-01-0.751D-02 0.302D-01 0.108D+00
 Coeff:      0.887D+00
 Gap=     0.284 Goal=   None    Shift=    0.000
 RMSDP=8.21D-08 MaxDP=5.25D-06 DE=-3.67D-08 OVMax= 2.01D-05

 Cycle  13  Pass 1  IDiag  1:
 RMSU=  4.74D-08    CP:  1.00D+00  1.06D+00  8.31D-01  1.47D+00  1.31D+00
                    CP:  1.02D+00  1.16D+00
 E= -2048.74601111094     Delta-E=       -0.000000001030 Rises=F Damp=F
 DIIS: error= 4.69D-07 at cycle   8 NSaved=   8.
 NSaved= 8 IEnMin= 8 EnMin= -2048.74601111094     IErMin= 8 ErrMin= 4.69D-07
 ErrMax= 4.69D-07  0.00D+00 EMaxC= 1.00D-01 BMatC= 2.69D-10 BMatP= 6.42D-10
 IDIUse=1 WtCom= 1.00D+00 WtEn= 0.00D+00
 Coeff-Com: -0.721D-03 0.839D-02 0.216D-01-0.224D-02-0.115D+00-0.103D+00
 Coeff-Com:  0.431D+00 0.760D+00
 Coeff:     -0.721D-03 0.839D-02 0.216D-01-0.224D-02-0.115D+00-0.103D+00
 Coeff:      0.431D+00 0.760D+00
 Gap=     0.284 Goal=   None    Shift=    0.000
 RMSDP=4.16D-08 MaxDP=2.41D-06 DE=-1.03D-09 OVMax= 8.59D-06

 Cycle  14  Pass 1  IDiag  1:
 RMSU=  2.41D-08    CP:  1.00D+00  1.06D+00  8.30D-01  1.48D+00  1.31D+00
                    CP:  1.06D+00  1.31D+00  1.09D+00
 E= -2048.74601111132     Delta-E=       -0.000000000384 Rises=F Damp=F
 DIIS: error= 1.29D-07 at cycle   9 NSaved=   9.
 NSaved= 9 IEnMin= 9 EnMin= -2048.74601111132     IErMin= 9 ErrMin= 1.29D-07
 ErrMax= 1.29D-07  0.00D+00 EMaxC= 1.00D-01 BMatC= 1.87D-11 BMatP= 2.69D-10
 IDIUse=1 WtCom= 1.00D+00 WtEn= 0.00D+00
 Coeff-Com: -0.351D-03 0.350D-02 0.923D-02-0.212D-04-0.446D-01-0.480D-01
 Coeff-Com:  0.740D-01 0.256D+00 0.750D+00
 Coeff:     -0.351D-03 0.350D-02 0.923D-02-0.212D-04-0.446D-01-0.480D-01
 Coeff:      0.740D-01 0.256D+00 0.750D+00
 Gap=     0.284 Goal=   None    Shift=    0.000
 RMSDP=1.16D-08 MaxDP=7.14D-07 DE=-3.84D-10 OVMax= 2.78D-06

 Cycle  15  Pass 1  IDiag  1:
 RMSU=  7.79D-09    CP:  1.00D+00  1.06D+00  8.30D-01  1.48D+00  1.31D+00
                    CP:  1.06D+00  1.33D+00  1.22D+00  1.12D+00
 E= -2048.74601111189     Delta-E=       -0.000000000571 Rises=F Damp=F
 DIIS: error= 6.45D-08 at cycle  10 NSaved=  10.
 NSaved=10 IEnMin=10 EnMin= -2048.74601111189     IErMin=10 ErrMin= 6.45D-08
 ErrMax= 6.45D-08  0.00D+00 EMaxC= 1.00D-01 BMatC= 4.43D-12 BMatP= 1.87D-11
 IDIUse=1 WtCom= 1.00D+00 WtEn= 0.00D+00
 Coeff-Com:  0.297D-04-0.565D-03-0.135D-02 0.228D-03 0.882D-02 0.496D-02
 Coeff-Com: -0.631D-01-0.803D-01 0.295D+00 0.836D+00
 Coeff:      0.297D-04-0.565D-03-0.135D-02 0.228D-03 0.882D-02 0.496D-02
 Coeff:     -0.631D-01-0.803D-01 0.295D+00 0.836D+00
 Gap=     0.284 Goal=   None    Shift=    0.000
 RMSDP=5.85D-09 MaxDP=3.71D-07 DE=-5.71D-10 OVMax= 1.13D-06

 SCF Done:  E(RwB97XD) =  -2048.74601111     A.U. after   15 cycles
            NFock= 15  Conv=0.58D-08     -V/T= 2.0054
 KE= 2.037697805572D+03 PE=-1.554611514689D+04 EE= 6.077210795692D+03
 Leave Link  502 at Tue Jan 23 08:24:35 2018, MaxMem=  4294967296 cpu:           19726.0 elap:             636.6
 (Enter /share/apps/g16/l601.exe)
 Copying SCF densities to generalized density rwf, IOpCl= 0 IROHF=0.

 **********************************************************************

            Population analysis using the SCF density.

 **********************************************************************

 Orbital symmetries:
       Occupied  (A) (A) (A) (A) (A) (A) (A) (A) (A) (A) (A) (A)
                 (A) (A) (A) (A) (A) (A) (A) (A) (A) (A) (A) (A)
                 (A) (A) (A) (A) (A) (A) (A) (A) (A) (A) (A) (A)
                 (A) (A) (A) (A) (A) (A) (A) (A) (A) (A) (A) (A)
                 (A) (A) (A) (A) (A) (A) (A) (A) (A) (A) (A) (A)
                 (A) (A) (A) (A) (A) (A) (A) (A) (A) (A) (A) (A)
                 (A) (A) (A) (A) (A) (A) (A) (A) (A) (A) (A) (A)
                 (A) (A) (A) (A) (A) (A) (A) (A) (A) (A) (A) (A)
                 (A) (A) (A) (A) (A) (A) (A) (A) (A) (A) (A) (A)
                 (A) (A) (A) (A) (A) (A) (A) (A) (A) (A) (A) (A)
                 (A) (A) (A) (A) (A) (A) (A) (A) (A) (A) (A) (A)
                 (A) (A) (A) (A) (A) (A) (A) (A) (A) (A) (A) (A)
                 (A) (A) (A) (A) (A) (A) (A) (A) (A) (A)
       Virtual   (A) (A) (A) (A) (A) (A) (A) (A) (A) (A) (A) (A)
                 (A) (A) (A) (A) (A) (A) (A) (A) (A) (A) (A) (A)
                 (A) (A) (A) (A) (A) (A) (A) (A) (A) (A) (A) (A)
                 (A) (A) (A) (A) (A) (A) (A) (A) (A) (A) (A) (A)
                 (A) (A) (A) (A) (A) (A) (A) (A) (A) (A) (A) (A)
                 (A) (A) (A) (A) (A) (A) (A) (A) (A) (A) (A) (A)
                 (A) (A) (A) (A) (A) (A) (A) (A) (A) (A) (A) (A)
                 (A) (A) (A) (A) (A) (A) (A) (A) (A) (A) (A) (A)
                 (A) (A) (A) (A) (A) (A) (A) (A) (A) (A) (A) (A)
                 (A) (A) (A) (A) (A) (A) (A) (A) (A) (A) (A) (A)
                 (A) (A) (A) (A) (A) (A) (A) (A) (A) (A) (A) (A)
                 (A) (A) (A) (A) (A) (A) (A) (A) (A) (A) (A) (A)
                 (A) (A) (A) (A) (A) (A) (A) (A) (A) (A) (A) (A)
                 (A) (A) (A) (A) (A) (A) (A) (A) (A) (A) (A) (A)
                 (A) (A) (A) (A) (A) (A) (A) (A) (A) (A) (A) (A)
                 (A) (A) (A) (A) (A) (A) (A) (A) (A) (A) (A) (A)
                 (A) (A) (A) (A) (A) (A) (A) (A) (A) (A) (A) (A)
                 (A) (A) (A) (A) (A) (A) (A) (A) (A) (A) (A) (A)
                 (A) (A) (A) (A) (A) (A) (A) (A) (A) (A) (A) (A)
                 (A) (A) (A) (A) (A) (A) (A) (A) (A) (A) (A) (A)
                 (A) (A) (A) (A) (A) (A) (A) (A) (A) (A) (A) (A)
                 (A) (A) (A) (A) (A) (A) (A) (A) (A) (A) (A) (A)
                 (A) (A) (A) (A) (A) (A) (A) (A) (A) (A) (A) (A)
                 (A) (A) (A) (A) (A) (A) (A) (A) (A) (A) (A) (A)
                 (A) (A) (A) (A) (A) (A) (A) (A) (A) (A) (A) (A)
                 (A) (A) (A) (A) (A) (A) (A) (A) (A) (A) (A) (A)
                 (A) (A) (A) (A) (A) (A) (A) (A) (A) (A) (A) (A)
                 (A) (A) (A) (A) (A) (A) (A) (A) (A) (A) (A) (A)
                 (A) (A) (A) (A) (A) (A) (A) (A) (A) (A) (A) (A)
                 (A) (A) (A) (A) (A) (A) (A) (A) (A) (A) (A) (A)
                 (A) (A) (A) (A) (A) (A) (A) (A) (A) (A) (A) (A)
                 (A) (A) (A) (A) (A) (A) (A) (A) (A) (A) (A) (A)
                 (A) (A) (A) (A) (A) (A) (A) (A) (A) (A) (A) (A)
                 (A) (A) (A) (A) (A) (A) (A) (A) (A) (A) (A) (A)
                 (A) (A) (A) (A) (A) (A) (A) (A) (A) (A) (A) (A)
                 (A) (A) (A) (A) (A) (A) (A) (A) (A) (A) (A) (A)
                 (A) (A) (A) (A) (A) (A) (A) (A) (A) (A) (A) (A)
                 (A) (A) (A) (A) (A) (A) (A) (A) (A) (A) (A) (A)
                 (A) (A) (A) (A) (A) (A) (A) (A) (A) (A) (A) (A)
                 (A) (A) (A) (A) (A) (A) (A) (A) (A) (A) (A) (A)
                 (A) (A) (A) (A) (A) (A) (A) (A) (A) (A) (A) (A)
                 (A) (A) (A) (A) (A) (A) (A) (A) (A) (A) (A) (A)
                 (A) (A) (A) (A) (A) (A) (A) (A) (A) (A) (A) (A)
                 (A) (A) (A) (A) (A) (A) (A) (A) (A) (A) (A) (A)
                 (A) (A) (A) (A) (A) (A) (A) (A) (A) (A) (A) (A)
                 (A) (A) (A) (A) (A) (A) (A) (A) (A) (A) (A) (A)
                 (A) (A) (A) (A) (A) (A) (A) (A) (A) (A) (A) (A)
                 (A) (A) (A) (A) (A) (A) (A) (A) (A) (A) (A) (A)
                 (A) (A) (A) (A) (A) (A) (A)
 The electronic state is 1-A.
 Alpha  occ. eigenvalues --  -19.26152 -19.22674 -19.20991 -14.52746 -14.50883
 Alpha  occ. eigenvalues --  -14.49062 -14.48950 -14.48286 -14.47381 -14.47353
 Alpha  occ. eigenvalues --  -14.45474 -14.43936 -14.42404 -14.42268 -14.42127
 Alpha  occ. eigenvalues --  -14.42071 -14.41739 -14.41105 -14.40991 -14.40320
 Alpha  occ. eigenvalues --  -10.45817 -10.41666 -10.40697 -10.38617 -10.38119
 Alpha  occ. eigenvalues --  -10.37680 -10.36474 -10.35643 -10.35551 -10.35353
 Alpha  occ. eigenvalues --  -10.34622 -10.34388 -10.33824 -10.33649 -10.33450
 Alpha  occ. eigenvalues --  -10.33281 -10.32744 -10.31392 -10.31194 -10.30952
 Alpha  occ. eigenvalues --  -10.30778 -10.28816 -10.28413  -1.19724  -1.13708
 Alpha  occ. eigenvalues --   -1.13656  -1.13464  -1.11649  -1.10853  -1.09651
 Alpha  occ. eigenvalues --   -1.09028  -1.07045  -1.05161  -1.02953  -1.02594
 Alpha  occ. eigenvalues --   -1.00551  -1.00306  -0.99261  -0.98866  -0.97197
 Alpha  occ. eigenvalues --   -0.96787  -0.94675  -0.92780  -0.91367  -0.85918
 Alpha  occ. eigenvalues --   -0.84407  -0.84334  -0.84194  -0.84018  -0.82679
 Alpha  occ. eigenvalues --   -0.82556  -0.79220  -0.75130  -0.74904  -0.74090
 Alpha  occ. eigenvalues --   -0.73757  -0.73097  -0.72844  -0.71265  -0.68482
 Alpha  occ. eigenvalues --   -0.67791  -0.66911  -0.66479  -0.64871  -0.64774
 Alpha  occ. eigenvalues --   -0.64063  -0.62998  -0.62897  -0.62242  -0.62155
 Alpha  occ. eigenvalues --   -0.60314  -0.59873  -0.59852  -0.58917  -0.58669
 Alpha  occ. eigenvalues --   -0.58397  -0.57796  -0.56792  -0.56656  -0.56607
 Alpha  occ. eigenvalues --   -0.56302  -0.55457  -0.54764  -0.54469  -0.53971
 Alpha  occ. eigenvalues --   -0.53736  -0.53639  -0.53217  -0.52819  -0.52321
 Alpha  occ. eigenvalues --   -0.52054  -0.51813  -0.51104  -0.50989  -0.50514
 Alpha  occ. eigenvalues --   -0.50370  -0.49828  -0.49293  -0.49230  -0.48982
 Alpha  occ. eigenvalues --   -0.48546  -0.48278  -0.47969  -0.47774  -0.47455
 Alpha  occ. eigenvalues --   -0.47156  -0.45322  -0.45061  -0.44369  -0.42876
 Alpha  occ. eigenvalues --   -0.41382  -0.39753  -0.39029  -0.37633  -0.37551
 Alpha  occ. eigenvalues --   -0.37393  -0.36388  -0.35906  -0.35709  -0.34886
 Alpha  occ. eigenvalues --   -0.33816  -0.33770  -0.33724  -0.33114  -0.32827
 Alpha  occ. eigenvalues --   -0.32508  -0.32315  -0.32188  -0.32013  -0.31221
 Alpha  occ. eigenvalues --   -0.30504  -0.27917  -0.25959  -0.25756
 Alpha virt. eigenvalues --    0.02671   0.05796   0.07776   0.08104   0.08663
 Alpha virt. eigenvalues --    0.09329   0.09399   0.10765   0.11575   0.12429
 Alpha virt. eigenvalues --    0.12741   0.13818   0.14380   0.14691   0.16092
 Alpha virt. eigenvalues --    0.16382   0.16481   0.16758   0.17568   0.17901
 Alpha virt. eigenvalues --    0.19048   0.19142   0.19656   0.20093   0.20521
 Alpha virt. eigenvalues --    0.20585   0.20697   0.21518   0.21991   0.22556
 Alpha virt. eigenvalues --    0.22840   0.23311   0.23334   0.23480   0.23789
 Alpha virt. eigenvalues --    0.23852   0.23890   0.24215   0.24824   0.25257
 Alpha virt. eigenvalues --    0.25977   0.26702   0.27013   0.27392   0.27747
 Alpha virt. eigenvalues --    0.28856   0.29328   0.29798   0.30797   0.31044
 Alpha virt. eigenvalues --    0.31214   0.31454   0.32965   0.33002   0.33722
 Alpha virt. eigenvalues --    0.34014   0.34516   0.35200   0.35725   0.36632
 Alpha virt. eigenvalues --    0.36931   0.37374   0.38455   0.39562   0.39768
 Alpha virt. eigenvalues --    0.40356   0.40747   0.41283   0.41292   0.41693
 Alpha virt. eigenvalues --    0.42460   0.42804   0.43723   0.44037   0.44107
 Alpha virt. eigenvalues --    0.45286   0.45582   0.46100   0.46142   0.47129
 Alpha virt. eigenvalues --    0.47467   0.48223   0.48537   0.49325   0.49607
 Alpha virt. eigenvalues --    0.49972   0.50061   0.50467   0.50880   0.51382
 Alpha virt. eigenvalues --    0.52020   0.52211   0.52622   0.52929   0.53439
 Alpha virt. eigenvalues --    0.53604   0.53926   0.54794   0.54978   0.55099
 Alpha virt. eigenvalues --    0.55584   0.55769   0.56294   0.56786   0.57527
 Alpha virt. eigenvalues --    0.57579   0.57973   0.58916   0.59196   0.59531
 Alpha virt. eigenvalues --    0.59694   0.60204   0.60646   0.61017   0.61266
 Alpha virt. eigenvalues --    0.61878   0.62120   0.62527   0.63007   0.63433
 Alpha virt. eigenvalues --    0.63992   0.64146   0.64169   0.65073   0.65141
 Alpha virt. eigenvalues --    0.65509   0.65692   0.66333   0.66671   0.66975
 Alpha virt. eigenvalues --    0.67449   0.67497   0.68023   0.68616   0.68970
 Alpha virt. eigenvalues --    0.69093   0.69801   0.70211   0.70296   0.70853
 Alpha virt. eigenvalues --    0.71066   0.71909   0.72306   0.72803   0.73406
 Alpha virt. eigenvalues --    0.73795   0.74391   0.74594   0.74970   0.75404
 Alpha virt. eigenvalues --    0.75744   0.76044   0.76227   0.76406   0.76667
 Alpha virt. eigenvalues --    0.77012   0.77394   0.77790   0.78009   0.78228
 Alpha virt. eigenvalues --    0.78643   0.79217   0.79593   0.80167   0.80328
 Alpha virt. eigenvalues --    0.81127   0.81428   0.82225   0.82761   0.83193
 Alpha virt. eigenvalues --    0.83447   0.83788   0.84053   0.84787   0.85132
 Alpha virt. eigenvalues --    0.85579   0.85726   0.86204   0.86883   0.87434
 Alpha virt. eigenvalues --    0.87747   0.88474   0.88604   0.89379   0.89625
 Alpha virt. eigenvalues --    0.90216   0.90494   0.91032   0.91294   0.91654
 Alpha virt. eigenvalues --    0.91961   0.92602   0.92929   0.93390   0.93839
 Alpha virt. eigenvalues --    0.93962   0.95469   0.95708   0.95821   0.96267
 Alpha virt. eigenvalues --    0.96468   0.96948   0.97898   0.98259   0.98487
 Alpha virt. eigenvalues --    0.98827   0.99319   1.00042   1.00723   1.01013
 Alpha virt. eigenvalues --    1.01720   1.02039   1.02252   1.02485   1.02720
 Alpha virt. eigenvalues --    1.03098   1.03772   1.03935   1.04316   1.04500
 Alpha virt. eigenvalues --    1.05190   1.05349   1.05896   1.06198   1.06882
 Alpha virt. eigenvalues --    1.07435   1.07866   1.08830   1.09768   1.10380
 Alpha virt. eigenvalues --    1.11363   1.11581   1.12039   1.12603   1.12938
 Alpha virt. eigenvalues --    1.13878   1.14031   1.14694   1.14773   1.15135
 Alpha virt. eigenvalues --    1.15709   1.16095   1.16861   1.17425   1.17962
 Alpha virt. eigenvalues --    1.18091   1.18458   1.18793   1.18986   1.19465
 Alpha virt. eigenvalues --    1.19890   1.19981   1.20548   1.20909   1.21454
 Alpha virt. eigenvalues --    1.21567   1.21997   1.22286   1.22362   1.22927
 Alpha virt. eigenvalues --    1.23264   1.23620   1.23956   1.24691   1.24835
 Alpha virt. eigenvalues --    1.25262   1.25832   1.26456   1.27526   1.28075
 Alpha virt. eigenvalues --    1.28457   1.29106   1.29396   1.29602   1.31728
 Alpha virt. eigenvalues --    1.31865   1.32334   1.32647   1.33117   1.34002
 Alpha virt. eigenvalues --    1.34328   1.35187   1.35584   1.35913   1.36411
 Alpha virt. eigenvalues --    1.37516   1.38141   1.38744   1.39377   1.40180
 Alpha virt. eigenvalues --    1.40703   1.41844   1.42250   1.44179   1.44602
 Alpha virt. eigenvalues --    1.44719   1.45061   1.46434   1.47395   1.47814
 Alpha virt. eigenvalues --    1.47988   1.48840   1.49031   1.49466   1.50476
 Alpha virt. eigenvalues --    1.50652   1.51412   1.52518   1.53698   1.54499
 Alpha virt. eigenvalues --    1.54888   1.55882   1.56054   1.56495   1.57438
 Alpha virt. eigenvalues --    1.58477   1.58779   1.59524   1.60087   1.60362
 Alpha virt. eigenvalues --    1.60965   1.61169   1.62144   1.62435   1.62579
 Alpha virt. eigenvalues --    1.63961   1.64629   1.65812   1.66494   1.66525
 Alpha virt. eigenvalues --    1.66850   1.67700   1.67797   1.68369   1.68503
 Alpha virt. eigenvalues --    1.69333   1.69755   1.70349   1.70643   1.71128
 Alpha virt. eigenvalues --    1.71507   1.72012   1.72212   1.72526   1.73138
 Alpha virt. eigenvalues --    1.73499   1.73920   1.73996   1.74745   1.74854
 Alpha virt. eigenvalues --    1.75079   1.75352   1.75735   1.76120   1.76764
 Alpha virt. eigenvalues --    1.77292   1.77499   1.77915   1.78376   1.78905
 Alpha virt. eigenvalues --    1.79437   1.79835   1.80016   1.80083   1.80411
 Alpha virt. eigenvalues --    1.80577   1.80610   1.81196   1.81513   1.81814
 Alpha virt. eigenvalues --    1.82232   1.82430   1.82800   1.82925   1.83904
 Alpha virt. eigenvalues --    1.84474   1.85222   1.85699   1.86235   1.86604
 Alpha virt. eigenvalues --    1.87129   1.87570   1.88037   1.88211   1.88738
 Alpha virt. eigenvalues --    1.88841   1.89301   1.89578   1.90154   1.90552
 Alpha virt. eigenvalues --    1.91209   1.91944   1.92706   1.93115   1.93289
 Alpha virt. eigenvalues --    1.93579   1.94753   1.95492   1.95715   1.96740
 Alpha virt. eigenvalues --    1.97749   1.98619   1.99471   1.99864   2.00774
 Alpha virt. eigenvalues --    2.01490   2.02007   2.02319   2.03323   2.03454
 Alpha virt. eigenvalues --    2.04081   2.05266   2.05899   2.06517   2.06844
 Alpha virt. eigenvalues --    2.07099   2.07950   2.08703   2.08746   2.09061
 Alpha virt. eigenvalues --    2.09724   2.10482   2.11005   2.11993   2.12221
 Alpha virt. eigenvalues --    2.12958   2.13797   2.14366   2.15477   2.17104
 Alpha virt. eigenvalues --    2.18558   2.19278   2.20176   2.20747   2.20764
 Alpha virt. eigenvalues --    2.21107   2.22046   2.22636   2.22921   2.23733
 Alpha virt. eigenvalues --    2.24093   2.24470   2.25128   2.26021   2.26749
 Alpha virt. eigenvalues --    2.27439   2.27891   2.28260   2.29209   2.29239
 Alpha virt. eigenvalues --    2.29804   2.30067   2.31014   2.31868   2.32027
 Alpha virt. eigenvalues --    2.32765   2.33541   2.33628   2.34075   2.34304
 Alpha virt. eigenvalues --    2.34620   2.35110   2.36075   2.36664   2.37080
 Alpha virt. eigenvalues --    2.37278   2.38676   2.39913   2.41527   2.41913
 Alpha virt. eigenvalues --    2.42205   2.42493   2.42699   2.43320   2.44533
 Alpha virt. eigenvalues --    2.44971   2.45774   2.45860   2.46479   2.47266
 Alpha virt. eigenvalues --    2.47694   2.48921   2.49534   2.50417   2.51371
 Alpha virt. eigenvalues --    2.52701   2.53446   2.54246   2.54476   2.55441
 Alpha virt. eigenvalues --    2.56471   2.56691   2.57114   2.58075   2.59992
 Alpha virt. eigenvalues --    2.60108   2.61004   2.61868   2.62284   2.62532
 Alpha virt. eigenvalues --    2.63772   2.64301   2.64654   2.64956   2.66363
 Alpha virt. eigenvalues --    2.67085   2.67537   2.68081   2.68666   2.69142
 Alpha virt. eigenvalues --    2.69672   2.70531   2.70906   2.71095   2.71633
 Alpha virt. eigenvalues --    2.73691   2.74234   2.74448   2.75190   2.75492
 Alpha virt. eigenvalues --    2.77297   2.78476   2.78889   2.79351   2.79716
 Alpha virt. eigenvalues --    2.79815   2.79957   2.80276   2.80894   2.81362
 Alpha virt. eigenvalues --    2.81780   2.82644   2.82733   2.82985   2.83896
 Alpha virt. eigenvalues --    2.84330   2.85341   2.86291   2.86332   2.87017
 Alpha virt. eigenvalues --    2.87414   2.88019   2.88782   2.90362   2.90861
 Alpha virt. eigenvalues --    2.93452   2.96418   2.96872   2.97214   2.99070
 Alpha virt. eigenvalues --    2.99850   3.00575   3.00912   3.04029   3.05650
 Alpha virt. eigenvalues --    3.06752   3.09680   3.10983   3.14130   3.14580
 Alpha virt. eigenvalues --    3.14886   3.15382   3.15655   3.17113   3.19651
 Alpha virt. eigenvalues --    3.21824   3.22707   3.23297   3.23513   3.25732
 Alpha virt. eigenvalues --    3.46826   3.47087   3.47285   3.49681   3.51107
 Alpha virt. eigenvalues --    3.53183   3.53950   3.55775   3.57444   3.59606
 Alpha virt. eigenvalues --    3.61962   3.70802   3.74153
          Condensed to atoms (all electrons):
 Mulliken charges:
               1
     1  N   -0.310585
     2  C    0.180858
     3  C    0.028676
     4  N   -0.257295
     5  C    0.132149
     6  H    0.027052
     7  N   -0.288725
     8  C    0.127940
     9  H    0.012635
    10  N   -0.288745
    11  C    0.237141
    12  C    0.115586
    13  N   -0.045891
    14  H    0.108235
    15  H    0.089873
    16  H    0.026385
    17  H    0.035353
    18  H    0.025204
    19  N   -0.310224
    20  C    0.250249
    21  C    0.181461
    22  N   -0.126114
    23  H    0.114387
    24  H    0.118172
    25  N   -0.303954
    26  C    0.242639
    27  N   -0.132491
    28  H    0.117468
    29  C    0.170227
    30  O   -0.324557
    31  C   -0.010803
    32  N   -0.222085
    33  C    0.132865
    34  H    0.031142
    35  H    0.031716
    36  H    0.028293
    37  H    0.024760
    38  H    0.060375
    39  H    0.061311
    40  H    0.073210
    41  H    0.032214
    42  C   -0.103216
    43  O   -0.281199
    44  C    0.154738
    45  H    0.137443
    46  N   -0.129757
    47  O   -0.353849
    48  C    0.368191
    49  H    0.049490
    50  C    0.180896
    51  C    0.041497
    52  N   -0.295463
    53  H    0.029958
    54  H    0.042963
    55  H    0.015852
    56  H    0.122977
    57  H    0.116263
    58  N   -0.034402
    59  C    0.099758
    60  C    0.243837
    61  N   -0.268674
    62  H    0.036557
    63  C    0.156444
    64  N   -0.300251
    65  H    0.024922
    66  C    0.129443
    67  N   -0.267481
    68  C    0.017017
    69  C    0.181464
    70  N   -0.311528
 Sum of Mulliken charges =  -0.00000
 Mulliken charges with hydrogens summed into heavy atoms:
               1
     1  N   -0.310585
     2  C    0.267800
     3  C    0.028676
     4  N   -0.257295
     5  C    0.159201
     7  N   -0.288725
     8  C    0.140575
    10  N   -0.288745
    11  C    0.237141
    12  C    0.115586
    13  N    0.152218
    19  N   -0.310224
    20  C    0.250249
    21  C    0.266231
    22  N    0.106446
    25  N   -0.303954
    26  C    0.242639
    27  N   -0.015023
    29  C    0.170227
    30  O   -0.324557
    31  C   -0.010803
    32  N   -0.222085
    33  C    0.164007
    42  C   -0.071003
    43  O   -0.281199
    44  C    0.154738
    46  N    0.007686
    47  O   -0.353849
    48  C    0.368191
    50  C    0.230387
    51  C    0.236392
    52  N   -0.295463
    58  N    0.204839
    59  C    0.099758
    60  C    0.243837
    61  N   -0.268674
    63  C    0.193001
    64  N   -0.300251
    66  C    0.154365
    67  N   -0.267481
    68  C    0.017017
    69  C    0.270237
    70  N   -0.311528
 Electronic spatial extent (au):  <R**2>=          24922.3664
 Charge=             -0.0000 electrons
 Dipole moment (field-independent basis, Debye):
    X=              7.9749    Y=              5.9330    Z=              1.4290  Tot=             10.0420
 Quadrupole moment (field-independent basis, Debye-Ang):
   XX=           -140.9881   YY=           -222.4254   ZZ=           -248.7992
   XY=              6.4886   XZ=             16.0926   YZ=             -3.8534
 Traceless Quadrupole moment (field-independent basis, Debye-Ang):
   XX=             63.0828   YY=            -18.3545   ZZ=            -44.7283
   XY=              6.4886   XZ=             16.0926   YZ=             -3.8534
 Octapole moment (field-independent basis, Debye-Ang**2):
  XXX=             78.2045  YYY=            114.9704  ZZZ=             18.4910  XYY=             53.3755
  XXY=            -46.2525  XXZ=            -81.1586  XZZ=             37.1794  YZZ=             50.9033
  YYZ=             24.9451  XYZ=             48.6472
 Hexadecapole moment (field-independent basis, Debye-Ang**3):
 XXXX=         -16296.9445 YYYY=          -5528.1478 ZZZZ=          -3383.3237 XXXY=            373.5751
 XXXZ=            329.9026 YYYX=             29.4588 YYYZ=            -85.7753 ZZZX=            131.0900
 ZZZY=            103.1397 XXYY=          -4338.5557 XXZZ=          -4429.7516 YYZZ=          -1509.3175
 XXYZ=             96.7909 YYXZ=            175.4682 ZZXY=             92.8399
 N-N= 5.382460534512D+03 E-N=-1.554611514188D+04  KE= 2.037697805572D+03
 No NMR shielding tensors so no spin-rotation constants.
 Leave Link  601 at Tue Jan 23 08:24:37 2018, MaxMem=  4294967296 cpu:              49.0 elap:               1.7
 (Enter /share/apps/g16/l9999.exe)
 1\1\GINC-COMPUTE-0-3\SP\RwB97XD\CC-pVDZ\C23H27N17O3\SATYA\23-Jan-2018\
 0\\#p wb97xd/cc-pvdz sp scf=(maxcycles=20)\\Base pair stacking\\0,1\N,
 0,9.90858,5.18456,-3.6312\C,0,10.93582,6.24124,-3.71006\C,0,8.08041,3.
 99771,-3.92525\N,0,8.86683,3.28429,-3.03234\C,0,9.93677,4.02788,-2.890
 92\H,0,10.78534,3.77838,-2.25326\N,0,6.31413,4.65911,-5.3415\C,0,7.040
 3,5.7487,-5.61178\H,0,6.58455,6.44997,-6.30947\N,0,8.23929,6.10044,-5.
 15177\C,0,8.70934,5.17121,-4.30324\C,0,6.81471,3.74311,-4.48392\N,0,6.
 09132,2.6548,-4.21286\H,0,6.42256,1.95055,-3.58395\H,0,5.19412,2.5064,
 -4.62897\H,0,11.79231,5.85083,-4.04796\H,0,10.62903,6.95949,-4.33386\H
 ,0,11.08516,6.63227,-2.80188\N,0,3.43997,6.80041,-2.94802\C,0,2.38289,
 5.95488,-3.18406\C,0,3.44885,8.25212,-3.21847\N,0,-0.86463,5.439,-4.30
 175\H,0,-1.49969,4.67266,-4.39484\H,0,-1.19232,6.33788,-4.59387\N,0,1.
 18436,6.30539,-3.69856\C,0,0.37111,5.26984,-3.80753\N,0,0.70417,3.9882
 7,-3.44124\H,0,0.01866,3.25826,-3.56004\C,0,1.93146,3.60469,-2.90974\O
 ,0,2.13047,2.42044,-2.61195\C,0,2.81569,4.70645,-2.7867\N,0,4.11828,4.
 76698,-2.31078\C,0,4.44632,6.02534,-2.42535\H,0,5.41307,6.44328,-2.142
 48\H,0,4.17341,8.46658,-3.87256\H,0,2.56612,8.52336,-3.59988\H,0,3.610
 26,8.75044,-2.36733\H,0,-3.59369,-0.01881,-4.99687\H,0,-4.05083,0.061,
 -3.29707\H,0,-3.34161,1.47038,-4.08575\H,0,-0.25974,-2.89099,-3.05215\
 C,0,-0.47129,-1.82701,-3.159\O,0,1.73059,-1.14506,-2.59886\C,0,0.57354
 ,-0.87818,-2.92256\H,0,0.91109,1.14032,-2.92655\N,0,0.19976,0.44059,-3
 .085\O,0,-1.27458,2.10142,-3.55948\C,0,-1.03926,0.91184,-3.44035\H,0,-
 2.51877,-2.07863,-3.69783\C,0,-1.69011,-1.39802,-3.50693\C,0,-3.33296,
 0.39184,-4.03279\N,0,-1.99345,-0.06402,-3.65114\H,0,-0.62868,3.96132,-
 9.08219\H,0,0.08023,4.95366,-7.99831\H,0,-1.42866,4.39358,-7.72698\H,0
 ,3.53847,0.01477,-4.37845\H,0,2.08533,-0.57903,-5.04619\N,0,2.71541,0.
 18788,-4.91952\C,0,2.46813,1.38773,-5.44905\C,0,1.20917,2.97342,-6.698
 98\N,0,2.07315,3.98495,-6.51248\H,0,3.85899,4.34787,-5.57458\C,0,3.107
 11,3.58569,-5.77464\N,0,3.3566,2.38441,-5.24335\H,0,-1.44145,1.47354,-
 7.78375\C,0,-0.49546,1.73655,-7.30955\N,0,0.24252,0.90991,-6.60974\C,0
 ,1.32648,1.68146,-6.2167\C,0,-0.5317,4.17113,-8.10927\N,0,0.02952,3.00
 23,-7.40439\\Version=EM64L-G16RevA.03\State=1-A\HF=-2048.7460111\RMSD=
 5.847e-09\Dipole=-3.7185221,0.6316959,-1.1758451\Quadrupole=35.8880726
 ,-4.1242838,-31.7637888,21.3540828,16.2118508,6.6872242\PG=C01 [X(C23H
 27N17O3)]\\@


 EDUCATION WITHOUT COMMON SENSE IS A LOAD OF BOOKS ON THE BACK OF AN ASS.
 Job cpu time:       0 days  5 hours 38 minutes 42.7 seconds.
 Elapsed time:       0 days  0 hours 10 minutes 55.6 seconds.
 File lengths (MBytes):  RWF=    298 Int=      0 D2E=      0 Chk=     33 Scr=      1
 Normal termination of Gaussian 16 at Tue Jan 23 08:24:37 2018.
