 Entering Gaussian System, Link 0=g16
 Input=str55.20.1.5.com
 Output=str55.20.1.5.log
 Initial command:
 /share/apps/g16/l1.exe "/state/partition1/scr/Gau-19522.inp" -scrdir="/state/partition1/scr/"
 Entering Link 1 = /share/apps/g16/l1.exe PID=     19523.
  
 Copyright (c) 1988,1990,1992,1993,1995,1998,2003,2009,2016,
            Gaussian, Inc.  All Rights Reserved.
  
 This is part of the Gaussian(R) 16 program.  It is based on
 the Gaussian(R) 09 system (copyright 2009, Gaussian, Inc.),
 the Gaussian(R) 03 system (copyright 2003, Gaussian, Inc.),
 the Gaussian(R) 98 system (copyright 1998, Gaussian, Inc.),
 the Gaussian(R) 94 system (copyright 1995, Gaussian, Inc.),
 the Gaussian 92(TM) system (copyright 1992, Gaussian, Inc.),
 the Gaussian 90(TM) system (copyright 1990, Gaussian, Inc.),
 the Gaussian 88(TM) system (copyright 1988, Gaussian, Inc.),
 the Gaussian 86(TM) system (copyright 1986, Carnegie Mellon
 University), and the Gaussian 82(TM) system (copyright 1983,
 Carnegie Mellon University). Gaussian is a federally registered
 trademark of Gaussian, Inc.
  
 This software contains proprietary and confidential information,
 including trade secrets, belonging to Gaussian, Inc.
  
 This software is provided under written license and may be
 used, copied, transmitted, or stored only in accord with that
 written license.
  
 The following legend is applicable only to US Government
 contracts under FAR:
  
                    RESTRICTED RIGHTS LEGEND
  
 Use, reproduction and disclosure by the US Government is
 subject to restrictions as set forth in subparagraphs (a)
 and (c) of the Commercial Computer Software - Restricted
 Rights clause in FAR 52.227-19.
  
 Gaussian, Inc.
 340 Quinnipiac St., Bldg. 40, Wallingford CT 06492
  
  
 ---------------------------------------------------------------
 Warning -- This program may not be used in any manner that
 competes with the business of Gaussian, Inc. or will provide
 assistance to any competitor of Gaussian, Inc.  The licensee
 of this program is prohibited from giving any competitor of
 Gaussian, Inc. access to this program.  By using this program,
 the user acknowledges that Gaussian, Inc. is engaged in the
 business of creating and licensing software in the field of
 computational chemistry and represents and warrants to the
 licensee that it is not a competitor of Gaussian, Inc. and that
 it will not use this program in any manner prohibited above.
 ---------------------------------------------------------------
  

 Cite this work as:
 Gaussian 16, Revision A.03,
 M. J. Frisch, G. W. Trucks, H. B. Schlegel, G. E. Scuseria, 
 M. A. Robb, J. R. Cheeseman, G. Scalmani, V. Barone, 
 G. A. Petersson, H. Nakatsuji, X. Li, M. Caricato, A. V. Marenich, 
 J. Bloino, B. G. Janesko, R. Gomperts, B. Mennucci, H. P. Hratchian, 
 J. V. Ortiz, A. F. Izmaylov, J. L. Sonnenberg, D. Williams-Young, 
 F. Ding, F. Lipparini, F. Egidi, J. Goings, B. Peng, A. Petrone, 
 T. Henderson, D. Ranasinghe, V. G. Zakrzewski, J. Gao, N. Rega, 
 G. Zheng, W. Liang, M. Hada, M. Ehara, K. Toyota, R. Fukuda, 
 J. Hasegawa, M. Ishida, T. Nakajima, Y. Honda, O. Kitao, H. Nakai, 
 T. Vreven, K. Throssell, J. A. Montgomery, Jr., J. E. Peralta, 
 F. Ogliaro, M. J. Bearpark, J. J. Heyd, E. N. Brothers, K. N. Kudin, 
 V. N. Staroverov, T. A. Keith, R. Kobayashi, J. Normand, 
 K. Raghavachari, A. P. Rendell, J. C. Burant, S. S. Iyengar, 
 J. Tomasi, M. Cossi, J. M. Millam, M. Klene, C. Adamo, R. Cammi, 
 J. W. Ochterski, R. L. Martin, K. Morokuma, O. Farkas, 
 J. B. Foresman, and D. J. Fox, Gaussian, Inc., Wallingford CT, 2016.
 
 ******************************************
 Gaussian 16:  EM64L-G16RevA.03 25-Dec-2016
                26-Jan-2018 
 ******************************************
 %nprocshared=32
 Will use up to   32 processors via shared memory.
 %mem=32GB
 %chk=allatoms_t.chk
 ---------------------------------------
 #p wb97xd/cc-pvdz sp scf=(maxcycles=20)
 ---------------------------------------
 1/38=1,172=1/1;
 2/12=2,17=6,18=5,40=1/2;
 3/5=16,11=2,25=1,30=1,74=-58/1,2,3;
 4//1;
 5/5=2,7=20,38=5/2;
 6/7=2,8=2,9=2,10=2,28=1/1;
 99/5=1,9=1/99;
 Leave Link    1 at Fri Jan 26 10:43:53 2018, MaxMem=  4294967296 cpu:               2.7 elap:               0.1
 (Enter /share/apps/g16/l101.exe)
 ------------------
 Base pair stacking
 ------------------
 Symbolic Z-matrix:
 Charge =  0 Multiplicity = 1
 N                     5.11313  -3.05121  -4.56798 
 C                     6.51506  -2.60537  -4.45033 
 C                     2.98247  -3.18501  -5.09682 
 N                     3.25619  -4.29132  -4.30569 
 C                     4.52888  -4.16643  -4.01875 
 H                     5.09749  -4.86541  -3.4047 
 N                     1.87354  -1.595    -6.44036 
 C                     3.04452  -0.95405  -6.51496 
 H                     3.03706  -0.03922  -7.10597 
 N                     4.21782  -1.27199  -5.97165 
 C                     4.11734  -2.41136  -5.26725 
 C                     1.80518  -2.7384   -5.72409 
 N                     0.63717  -3.37965  -5.64844 
 H                     0.54041  -4.22956  -5.12929 
 H                    -0.18052  -3.03258  -6.10786 
 H                     7.12206  -3.30832  -4.82125 
 H                     6.63933  -1.75546  -4.96154 
 H                     6.73769  -2.44914  -3.48802 
 N                     3.01382   2.49705  -3.02271 
 C                     1.77753   1.96038  -3.29033 
 C                     3.39401   3.90918  -3.22771 
 N                    -1.48764   2.34006  -4.41116 
 H                    -2.29651   1.7659   -4.53488 
 H                    -1.57369   3.30497  -4.66069 
 N                     0.71095   2.62756  -3.78159 
 C                    -0.33875   1.83948  -3.93224 
 N                    -0.34549   0.50023  -3.62583 
 H                    -1.19373  -0.02484  -3.77332 
 C                     0.74037  -0.20699  -3.11926 
 O                     0.62922  -1.41499  -2.87613 
 C                     1.87549   0.62632  -2.95199 
 N                     3.14769   0.33139  -2.48142 
 C                     3.78631   1.4684   -2.54125 
 H                     4.82598   1.61297  -2.24553 
 H                     4.1531    3.96104  -3.87571 
 H                     2.61181   4.41332  -3.59141 
 H                     3.67215   4.31115  -2.356 
 H                    -5.51362  -2.20492  -5.33487 
 H                    -5.94521  -2.08768  -3.63057 
 H                    -4.8956   -0.87166  -4.35925 
 H                    -3.03328  -5.9164   -3.54059 
 C                    -2.96602  -4.82995  -3.5983 
 O                    -0.66635  -4.75765  -3.02091 
 C                    -1.71525  -4.1904   -3.32556 
 H                    -0.87433  -2.32654  -3.24083 
 N                    -1.73958  -2.814    -3.42641 
 O                    -2.7391   -0.81264  -3.81721 
 C                    -2.81547  -2.02702  -3.753 
 H                    -5.00683  -4.52691  -4.13596 
 C                    -4.03319  -4.08928  -3.91951 
 C                    -5.16245  -1.91804  -4.35485 
 N                    -3.98563  -2.71694  -4.00187 
 H                    -4.19364   1.54927  -10.4385 
 H                    -3.2171    1.94329  -9.19222 
 H                    -4.83231   2.13409  -9.05519 
 H                    -2.8175   -4.45439  -6.29992 
 H                    -4.30616  -4.20129  -7.0936 
 N                    -3.40859  -3.84624  -6.82994 
 C                    -3.0182   -2.61629  -7.17051 
 C                    -3.26872  -0.48092  -8.18991 
 N                    -2.05779  -0.03064  -7.82204 
 H                    -0.40982  -0.67638  -6.7887 
 C                    -1.40519  -0.96049  -7.12749 
 N                    -1.79447  -2.19295  -6.78534 
 H                    -6.19035  -0.39947  -9.57179 
 C                    -5.28237  -0.67696  -9.03559 
 N                    -5.08462  -1.83483  -8.45428 
 C                    -3.81156  -1.72382  -7.91416 
 C                    -4.10747   1.56407  -9.44233 
 N                    -4.22438   0.19069  -8.91492 
 
 ITRead=  0  0  0  0  0  0  0  0  0  0  0  0  0  0  0  0  0  0  0  0
 ITRead=  0  0  0  0  0  0  0  0  0  0  0  0  0  0  0  0  0  0  0  0
 ITRead=  0  0  0  0  0  0  0  0  0  0  0  0  0  0  0  0  0  0  0  0
 ITRead=  0  0  0  0  0  0  0  0  0  0
 MicOpt= -1 -1 -1 -1 -1 -1 -1 -1 -1 -1 -1 -1 -1 -1 -1 -1 -1 -1 -1 -1
 MicOpt= -1 -1 -1 -1 -1 -1 -1 -1 -1 -1 -1 -1 -1 -1 -1 -1 -1 -1 -1 -1
 MicOpt= -1 -1 -1 -1 -1 -1 -1 -1 -1 -1 -1 -1 -1 -1 -1 -1 -1 -1 -1 -1
 MicOpt= -1 -1 -1 -1 -1 -1 -1 -1 -1 -1
 NAtoms=     70 NQM=       70 NQMF=       0 NMMI=      0 NMMIF=      0
                NMic=       0 NMicF=      0.
                    Isotopes and Nuclear Properties:
 (Nuclear quadrupole moments (NQMom) in fm**2, nuclear magnetic moments (NMagM)
  in nuclear magnetons)

  Atom         1           2           3           4           5           6           7           8           9          10
 IAtWgt=          14          12          12          14          12           1          14          12           1          14
 AtmWgt=  14.0030740  12.0000000  12.0000000  14.0030740  12.0000000   1.0078250  14.0030740  12.0000000   1.0078250  14.0030740
 NucSpn=           2           0           0           2           0           1           2           0           1           2
 AtZEff=  -0.0000000  -0.0000000  -0.0000000  -0.0000000  -0.0000000  -0.0000000  -0.0000000  -0.0000000  -0.0000000  -0.0000000
 NQMom=    2.0440000   0.0000000   0.0000000   2.0440000   0.0000000   0.0000000   2.0440000   0.0000000   0.0000000   2.0440000
 NMagM=    0.4037610   0.0000000   0.0000000   0.4037610   0.0000000   2.7928460   0.4037610   0.0000000   2.7928460   0.4037610
 AtZNuc=   7.0000000   6.0000000   6.0000000   7.0000000   6.0000000   1.0000000   7.0000000   6.0000000   1.0000000   7.0000000

  Atom        11          12          13          14          15          16          17          18          19          20
 IAtWgt=          12          12          14           1           1           1           1           1          14          12
 AtmWgt=  12.0000000  12.0000000  14.0030740   1.0078250   1.0078250   1.0078250   1.0078250   1.0078250  14.0030740  12.0000000
 NucSpn=           0           0           2           1           1           1           1           1           2           0
 AtZEff=  -0.0000000  -0.0000000  -0.0000000  -0.0000000  -0.0000000  -0.0000000  -0.0000000  -0.0000000  -0.0000000  -0.0000000
 NQMom=    0.0000000   0.0000000   2.0440000   0.0000000   0.0000000   0.0000000   0.0000000   0.0000000   2.0440000   0.0000000
 NMagM=    0.0000000   0.0000000   0.4037610   2.7928460   2.7928460   2.7928460   2.7928460   2.7928460   0.4037610   0.0000000
 AtZNuc=   6.0000000   6.0000000   7.0000000   1.0000000   1.0000000   1.0000000   1.0000000   1.0000000   7.0000000   6.0000000

  Atom        21          22          23          24          25          26          27          28          29          30
 IAtWgt=          12          14           1           1          14          12          14           1          12          16
 AtmWgt=  12.0000000  14.0030740   1.0078250   1.0078250  14.0030740  12.0000000  14.0030740   1.0078250  12.0000000  15.9949146
 NucSpn=           0           2           1           1           2           0           2           1           0           0
 AtZEff=  -0.0000000  -0.0000000  -0.0000000  -0.0000000  -0.0000000  -0.0000000  -0.0000000  -0.0000000  -0.0000000  -0.0000000
 NQMom=    0.0000000   2.0440000   0.0000000   0.0000000   2.0440000   0.0000000   2.0440000   0.0000000   0.0000000   0.0000000
 NMagM=    0.0000000   0.4037610   2.7928460   2.7928460   0.4037610   0.0000000   0.4037610   2.7928460   0.0000000   0.0000000
 AtZNuc=   6.0000000   7.0000000   1.0000000   1.0000000   7.0000000   6.0000000   7.0000000   1.0000000   6.0000000   8.0000000

  Atom        31          32          33          34          35          36          37          38          39          40
 IAtWgt=          12          14          12           1           1           1           1           1           1           1
 AtmWgt=  12.0000000  14.0030740  12.0000000   1.0078250   1.0078250   1.0078250   1.0078250   1.0078250   1.0078250   1.0078250
 NucSpn=           0           2           0           1           1           1           1           1           1           1
 AtZEff=  -0.0000000  -0.0000000  -0.0000000  -0.0000000  -0.0000000  -0.0000000  -0.0000000  -0.0000000  -0.0000000  -0.0000000
 NQMom=    0.0000000   2.0440000   0.0000000   0.0000000   0.0000000   0.0000000   0.0000000   0.0000000   0.0000000   0.0000000
 NMagM=    0.0000000   0.4037610   0.0000000   2.7928460   2.7928460   2.7928460   2.7928460   2.7928460   2.7928460   2.7928460
 AtZNuc=   6.0000000   7.0000000   6.0000000   1.0000000   1.0000000   1.0000000   1.0000000   1.0000000   1.0000000   1.0000000

  Atom        41          42          43          44          45          46          47          48          49          50
 IAtWgt=           1          12          16          12           1          14          16          12           1          12
 AtmWgt=   1.0078250  12.0000000  15.9949146  12.0000000   1.0078250  14.0030740  15.9949146  12.0000000   1.0078250  12.0000000
 NucSpn=           1           0           0           0           1           2           0           0           1           0
 AtZEff=  -0.0000000  -0.0000000  -0.0000000  -0.0000000  -0.0000000  -0.0000000  -0.0000000  -0.0000000  -0.0000000  -0.0000000
 NQMom=    0.0000000   0.0000000   0.0000000   0.0000000   0.0000000   2.0440000   0.0000000   0.0000000   0.0000000   0.0000000
 NMagM=    2.7928460   0.0000000   0.0000000   0.0000000   2.7928460   0.4037610   0.0000000   0.0000000   2.7928460   0.0000000
 AtZNuc=   1.0000000   6.0000000   8.0000000   6.0000000   1.0000000   7.0000000   8.0000000   6.0000000   1.0000000   6.0000000

  Atom        51          52          53          54          55          56          57          58          59          60
 IAtWgt=          12          14           1           1           1           1           1          14          12          12
 AtmWgt=  12.0000000  14.0030740   1.0078250   1.0078250   1.0078250   1.0078250   1.0078250  14.0030740  12.0000000  12.0000000
 NucSpn=           0           2           1           1           1           1           1           2           0           0
 AtZEff=  -0.0000000  -0.0000000  -0.0000000  -0.0000000  -0.0000000  -0.0000000  -0.0000000  -0.0000000  -0.0000000  -0.0000000
 NQMom=    0.0000000   2.0440000   0.0000000   0.0000000   0.0000000   0.0000000   0.0000000   2.0440000   0.0000000   0.0000000
 NMagM=    0.0000000   0.4037610   2.7928460   2.7928460   2.7928460   2.7928460   2.7928460   0.4037610   0.0000000   0.0000000
 AtZNuc=   6.0000000   7.0000000   1.0000000   1.0000000   1.0000000   1.0000000   1.0000000   7.0000000   6.0000000   6.0000000

  Atom        61          62          63          64          65          66          67          68          69          70
 IAtWgt=          14           1          12          14           1          12          14          12          12          14
 AtmWgt=  14.0030740   1.0078250  12.0000000  14.0030740   1.0078250  12.0000000  14.0030740  12.0000000  12.0000000  14.0030740
 NucSpn=           2           1           0           2           1           0           2           0           0           2
 AtZEff=  -0.0000000  -0.0000000  -0.0000000  -0.0000000  -0.0000000  -0.0000000  -0.0000000  -0.0000000  -0.0000000  -0.0000000
 NQMom=    2.0440000   0.0000000   0.0000000   2.0440000   0.0000000   0.0000000   2.0440000   0.0000000   0.0000000   2.0440000
 NMagM=    0.4037610   2.7928460   0.0000000   0.4037610   2.7928460   0.0000000   0.4037610   0.0000000   0.0000000   0.4037610
 AtZNuc=   7.0000000   1.0000000   6.0000000   7.0000000   1.0000000   6.0000000   7.0000000   6.0000000   6.0000000   7.0000000
 Leave Link  101 at Fri Jan 26 10:43:53 2018, MaxMem=  4294967296 cpu:               7.5 elap:               0.3
 (Enter /share/apps/g16/l202.exe)
 Stoichiometry    C23H27N17O3
 Framework group  C1[X(C23H27N17O3)]
 Deg. of freedom   204
 Full point group                 C1      NOp   1
 Largest Abelian subgroup         C1      NOp   1
 Largest concise Abelian subgroup C1      NOp   1
                         Standard orientation:                         
 ---------------------------------------------------------------------
 Center     Atomic      Atomic             Coordinates (Angstroms)
 Number     Number       Type             X           Y           Z
 ---------------------------------------------------------------------
      1          7           0       -4.960110   -2.259385    1.538976
      2          6           0       -6.353517   -1.933695    1.900040
      3          6           0       -2.776988   -2.181739    1.283566
      4          7           0       -3.192601   -3.374802    0.710331
      5          6           0       -4.491218   -3.373828    0.887152
      6          1           0       -5.162210   -4.168204    0.559000
      7          7           0       -1.441106   -0.393654    2.045885
      8          6           0       -2.572660    0.161183    2.492335
      9          1           0       -2.454914    1.125298    2.985164
     10          7           0       -3.821963   -0.293967    2.421725
     11          6           0       -3.855310   -1.483461    1.798482
     12          6           0       -1.508094   -1.590687    1.423225
     13          7           0       -0.379641   -2.146145    0.976869
     14          1           0       -0.382007   -3.031207    0.510088
     15          1           0        0.506113   -1.696795    1.093772
     16          1           0       -6.717059   -2.642633    2.504534
     17          1           0       -6.379546   -1.051454    2.369187
     18          1           0       -6.912073   -1.885572    1.071963
     19          7           0       -4.117487    3.262342   -0.986626
     20          6           0       -2.816794    2.848021   -1.143419
     21          6           0       -4.546856    4.654699   -0.746495
     22          7           0        0.576148    3.576567   -1.280961
     23          1           0        1.432411    3.079265   -1.417864
     24          1           0        0.643076    4.564342   -1.137633
     25          7           0       -1.721268    3.636936   -1.104756
     26          6           0       -0.609055    2.947981   -1.289038
     27          7           0       -0.570492    1.590266   -1.495549
     28          1           0        0.325632    1.146898   -1.627259
     29          6           0       -1.685157    0.758712   -1.539201
     30          8           0       -1.540904   -0.454892   -1.731781
     31          6           0       -2.887434    1.484559   -1.342838
     32          7           0       -4.205954    1.051597   -1.311868
     33          6           0       -4.898095    2.137714   -1.098565
     34          1           0       -5.984698    2.175002   -1.013910
     35          1           0       -5.033969    4.709558    0.124436
     36          1           0       -3.743777    5.248329   -0.715854
     37          1           0       -5.151092    4.951072   -1.485334
     38          1           0        5.120202   -0.544761   -1.572215
     39          1           0        4.917002   -0.555446   -3.322429
     40          1           0        4.066522    0.640728   -2.344057
     41          1           0        2.569738   -4.584709   -2.138400
     42          6           0        2.414454   -3.505828   -2.126953
     43          8           0        0.063344   -3.661841   -1.853041
     44          6           0        1.087816   -2.990949   -1.976069
     45          1           0        0.081477   -1.212087   -1.870088
     46          7           0        1.002805   -1.613265   -1.974605
     47          8           0        1.862487    0.485656   -2.087218
     48          6           0        2.037267   -0.720146   -2.100159
     49          1           0        4.471616   -3.000476   -2.368868
     50          6           0        3.443723   -2.659844   -2.251604
     51          6           0        4.422165   -0.378305   -2.379120
     52          7           0        3.285717   -1.293354   -2.241602
     53          1           0        5.277167    3.560593    3.428262
     54          1           0        3.892676    3.761231    2.588604
     55          1           0        5.330121    4.059803    1.875379
     56          1           0        3.177383   -2.891108    0.422932
     57          1           0        4.814379   -2.453051    0.619014
     58          7           0        3.849497   -2.193076    0.670257
     59          6           0        3.476706   -0.969644    1.051583
     60          6           0        3.843401    1.264634    1.783210
     61          7           0        2.540407    1.585715    1.842752
     62          1           0        0.712298    0.723386    1.503662
     63          6           0        1.787091    0.548262    1.483430
     64          7           0        2.158559   -0.677894    1.101178
     65          1           0        7.038051    1.695627    2.029399
     66          6           0        6.034231    1.301339    1.868706
     67          7           0        5.767775    0.082486    1.467347
     68          6           0        4.382137    0.045933    1.408984
     69          6           0        4.848640    3.475448    2.528754
     70          7           0        4.916475    2.071468    2.079044
 ---------------------------------------------------------------------
 Rotational constants (GHZ):           0.1090878           0.0588928           0.0512666
 Leave Link  202 at Fri Jan 26 10:43:54 2018, MaxMem=  4294967296 cpu:               4.6 elap:               0.2
 (Enter /share/apps/g16/l301.exe)
 Standard basis: CC-pVDZ (5D, 7F)
 Ernie: Thresh=  0.10000D-02 Tol=  0.10000D-05 Strict=F.
 Ernie:  86 primitive shells out of 1081 were deleted.
 There are   780 symmetry adapted cartesian basis functions of A   symmetry.
 There are   737 symmetry adapted basis functions of A   symmetry.
   737 basis functions,  1608 primitive gaussians,   780 cartesian basis functions
   154 alpha electrons      154 beta electrons
       nuclear repulsion energy      5399.0584976427 Hartrees.
 IExCor= 4639 DFT=T Ex+Corr=wB97XD ExCW=0 ScaHFX=  1.000000
 ScaDFX=  1.000000  1.000000  1.000000  1.000000 ScalE2=  1.000000  1.000000
 IRadAn=      5 IRanWt=     -1 IRanGd=            0 ICorTp=0 IEmpDi=121
 HFx  wShort=  0.000000 wLong=  0.200000 cFull=  0.222036 cShort=  0.000000 cLong=  0.777964
 DFx  wShort=  0.000000 wLong=  0.200000 cFull=  0.000000 cShort=  0.000000 cLong=  1.000000
 NAtoms=   70 NActive=   70 NUniq=   70 SFac= 1.00D+00 NAtFMM=   60 NAOKFM=T Big=T
 Integral buffers will be    131072 words long.
 Raffenetti 2 integral format.
 Two-electron integral symmetry is turned on.
 R6Disp:  Grimme-D2 Dispersion energy=       -0.0630730575 Hartrees.
 Nuclear repulsion after empirical dispersion term =     5398.9954245852 Hartrees.
 Leave Link  301 at Fri Jan 26 10:43:54 2018, MaxMem=  4294967296 cpu:               5.4 elap:               0.2
 (Enter /share/apps/g16/l302.exe)
 NPDir=0 NMtPBC=     1 NCelOv=     1 NCel=       1 NClECP=     1 NCelD=      1
         NCelK=      1 NCelE2=     1 NClLst=     1 CellRange=     0.0.
 One-electron integrals computed using PRISM.
 One-electron integral symmetry used in STVInt
 NBasis=   737 RedAO= T EigKep=  7.33D-04  NBF=   737
 NBsUse=   737 1.00D-06 EigRej= -1.00D+00 NBFU=   737
 Precomputing XC quadrature grid using
 IXCGrd= 4 IRadAn=           5 IRanWt=          -1 IRanGd=           0 AccXCQ= 0.00D+00.
 Generated NRdTot=       0 NPtTot=           0 NUsed=           0 NTot=          32
 NSgBfM=   764   760   760   760   764 MxSgAt=    70 MxSgA2=    70.
 Leave Link  302 at Fri Jan 26 10:43:58 2018, MaxMem=  4294967296 cpu:             134.6 elap:               4.2
 (Enter /share/apps/g16/l303.exe)
 DipDrv:  MaxL=1.
 Leave Link  303 at Fri Jan 26 10:43:59 2018, MaxMem=  4294967296 cpu:              12.5 elap:               0.4
 (Enter /share/apps/g16/l401.exe)
 ExpMin= 1.22D-01 ExpMax= 1.17D+04 ExpMxC= 4.01D+02 IAcc=3 IRadAn=         5 AccDes= 0.00D+00
 Harris functional with IExCor= 4639 and IRadAn=       5 diagonalized for initial guess.
 HarFok:  IExCor= 4639 AccDes= 0.00D+00 IRadAn=         5 IDoV= 1 UseB2=F ITyADJ=14
 ICtDFT=  3500011 ScaDFX=  1.000000  1.000000  1.000000  1.000000
 FoFCou: FMM=F IPFlag=           0 FMFlag=      100000 FMFlg1=        2001
         NFxFlg=           0 DoJE=T BraDBF=F KetDBF=T FulRan=T
         wScrn=  0.000000 ICntrl=       500 IOpCl=  0 I1Cent=   200000004 NGrid=           0
         NMat0=    1 NMatS0=      1 NMatT0=    0 NMatD0=    1 NMtDS0=    0 NMtDT0=    0
 Petite list used in FoFCou.
 Harris En= -1963.88472421943    
 JPrj=0 DoOrth=F DoCkMO=F.
 Leave Link  401 at Fri Jan 26 10:44:11 2018, MaxMem=  4294967296 cpu:             385.2 elap:              12.1
 (Enter /share/apps/g16/l502.exe)
 Integral symmetry usage will be decided dynamically.
 Closed shell SCF:
 Using DIIS extrapolation, IDIIS=  1040.
 NGot=  4294967296 LenX=  4293717438 LenY=  4293108258
 Requested convergence on RMS density matrix=1.00D-08 within  20 cycles.
 Requested convergence on MAX density matrix=1.00D-06.
 Requested convergence on             energy=1.00D-06.
 No special actions if energy rises.
 Fock matrices will be formed incrementally for  20 cycles.
 Integral accuracy reduced to 1.0D-05 until final iterations.

 Cycle   1  Pass 0  IDiag  1:
 FoFJK:  IHMeth= 1 ICntrl=       0 DoSepK=T KAlg= 0 I1Cent=           0 FoldK=F
 IRaf=         1 NMat=       1 IRICut=       1 DoRegI=T DoRafI=F ISym2E= 0 IDoP0=0 IntGTp=1.
 FoFCou: FMM=T IPFlag=           0 FMFlag=      100000 FMFlg1=        2001
         NFxFlg=           0 DoJE=T BraDBF=F KetDBF=F FulRan=T
         wScrn=  0.000000 ICntrl=       500 IOpCl=  0 I1Cent=           0 NGrid=           0
         NMat0=    1 NMatS0=      1 NMatT0=    0 NMatD0=    1 NMtDS0=    0 NMtDT0=    0
 Symmetry not used in FoFCou.
 FMM levels:  10  Number of levels for PrismC:   9
 E= -2048.31228174522    
 DIIS: error= 2.73D-02 at cycle   1 NSaved=   1.
 NSaved= 1 IEnMin= 1 EnMin= -2048.31228174522     IErMin= 1 ErrMin= 2.73D-02
 ErrMax= 2.73D-02  0.00D+00 EMaxC= 1.00D-01 BMatC= 8.30D-01 BMatP= 8.30D-01
 IDIUse=3 WtCom= 7.27D-01 WtEn= 2.73D-01
 Coeff-Com:  0.100D+01
 Coeff-En:   0.100D+01
 Coeff:      0.100D+01
 Gap=     0.249 Goal=   None    Shift=    0.000
 GapD=    0.249 DampG=1.000 DampE=0.500 DampFc=0.5000 IDamp=-1.
 Damping current iteration by 5.00D-01
 RMSDP=1.54D-03 MaxDP=1.30D-01              OVMax= 1.90D-01

 Cycle   2  Pass 0  IDiag  1:
 RMSU=  7.71D-04    CP:  9.98D-01
 E= -2048.51004936124     Delta-E=       -0.197767616017 Rises=F Damp=T
 DIIS: error= 1.53D-02 at cycle   2 NSaved=   2.
 NSaved= 2 IEnMin= 2 EnMin= -2048.51004936124     IErMin= 2 ErrMin= 1.53D-02
 ErrMax= 1.53D-02  0.00D+00 EMaxC= 1.00D-01 BMatC= 1.44D-01 BMatP= 8.30D-01
 IDIUse=3 WtCom= 8.47D-01 WtEn= 1.53D-01
 Coeff-Com: -0.205D+00 0.120D+01
 Coeff-En:   0.000D+00 0.100D+01
 Coeff:     -0.173D+00 0.117D+01
 Gap=     0.296 Goal=   None    Shift=    0.000
 RMSDP=5.73D-04 MaxDP=3.52D-02 DE=-1.98D-01 OVMax= 1.57D-01

 Cycle   3  Pass 0  IDiag  1:
 RMSU=  5.58D-04    CP:  9.94D-01  1.16D+00
 E= -2048.69151761938     Delta-E=       -0.181468258134 Rises=F Damp=F
 DIIS: error= 7.66D-03 at cycle   3 NSaved=   3.
 NSaved= 3 IEnMin= 3 EnMin= -2048.69151761938     IErMin= 3 ErrMin= 7.66D-03
 ErrMax= 7.66D-03  0.00D+00 EMaxC= 1.00D-01 BMatC= 5.92D-02 BMatP= 1.44D-01
 IDIUse=3 WtCom= 9.23D-01 WtEn= 7.66D-02
 Coeff-Com: -0.229D+00 0.542D+00 0.687D+00
 Coeff-En:   0.000D+00 0.000D+00 0.100D+01
 Coeff:     -0.211D+00 0.501D+00 0.711D+00
 Gap=     0.265 Goal=   None    Shift=    0.000
 RMSDP=3.37D-04 MaxDP=3.43D-02 DE=-1.81D-01 OVMax= 6.23D-02

 Cycle   4  Pass 0  IDiag  1:
 RMSU=  1.95D-04    CP:  9.95D-01  1.43D+00  6.83D-01
 E= -2048.73574639443     Delta-E=       -0.044228775056 Rises=F Damp=F
 DIIS: error= 3.07D-03 at cycle   4 NSaved=   4.
 NSaved= 4 IEnMin= 4 EnMin= -2048.73574639443     IErMin= 4 ErrMin= 3.07D-03
 ErrMax= 3.07D-03  0.00D+00 EMaxC= 1.00D-01 BMatC= 8.67D-03 BMatP= 5.92D-02
 IDIUse=3 WtCom= 9.69D-01 WtEn= 3.07D-02
 Coeff-Com: -0.939D-01 0.182D+00 0.379D+00 0.533D+00
 Coeff-En:   0.000D+00 0.000D+00 0.592D-01 0.941D+00
 Coeff:     -0.910D-01 0.176D+00 0.369D+00 0.546D+00
 Gap=     0.272 Goal=   None    Shift=    0.000
 RMSDP=1.22D-04 MaxDP=1.32D-02 DE=-4.42D-02 OVMax= 1.45D-02

 Cycle   5  Pass 0  IDiag  1:
 RMSU=  6.18D-05    CP:  9.94D-01  1.41D+00  8.13D-01  6.24D-01
 E= -2048.74263193020     Delta-E=       -0.006885535765 Rises=F Damp=F
 DIIS: error= 6.69D-04 at cycle   5 NSaved=   5.
 NSaved= 5 IEnMin= 5 EnMin= -2048.74263193020     IErMin= 5 ErrMin= 6.69D-04
 ErrMax= 6.69D-04  0.00D+00 EMaxC= 1.00D-01 BMatC= 3.07D-04 BMatP= 8.67D-03
 IDIUse=3 WtCom= 9.93D-01 WtEn= 6.69D-03
 Coeff-Com: -0.245D-01 0.421D-01 0.123D+00 0.247D+00 0.612D+00
 Coeff-En:   0.000D+00 0.000D+00 0.000D+00 0.000D+00 0.100D+01
 Coeff:     -0.244D-01 0.418D-01 0.123D+00 0.245D+00 0.615D+00
 Gap=     0.271 Goal=   None    Shift=    0.000
 RMSDP=2.49D-05 MaxDP=2.57D-03 DE=-6.89D-03 OVMax= 3.49D-03

 Failed to achieve initial convergence to 1.0D-08 in  6 cycles.
 Switch to full accuracy anyway.
 Cycle   6  Pass 1  IDiag  1:
 E= -2048.74290004309     Delta-E=       -0.000268112896 Rises=F Damp=F
 DIIS: error= 2.49D-04 at cycle   1 NSaved=   1.
 NSaved= 1 IEnMin= 1 EnMin= -2048.74290004309     IErMin= 1 ErrMin= 2.49D-04
 ErrMax= 2.49D-04  0.00D+00 EMaxC= 1.00D-01 BMatC= 7.43D-05 BMatP= 7.43D-05
 IDIUse=3 WtCom= 9.98D-01 WtEn= 2.49D-03
 Coeff-Com:  0.100D+01
 Coeff-En:   0.100D+01
 Coeff:      0.100D+01
 Gap=     0.272 Goal=   None    Shift=    0.000
 RMSDP=2.49D-05 MaxDP=2.57D-03 DE=-2.68D-04 OVMax= 2.00D-03

 Cycle   7  Pass 1  IDiag  1:
 RMSU=  1.10D-04    CP:  1.00D+00
 E= -2048.74295244974     Delta-E=       -0.000052406645 Rises=F Damp=F
 DIIS: error= 2.74D-04 at cycle   2 NSaved=   2.
 NSaved= 2 IEnMin= 2 EnMin= -2048.74295244974     IErMin= 1 ErrMin= 2.49D-04
 ErrMax= 2.74D-04  0.00D+00 EMaxC= 1.00D-01 BMatC= 4.72D-05 BMatP= 7.43D-05
 IDIUse=3 WtCom= 9.97D-01 WtEn= 2.74D-03
 Coeff-Com:  0.425D+00 0.575D+00
 Coeff-En:   0.000D+00 0.100D+01
 Coeff:      0.423D+00 0.577D+00
 Gap=     0.272 Goal=   None    Shift=    0.000
 RMSDP=1.09D-05 MaxDP=1.50D-03 DE=-5.24D-05 OVMax= 1.74D-03

 Cycle   8  Pass 1  IDiag  1:
 RMSU=  1.05D-05    CP:  1.00D+00  1.02D+00
 E= -2048.74298505271     Delta-E=       -0.000032602968 Rises=F Damp=F
 DIIS: error= 1.06D-04 at cycle   3 NSaved=   3.
 NSaved= 3 IEnMin= 3 EnMin= -2048.74298505271     IErMin= 3 ErrMin= 1.06D-04
 ErrMax= 1.06D-04  0.00D+00 EMaxC= 1.00D-01 BMatC= 1.02D-05 BMatP= 4.72D-05
 IDIUse=3 WtCom= 9.99D-01 WtEn= 1.06D-03
 Coeff-Com: -0.186D-01 0.304D+00 0.714D+00
 Coeff-En:   0.000D+00 0.123D+00 0.877D+00
 Coeff:     -0.186D-01 0.304D+00 0.715D+00
 Gap=     0.272 Goal=   None    Shift=    0.000
 RMSDP=5.45D-06 MaxDP=5.37D-04 DE=-3.26D-05 OVMax= 5.70D-04

 Cycle   9  Pass 1  IDiag  1:
 RMSU=  3.69D-06    CP:  1.00D+00  1.05D+00  7.67D-01
 E= -2048.74299398834     Delta-E=       -0.000008935632 Rises=F Damp=F
 DIIS: error= 3.16D-05 at cycle   4 NSaved=   4.
 NSaved= 4 IEnMin= 4 EnMin= -2048.74299398834     IErMin= 4 ErrMin= 3.16D-05
 ErrMax= 3.16D-05  0.00D+00 EMaxC= 1.00D-01 BMatC= 4.67D-07 BMatP= 1.02D-05
 IDIUse=1 WtCom= 1.00D+00 WtEn= 0.00D+00
 Coeff-Com: -0.308D-01 0.840D-01 0.259D+00 0.688D+00
 Coeff:     -0.308D-01 0.840D-01 0.259D+00 0.688D+00
 Gap=     0.272 Goal=   None    Shift=    0.000
 RMSDP=1.38D-06 MaxDP=1.41D-04 DE=-8.94D-06 OVMax= 4.28D-04

 Cycle  10  Pass 1  IDiag  1:
 RMSU=  1.23D-06    CP:  1.00D+00  1.06D+00  7.98D-01  1.11D+00
 E= -2048.74299476292     Delta-E=       -0.000000774585 Rises=F Damp=F
 DIIS: error= 1.28D-05 at cycle   5 NSaved=   5.
 NSaved= 5 IEnMin= 5 EnMin= -2048.74299476292     IErMin= 5 ErrMin= 1.28D-05
 ErrMax= 1.28D-05  0.00D+00 EMaxC= 1.00D-01 BMatC= 1.08D-07 BMatP= 4.67D-07
 IDIUse=1 WtCom= 1.00D+00 WtEn= 0.00D+00
 Coeff-Com: -0.291D-02-0.511D-01-0.120D+00 0.193D+00 0.980D+00
 Coeff:     -0.291D-02-0.511D-01-0.120D+00 0.193D+00 0.980D+00
 Gap=     0.272 Goal=   None    Shift=    0.000
 RMSDP=1.14D-06 MaxDP=7.32D-05 DE=-7.75D-07 OVMax= 2.05D-04

 Cycle  11  Pass 1  IDiag  1:
 RMSU=  4.73D-07    CP:  1.00D+00  1.06D+00  8.04D-01  1.38D+00  1.17D+00
 E= -2048.74299499480     Delta-E=       -0.000000231878 Rises=F Damp=F
 DIIS: error= 8.89D-06 at cycle   6 NSaved=   6.
 NSaved= 6 IEnMin= 6 EnMin= -2048.74299499480     IErMin= 6 ErrMin= 8.89D-06
 ErrMax= 8.89D-06  0.00D+00 EMaxC= 1.00D-01 BMatC= 2.68D-08 BMatP= 1.08D-07
 IDIUse=1 WtCom= 1.00D+00 WtEn= 0.00D+00
 Coeff-Com:  0.462D-02-0.421D-01-0.114D+00-0.817D-02 0.525D+00 0.634D+00
 Coeff:      0.462D-02-0.421D-01-0.114D+00-0.817D-02 0.525D+00 0.634D+00
 Gap=     0.272 Goal=   None    Shift=    0.000
 RMSDP=3.54D-07 MaxDP=3.62D-05 DE=-2.32D-07 OVMax= 1.07D-04

 Cycle  12  Pass 1  IDiag  1:
 RMSU=  1.81D-07    CP:  1.00D+00  1.06D+00  8.05D-01  1.45D+00  1.30D+00
                    CP:  9.22D-01
 E= -2048.74299503320     Delta-E=       -0.000000038397 Rises=F Damp=F
 DIIS: error= 1.04D-06 at cycle   7 NSaved=   7.
 NSaved= 7 IEnMin= 7 EnMin= -2048.74299503320     IErMin= 7 ErrMin= 1.04D-06
 ErrMax= 1.04D-06  0.00D+00 EMaxC= 1.00D-01 BMatC= 7.88D-10 BMatP= 2.68D-08
 IDIUse=1 WtCom= 1.00D+00 WtEn= 0.00D+00
 Coeff-Com:  0.115D-02-0.721D-02-0.214D-01-0.840D-02 0.634D-01 0.147D+00
 Coeff-Com:  0.826D+00
 Coeff:      0.115D-02-0.721D-02-0.214D-01-0.840D-02 0.634D-01 0.147D+00
 Coeff:      0.826D+00
 Gap=     0.272 Goal=   None    Shift=    0.000
 RMSDP=7.92D-08 MaxDP=5.28D-06 DE=-3.84D-08 OVMax= 2.01D-05

 Cycle  13  Pass 1  IDiag  1:
 RMSU=  4.83D-08    CP:  1.00D+00  1.06D+00  8.04D-01  1.46D+00  1.32D+00
                    CP:  1.01D+00  1.13D+00
 E= -2048.74299503453     Delta-E=       -0.000000001337 Rises=F Damp=F
 DIIS: error= 5.54D-07 at cycle   8 NSaved=   8.
 NSaved= 8 IEnMin= 8 EnMin= -2048.74299503453     IErMin= 8 ErrMin= 5.54D-07
 ErrMax= 5.54D-07  0.00D+00 EMaxC= 1.00D-01 BMatC= 3.04D-10 BMatP= 7.88D-10
 IDIUse=1 WtCom= 1.00D+00 WtEn= 0.00D+00
 Coeff-Com: -0.699D-03 0.810D-02 0.203D-01-0.147D-03-0.114D+00-0.976D-01
 Coeff-Com:  0.410D+00 0.774D+00
 Coeff:     -0.699D-03 0.810D-02 0.203D-01-0.147D-03-0.114D+00-0.976D-01
 Coeff:      0.410D+00 0.774D+00
 Gap=     0.272 Goal=   None    Shift=    0.000
 RMSDP=4.74D-08 MaxDP=2.91D-06 DE=-1.34D-09 OVMax= 1.03D-05

 Cycle  14  Pass 1  IDiag  1:
 RMSU=  2.65D-08    CP:  1.00D+00  1.06D+00  8.04D-01  1.46D+00  1.33D+00
                    CP:  1.05D+00  1.29D+00  1.09D+00
 E= -2048.74299503496     Delta-E=       -0.000000000425 Rises=F Damp=F
 DIIS: error= 1.81D-07 at cycle   9 NSaved=   9.
 NSaved= 9 IEnMin= 9 EnMin= -2048.74299503496     IErMin= 9 ErrMin= 1.81D-07
 ErrMax= 1.81D-07  0.00D+00 EMaxC= 1.00D-01 BMatC= 3.01D-11 BMatP= 3.04D-10
 IDIUse=1 WtCom= 1.00D+00 WtEn= 0.00D+00
 Coeff-Com: -0.426D-03 0.430D-02 0.111D-01 0.126D-02-0.549D-01-0.573D-01
 Coeff-Com:  0.839D-01 0.316D+00 0.697D+00
 Coeff:     -0.426D-03 0.430D-02 0.111D-01 0.126D-02-0.549D-01-0.573D-01
 Coeff:      0.839D-01 0.316D+00 0.697D+00
 Gap=     0.272 Goal=   None    Shift=    0.000
 RMSDP=1.29D-08 MaxDP=7.99D-07 DE=-4.25D-10 OVMax= 3.11D-06

 Cycle  15  Pass 1  IDiag  1:
 RMSU=  8.79D-09    CP:  1.00D+00  1.06D+00  8.04D-01  1.46D+00  1.33D+00
                    CP:  1.06D+00  1.31D+00  1.24D+00  1.10D+00
 E= -2048.74299503530     Delta-E=       -0.000000000345 Rises=F Damp=F
 DIIS: error= 5.92D-08 at cycle  10 NSaved=  10.
 NSaved=10 IEnMin=10 EnMin= -2048.74299503530     IErMin=10 ErrMin= 5.92D-08
 ErrMax= 5.92D-08  0.00D+00 EMaxC= 1.00D-01 BMatC= 4.94D-12 BMatP= 3.01D-11
 IDIUse=1 WtCom= 1.00D+00 WtEn= 0.00D+00
 Coeff-Com:  0.637D-05-0.314D-03-0.649D-03 0.105D-03 0.564D-02 0.150D-02
 Coeff-Com: -0.571D-01-0.612D-01 0.259D+00 0.853D+00
 Coeff:      0.637D-05-0.314D-03-0.649D-03 0.105D-03 0.564D-02 0.150D-02
 Coeff:     -0.571D-01-0.612D-01 0.259D+00 0.853D+00
 Gap=     0.272 Goal=   None    Shift=    0.000
 RMSDP=6.72D-09 MaxDP=3.83D-07 DE=-3.45D-10 OVMax= 1.44D-06

 SCF Done:  E(RwB97XD) =  -2048.74299504     A.U. after   15 cycles
            NFock= 15  Conv=0.67D-08     -V/T= 2.0054
 KE= 2.037677794462D+03 PE=-1.557880303714D+04 EE= 6.093386823061D+03
 Leave Link  502 at Fri Jan 26 10:54:38 2018, MaxMem=  4294967296 cpu:           19396.2 elap:             627.7
 (Enter /share/apps/g16/l601.exe)
 Copying SCF densities to generalized density rwf, IOpCl= 0 IROHF=0.

 **********************************************************************

            Population analysis using the SCF density.

 **********************************************************************

 Orbital symmetries:
       Occupied  (A) (A) (A) (A) (A) (A) (A) (A) (A) (A) (A) (A)
                 (A) (A) (A) (A) (A) (A) (A) (A) (A) (A) (A) (A)
                 (A) (A) (A) (A) (A) (A) (A) (A) (A) (A) (A) (A)
                 (A) (A) (A) (A) (A) (A) (A) (A) (A) (A) (A) (A)
                 (A) (A) (A) (A) (A) (A) (A) (A) (A) (A) (A) (A)
                 (A) (A) (A) (A) (A) (A) (A) (A) (A) (A) (A) (A)
                 (A) (A) (A) (A) (A) (A) (A) (A) (A) (A) (A) (A)
                 (A) (A) (A) (A) (A) (A) (A) (A) (A) (A) (A) (A)
                 (A) (A) (A) (A) (A) (A) (A) (A) (A) (A) (A) (A)
                 (A) (A) (A) (A) (A) (A) (A) (A) (A) (A) (A) (A)
                 (A) (A) (A) (A) (A) (A) (A) (A) (A) (A) (A) (A)
                 (A) (A) (A) (A) (A) (A) (A) (A) (A) (A) (A) (A)
                 (A) (A) (A) (A) (A) (A) (A) (A) (A) (A)
       Virtual   (A) (A) (A) (A) (A) (A) (A) (A) (A) (A) (A) (A)
                 (A) (A) (A) (A) (A) (A) (A) (A) (A) (A) (A) (A)
                 (A) (A) (A) (A) (A) (A) (A) (A) (A) (A) (A) (A)
                 (A) (A) (A) (A) (A) (A) (A) (A) (A) (A) (A) (A)
                 (A) (A) (A) (A) (A) (A) (A) (A) (A) (A) (A) (A)
                 (A) (A) (A) (A) (A) (A) (A) (A) (A) (A) (A) (A)
                 (A) (A) (A) (A) (A) (A) (A) (A) (A) (A) (A) (A)
                 (A) (A) (A) (A) (A) (A) (A) (A) (A) (A) (A) (A)
                 (A) (A) (A) (A) (A) (A) (A) (A) (A) (A) (A) (A)
                 (A) (A) (A) (A) (A) (A) (A) (A) (A) (A) (A) (A)
                 (A) (A) (A) (A) (A) (A) (A) (A) (A) (A) (A) (A)
                 (A) (A) (A) (A) (A) (A) (A) (A) (A) (A) (A) (A)
                 (A) (A) (A) (A) (A) (A) (A) (A) (A) (A) (A) (A)
                 (A) (A) (A) (A) (A) (A) (A) (A) (A) (A) (A) (A)
                 (A) (A) (A) (A) (A) (A) (A) (A) (A) (A) (A) (A)
                 (A) (A) (A) (A) (A) (A) (A) (A) (A) (A) (A) (A)
                 (A) (A) (A) (A) (A) (A) (A) (A) (A) (A) (A) (A)
                 (A) (A) (A) (A) (A) (A) (A) (A) (A) (A) (A) (A)
                 (A) (A) (A) (A) (A) (A) (A) (A) (A) (A) (A) (A)
                 (A) (A) (A) (A) (A) (A) (A) (A) (A) (A) (A) (A)
                 (A) (A) (A) (A) (A) (A) (A) (A) (A) (A) (A) (A)
                 (A) (A) (A) (A) (A) (A) (A) (A) (A) (A) (A) (A)
                 (A) (A) (A) (A) (A) (A) (A) (A) (A) (A) (A) (A)
                 (A) (A) (A) (A) (A) (A) (A) (A) (A) (A) (A) (A)
                 (A) (A) (A) (A) (A) (A) (A) (A) (A) (A) (A) (A)
                 (A) (A) (A) (A) (A) (A) (A) (A) (A) (A) (A) (A)
                 (A) (A) (A) (A) (A) (A) (A) (A) (A) (A) (A) (A)
                 (A) (A) (A) (A) (A) (A) (A) (A) (A) (A) (A) (A)
                 (A) (A) (A) (A) (A) (A) (A) (A) (A) (A) (A) (A)
                 (A) (A) (A) (A) (A) (A) (A) (A) (A) (A) (A) (A)
                 (A) (A) (A) (A) (A) (A) (A) (A) (A) (A) (A) (A)
                 (A) (A) (A) (A) (A) (A) (A) (A) (A) (A) (A) (A)
                 (A) (A) (A) (A) (A) (A) (A) (A) (A) (A) (A) (A)
                 (A) (A) (A) (A) (A) (A) (A) (A) (A) (A) (A) (A)
                 (A) (A) (A) (A) (A) (A) (A) (A) (A) (A) (A) (A)
                 (A) (A) (A) (A) (A) (A) (A) (A) (A) (A) (A) (A)
                 (A) (A) (A) (A) (A) (A) (A) (A) (A) (A) (A) (A)
                 (A) (A) (A) (A) (A) (A) (A) (A) (A) (A) (A) (A)
                 (A) (A) (A) (A) (A) (A) (A) (A) (A) (A) (A) (A)
                 (A) (A) (A) (A) (A) (A) (A) (A) (A) (A) (A) (A)
                 (A) (A) (A) (A) (A) (A) (A) (A) (A) (A) (A) (A)
                 (A) (A) (A) (A) (A) (A) (A) (A) (A) (A) (A) (A)
                 (A) (A) (A) (A) (A) (A) (A) (A) (A) (A) (A) (A)
                 (A) (A) (A) (A) (A) (A) (A) (A) (A) (A) (A) (A)
                 (A) (A) (A) (A) (A) (A) (A) (A) (A) (A) (A) (A)
                 (A) (A) (A) (A) (A) (A) (A) (A) (A) (A) (A) (A)
                 (A) (A) (A) (A) (A) (A) (A) (A) (A) (A) (A) (A)
                 (A) (A) (A) (A) (A) (A) (A) (A) (A) (A) (A) (A)
                 (A) (A) (A) (A) (A) (A) (A)
 The electronic state is 1-A.
 Alpha  occ. eigenvalues --  -19.25866 -19.22298 -19.20709 -14.52581 -14.52287
 Alpha  occ. eigenvalues --  -14.49004 -14.48475 -14.47902 -14.47695 -14.47070
 Alpha  occ. eigenvalues --  -14.46872 -14.45326 -14.44462 -14.44294 -14.42208
 Alpha  occ. eigenvalues --  -14.41684 -14.41081 -14.40262 -14.40105 -14.39639
 Alpha  occ. eigenvalues --  -10.45564 -10.41435 -10.40416 -10.40046 -10.38360
 Alpha  occ. eigenvalues --  -10.38350 -10.37888 -10.37124 -10.35721 -10.35155
 Alpha  occ. eigenvalues --  -10.34739 -10.34544 -10.33678 -10.33517 -10.33026
 Alpha  occ. eigenvalues --  -10.32667 -10.32406 -10.32328 -10.31501 -10.31138
 Alpha  occ. eigenvalues --  -10.30011 -10.28295 -10.27592  -1.19470  -1.15063
 Alpha  occ. eigenvalues --   -1.13360  -1.13296  -1.10771  -1.10296  -1.09620
 Alpha  occ. eigenvalues --   -1.09288  -1.08727  -1.04934  -1.04290  -1.02593
 Alpha  occ. eigenvalues --   -1.00880  -0.99935  -0.99707  -0.98721  -0.96926
 Alpha  occ. eigenvalues --   -0.96797  -0.95954  -0.91980  -0.91463  -0.87537
 Alpha  occ. eigenvalues --   -0.85755  -0.84318  -0.83693  -0.82984  -0.82707
 Alpha  occ. eigenvalues --   -0.81394  -0.79157  -0.77036  -0.74828  -0.74797
 Alpha  occ. eigenvalues --   -0.73828  -0.73513  -0.72108  -0.70459  -0.70192
 Alpha  occ. eigenvalues --   -0.67574  -0.66886  -0.66730  -0.65507  -0.64680
 Alpha  occ. eigenvalues --   -0.64266  -0.63972  -0.62826  -0.61949  -0.61918
 Alpha  occ. eigenvalues --   -0.60629  -0.60182  -0.59988  -0.59740  -0.59344
 Alpha  occ. eigenvalues --   -0.59119  -0.58555  -0.56814  -0.56094  -0.55851
 Alpha  occ. eigenvalues --   -0.55353  -0.55163  -0.54850  -0.54585  -0.54214
 Alpha  occ. eigenvalues --   -0.53848  -0.53735  -0.53505  -0.53278  -0.53148
 Alpha  occ. eigenvalues --   -0.52724  -0.52542  -0.50900  -0.50371  -0.49929
 Alpha  occ. eigenvalues --   -0.49763  -0.49647  -0.49389  -0.49192  -0.49010
 Alpha  occ. eigenvalues --   -0.48575  -0.48358  -0.48106  -0.47913  -0.47460
 Alpha  occ. eigenvalues --   -0.46109  -0.45775  -0.45429  -0.44141  -0.43887
 Alpha  occ. eigenvalues --   -0.40604  -0.40353  -0.39485  -0.37632  -0.37532
 Alpha  occ. eigenvalues --   -0.37464  -0.37454  -0.36235  -0.35951  -0.34793
 Alpha  occ. eigenvalues --   -0.34366  -0.34146  -0.33444  -0.32852  -0.32690
 Alpha  occ. eigenvalues --   -0.32653  -0.32507  -0.32372  -0.32024  -0.30133
 Alpha  occ. eigenvalues --   -0.30043  -0.29653  -0.25677  -0.24996
 Alpha virt. eigenvalues --    0.02182   0.04430   0.06913   0.08380   0.08880
 Alpha virt. eigenvalues --    0.09093   0.09617   0.10654   0.11117   0.11818
 Alpha virt. eigenvalues --    0.13440   0.14385   0.14601   0.14953   0.15309
 Alpha virt. eigenvalues --    0.15460   0.16651   0.16929   0.17269   0.17668
 Alpha virt. eigenvalues --    0.18285   0.19814   0.19915   0.20395   0.20708
 Alpha virt. eigenvalues --    0.21020   0.21075   0.21095   0.21608   0.21980
 Alpha virt. eigenvalues --    0.22441   0.23019   0.23190   0.23541   0.23614
 Alpha virt. eigenvalues --    0.24296   0.24562   0.24787   0.25003   0.25189
 Alpha virt. eigenvalues --    0.25397   0.25969   0.27148   0.27602   0.27946
 Alpha virt. eigenvalues --    0.29002   0.29522   0.29730   0.30451   0.30969
 Alpha virt. eigenvalues --    0.31446   0.32086   0.32363   0.33026   0.33236
 Alpha virt. eigenvalues --    0.34188   0.34358   0.34916   0.35971   0.36265
 Alpha virt. eigenvalues --    0.36528   0.37406   0.37661   0.38842   0.39169
 Alpha virt. eigenvalues --    0.39732   0.40440   0.41031   0.41556   0.41730
 Alpha virt. eigenvalues --    0.41841   0.42607   0.43298   0.43959   0.44291
 Alpha virt. eigenvalues --    0.44813   0.45931   0.46385   0.46669   0.47012
 Alpha virt. eigenvalues --    0.47270   0.47496   0.48463   0.48763   0.48999
 Alpha virt. eigenvalues --    0.49765   0.50218   0.50516   0.50847   0.50934
 Alpha virt. eigenvalues --    0.51338   0.51505   0.52310   0.52977   0.53114
 Alpha virt. eigenvalues --    0.54178   0.54420   0.54779   0.54961   0.55308
 Alpha virt. eigenvalues --    0.55673   0.56435   0.56815   0.57171   0.57496
 Alpha virt. eigenvalues --    0.57686   0.57919   0.58355   0.59184   0.59552
 Alpha virt. eigenvalues --    0.59740   0.59969   0.60337   0.60682   0.60915
 Alpha virt. eigenvalues --    0.61167   0.61805   0.62021   0.62604   0.62981
 Alpha virt. eigenvalues --    0.63260   0.63347   0.64175   0.64987   0.65569
 Alpha virt. eigenvalues --    0.65694   0.65938   0.66222   0.66616   0.66922
 Alpha virt. eigenvalues --    0.67188   0.67261   0.67721   0.68242   0.68762
 Alpha virt. eigenvalues --    0.69296   0.69510   0.69996   0.70552   0.71008
 Alpha virt. eigenvalues --    0.71096   0.71667   0.72416   0.72752   0.73112
 Alpha virt. eigenvalues --    0.73562   0.73959   0.74193   0.74414   0.74861
 Alpha virt. eigenvalues --    0.75064   0.75768   0.75938   0.76396   0.76695
 Alpha virt. eigenvalues --    0.76878   0.77257   0.77684   0.78183   0.78200
 Alpha virt. eigenvalues --    0.78598   0.79149   0.79497   0.80418   0.80547
 Alpha virt. eigenvalues --    0.80760   0.81226   0.81610   0.81937   0.82592
 Alpha virt. eigenvalues --    0.83126   0.83677   0.84038   0.84507   0.84656
 Alpha virt. eigenvalues --    0.84973   0.85783   0.85856   0.86836   0.87545
 Alpha virt. eigenvalues --    0.88075   0.88123   0.88777   0.88829   0.89750
 Alpha virt. eigenvalues --    0.90249   0.90573   0.91083   0.91486   0.91711
 Alpha virt. eigenvalues --    0.91840   0.92537   0.92718   0.93492   0.94190
 Alpha virt. eigenvalues --    0.94442   0.94745   0.95364   0.95770   0.96196
 Alpha virt. eigenvalues --    0.96568   0.96771   0.97586   0.97861   0.98238
 Alpha virt. eigenvalues --    0.98423   0.99070   0.99498   0.99839   1.00245
 Alpha virt. eigenvalues --    1.00675   1.00865   1.01549   1.01807   1.02297
 Alpha virt. eigenvalues --    1.02854   1.03131   1.03607   1.03985   1.04434
 Alpha virt. eigenvalues --    1.05514   1.05687   1.06030   1.06235   1.07164
 Alpha virt. eigenvalues --    1.07459   1.07940   1.08562   1.09218   1.09621
 Alpha virt. eigenvalues --    1.10139   1.11498   1.11920   1.12593   1.12701
 Alpha virt. eigenvalues --    1.13012   1.13555   1.13853   1.14428   1.14538
 Alpha virt. eigenvalues --    1.15561   1.16057   1.16373   1.16765   1.17021
 Alpha virt. eigenvalues --    1.17150   1.17542   1.17912   1.18266   1.18826
 Alpha virt. eigenvalues --    1.19453   1.19638   1.19701   1.20105   1.20705
 Alpha virt. eigenvalues --    1.21025   1.21937   1.22400   1.22666   1.22873
 Alpha virt. eigenvalues --    1.23188   1.23424   1.23509   1.23847   1.24301
 Alpha virt. eigenvalues --    1.24827   1.25008   1.25360   1.26016   1.26864
 Alpha virt. eigenvalues --    1.27950   1.28500   1.28837   1.29270   1.29849
 Alpha virt. eigenvalues --    1.31168   1.31761   1.31935   1.32266   1.32781
 Alpha virt. eigenvalues --    1.33264   1.34096   1.34330   1.35280   1.36046
 Alpha virt. eigenvalues --    1.36784   1.37475   1.37913   1.38569   1.39338
 Alpha virt. eigenvalues --    1.40316   1.41091   1.41296   1.41784   1.43123
 Alpha virt. eigenvalues --    1.44309   1.45669   1.45776   1.46080   1.46843
 Alpha virt. eigenvalues --    1.47766   1.48403   1.49107   1.49328   1.49634
 Alpha virt. eigenvalues --    1.50627   1.51230   1.52314   1.52499   1.53003
 Alpha virt. eigenvalues --    1.53572   1.54494   1.55871   1.56297   1.57040
 Alpha virt. eigenvalues --    1.57131   1.58402   1.58472   1.59178   1.59436
 Alpha virt. eigenvalues --    1.60818   1.61025   1.61735   1.62109   1.62617
 Alpha virt. eigenvalues --    1.62913   1.63806   1.64465   1.64564   1.65113
 Alpha virt. eigenvalues --    1.65536   1.65927   1.67211   1.67762   1.68317
 Alpha virt. eigenvalues --    1.68733   1.69354   1.69589   1.69875   1.70658
 Alpha virt. eigenvalues --    1.71478   1.71713   1.72101   1.72333   1.72838
 Alpha virt. eigenvalues --    1.73270   1.73729   1.73894   1.74303   1.74708
 Alpha virt. eigenvalues --    1.75511   1.75549   1.75634   1.76150   1.76426
 Alpha virt. eigenvalues --    1.76852   1.77269   1.77429   1.77715   1.77921
 Alpha virt. eigenvalues --    1.78370   1.79189   1.79229   1.79661   1.79861
 Alpha virt. eigenvalues --    1.80189   1.80654   1.81041   1.81231   1.81583
 Alpha virt. eigenvalues --    1.81978   1.82357   1.82912   1.83695   1.83996
 Alpha virt. eigenvalues --    1.84676   1.84731   1.85247   1.85425   1.85871
 Alpha virt. eigenvalues --    1.86434   1.87203   1.87370   1.87724   1.88302
 Alpha virt. eigenvalues --    1.88753   1.89253   1.89875   1.90148   1.90595
 Alpha virt. eigenvalues --    1.90976   1.91362   1.91880   1.92834   1.93285
 Alpha virt. eigenvalues --    1.94170   1.94512   1.95343   1.95454   1.96484
 Alpha virt. eigenvalues --    1.96723   1.97824   1.98370   1.99668   2.00302
 Alpha virt. eigenvalues --    2.00692   2.01123   2.01546   2.02336   2.02631
 Alpha virt. eigenvalues --    2.03042   2.03690   2.05090   2.05388   2.05938
 Alpha virt. eigenvalues --    2.07175   2.07508   2.07910   2.08117   2.09310
 Alpha virt. eigenvalues --    2.09727   2.10062   2.10430   2.10612   2.11395
 Alpha virt. eigenvalues --    2.12469   2.13861   2.14329   2.15753   2.16170
 Alpha virt. eigenvalues --    2.17382   2.18092   2.19282   2.19957   2.20677
 Alpha virt. eigenvalues --    2.21424   2.22179   2.22281   2.22738   2.23444
 Alpha virt. eigenvalues --    2.23959   2.24014   2.25153   2.25342   2.26267
 Alpha virt. eigenvalues --    2.26356   2.27216   2.27934   2.28515   2.29713
 Alpha virt. eigenvalues --    2.29930   2.30412   2.30523   2.31324   2.31536
 Alpha virt. eigenvalues --    2.32179   2.32961   2.33140   2.33574   2.33739
 Alpha virt. eigenvalues --    2.34183   2.34863   2.35390   2.35755   2.37177
 Alpha virt. eigenvalues --    2.37346   2.37445   2.38771   2.39117   2.39922
 Alpha virt. eigenvalues --    2.40992   2.42409   2.42916   2.43690   2.43840
 Alpha virt. eigenvalues --    2.44106   2.44759   2.45407   2.45927   2.46379
 Alpha virt. eigenvalues --    2.47400   2.48021   2.49240   2.50833   2.50977
 Alpha virt. eigenvalues --    2.51286   2.52197   2.53817   2.54741   2.55291
 Alpha virt. eigenvalues --    2.55857   2.56503   2.57374   2.57920   2.58989
 Alpha virt. eigenvalues --    2.60435   2.61482   2.61859   2.62253   2.62609
 Alpha virt. eigenvalues --    2.63013   2.63963   2.64691   2.64912   2.65397
 Alpha virt. eigenvalues --    2.65882   2.66204   2.66986   2.67261   2.68382
 Alpha virt. eigenvalues --    2.68811   2.70005   2.70086   2.70684   2.72121
 Alpha virt. eigenvalues --    2.72382   2.73729   2.74715   2.75796   2.76585
 Alpha virt. eigenvalues --    2.76719   2.77113   2.78158   2.78500   2.78872
 Alpha virt. eigenvalues --    2.79184   2.79953   2.80082   2.80454   2.81035
 Alpha virt. eigenvalues --    2.81535   2.81853   2.82121   2.83634   2.83671
 Alpha virt. eigenvalues --    2.83980   2.84829   2.85657   2.86425   2.86778
 Alpha virt. eigenvalues --    2.87656   2.87896   2.88416   2.89302   2.91693
 Alpha virt. eigenvalues --    2.92918   2.94150   2.94514   2.96167   2.97721
 Alpha virt. eigenvalues --    3.00226   3.00449   3.01121   3.03749   3.04438
 Alpha virt. eigenvalues --    3.05166   3.08973   3.10794   3.12485   3.14576
 Alpha virt. eigenvalues --    3.15717   3.16223   3.16700   3.16973   3.19207
 Alpha virt. eigenvalues --    3.20521   3.22247   3.23110   3.24774   3.25026
 Alpha virt. eigenvalues --    3.44207   3.46930   3.47466   3.49292   3.50093
 Alpha virt. eigenvalues --    3.53646   3.54646   3.55921   3.57389   3.59730
 Alpha virt. eigenvalues --    3.62645   3.70316   3.74491
          Condensed to atoms (all electrons):
 Mulliken charges:
               1
     1  N   -0.312973
     2  C    0.182624
     3  C    0.049898
     4  N   -0.253199
     5  C    0.139089
     6  H    0.024400
     7  N   -0.302753
     8  C    0.135925
     9  H    0.008143
    10  N   -0.288676
    11  C    0.258641
    12  C    0.105173
    13  N   -0.068307
    14  H    0.113834
    15  H    0.082723
    16  H    0.021372
    17  H    0.031945
    18  H    0.027569
    19  N   -0.311496
    20  C    0.249970
    21  C    0.180731
    22  N   -0.122283
    23  H    0.116160
    24  H    0.117709
    25  N   -0.311764
    26  C    0.249123
    27  N   -0.152396
    28  H    0.120843
    29  C    0.200235
    30  O   -0.320720
    31  C   -0.015302
    32  N   -0.227269
    33  C    0.128978
    34  H    0.024011
    35  H    0.028369
    36  H    0.029363
    37  H    0.025176
    38  H    0.056951
    39  H    0.060700
    40  H    0.075413
    41  H    0.031352
    42  C   -0.123300
    43  O   -0.261415
    44  C    0.170311
    45  H    0.133198
    46  N   -0.122010
    47  O   -0.347532
    48  C    0.346989
    49  H    0.044680
    50  C    0.155271
    51  C    0.039126
    52  N   -0.274088
    53  H    0.033911
    54  H    0.042783
    55  H    0.028364
    56  H    0.115067
    57  H    0.114793
    58  N   -0.058725
    59  C    0.095673
    60  C    0.250906
    61  N   -0.272943
    62  H    0.038375
    63  C    0.177363
    64  N   -0.319019
    65  H    0.038080
    66  C    0.140268
    67  N   -0.268486
    68  C    0.026399
    69  C    0.179717
    70  N   -0.313037
 Sum of Mulliken charges =  -0.00000
 Mulliken charges with hydrogens summed into heavy atoms:
               1
     1  N   -0.312973
     2  C    0.263510
     3  C    0.049898
     4  N   -0.253199
     5  C    0.163489
     7  N   -0.302753
     8  C    0.144068
    10  N   -0.288676
    11  C    0.258641
    12  C    0.105173
    13  N    0.128250
    19  N   -0.311496
    20  C    0.249970
    21  C    0.263639
    22  N    0.111586
    25  N   -0.311764
    26  C    0.249123
    27  N   -0.031553
    29  C    0.200235
    30  O   -0.320720
    31  C   -0.015302
    32  N   -0.227269
    33  C    0.152988
    42  C   -0.091949
    43  O   -0.261415
    44  C    0.170311
    46  N    0.011188
    47  O   -0.347532
    48  C    0.346989
    50  C    0.199951
    51  C    0.232190
    52  N   -0.274088
    58  N    0.171136
    59  C    0.095673
    60  C    0.250906
    61  N   -0.272943
    63  C    0.215738
    64  N   -0.319019
    66  C    0.178348
    67  N   -0.268486
    68  C    0.026399
    69  C    0.284774
    70  N   -0.313037
 Electronic spatial extent (au):  <R**2>=          22588.1168
 Charge=             -0.0000 electrons
 Dipole moment (field-independent basis, Debye):
    X=              9.0897    Y=              6.1627    Z=             -0.2422  Tot=             10.9845
 Quadrupole moment (field-independent basis, Debye-Ang):
   XX=           -168.1076   YY=           -211.1606   ZZ=           -247.7431
   XY=             -5.5569   XZ=            -11.2442   YZ=              1.0518
 Traceless Quadrupole moment (field-independent basis, Debye-Ang):
   XX=             40.8962   YY=             -2.1568   ZZ=            -38.7393
   XY=             -5.5569   XZ=            -11.2442   YZ=              1.0518
 Octapole moment (field-independent basis, Debye-Ang**2):
  XXX=            -63.4992  YYY=            151.6474  ZZZ=            -21.4063  XYY=             61.5096
  XXY=             64.9656  XXZ=             27.8235  XZZ=             79.4317  YZZ=             26.3575
  YYZ=             22.1694  XYZ=             98.3011
 Hexadecapole moment (field-independent basis, Debye-Ang**3):
 XXXX=         -14686.5872 YYYY=          -7050.3021 ZZZZ=          -4438.8253 XXXY=            497.3052
 XXXZ=           -174.6852 YYYX=           -202.5075 YYYZ=             -2.7464 ZZZX=              3.4168
 ZZZY=             97.2664 XXYY=          -2952.4341 XXZZ=          -3441.2681 YYZZ=          -1958.0710
 XXYZ=            175.4223 YYXZ=             64.2300 ZZXY=            105.6377
 N-N= 5.398995424585D+03 E-N=-1.557880303526D+04  KE= 2.037677794462D+03
 No NMR shielding tensors so no spin-rotation constants.
 Leave Link  601 at Fri Jan 26 10:54:40 2018, MaxMem=  4294967296 cpu:              47.2 elap:               1.7
 (Enter /share/apps/g16/l9999.exe)
 1\1\GINC-COMPUTE-0-3\SP\RwB97XD\CC-pVDZ\C23H27N17O3\SATYA\26-Jan-2018\
 0\\#p wb97xd/cc-pvdz sp scf=(maxcycles=20)\\Base pair stacking\\0,1\N,
 0,5.11313,-3.05121,-4.56798\C,0,6.51506,-2.60537,-4.45033\C,0,2.98247,
 -3.18501,-5.09682\N,0,3.25619,-4.29132,-4.30569\C,0,4.52888,-4.16643,-
 4.01875\H,0,5.09749,-4.86541,-3.4047\N,0,1.87354,-1.595,-6.44036\C,0,3
 .04452,-0.95405,-6.51496\H,0,3.03706,-0.03922,-7.10597\N,0,4.21782,-1.
 27199,-5.97165\C,0,4.11734,-2.41136,-5.26725\C,0,1.80518,-2.7384,-5.72
 409\N,0,0.63717,-3.37965,-5.64844\H,0,0.54041,-4.22956,-5.12929\H,0,-0
 .18052,-3.03258,-6.10786\H,0,7.12206,-3.30832,-4.82125\H,0,6.63933,-1.
 75546,-4.96154\H,0,6.73769,-2.44914,-3.48802\N,0,3.01382,2.49705,-3.02
 271\C,0,1.77753,1.96038,-3.29033\C,0,3.39401,3.90918,-3.22771\N,0,-1.4
 8764,2.34006,-4.41116\H,0,-2.29651,1.7659,-4.53488\H,0,-1.57369,3.3049
 7,-4.66069\N,0,0.71095,2.62756,-3.78159\C,0,-0.33875,1.83948,-3.93224\
 N,0,-0.34549,0.50023,-3.62583\H,0,-1.19373,-0.02484,-3.77332\C,0,0.740
 37,-0.20699,-3.11926\O,0,0.62922,-1.41499,-2.87613\C,0,1.87549,0.62632
 ,-2.95199\N,0,3.14769,0.33139,-2.48142\C,0,3.78631,1.4684,-2.54125\H,0
 ,4.82598,1.61297,-2.24553\H,0,4.1531,3.96104,-3.87571\H,0,2.61181,4.41
 332,-3.59141\H,0,3.67215,4.31115,-2.356\H,0,-5.51362,-2.20492,-5.33487
 \H,0,-5.94521,-2.08768,-3.63057\H,0,-4.8956,-0.87166,-4.35925\H,0,-3.0
 3328,-5.9164,-3.54059\C,0,-2.96602,-4.82995,-3.5983\O,0,-0.66635,-4.75
 765,-3.02091\C,0,-1.71525,-4.1904,-3.32556\H,0,-0.87433,-2.32654,-3.24
 083\N,0,-1.73958,-2.814,-3.42641\O,0,-2.7391,-0.81264,-3.81721\C,0,-2.
 81547,-2.02702,-3.753\H,0,-5.00683,-4.52691,-4.13596\C,0,-4.03319,-4.0
 8928,-3.91951\C,0,-5.16245,-1.91804,-4.35485\N,0,-3.98563,-2.71694,-4.
 00187\H,0,-4.19364,1.54927,-10.4385\H,0,-3.2171,1.94329,-9.19222\H,0,-
 4.83231,2.13409,-9.05519\H,0,-2.8175,-4.45439,-6.29992\H,0,-4.30616,-4
 .20129,-7.0936\N,0,-3.40859,-3.84624,-6.82994\C,0,-3.0182,-2.61629,-7.
 17051\C,0,-3.26872,-0.48092,-8.18991\N,0,-2.05779,-0.03064,-7.82204\H,
 0,-0.40982,-0.67638,-6.7887\C,0,-1.40519,-0.96049,-7.12749\N,0,-1.7944
 7,-2.19295,-6.78534\H,0,-6.19035,-0.39947,-9.57179\C,0,-5.28237,-0.676
 96,-9.03559\N,0,-5.08462,-1.83483,-8.45428\C,0,-3.81156,-1.72382,-7.91
 416\C,0,-4.10747,1.56407,-9.44233\N,0,-4.22438,0.19069,-8.91492\\Versi
 on=EM64L-G16RevA.03\State=1-A\HF=-2048.742995\RMSD=6.718e-09\Dipole=-3
 .5489689,2.0418135,-1.3829071\Quadrupole=27.6618999,-0.7099508,-26.951
 9491,7.5843015,12.7196994,-0.7108014\PG=C01 [X(C23H27N17O3)]\\@


 ONE BIG VICE IN A MAN IS APT TO KEEP OUT MANY SMALLER ONES.

                           -- BRET HARTE
 Job cpu time:       0 days  5 hours 33 minutes 18.2 seconds.
 Elapsed time:       0 days  0 hours 10 minutes 46.9 seconds.
 File lengths (MBytes):  RWF=    298 Int=      0 D2E=      0 Chk=     33 Scr=      1
 Normal termination of Gaussian 16 at Fri Jan 26 10:54:41 2018.
