 Entering Gaussian System, Link 0=g16
 Input=str55.5.0.5.com
 Output=str55.5.0.5.log
 Initial command:
 /share/apps/g16/l1.exe "/state/partition1/scr/Gau-10593.inp" -scrdir="/state/partition1/scr/"
 Entering Link 1 = /share/apps/g16/l1.exe PID=     10594.
  
 Copyright (c) 1988,1990,1992,1993,1995,1998,2003,2009,2016,
            Gaussian, Inc.  All Rights Reserved.
  
 This is part of the Gaussian(R) 16 program.  It is based on
 the Gaussian(R) 09 system (copyright 2009, Gaussian, Inc.),
 the Gaussian(R) 03 system (copyright 2003, Gaussian, Inc.),
 the Gaussian(R) 98 system (copyright 1998, Gaussian, Inc.),
 the Gaussian(R) 94 system (copyright 1995, Gaussian, Inc.),
 the Gaussian 92(TM) system (copyright 1992, Gaussian, Inc.),
 the Gaussian 90(TM) system (copyright 1990, Gaussian, Inc.),
 the Gaussian 88(TM) system (copyright 1988, Gaussian, Inc.),
 the Gaussian 86(TM) system (copyright 1986, Carnegie Mellon
 University), and the Gaussian 82(TM) system (copyright 1983,
 Carnegie Mellon University). Gaussian is a federally registered
 trademark of Gaussian, Inc.
  
 This software contains proprietary and confidential information,
 including trade secrets, belonging to Gaussian, Inc.
  
 This software is provided under written license and may be
 used, copied, transmitted, or stored only in accord with that
 written license.
  
 The following legend is applicable only to US Government
 contracts under FAR:
  
                    RESTRICTED RIGHTS LEGEND
  
 Use, reproduction and disclosure by the US Government is
 subject to restrictions as set forth in subparagraphs (a)
 and (c) of the Commercial Computer Software - Restricted
 Rights clause in FAR 52.227-19.
  
 Gaussian, Inc.
 340 Quinnipiac St., Bldg. 40, Wallingford CT 06492
  
  
 ---------------------------------------------------------------
 Warning -- This program may not be used in any manner that
 competes with the business of Gaussian, Inc. or will provide
 assistance to any competitor of Gaussian, Inc.  The licensee
 of this program is prohibited from giving any competitor of
 Gaussian, Inc. access to this program.  By using this program,
 the user acknowledges that Gaussian, Inc. is engaged in the
 business of creating and licensing software in the field of
 computational chemistry and represents and warrants to the
 licensee that it is not a competitor of Gaussian, Inc. and that
 it will not use this program in any manner prohibited above.
 ---------------------------------------------------------------
  

 Cite this work as:
 Gaussian 16, Revision A.03,
 M. J. Frisch, G. W. Trucks, H. B. Schlegel, G. E. Scuseria, 
 M. A. Robb, J. R. Cheeseman, G. Scalmani, V. Barone, 
 G. A. Petersson, H. Nakatsuji, X. Li, M. Caricato, A. V. Marenich, 
 J. Bloino, B. G. Janesko, R. Gomperts, B. Mennucci, H. P. Hratchian, 
 J. V. Ortiz, A. F. Izmaylov, J. L. Sonnenberg, D. Williams-Young, 
 F. Ding, F. Lipparini, F. Egidi, J. Goings, B. Peng, A. Petrone, 
 T. Henderson, D. Ranasinghe, V. G. Zakrzewski, J. Gao, N. Rega, 
 G. Zheng, W. Liang, M. Hada, M. Ehara, K. Toyota, R. Fukuda, 
 J. Hasegawa, M. Ishida, T. Nakajima, Y. Honda, O. Kitao, H. Nakai, 
 T. Vreven, K. Throssell, J. A. Montgomery, Jr., J. E. Peralta, 
 F. Ogliaro, M. J. Bearpark, J. J. Heyd, E. N. Brothers, K. N. Kudin, 
 V. N. Staroverov, T. A. Keith, R. Kobayashi, J. Normand, 
 K. Raghavachari, A. P. Rendell, J. C. Burant, S. S. Iyengar, 
 J. Tomasi, M. Cossi, J. M. Millam, M. Klene, C. Adamo, R. Cammi, 
 J. W. Ochterski, R. L. Martin, K. Morokuma, O. Farkas, 
 J. B. Foresman, and D. J. Fox, Gaussian, Inc., Wallingford CT, 2016.
 
 ******************************************
 Gaussian 16:  EM64L-G16RevA.03 25-Dec-2016
                26-Jan-2018 
 ******************************************
 %nprocshared=32
 Will use up to   32 processors via shared memory.
 %mem=32GB
 %chk=allatoms_t.chk
 ---------------------------------------
 #p wb97xd/cc-pvdz sp scf=(maxcycles=20)
 ---------------------------------------
 1/38=1,172=1/1;
 2/12=2,17=6,18=5,40=1/2;
 3/5=16,11=2,25=1,30=1,74=-58/1,2,3;
 4//1;
 5/5=2,7=20,38=5/2;
 6/7=2,8=2,9=2,10=2,28=1/1;
 99/5=1,9=1/99;
 Leave Link    1 at Fri Jan 26 15:01:28 2018, MaxMem=  4294967296 cpu:               2.7 elap:               0.1
 (Enter /share/apps/g16/l101.exe)
 ------------------
 Base pair stacking
 ------------------
 Symbolic Z-matrix:
 Charge =  0 Multiplicity = 1
 N                     5.51851  -1.41463  -5.96469 
 C                     6.89878  -0.89503  -6.01824 
 C                     3.32622  -1.5805   -6.0252 
 N                     3.80315  -2.84805  -5.72425 
 C                     5.10484  -2.69739  -5.69984 
 H                     5.81761  -3.49595  -5.49198 
 N                     1.89671   0.2371   -6.48977 
 C                     3.00292   0.97919  -6.60458 
 H                     2.83614   2.02861  -6.84363 
 N                     4.27824   0.62126  -6.46906 
 C                     4.37181  -0.68639  -6.17625 
 C                     2.02439  -1.07499  -6.19447 
 N                     0.92132  -1.8174   -6.07945 
 H                     0.96845  -2.79296  -5.86201 
 H                     0.01072  -1.42399  -6.20664 
 H                     7.4127   -1.3824   -6.72431 
 H                     6.88026   0.08069  -6.23445 
 H                     7.34258  -1.03004  -5.13234 
 N                     3.01775   3.39155  -3.19562 
 C                     1.75322   2.85807  -3.262 
 C                     3.34698   4.8256   -3.32132 
 N                    -1.6725    3.27917  -3.64786 
 H                    -2.48918   2.70299  -3.66517 
 H                    -1.80845   4.2627   -3.76991 
 N                     0.60821   3.54875  -3.45168 
 C                    -0.44956   2.75728  -3.4691 
 N                    -0.39254   1.39351  -3.31289 
 H                    -1.25265   0.86775  -3.34006 
 C                     0.7745    0.66185  -3.11651 
 O                     0.71628  -0.56716  -2.9866 
 C                     1.91926   1.49848  -3.09546 
 N                     3.26104   1.18471  -2.92789 
 C                     3.87313   2.33586  -2.99434 
 H                     4.95122   2.47212  -2.90258 
 H                     3.95732   4.96209  -4.10085 
 H                     2.50656   5.34724  -3.46217 
 H                     3.79739   5.14031  -2.48651 
 H                    -5.79925  -1.23389  -4.21428 
 H                    -5.87292  -1.30541  -2.45527 
 H                    -4.9955    0.00356  -3.24781 
 H                    -3.00165  -5.05583  -3.36999 
 C                    -2.94836  -3.96807  -3.32353 
 O                    -0.57924  -3.9047   -3.22173 
 C                    -1.66868  -3.33251  -3.2441 
 H                    -0.82946  -1.46924  -3.1332 
 N                    -1.71406  -1.95401  -3.18996 
 O                    -2.77375   0.05419  -3.1527 
 C                    -2.83455  -1.16165  -3.20468 
 H                    -5.05621  -3.65656  -3.39915 
 C                    -4.05918  -3.22212  -3.33973 
 C                    -5.25511  -1.04328  -3.30124 
 N                    -4.03041  -1.84798  -3.28266 
 H                    -5.01225   3.8794   -7.78674 
 H                    -3.77321   3.95223  -6.72769 
 H                    -5.31184   3.93233  -6.18334 
 H                    -2.56716  -2.961    -6.27151 
 H                    -4.20735  -2.61576  -6.58882 
 N                    -3.27983  -2.2769   -6.42725 
 C                    -3.00654  -0.9706   -6.42002 
 C                    -3.53575   1.34255  -6.59609 
 N                    -2.28094   1.76876  -6.37643 
 H                    -0.421     0.99266  -6.00373 
 C                    -1.46285   0.73502  -6.18933 
 N                    -1.73464  -0.57405  -6.19619 
 H                    -6.70452   1.57265  -7.1945 
 C                    -5.68923   1.22941  -6.99375 
 N                    -5.33533  -0.02788  -6.8857 
 C                    -3.97231   0.02972  -6.63353 
 C                    -4.69002   3.58698  -6.88637 
 N                    -4.65028   2.1128   -6.82963 
 
 ITRead=  0  0  0  0  0  0  0  0  0  0  0  0  0  0  0  0  0  0  0  0
 ITRead=  0  0  0  0  0  0  0  0  0  0  0  0  0  0  0  0  0  0  0  0
 ITRead=  0  0  0  0  0  0  0  0  0  0  0  0  0  0  0  0  0  0  0  0
 ITRead=  0  0  0  0  0  0  0  0  0  0
 MicOpt= -1 -1 -1 -1 -1 -1 -1 -1 -1 -1 -1 -1 -1 -1 -1 -1 -1 -1 -1 -1
 MicOpt= -1 -1 -1 -1 -1 -1 -1 -1 -1 -1 -1 -1 -1 -1 -1 -1 -1 -1 -1 -1
 MicOpt= -1 -1 -1 -1 -1 -1 -1 -1 -1 -1 -1 -1 -1 -1 -1 -1 -1 -1 -1 -1
 MicOpt= -1 -1 -1 -1 -1 -1 -1 -1 -1 -1
 NAtoms=     70 NQM=       70 NQMF=       0 NMMI=      0 NMMIF=      0
                NMic=       0 NMicF=      0.
                    Isotopes and Nuclear Properties:
 (Nuclear quadrupole moments (NQMom) in fm**2, nuclear magnetic moments (NMagM)
  in nuclear magnetons)

  Atom         1           2           3           4           5           6           7           8           9          10
 IAtWgt=          14          12          12          14          12           1          14          12           1          14
 AtmWgt=  14.0030740  12.0000000  12.0000000  14.0030740  12.0000000   1.0078250  14.0030740  12.0000000   1.0078250  14.0030740
 NucSpn=           2           0           0           2           0           1           2           0           1           2
 AtZEff=  -0.0000000  -0.0000000  -0.0000000  -0.0000000  -0.0000000  -0.0000000  -0.0000000  -0.0000000  -0.0000000  -0.0000000
 NQMom=    2.0440000   0.0000000   0.0000000   2.0440000   0.0000000   0.0000000   2.0440000   0.0000000   0.0000000   2.0440000
 NMagM=    0.4037610   0.0000000   0.0000000   0.4037610   0.0000000   2.7928460   0.4037610   0.0000000   2.7928460   0.4037610
 AtZNuc=   7.0000000   6.0000000   6.0000000   7.0000000   6.0000000   1.0000000   7.0000000   6.0000000   1.0000000   7.0000000

  Atom        11          12          13          14          15          16          17          18          19          20
 IAtWgt=          12          12          14           1           1           1           1           1          14          12
 AtmWgt=  12.0000000  12.0000000  14.0030740   1.0078250   1.0078250   1.0078250   1.0078250   1.0078250  14.0030740  12.0000000
 NucSpn=           0           0           2           1           1           1           1           1           2           0
 AtZEff=  -0.0000000  -0.0000000  -0.0000000  -0.0000000  -0.0000000  -0.0000000  -0.0000000  -0.0000000  -0.0000000  -0.0000000
 NQMom=    0.0000000   0.0000000   2.0440000   0.0000000   0.0000000   0.0000000   0.0000000   0.0000000   2.0440000   0.0000000
 NMagM=    0.0000000   0.0000000   0.4037610   2.7928460   2.7928460   2.7928460   2.7928460   2.7928460   0.4037610   0.0000000
 AtZNuc=   6.0000000   6.0000000   7.0000000   1.0000000   1.0000000   1.0000000   1.0000000   1.0000000   7.0000000   6.0000000

  Atom        21          22          23          24          25          26          27          28          29          30
 IAtWgt=          12          14           1           1          14          12          14           1          12          16
 AtmWgt=  12.0000000  14.0030740   1.0078250   1.0078250  14.0030740  12.0000000  14.0030740   1.0078250  12.0000000  15.9949146
 NucSpn=           0           2           1           1           2           0           2           1           0           0
 AtZEff=  -0.0000000  -0.0000000  -0.0000000  -0.0000000  -0.0000000  -0.0000000  -0.0000000  -0.0000000  -0.0000000  -0.0000000
 NQMom=    0.0000000   2.0440000   0.0000000   0.0000000   2.0440000   0.0000000   2.0440000   0.0000000   0.0000000   0.0000000
 NMagM=    0.0000000   0.4037610   2.7928460   2.7928460   0.4037610   0.0000000   0.4037610   2.7928460   0.0000000   0.0000000
 AtZNuc=   6.0000000   7.0000000   1.0000000   1.0000000   7.0000000   6.0000000   7.0000000   1.0000000   6.0000000   8.0000000

  Atom        31          32          33          34          35          36          37          38          39          40
 IAtWgt=          12          14          12           1           1           1           1           1           1           1
 AtmWgt=  12.0000000  14.0030740  12.0000000   1.0078250   1.0078250   1.0078250   1.0078250   1.0078250   1.0078250   1.0078250
 NucSpn=           0           2           0           1           1           1           1           1           1           1
 AtZEff=  -0.0000000  -0.0000000  -0.0000000  -0.0000000  -0.0000000  -0.0000000  -0.0000000  -0.0000000  -0.0000000  -0.0000000
 NQMom=    0.0000000   2.0440000   0.0000000   0.0000000   0.0000000   0.0000000   0.0000000   0.0000000   0.0000000   0.0000000
 NMagM=    0.0000000   0.4037610   0.0000000   2.7928460   2.7928460   2.7928460   2.7928460   2.7928460   2.7928460   2.7928460
 AtZNuc=   6.0000000   7.0000000   6.0000000   1.0000000   1.0000000   1.0000000   1.0000000   1.0000000   1.0000000   1.0000000

  Atom        41          42          43          44          45          46          47          48          49          50
 IAtWgt=           1          12          16          12           1          14          16          12           1          12
 AtmWgt=   1.0078250  12.0000000  15.9949146  12.0000000   1.0078250  14.0030740  15.9949146  12.0000000   1.0078250  12.0000000
 NucSpn=           1           0           0           0           1           2           0           0           1           0
 AtZEff=  -0.0000000  -0.0000000  -0.0000000  -0.0000000  -0.0000000  -0.0000000  -0.0000000  -0.0000000  -0.0000000  -0.0000000
 NQMom=    0.0000000   0.0000000   0.0000000   0.0000000   0.0000000   2.0440000   0.0000000   0.0000000   0.0000000   0.0000000
 NMagM=    2.7928460   0.0000000   0.0000000   0.0000000   2.7928460   0.4037610   0.0000000   0.0000000   2.7928460   0.0000000
 AtZNuc=   1.0000000   6.0000000   8.0000000   6.0000000   1.0000000   7.0000000   8.0000000   6.0000000   1.0000000   6.0000000

  Atom        51          52          53          54          55          56          57          58          59          60
 IAtWgt=          12          14           1           1           1           1           1          14          12          12
 AtmWgt=  12.0000000  14.0030740   1.0078250   1.0078250   1.0078250   1.0078250   1.0078250  14.0030740  12.0000000  12.0000000
 NucSpn=           0           2           1           1           1           1           1           2           0           0
 AtZEff=  -0.0000000  -0.0000000  -0.0000000  -0.0000000  -0.0000000  -0.0000000  -0.0000000  -0.0000000  -0.0000000  -0.0000000
 NQMom=    0.0000000   2.0440000   0.0000000   0.0000000   0.0000000   0.0000000   0.0000000   2.0440000   0.0000000   0.0000000
 NMagM=    0.0000000   0.4037610   2.7928460   2.7928460   2.7928460   2.7928460   2.7928460   0.4037610   0.0000000   0.0000000
 AtZNuc=   6.0000000   7.0000000   1.0000000   1.0000000   1.0000000   1.0000000   1.0000000   7.0000000   6.0000000   6.0000000

  Atom        61          62          63          64          65          66          67          68          69          70
 IAtWgt=          14           1          12          14           1          12          14          12          12          14
 AtmWgt=  14.0030740   1.0078250  12.0000000  14.0030740   1.0078250  12.0000000  14.0030740  12.0000000  12.0000000  14.0030740
 NucSpn=           2           1           0           2           1           0           2           0           0           2
 AtZEff=  -0.0000000  -0.0000000  -0.0000000  -0.0000000  -0.0000000  -0.0000000  -0.0000000  -0.0000000  -0.0000000  -0.0000000
 NQMom=    2.0440000   0.0000000   0.0000000   2.0440000   0.0000000   0.0000000   2.0440000   0.0000000   0.0000000   2.0440000
 NMagM=    0.4037610   2.7928460   0.0000000   0.4037610   2.7928460   0.0000000   0.4037610   0.0000000   0.0000000   0.4037610
 AtZNuc=   7.0000000   1.0000000   6.0000000   7.0000000   1.0000000   6.0000000   7.0000000   6.0000000   6.0000000   7.0000000
 Leave Link  101 at Fri Jan 26 15:01:29 2018, MaxMem=  4294967296 cpu:               7.7 elap:               0.3
 (Enter /share/apps/g16/l202.exe)
 Stoichiometry    C23H27N17O3
 Framework group  C1[X(C23H27N17O3)]
 Deg. of freedom   204
 Full point group                 C1      NOp   1
 Largest Abelian subgroup         C1      NOp   1
 Largest concise Abelian subgroup C1      NOp   1
                         Standard orientation:                         
 ---------------------------------------------------------------------
 Center     Atomic      Atomic             Coordinates (Angstroms)
 Number     Number       Type             X           Y           Z
 ---------------------------------------------------------------------
      1          7           0       -5.598119   -1.898514    1.198490
      2          6           0       -7.005886   -1.468727    1.305601
      3          6           0       -3.398961   -1.929979    1.203412
      4          7           0       -3.804622   -3.210465    0.856268
      5          6           0       -5.113302   -3.140262    0.867197
      6          1           0       -5.780723   -3.971860    0.639294
      7          7           0       -2.072460   -0.048821    1.717839
      8          6           0       -3.218884    0.617216    1.890135
      9          1           0       -3.110860    1.663579    2.172442
     10          7           0       -4.472836    0.186782    1.766635
     11          6           0       -4.493317   -1.110164    1.417414
     12          6           0       -2.126766   -1.352210    1.366679
     13          7           0       -0.983460   -2.018752    1.194226
     14          1           0       -0.976087   -2.984957    0.934203
     15          1           0       -0.095812   -1.575296    1.318998
     16          1           0       -7.471419   -2.017447    2.000125
     17          1           0       -7.041847   -0.504091    1.565030
     18          1           0       -7.462290   -1.592413    0.424465
     19          7           0       -3.465514    3.170125   -1.405701
     20          6           0       -2.169427    2.714066   -1.391120
     21          6           0       -3.878774    4.574045   -1.208428
     22          7           0        1.232534    3.330537   -1.061883
     23          1           0        2.083154    2.806142   -1.088416
     24          1           0        1.310947    4.314376   -0.898719
     25          7           0       -1.064549    3.465813   -1.195702
     26          6           0        0.039826    2.741763   -1.237094
     27          7           0        0.062622    1.385188   -1.453212
     28          1           0        0.953731    0.913343   -1.468580
     29          6           0       -1.061893    0.591500   -1.656683
     30          8           0       -0.931716   -0.624671   -1.842997
     31          6           0       -2.255924    1.355318   -1.614977
     32          7           0       -3.579686    0.966172   -1.767045
     33          6           0       -4.259319    2.072971   -1.635474
     34          1           0       -5.345666    2.145677   -1.697360
     35          1           0       -4.476922    4.638175   -0.410357
     36          1           0       -3.068670    5.140393   -1.062707
     37          1           0       -4.368063    4.896142   -2.018161
     38          1           0        5.640707   -0.937075   -0.789656
     39          1           0        5.675226   -0.927199   -2.551294
     40          1           0        4.739077    0.288816   -1.681628
     41          1           0        3.062522   -4.885459   -1.743512
     42          6           0        2.941568   -3.802142   -1.739810
     43          8           0        0.571227   -3.882097   -1.786705
     44          6           0        1.623790   -3.244674   -1.762500
     45          1           0        0.669525   -1.434240   -1.771042
     46          7           0        1.583291   -1.864977   -1.755551
     47          8           0        2.516729    0.205046   -1.725645
     48          6           0        2.653159   -1.005753   -1.729761
     49          1           0        5.027600   -3.363526   -1.696469
     50          6           0        4.004667   -2.989861   -1.714418
     51          6           0        5.063565   -0.741151   -1.681050
     52          7           0        3.890375   -1.619002   -1.708966
     53          1           0        4.630276    3.956832    3.025614
     54          1           0        3.363367    3.998388    1.998325
     55          1           0        4.886436    4.098094    1.420038
     56          1           0        2.572196   -2.950106    1.258138
     57          1           0        4.195481   -2.517514    1.554633
     58          7           0        3.245244   -2.230374    1.428839
     59          6           0        2.892350   -0.944561    1.486376
     60          6           0        3.283046    1.387196    1.754690
     61          7           0        1.999449    1.743575    1.581982
     62          1           0        0.181922    0.870092    1.215600
     63          6           0        1.241857    0.670013    1.366541
     64          7           0        1.593415   -0.618639    1.308543
     65          1           0        6.445558    1.787958    2.293250
     66          6           0        5.448561    1.391209    2.099562
     67          7           0        5.169789    0.120216    1.942841
     68          6           0        3.799998    0.103727    1.723453
     69          6           0        4.304463    3.684394    2.120280
     70          7           0        4.353717    2.214473    1.998161
 ---------------------------------------------------------------------
 Rotational constants (GHZ):           0.1151011           0.0605098           0.0516236
 Leave Link  202 at Fri Jan 26 15:01:29 2018, MaxMem=  4294967296 cpu:               0.4 elap:               0.0
 (Enter /share/apps/g16/l301.exe)
 Standard basis: CC-pVDZ (5D, 7F)
 Ernie: Thresh=  0.10000D-02 Tol=  0.10000D-05 Strict=F.
 Ernie:  86 primitive shells out of 1081 were deleted.
 There are   780 symmetry adapted cartesian basis functions of A   symmetry.
 There are   737 symmetry adapted basis functions of A   symmetry.
   737 basis functions,  1608 primitive gaussians,   780 cartesian basis functions
   154 alpha electrons      154 beta electrons
       nuclear repulsion energy      5457.5482211848 Hartrees.
 IExCor= 4639 DFT=T Ex+Corr=wB97XD ExCW=0 ScaHFX=  1.000000
 ScaDFX=  1.000000  1.000000  1.000000  1.000000 ScalE2=  1.000000  1.000000
 IRadAn=      5 IRanWt=     -1 IRanGd=            0 ICorTp=0 IEmpDi=121
 HFx  wShort=  0.000000 wLong=  0.200000 cFull=  0.222036 cShort=  0.000000 cLong=  0.777964
 DFx  wShort=  0.000000 wLong=  0.200000 cFull=  0.000000 cShort=  0.000000 cLong=  1.000000
 NAtoms=   70 NActive=   70 NUniq=   70 SFac= 1.00D+00 NAtFMM=   60 NAOKFM=T Big=T
 Integral buffers will be    131072 words long.
 Raffenetti 2 integral format.
 Two-electron integral symmetry is turned on.
 R6Disp:  Grimme-D2 Dispersion energy=       -0.0667037043 Hartrees.
 Nuclear repulsion after empirical dispersion term =     5457.4815174805 Hartrees.
 Leave Link  301 at Fri Jan 26 15:01:29 2018, MaxMem=  4294967296 cpu:               3.0 elap:               0.1
 (Enter /share/apps/g16/l302.exe)
 NPDir=0 NMtPBC=     1 NCelOv=     1 NCel=       1 NClECP=     1 NCelD=      1
         NCelK=      1 NCelE2=     1 NClLst=     1 CellRange=     0.0.
 One-electron integrals computed using PRISM.
 One-electron integral symmetry used in STVInt
 NBasis=   737 RedAO= T EigKep=  7.13D-04  NBF=   737
 NBsUse=   737 1.00D-06 EigRej= -1.00D+00 NBFU=   737
 Precomputing XC quadrature grid using
 IXCGrd= 4 IRadAn=           5 IRanWt=          -1 IRanGd=           0 AccXCQ= 0.00D+00.
 Generated NRdTot=       0 NPtTot=           0 NUsed=           0 NTot=          32
 NSgBfM=   761   760   761   761   761 MxSgAt=    70 MxSgA2=    70.
 Leave Link  302 at Fri Jan 26 15:01:33 2018, MaxMem=  4294967296 cpu:             139.3 elap:               4.4
 (Enter /share/apps/g16/l303.exe)
 DipDrv:  MaxL=1.
 Leave Link  303 at Fri Jan 26 15:01:34 2018, MaxMem=  4294967296 cpu:              12.4 elap:               0.4
 (Enter /share/apps/g16/l401.exe)
 ExpMin= 1.22D-01 ExpMax= 1.17D+04 ExpMxC= 4.01D+02 IAcc=3 IRadAn=         5 AccDes= 0.00D+00
 Harris functional with IExCor= 4639 and IRadAn=       5 diagonalized for initial guess.
 HarFok:  IExCor= 4639 AccDes= 0.00D+00 IRadAn=         5 IDoV= 1 UseB2=F ITyADJ=14
 ICtDFT=  3500011 ScaDFX=  1.000000  1.000000  1.000000  1.000000
 FoFCou: FMM=F IPFlag=           0 FMFlag=      100000 FMFlg1=        2001
         NFxFlg=           0 DoJE=T BraDBF=F KetDBF=T FulRan=T
         wScrn=  0.000000 ICntrl=       500 IOpCl=  0 I1Cent=   200000004 NGrid=           0
         NMat0=    1 NMatS0=      1 NMatT0=    0 NMatD0=    1 NMtDS0=    0 NMtDT0=    0
 Petite list used in FoFCou.
 Harris En= -1963.88865565660    
 JPrj=0 DoOrth=F DoCkMO=F.
 Leave Link  401 at Fri Jan 26 15:01:46 2018, MaxMem=  4294967296 cpu:             395.5 elap:              12.4
 (Enter /share/apps/g16/l502.exe)
 Integral symmetry usage will be decided dynamically.
 Closed shell SCF:
 Using DIIS extrapolation, IDIIS=  1040.
 NGot=  4294967296 LenX=  4293717438 LenY=  4293108258
 Requested convergence on RMS density matrix=1.00D-08 within  20 cycles.
 Requested convergence on MAX density matrix=1.00D-06.
 Requested convergence on             energy=1.00D-06.
 No special actions if energy rises.
 Fock matrices will be formed incrementally for  20 cycles.
 Integral accuracy reduced to 1.0D-05 until final iterations.

 Cycle   1  Pass 0  IDiag  1:
 FoFJK:  IHMeth= 1 ICntrl=       0 DoSepK=T KAlg= 0 I1Cent=           0 FoldK=F
 IRaf=         1 NMat=       1 IRICut=       1 DoRegI=T DoRafI=F ISym2E= 0 IDoP0=0 IntGTp=1.
 FoFCou: FMM=T IPFlag=           0 FMFlag=      100000 FMFlg1=        2001
         NFxFlg=           0 DoJE=T BraDBF=F KetDBF=F FulRan=T
         wScrn=  0.000000 ICntrl=       500 IOpCl=  0 I1Cent=           0 NGrid=           0
         NMat0=    1 NMatS0=      1 NMatT0=    0 NMatD0=    1 NMtDS0=    0 NMtDT0=    0
 Symmetry not used in FoFCou.
 FMM levels:  10  Number of levels for PrismC:   9
 E= -2048.31316000862    
 DIIS: error= 2.48D-02 at cycle   1 NSaved=   1.
 NSaved= 1 IEnMin= 1 EnMin= -2048.31316000862     IErMin= 1 ErrMin= 2.48D-02
 ErrMax= 2.48D-02  0.00D+00 EMaxC= 1.00D-01 BMatC= 8.32D-01 BMatP= 8.32D-01
 IDIUse=3 WtCom= 7.52D-01 WtEn= 2.48D-01
 Coeff-Com:  0.100D+01
 Coeff-En:   0.100D+01
 Coeff:      0.100D+01
 Gap=     0.247 Goal=   None    Shift=    0.000
 GapD=    0.247 DampG=1.000 DampE=0.500 DampFc=0.5000 IDamp=-1.
 Damping current iteration by 5.00D-01
 RMSDP=1.55D-03 MaxDP=1.32D-01              OVMax= 2.02D-01

 Cycle   2  Pass 0  IDiag  1:
 RMSU=  7.77D-04    CP:  9.98D-01
 E= -2048.51174266851     Delta-E=       -0.198582659889 Rises=F Damp=T
 DIIS: error= 1.39D-02 at cycle   2 NSaved=   2.
 NSaved= 2 IEnMin= 2 EnMin= -2048.51174266851     IErMin= 2 ErrMin= 1.39D-02
 ErrMax= 1.39D-02  0.00D+00 EMaxC= 1.00D-01 BMatC= 1.45D-01 BMatP= 8.32D-01
 IDIUse=3 WtCom= 8.61D-01 WtEn= 1.39D-01
 Coeff-Com: -0.202D+00 0.120D+01
 Coeff-En:   0.000D+00 0.100D+01
 Coeff:     -0.174D+00 0.117D+01
 Gap=     0.333 Goal=   None    Shift=    0.000
 RMSDP=5.74D-04 MaxDP=3.57D-02 DE=-1.99D-01 OVMax= 1.53D-01

 Cycle   3  Pass 0  IDiag  1:
 RMSU=  5.60D-04    CP:  9.94D-01  1.15D+00
 E= -2048.69393582868     Delta-E=       -0.182193160169 Rises=F Damp=F
 DIIS: error= 8.07D-03 at cycle   3 NSaved=   3.
 NSaved= 3 IEnMin= 3 EnMin= -2048.69393582868     IErMin= 3 ErrMin= 8.07D-03
 ErrMax= 8.07D-03  0.00D+00 EMaxC= 1.00D-01 BMatC= 5.98D-02 BMatP= 1.45D-01
 IDIUse=3 WtCom= 9.19D-01 WtEn= 8.07D-02
 Coeff-Com: -0.229D+00 0.542D+00 0.687D+00
 Coeff-En:   0.000D+00 0.000D+00 0.100D+01
 Coeff:     -0.211D+00 0.498D+00 0.713D+00
 Gap=     0.272 Goal=   None    Shift=    0.000
 RMSDP=3.40D-04 MaxDP=3.52D-02 DE=-1.82D-01 OVMax= 6.74D-02

 Cycle   4  Pass 0  IDiag  1:
 RMSU=  1.97D-04    CP:  9.95D-01  1.43D+00  6.81D-01
 E= -2048.73855505419     Delta-E=       -0.044619225511 Rises=F Damp=F
 DIIS: error= 3.34D-03 at cycle   4 NSaved=   4.
 NSaved= 4 IEnMin= 4 EnMin= -2048.73855505419     IErMin= 4 ErrMin= 3.34D-03
 ErrMax= 3.34D-03  0.00D+00 EMaxC= 1.00D-01 BMatC= 8.91D-03 BMatP= 5.98D-02
 IDIUse=3 WtCom= 9.67D-01 WtEn= 3.34D-02
 Coeff-Com: -0.938D-01 0.182D+00 0.381D+00 0.531D+00
 Coeff-En:   0.000D+00 0.000D+00 0.642D-01 0.936D+00
 Coeff:     -0.907D-01 0.176D+00 0.371D+00 0.544D+00
 Gap=     0.277 Goal=   None    Shift=    0.000
 RMSDP=1.24D-04 MaxDP=1.32D-02 DE=-4.46D-02 OVMax= 1.51D-02

 Cycle   5  Pass 0  IDiag  1:
 RMSU=  6.17D-05    CP:  9.94D-01  1.40D+00  8.13D-01  6.19D-01
 E= -2048.74567877400     Delta-E=       -0.007123719813 Rises=F Damp=F
 DIIS: error= 6.97D-04 at cycle   5 NSaved=   5.
 NSaved= 5 IEnMin= 5 EnMin= -2048.74567877400     IErMin= 5 ErrMin= 6.97D-04
 ErrMax= 6.97D-04  0.00D+00 EMaxC= 1.00D-01 BMatC= 3.07D-04 BMatP= 8.91D-03
 IDIUse=3 WtCom= 9.93D-01 WtEn= 6.97D-03
 Coeff-Com: -0.241D-01 0.413D-01 0.123D+00 0.245D+00 0.614D+00
 Coeff-En:   0.000D+00 0.000D+00 0.000D+00 0.000D+00 0.100D+01
 Coeff:     -0.240D-01 0.410D-01 0.122D+00 0.244D+00 0.617D+00
 Gap=     0.277 Goal=   None    Shift=    0.000
 RMSDP=2.51D-05 MaxDP=2.54D-03 DE=-7.12D-03 OVMax= 3.71D-03

 Failed to achieve initial convergence to 1.0D-08 in  6 cycles.
 Switch to full accuracy anyway.
 Cycle   6  Pass 1  IDiag  1:
 E= -2048.74617823937     Delta-E=       -0.000499465365 Rises=F Damp=F
 DIIS: error= 2.83D-04 at cycle   1 NSaved=   1.
 NSaved= 1 IEnMin= 1 EnMin= -2048.74617823937     IErMin= 1 ErrMin= 2.83D-04
 ErrMax= 2.83D-04  0.00D+00 EMaxC= 1.00D-01 BMatC= 7.58D-05 BMatP= 7.58D-05
 IDIUse=3 WtCom= 9.97D-01 WtEn= 2.83D-03
 Coeff-Com:  0.100D+01
 Coeff-En:   0.100D+01
 Coeff:      0.100D+01
 Gap=     0.277 Goal=   None    Shift=    0.000
 RMSDP=2.51D-05 MaxDP=2.54D-03 DE=-4.99D-04 OVMax= 2.12D-03

 Cycle   7  Pass 1  IDiag  1:
 RMSU=  1.14D-04    CP:  1.00D+00
 E= -2048.74623367568     Delta-E=       -0.000055436312 Rises=F Damp=F
 DIIS: error= 3.22D-04 at cycle   2 NSaved=   2.
 NSaved= 2 IEnMin= 2 EnMin= -2048.74623367568     IErMin= 1 ErrMin= 2.83D-04
 ErrMax= 3.22D-04  0.00D+00 EMaxC= 1.00D-01 BMatC= 4.60D-05 BMatP= 7.58D-05
 IDIUse=3 WtCom= 9.97D-01 WtEn= 3.22D-03
 Coeff-Com:  0.416D+00 0.584D+00
 Coeff-En:   0.000D+00 0.100D+01
 Coeff:      0.415D+00 0.585D+00
 Gap=     0.277 Goal=   None    Shift=    0.000
 RMSDP=1.09D-05 MaxDP=1.48D-03 DE=-5.54D-05 OVMax= 1.78D-03

 Cycle   8  Pass 1  IDiag  1:
 RMSU=  1.05D-05    CP:  1.00D+00  1.03D+00
 E= -2048.74626541226     Delta-E=       -0.000031736583 Rises=F Damp=F
 DIIS: error= 1.47D-04 at cycle   3 NSaved=   3.
 NSaved= 3 IEnMin= 3 EnMin= -2048.74626541226     IErMin= 3 ErrMin= 1.47D-04
 ErrMax= 1.47D-04  0.00D+00 EMaxC= 1.00D-01 BMatC= 1.06D-05 BMatP= 4.60D-05
 IDIUse=3 WtCom= 9.99D-01 WtEn= 1.47D-03
 Coeff-Com: -0.193D-01 0.312D+00 0.707D+00
 Coeff-En:   0.000D+00 0.132D+00 0.868D+00
 Coeff:     -0.193D-01 0.312D+00 0.707D+00
 Gap=     0.277 Goal=   None    Shift=    0.000
 RMSDP=5.54D-06 MaxDP=5.53D-04 DE=-3.17D-05 OVMax= 6.07D-04

 Cycle   9  Pass 1  IDiag  1:
 RMSU=  3.77D-06    CP:  1.00D+00  1.05D+00  7.63D-01
 E= -2048.74627475533     Delta-E=       -0.000009343067 Rises=F Damp=F
 DIIS: error= 3.41D-05 at cycle   4 NSaved=   4.
 NSaved= 4 IEnMin= 4 EnMin= -2048.74627475533     IErMin= 4 ErrMin= 3.41D-05
 ErrMax= 3.41D-05  0.00D+00 EMaxC= 1.00D-01 BMatC= 4.91D-07 BMatP= 1.06D-05
 IDIUse=1 WtCom= 1.00D+00 WtEn= 0.00D+00
 Coeff-Com: -0.309D-01 0.872D-01 0.259D+00 0.685D+00
 Coeff:     -0.309D-01 0.872D-01 0.259D+00 0.685D+00
 Gap=     0.277 Goal=   None    Shift=    0.000
 RMSDP=1.40D-06 MaxDP=1.46D-04 DE=-9.34D-06 OVMax= 4.94D-04

 Cycle  10  Pass 1  IDiag  1:
 RMSU=  1.25D-06    CP:  1.00D+00  1.06D+00  7.95D-01  1.10D+00
 E= -2048.74627556121     Delta-E=       -0.000000805887 Rises=F Damp=F
 DIIS: error= 1.51D-05 at cycle   5 NSaved=   5.
 NSaved= 5 IEnMin= 5 EnMin= -2048.74627556121     IErMin= 5 ErrMin= 1.51D-05
 ErrMax= 1.51D-05  0.00D+00 EMaxC= 1.00D-01 BMatC= 1.14D-07 BMatP= 4.91D-07
 IDIUse=1 WtCom= 1.00D+00 WtEn= 0.00D+00
 Coeff-Com: -0.275D-02-0.531D-01-0.120D+00 0.198D+00 0.978D+00
 Coeff:     -0.275D-02-0.531D-01-0.120D+00 0.198D+00 0.978D+00
 Gap=     0.277 Goal=   None    Shift=    0.000
 RMSDP=1.17D-06 MaxDP=7.59D-05 DE=-8.06D-07 OVMax= 2.35D-04

 Cycle  11  Pass 1  IDiag  1:
 RMSU=  4.86D-07    CP:  1.00D+00  1.06D+00  8.03D-01  1.38D+00  1.16D+00
 E= -2048.74627580579     Delta-E=       -0.000000244579 Rises=F Damp=F
 DIIS: error= 9.74D-06 at cycle   6 NSaved=   6.
 NSaved= 6 IEnMin= 6 EnMin= -2048.74627580579     IErMin= 6 ErrMin= 9.74D-06
 ErrMax= 9.74D-06  0.00D+00 EMaxC= 1.00D-01 BMatC= 2.72D-08 BMatP= 1.14D-07
 IDIUse=1 WtCom= 1.00D+00 WtEn= 0.00D+00
 Coeff-Com:  0.466D-02-0.436D-01-0.113D+00-0.546D-02 0.519D+00 0.638D+00
 Coeff:      0.466D-02-0.436D-01-0.113D+00-0.546D-02 0.519D+00 0.638D+00
 Gap=     0.277 Goal=   None    Shift=    0.000
 RMSDP=3.66D-07 MaxDP=3.74D-05 DE=-2.45D-07 OVMax= 1.23D-04

 Cycle  12  Pass 1  IDiag  1:
 RMSU=  1.84D-07    CP:  1.00D+00  1.06D+00  8.04D-01  1.45D+00  1.30D+00
                    CP:  9.15D-01
 E= -2048.74627584537     Delta-E=       -0.000000039576 Rises=F Damp=F
 DIIS: error= 1.38D-06 at cycle   7 NSaved=   7.
 NSaved= 7 IEnMin= 7 EnMin= -2048.74627584537     IErMin= 7 ErrMin= 1.38D-06
 ErrMax= 1.38D-06  0.00D+00 EMaxC= 1.00D-01 BMatC= 8.43D-10 BMatP= 2.72D-08
 IDIUse=1 WtCom= 1.00D+00 WtEn= 0.00D+00
 Coeff-Com:  0.121D-02-0.807D-02-0.227D-01-0.756D-02 0.695D-01 0.157D+00
 Coeff-Com:  0.811D+00
 Coeff:      0.121D-02-0.807D-02-0.227D-01-0.756D-02 0.695D-01 0.157D+00
 Coeff:      0.811D+00
 Gap=     0.277 Goal=   None    Shift=    0.000
 RMSDP=7.91D-08 MaxDP=5.33D-06 DE=-3.96D-08 OVMax= 2.19D-05

 Cycle  13  Pass 1  IDiag  1:
 RMSU=  5.00D-08    CP:  1.00D+00  1.06D+00  8.03D-01  1.46D+00  1.31D+00
                    CP:  1.00D+00  1.11D+00
 E= -2048.74627584696     Delta-E=       -0.000000001592 Rises=F Damp=F
 DIIS: error= 5.58D-07 at cycle   8 NSaved=   8.
 NSaved= 8 IEnMin= 8 EnMin= -2048.74627584696     IErMin= 8 ErrMin= 5.58D-07
 ErrMax= 5.58D-07  0.00D+00 EMaxC= 1.00D-01 BMatC= 3.27D-10 BMatP= 8.43D-10
 IDIUse=1 WtCom= 1.00D+00 WtEn= 0.00D+00
 Coeff-Com: -0.675D-03 0.807D-02 0.196D-01-0.761D-03-0.111D+00-0.934D-01
 Coeff-Com:  0.409D+00 0.769D+00
 Coeff:     -0.675D-03 0.807D-02 0.196D-01-0.761D-03-0.111D+00-0.934D-01
 Coeff:      0.409D+00 0.769D+00
 Gap=     0.277 Goal=   None    Shift=    0.000
 RMSDP=4.85D-08 MaxDP=2.96D-06 DE=-1.59D-09 OVMax= 1.16D-05

 Cycle  14  Pass 1  IDiag  1:
 RMSU=  2.79D-08    CP:  1.00D+00  1.06D+00  8.03D-01  1.46D+00  1.32D+00
                    CP:  1.04D+00  1.27D+00  1.06D+00
 E= -2048.74627584729     Delta-E=       -0.000000000333 Rises=F Damp=F
 DIIS: error= 2.10D-07 at cycle   9 NSaved=   9.
 NSaved= 9 IEnMin= 9 EnMin= -2048.74627584729     IErMin= 9 ErrMin= 2.10D-07
 ErrMax= 2.10D-07  0.00D+00 EMaxC= 1.00D-01 BMatC= 3.51D-11 BMatP= 3.27D-10
 IDIUse=1 WtCom= 1.00D+00 WtEn= 0.00D+00
 Coeff-Com: -0.445D-03 0.462D-02 0.115D-01 0.109D-02-0.568D-01-0.593D-01
 Coeff-Com:  0.870D-01 0.329D+00 0.684D+00
 Coeff:     -0.445D-03 0.462D-02 0.115D-01 0.109D-02-0.568D-01-0.593D-01
 Coeff:      0.870D-01 0.329D+00 0.684D+00
 Gap=     0.277 Goal=   None    Shift=    0.000
 RMSDP=1.34D-08 MaxDP=8.32D-07 DE=-3.33D-10 OVMax= 3.45D-06

 Cycle  15  Pass 1  IDiag  1:
 RMSU=  9.26D-09    CP:  1.00D+00  1.06D+00  8.03D-01  1.46D+00  1.32D+00
                    CP:  1.05D+00  1.29D+00  1.21D+00  1.09D+00
 E= -2048.74627584757     Delta-E=       -0.000000000276 Rises=F Damp=F
 DIIS: error= 7.14D-08 at cycle  10 NSaved=  10.
 NSaved=10 IEnMin=10 EnMin= -2048.74627584757     IErMin=10 ErrMin= 7.14D-08
 ErrMax= 7.14D-08  0.00D+00 EMaxC= 1.00D-01 BMatC= 4.79D-12 BMatP= 3.51D-11
 IDIUse=1 WtCom= 1.00D+00 WtEn= 0.00D+00
 Coeff-Com:  0.117D-05-0.257D-03-0.498D-03 0.101D-03 0.474D-02 0.758D-03
 Coeff-Com: -0.543D-01-0.559D-01 0.236D+00 0.870D+00
 Coeff:      0.117D-05-0.257D-03-0.498D-03 0.101D-03 0.474D-02 0.758D-03
 Coeff:     -0.543D-01-0.559D-01 0.236D+00 0.870D+00
 Gap=     0.277 Goal=   None    Shift=    0.000
 RMSDP=6.91D-09 MaxDP=4.14D-07 DE=-2.76D-10 OVMax= 1.64D-06

 SCF Done:  E(RwB97XD) =  -2048.74627585     A.U. after   15 cycles
            NFock= 15  Conv=0.69D-08     -V/T= 2.0054
 KE= 2.037677634726D+03 PE=-1.569585389886D+04 EE= 6.151948470809D+03
 Leave Link  502 at Fri Jan 26 15:12:39 2018, MaxMem=  4294967296 cpu:           20228.9 elap:             653.0
 (Enter /share/apps/g16/l601.exe)
 Copying SCF densities to generalized density rwf, IOpCl= 0 IROHF=0.

 **********************************************************************

            Population analysis using the SCF density.

 **********************************************************************

 Orbital symmetries:
       Occupied  (A) (A) (A) (A) (A) (A) (A) (A) (A) (A) (A) (A)
                 (A) (A) (A) (A) (A) (A) (A) (A) (A) (A) (A) (A)
                 (A) (A) (A) (A) (A) (A) (A) (A) (A) (A) (A) (A)
                 (A) (A) (A) (A) (A) (A) (A) (A) (A) (A) (A) (A)
                 (A) (A) (A) (A) (A) (A) (A) (A) (A) (A) (A) (A)
                 (A) (A) (A) (A) (A) (A) (A) (A) (A) (A) (A) (A)
                 (A) (A) (A) (A) (A) (A) (A) (A) (A) (A) (A) (A)
                 (A) (A) (A) (A) (A) (A) (A) (A) (A) (A) (A) (A)
                 (A) (A) (A) (A) (A) (A) (A) (A) (A) (A) (A) (A)
                 (A) (A) (A) (A) (A) (A) (A) (A) (A) (A) (A) (A)
                 (A) (A) (A) (A) (A) (A) (A) (A) (A) (A) (A) (A)
                 (A) (A) (A) (A) (A) (A) (A) (A) (A) (A) (A) (A)
                 (A) (A) (A) (A) (A) (A) (A) (A) (A) (A)
       Virtual   (A) (A) (A) (A) (A) (A) (A) (A) (A) (A) (A) (A)
                 (A) (A) (A) (A) (A) (A) (A) (A) (A) (A) (A) (A)
                 (A) (A) (A) (A) (A) (A) (A) (A) (A) (A) (A) (A)
                 (A) (A) (A) (A) (A) (A) (A) (A) (A) (A) (A) (A)
                 (A) (A) (A) (A) (A) (A) (A) (A) (A) (A) (A) (A)
                 (A) (A) (A) (A) (A) (A) (A) (A) (A) (A) (A) (A)
                 (A) (A) (A) (A) (A) (A) (A) (A) (A) (A) (A) (A)
                 (A) (A) (A) (A) (A) (A) (A) (A) (A) (A) (A) (A)
                 (A) (A) (A) (A) (A) (A) (A) (A) (A) (A) (A) (A)
                 (A) (A) (A) (A) (A) (A) (A) (A) (A) (A) (A) (A)
                 (A) (A) (A) (A) (A) (A) (A) (A) (A) (A) (A) (A)
                 (A) (A) (A) (A) (A) (A) (A) (A) (A) (A) (A) (A)
                 (A) (A) (A) (A) (A) (A) (A) (A) (A) (A) (A) (A)
                 (A) (A) (A) (A) (A) (A) (A) (A) (A) (A) (A) (A)
                 (A) (A) (A) (A) (A) (A) (A) (A) (A) (A) (A) (A)
                 (A) (A) (A) (A) (A) (A) (A) (A) (A) (A) (A) (A)
                 (A) (A) (A) (A) (A) (A) (A) (A) (A) (A) (A) (A)
                 (A) (A) (A) (A) (A) (A) (A) (A) (A) (A) (A) (A)
                 (A) (A) (A) (A) (A) (A) (A) (A) (A) (A) (A) (A)
                 (A) (A) (A) (A) (A) (A) (A) (A) (A) (A) (A) (A)
                 (A) (A) (A) (A) (A) (A) (A) (A) (A) (A) (A) (A)
                 (A) (A) (A) (A) (A) (A) (A) (A) (A) (A) (A) (A)
                 (A) (A) (A) (A) (A) (A) (A) (A) (A) (A) (A) (A)
                 (A) (A) (A) (A) (A) (A) (A) (A) (A) (A) (A) (A)
                 (A) (A) (A) (A) (A) (A) (A) (A) (A) (A) (A) (A)
                 (A) (A) (A) (A) (A) (A) (A) (A) (A) (A) (A) (A)
                 (A) (A) (A) (A) (A) (A) (A) (A) (A) (A) (A) (A)
                 (A) (A) (A) (A) (A) (A) (A) (A) (A) (A) (A) (A)
                 (A) (A) (A) (A) (A) (A) (A) (A) (A) (A) (A) (A)
                 (A) (A) (A) (A) (A) (A) (A) (A) (A) (A) (A) (A)
                 (A) (A) (A) (A) (A) (A) (A) (A) (A) (A) (A) (A)
                 (A) (A) (A) (A) (A) (A) (A) (A) (A) (A) (A) (A)
                 (A) (A) (A) (A) (A) (A) (A) (A) (A) (A) (A) (A)
                 (A) (A) (A) (A) (A) (A) (A) (A) (A) (A) (A) (A)
                 (A) (A) (A) (A) (A) (A) (A) (A) (A) (A) (A) (A)
                 (A) (A) (A) (A) (A) (A) (A) (A) (A) (A) (A) (A)
                 (A) (A) (A) (A) (A) (A) (A) (A) (A) (A) (A) (A)
                 (A) (A) (A) (A) (A) (A) (A) (A) (A) (A) (A) (A)
                 (A) (A) (A) (A) (A) (A) (A) (A) (A) (A) (A) (A)
                 (A) (A) (A) (A) (A) (A) (A) (A) (A) (A) (A) (A)
                 (A) (A) (A) (A) (A) (A) (A) (A) (A) (A) (A) (A)
                 (A) (A) (A) (A) (A) (A) (A) (A) (A) (A) (A) (A)
                 (A) (A) (A) (A) (A) (A) (A) (A) (A) (A) (A) (A)
                 (A) (A) (A) (A) (A) (A) (A) (A) (A) (A) (A) (A)
                 (A) (A) (A) (A) (A) (A) (A) (A) (A) (A) (A) (A)
                 (A) (A) (A) (A) (A) (A) (A) (A) (A) (A) (A) (A)
                 (A) (A) (A) (A) (A) (A) (A) (A) (A) (A) (A) (A)
                 (A) (A) (A) (A) (A) (A) (A) (A) (A) (A) (A) (A)
                 (A) (A) (A) (A) (A) (A) (A)
 The electronic state is 1-A.
 Alpha  occ. eigenvalues --  -19.25794 -19.22094 -19.20550 -14.52435 -14.52401
 Alpha  occ. eigenvalues --  -14.48747 -14.48426 -14.48126 -14.47822 -14.46867
 Alpha  occ. eigenvalues --  -14.46502 -14.45449 -14.44277 -14.44229 -14.41954
 Alpha  occ. eigenvalues --  -14.41929 -14.40780 -14.40768 -14.40363 -14.39816
 Alpha  occ. eigenvalues --  -10.45444 -10.41130 -10.40207 -10.39950 -10.38156
 Alpha  occ. eigenvalues --  -10.37993 -10.37968 -10.37126 -10.35623 -10.34982
 Alpha  occ. eigenvalues --  -10.34970 -10.34267 -10.33930 -10.33474 -10.33237
 Alpha  occ. eigenvalues --  -10.32753 -10.32631 -10.32580 -10.31299 -10.30929
 Alpha  occ. eigenvalues --  -10.30418 -10.28024 -10.27943  -1.19391  -1.15135
 Alpha  occ. eigenvalues --   -1.13141  -1.13089  -1.10709  -1.10534  -1.09372
 Alpha  occ. eigenvalues --   -1.09261  -1.08470  -1.04864  -1.04518  -1.02471
 Alpha  occ. eigenvalues --   -1.00963  -0.99965  -0.99625  -0.98488  -0.96847
 Alpha  occ. eigenvalues --   -0.96543  -0.96351  -0.92202  -0.91182  -0.87570
 Alpha  occ. eigenvalues --   -0.85894  -0.84050  -0.83525  -0.83353  -0.82471
 Alpha  occ. eigenvalues --   -0.81767  -0.78955  -0.77014  -0.74811  -0.74542
 Alpha  occ. eigenvalues --   -0.73574  -0.73346  -0.72412  -0.70554  -0.70396
 Alpha  occ. eigenvalues --   -0.67298  -0.66851  -0.66543  -0.65812  -0.64469
 Alpha  occ. eigenvalues --   -0.64272  -0.63755  -0.62644  -0.62228  -0.61655
 Alpha  occ. eigenvalues --   -0.60565  -0.60181  -0.60088  -0.59566  -0.59386
 Alpha  occ. eigenvalues --   -0.59297  -0.58259  -0.56626  -0.56137  -0.55944
 Alpha  occ. eigenvalues --   -0.55770  -0.55318  -0.54999  -0.54511  -0.54280
 Alpha  occ. eigenvalues --   -0.53803  -0.53635  -0.53392  -0.53152  -0.52930
 Alpha  occ. eigenvalues --   -0.52716  -0.52347  -0.51255  -0.50203  -0.50116
 Alpha  occ. eigenvalues --   -0.49857  -0.49601  -0.49477  -0.49182  -0.48829
 Alpha  occ. eigenvalues --   -0.48424  -0.48311  -0.48128  -0.47645  -0.47311
 Alpha  occ. eigenvalues --   -0.46415  -0.45671  -0.45213  -0.44342  -0.43910
 Alpha  occ. eigenvalues --   -0.40699  -0.40594  -0.39392  -0.37718  -0.37565
 Alpha  occ. eigenvalues --   -0.37226  -0.37120  -0.36588  -0.35837  -0.34857
 Alpha  occ. eigenvalues --   -0.34388  -0.33657  -0.33230  -0.32992  -0.32908
 Alpha  occ. eigenvalues --   -0.32623  -0.32338  -0.32099  -0.31806  -0.30381
 Alpha  occ. eigenvalues --   -0.30073  -0.29927  -0.25569  -0.25040
 Alpha virt. eigenvalues --    0.02666   0.04176   0.07093   0.08357   0.08567
 Alpha virt. eigenvalues --    0.09317   0.09824   0.10570   0.11509   0.11566
 Alpha virt. eigenvalues --    0.12423   0.14207   0.14589   0.14915   0.15161
 Alpha virt. eigenvalues --    0.15429   0.16476   0.17230   0.17364   0.17587
 Alpha virt. eigenvalues --    0.17995   0.19825   0.20018   0.20380   0.20627
 Alpha virt. eigenvalues --    0.20764   0.20954   0.21102   0.21678   0.21878
 Alpha virt. eigenvalues --    0.22449   0.22814   0.23491   0.23623   0.23920
 Alpha virt. eigenvalues --    0.24263   0.24405   0.24660   0.24811   0.24997
 Alpha virt. eigenvalues --    0.25380   0.25884   0.27019   0.27525   0.28235
 Alpha virt. eigenvalues --    0.29000   0.29228   0.29646   0.30438   0.30906
 Alpha virt. eigenvalues --    0.31457   0.31746   0.32475   0.32998   0.33589
 Alpha virt. eigenvalues --    0.34173   0.34254   0.34864   0.35810   0.36137
 Alpha virt. eigenvalues --    0.36913   0.37127   0.37797   0.39125   0.39238
 Alpha virt. eigenvalues --    0.39837   0.40502   0.40767   0.41354   0.41634
 Alpha virt. eigenvalues --    0.42160   0.42968   0.43118   0.43826   0.44365
 Alpha virt. eigenvalues --    0.44662   0.45082   0.46169   0.46889   0.47019
 Alpha virt. eigenvalues --    0.47674   0.47858   0.48461   0.48714   0.49459
 Alpha virt. eigenvalues --    0.49660   0.50202   0.50464   0.50622   0.50999
 Alpha virt. eigenvalues --    0.51619   0.51950   0.52283   0.52682   0.53370
 Alpha virt. eigenvalues --    0.53475   0.54268   0.54383   0.55064   0.55573
 Alpha virt. eigenvalues --    0.55885   0.56478   0.56556   0.57307   0.57463
 Alpha virt. eigenvalues --    0.58017   0.58098   0.58217   0.59155   0.59462
 Alpha virt. eigenvalues --    0.59822   0.59941   0.60677   0.60918   0.61105
 Alpha virt. eigenvalues --    0.61657   0.62032   0.62303   0.62831   0.63186
 Alpha virt. eigenvalues --    0.63405   0.63693   0.64714   0.65060   0.65225
 Alpha virt. eigenvalues --    0.65815   0.65984   0.66464   0.66556   0.67416
 Alpha virt. eigenvalues --    0.67423   0.67676   0.68192   0.68592   0.68675
 Alpha virt. eigenvalues --    0.69843   0.69965   0.70394   0.70699   0.71254
 Alpha virt. eigenvalues --    0.71330   0.72030   0.72617   0.73315   0.73600
 Alpha virt. eigenvalues --    0.73923   0.74169   0.74301   0.74651   0.75363
 Alpha virt. eigenvalues --    0.75763   0.75946   0.76136   0.76425   0.76812
 Alpha virt. eigenvalues --    0.77597   0.77719   0.78279   0.78505   0.78617
 Alpha virt. eigenvalues --    0.79079   0.79160   0.79867   0.80540   0.80584
 Alpha virt. eigenvalues --    0.81392   0.81532   0.82081   0.82357   0.82481
 Alpha virt. eigenvalues --    0.83316   0.83539   0.83997   0.84250   0.84712
 Alpha virt. eigenvalues --    0.85074   0.85164   0.86206   0.86760   0.87371
 Alpha virt. eigenvalues --    0.87589   0.87891   0.88417   0.89190   0.89576
 Alpha virt. eigenvalues --    0.90375   0.90646   0.91413   0.91748   0.92110
 Alpha virt. eigenvalues --    0.92355   0.92661   0.92912   0.93453   0.93912
 Alpha virt. eigenvalues --    0.94936   0.95349   0.95834   0.96007   0.96849
 Alpha virt. eigenvalues --    0.97212   0.97563   0.97687   0.98236   0.98463
 Alpha virt. eigenvalues --    0.98874   0.99081   0.99635   0.99999   1.00228
 Alpha virt. eigenvalues --    1.00616   1.01201   1.01813   1.02087   1.02900
 Alpha virt. eigenvalues --    1.03110   1.03620   1.03992   1.04404   1.04917
 Alpha virt. eigenvalues --    1.05346   1.05919   1.06562   1.06868   1.07278
 Alpha virt. eigenvalues --    1.07861   1.08206   1.08690   1.09523   1.10757
 Alpha virt. eigenvalues --    1.11453   1.11858   1.12187   1.12609   1.13163
 Alpha virt. eigenvalues --    1.13538   1.13748   1.14313   1.14534   1.15059
 Alpha virt. eigenvalues --    1.15434   1.16009   1.16231   1.16357   1.17053
 Alpha virt. eigenvalues --    1.17516   1.17935   1.18655   1.18696   1.19497
 Alpha virt. eigenvalues --    1.19753   1.20187   1.20398   1.20551   1.20829
 Alpha virt. eigenvalues --    1.21339   1.22024   1.22399   1.22968   1.23252
 Alpha virt. eigenvalues --    1.23480   1.23949   1.23967   1.24156   1.24653
 Alpha virt. eigenvalues --    1.24915   1.25556   1.25647   1.26074   1.27312
 Alpha virt. eigenvalues --    1.27810   1.28036   1.28926   1.29775   1.30101
 Alpha virt. eigenvalues --    1.30917   1.32119   1.32367   1.32855   1.33711
 Alpha virt. eigenvalues --    1.34215   1.34635   1.34923   1.35348   1.36235
 Alpha virt. eigenvalues --    1.37018   1.37761   1.38619   1.39479   1.39637
 Alpha virt. eigenvalues --    1.40140   1.41053   1.41457   1.42055   1.43589
 Alpha virt. eigenvalues --    1.45077   1.45957   1.46244   1.46568   1.47165
 Alpha virt. eigenvalues --    1.47932   1.48960   1.49551   1.50046   1.50334
 Alpha virt. eigenvalues --    1.51198   1.51909   1.52877   1.53260   1.53552
 Alpha virt. eigenvalues --    1.54815   1.55146   1.56107   1.56633   1.56888
 Alpha virt. eigenvalues --    1.57326   1.58721   1.59135   1.59825   1.60128
 Alpha virt. eigenvalues --    1.60435   1.61552   1.62605   1.62841   1.63049
 Alpha virt. eigenvalues --    1.63257   1.64201   1.64943   1.65515   1.66488
 Alpha virt. eigenvalues --    1.67099   1.67193   1.67752   1.68485   1.68740
 Alpha virt. eigenvalues --    1.68829   1.69824   1.70052   1.70588   1.70839
 Alpha virt. eigenvalues --    1.71541   1.72269   1.72636   1.72812   1.73126
 Alpha virt. eigenvalues --    1.73312   1.74339   1.74543   1.74701   1.75393
 Alpha virt. eigenvalues --    1.75690   1.76184   1.76292   1.76735   1.76840
 Alpha virt. eigenvalues --    1.77320   1.77407   1.77676   1.77948   1.78302
 Alpha virt. eigenvalues --    1.78764   1.78951   1.79227   1.79990   1.80273
 Alpha virt. eigenvalues --    1.80505   1.80660   1.80806   1.81123   1.81482
 Alpha virt. eigenvalues --    1.81777   1.82113   1.82446   1.83766   1.84291
 Alpha virt. eigenvalues --    1.84456   1.85051   1.85203   1.85747   1.86231
 Alpha virt. eigenvalues --    1.86598   1.87418   1.87939   1.88229   1.88608
 Alpha virt. eigenvalues --    1.89088   1.89698   1.90343   1.90576   1.90753
 Alpha virt. eigenvalues --    1.91376   1.91538   1.91800   1.93308   1.93551
 Alpha virt. eigenvalues --    1.94022   1.94594   1.94793   1.95136   1.97230
 Alpha virt. eigenvalues --    1.97815   1.98215   1.98660   2.00108   2.00657
 Alpha virt. eigenvalues --    2.00882   2.01340   2.02064   2.02493   2.03122
 Alpha virt. eigenvalues --    2.03513   2.04439   2.05700   2.05870   2.06600
 Alpha virt. eigenvalues --    2.07297   2.07517   2.08279   2.08635   2.08942
 Alpha virt. eigenvalues --    2.09604   2.09942   2.11350   2.11760   2.12109
 Alpha virt. eigenvalues --    2.12315   2.13440   2.14483   2.15878   2.16510
 Alpha virt. eigenvalues --    2.17517   2.18745   2.19404   2.20378   2.20555
 Alpha virt. eigenvalues --    2.21351   2.21833   2.22333   2.22695   2.23239
 Alpha virt. eigenvalues --    2.23971   2.24599   2.25250   2.25894   2.26264
 Alpha virt. eigenvalues --    2.27095   2.27330   2.28507   2.28997   2.29194
 Alpha virt. eigenvalues --    2.30132   2.30272   2.30904   2.31393   2.32245
 Alpha virt. eigenvalues --    2.32482   2.33150   2.33765   2.33995   2.34129
 Alpha virt. eigenvalues --    2.35141   2.35535   2.35955   2.36399   2.36665
 Alpha virt. eigenvalues --    2.37404   2.37676   2.38515   2.39559   2.41213
 Alpha virt. eigenvalues --    2.41464   2.42266   2.42791   2.43764   2.44007
 Alpha virt. eigenvalues --    2.44631   2.44927   2.45137   2.45364   2.46240
 Alpha virt. eigenvalues --    2.47063   2.48088   2.49505   2.50602   2.51563
 Alpha virt. eigenvalues --    2.52033   2.52836   2.54478   2.54886   2.55228
 Alpha virt. eigenvalues --    2.56210   2.57145   2.57451   2.58313   2.59436
 Alpha virt. eigenvalues --    2.60441   2.61243   2.61785   2.62405   2.62894
 Alpha virt. eigenvalues --    2.63553   2.64399   2.65104   2.65336   2.65498
 Alpha virt. eigenvalues --    2.65671   2.67832   2.68241   2.68261   2.68702
 Alpha virt. eigenvalues --    2.69276   2.69758   2.70137   2.71035   2.71663
 Alpha virt. eigenvalues --    2.72508   2.73901   2.74969   2.75401   2.76203
 Alpha virt. eigenvalues --    2.76905   2.77896   2.78395   2.78694   2.79287
 Alpha virt. eigenvalues --    2.79418   2.80145   2.80569   2.80631   2.80980
 Alpha virt. eigenvalues --    2.81519   2.81897   2.82397   2.83387   2.84048
 Alpha virt. eigenvalues --    2.84510   2.84926   2.86105   2.86351   2.86883
 Alpha virt. eigenvalues --    2.87426   2.87549   2.88770   2.91878   2.92568
 Alpha virt. eigenvalues --    2.93843   2.94971   2.95489   2.97260   2.98742
 Alpha virt. eigenvalues --    2.99866   3.00557   3.01552   3.03891   3.04670
 Alpha virt. eigenvalues --    3.05894   3.09142   3.10967   3.12686   3.14948
 Alpha virt. eigenvalues --    3.15412   3.15918   3.16539   3.17188   3.20310
 Alpha virt. eigenvalues --    3.20821   3.22470   3.23397   3.24525   3.25356
 Alpha virt. eigenvalues --    3.44443   3.46956   3.47652   3.49333   3.50147
 Alpha virt. eigenvalues --    3.53459   3.54147   3.56239   3.57601   3.59905
 Alpha virt. eigenvalues --    3.63208   3.70653   3.74604
          Condensed to atoms (all electrons):
 Mulliken charges:
               1
     1  N   -0.313119
     2  C    0.181971
     3  C    0.044899
     4  N   -0.258624
     5  C    0.136508
     6  H    0.025082
     7  N   -0.298608
     8  C    0.139715
     9  H    0.008029
    10  N   -0.289417
    11  C    0.257613
    12  C    0.114833
    13  N   -0.060005
    14  H    0.112044
    15  H    0.081906
    16  H    0.022978
    17  H    0.032161
    18  H    0.026925
    19  N   -0.311871
    20  C    0.247740
    21  C    0.180774
    22  N   -0.106849
    23  H    0.112370
    24  H    0.113933
    25  N   -0.309156
    26  C    0.235069
    27  N   -0.148454
    28  H    0.124189
    29  C    0.189048
    30  O   -0.321838
    31  C   -0.009992
    32  N   -0.225429
    33  C    0.131479
    34  H    0.023616
    35  H    0.028716
    36  H    0.028475
    37  H    0.024456
    38  H    0.059586
    39  H    0.059604
    40  H    0.073846
    41  H    0.030651
    42  C   -0.116872
    43  O   -0.262906
    44  C    0.166739
    45  H    0.132527
    46  N   -0.120855
    47  O   -0.343379
    48  C    0.338338
    49  H    0.045781
    50  C    0.161023
    51  C    0.040002
    52  N   -0.279854
    53  H    0.035331
    54  H    0.040374
    55  H    0.027503
    56  H    0.121610
    57  H    0.115291
    58  N   -0.060031
    59  C    0.085754
    60  C    0.244813
    61  N   -0.270894
    62  H    0.042580
    63  C    0.163096
    64  N   -0.305725
    65  H    0.037476
    66  C    0.138568
    67  N   -0.269496
    68  C    0.034358
    69  C    0.177893
    70  N   -0.313898
 Sum of Mulliken charges =  -0.00000
 Mulliken charges with hydrogens summed into heavy atoms:
               1
     1  N   -0.313119
     2  C    0.264036
     3  C    0.044899
     4  N   -0.258624
     5  C    0.161589
     7  N   -0.298608
     8  C    0.147745
    10  N   -0.289417
    11  C    0.257613
    12  C    0.114833
    13  N    0.133945
    19  N   -0.311871
    20  C    0.247740
    21  C    0.262422
    22  N    0.119453
    25  N   -0.309156
    26  C    0.235069
    27  N   -0.024265
    29  C    0.189048
    30  O   -0.321838
    31  C   -0.009992
    32  N   -0.225429
    33  C    0.155095
    42  C   -0.086222
    43  O   -0.262906
    44  C    0.166739
    46  N    0.011672
    47  O   -0.343379
    48  C    0.338338
    50  C    0.206804
    51  C    0.233038
    52  N   -0.279854
    58  N    0.176870
    59  C    0.085754
    60  C    0.244813
    61  N   -0.270894
    63  C    0.205675
    64  N   -0.305725
    66  C    0.176044
    67  N   -0.269496
    68  C    0.034358
    69  C    0.281101
    70  N   -0.313898
 Electronic spatial extent (au):  <R**2>=          22090.7454
 Charge=             -0.0000 electrons
 Dipole moment (field-independent basis, Debye):
    X=              9.1496    Y=              5.5723    Z=              1.3597  Tot=             10.7988
 Quadrupole moment (field-independent basis, Debye-Ang):
   XX=           -162.2108   YY=           -211.8363   ZZ=           -252.4844
   XY=             -5.2008   XZ=             -4.3220   YZ=             -4.7262
 Traceless Quadrupole moment (field-independent basis, Debye-Ang):
   XX=             46.6330   YY=             -2.9925   ZZ=            -43.6405
   XY=             -5.2008   XZ=             -4.3220   YZ=             -4.7262
 Octapole moment (field-independent basis, Debye-Ang**2):
  XXX=            -64.6653  YYY=            145.0406  ZZZ=             -7.3387  XYY=             88.1497
  XXY=             14.7287  XXZ=            -10.2431  XZZ=             54.3160  YZZ=             26.5721
  YYZ=             32.7713  XYZ=             82.4800
 Hexadecapole moment (field-independent basis, Debye-Ang**3):
 XXXX=         -14140.2704 YYYY=          -6976.0680 ZZZZ=          -3964.6122 XXXY=            532.0580
 XXXZ=           -206.2837 YYYX=           -195.5749 YYYZ=            -60.3438 ZZZX=              1.7407
 ZZZY=             51.2140 XXYY=          -3051.5109 XXZZ=          -3477.3587 YYZZ=          -1869.6360
 XXYZ=             97.9157 YYXZ=            167.2721 ZZXY=             39.8544
 N-N= 5.457481517480D+03 E-N=-1.569585389476D+04  KE= 2.037677634726D+03
 No NMR shielding tensors so no spin-rotation constants.
 Leave Link  601 at Fri Jan 26 15:12:41 2018, MaxMem=  4294967296 cpu:              49.3 elap:               1.7
 (Enter /share/apps/g16/l9999.exe)
 1\1\GINC-COMPUTE-0-3\SP\RwB97XD\CC-pVDZ\C23H27N17O3\SATYA\26-Jan-2018\
 0\\#p wb97xd/cc-pvdz sp scf=(maxcycles=20)\\Base pair stacking\\0,1\N,
 0,5.51851,-1.41463,-5.96469\C,0,6.89878,-0.89503,-6.01824\C,0,3.32622,
 -1.5805,-6.0252\N,0,3.80315,-2.84805,-5.72425\C,0,5.10484,-2.69739,-5.
 69984\H,0,5.81761,-3.49595,-5.49198\N,0,1.89671,0.2371,-6.48977\C,0,3.
 00292,0.97919,-6.60458\H,0,2.83614,2.02861,-6.84363\N,0,4.27824,0.6212
 6,-6.46906\C,0,4.37181,-0.68639,-6.17625\C,0,2.02439,-1.07499,-6.19447
 \N,0,0.92132,-1.8174,-6.07945\H,0,0.96845,-2.79296,-5.86201\H,0,0.0107
 2,-1.42399,-6.20664\H,0,7.4127,-1.3824,-6.72431\H,0,6.88026,0.08069,-6
 .23445\H,0,7.34258,-1.03004,-5.13234\N,0,3.01775,3.39155,-3.19562\C,0,
 1.75322,2.85807,-3.262\C,0,3.34698,4.8256,-3.32132\N,0,-1.6725,3.27917
 ,-3.64786\H,0,-2.48918,2.70299,-3.66517\H,0,-1.80845,4.2627,-3.76991\N
 ,0,0.60821,3.54875,-3.45168\C,0,-0.44956,2.75728,-3.4691\N,0,-0.39254,
 1.39351,-3.31289\H,0,-1.25265,0.86775,-3.34006\C,0,0.7745,0.66185,-3.1
 1651\O,0,0.71628,-0.56716,-2.9866\C,0,1.91926,1.49848,-3.09546\N,0,3.2
 6104,1.18471,-2.92789\C,0,3.87313,2.33586,-2.99434\H,0,4.95122,2.47212
 ,-2.90258\H,0,3.95732,4.96209,-4.10085\H,0,2.50656,5.34724,-3.46217\H,
 0,3.79739,5.14031,-2.48651\H,0,-5.79925,-1.23389,-4.21428\H,0,-5.87292
 ,-1.30541,-2.45527\H,0,-4.9955,0.00356,-3.24781\H,0,-3.00165,-5.05583,
 -3.36999\C,0,-2.94836,-3.96807,-3.32353\O,0,-0.57924,-3.9047,-3.22173\
 C,0,-1.66868,-3.33251,-3.2441\H,0,-0.82946,-1.46924,-3.1332\N,0,-1.714
 06,-1.95401,-3.18996\O,0,-2.77375,0.05419,-3.1527\C,0,-2.83455,-1.1616
 5,-3.20468\H,0,-5.05621,-3.65656,-3.39915\C,0,-4.05918,-3.22212,-3.339
 73\C,0,-5.25511,-1.04328,-3.30124\N,0,-4.03041,-1.84798,-3.28266\H,0,-
 5.01225,3.8794,-7.78674\H,0,-3.77321,3.95223,-6.72769\H,0,-5.31184,3.9
 3233,-6.18334\H,0,-2.56716,-2.961,-6.27151\H,0,-4.20735,-2.61576,-6.58
 882\N,0,-3.27983,-2.2769,-6.42725\C,0,-3.00654,-0.9706,-6.42002\C,0,-3
 .53575,1.34255,-6.59609\N,0,-2.28094,1.76876,-6.37643\H,0,-0.421,0.992
 66,-6.00373\C,0,-1.46285,0.73502,-6.18933\N,0,-1.73464,-0.57405,-6.196
 19\H,0,-6.70452,1.57265,-7.1945\C,0,-5.68923,1.22941,-6.99375\N,0,-5.3
 3533,-0.02788,-6.8857\C,0,-3.97231,0.02972,-6.63353\C,0,-4.69002,3.586
 98,-6.88637\N,0,-4.65028,2.1128,-6.82963\\Version=EM64L-G16RevA.03\Sta
 te=1-A\HF=-2048.7462758\RMSD=6.910e-09\Dipole=-3.7167009,1.9895113,-0.
 5275471\Quadrupole=34.1645717,-1.9726975,-32.1918742,6.1393436,-1.6911
 145,4.8182921\PG=C01 [X(C23H27N17O3)]\\@


 E PUR SI MUOVE    -- GALILEO GALILEI
 Job cpu time:       0 days  5 hours 47 minutes 21.7 seconds.
 Elapsed time:       0 days  0 hours 11 minutes 12.6 seconds.
 File lengths (MBytes):  RWF=    298 Int=      0 D2E=      0 Chk=     33 Scr=      1
 Normal termination of Gaussian 16 at Fri Jan 26 15:12:41 2018.
