 Entering Gaussian System, Link 0=g16
 Input=str55.-10.1.5.com
 Output=str55.-10.1.5.log
 Initial command:
 /share/apps/g16/l1.exe "/state/partition1/scr/Gau-26888.inp" -scrdir="/state/partition1/scr/"
 Entering Link 1 = /share/apps/g16/l1.exe PID=     26889.
  
 Copyright (c) 1988,1990,1992,1993,1995,1998,2003,2009,2016,
            Gaussian, Inc.  All Rights Reserved.
  
 This is part of the Gaussian(R) 16 program.  It is based on
 the Gaussian(R) 09 system (copyright 2009, Gaussian, Inc.),
 the Gaussian(R) 03 system (copyright 2003, Gaussian, Inc.),
 the Gaussian(R) 98 system (copyright 1998, Gaussian, Inc.),
 the Gaussian(R) 94 system (copyright 1995, Gaussian, Inc.),
 the Gaussian 92(TM) system (copyright 1992, Gaussian, Inc.),
 the Gaussian 90(TM) system (copyright 1990, Gaussian, Inc.),
 the Gaussian 88(TM) system (copyright 1988, Gaussian, Inc.),
 the Gaussian 86(TM) system (copyright 1986, Carnegie Mellon
 University), and the Gaussian 82(TM) system (copyright 1983,
 Carnegie Mellon University). Gaussian is a federally registered
 trademark of Gaussian, Inc.
  
 This software contains proprietary and confidential information,
 including trade secrets, belonging to Gaussian, Inc.
  
 This software is provided under written license and may be
 used, copied, transmitted, or stored only in accord with that
 written license.
  
 The following legend is applicable only to US Government
 contracts under FAR:
  
                    RESTRICTED RIGHTS LEGEND
  
 Use, reproduction and disclosure by the US Government is
 subject to restrictions as set forth in subparagraphs (a)
 and (c) of the Commercial Computer Software - Restricted
 Rights clause in FAR 52.227-19.
  
 Gaussian, Inc.
 340 Quinnipiac St., Bldg. 40, Wallingford CT 06492
  
  
 ---------------------------------------------------------------
 Warning -- This program may not be used in any manner that
 competes with the business of Gaussian, Inc. or will provide
 assistance to any competitor of Gaussian, Inc.  The licensee
 of this program is prohibited from giving any competitor of
 Gaussian, Inc. access to this program.  By using this program,
 the user acknowledges that Gaussian, Inc. is engaged in the
 business of creating and licensing software in the field of
 computational chemistry and represents and warrants to the
 licensee that it is not a competitor of Gaussian, Inc. and that
 it will not use this program in any manner prohibited above.
 ---------------------------------------------------------------
  

 Cite this work as:
 Gaussian 16, Revision A.03,
 M. J. Frisch, G. W. Trucks, H. B. Schlegel, G. E. Scuseria, 
 M. A. Robb, J. R. Cheeseman, G. Scalmani, V. Barone, 
 G. A. Petersson, H. Nakatsuji, X. Li, M. Caricato, A. V. Marenich, 
 J. Bloino, B. G. Janesko, R. Gomperts, B. Mennucci, H. P. Hratchian, 
 J. V. Ortiz, A. F. Izmaylov, J. L. Sonnenberg, D. Williams-Young, 
 F. Ding, F. Lipparini, F. Egidi, J. Goings, B. Peng, A. Petrone, 
 T. Henderson, D. Ranasinghe, V. G. Zakrzewski, J. Gao, N. Rega, 
 G. Zheng, W. Liang, M. Hada, M. Ehara, K. Toyota, R. Fukuda, 
 J. Hasegawa, M. Ishida, T. Nakajima, Y. Honda, O. Kitao, H. Nakai, 
 T. Vreven, K. Throssell, J. A. Montgomery, Jr., J. E. Peralta, 
 F. Ogliaro, M. J. Bearpark, J. J. Heyd, E. N. Brothers, K. N. Kudin, 
 V. N. Staroverov, T. A. Keith, R. Kobayashi, J. Normand, 
 K. Raghavachari, A. P. Rendell, J. C. Burant, S. S. Iyengar, 
 J. Tomasi, M. Cossi, J. M. Millam, M. Klene, C. Adamo, R. Cammi, 
 J. W. Ochterski, R. L. Martin, K. Morokuma, O. Farkas, 
 J. B. Foresman, and D. J. Fox, Gaussian, Inc., Wallingford CT, 2016.
 
 ******************************************
 Gaussian 16:  EM64L-G16RevA.03 25-Dec-2016
                26-Jan-2018 
 ******************************************
 %nprocshared=32
 Will use up to   32 processors via shared memory.
 %mem=32GB
 %chk=allatoms_t.chk
 ---------------------------------------
 #p wb97xd/cc-pvdz sp scf=(maxcycles=20)
 ---------------------------------------
 1/38=1,172=1/1;
 2/12=2,17=6,18=5,40=1/2;
 3/5=16,11=2,25=1,30=1,74=-58/1,2,3;
 4//1;
 5/5=2,7=20,38=5/2;
 6/7=2,8=2,9=2,10=2,28=1/1;
 99/5=1,9=1/99;
 Leave Link    1 at Fri Jan 26 00:18:53 2018, MaxMem=  4294967296 cpu:               2.7 elap:               0.1
 (Enter /share/apps/g16/l101.exe)
 ------------------
 Base pair stacking
 ------------------
 Symbolic Z-matrix:
 Charge =  0 Multiplicity = 1
 N                     2.69727  -1.68905  -7.1202 
 C                     4.05435  -1.14339  -7.31668 
 C                     0.54242  -1.88546  -6.72605 
 N                     1.01005  -3.16785  -6.97407 
 C                     2.28955  -2.9982   -7.2016 
 H                     2.98939  -3.80088  -7.43586 
 N                    -0.86094  -0.05604  -6.22934 
 C                     0.22696   0.71231  -6.34627 
 H                     0.06398   1.77692  -6.18408 
 N                     1.48009   0.36466  -6.63212 
 C                     1.57089  -0.96335  -6.81259 
 C                    -0.73663  -1.38813  -6.41682 
 N                    -1.82145  -2.15677  -6.30052 
 H                    -1.77601  -3.14781  -6.43087 
 H                    -2.71609  -1.76842  -6.07926 
 H                     4.37015  -1.35656  -8.24134 
 H                     4.03702  -0.15182  -7.19172 
 H                     4.67929  -1.5507   -6.65069 
 N                     2.12743   2.51721  -3.34338 
 C                     0.86891   1.98289  -3.20665 
 C                     2.44318   3.9593   -3.38071 
 N                    -2.55766   2.41296  -2.83874 
 H                    -3.36832   1.83484  -2.75013 
 H                    -2.70254   3.40268  -2.82544 
 N                    -0.28144   2.67988  -3.08442 
 C                    -1.331     1.88562  -2.96958 
 N                    -1.26148   0.51352  -2.97388 
 H                    -2.116    -0.0138   -2.88066 
 C                    -0.08874  -0.22474  -3.09843 
 O                    -0.1356   -1.46106  -3.09052 
 C                     1.04732   0.61478  -3.22268 
 N                     2.39081   0.29661  -3.36658 
 C                     2.99176   1.45355  -3.43396 
 H                     4.06766   1.58861  -3.55011 
 H                     2.88366   4.18338  -4.24937 
 H                     1.59869   4.48566  -3.29102 
 H                     3.05835   4.18714  -2.62675 
 H                    -6.77287  -2.04969  -3.02706 
 H                    -6.48758  -2.30889  -1.30773 
 H                    -5.77271  -0.91535  -2.11913 
 H                    -3.91299  -5.91541  -3.18151 
 C                    -3.83689  -4.83837  -3.03176 
 O                    -1.49609  -4.76565  -3.40921 
 C                    -2.55953  -4.20381  -3.14805 
 H                    -1.69064  -2.35576  -3.01361 
 N                    -2.57461  -2.83938  -2.93985 
 O                    -3.57771  -0.85586  -2.47437 
 C                    -3.66397  -2.05972  -2.64155 
 H                    -5.91162  -4.53888  -2.64236 
 C                    -4.9177   -4.10462  -2.74181 
 C                    -6.05164  -1.95275  -2.22925 
 N                    -4.85965  -2.74418  -2.54634 
 H                    -7.69038   3.62027  -4.64001 
 H                    -6.24215   3.37371  -3.93012 
 H                    -7.61709   3.13351  -3.08401 
 H                    -5.31662  -3.26788  -6.04863 
 H                    -6.96641  -2.88223  -5.84972 
 N                    -6.0104   -2.5904   -5.80403 
 C                    -5.67661  -1.35254  -5.43325 
 C                    -6.11383   0.87402  -4.717 
 N                    -4.82187   1.23807  -4.66472 
 H                    -2.96765   0.43355  -5.00418 
 C                    -4.03619   0.22316  -5.01908 
 N                    -4.36858  -1.01738  -5.39076 
 H                    -9.32002   1.20196  -4.46212 
 C                    -8.30438   0.83956  -4.62361 
 N                    -7.99949  -0.37292  -5.01682 
 C                    -6.61361  -0.3645   -5.08009 
 C                    -7.18843   3.05631  -3.98427 
 N                    -7.21175   1.64748  -4.42321 
 
 ITRead=  0  0  0  0  0  0  0  0  0  0  0  0  0  0  0  0  0  0  0  0
 ITRead=  0  0  0  0  0  0  0  0  0  0  0  0  0  0  0  0  0  0  0  0
 ITRead=  0  0  0  0  0  0  0  0  0  0  0  0  0  0  0  0  0  0  0  0
 ITRead=  0  0  0  0  0  0  0  0  0  0
 MicOpt= -1 -1 -1 -1 -1 -1 -1 -1 -1 -1 -1 -1 -1 -1 -1 -1 -1 -1 -1 -1
 MicOpt= -1 -1 -1 -1 -1 -1 -1 -1 -1 -1 -1 -1 -1 -1 -1 -1 -1 -1 -1 -1
 MicOpt= -1 -1 -1 -1 -1 -1 -1 -1 -1 -1 -1 -1 -1 -1 -1 -1 -1 -1 -1 -1
 MicOpt= -1 -1 -1 -1 -1 -1 -1 -1 -1 -1
 NAtoms=     70 NQM=       70 NQMF=       0 NMMI=      0 NMMIF=      0
                NMic=       0 NMicF=      0.
                    Isotopes and Nuclear Properties:
 (Nuclear quadrupole moments (NQMom) in fm**2, nuclear magnetic moments (NMagM)
  in nuclear magnetons)

  Atom         1           2           3           4           5           6           7           8           9          10
 IAtWgt=          14          12          12          14          12           1          14          12           1          14
 AtmWgt=  14.0030740  12.0000000  12.0000000  14.0030740  12.0000000   1.0078250  14.0030740  12.0000000   1.0078250  14.0030740
 NucSpn=           2           0           0           2           0           1           2           0           1           2
 AtZEff=  -0.0000000  -0.0000000  -0.0000000  -0.0000000  -0.0000000  -0.0000000  -0.0000000  -0.0000000  -0.0000000  -0.0000000
 NQMom=    2.0440000   0.0000000   0.0000000   2.0440000   0.0000000   0.0000000   2.0440000   0.0000000   0.0000000   2.0440000
 NMagM=    0.4037610   0.0000000   0.0000000   0.4037610   0.0000000   2.7928460   0.4037610   0.0000000   2.7928460   0.4037610
 AtZNuc=   7.0000000   6.0000000   6.0000000   7.0000000   6.0000000   1.0000000   7.0000000   6.0000000   1.0000000   7.0000000

  Atom        11          12          13          14          15          16          17          18          19          20
 IAtWgt=          12          12          14           1           1           1           1           1          14          12
 AtmWgt=  12.0000000  12.0000000  14.0030740   1.0078250   1.0078250   1.0078250   1.0078250   1.0078250  14.0030740  12.0000000
 NucSpn=           0           0           2           1           1           1           1           1           2           0
 AtZEff=  -0.0000000  -0.0000000  -0.0000000  -0.0000000  -0.0000000  -0.0000000  -0.0000000  -0.0000000  -0.0000000  -0.0000000
 NQMom=    0.0000000   0.0000000   2.0440000   0.0000000   0.0000000   0.0000000   0.0000000   0.0000000   2.0440000   0.0000000
 NMagM=    0.0000000   0.0000000   0.4037610   2.7928460   2.7928460   2.7928460   2.7928460   2.7928460   0.4037610   0.0000000
 AtZNuc=   6.0000000   6.0000000   7.0000000   1.0000000   1.0000000   1.0000000   1.0000000   1.0000000   7.0000000   6.0000000

  Atom        21          22          23          24          25          26          27          28          29          30
 IAtWgt=          12          14           1           1          14          12          14           1          12          16
 AtmWgt=  12.0000000  14.0030740   1.0078250   1.0078250  14.0030740  12.0000000  14.0030740   1.0078250  12.0000000  15.9949146
 NucSpn=           0           2           1           1           2           0           2           1           0           0
 AtZEff=  -0.0000000  -0.0000000  -0.0000000  -0.0000000  -0.0000000  -0.0000000  -0.0000000  -0.0000000  -0.0000000  -0.0000000
 NQMom=    0.0000000   2.0440000   0.0000000   0.0000000   2.0440000   0.0000000   2.0440000   0.0000000   0.0000000   0.0000000
 NMagM=    0.0000000   0.4037610   2.7928460   2.7928460   0.4037610   0.0000000   0.4037610   2.7928460   0.0000000   0.0000000
 AtZNuc=   6.0000000   7.0000000   1.0000000   1.0000000   7.0000000   6.0000000   7.0000000   1.0000000   6.0000000   8.0000000

  Atom        31          32          33          34          35          36          37          38          39          40
 IAtWgt=          12          14          12           1           1           1           1           1           1           1
 AtmWgt=  12.0000000  14.0030740  12.0000000   1.0078250   1.0078250   1.0078250   1.0078250   1.0078250   1.0078250   1.0078250
 NucSpn=           0           2           0           1           1           1           1           1           1           1
 AtZEff=  -0.0000000  -0.0000000  -0.0000000  -0.0000000  -0.0000000  -0.0000000  -0.0000000  -0.0000000  -0.0000000  -0.0000000
 NQMom=    0.0000000   2.0440000   0.0000000   0.0000000   0.0000000   0.0000000   0.0000000   0.0000000   0.0000000   0.0000000
 NMagM=    0.0000000   0.4037610   0.0000000   2.7928460   2.7928460   2.7928460   2.7928460   2.7928460   2.7928460   2.7928460
 AtZNuc=   6.0000000   7.0000000   6.0000000   1.0000000   1.0000000   1.0000000   1.0000000   1.0000000   1.0000000   1.0000000

  Atom        41          42          43          44          45          46          47          48          49          50
 IAtWgt=           1          12          16          12           1          14          16          12           1          12
 AtmWgt=   1.0078250  12.0000000  15.9949146  12.0000000   1.0078250  14.0030740  15.9949146  12.0000000   1.0078250  12.0000000
 NucSpn=           1           0           0           0           1           2           0           0           1           0
 AtZEff=  -0.0000000  -0.0000000  -0.0000000  -0.0000000  -0.0000000  -0.0000000  -0.0000000  -0.0000000  -0.0000000  -0.0000000
 NQMom=    0.0000000   0.0000000   0.0000000   0.0000000   0.0000000   2.0440000   0.0000000   0.0000000   0.0000000   0.0000000
 NMagM=    2.7928460   0.0000000   0.0000000   0.0000000   2.7928460   0.4037610   0.0000000   0.0000000   2.7928460   0.0000000
 AtZNuc=   1.0000000   6.0000000   8.0000000   6.0000000   1.0000000   7.0000000   8.0000000   6.0000000   1.0000000   6.0000000

  Atom        51          52          53          54          55          56          57          58          59          60
 IAtWgt=          12          14           1           1           1           1           1          14          12          12
 AtmWgt=  12.0000000  14.0030740   1.0078250   1.0078250   1.0078250   1.0078250   1.0078250  14.0030740  12.0000000  12.0000000
 NucSpn=           0           2           1           1           1           1           1           2           0           0
 AtZEff=  -0.0000000  -0.0000000  -0.0000000  -0.0000000  -0.0000000  -0.0000000  -0.0000000  -0.0000000  -0.0000000  -0.0000000
 NQMom=    0.0000000   2.0440000   0.0000000   0.0000000   0.0000000   0.0000000   0.0000000   2.0440000   0.0000000   0.0000000
 NMagM=    0.0000000   0.4037610   2.7928460   2.7928460   2.7928460   2.7928460   2.7928460   0.4037610   0.0000000   0.0000000
 AtZNuc=   6.0000000   7.0000000   1.0000000   1.0000000   1.0000000   1.0000000   1.0000000   7.0000000   6.0000000   6.0000000

  Atom        61          62          63          64          65          66          67          68          69          70
 IAtWgt=          14           1          12          14           1          12          14          12          12          14
 AtmWgt=  14.0030740   1.0078250  12.0000000  14.0030740   1.0078250  12.0000000  14.0030740  12.0000000  12.0000000  14.0030740
 NucSpn=           2           1           0           2           1           0           2           0           0           2
 AtZEff=  -0.0000000  -0.0000000  -0.0000000  -0.0000000  -0.0000000  -0.0000000  -0.0000000  -0.0000000  -0.0000000  -0.0000000
 NQMom=    2.0440000   0.0000000   0.0000000   2.0440000   0.0000000   0.0000000   2.0440000   0.0000000   0.0000000   2.0440000
 NMagM=    0.4037610   2.7928460   0.0000000   0.4037610   2.7928460   0.0000000   0.4037610   0.0000000   0.0000000   0.4037610
 AtZNuc=   7.0000000   1.0000000   6.0000000   7.0000000   1.0000000   6.0000000   7.0000000   6.0000000   6.0000000   7.0000000
 Leave Link  101 at Fri Jan 26 00:18:53 2018, MaxMem=  4294967296 cpu:               6.6 elap:               0.2
 (Enter /share/apps/g16/l202.exe)
 Stoichiometry    C23H27N17O3
 Framework group  C1[X(C23H27N17O3)]
 Deg. of freedom   204
 Full point group                 C1      NOp   1
 Largest Abelian subgroup         C1      NOp   1
 Largest concise Abelian subgroup C1      NOp   1
                         Standard orientation:                         
 ---------------------------------------------------------------------
 Center     Atomic      Atomic             Coordinates (Angstroms)
 Number     Number       Type             X           Y           Z
 ---------------------------------------------------------------------
      1          7           0        4.921502   -1.986805   -1.588424
      2          6           0        6.334754   -1.572586   -1.684121
      3          6           0        2.723687   -1.974681   -1.506125
      4          7           0        3.109221   -3.301973   -1.386231
      5          6           0        4.417890   -3.256159   -1.440606
      6          1           0        5.071900   -4.126334   -1.377249
      7          7           0        1.427396   -0.009973   -1.656028
      8          6           0        2.583158    0.652918   -1.767151
      9          1           0        2.491407    1.733015   -1.873147
     10          7           0        3.829406    0.184120   -1.766990
     11          6           0        3.829818   -1.152320   -1.631527
     12          6           0        1.461493   -1.353737   -1.521108
     13          7           0        0.308832   -2.017215   -1.410041
     14          1           0        0.286515   -3.012388   -1.308313
     15          1           0       -0.571224   -1.542413   -1.424728
     16          1           0        6.759064   -2.010926   -2.476578
     17          1           0        6.385601   -0.579603   -1.786710
     18          1           0        6.821213   -1.845577   -0.854165
     19          7           0        4.186660    3.006006    1.021856
     20          6           0        2.880063    2.583821    1.073122
     21          6           0        4.627932    4.381614    0.715760
     22          7           0       -0.513912    3.263939    0.790154
     23          1           0       -1.375833    2.764907    0.875618
     24          1           0       -0.573141    4.235747    0.560383
     25          7           0        1.788590    3.348554    0.854238
     26          6           0        0.668691    2.658033    0.975159
     27          7           0        0.619288    1.320833    1.286550
     28          1           0       -0.282147    0.874474    1.358243
     29          6           0        1.729603    0.514322    1.515901
     30          8           0        1.575438   -0.682159    1.790512
     31          6           0        2.940045    1.242147    1.389550
     32          7           0        4.257783    0.830323    1.534026
     33          6           0        4.959913    1.907279    1.307377
     34          1           0        6.049008    1.955907    1.335670
     35          1           0        5.205018    4.374526   -0.100161
     36          1           0        3.827940    4.957273    0.551773
     37          1           0        5.147148    4.746453    1.487840
     38          1           0       -5.029346   -0.896478    0.933327
     39          1           0       -5.014612   -0.763165    2.690222
     40          1           0       -4.074032    0.364701    1.713191
     41          1           0       -2.521374   -4.834484    2.094680
     42          6           0       -2.374532   -3.757549    2.011737
     43          8           0       -0.006415   -3.895519    2.002346
     44          6           0       -1.043597   -3.234228    1.960866
     45          1           0       -0.046198   -1.452956    1.817350
     46          7           0       -0.970134   -1.859877    1.855966
     47          8           0       -1.853984    0.226573    1.705065
     48          6           0       -2.019328   -0.977061    1.797779
     49          1           0       -4.449815   -3.269037    1.992060
     50          6           0       -3.418076   -2.921705    1.957057
     51          6           0       -4.423085   -0.654050    1.793412
     52          7           0       -3.271037   -1.557964    1.852351
     53          1           0       -5.215053    4.282622   -2.022061
     54          1           0       -3.909105    4.133465   -1.055440
     55          1           0       -5.405836    4.167890   -0.405311
     56          1           0       -3.269487   -2.857358   -1.473411
     57          1           0       -4.891244   -2.351394   -1.628340
     58          7           0       -3.929810   -2.106688   -1.498072
     59          6           0       -3.546358   -0.835469   -1.363319
     60          6           0       -3.886817    1.516124   -1.237455
     61          7           0       -2.588803    1.815162   -1.063786
     62          1           0       -0.781695    0.859150   -0.918813
     63          6           0       -1.851429    0.706508   -1.055314
     64          7           0       -2.233604   -0.567595   -1.190118
     65          1           0       -7.056251    2.059395   -1.571682
     66          6           0       -6.063125    1.617447   -1.486124
     67          7           0       -5.811406    0.332694   -1.547161
     68          6           0       -4.435098    0.254621   -1.390894
     69          6           0       -4.861953    3.861455   -1.186634
     70          7           0       -4.944348    2.392311   -1.299958
 ---------------------------------------------------------------------
 Rotational constants (GHZ):           0.1199542           0.0609149           0.0513313
 Leave Link  202 at Fri Jan 26 00:18:53 2018, MaxMem=  4294967296 cpu:               0.4 elap:               0.0
 (Enter /share/apps/g16/l301.exe)
 Standard basis: CC-pVDZ (5D, 7F)
 Ernie: Thresh=  0.10000D-02 Tol=  0.10000D-05 Strict=F.
 Ernie:  86 primitive shells out of 1081 were deleted.
 There are   780 symmetry adapted cartesian basis functions of A   symmetry.
 There are   737 symmetry adapted basis functions of A   symmetry.
   737 basis functions,  1608 primitive gaussians,   780 cartesian basis functions
   154 alpha electrons      154 beta electrons
       nuclear repulsion energy      5492.6046305824 Hartrees.
 IExCor= 4639 DFT=T Ex+Corr=wB97XD ExCW=0 ScaHFX=  1.000000
 ScaDFX=  1.000000  1.000000  1.000000  1.000000 ScalE2=  1.000000  1.000000
 IRadAn=      5 IRanWt=     -1 IRanGd=            0 ICorTp=0 IEmpDi=121
 HFx  wShort=  0.000000 wLong=  0.200000 cFull=  0.222036 cShort=  0.000000 cLong=  0.777964
 DFx  wShort=  0.000000 wLong=  0.200000 cFull=  0.000000 cShort=  0.000000 cLong=  1.000000
 NAtoms=   70 NActive=   70 NUniq=   70 SFac= 1.00D+00 NAtFMM=   60 NAOKFM=T Big=T
 Integral buffers will be    131072 words long.
 Raffenetti 2 integral format.
 Two-electron integral symmetry is turned on.
 R6Disp:  Grimme-D2 Dispersion energy=       -0.0694724637 Hartrees.
 Nuclear repulsion after empirical dispersion term =     5492.5351581187 Hartrees.
 Leave Link  301 at Fri Jan 26 00:18:53 2018, MaxMem=  4294967296 cpu:               2.1 elap:               0.1
 (Enter /share/apps/g16/l302.exe)
 NPDir=0 NMtPBC=     1 NCelOv=     1 NCel=       1 NClECP=     1 NCelD=      1
         NCelK=      1 NCelE2=     1 NClLst=     1 CellRange=     0.0.
 One-electron integrals computed using PRISM.
 One-electron integral symmetry used in STVInt
 NBasis=   737 RedAO= T EigKep=  7.22D-04  NBF=   737
 NBsUse=   737 1.00D-06 EigRej= -1.00D+00 NBFU=   737
 Precomputing XC quadrature grid using
 IXCGrd= 4 IRadAn=           5 IRanWt=          -1 IRanGd=           0 AccXCQ= 0.00D+00.
 Generated NRdTot=       0 NPtTot=           0 NUsed=           0 NTot=          32
 NSgBfM=   761   761   761   761   761 MxSgAt=    70 MxSgA2=    70.
 Leave Link  302 at Fri Jan 26 00:19:05 2018, MaxMem=  4294967296 cpu:             357.7 elap:              11.6
 (Enter /share/apps/g16/l303.exe)
 DipDrv:  MaxL=1.
 Leave Link  303 at Fri Jan 26 00:19:06 2018, MaxMem=  4294967296 cpu:              12.6 elap:               0.4
 (Enter /share/apps/g16/l401.exe)
 ExpMin= 1.22D-01 ExpMax= 1.17D+04 ExpMxC= 4.01D+02 IAcc=3 IRadAn=         5 AccDes= 0.00D+00
 Harris functional with IExCor= 4639 and IRadAn=       5 diagonalized for initial guess.
 HarFok:  IExCor= 4639 AccDes= 0.00D+00 IRadAn=         5 IDoV= 1 UseB2=F ITyADJ=14
 ICtDFT=  3500011 ScaDFX=  1.000000  1.000000  1.000000  1.000000
 FoFCou: FMM=F IPFlag=           0 FMFlag=      100000 FMFlg1=        2001
         NFxFlg=           0 DoJE=T BraDBF=F KetDBF=T FulRan=T
         wScrn=  0.000000 ICntrl=       500 IOpCl=  0 I1Cent=   200000004 NGrid=           0
         NMat0=    1 NMatS0=      1 NMatT0=    0 NMatD0=    1 NMtDS0=    0 NMtDT0=    0
 Petite list used in FoFCou.
 Harris En= -1963.88844275225    
 JPrj=0 DoOrth=F DoCkMO=F.
 Leave Link  401 at Fri Jan 26 00:19:18 2018, MaxMem=  4294967296 cpu:             400.6 elap:              12.6
 (Enter /share/apps/g16/l502.exe)
 Integral symmetry usage will be decided dynamically.
 Closed shell SCF:
 Using DIIS extrapolation, IDIIS=  1040.
 NGot=  4294967296 LenX=  4293717438 LenY=  4293108258
 Requested convergence on RMS density matrix=1.00D-08 within  20 cycles.
 Requested convergence on MAX density matrix=1.00D-06.
 Requested convergence on             energy=1.00D-06.
 No special actions if energy rises.
 Fock matrices will be formed incrementally for  20 cycles.
 Integral accuracy reduced to 1.0D-05 until final iterations.

 Cycle   1  Pass 0  IDiag  1:
 FoFJK:  IHMeth= 1 ICntrl=       0 DoSepK=T KAlg= 0 I1Cent=           0 FoldK=F
 IRaf=         1 NMat=       1 IRICut=       1 DoRegI=T DoRafI=F ISym2E= 0 IDoP0=0 IntGTp=1.
 FoFCou: FMM=T IPFlag=           0 FMFlag=      100000 FMFlg1=        2001
         NFxFlg=           0 DoJE=T BraDBF=F KetDBF=F FulRan=T
         wScrn=  0.000000 ICntrl=       500 IOpCl=  0 I1Cent=           0 NGrid=           0
         NMat0=    1 NMatS0=      1 NMatT0=    0 NMatD0=    1 NMtDS0=    0 NMtDT0=    0
 Symmetry not used in FoFCou.
 FMM levels:  10  Number of levels for PrismC:   9
 E= -2048.31782122589    
 DIIS: error= 2.53D-02 at cycle   1 NSaved=   1.
 NSaved= 1 IEnMin= 1 EnMin= -2048.31782122589     IErMin= 1 ErrMin= 2.53D-02
 ErrMax= 2.53D-02  0.00D+00 EMaxC= 1.00D-01 BMatC= 8.30D-01 BMatP= 8.30D-01
 IDIUse=3 WtCom= 7.47D-01 WtEn= 2.53D-01
 Coeff-Com:  0.100D+01
 Coeff-En:   0.100D+01
 Coeff:      0.100D+01
 Gap=     0.252 Goal=   None    Shift=    0.000
 GapD=    0.252 DampG=1.000 DampE=0.500 DampFc=0.5000 IDamp=-1.
 Damping current iteration by 5.00D-01
 RMSDP=1.54D-03 MaxDP=1.33D-01              OVMax= 2.12D-01

 Cycle   2  Pass 0  IDiag  1:
 RMSU=  7.69D-04    CP:  9.98D-01
 E= -2048.51576378450     Delta-E=       -0.197942558614 Rises=F Damp=T
 DIIS: error= 1.42D-02 at cycle   2 NSaved=   2.
 NSaved= 2 IEnMin= 2 EnMin= -2048.51576378450     IErMin= 2 ErrMin= 1.42D-02
 ErrMax= 1.42D-02  0.00D+00 EMaxC= 1.00D-01 BMatC= 1.44D-01 BMatP= 8.30D-01
 IDIUse=3 WtCom= 8.58D-01 WtEn= 1.42D-01
 Coeff-Com: -0.204D+00 0.120D+01
 Coeff-En:   0.000D+00 0.100D+01
 Coeff:     -0.175D+00 0.118D+01
 Gap=     0.290 Goal=   None    Shift=    0.000
 RMSDP=5.74D-04 MaxDP=3.63D-02 DE=-1.98D-01 OVMax= 1.45D-01

 Cycle   3  Pass 0  IDiag  1:
 RMSU=  5.59D-04    CP:  9.94D-01  1.16D+00
 E= -2048.69753038716     Delta-E=       -0.181766602659 Rises=F Damp=F
 DIIS: error= 1.02D-02 at cycle   3 NSaved=   3.
 NSaved= 3 IEnMin= 3 EnMin= -2048.69753038716     IErMin= 3 ErrMin= 1.02D-02
 ErrMax= 1.02D-02  0.00D+00 EMaxC= 1.00D-01 BMatC= 5.89D-02 BMatP= 1.44D-01
 IDIUse=3 WtCom= 8.98D-01 WtEn= 1.02D-01
 Coeff-Com: -0.229D+00 0.541D+00 0.688D+00
 Coeff-En:   0.000D+00 0.000D+00 0.100D+01
 Coeff:     -0.206D+00 0.485D+00 0.720D+00
 Gap=     0.276 Goal=   None    Shift=    0.000
 RMSDP=3.41D-04 MaxDP=3.66D-02 DE=-1.82D-01 OVMax= 7.58D-02

 Cycle   4  Pass 0  IDiag  1:
 RMSU=  1.96D-04    CP:  9.95D-01  1.44D+00  6.77D-01
 E= -2048.74068113418     Delta-E=       -0.043150747017 Rises=F Damp=F
 DIIS: error= 4.22D-03 at cycle   4 NSaved=   4.
 NSaved= 4 IEnMin= 4 EnMin= -2048.74068113418     IErMin= 4 ErrMin= 4.22D-03
 ErrMax= 4.22D-03  0.00D+00 EMaxC= 1.00D-01 BMatC= 9.62D-03 BMatP= 5.89D-02
 IDIUse=3 WtCom= 9.58D-01 WtEn= 4.22D-02
 Coeff-Com: -0.910D-01 0.176D+00 0.388D+00 0.527D+00
 Coeff-En:   0.000D+00 0.000D+00 0.843D-01 0.916D+00
 Coeff:     -0.871D-01 0.168D+00 0.375D+00 0.544D+00
 Gap=     0.279 Goal=   None    Shift=    0.000
 RMSDP=1.27D-04 MaxDP=1.41D-02 DE=-4.32D-02 OVMax= 1.66D-02

 Cycle   5  Pass 0  IDiag  1:
 RMSU=  6.18D-05    CP:  9.94D-01  1.41D+00  8.16D-01  6.17D-01
 E= -2048.74826927063     Delta-E=       -0.007588136448 Rises=F Damp=F
 DIIS: error= 7.97D-04 at cycle   5 NSaved=   5.
 NSaved= 5 IEnMin= 5 EnMin= -2048.74826927063     IErMin= 5 ErrMin= 7.97D-04
 ErrMax= 7.97D-04  0.00D+00 EMaxC= 1.00D-01 BMatC= 3.18D-04 BMatP= 9.62D-03
 IDIUse=3 WtCom= 9.92D-01 WtEn= 7.97D-03
 Coeff-Com: -0.231D-01 0.391D-01 0.127D+00 0.248D+00 0.609D+00
 Coeff-En:   0.000D+00 0.000D+00 0.000D+00 0.000D+00 0.100D+01
 Coeff:     -0.229D-01 0.388D-01 0.126D+00 0.246D+00 0.612D+00
 Gap=     0.279 Goal=   None    Shift=    0.000
 RMSDP=2.51D-05 MaxDP=2.84D-03 DE=-7.59D-03 OVMax= 3.14D-03

 Failed to achieve initial convergence to 1.0D-08 in  6 cycles.
 Switch to full accuracy anyway.
 Cycle   6  Pass 1  IDiag  1:
 E= -2048.74866642820     Delta-E=       -0.000397157574 Rises=F Damp=F
 DIIS: error= 2.51D-04 at cycle   1 NSaved=   1.
 NSaved= 1 IEnMin= 1 EnMin= -2048.74866642820     IErMin= 1 ErrMin= 2.51D-04
 ErrMax= 2.51D-04  0.00D+00 EMaxC= 1.00D-01 BMatC= 8.02D-05 BMatP= 8.02D-05
 IDIUse=3 WtCom= 9.97D-01 WtEn= 2.51D-03
 Coeff-Com:  0.100D+01
 Coeff-En:   0.100D+01
 Coeff:      0.100D+01
 Gap=     0.279 Goal=   None    Shift=    0.000
 RMSDP=2.51D-05 MaxDP=2.84D-03 DE=-3.97D-04 OVMax= 2.11D-03

 Cycle   7  Pass 1  IDiag  1:
 RMSU=  1.17D-04    CP:  1.00D+00
 E= -2048.74872217323     Delta-E=       -0.000055745031 Rises=F Damp=F
 DIIS: error= 3.35D-04 at cycle   2 NSaved=   2.
 NSaved= 2 IEnMin= 2 EnMin= -2048.74872217323     IErMin= 1 ErrMin= 2.51D-04
 ErrMax= 3.35D-04  0.00D+00 EMaxC= 1.00D-01 BMatC= 5.11D-05 BMatP= 8.02D-05
 IDIUse=3 WtCom= 9.97D-01 WtEn= 3.35D-03
 Coeff-Com:  0.425D+00 0.575D+00
 Coeff-En:   0.000D+00 0.100D+01
 Coeff:      0.423D+00 0.577D+00
 Gap=     0.279 Goal=   None    Shift=    0.000
 RMSDP=1.13D-05 MaxDP=1.62D-03 DE=-5.57D-05 OVMax= 1.77D-03

 Cycle   8  Pass 1  IDiag  1:
 RMSU=  1.09D-05    CP:  1.00D+00  1.02D+00
 E= -2048.74875689233     Delta-E=       -0.000034719093 Rises=F Damp=F
 DIIS: error= 1.30D-04 at cycle   3 NSaved=   3.
 NSaved= 3 IEnMin= 3 EnMin= -2048.74875689233     IErMin= 3 ErrMin= 1.30D-04
 ErrMax= 1.30D-04  0.00D+00 EMaxC= 1.00D-01 BMatC= 1.13D-05 BMatP= 5.11D-05
 IDIUse=3 WtCom= 9.99D-01 WtEn= 1.30D-03
 Coeff-Com: -0.193D-01 0.308D+00 0.711D+00
 Coeff-En:   0.000D+00 0.133D+00 0.867D+00
 Coeff:     -0.193D-01 0.308D+00 0.712D+00
 Gap=     0.279 Goal=   None    Shift=    0.000
 RMSDP=5.69D-06 MaxDP=5.81D-04 DE=-3.47D-05 OVMax= 5.71D-04

 Cycle   9  Pass 1  IDiag  1:
 RMSU=  3.79D-06    CP:  1.00D+00  1.05D+00  7.63D-01
 E= -2048.74876661762     Delta-E=       -0.000009725294 Rises=F Damp=F
 DIIS: error= 3.52D-05 at cycle   4 NSaved=   4.
 NSaved= 4 IEnMin= 4 EnMin= -2048.74876661762     IErMin= 4 ErrMin= 3.52D-05
 ErrMax= 3.52D-05  0.00D+00 EMaxC= 1.00D-01 BMatC= 4.73D-07 BMatP= 1.13D-05
 IDIUse=1 WtCom= 1.00D+00 WtEn= 0.00D+00
 Coeff-Com: -0.296D-01 0.871D-01 0.257D+00 0.686D+00
 Coeff:     -0.296D-01 0.871D-01 0.257D+00 0.686D+00
 Gap=     0.279 Goal=   None    Shift=    0.000
 RMSDP=1.37D-06 MaxDP=1.41D-04 DE=-9.73D-06 OVMax= 4.63D-04

 Cycle  10  Pass 1  IDiag  1:
 RMSU=  1.23D-06    CP:  1.00D+00  1.06D+00  7.92D-01  1.11D+00
 E= -2048.74876739149     Delta-E=       -0.000000773868 Rises=F Damp=F
 DIIS: error= 1.36D-05 at cycle   5 NSaved=   5.
 NSaved= 5 IEnMin= 5 EnMin= -2048.74876739149     IErMin= 5 ErrMin= 1.36D-05
 ErrMax= 1.36D-05  0.00D+00 EMaxC= 1.00D-01 BMatC= 1.05D-07 BMatP= 4.73D-07
 IDIUse=1 WtCom= 1.00D+00 WtEn= 0.00D+00
 Coeff-Com: -0.210D-02-0.515D-01-0.121D+00 0.183D+00 0.992D+00
 Coeff:     -0.210D-02-0.515D-01-0.121D+00 0.183D+00 0.992D+00
 Gap=     0.279 Goal=   None    Shift=    0.000
 RMSDP=1.15D-06 MaxDP=7.27D-05 DE=-7.74D-07 OVMax= 2.18D-04

 Cycle  11  Pass 1  IDiag  1:
 RMSU=  4.82D-07    CP:  1.00D+00  1.06D+00  7.97D-01  1.37D+00  1.17D+00
 E= -2048.74876762159     Delta-E=       -0.000000230099 Rises=F Damp=F
 DIIS: error= 1.00D-05 at cycle   6 NSaved=   6.
 NSaved= 6 IEnMin= 6 EnMin= -2048.74876762159     IErMin= 6 ErrMin= 1.00D-05
 ErrMax= 1.00D-05  0.00D+00 EMaxC= 1.00D-01 BMatC= 2.74D-08 BMatP= 1.05D-07
 IDIUse=1 WtCom= 1.00D+00 WtEn= 0.00D+00
 Coeff-Com:  0.465D-02-0.426D-01-0.113D+00-0.116D-01 0.535D+00 0.628D+00
 Coeff:      0.465D-02-0.426D-01-0.113D+00-0.116D-01 0.535D+00 0.628D+00
 Gap=     0.279 Goal=   None    Shift=    0.000
 RMSDP=3.55D-07 MaxDP=3.70D-05 DE=-2.30D-07 OVMax= 1.15D-04

 Cycle  12  Pass 1  IDiag  1:
 RMSU=  1.85D-07    CP:  1.00D+00  1.06D+00  7.98D-01  1.44D+00  1.31D+00
                    CP:  9.11D-01
 E= -2048.74876765950     Delta-E=       -0.000000037914 Rises=F Damp=F
 DIIS: error= 1.22D-06 at cycle   7 NSaved=   7.
 NSaved= 7 IEnMin= 7 EnMin= -2048.74876765950     IErMin= 7 ErrMin= 1.22D-06
 ErrMax= 1.22D-06  0.00D+00 EMaxC= 1.00D-01 BMatC= 7.89D-10 BMatP= 2.74D-08
 IDIUse=1 WtCom= 1.00D+00 WtEn= 0.00D+00
 Coeff-Com:  0.113D-02-0.740D-02-0.214D-01-0.856D-02 0.663D-01 0.148D+00
 Coeff-Com:  0.821D+00
 Coeff:      0.113D-02-0.740D-02-0.214D-01-0.856D-02 0.663D-01 0.148D+00
 Coeff:      0.821D+00
 Gap=     0.279 Goal=   None    Shift=    0.000
 RMSDP=7.74D-08 MaxDP=5.16D-06 DE=-3.79D-08 OVMax= 2.08D-05

 Cycle  13  Pass 1  IDiag  1:
 RMSU=  4.87D-08    CP:  1.00D+00  1.06D+00  7.97D-01  1.45D+00  1.33D+00
                    CP:  9.96D-01  1.12D+00
 E= -2048.74876766107     Delta-E=       -0.000000001573 Rises=F Damp=F
 DIIS: error= 6.00D-07 at cycle   8 NSaved=   8.
 NSaved= 8 IEnMin= 8 EnMin= -2048.74876766107     IErMin= 8 ErrMin= 6.00D-07
 ErrMax= 6.00D-07  0.00D+00 EMaxC= 1.00D-01 BMatC= 2.97D-10 BMatP= 7.89D-10
 IDIUse=1 WtCom= 1.00D+00 WtEn= 0.00D+00
 Coeff-Com: -0.691D-03 0.792D-02 0.196D-01 0.397D-03-0.113D+00-0.920D-01
 Coeff-Com:  0.403D+00 0.774D+00
 Coeff:     -0.691D-03 0.792D-02 0.196D-01 0.397D-03-0.113D+00-0.920D-01
 Coeff:      0.403D+00 0.774D+00
 Gap=     0.279 Goal=   None    Shift=    0.000
 RMSDP=4.70D-08 MaxDP=2.82D-06 DE=-1.57D-09 OVMax= 1.11D-05

 Cycle  14  Pass 1  IDiag  1:
 RMSU=  2.71D-08    CP:  1.00D+00  1.06D+00  7.97D-01  1.45D+00  1.33D+00
                    CP:  1.04D+00  1.26D+00  1.09D+00
 E= -2048.74876766179     Delta-E=       -0.000000000717 Rises=F Damp=F
 DIIS: error= 2.05D-07 at cycle   9 NSaved=   9.
 NSaved= 9 IEnMin= 9 EnMin= -2048.74876766179     IErMin= 9 ErrMin= 2.05D-07
 ErrMax= 2.05D-07  0.00D+00 EMaxC= 1.00D-01 BMatC= 3.11D-11 BMatP= 2.97D-10
 IDIUse=1 WtCom= 1.00D+00 WtEn= 0.00D+00
 Coeff-Com: -0.429D-03 0.433D-02 0.110D-01 0.165D-02-0.554D-01-0.559D-01
 Coeff-Com:  0.808D-01 0.321D+00 0.693D+00
 Coeff:     -0.429D-03 0.433D-02 0.110D-01 0.165D-02-0.554D-01-0.559D-01
 Coeff:      0.808D-01 0.321D+00 0.693D+00
 Gap=     0.279 Goal=   None    Shift=    0.000
 RMSDP=1.30D-08 MaxDP=7.98D-07 DE=-7.17D-10 OVMax= 3.27D-06

 Cycle  15  Pass 1  IDiag  1:
 RMSU=  8.95D-09    CP:  1.00D+00  1.06D+00  7.97D-01  1.45D+00  1.33D+00
                    CP:  1.04D+00  1.29D+00  1.24D+00  1.10D+00
 E= -2048.74876766175     Delta-E=        0.000000000039 Rises=F Damp=F
 DIIS: error= 6.75D-08 at cycle  10 NSaved=  10.
 NSaved=10 IEnMin= 9 EnMin= -2048.74876766179     IErMin=10 ErrMin= 6.75D-08
 ErrMax= 6.75D-08  0.00D+00 EMaxC= 1.00D-01 BMatC= 4.74D-12 BMatP= 3.11D-11
 IDIUse=1 WtCom= 1.00D+00 WtEn= 0.00D+00
 Coeff-Com:  0.994D-05-0.330D-03-0.701D-03 0.741D-04 0.594D-02 0.155D-02
 Coeff-Com: -0.589D-01-0.635D-01 0.247D+00 0.869D+00
 Coeff:      0.994D-05-0.330D-03-0.701D-03 0.741D-04 0.594D-02 0.155D-02
 Coeff:     -0.589D-01-0.635D-01 0.247D+00 0.869D+00
 Gap=     0.279 Goal=   None    Shift=    0.000
 RMSDP=7.01D-09 MaxDP=3.95D-07 DE= 3.91D-11 OVMax= 1.54D-06

 SCF Done:  E(RwB97XD) =  -2048.74876766     A.U. after   15 cycles
            NFock= 15  Conv=0.70D-08     -V/T= 2.0054
 KE= 2.037699713205D+03 PE=-1.576589349309D+04 EE= 6.186909854108D+03
 Leave Link  502 at Fri Jan 26 00:30:28 2018, MaxMem=  4294967296 cpu:           20715.6 elap:             670.2
 (Enter /share/apps/g16/l601.exe)
 Copying SCF densities to generalized density rwf, IOpCl= 0 IROHF=0.

 **********************************************************************

            Population analysis using the SCF density.

 **********************************************************************

 Orbital symmetries:
       Occupied  (A) (A) (A) (A) (A) (A) (A) (A) (A) (A) (A) (A)
                 (A) (A) (A) (A) (A) (A) (A) (A) (A) (A) (A) (A)
                 (A) (A) (A) (A) (A) (A) (A) (A) (A) (A) (A) (A)
                 (A) (A) (A) (A) (A) (A) (A) (A) (A) (A) (A) (A)
                 (A) (A) (A) (A) (A) (A) (A) (A) (A) (A) (A) (A)
                 (A) (A) (A) (A) (A) (A) (A) (A) (A) (A) (A) (A)
                 (A) (A) (A) (A) (A) (A) (A) (A) (A) (A) (A) (A)
                 (A) (A) (A) (A) (A) (A) (A) (A) (A) (A) (A) (A)
                 (A) (A) (A) (A) (A) (A) (A) (A) (A) (A) (A) (A)
                 (A) (A) (A) (A) (A) (A) (A) (A) (A) (A) (A) (A)
                 (A) (A) (A) (A) (A) (A) (A) (A) (A) (A) (A) (A)
                 (A) (A) (A) (A) (A) (A) (A) (A) (A) (A) (A) (A)
                 (A) (A) (A) (A) (A) (A) (A) (A) (A) (A)
       Virtual   (A) (A) (A) (A) (A) (A) (A) (A) (A) (A) (A) (A)
                 (A) (A) (A) (A) (A) (A) (A) (A) (A) (A) (A) (A)
                 (A) (A) (A) (A) (A) (A) (A) (A) (A) (A) (A) (A)
                 (A) (A) (A) (A) (A) (A) (A) (A) (A) (A) (A) (A)
                 (A) (A) (A) (A) (A) (A) (A) (A) (A) (A) (A) (A)
                 (A) (A) (A) (A) (A) (A) (A) (A) (A) (A) (A) (A)
                 (A) (A) (A) (A) (A) (A) (A) (A) (A) (A) (A) (A)
                 (A) (A) (A) (A) (A) (A) (A) (A) (A) (A) (A) (A)
                 (A) (A) (A) (A) (A) (A) (A) (A) (A) (A) (A) (A)
                 (A) (A) (A) (A) (A) (A) (A) (A) (A) (A) (A) (A)
                 (A) (A) (A) (A) (A) (A) (A) (A) (A) (A) (A) (A)
                 (A) (A) (A) (A) (A) (A) (A) (A) (A) (A) (A) (A)
                 (A) (A) (A) (A) (A) (A) (A) (A) (A) (A) (A) (A)
                 (A) (A) (A) (A) (A) (A) (A) (A) (A) (A) (A) (A)
                 (A) (A) (A) (A) (A) (A) (A) (A) (A) (A) (A) (A)
                 (A) (A) (A) (A) (A) (A) (A) (A) (A) (A) (A) (A)
                 (A) (A) (A) (A) (A) (A) (A) (A) (A) (A) (A) (A)
                 (A) (A) (A) (A) (A) (A) (A) (A) (A) (A) (A) (A)
                 (A) (A) (A) (A) (A) (A) (A) (A) (A) (A) (A) (A)
                 (A) (A) (A) (A) (A) (A) (A) (A) (A) (A) (A) (A)
                 (A) (A) (A) (A) (A) (A) (A) (A) (A) (A) (A) (A)
                 (A) (A) (A) (A) (A) (A) (A) (A) (A) (A) (A) (A)
                 (A) (A) (A) (A) (A) (A) (A) (A) (A) (A) (A) (A)
                 (A) (A) (A) (A) (A) (A) (A) (A) (A) (A) (A) (A)
                 (A) (A) (A) (A) (A) (A) (A) (A) (A) (A) (A) (A)
                 (A) (A) (A) (A) (A) (A) (A) (A) (A) (A) (A) (A)
                 (A) (A) (A) (A) (A) (A) (A) (A) (A) (A) (A) (A)
                 (A) (A) (A) (A) (A) (A) (A) (A) (A) (A) (A) (A)
                 (A) (A) (A) (A) (A) (A) (A) (A) (A) (A) (A) (A)
                 (A) (A) (A) (A) (A) (A) (A) (A) (A) (A) (A) (A)
                 (A) (A) (A) (A) (A) (A) (A) (A) (A) (A) (A) (A)
                 (A) (A) (A) (A) (A) (A) (A) (A) (A) (A) (A) (A)
                 (A) (A) (A) (A) (A) (A) (A) (A) (A) (A) (A) (A)
                 (A) (A) (A) (A) (A) (A) (A) (A) (A) (A) (A) (A)
                 (A) (A) (A) (A) (A) (A) (A) (A) (A) (A) (A) (A)
                 (A) (A) (A) (A) (A) (A) (A) (A) (A) (A) (A) (A)
                 (A) (A) (A) (A) (A) (A) (A) (A) (A) (A) (A) (A)
                 (A) (A) (A) (A) (A) (A) (A) (A) (A) (A) (A) (A)
                 (A) (A) (A) (A) (A) (A) (A) (A) (A) (A) (A) (A)
                 (A) (A) (A) (A) (A) (A) (A) (A) (A) (A) (A) (A)
                 (A) (A) (A) (A) (A) (A) (A) (A) (A) (A) (A) (A)
                 (A) (A) (A) (A) (A) (A) (A) (A) (A) (A) (A) (A)
                 (A) (A) (A) (A) (A) (A) (A) (A) (A) (A) (A) (A)
                 (A) (A) (A) (A) (A) (A) (A) (A) (A) (A) (A) (A)
                 (A) (A) (A) (A) (A) (A) (A) (A) (A) (A) (A) (A)
                 (A) (A) (A) (A) (A) (A) (A) (A) (A) (A) (A) (A)
                 (A) (A) (A) (A) (A) (A) (A) (A) (A) (A) (A) (A)
                 (A) (A) (A) (A) (A) (A) (A) (A) (A) (A) (A) (A)
                 (A) (A) (A) (A) (A) (A) (A)
 The electronic state is 1-A.
 Alpha  occ. eigenvalues --  -19.25270 -19.21501 -19.20316 -14.52775 -14.52035
 Alpha  occ. eigenvalues --  -14.49090 -14.48619 -14.48173 -14.47323 -14.46490
 Alpha  occ. eigenvalues --  -14.45926 -14.45720 -14.44923 -14.44883 -14.42713
 Alpha  occ. eigenvalues --  -14.41720 -14.40890 -14.40681 -14.40560 -14.40194
 Alpha  occ. eigenvalues --  -10.44967 -10.40841 -10.40579 -10.39633 -10.38291
 Alpha  occ. eigenvalues --  -10.37932 -10.37642 -10.37561 -10.36381 -10.35435
 Alpha  occ. eigenvalues --  -10.34654 -10.34210 -10.34112 -10.33598 -10.33166
 Alpha  occ. eigenvalues --  -10.33095 -10.32923 -10.32782 -10.30871 -10.30846
 Alpha  occ. eigenvalues --  -10.30290 -10.28182 -10.27835  -1.18956  -1.15537
 Alpha  occ. eigenvalues --   -1.12877  -1.12515  -1.10810  -1.10357  -1.09901
 Alpha  occ. eigenvalues --   -1.08909  -1.08177  -1.05471  -1.04915  -1.01974
 Alpha  occ. eigenvalues --   -1.01339  -1.00406  -0.99205  -0.98252  -0.97453
 Alpha  occ. eigenvalues --   -0.96525  -0.96383  -0.92599  -0.90750  -0.88049
 Alpha  occ. eigenvalues --   -0.86270  -0.83880  -0.83471  -0.83172  -0.82324
 Alpha  occ. eigenvalues --   -0.81850  -0.78513  -0.77516  -0.75382  -0.74354
 Alpha  occ. eigenvalues --   -0.73218  -0.72888  -0.72711  -0.70961  -0.70746
 Alpha  occ. eigenvalues --   -0.67414  -0.66949  -0.66120  -0.66112  -0.64770
 Alpha  occ. eigenvalues --   -0.64153  -0.63487  -0.62568  -0.62419  -0.61349
 Alpha  occ. eigenvalues --   -0.60985  -0.60654  -0.60311  -0.59719  -0.59313
 Alpha  occ. eigenvalues --   -0.59135  -0.57835  -0.56655  -0.56318  -0.55722
 Alpha  occ. eigenvalues --   -0.55698  -0.55647  -0.55449  -0.54697  -0.54143
 Alpha  occ. eigenvalues --   -0.53925  -0.53500  -0.53360  -0.53130  -0.52786
 Alpha  occ. eigenvalues --   -0.52649  -0.52008  -0.51339  -0.50400  -0.50252
 Alpha  occ. eigenvalues --   -0.49901  -0.49822  -0.49734  -0.49017  -0.48712
 Alpha  occ. eigenvalues --   -0.48529  -0.48024  -0.47904  -0.47434  -0.47012
 Alpha  occ. eigenvalues --   -0.46567  -0.45696  -0.45313  -0.44220  -0.43591
 Alpha  occ. eigenvalues --   -0.41245  -0.40957  -0.38973  -0.38169  -0.38049
 Alpha  occ. eigenvalues --   -0.37225  -0.37023  -0.36547  -0.35453  -0.35112
 Alpha  occ. eigenvalues --   -0.34980  -0.33612  -0.33261  -0.33111  -0.32703
 Alpha  occ. eigenvalues --   -0.32374  -0.32225  -0.31676  -0.31645  -0.30609
 Alpha  occ. eigenvalues --   -0.30507  -0.30165  -0.25769  -0.25010
 Alpha virt. eigenvalues --    0.02888   0.04086   0.06256   0.08214   0.09073
 Alpha virt. eigenvalues --    0.09503   0.10030   0.10269   0.11155   0.11412
 Alpha virt. eigenvalues --    0.12941   0.14246   0.14731   0.14962   0.15331
 Alpha virt. eigenvalues --    0.15473   0.16430   0.16953   0.17230   0.17498
 Alpha virt. eigenvalues --    0.18839   0.19610   0.20248   0.20337   0.20631
 Alpha virt. eigenvalues --    0.20751   0.20976   0.21121   0.21374   0.21645
 Alpha virt. eigenvalues --    0.22196   0.23220   0.23831   0.23885   0.24072
 Alpha virt. eigenvalues --    0.24461   0.24505   0.24719   0.24841   0.25171
 Alpha virt. eigenvalues --    0.25296   0.25778   0.27508   0.28157   0.28475
 Alpha virt. eigenvalues --    0.28941   0.29145   0.29629   0.30479   0.30935
 Alpha virt. eigenvalues --    0.31672   0.31913   0.32399   0.33357   0.33591
 Alpha virt. eigenvalues --    0.33794   0.34447   0.34986   0.35835   0.36225
 Alpha virt. eigenvalues --    0.36901   0.37160   0.38020   0.38711   0.39096
 Alpha virt. eigenvalues --    0.39436   0.40117   0.40541   0.41444   0.42009
 Alpha virt. eigenvalues --    0.42176   0.42880   0.43525   0.43999   0.44406
 Alpha virt. eigenvalues --    0.44528   0.45228   0.45804   0.46387   0.47190
 Alpha virt. eigenvalues --    0.47706   0.47964   0.48592   0.48919   0.49675
 Alpha virt. eigenvalues --    0.49874   0.50261   0.50682   0.51087   0.51249
 Alpha virt. eigenvalues --    0.51321   0.51912   0.52564   0.52855   0.53792
 Alpha virt. eigenvalues --    0.53967   0.54045   0.54721   0.55120   0.55470
 Alpha virt. eigenvalues --    0.56136   0.56256   0.56766   0.57373   0.57569
 Alpha virt. eigenvalues --    0.57733   0.58305   0.58567   0.59249   0.59720
 Alpha virt. eigenvalues --    0.60117   0.60219   0.60392   0.60969   0.61185
 Alpha virt. eigenvalues --    0.61676   0.61880   0.62328   0.62771   0.62957
 Alpha virt. eigenvalues --    0.62983   0.63534   0.63943   0.65050   0.65534
 Alpha virt. eigenvalues --    0.66095   0.66300   0.66703   0.66793   0.66936
 Alpha virt. eigenvalues --    0.67371   0.67893   0.68114   0.68638   0.69460
 Alpha virt. eigenvalues --    0.69718   0.70331   0.70419   0.70839   0.71939
 Alpha virt. eigenvalues --    0.72070   0.72503   0.72823   0.73319   0.73526
 Alpha virt. eigenvalues --    0.74191   0.74315   0.74795   0.75092   0.75352
 Alpha virt. eigenvalues --    0.76072   0.76288   0.76482   0.76706   0.76967
 Alpha virt. eigenvalues --    0.77364   0.77714   0.78070   0.78707   0.79091
 Alpha virt. eigenvalues --    0.79288   0.79817   0.80490   0.80702   0.80866
 Alpha virt. eigenvalues --    0.80898   0.81237   0.81516   0.82510   0.82687
 Alpha virt. eigenvalues --    0.83324   0.84159   0.84349   0.84885   0.85901
 Alpha virt. eigenvalues --    0.86010   0.86226   0.86513   0.86601   0.87631
 Alpha virt. eigenvalues --    0.87869   0.88069   0.88619   0.89059   0.89772
 Alpha virt. eigenvalues --    0.90420   0.91218   0.91494   0.91933   0.92336
 Alpha virt. eigenvalues --    0.92421   0.92847   0.93173   0.93698   0.93940
 Alpha virt. eigenvalues --    0.94583   0.95325   0.95742   0.96048   0.96316
 Alpha virt. eigenvalues --    0.96826   0.97334   0.98205   0.98563   0.99071
 Alpha virt. eigenvalues --    0.99337   0.99696   1.00249   1.00464   1.00909
 Alpha virt. eigenvalues --    1.01117   1.01761   1.02069   1.02587   1.03118
 Alpha virt. eigenvalues --    1.03907   1.04337   1.04489   1.04651   1.04925
 Alpha virt. eigenvalues --    1.05621   1.05990   1.06775   1.06863   1.07729
 Alpha virt. eigenvalues --    1.08512   1.09178   1.09404   1.09915   1.10423
 Alpha virt. eigenvalues --    1.11052   1.11656   1.12000   1.12690   1.13201
 Alpha virt. eigenvalues --    1.13598   1.14515   1.14662   1.15165   1.15609
 Alpha virt. eigenvalues --    1.15776   1.16453   1.17188   1.17337   1.17565
 Alpha virt. eigenvalues --    1.18142   1.18370   1.19016   1.19497   1.19687
 Alpha virt. eigenvalues --    1.20418   1.20516   1.20764   1.21003   1.21111
 Alpha virt. eigenvalues --    1.21817   1.22652   1.22755   1.23142   1.23382
 Alpha virt. eigenvalues --    1.23847   1.24583   1.24738   1.24862   1.25114
 Alpha virt. eigenvalues --    1.25514   1.26856   1.27673   1.27861   1.28250
 Alpha virt. eigenvalues --    1.28580   1.29232   1.30019   1.30723   1.31643
 Alpha virt. eigenvalues --    1.32377   1.32593   1.33342   1.33822   1.34128
 Alpha virt. eigenvalues --    1.34534   1.35439   1.36041   1.36257   1.36715
 Alpha virt. eigenvalues --    1.37001   1.38001   1.38779   1.39180   1.41086
 Alpha virt. eigenvalues --    1.41380   1.42199   1.42722   1.42964   1.44740
 Alpha virt. eigenvalues --    1.45003   1.45676   1.46139   1.46971   1.48074
 Alpha virt. eigenvalues --    1.48538   1.49156   1.49812   1.50146   1.50633
 Alpha virt. eigenvalues --    1.51253   1.51987   1.53002   1.53376   1.54918
 Alpha virt. eigenvalues --    1.55368   1.56176   1.56721   1.56849   1.57417
 Alpha virt. eigenvalues --    1.58467   1.58656   1.59042   1.59392   1.60448
 Alpha virt. eigenvalues --    1.61175   1.62022   1.62165   1.62495   1.63622
 Alpha virt. eigenvalues --    1.63893   1.64487   1.65024   1.65396   1.66331
 Alpha virt. eigenvalues --    1.66539   1.67668   1.67776   1.68304   1.68951
 Alpha virt. eigenvalues --    1.69243   1.69825   1.70119   1.70708   1.70792
 Alpha virt. eigenvalues --    1.71643   1.72275   1.72876   1.73353   1.73539
 Alpha virt. eigenvalues --    1.73810   1.74448   1.74968   1.75390   1.75456
 Alpha virt. eigenvalues --    1.75760   1.76386   1.76785   1.76943   1.77054
 Alpha virt. eigenvalues --    1.77268   1.77726   1.77836   1.78334   1.78628
 Alpha virt. eigenvalues --    1.79262   1.79815   1.79988   1.80097   1.80422
 Alpha virt. eigenvalues --    1.80744   1.81038   1.81383   1.81653   1.81859
 Alpha virt. eigenvalues --    1.82139   1.82519   1.83331   1.83512   1.84020
 Alpha virt. eigenvalues --    1.84397   1.85230   1.85744   1.86221   1.86713
 Alpha virt. eigenvalues --    1.86856   1.87652   1.88651   1.88978   1.89310
 Alpha virt. eigenvalues --    1.89400   1.89823   1.90154   1.90649   1.91465
 Alpha virt. eigenvalues --    1.92263   1.92505   1.92882   1.93650   1.93919
 Alpha virt. eigenvalues --    1.94503   1.94863   1.94969   1.96249   1.96969
 Alpha virt. eigenvalues --    1.97819   1.99155   1.99233   2.00157   2.00996
 Alpha virt. eigenvalues --    2.01714   2.02638   2.02805   2.03123   2.03819
 Alpha virt. eigenvalues --    2.04287   2.04847   2.05789   2.06223   2.06457
 Alpha virt. eigenvalues --    2.07415   2.08362   2.08753   2.09239   2.09432
 Alpha virt. eigenvalues --    2.09724   2.10573   2.11248   2.12753   2.13542
 Alpha virt. eigenvalues --    2.13911   2.14792   2.15114   2.15771   2.16700
 Alpha virt. eigenvalues --    2.17480   2.19557   2.19848   2.20557   2.21143
 Alpha virt. eigenvalues --    2.21588   2.22066   2.22607   2.22890   2.23711
 Alpha virt. eigenvalues --    2.24632   2.24877   2.25795   2.26039   2.26302
 Alpha virt. eigenvalues --    2.27331   2.27994   2.28233   2.29576   2.30056
 Alpha virt. eigenvalues --    2.30319   2.30729   2.31591   2.31775   2.32408
 Alpha virt. eigenvalues --    2.32980   2.33559   2.34320   2.34556   2.34730
 Alpha virt. eigenvalues --    2.35231   2.35498   2.36111   2.36762   2.37295
 Alpha virt. eigenvalues --    2.37789   2.38416   2.39179   2.40766   2.41029
 Alpha virt. eigenvalues --    2.41648   2.42491   2.42548   2.42969   2.43865
 Alpha virt. eigenvalues --    2.44162   2.44798   2.45113   2.45945   2.46418
 Alpha virt. eigenvalues --    2.47464   2.48122   2.49917   2.50896   2.51785
 Alpha virt. eigenvalues --    2.52962   2.53431   2.54532   2.55803   2.56458
 Alpha virt. eigenvalues --    2.57067   2.57275   2.58703   2.59334   2.60439
 Alpha virt. eigenvalues --    2.61185   2.61742   2.62630   2.62989   2.63708
 Alpha virt. eigenvalues --    2.64430   2.64801   2.65143   2.65472   2.65964
 Alpha virt. eigenvalues --    2.66198   2.67387   2.68257   2.69216   2.69410
 Alpha virt. eigenvalues --    2.69612   2.69882   2.71052   2.71353   2.71812
 Alpha virt. eigenvalues --    2.72463   2.74864   2.75123   2.75689   2.76249
 Alpha virt. eigenvalues --    2.76607   2.77237   2.77959   2.79191   2.79468
 Alpha virt. eigenvalues --    2.79818   2.80350   2.80623   2.80756   2.80974
 Alpha virt. eigenvalues --    2.81606   2.82510   2.82631   2.83448   2.83728
 Alpha virt. eigenvalues --    2.84404   2.85736   2.86312   2.86805   2.87165
 Alpha virt. eigenvalues --    2.87569   2.88211   2.89556   2.91775   2.94067
 Alpha virt. eigenvalues --    2.94569   2.95304   2.97167   2.97594   2.99755
 Alpha virt. eigenvalues --    2.99918   3.01135   3.01297   3.04466   3.04980
 Alpha virt. eigenvalues --    3.07254   3.08619   3.10580   3.13133   3.15192
 Alpha virt. eigenvalues --    3.15402   3.15895   3.17057   3.17985   3.20137
 Alpha virt. eigenvalues --    3.20500   3.22864   3.23940   3.24583   3.25650
 Alpha virt. eigenvalues --    3.43957   3.47424   3.48053   3.49217   3.50800
 Alpha virt. eigenvalues --    3.53471   3.54496   3.56590   3.58165   3.60478
 Alpha virt. eigenvalues --    3.63880   3.71121   3.75208
          Condensed to atoms (all electrons):
 Mulliken charges:
               1
     1  N   -0.313740
     2  C    0.183982
     3  C    0.051953
     4  N   -0.261572
     5  C    0.140551
     6  H    0.026396
     7  N   -0.293697
     8  C    0.130512
     9  H    0.013806
    10  N   -0.278925
    11  C    0.263632
    12  C    0.100297
    13  N   -0.067814
    14  H    0.109900
    15  H    0.079841
    16  H    0.021203
    17  H    0.032063
    18  H    0.030258
    19  N   -0.308602
    20  C    0.244635
    21  C    0.180613
    22  N   -0.102788
    23  H    0.111130
    24  H    0.113145
    25  N   -0.309138
    26  C    0.229438
    27  N   -0.136319
    28  H    0.112992
    29  C    0.187263
    30  O   -0.323234
    31  C   -0.015343
    32  N   -0.225584
    33  C    0.128303
    34  H    0.020666
    35  H    0.027979
    36  H    0.028523
    37  H    0.024009
    38  H    0.055957
    39  H    0.059861
    40  H    0.074979
    41  H    0.029354
    42  C   -0.116003
    43  O   -0.260053
    44  C    0.176117
    45  H    0.133824
    46  N   -0.128667
    47  O   -0.343274
    48  C    0.349469
    49  H    0.042941
    50  C    0.162744
    51  C    0.038920
    52  N   -0.281910
    53  H    0.035660
    54  H    0.036288
    55  H    0.031475
    56  H    0.118805
    57  H    0.119016
    58  N   -0.060315
    59  C    0.079431
    60  C    0.256805
    61  N   -0.282412
    62  H    0.036268
    63  C    0.180782
    64  N   -0.309598
    65  H    0.040051
    66  C    0.139705
    67  N   -0.260825
    68  C    0.021828
    69  C    0.180706
    70  N   -0.314263
 Sum of Mulliken charges =  -0.00000
 Mulliken charges with hydrogens summed into heavy atoms:
               1
     1  N   -0.313740
     2  C    0.267506
     3  C    0.051953
     4  N   -0.261572
     5  C    0.166947
     7  N   -0.293697
     8  C    0.144318
    10  N   -0.278925
    11  C    0.263632
    12  C    0.100297
    13  N    0.121927
    19  N   -0.308602
    20  C    0.244635
    21  C    0.261125
    22  N    0.121487
    25  N   -0.309138
    26  C    0.229438
    27  N   -0.023327
    29  C    0.187263
    30  O   -0.323234
    31  C   -0.015343
    32  N   -0.225584
    33  C    0.148969
    42  C   -0.086650
    43  O   -0.260053
    44  C    0.176117
    46  N    0.005157
    47  O   -0.343274
    48  C    0.349469
    50  C    0.205685
    51  C    0.229718
    52  N   -0.281910
    58  N    0.177506
    59  C    0.079431
    60  C    0.256805
    61  N   -0.282412
    63  C    0.217049
    64  N   -0.309598
    66  C    0.179757
    67  N   -0.260825
    68  C    0.021828
    69  C    0.284129
    70  N   -0.314263
 Electronic spatial extent (au):  <R**2>=          21897.6961
 Charge=             -0.0000 electrons
 Dipole moment (field-independent basis, Debye):
    X=             -9.0480    Y=              5.5929    Z=             -1.8339  Tot=             10.7940
 Quadrupole moment (field-independent basis, Debye-Ang):
   XX=           -166.8848   YY=           -212.4537   ZZ=           -253.4842
   XY=              6.5941   XZ=            -12.8529   YZ=              7.6526
 Traceless Quadrupole moment (field-independent basis, Debye-Ang):
   XX=             44.0561   YY=             -1.5128   ZZ=            -42.5433
   XY=              6.5941   XZ=            -12.8529   YZ=              7.6526
 Octapole moment (field-independent basis, Debye-Ang**2):
  XXX=             65.8493  YYY=            149.1850  ZZZ=             12.3049  XYY=            -99.8966
  XXY=             66.3873  XXZ=            -27.8979  XZZ=            -42.9685  YZZ=              8.2660
  YYZ=            -39.4858  XYZ=             67.3277
 Hexadecapole moment (field-independent basis, Debye-Ang**3):
 XXXX=         -14784.2686 YYYY=          -6926.4815 ZZZZ=          -3610.6477 XXXY=           -498.3065
 XXXZ=           -333.8171 YYYX=            135.0459 YYYZ=             59.8697 ZZZX=            -71.2104
 ZZZY=             -3.5693 XXYY=          -2906.4561 XXZZ=          -3490.7190 YYZZ=          -1847.2195
 XXYZ=             21.9819 YYXZ=             88.4127 ZZXY=             19.7089
 N-N= 5.492535158119D+03 E-N=-1.576589348595D+04  KE= 2.037699713205D+03
 No NMR shielding tensors so no spin-rotation constants.
 Leave Link  601 at Fri Jan 26 00:30:30 2018, MaxMem=  4294967296 cpu:              46.8 elap:               1.7
 (Enter /share/apps/g16/l9999.exe)
 1\1\GINC-COMPUTE-0-3\SP\RwB97XD\CC-pVDZ\C23H27N17O3\SATYA\26-Jan-2018\
 0\\#p wb97xd/cc-pvdz sp scf=(maxcycles=20)\\Base pair stacking\\0,1\N,
 0,2.69727,-1.68905,-7.1202\C,0,4.05435,-1.14339,-7.31668\C,0,0.54242,-
 1.88546,-6.72605\N,0,1.01005,-3.16785,-6.97407\C,0,2.28955,-2.9982,-7.
 2016\H,0,2.98939,-3.80088,-7.43586\N,0,-0.86094,-0.05604,-6.22934\C,0,
 0.22696,0.71231,-6.34627\H,0,0.06398,1.77692,-6.18408\N,0,1.48009,0.36
 466,-6.63212\C,0,1.57089,-0.96335,-6.81259\C,0,-0.73663,-1.38813,-6.41
 682\N,0,-1.82145,-2.15677,-6.30052\H,0,-1.77601,-3.14781,-6.43087\H,0,
 -2.71609,-1.76842,-6.07926\H,0,4.37015,-1.35656,-8.24134\H,0,4.03702,-
 0.15182,-7.19172\H,0,4.67929,-1.5507,-6.65069\N,0,2.12743,2.51721,-3.3
 4338\C,0,0.86891,1.98289,-3.20665\C,0,2.44318,3.9593,-3.38071\N,0,-2.5
 5766,2.41296,-2.83874\H,0,-3.36832,1.83484,-2.75013\H,0,-2.70254,3.402
 68,-2.82544\N,0,-0.28144,2.67988,-3.08442\C,0,-1.331,1.88562,-2.96958\
 N,0,-1.26148,0.51352,-2.97388\H,0,-2.116,-0.0138,-2.88066\C,0,-0.08874
 ,-0.22474,-3.09843\O,0,-0.1356,-1.46106,-3.09052\C,0,1.04732,0.61478,-
 3.22268\N,0,2.39081,0.29661,-3.36658\C,0,2.99176,1.45355,-3.43396\H,0,
 4.06766,1.58861,-3.55011\H,0,2.88366,4.18338,-4.24937\H,0,1.59869,4.48
 566,-3.29102\H,0,3.05835,4.18714,-2.62675\H,0,-6.77287,-2.04969,-3.027
 06\H,0,-6.48758,-2.30889,-1.30773\H,0,-5.77271,-0.91535,-2.11913\H,0,-
 3.91299,-5.91541,-3.18151\C,0,-3.83689,-4.83837,-3.03176\O,0,-1.49609,
 -4.76565,-3.40921\C,0,-2.55953,-4.20381,-3.14805\H,0,-1.69064,-2.35576
 ,-3.01361\N,0,-2.57461,-2.83938,-2.93985\O,0,-3.57771,-0.85586,-2.4743
 7\C,0,-3.66397,-2.05972,-2.64155\H,0,-5.91162,-4.53888,-2.64236\C,0,-4
 .9177,-4.10462,-2.74181\C,0,-6.05164,-1.95275,-2.22925\N,0,-4.85965,-2
 .74418,-2.54634\H,0,-7.69038,3.62027,-4.64001\H,0,-6.24215,3.37371,-3.
 93012\H,0,-7.61709,3.13351,-3.08401\H,0,-5.31662,-3.26788,-6.04863\H,0
 ,-6.96641,-2.88223,-5.84972\N,0,-6.0104,-2.5904,-5.80403\C,0,-5.67661,
 -1.35254,-5.43325\C,0,-6.11383,0.87402,-4.717\N,0,-4.82187,1.23807,-4.
 66472\H,0,-2.96765,0.43355,-5.00418\C,0,-4.03619,0.22316,-5.01908\N,0,
 -4.36858,-1.01738,-5.39076\H,0,-9.32002,1.20196,-4.46212\C,0,-8.30438,
 0.83956,-4.62361\N,0,-7.99949,-0.37292,-5.01682\C,0,-6.61361,-0.3645,-
 5.08009\C,0,-7.18843,3.05631,-3.98427\N,0,-7.21175,1.64748,-4.42321\\V
 ersion=EM64L-G16RevA.03\State=1-A\HF=-2048.7487677\RMSD=7.006e-09\Dipo
 le=-3.7378396,1.9896124,0.3229951\Quadrupole=27.4863119,-3.6380423,-23
 .8482696,11.5295403,-17.1485271,9.4484153\PG=C01 [X(C23H27N17O3)]\\@


 MOST BUREAUCRACIES FUNCTION LIKE A SEPTIC TANK.
 THE LARGE CHUNKS RISE TO THE TOP.
 Job cpu time:       0 days  5 hours 59 minutes 10.6 seconds.
 Elapsed time:       0 days  0 hours 11 minutes 37.1 seconds.
 File lengths (MBytes):  RWF=    298 Int=      0 D2E=      0 Chk=     33 Scr=      1
 Normal termination of Gaussian 16 at Fri Jan 26 00:30:31 2018.
