 Entering Gaussian System, Link 0=g16
 Input=str55.-15.2.0.com
 Output=str55.-15.2.0.log
 Initial command:
 /share/apps/g16/l1.exe "/state/partition1/scr/Gau-26457.inp" -scrdir="/state/partition1/scr/"
 Entering Link 1 = /share/apps/g16/l1.exe PID=     26458.
  
 Copyright (c) 1988,1990,1992,1993,1995,1998,2003,2009,2016,
            Gaussian, Inc.  All Rights Reserved.
  
 This is part of the Gaussian(R) 16 program.  It is based on
 the Gaussian(R) 09 system (copyright 2009, Gaussian, Inc.),
 the Gaussian(R) 03 system (copyright 2003, Gaussian, Inc.),
 the Gaussian(R) 98 system (copyright 1998, Gaussian, Inc.),
 the Gaussian(R) 94 system (copyright 1995, Gaussian, Inc.),
 the Gaussian 92(TM) system (copyright 1992, Gaussian, Inc.),
 the Gaussian 90(TM) system (copyright 1990, Gaussian, Inc.),
 the Gaussian 88(TM) system (copyright 1988, Gaussian, Inc.),
 the Gaussian 86(TM) system (copyright 1986, Carnegie Mellon
 University), and the Gaussian 82(TM) system (copyright 1983,
 Carnegie Mellon University). Gaussian is a federally registered
 trademark of Gaussian, Inc.
  
 This software contains proprietary and confidential information,
 including trade secrets, belonging to Gaussian, Inc.
  
 This software is provided under written license and may be
 used, copied, transmitted, or stored only in accord with that
 written license.
  
 The following legend is applicable only to US Government
 contracts under FAR:
  
                    RESTRICTED RIGHTS LEGEND
  
 Use, reproduction and disclosure by the US Government is
 subject to restrictions as set forth in subparagraphs (a)
 and (c) of the Commercial Computer Software - Restricted
 Rights clause in FAR 52.227-19.
  
 Gaussian, Inc.
 340 Quinnipiac St., Bldg. 40, Wallingford CT 06492
  
  
 ---------------------------------------------------------------
 Warning -- This program may not be used in any manner that
 competes with the business of Gaussian, Inc. or will provide
 assistance to any competitor of Gaussian, Inc.  The licensee
 of this program is prohibited from giving any competitor of
 Gaussian, Inc. access to this program.  By using this program,
 the user acknowledges that Gaussian, Inc. is engaged in the
 business of creating and licensing software in the field of
 computational chemistry and represents and warrants to the
 licensee that it is not a competitor of Gaussian, Inc. and that
 it will not use this program in any manner prohibited above.
 ---------------------------------------------------------------
  

 Cite this work as:
 Gaussian 16, Revision A.03,
 M. J. Frisch, G. W. Trucks, H. B. Schlegel, G. E. Scuseria, 
 M. A. Robb, J. R. Cheeseman, G. Scalmani, V. Barone, 
 G. A. Petersson, H. Nakatsuji, X. Li, M. Caricato, A. V. Marenich, 
 J. Bloino, B. G. Janesko, R. Gomperts, B. Mennucci, H. P. Hratchian, 
 J. V. Ortiz, A. F. Izmaylov, J. L. Sonnenberg, D. Williams-Young, 
 F. Ding, F. Lipparini, F. Egidi, J. Goings, B. Peng, A. Petrone, 
 T. Henderson, D. Ranasinghe, V. G. Zakrzewski, J. Gao, N. Rega, 
 G. Zheng, W. Liang, M. Hada, M. Ehara, K. Toyota, R. Fukuda, 
 J. Hasegawa, M. Ishida, T. Nakajima, Y. Honda, O. Kitao, H. Nakai, 
 T. Vreven, K. Throssell, J. A. Montgomery, Jr., J. E. Peralta, 
 F. Ogliaro, M. J. Bearpark, J. J. Heyd, E. N. Brothers, K. N. Kudin, 
 V. N. Staroverov, T. A. Keith, R. Kobayashi, J. Normand, 
 K. Raghavachari, A. P. Rendell, J. C. Burant, S. S. Iyengar, 
 J. Tomasi, M. Cossi, J. M. Millam, M. Klene, C. Adamo, R. Cammi, 
 J. W. Ochterski, R. L. Martin, K. Morokuma, O. Farkas, 
 J. B. Foresman, and D. J. Fox, Gaussian, Inc., Wallingford CT, 2016.
 
 ******************************************
 Gaussian 16:  EM64L-G16RevA.03 25-Dec-2016
                26-Jan-2018 
 ******************************************
 %nprocshared=32
 Will use up to   32 processors via shared memory.
 %mem=32GB
 %chk=allatoms_t.chk
 ---------------------------------------
 #p wb97xd/cc-pvdz sp scf=(maxcycles=20)
 ---------------------------------------
 1/38=1,172=1/1;
 2/12=2,17=6,18=5,40=1/2;
 3/5=16,11=2,25=1,30=1,74=-58/1,2,3;
 4//1;
 5/5=2,7=20,38=5/2;
 6/7=2,8=2,9=2,10=2,28=1/1;
 99/5=1,9=1/99;
 Leave Link    1 at Fri Jan 26 06:03:18 2018, MaxMem=  4294967296 cpu:               2.7 elap:               0.1
 (Enter /share/apps/g16/l101.exe)
 ------------------
 Base pair stacking
 ------------------
 Symbolic Z-matrix:
 Charge =  0 Multiplicity = 1
 N                     1.49119  -1.93223  -7.21033 
 C                     2.84156  -1.38908  -7.45424 
 C                    -0.63038  -2.138    -6.66821 
 N                    -0.21473  -3.39194  -7.09202 
 C                     1.0468   -3.21778  -7.40167 
 H                     1.70655  -4.00014  -7.77794 
 N                    -1.94595  -0.35373  -5.86287 
 C                    -0.85224   0.40601  -5.98194 
 H                    -0.97624   1.44837  -5.69151 
 N                     0.36593   0.07301  -6.40393 
 C                     0.41019  -1.22795  -6.73554 
 C                    -1.86894  -1.65848  -6.20457 
 N                    -2.95963  -2.41848  -6.08641 
 H                    -2.94851  -3.38947  -6.3278 
 H                    -3.82458  -2.04339  -5.75276 
 H                     3.07889  -1.50299  -8.41906 
 H                     2.85806  -0.4174   -7.2204 
 H                     3.50661  -1.87748  -6.88928 
 N                     1.76442   2.08231  -3.34455 
 C                     0.51556   1.54677  -3.14062 
 C                     2.08419   3.52397  -3.35239 
 N                    -2.87546   1.97247  -2.52294 
 H                    -3.68105   1.3937   -2.39933 
 H                    -3.01405   2.96146  -2.46465 
 N                    -0.62013   2.24199  -2.91496 
 C                    -1.66336   1.44691  -2.75643 
 N                    -1.60128   0.07566  -2.81412 
 H                    -2.45006  -0.4524   -2.6811 
 C                    -0.44362  -0.66078  -3.0451 
 O                    -0.49611  -1.89647  -3.07779 
 C                     0.68549   0.17964  -3.21736 
 N                     2.0143   -0.13673  -3.46449 
 C                     2.61509   1.02029  -3.532 
 H                     3.68114   1.15657  -3.717 
 H                     2.46515   3.77776  -4.2408 
 H                     1.25054   4.04903  -3.18624 
 H                     2.75081   3.72314  -2.63492 
 H                    -7.11628  -2.46948  -2.57895 
 H                    -6.715    -2.79064  -0.89358 
 H                    -6.05042  -1.37092  -1.70233 
 H                    -4.29344  -6.33475  -3.06658 
 C                    -4.20177  -5.26394  -2.88435 
 O                    -1.89205  -5.18398  -3.41906 
 C                    -2.9322   -4.62901  -3.06565 
 H                    -2.04674  -2.78924  -2.92588 
 N                    -2.92601  -3.27284  -2.80869 
 O                    -3.8847   -1.30457  -2.20534 
 C                    -3.98835  -2.50146  -2.40875 
 H                    -6.24333  -4.97308  -2.34283 
 C                    -5.25639  -4.53816  -2.49495 
 C                    -6.34152  -2.40299  -1.82969 
 N                    -5.17814  -3.18573  -2.25585 
 H                    -8.53931   3.22793  -3.33668 
 H                    -7.04642   2.88171  -2.77676 
 H                    -8.35644   2.57017  -1.85434 
 H                    -6.45029  -3.49672  -5.67776 
 H                    -8.06967  -3.11018  -5.30587 
 N                    -7.10623  -2.84001  -5.30544 
 C                    -6.71462  -1.65632  -4.82928 
 C                    -7.04052   0.48329  -3.84056 
 N                    -5.74      0.81932  -3.85269 
 H                    -3.93799   0.02905  -4.42615 
 C                    -5.0092   -0.16189  -4.37811 
 N                    -5.39955  -1.34816  -4.85557 
 H                    -10.20811   0.83023  -3.29448 
 C                    -9.21726   0.47242  -3.57579 
 N                    -8.97346  -0.69339  -4.12272 
 C                    -7.59697  -0.69934  -4.29584 
 C                    -8.00144   2.58691  -2.78915 
 N                    -8.09309   1.23613  -3.37652 
 
 ITRead=  0  0  0  0  0  0  0  0  0  0  0  0  0  0  0  0  0  0  0  0
 ITRead=  0  0  0  0  0  0  0  0  0  0  0  0  0  0  0  0  0  0  0  0
 ITRead=  0  0  0  0  0  0  0  0  0  0  0  0  0  0  0  0  0  0  0  0
 ITRead=  0  0  0  0  0  0  0  0  0  0
 MicOpt= -1 -1 -1 -1 -1 -1 -1 -1 -1 -1 -1 -1 -1 -1 -1 -1 -1 -1 -1 -1
 MicOpt= -1 -1 -1 -1 -1 -1 -1 -1 -1 -1 -1 -1 -1 -1 -1 -1 -1 -1 -1 -1
 MicOpt= -1 -1 -1 -1 -1 -1 -1 -1 -1 -1 -1 -1 -1 -1 -1 -1 -1 -1 -1 -1
 MicOpt= -1 -1 -1 -1 -1 -1 -1 -1 -1 -1
 NAtoms=     70 NQM=       70 NQMF=       0 NMMI=      0 NMMIF=      0
                NMic=       0 NMicF=      0.
                    Isotopes and Nuclear Properties:
 (Nuclear quadrupole moments (NQMom) in fm**2, nuclear magnetic moments (NMagM)
  in nuclear magnetons)

  Atom         1           2           3           4           5           6           7           8           9          10
 IAtWgt=          14          12          12          14          12           1          14          12           1          14
 AtmWgt=  14.0030740  12.0000000  12.0000000  14.0030740  12.0000000   1.0078250  14.0030740  12.0000000   1.0078250  14.0030740
 NucSpn=           2           0           0           2           0           1           2           0           1           2
 AtZEff=  -0.0000000  -0.0000000  -0.0000000  -0.0000000  -0.0000000  -0.0000000  -0.0000000  -0.0000000  -0.0000000  -0.0000000
 NQMom=    2.0440000   0.0000000   0.0000000   2.0440000   0.0000000   0.0000000   2.0440000   0.0000000   0.0000000   2.0440000
 NMagM=    0.4037610   0.0000000   0.0000000   0.4037610   0.0000000   2.7928460   0.4037610   0.0000000   2.7928460   0.4037610
 AtZNuc=   7.0000000   6.0000000   6.0000000   7.0000000   6.0000000   1.0000000   7.0000000   6.0000000   1.0000000   7.0000000

  Atom        11          12          13          14          15          16          17          18          19          20
 IAtWgt=          12          12          14           1           1           1           1           1          14          12
 AtmWgt=  12.0000000  12.0000000  14.0030740   1.0078250   1.0078250   1.0078250   1.0078250   1.0078250  14.0030740  12.0000000
 NucSpn=           0           0           2           1           1           1           1           1           2           0
 AtZEff=  -0.0000000  -0.0000000  -0.0000000  -0.0000000  -0.0000000  -0.0000000  -0.0000000  -0.0000000  -0.0000000  -0.0000000
 NQMom=    0.0000000   0.0000000   2.0440000   0.0000000   0.0000000   0.0000000   0.0000000   0.0000000   2.0440000   0.0000000
 NMagM=    0.0000000   0.0000000   0.4037610   2.7928460   2.7928460   2.7928460   2.7928460   2.7928460   0.4037610   0.0000000
 AtZNuc=   6.0000000   6.0000000   7.0000000   1.0000000   1.0000000   1.0000000   1.0000000   1.0000000   7.0000000   6.0000000

  Atom        21          22          23          24          25          26          27          28          29          30
 IAtWgt=          12          14           1           1          14          12          14           1          12          16
 AtmWgt=  12.0000000  14.0030740   1.0078250   1.0078250  14.0030740  12.0000000  14.0030740   1.0078250  12.0000000  15.9949146
 NucSpn=           0           2           1           1           2           0           2           1           0           0
 AtZEff=  -0.0000000  -0.0000000  -0.0000000  -0.0000000  -0.0000000  -0.0000000  -0.0000000  -0.0000000  -0.0000000  -0.0000000
 NQMom=    0.0000000   2.0440000   0.0000000   0.0000000   2.0440000   0.0000000   2.0440000   0.0000000   0.0000000   0.0000000
 NMagM=    0.0000000   0.4037610   2.7928460   2.7928460   0.4037610   0.0000000   0.4037610   2.7928460   0.0000000   0.0000000
 AtZNuc=   6.0000000   7.0000000   1.0000000   1.0000000   7.0000000   6.0000000   7.0000000   1.0000000   6.0000000   8.0000000

  Atom        31          32          33          34          35          36          37          38          39          40
 IAtWgt=          12          14          12           1           1           1           1           1           1           1
 AtmWgt=  12.0000000  14.0030740  12.0000000   1.0078250   1.0078250   1.0078250   1.0078250   1.0078250   1.0078250   1.0078250
 NucSpn=           0           2           0           1           1           1           1           1           1           1
 AtZEff=  -0.0000000  -0.0000000  -0.0000000  -0.0000000  -0.0000000  -0.0000000  -0.0000000  -0.0000000  -0.0000000  -0.0000000
 NQMom=    0.0000000   2.0440000   0.0000000   0.0000000   0.0000000   0.0000000   0.0000000   0.0000000   0.0000000   0.0000000
 NMagM=    0.0000000   0.4037610   0.0000000   2.7928460   2.7928460   2.7928460   2.7928460   2.7928460   2.7928460   2.7928460
 AtZNuc=   6.0000000   7.0000000   6.0000000   1.0000000   1.0000000   1.0000000   1.0000000   1.0000000   1.0000000   1.0000000

  Atom        41          42          43          44          45          46          47          48          49          50
 IAtWgt=           1          12          16          12           1          14          16          12           1          12
 AtmWgt=   1.0078250  12.0000000  15.9949146  12.0000000   1.0078250  14.0030740  15.9949146  12.0000000   1.0078250  12.0000000
 NucSpn=           1           0           0           0           1           2           0           0           1           0
 AtZEff=  -0.0000000  -0.0000000  -0.0000000  -0.0000000  -0.0000000  -0.0000000  -0.0000000  -0.0000000  -0.0000000  -0.0000000
 NQMom=    0.0000000   0.0000000   0.0000000   0.0000000   0.0000000   2.0440000   0.0000000   0.0000000   0.0000000   0.0000000
 NMagM=    2.7928460   0.0000000   0.0000000   0.0000000   2.7928460   0.4037610   0.0000000   0.0000000   2.7928460   0.0000000
 AtZNuc=   1.0000000   6.0000000   8.0000000   6.0000000   1.0000000   7.0000000   8.0000000   6.0000000   1.0000000   6.0000000

  Atom        51          52          53          54          55          56          57          58          59          60
 IAtWgt=          12          14           1           1           1           1           1          14          12          12
 AtmWgt=  12.0000000  14.0030740   1.0078250   1.0078250   1.0078250   1.0078250   1.0078250  14.0030740  12.0000000  12.0000000
 NucSpn=           0           2           1           1           1           1           1           2           0           0
 AtZEff=  -0.0000000  -0.0000000  -0.0000000  -0.0000000  -0.0000000  -0.0000000  -0.0000000  -0.0000000  -0.0000000  -0.0000000
 NQMom=    0.0000000   2.0440000   0.0000000   0.0000000   0.0000000   0.0000000   0.0000000   2.0440000   0.0000000   0.0000000
 NMagM=    0.0000000   0.4037610   2.7928460   2.7928460   2.7928460   2.7928460   2.7928460   0.4037610   0.0000000   0.0000000
 AtZNuc=   6.0000000   7.0000000   1.0000000   1.0000000   1.0000000   1.0000000   1.0000000   7.0000000   6.0000000   6.0000000

  Atom        61          62          63          64          65          66          67          68          69          70
 IAtWgt=          14           1          12          14           1          12          14          12          12          14
 AtmWgt=  14.0030740   1.0078250  12.0000000  14.0030740   1.0078250  12.0000000  14.0030740  12.0000000  12.0000000  14.0030740
 NucSpn=           2           1           0           2           1           0           2           0           0           2
 AtZEff=  -0.0000000  -0.0000000  -0.0000000  -0.0000000  -0.0000000  -0.0000000  -0.0000000  -0.0000000  -0.0000000  -0.0000000
 NQMom=    2.0440000   0.0000000   0.0000000   2.0440000   0.0000000   0.0000000   2.0440000   0.0000000   0.0000000   2.0440000
 NMagM=    0.4037610   2.7928460   0.0000000   0.4037610   2.7928460   0.0000000   0.4037610   0.0000000   0.0000000   0.4037610
 AtZNuc=   7.0000000   1.0000000   6.0000000   7.0000000   1.0000000   6.0000000   7.0000000   6.0000000   6.0000000   7.0000000
 Leave Link  101 at Fri Jan 26 06:03:19 2018, MaxMem=  4294967296 cpu:               7.8 elap:               0.3
 (Enter /share/apps/g16/l202.exe)
 Stoichiometry    C23H27N17O3
 Framework group  C1[X(C23H27N17O3)]
 Deg. of freedom   204
 Full point group                 C1      NOp   1
 Largest Abelian subgroup         C1      NOp   1
 Largest concise Abelian subgroup C1      NOp   1
                         Standard orientation:                         
 ---------------------------------------------------------------------
 Center     Atomic      Atomic             Coordinates (Angstroms)
 Number     Number       Type             X           Y           Z
 ---------------------------------------------------------------------
      1          7           0        4.599237   -2.017662   -1.717451
      2          6           0        6.015603   -1.615292   -1.817501
      3          6           0        2.403628   -1.984503   -1.592979
      4          7           0        2.774531   -3.320727   -1.551971
      5          6           0        4.082460   -3.287221   -1.628608
      6          1           0        4.726487   -4.167078   -1.624551
      7          7           0        1.129670    0.000332   -1.612377
      8          6           0        2.291474    0.654816   -1.709572
      9          1           0        2.211416    1.740042   -1.755565
     10          7           0        3.531503    0.172260   -1.758252
     11          6           0        3.517552   -1.169461   -1.694900
     12          6           0        1.149295   -1.349061   -1.550606
     13          7           0       -0.009408   -2.004160   -1.453563
     14          1           0       -0.042401   -3.003048   -1.405111
     15          1           0       -0.883532   -1.519080   -1.426007
     16          1           0        6.419796   -2.015080   -2.640286
     17          1           0        6.077089   -0.618880   -1.867477
     18          1           0        6.513700   -1.938345   -1.012801
     19          7           0        4.504656    2.942888    0.835869
     20          6           0        3.195795    2.532676    0.917432
     21          6           0        4.951726    4.307318    0.490680
     22          7           0       -0.196841    3.233633    0.671580
     23          1           0       -1.061154    2.743780    0.782195
     24          1           0       -0.252127    4.200253    0.419993
     25          7           0        2.106986    3.300958    0.697700
     26          6           0        0.983797    2.622604    0.852282
     27          7           0        0.928914    1.293492    1.195733
     28          1           0        0.025276    0.856289    1.291960
     29          6           0        2.036405    0.483535    1.426611
     30          8           0        1.877294   -0.704907    1.731640
     31          6           0        3.250330    1.198317    1.264308
     32          7           0        4.566940    0.779260    1.397829
     33          6           0        5.273767    1.844868    1.135006
     34          1           0        6.363504    1.885266    1.145142
     35          1           0        5.515778    4.276466   -0.333763
     36          1           0        4.153753    4.885501    0.325726
     37          1           0        5.485906    4.685871    1.245772
     38          1           0       -4.741674   -0.885366    0.982947
     39          1           0       -4.698160   -0.711153    2.735773
     40          1           0       -3.764381    0.385862    1.717950
     41          1           0       -2.246389   -4.815463    2.197202
     42          6           0       -2.092502   -3.741986    2.086694
     43          8           0        0.274028   -3.899444    2.043583
     44          6           0       -0.758513   -3.230866    2.002767
     45          1           0        0.250330   -1.461626    1.801890
     46          7           0       -0.676016   -1.859979    1.864472
     47          8           0       -1.545878    0.229501    1.678413
     48          6           0       -1.719096   -0.970249    1.801944
     49          1           0       -4.163970   -3.237180    2.087953
     50          6           0       -3.130246   -2.899173    2.028686
     51          6           0       -4.120039   -0.627857    1.827532
     52          7           0       -2.974269   -1.539500    1.889690
     53          1           0       -5.463724    4.383186   -1.621021
     54          1           0       -4.142289    4.166902   -0.688749
     55          1           0       -5.626325    4.183523   -0.009464
     56          1           0       -3.598603   -2.798096   -1.494197
     57          1           0       -5.216416   -2.265712   -1.590923
     58          7           0       -4.249749   -2.039573   -1.465922
     59          6           0       -3.847896   -0.782017   -1.270279
     60          6           0       -4.156332    1.563127   -1.011673
     61          7           0       -2.851694    1.837269   -0.846807
     62          1           0       -1.054423    0.853931   -0.787745
     63          6           0       -2.128311    0.721303   -0.911964
     64          7           0       -2.528924   -0.539142   -1.107839
     65          1           0       -7.324258    2.160383   -1.256060
     66          6           0       -6.335377    1.702971   -1.213233
     67          7           0       -6.101024    0.420557   -1.348055
     68          6           0       -4.723183    0.318203   -1.222330
     69          6           0       -5.100732    3.913442   -0.816299
     70          7           0       -5.203710    2.453622   -1.006903
 ---------------------------------------------------------------------
 Rotational constants (GHZ):           0.1224041           0.0600917           0.0505040
 Leave Link  202 at Fri Jan 26 06:03:19 2018, MaxMem=  4294967296 cpu:               0.5 elap:               0.0
 (Enter /share/apps/g16/l301.exe)
 Standard basis: CC-pVDZ (5D, 7F)
 Ernie: Thresh=  0.10000D-02 Tol=  0.10000D-05 Strict=F.
 Ernie:  86 primitive shells out of 1081 were deleted.
 There are   780 symmetry adapted cartesian basis functions of A   symmetry.
 There are   737 symmetry adapted basis functions of A   symmetry.
   737 basis functions,  1608 primitive gaussians,   780 cartesian basis functions
   154 alpha electrons      154 beta electrons
       nuclear repulsion energy      5496.8849712367 Hartrees.
 IExCor= 4639 DFT=T Ex+Corr=wB97XD ExCW=0 ScaHFX=  1.000000
 ScaDFX=  1.000000  1.000000  1.000000  1.000000 ScalE2=  1.000000  1.000000
 IRadAn=      5 IRanWt=     -1 IRanGd=            0 ICorTp=0 IEmpDi=121
 HFx  wShort=  0.000000 wLong=  0.200000 cFull=  0.222036 cShort=  0.000000 cLong=  0.777964
 DFx  wShort=  0.000000 wLong=  0.200000 cFull=  0.000000 cShort=  0.000000 cLong=  1.000000
 NAtoms=   70 NActive=   70 NUniq=   70 SFac= 1.00D+00 NAtFMM=   60 NAOKFM=T Big=T
 Integral buffers will be    131072 words long.
 Raffenetti 2 integral format.
 Two-electron integral symmetry is turned on.
 R6Disp:  Grimme-D2 Dispersion energy=       -0.0703401146 Hartrees.
 Nuclear repulsion after empirical dispersion term =     5496.8146311221 Hartrees.
 Leave Link  301 at Fri Jan 26 06:03:19 2018, MaxMem=  4294967296 cpu:               3.0 elap:               0.1
 (Enter /share/apps/g16/l302.exe)
 NPDir=0 NMtPBC=     1 NCelOv=     1 NCel=       1 NClECP=     1 NCelD=      1
         NCelK=      1 NCelE2=     1 NClLst=     1 CellRange=     0.0.
 One-electron integrals computed using PRISM.
 One-electron integral symmetry used in STVInt
 NBasis=   737 RedAO= T EigKep=  7.07D-04  NBF=   737
 NBsUse=   737 1.00D-06 EigRej= -1.00D+00 NBFU=   737
 Precomputing XC quadrature grid using
 IXCGrd= 4 IRadAn=           5 IRanWt=          -1 IRanGd=           0 AccXCQ= 0.00D+00.
 Generated NRdTot=       0 NPtTot=           0 NUsed=           0 NTot=          32
 NSgBfM=   757   757   757   757   757 MxSgAt=    70 MxSgA2=    70.
 Leave Link  302 at Fri Jan 26 06:03:23 2018, MaxMem=  4294967296 cpu:             136.6 elap:               4.3
 (Enter /share/apps/g16/l303.exe)
 DipDrv:  MaxL=1.
 Leave Link  303 at Fri Jan 26 06:03:24 2018, MaxMem=  4294967296 cpu:              12.6 elap:               0.4
 (Enter /share/apps/g16/l401.exe)
 ExpMin= 1.22D-01 ExpMax= 1.17D+04 ExpMxC= 4.01D+02 IAcc=3 IRadAn=         5 AccDes= 0.00D+00
 Harris functional with IExCor= 4639 and IRadAn=       5 diagonalized for initial guess.
 HarFok:  IExCor= 4639 AccDes= 0.00D+00 IRadAn=         5 IDoV= 1 UseB2=F ITyADJ=14
 ICtDFT=  3500011 ScaDFX=  1.000000  1.000000  1.000000  1.000000
 FoFCou: FMM=F IPFlag=           0 FMFlag=      100000 FMFlg1=        2001
         NFxFlg=           0 DoJE=T BraDBF=F KetDBF=T FulRan=T
         wScrn=  0.000000 ICntrl=       500 IOpCl=  0 I1Cent=   200000004 NGrid=           0
         NMat0=    1 NMatS0=      1 NMatT0=    0 NMatD0=    1 NMtDS0=    0 NMtDT0=    0
 Petite list used in FoFCou.
 Harris En= -1963.88443824724    
 JPrj=0 DoOrth=F DoCkMO=F.
 Leave Link  401 at Fri Jan 26 06:03:36 2018, MaxMem=  4294967296 cpu:             401.9 elap:              12.6
 (Enter /share/apps/g16/l502.exe)
 Integral symmetry usage will be decided dynamically.
 Closed shell SCF:
 Using DIIS extrapolation, IDIIS=  1040.
 NGot=  4294967296 LenX=  4293717438 LenY=  4293108258
 Requested convergence on RMS density matrix=1.00D-08 within  20 cycles.
 Requested convergence on MAX density matrix=1.00D-06.
 Requested convergence on             energy=1.00D-06.
 No special actions if energy rises.
 Fock matrices will be formed incrementally for  20 cycles.
 Integral accuracy reduced to 1.0D-05 until final iterations.

 Cycle   1  Pass 0  IDiag  1:
 FoFJK:  IHMeth= 1 ICntrl=       0 DoSepK=T KAlg= 0 I1Cent=           0 FoldK=F
 IRaf=         1 NMat=       1 IRICut=       1 DoRegI=T DoRafI=F ISym2E= 0 IDoP0=0 IntGTp=1.
 FoFCou: FMM=T IPFlag=           0 FMFlag=      100000 FMFlg1=        2001
         NFxFlg=           0 DoJE=T BraDBF=F KetDBF=F FulRan=T
         wScrn=  0.000000 ICntrl=       500 IOpCl=  0 I1Cent=           0 NGrid=           0
         NMat0=    1 NMatS0=      1 NMatT0=    0 NMatD0=    1 NMtDS0=    0 NMtDT0=    0
 Symmetry not used in FoFCou.
 FMM levels:  10  Number of levels for PrismC:   9
 E= -2048.31636038072    
 DIIS: error= 2.62D-02 at cycle   1 NSaved=   1.
 NSaved= 1 IEnMin= 1 EnMin= -2048.31636038072     IErMin= 1 ErrMin= 2.62D-02
 ErrMax= 2.62D-02  0.00D+00 EMaxC= 1.00D-01 BMatC= 8.29D-01 BMatP= 8.29D-01
 IDIUse=3 WtCom= 7.38D-01 WtEn= 2.62D-01
 Coeff-Com:  0.100D+01
 Coeff-En:   0.100D+01
 Coeff:      0.100D+01
 Gap=     0.253 Goal=   None    Shift=    0.000
 GapD=    0.253 DampG=1.000 DampE=0.500 DampFc=0.5000 IDamp=-1.
 Damping current iteration by 5.00D-01
 RMSDP=1.54D-03 MaxDP=1.34D-01              OVMax= 2.13D-01

 Cycle   2  Pass 0  IDiag  1:
 RMSU=  7.69D-04    CP:  9.98D-01
 E= -2048.51420976860     Delta-E=       -0.197849387880 Rises=F Damp=T
 DIIS: error= 1.47D-02 at cycle   2 NSaved=   2.
 NSaved= 2 IEnMin= 2 EnMin= -2048.51420976860     IErMin= 2 ErrMin= 1.47D-02
 ErrMax= 1.47D-02  0.00D+00 EMaxC= 1.00D-01 BMatC= 1.44D-01 BMatP= 8.29D-01
 IDIUse=3 WtCom= 8.53D-01 WtEn= 1.47D-01
 Coeff-Com: -0.206D+00 0.121D+01
 Coeff-En:   0.000D+00 0.100D+01
 Coeff:     -0.176D+00 0.118D+01
 Gap=     0.285 Goal=   None    Shift=    0.000
 RMSDP=5.77D-04 MaxDP=3.63D-02 DE=-1.98D-01 OVMax= 1.35D-01

 Cycle   3  Pass 0  IDiag  1:
 RMSU=  5.60D-04    CP:  9.94D-01  1.17D+00
 E= -2048.69586275921     Delta-E=       -0.181652990611 Rises=F Damp=F
 DIIS: error= 1.02D-02 at cycle   3 NSaved=   3.
 NSaved= 3 IEnMin= 3 EnMin= -2048.69586275921     IErMin= 3 ErrMin= 1.02D-02
 ErrMax= 1.02D-02  0.00D+00 EMaxC= 1.00D-01 BMatC= 5.82D-02 BMatP= 1.44D-01
 IDIUse=3 WtCom= 8.98D-01 WtEn= 1.02D-01
 Coeff-Com: -0.229D+00 0.540D+00 0.689D+00
 Coeff-En:   0.000D+00 0.000D+00 0.100D+01
 Coeff:     -0.205D+00 0.485D+00 0.721D+00
 Gap=     0.278 Goal=   None    Shift=    0.000
 RMSDP=3.38D-04 MaxDP=3.68D-02 DE=-1.82D-01 OVMax= 7.69D-02

 Cycle   4  Pass 0  IDiag  1:
 RMSU=  1.95D-04    CP:  9.94D-01  1.45D+00  6.78D-01
 E= -2048.73843168094     Delta-E=       -0.042568921732 Rises=F Damp=F
 DIIS: error= 4.33D-03 at cycle   4 NSaved=   4.
 NSaved= 4 IEnMin= 4 EnMin= -2048.73843168094     IErMin= 4 ErrMin= 4.33D-03
 ErrMax= 4.33D-03  0.00D+00 EMaxC= 1.00D-01 BMatC= 9.53D-03 BMatP= 5.82D-02
 IDIUse=3 WtCom= 9.57D-01 WtEn= 4.33D-02
 Coeff-Com: -0.905D-01 0.175D+00 0.388D+00 0.528D+00
 Coeff-En:   0.000D+00 0.000D+00 0.840D-01 0.916D+00
 Coeff:     -0.866D-01 0.167D+00 0.375D+00 0.545D+00
 Gap=     0.281 Goal=   None    Shift=    0.000
 RMSDP=1.26D-04 MaxDP=1.43D-02 DE=-4.26D-02 OVMax= 1.71D-02

 Cycle   5  Pass 0  IDiag  1:
 RMSU=  6.17D-05    CP:  9.94D-01  1.42D+00  8.17D-01  6.21D-01
 E= -2048.74592229046     Delta-E=       -0.007490609521 Rises=F Damp=F
 DIIS: error= 7.18D-04 at cycle   5 NSaved=   5.
 NSaved= 5 IEnMin= 5 EnMin= -2048.74592229046     IErMin= 5 ErrMin= 7.18D-04
 ErrMax= 7.18D-04  0.00D+00 EMaxC= 1.00D-01 BMatC= 3.19D-04 BMatP= 9.53D-03
 IDIUse=3 WtCom= 9.93D-01 WtEn= 7.18D-03
 Coeff-Com: -0.231D-01 0.393D-01 0.128D+00 0.249D+00 0.607D+00
 Coeff-En:   0.000D+00 0.000D+00 0.000D+00 0.000D+00 0.100D+01
 Coeff:     -0.230D-01 0.390D-01 0.127D+00 0.248D+00 0.610D+00
 Gap=     0.280 Goal=   None    Shift=    0.000
 RMSDP=2.52D-05 MaxDP=2.93D-03 DE=-7.49D-03 OVMax= 4.21D-03

 Failed to achieve initial convergence to 1.0D-08 in  6 cycles.
 Switch to full accuracy anyway.
 Cycle   6  Pass 1  IDiag  1:
 E= -2048.74625403484     Delta-E=       -0.000331744374 Rises=F Damp=F
 DIIS: error= 2.12D-04 at cycle   1 NSaved=   1.
 NSaved= 1 IEnMin= 1 EnMin= -2048.74625403484     IErMin= 1 ErrMin= 2.12D-04
 ErrMax= 2.12D-04  0.00D+00 EMaxC= 1.00D-01 BMatC= 7.80D-05 BMatP= 7.80D-05
 IDIUse=3 WtCom= 9.98D-01 WtEn= 2.12D-03
 Coeff-Com:  0.100D+01
 Coeff-En:   0.100D+01
 Coeff:      0.100D+01
 Gap=     0.281 Goal=   None    Shift=    0.000
 RMSDP=2.52D-05 MaxDP=2.93D-03 DE=-3.32D-04 OVMax= 2.22D-03

 Cycle   7  Pass 1  IDiag  1:
 RMSU=  1.13D-04    CP:  1.00D+00
 E= -2048.74630500949     Delta-E=       -0.000050974653 Rises=F Damp=F
 DIIS: error= 2.98D-04 at cycle   2 NSaved=   2.
 NSaved= 2 IEnMin= 2 EnMin= -2048.74630500949     IErMin= 1 ErrMin= 2.12D-04
 ErrMax= 2.98D-04  0.00D+00 EMaxC= 1.00D-01 BMatC= 5.24D-05 BMatP= 7.80D-05
 IDIUse=3 WtCom= 9.97D-01 WtEn= 2.98D-03
 Coeff-Com:  0.434D+00 0.566D+00
 Coeff-En:   0.550D-01 0.945D+00
 Coeff:      0.433D+00 0.567D+00
 Gap=     0.281 Goal=   None    Shift=    0.000
 RMSDP=1.12D-05 MaxDP=1.64D-03 DE=-5.10D-05 OVMax= 1.86D-03

 Cycle   8  Pass 1  IDiag  1:
 RMSU=  1.09D-05    CP:  1.00D+00  1.02D+00
 E= -2048.74634105877     Delta-E=       -0.000036049281 Rises=F Damp=F
 DIIS: error= 1.32D-04 at cycle   3 NSaved=   3.
 NSaved= 3 IEnMin= 3 EnMin= -2048.74634105877     IErMin= 3 ErrMin= 1.32D-04
 ErrMax= 1.32D-04  0.00D+00 EMaxC= 1.00D-01 BMatC= 1.07D-05 BMatP= 5.24D-05
 IDIUse=3 WtCom= 9.99D-01 WtEn= 1.32D-03
 Coeff-Com: -0.187D-01 0.298D+00 0.721D+00
 Coeff-En:   0.000D+00 0.118D+00 0.882D+00
 Coeff:     -0.187D-01 0.298D+00 0.721D+00
 Gap=     0.281 Goal=   None    Shift=    0.000
 RMSDP=5.63D-06 MaxDP=5.91D-04 DE=-3.60D-05 OVMax= 5.28D-04

 Cycle   9  Pass 1  IDiag  1:
 RMSU=  3.75D-06    CP:  1.00D+00  1.05D+00  7.71D-01
 E= -2048.74635029698     Delta-E=       -0.000009238206 Rises=F Damp=F
 DIIS: error= 3.37D-05 at cycle   4 NSaved=   4.
 NSaved= 4 IEnMin= 4 EnMin= -2048.74635029698     IErMin= 4 ErrMin= 3.37D-05
 ErrMax= 3.37D-05  0.00D+00 EMaxC= 1.00D-01 BMatC= 4.55D-07 BMatP= 1.07D-05
 IDIUse=1 WtCom= 1.00D+00 WtEn= 0.00D+00
 Coeff-Com: -0.301D-01 0.824D-01 0.256D+00 0.691D+00
 Coeff:     -0.301D-01 0.824D-01 0.256D+00 0.691D+00
 Gap=     0.281 Goal=   None    Shift=    0.000
 RMSDP=1.36D-06 MaxDP=1.39D-04 DE=-9.24D-06 OVMax= 4.83D-04

 Cycle  10  Pass 1  IDiag  1:
 RMSU=  1.21D-06    CP:  1.00D+00  1.05D+00  7.98D-01  1.11D+00
 E= -2048.74635105665     Delta-E=       -0.000000759669 Rises=F Damp=F
 DIIS: error= 1.26D-05 at cycle   5 NSaved=   5.
 NSaved= 5 IEnMin= 5 EnMin= -2048.74635105665     IErMin= 5 ErrMin= 1.26D-05
 ErrMax= 1.26D-05  0.00D+00 EMaxC= 1.00D-01 BMatC= 1.01D-07 BMatP= 4.55D-07
 IDIUse=1 WtCom= 1.00D+00 WtEn= 0.00D+00
 Coeff-Com: -0.215D-02-0.504D-01-0.125D+00 0.177D+00 0.100D+01
 Coeff:     -0.215D-02-0.504D-01-0.125D+00 0.177D+00 0.100D+01
 Gap=     0.281 Goal=   None    Shift=    0.000
 RMSDP=1.15D-06 MaxDP=7.19D-05 DE=-7.60D-07 OVMax= 2.31D-04

 Cycle  11  Pass 1  IDiag  1:
 RMSU=  4.72D-07    CP:  1.00D+00  1.06D+00  8.02D-01  1.38D+00  1.18D+00
 E= -2048.74635128044     Delta-E=       -0.000000223793 Rises=F Damp=F
 DIIS: error= 1.02D-05 at cycle   6 NSaved=   6.
 NSaved= 6 IEnMin= 6 EnMin= -2048.74635128044     IErMin= 6 ErrMin= 1.02D-05
 ErrMax= 1.02D-05  0.00D+00 EMaxC= 1.00D-01 BMatC= 2.70D-08 BMatP= 1.01D-07
 IDIUse=1 WtCom= 1.00D+00 WtEn= 0.00D+00
 Coeff-Com:  0.455D-02-0.406D-01-0.113D+00-0.114D-01 0.541D+00 0.620D+00
 Coeff:      0.455D-02-0.406D-01-0.113D+00-0.114D-01 0.541D+00 0.620D+00
 Gap=     0.281 Goal=   None    Shift=    0.000
 RMSDP=3.42D-07 MaxDP=3.67D-05 DE=-2.24D-07 OVMax= 1.18D-04

 Cycle  12  Pass 1  IDiag  1:
 RMSU=  1.81D-07    CP:  1.00D+00  1.06D+00  8.03D-01  1.44D+00  1.32D+00
                    CP:  9.02D-01
 E= -2048.74635131712     Delta-E=       -0.000000036678 Rises=F Damp=F
 DIIS: error= 1.12D-06 at cycle   7 NSaved=   7.
 NSaved= 7 IEnMin= 7 EnMin= -2048.74635131712     IErMin= 7 ErrMin= 1.12D-06
 ErrMax= 1.12D-06  0.00D+00 EMaxC= 1.00D-01 BMatC= 7.74D-10 BMatP= 2.70D-08
 IDIUse=1 WtCom= 1.00D+00 WtEn= 0.00D+00
 Coeff-Com:  0.110D-02-0.684D-02-0.210D-01-0.888D-02 0.648D-01 0.145D+00
 Coeff-Com:  0.826D+00
 Coeff:      0.110D-02-0.684D-02-0.210D-01-0.888D-02 0.648D-01 0.145D+00
 Coeff:      0.826D+00
 Gap=     0.281 Goal=   None    Shift=    0.000
 RMSDP=7.78D-08 MaxDP=5.13D-06 DE=-3.67D-08 OVMax= 2.15D-05

 Cycle  13  Pass 1  IDiag  1:
 RMSU=  4.86D-08    CP:  1.00D+00  1.06D+00  8.02D-01  1.45D+00  1.33D+00
                    CP:  9.89D-01  1.11D+00
 E= -2048.74635131852     Delta-E=       -0.000000001401 Rises=F Damp=F
 DIIS: error= 5.58D-07 at cycle   8 NSaved=   8.
 NSaved= 8 IEnMin= 8 EnMin= -2048.74635131852     IErMin= 8 ErrMin= 5.58D-07
 ErrMax= 5.58D-07  0.00D+00 EMaxC= 1.00D-01 BMatC= 2.84D-10 BMatP= 7.74D-10
 IDIUse=1 WtCom= 1.00D+00 WtEn= 0.00D+00
 Coeff-Com: -0.686D-03 0.773D-02 0.200D-01 0.374D-03-0.115D+00-0.924D-01
 Coeff-Com:  0.400D+00 0.780D+00
 Coeff:     -0.686D-03 0.773D-02 0.200D-01 0.374D-03-0.115D+00-0.924D-01
 Coeff:      0.400D+00 0.780D+00
 Gap=     0.281 Goal=   None    Shift=    0.000
 RMSDP=4.65D-08 MaxDP=2.80D-06 DE=-1.40D-09 OVMax= 1.16D-05

 Cycle  14  Pass 1  IDiag  1:
 RMSU=  2.66D-08    CP:  1.00D+00  1.06D+00  8.02D-01  1.45D+00  1.34D+00
                    CP:  1.03D+00  1.27D+00  1.10D+00
 E= -2048.74635131895     Delta-E=       -0.000000000435 Rises=F Damp=F
 DIIS: error= 2.17D-07 at cycle   9 NSaved=   9.
 NSaved= 9 IEnMin= 9 EnMin= -2048.74635131895     IErMin= 9 ErrMin= 2.17D-07
 ErrMax= 2.17D-07  0.00D+00 EMaxC= 1.00D-01 BMatC= 2.90D-11 BMatP= 2.84D-10
 IDIUse=1 WtCom= 1.00D+00 WtEn= 0.00D+00
 Coeff-Com: -0.414D-03 0.408D-02 0.109D-01 0.158D-02-0.551D-01-0.546D-01
 Coeff-Com:  0.777D-01 0.317D+00 0.699D+00
 Coeff:     -0.414D-03 0.408D-02 0.109D-01 0.158D-02-0.551D-01-0.546D-01
 Coeff:      0.777D-01 0.317D+00 0.699D+00
 Gap=     0.281 Goal=   None    Shift=    0.000
 RMSDP=1.28D-08 MaxDP=7.91D-07 DE=-4.35D-10 OVMax= 3.34D-06

 Cycle  15  Pass 1  IDiag  1:
 RMSU=  8.81D-09    CP:  1.00D+00  1.06D+00  8.02D-01  1.45D+00  1.34D+00
                    CP:  1.04D+00  1.29D+00  1.24D+00  1.10D+00
 E= -2048.74635131940     Delta-E=       -0.000000000447 Rises=F Damp=F
 DIIS: error= 5.36D-08 at cycle  10 NSaved=  10.
 NSaved=10 IEnMin=10 EnMin= -2048.74635131940     IErMin=10 ErrMin= 5.36D-08
 ErrMax= 5.36D-08  0.00D+00 EMaxC= 1.00D-01 BMatC= 4.79D-12 BMatP= 2.90D-11
 IDIUse=1 WtCom= 1.00D+00 WtEn= 0.00D+00
 Coeff-Com:  0.975D-05-0.331D-03-0.727D-03 0.799D-04 0.612D-02 0.157D-02
 Coeff-Com: -0.592D-01-0.641D-01 0.257D+00 0.859D+00
 Coeff:      0.975D-05-0.331D-03-0.727D-03 0.799D-04 0.612D-02 0.157D-02
 Coeff:     -0.592D-01-0.641D-01 0.257D+00 0.859D+00
 Gap=     0.281 Goal=   None    Shift=    0.000
 RMSDP=6.91D-09 MaxDP=3.88D-07 DE=-4.47D-10 OVMax= 1.55D-06

 SCF Done:  E(RwB97XD) =  -2048.74635132     A.U. after   15 cycles
            NFock= 15  Conv=0.69D-08     -V/T= 2.0054
 KE= 2.037728758746D+03 PE=-1.577437523982D+04 EE= 6.191085498632D+03
 Leave Link  502 at Fri Jan 26 06:14:56 2018, MaxMem=  4294967296 cpu:           21008.2 elap:             679.5
 (Enter /share/apps/g16/l601.exe)
 Copying SCF densities to generalized density rwf, IOpCl= 0 IROHF=0.

 **********************************************************************

            Population analysis using the SCF density.

 **********************************************************************

 Orbital symmetries:
       Occupied  (A) (A) (A) (A) (A) (A) (A) (A) (A) (A) (A) (A)
                 (A) (A) (A) (A) (A) (A) (A) (A) (A) (A) (A) (A)
                 (A) (A) (A) (A) (A) (A) (A) (A) (A) (A) (A) (A)
                 (A) (A) (A) (A) (A) (A) (A) (A) (A) (A) (A) (A)
                 (A) (A) (A) (A) (A) (A) (A) (A) (A) (A) (A) (A)
                 (A) (A) (A) (A) (A) (A) (A) (A) (A) (A) (A) (A)
                 (A) (A) (A) (A) (A) (A) (A) (A) (A) (A) (A) (A)
                 (A) (A) (A) (A) (A) (A) (A) (A) (A) (A) (A) (A)
                 (A) (A) (A) (A) (A) (A) (A) (A) (A) (A) (A) (A)
                 (A) (A) (A) (A) (A) (A) (A) (A) (A) (A) (A) (A)
                 (A) (A) (A) (A) (A) (A) (A) (A) (A) (A) (A) (A)
                 (A) (A) (A) (A) (A) (A) (A) (A) (A) (A) (A) (A)
                 (A) (A) (A) (A) (A) (A) (A) (A) (A) (A)
       Virtual   (A) (A) (A) (A) (A) (A) (A) (A) (A) (A) (A) (A)
                 (A) (A) (A) (A) (A) (A) (A) (A) (A) (A) (A) (A)
                 (A) (A) (A) (A) (A) (A) (A) (A) (A) (A) (A) (A)
                 (A) (A) (A) (A) (A) (A) (A) (A) (A) (A) (A) (A)
                 (A) (A) (A) (A) (A) (A) (A) (A) (A) (A) (A) (A)
                 (A) (A) (A) (A) (A) (A) (A) (A) (A) (A) (A) (A)
                 (A) (A) (A) (A) (A) (A) (A) (A) (A) (A) (A) (A)
                 (A) (A) (A) (A) (A) (A) (A) (A) (A) (A) (A) (A)
                 (A) (A) (A) (A) (A) (A) (A) (A) (A) (A) (A) (A)
                 (A) (A) (A) (A) (A) (A) (A) (A) (A) (A) (A) (A)
                 (A) (A) (A) (A) (A) (A) (A) (A) (A) (A) (A) (A)
                 (A) (A) (A) (A) (A) (A) (A) (A) (A) (A) (A) (A)
                 (A) (A) (A) (A) (A) (A) (A) (A) (A) (A) (A) (A)
                 (A) (A) (A) (A) (A) (A) (A) (A) (A) (A) (A) (A)
                 (A) (A) (A) (A) (A) (A) (A) (A) (A) (A) (A) (A)
                 (A) (A) (A) (A) (A) (A) (A) (A) (A) (A) (A) (A)
                 (A) (A) (A) (A) (A) (A) (A) (A) (A) (A) (A) (A)
                 (A) (A) (A) (A) (A) (A) (A) (A) (A) (A) (A) (A)
                 (A) (A) (A) (A) (A) (A) (A) (A) (A) (A) (A) (A)
                 (A) (A) (A) (A) (A) (A) (A) (A) (A) (A) (A) (A)
                 (A) (A) (A) (A) (A) (A) (A) (A) (A) (A) (A) (A)
                 (A) (A) (A) (A) (A) (A) (A) (A) (A) (A) (A) (A)
                 (A) (A) (A) (A) (A) (A) (A) (A) (A) (A) (A) (A)
                 (A) (A) (A) (A) (A) (A) (A) (A) (A) (A) (A) (A)
                 (A) (A) (A) (A) (A) (A) (A) (A) (A) (A) (A) (A)
                 (A) (A) (A) (A) (A) (A) (A) (A) (A) (A) (A) (A)
                 (A) (A) (A) (A) (A) (A) (A) (A) (A) (A) (A) (A)
                 (A) (A) (A) (A) (A) (A) (A) (A) (A) (A) (A) (A)
                 (A) (A) (A) (A) (A) (A) (A) (A) (A) (A) (A) (A)
                 (A) (A) (A) (A) (A) (A) (A) (A) (A) (A) (A) (A)
                 (A) (A) (A) (A) (A) (A) (A) (A) (A) (A) (A) (A)
                 (A) (A) (A) (A) (A) (A) (A) (A) (A) (A) (A) (A)
                 (A) (A) (A) (A) (A) (A) (A) (A) (A) (A) (A) (A)
                 (A) (A) (A) (A) (A) (A) (A) (A) (A) (A) (A) (A)
                 (A) (A) (A) (A) (A) (A) (A) (A) (A) (A) (A) (A)
                 (A) (A) (A) (A) (A) (A) (A) (A) (A) (A) (A) (A)
                 (A) (A) (A) (A) (A) (A) (A) (A) (A) (A) (A) (A)
                 (A) (A) (A) (A) (A) (A) (A) (A) (A) (A) (A) (A)
                 (A) (A) (A) (A) (A) (A) (A) (A) (A) (A) (A) (A)
                 (A) (A) (A) (A) (A) (A) (A) (A) (A) (A) (A) (A)
                 (A) (A) (A) (A) (A) (A) (A) (A) (A) (A) (A) (A)
                 (A) (A) (A) (A) (A) (A) (A) (A) (A) (A) (A) (A)
                 (A) (A) (A) (A) (A) (A) (A) (A) (A) (A) (A) (A)
                 (A) (A) (A) (A) (A) (A) (A) (A) (A) (A) (A) (A)
                 (A) (A) (A) (A) (A) (A) (A) (A) (A) (A) (A) (A)
                 (A) (A) (A) (A) (A) (A) (A) (A) (A) (A) (A) (A)
                 (A) (A) (A) (A) (A) (A) (A) (A) (A) (A) (A) (A)
                 (A) (A) (A) (A) (A) (A) (A) (A) (A) (A) (A) (A)
                 (A) (A) (A) (A) (A) (A) (A)
 The electronic state is 1-A.
 Alpha  occ. eigenvalues --  -19.25155 -19.21294 -19.20361 -14.52777 -14.51859
 Alpha  occ. eigenvalues --  -14.49297 -14.48650 -14.48230 -14.47173 -14.46423
 Alpha  occ. eigenvalues --  -14.46007 -14.45700 -14.45103 -14.45062 -14.43044
 Alpha  occ. eigenvalues --  -14.41789 -14.40991 -14.40759 -14.40741 -14.40414
 Alpha  occ. eigenvalues --  -10.44801 -10.40847 -10.40732 -10.39428 -10.38256
 Alpha  occ. eigenvalues --  -10.37923 -10.37727 -10.37368 -10.36588 -10.35654
 Alpha  occ. eigenvalues --  -10.34437 -10.34167 -10.34096 -10.33697 -10.33249
 Alpha  occ. eigenvalues --  -10.33137 -10.33050 -10.32885 -10.30885 -10.30689
 Alpha  occ. eigenvalues --  -10.30198 -10.28354 -10.27854  -1.18836  -1.15562
 Alpha  occ. eigenvalues --   -1.12896  -1.12324  -1.10902  -1.10384  -1.10083
 Alpha  occ. eigenvalues --   -1.08741  -1.08204  -1.05632  -1.05142  -1.01809
 Alpha  occ. eigenvalues --   -1.01354  -1.00650  -0.99241  -0.98268  -0.97616
 Alpha  occ. eigenvalues --   -0.96621  -0.96415  -0.92818  -0.90571  -0.88129
 Alpha  occ. eigenvalues --   -0.86281  -0.83926  -0.83570  -0.83027  -0.82351
 Alpha  occ. eigenvalues --   -0.81886  -0.78339  -0.77623  -0.75496  -0.74378
 Alpha  occ. eigenvalues --   -0.73219  -0.72886  -0.72738  -0.71070  -0.70905
 Alpha  occ. eigenvalues --   -0.67521  -0.66971  -0.66283  -0.65977  -0.64848
 Alpha  occ. eigenvalues --   -0.64112  -0.63420  -0.62749  -0.62395  -0.61376
 Alpha  occ. eigenvalues --   -0.61081  -0.60778  -0.60333  -0.59873  -0.59233
 Alpha  occ. eigenvalues --   -0.59009  -0.57853  -0.56804  -0.56387  -0.55822
 Alpha  occ. eigenvalues --   -0.55679  -0.55617  -0.55579  -0.54936  -0.54134
 Alpha  occ. eigenvalues --   -0.53852  -0.53551  -0.53269  -0.53209  -0.52704
 Alpha  occ. eigenvalues --   -0.52491  -0.51893  -0.51382  -0.50485  -0.50363
 Alpha  occ. eigenvalues --   -0.49938  -0.49837  -0.49673  -0.48932  -0.48827
 Alpha  occ. eigenvalues --   -0.48517  -0.47937  -0.47809  -0.47519  -0.46977
 Alpha  occ. eigenvalues --   -0.46700  -0.45709  -0.45270  -0.44319  -0.43422
 Alpha  occ. eigenvalues --   -0.41319  -0.41138  -0.38920  -0.38260  -0.38159
 Alpha  occ. eigenvalues --   -0.37396  -0.37057  -0.36541  -0.35516  -0.35183
 Alpha  occ. eigenvalues --   -0.35027  -0.33937  -0.33354  -0.33151  -0.32675
 Alpha  occ. eigenvalues --   -0.32336  -0.32303  -0.31667  -0.31386  -0.30684
 Alpha  occ. eigenvalues --   -0.30546  -0.30214  -0.26183  -0.24856
 Alpha virt. eigenvalues --    0.03228   0.03836   0.06357   0.07957   0.09116
 Alpha virt. eigenvalues --    0.09502   0.09938   0.10277   0.10990   0.11445
 Alpha virt. eigenvalues --    0.13301   0.14321   0.14633   0.14867   0.15262
 Alpha virt. eigenvalues --    0.15686   0.16473   0.17002   0.17165   0.17601
 Alpha virt. eigenvalues --    0.19253   0.19663   0.20098   0.20280   0.20587
 Alpha virt. eigenvalues --    0.20754   0.20910   0.21018   0.21483   0.21686
 Alpha virt. eigenvalues --    0.22142   0.23011   0.23731   0.23859   0.24089
 Alpha virt. eigenvalues --    0.24442   0.24509   0.24642   0.24853   0.25153
 Alpha virt. eigenvalues --    0.25352   0.25949   0.27624   0.28029   0.28627
 Alpha virt. eigenvalues --    0.28779   0.29100   0.29846   0.30469   0.30966
 Alpha virt. eigenvalues --    0.31664   0.32087   0.32545   0.33024   0.33539
 Alpha virt. eigenvalues --    0.34291   0.34494   0.35076   0.35720   0.36478
 Alpha virt. eigenvalues --    0.36727   0.37052   0.38074   0.38744   0.39262
 Alpha virt. eigenvalues --    0.39516   0.40466   0.40567   0.41405   0.41935
 Alpha virt. eigenvalues --    0.42312   0.42881   0.43360   0.44048   0.44310
 Alpha virt. eigenvalues --    0.45015   0.45198   0.45984   0.46335   0.47159
 Alpha virt. eigenvalues --    0.47665   0.48094   0.48845   0.49177   0.49642
 Alpha virt. eigenvalues --    0.49794   0.50293   0.50761   0.51283   0.51387
 Alpha virt. eigenvalues --    0.51655   0.51952   0.52757   0.53194   0.53719
 Alpha virt. eigenvalues --    0.53926   0.54240   0.54831   0.55164   0.55590
 Alpha virt. eigenvalues --    0.56083   0.56351   0.56870   0.57064   0.57320
 Alpha virt. eigenvalues --    0.58015   0.58181   0.58780   0.59129   0.59634
 Alpha virt. eigenvalues --    0.60104   0.60176   0.60504   0.60751   0.61217
 Alpha virt. eigenvalues --    0.61451   0.61825   0.62001   0.62256   0.62901
 Alpha virt. eigenvalues --    0.63043   0.63889   0.64265   0.64982   0.65687
 Alpha virt. eigenvalues --    0.65936   0.66240   0.66697   0.66730   0.67212
 Alpha virt. eigenvalues --    0.67765   0.68331   0.68941   0.69297   0.69450
 Alpha virt. eigenvalues --    0.70016   0.70333   0.70533   0.70746   0.71511
 Alpha virt. eigenvalues --    0.72276   0.72588   0.72811   0.73444   0.73555
 Alpha virt. eigenvalues --    0.73943   0.74451   0.74836   0.75127   0.75254
 Alpha virt. eigenvalues --    0.76317   0.76415   0.76627   0.76753   0.77244
 Alpha virt. eigenvalues --    0.77487   0.77708   0.78161   0.78529   0.78996
 Alpha virt. eigenvalues --    0.79528   0.79665   0.79959   0.80391   0.80658
 Alpha virt. eigenvalues --    0.81006   0.81410   0.81493   0.82072   0.82625
 Alpha virt. eigenvalues --    0.83302   0.83828   0.84441   0.85116   0.85535
 Alpha virt. eigenvalues --    0.85740   0.86274   0.86886   0.87073   0.87679
 Alpha virt. eigenvalues --    0.87719   0.88186   0.89036   0.89425   0.89961
 Alpha virt. eigenvalues --    0.90166   0.90606   0.91830   0.92199   0.92360
 Alpha virt. eigenvalues --    0.92989   0.93277   0.93860   0.94181   0.94497
 Alpha virt. eigenvalues --    0.94994   0.95421   0.95681   0.96521   0.96734
 Alpha virt. eigenvalues --    0.97314   0.97684   0.98238   0.98368   0.98937
 Alpha virt. eigenvalues --    0.99287   0.99396   1.00430   1.00874   1.01071
 Alpha virt. eigenvalues --    1.01344   1.01710   1.01974   1.02255   1.03144
 Alpha virt. eigenvalues --    1.03201   1.03824   1.04374   1.04912   1.05629
 Alpha virt. eigenvalues --    1.05878   1.06693   1.06784   1.06972   1.08427
 Alpha virt. eigenvalues --    1.08694   1.09266   1.09961   1.10137   1.10822
 Alpha virt. eigenvalues --    1.12096   1.12296   1.12901   1.12952   1.13579
 Alpha virt. eigenvalues --    1.13654   1.14597   1.14700   1.15403   1.15851
 Alpha virt. eigenvalues --    1.16150   1.16483   1.17071   1.17341   1.17665
 Alpha virt. eigenvalues --    1.18011   1.18532   1.18693   1.19482   1.19762
 Alpha virt. eigenvalues --    1.20175   1.20397   1.20633   1.21393   1.21539
 Alpha virt. eigenvalues --    1.21916   1.22533   1.23025   1.23365   1.23510
 Alpha virt. eigenvalues --    1.23909   1.24136   1.24438   1.24560   1.25724
 Alpha virt. eigenvalues --    1.26304   1.26771   1.27288   1.27674   1.27928
 Alpha virt. eigenvalues --    1.28657   1.28963   1.29517   1.30373   1.30943
 Alpha virt. eigenvalues --    1.31836   1.33233   1.33347   1.33736   1.33963
 Alpha virt. eigenvalues --    1.34341   1.35321   1.35732   1.35804   1.36666
 Alpha virt. eigenvalues --    1.37532   1.38100   1.38939   1.39692   1.40207
 Alpha virt. eigenvalues --    1.41274   1.42605   1.42956   1.43424   1.44890
 Alpha virt. eigenvalues --    1.44966   1.46022   1.46871   1.47594   1.47802
 Alpha virt. eigenvalues --    1.49198   1.49228   1.49897   1.50408   1.50661
 Alpha virt. eigenvalues --    1.51564   1.52519   1.53009   1.53117   1.54759
 Alpha virt. eigenvalues --    1.56118   1.56619   1.56948   1.57029   1.58211
 Alpha virt. eigenvalues --    1.58897   1.59139   1.59516   1.60069   1.60567
 Alpha virt. eigenvalues --    1.61462   1.61954   1.62541   1.63338   1.63505
 Alpha virt. eigenvalues --    1.63667   1.64580   1.64961   1.66006   1.66748
 Alpha virt. eigenvalues --    1.67182   1.67802   1.68116   1.68449   1.68836
 Alpha virt. eigenvalues --    1.69321   1.70052   1.70363   1.70768   1.71127
 Alpha virt. eigenvalues --    1.71872   1.72418   1.73029   1.73367   1.73613
 Alpha virt. eigenvalues --    1.73793   1.74651   1.74895   1.75428   1.75760
 Alpha virt. eigenvalues --    1.76253   1.76366   1.76797   1.77020   1.77055
 Alpha virt. eigenvalues --    1.77350   1.78070   1.78508   1.78780   1.78907
 Alpha virt. eigenvalues --    1.79207   1.79539   1.80141   1.80356   1.80472
 Alpha virt. eigenvalues --    1.80806   1.81273   1.81701   1.81878   1.82265
 Alpha virt. eigenvalues --    1.82511   1.82723   1.83212   1.83672   1.84227
 Alpha virt. eigenvalues --    1.84852   1.85546   1.86124   1.86276   1.86793
 Alpha virt. eigenvalues --    1.87360   1.87695   1.88174   1.88819   1.89539
 Alpha virt. eigenvalues --    1.89581   1.90012   1.90059   1.90909   1.91645
 Alpha virt. eigenvalues --    1.92191   1.92898   1.93227   1.93657   1.94221
 Alpha virt. eigenvalues --    1.94550   1.94782   1.95473   1.96027   1.97240
 Alpha virt. eigenvalues --    1.98010   1.99253   1.99647   2.00806   2.01119
 Alpha virt. eigenvalues --    2.01980   2.02038   2.02552   2.03298   2.04458
 Alpha virt. eigenvalues --    2.04935   2.05337   2.05681   2.06397   2.06840
 Alpha virt. eigenvalues --    2.07271   2.08509   2.09092   2.09480   2.09736
 Alpha virt. eigenvalues --    2.10315   2.10960   2.11253   2.12762   2.13227
 Alpha virt. eigenvalues --    2.13816   2.14552   2.15011   2.15805   2.16657
 Alpha virt. eigenvalues --    2.17515   2.18885   2.19874   2.20963   2.21287
 Alpha virt. eigenvalues --    2.21800   2.22074   2.23011   2.23152   2.23705
 Alpha virt. eigenvalues --    2.24238   2.24980   2.25477   2.26031   2.26395
 Alpha virt. eigenvalues --    2.27327   2.28301   2.28542   2.29793   2.30142
 Alpha virt. eigenvalues --    2.30547   2.30800   2.31503   2.31839   2.32443
 Alpha virt. eigenvalues --    2.33483   2.33598   2.34231   2.34281   2.34777
 Alpha virt. eigenvalues --    2.35235   2.36047   2.36252   2.36768   2.37481
 Alpha virt. eigenvalues --    2.37913   2.38756   2.39280   2.40209   2.41478
 Alpha virt. eigenvalues --    2.41694   2.42375   2.42838   2.43354   2.44574
 Alpha virt. eigenvalues --    2.44945   2.45349   2.45438   2.45804   2.46541
 Alpha virt. eigenvalues --    2.47413   2.48530   2.50182   2.50885   2.51800
 Alpha virt. eigenvalues --    2.52807   2.53734   2.54772   2.55628   2.56011
 Alpha virt. eigenvalues --    2.56840   2.57955   2.58526   2.58823   2.59942
 Alpha virt. eigenvalues --    2.61730   2.61894   2.62921   2.63409   2.63897
 Alpha virt. eigenvalues --    2.64599   2.64937   2.65154   2.65628   2.66239
 Alpha virt. eigenvalues --    2.66749   2.67414   2.68569   2.69180   2.69456
 Alpha virt. eigenvalues --    2.70055   2.70710   2.71273   2.71584   2.71747
 Alpha virt. eigenvalues --    2.72693   2.74804   2.75355   2.76291   2.76621
 Alpha virt. eigenvalues --    2.76671   2.77443   2.78101   2.79338   2.79455
 Alpha virt. eigenvalues --    2.80005   2.80178   2.80752   2.80877   2.81262
 Alpha virt. eigenvalues --    2.81759   2.82390   2.82775   2.83283   2.84047
 Alpha virt. eigenvalues --    2.84623   2.85975   2.86601   2.87149   2.87361
 Alpha virt. eigenvalues --    2.87461   2.87961   2.89740   2.91737   2.93864
 Alpha virt. eigenvalues --    2.95002   2.95897   2.97022   2.98682   2.99794
 Alpha virt. eigenvalues --    3.00876   3.01085   3.02406   3.04886   3.05327
 Alpha virt. eigenvalues --    3.07485   3.08736   3.10786   3.13092   3.14726
 Alpha virt. eigenvalues --    3.15719   3.15989   3.17126   3.18524   3.20364
 Alpha virt. eigenvalues --    3.20684   3.22927   3.24050   3.24598   3.25796
 Alpha virt. eigenvalues --    3.43958   3.47346   3.48489   3.48841   3.50937
 Alpha virt. eigenvalues --    3.52919   3.54721   3.56718   3.58328   3.60689
 Alpha virt. eigenvalues --    3.64090   3.71258   3.75249
          Condensed to atoms (all electrons):
 Mulliken charges:
               1
     1  N   -0.313634
     2  C    0.185073
     3  C    0.058438
     4  N   -0.262867
     5  C    0.142750
     6  H    0.027285
     7  N   -0.287193
     8  C    0.119863
     9  H    0.017944
    10  N   -0.271475
    11  C    0.262559
    12  C    0.087764
    13  N   -0.070375
    14  H    0.109015
    15  H    0.081072
    16  H    0.020056
    17  H    0.032454
    18  H    0.032196
    19  N   -0.308891
    20  C    0.241682
    21  C    0.180893
    22  N   -0.108496
    23  H    0.113163
    24  H    0.114357
    25  N   -0.305711
    26  C    0.224292
    27  N   -0.120902
    28  H    0.111917
    29  C    0.168971
    30  O   -0.320916
    31  C    0.002654
    32  N   -0.229103
    33  C    0.124705
    34  H    0.020850
    35  H    0.027299
    36  H    0.028723
    37  H    0.024123
    38  H    0.058914
    39  H    0.058071
    40  H    0.075903
    41  H    0.028914
    42  C   -0.115393
    43  O   -0.259505
    44  C    0.176567
    45  H    0.135623
    46  N   -0.128933
    47  O   -0.344239
    48  C    0.354468
    49  H    0.042572
    50  C    0.162555
    51  C    0.037964
    52  N   -0.281630
    53  H    0.035142
    54  H    0.036519
    55  H    0.032078
    56  H    0.118678
    57  H    0.120933
    58  N   -0.060383
    59  C    0.063267
    60  C    0.251054
    61  N   -0.283291
    62  H    0.016285
    63  C    0.200244
    64  N   -0.308569
    65  H    0.040232
    66  C    0.140892
    67  N   -0.258301
    68  C    0.025357
    69  C    0.181351
    70  N   -0.313870
 Sum of Mulliken charges =  -0.00000
 Mulliken charges with hydrogens summed into heavy atoms:
               1
     1  N   -0.313634
     2  C    0.269779
     3  C    0.058438
     4  N   -0.262867
     5  C    0.170035
     7  N   -0.287193
     8  C    0.137807
    10  N   -0.271475
    11  C    0.262559
    12  C    0.087764
    13  N    0.119711
    19  N   -0.308891
    20  C    0.241682
    21  C    0.261038
    22  N    0.119023
    25  N   -0.305711
    26  C    0.224292
    27  N   -0.008985
    29  C    0.168971
    30  O   -0.320916
    31  C    0.002654
    32  N   -0.229103
    33  C    0.145555
    42  C   -0.086479
    43  O   -0.259505
    44  C    0.176567
    46  N    0.006690
    47  O   -0.344239
    48  C    0.354468
    50  C    0.205127
    51  C    0.230853
    52  N   -0.281630
    58  N    0.179227
    59  C    0.063267
    60  C    0.251054
    61  N   -0.283291
    63  C    0.216529
    64  N   -0.308569
    66  C    0.181124
    67  N   -0.258301
    68  C    0.025357
    69  C    0.285089
    70  N   -0.313870
 Electronic spatial extent (au):  <R**2>=          22064.2460
 Charge=              0.0000 electrons
 Dipole moment (field-independent basis, Debye):
    X=             -8.9624    Y=              5.6072    Z=             -1.8723  Tot=             10.7364
 Quadrupole moment (field-independent basis, Debye-Ang):
   XX=           -169.8912   YY=           -212.7644   ZZ=           -253.0618
   XY=              7.8556   XZ=            -16.5118   YZ=              8.7149
 Traceless Quadrupole moment (field-independent basis, Debye-Ang):
   XX=             42.0146   YY=             -0.8586   ZZ=            -41.1560
   XY=              7.8556   XZ=            -16.5118   YZ=              8.7149
 Octapole moment (field-independent basis, Debye-Ang**2):
  XXX=             56.3831  YYY=            151.4334  ZZZ=             12.8334  XYY=           -103.8739
  XXY=             89.9503  XXZ=            -42.4196  XZZ=            -37.8014  YZZ=              2.9184
  YYZ=            -39.3332  XYZ=             58.3376
 Hexadecapole moment (field-independent basis, Debye-Ang**3):
 XXXX=         -15343.3203 YYYY=          -6891.3649 ZZZZ=          -3441.2149 XXXY=           -444.1624
 XXXZ=           -387.8917 YYYX=            113.0829 YYYZ=             65.0121 ZZZX=            -87.7491
 ZZZY=              7.2330 XXYY=          -2901.6331 XXZZ=          -3552.7341 YYZZ=          -1825.5102
 XXYZ=             83.9308 YYXZ=             38.4641 ZZXY=             35.9037
 N-N= 5.496814631122D+03 E-N=-1.577437523122D+04  KE= 2.037728758746D+03
 No NMR shielding tensors so no spin-rotation constants.
 Leave Link  601 at Fri Jan 26 06:14:57 2018, MaxMem=  4294967296 cpu:              49.5 elap:               1.7
 (Enter /share/apps/g16/l9999.exe)
 1\1\GINC-COMPUTE-0-3\SP\RwB97XD\CC-pVDZ\C23H27N17O3\SATYA\26-Jan-2018\
 0\\#p wb97xd/cc-pvdz sp scf=(maxcycles=20)\\Base pair stacking\\0,1\N,
 0,1.49119,-1.93223,-7.21033\C,0,2.84156,-1.38908,-7.45424\C,0,-0.63038
 ,-2.138,-6.66821\N,0,-0.21473,-3.39194,-7.09202\C,0,1.0468,-3.21778,-7
 .40167\H,0,1.70655,-4.00014,-7.77794\N,0,-1.94595,-0.35373,-5.86287\C,
 0,-0.85224,0.40601,-5.98194\H,0,-0.97624,1.44837,-5.69151\N,0,0.36593,
 0.07301,-6.40393\C,0,0.41019,-1.22795,-6.73554\C,0,-1.86894,-1.65848,-
 6.20457\N,0,-2.95963,-2.41848,-6.08641\H,0,-2.94851,-3.38947,-6.3278\H
 ,0,-3.82458,-2.04339,-5.75276\H,0,3.07889,-1.50299,-8.41906\H,0,2.8580
 6,-0.4174,-7.2204\H,0,3.50661,-1.87748,-6.88928\N,0,1.76442,2.08231,-3
 .34455\C,0,0.51556,1.54677,-3.14062\C,0,2.08419,3.52397,-3.35239\N,0,-
 2.87546,1.97247,-2.52294\H,0,-3.68105,1.3937,-2.39933\H,0,-3.01405,2.9
 6146,-2.46465\N,0,-0.62013,2.24199,-2.91496\C,0,-1.66336,1.44691,-2.75
 643\N,0,-1.60128,0.07566,-2.81412\H,0,-2.45006,-0.4524,-2.6811\C,0,-0.
 44362,-0.66078,-3.0451\O,0,-0.49611,-1.89647,-3.07779\C,0,0.68549,0.17
 964,-3.21736\N,0,2.0143,-0.13673,-3.46449\C,0,2.61509,1.02029,-3.532\H
 ,0,3.68114,1.15657,-3.717\H,0,2.46515,3.77776,-4.2408\H,0,1.25054,4.04
 903,-3.18624\H,0,2.75081,3.72314,-2.63492\H,0,-7.11628,-2.46948,-2.578
 95\H,0,-6.715,-2.79064,-0.89358\H,0,-6.05042,-1.37092,-1.70233\H,0,-4.
 29344,-6.33475,-3.06658\C,0,-4.20177,-5.26394,-2.88435\O,0,-1.89205,-5
 .18398,-3.41906\C,0,-2.9322,-4.62901,-3.06565\H,0,-2.04674,-2.78924,-2
 .92588\N,0,-2.92601,-3.27284,-2.80869\O,0,-3.8847,-1.30457,-2.20534\C,
 0,-3.98835,-2.50146,-2.40875\H,0,-6.24333,-4.97308,-2.34283\C,0,-5.256
 39,-4.53816,-2.49495\C,0,-6.34152,-2.40299,-1.82969\N,0,-5.17814,-3.18
 573,-2.25585\H,0,-8.53931,3.22793,-3.33668\H,0,-7.04642,2.88171,-2.776
 76\H,0,-8.35644,2.57017,-1.85434\H,0,-6.45029,-3.49672,-5.67776\H,0,-8
 .06967,-3.11018,-5.30587\N,0,-7.10623,-2.84001,-5.30544\C,0,-6.71462,-
 1.65632,-4.82928\C,0,-7.04052,0.48329,-3.84056\N,0,-5.74,0.81932,-3.85
 269\H,0,-3.93799,0.02905,-4.42615\C,0,-5.0092,-0.16189,-4.37811\N,0,-5
 .39955,-1.34816,-4.85557\H,0,-10.20811,0.83023,-3.29448\C,0,-9.21726,0
 .47242,-3.57579\N,0,-8.97346,-0.69339,-4.12272\C,0,-7.59697,-0.69934,-
 4.29584\C,0,-8.00144,2.58691,-2.78915\N,0,-8.09309,1.23613,-3.37652\\V
 ersion=EM64L-G16RevA.03\State=1-A\HF=-2048.7463513\RMSD=6.908e-09\Dipo
 le=-3.673706,1.9890091,0.6245947\Quadrupole=23.0645142,-4.5316722,-18.
 5328421,14.5373837,-20.5963619,9.9733074\PG=C01 [X(C23H27N17O3)]\\@


 THE WORLD IS NOT A HAMBURGER - YOU CAN'T HAVE IT YOUR WAY.
 Job cpu time:       0 days  6 hours  0 minutes 25.2 seconds.
 Elapsed time:       0 days  0 hours 11 minutes 39.2 seconds.
 File lengths (MBytes):  RWF=    298 Int=      0 D2E=      0 Chk=     33 Scr=      1
 Normal termination of Gaussian 16 at Fri Jan 26 06:14:58 2018.
