 Entering Gaussian System, Link 0=g16
 Input=str55.0.-1.0.com
 Output=str55.0.-1.0.log
 Initial command:
 /share/apps/g16/l1.exe "/state/partition1/scr/Gau-2937.inp" -scrdir="/state/partition1/scr/"
 Entering Link 1 = /share/apps/g16/l1.exe PID=      2938.
  
 Copyright (c) 1988,1990,1992,1993,1995,1998,2003,2009,2016,
            Gaussian, Inc.  All Rights Reserved.
  
 This is part of the Gaussian(R) 16 program.  It is based on
 the Gaussian(R) 09 system (copyright 2009, Gaussian, Inc.),
 the Gaussian(R) 03 system (copyright 2003, Gaussian, Inc.),
 the Gaussian(R) 98 system (copyright 1998, Gaussian, Inc.),
 the Gaussian(R) 94 system (copyright 1995, Gaussian, Inc.),
 the Gaussian 92(TM) system (copyright 1992, Gaussian, Inc.),
 the Gaussian 90(TM) system (copyright 1990, Gaussian, Inc.),
 the Gaussian 88(TM) system (copyright 1988, Gaussian, Inc.),
 the Gaussian 86(TM) system (copyright 1986, Carnegie Mellon
 University), and the Gaussian 82(TM) system (copyright 1983,
 Carnegie Mellon University). Gaussian is a federally registered
 trademark of Gaussian, Inc.
  
 This software contains proprietary and confidential information,
 including trade secrets, belonging to Gaussian, Inc.
  
 This software is provided under written license and may be
 used, copied, transmitted, or stored only in accord with that
 written license.
  
 The following legend is applicable only to US Government
 contracts under FAR:
  
                    RESTRICTED RIGHTS LEGEND
  
 Use, reproduction and disclosure by the US Government is
 subject to restrictions as set forth in subparagraphs (a)
 and (c) of the Commercial Computer Software - Restricted
 Rights clause in FAR 52.227-19.
  
 Gaussian, Inc.
 340 Quinnipiac St., Bldg. 40, Wallingford CT 06492
  
  
 ---------------------------------------------------------------
 Warning -- This program may not be used in any manner that
 competes with the business of Gaussian, Inc. or will provide
 assistance to any competitor of Gaussian, Inc.  The licensee
 of this program is prohibited from giving any competitor of
 Gaussian, Inc. access to this program.  By using this program,
 the user acknowledges that Gaussian, Inc. is engaged in the
 business of creating and licensing software in the field of
 computational chemistry and represents and warrants to the
 licensee that it is not a competitor of Gaussian, Inc. and that
 it will not use this program in any manner prohibited above.
 ---------------------------------------------------------------
  

 Cite this work as:
 Gaussian 16, Revision A.03,
 M. J. Frisch, G. W. Trucks, H. B. Schlegel, G. E. Scuseria, 
 M. A. Robb, J. R. Cheeseman, G. Scalmani, V. Barone, 
 G. A. Petersson, H. Nakatsuji, X. Li, M. Caricato, A. V. Marenich, 
 J. Bloino, B. G. Janesko, R. Gomperts, B. Mennucci, H. P. Hratchian, 
 J. V. Ortiz, A. F. Izmaylov, J. L. Sonnenberg, D. Williams-Young, 
 F. Ding, F. Lipparini, F. Egidi, J. Goings, B. Peng, A. Petrone, 
 T. Henderson, D. Ranasinghe, V. G. Zakrzewski, J. Gao, N. Rega, 
 G. Zheng, W. Liang, M. Hada, M. Ehara, K. Toyota, R. Fukuda, 
 J. Hasegawa, M. Ishida, T. Nakajima, Y. Honda, O. Kitao, H. Nakai, 
 T. Vreven, K. Throssell, J. A. Montgomery, Jr., J. E. Peralta, 
 F. Ogliaro, M. J. Bearpark, J. J. Heyd, E. N. Brothers, K. N. Kudin, 
 V. N. Staroverov, T. A. Keith, R. Kobayashi, J. Normand, 
 K. Raghavachari, A. P. Rendell, J. C. Burant, S. S. Iyengar, 
 J. Tomasi, M. Cossi, J. M. Millam, M. Klene, C. Adamo, R. Cammi, 
 J. W. Ochterski, R. L. Martin, K. Morokuma, O. Farkas, 
 J. B. Foresman, and D. J. Fox, Gaussian, Inc., Wallingford CT, 2016.
 
 ******************************************
 Gaussian 16:  EM64L-G16RevA.03 25-Dec-2016
                25-Jan-2018 
 ******************************************
 %nprocshared=32
 Will use up to   32 processors via shared memory.
 %mem=32GB
 %chk=allatoms_t.chk
 ---------------------------------------
 #p wb97xd/cc-pvdz sp scf=(maxcycles=20)
 ---------------------------------------
 1/38=1,172=1/1;
 2/12=2,17=6,18=5,40=1/2;
 3/5=16,11=2,25=1,30=1,74=-58/1,2,3;
 4//1;
 5/5=2,7=20,38=5/2;
 6/7=2,8=2,9=2,10=2,28=1/1;
 99/5=1,9=1/99;
 Leave Link    1 at Thu Jan 25 19:52:48 2018, MaxMem=  4294967296 cpu:               2.7 elap:               0.1
 (Enter /share/apps/g16/l101.exe)
 ------------------
 Base pair stacking
 ------------------
 Symbolic Z-matrix:
 Charge =  0 Multiplicity = 1
 N                     7.27593   0.34734  -6.47105 
 C                     8.64793   0.88126  -6.57363 
 C                     5.08558   0.17082  -6.3785 
 N                     5.5842   -1.11834  -6.25948 
 C                     6.88384  -0.9604   -6.32 
 H                     7.61042  -1.77115  -6.25909 
 N                     3.62471   2.01682  -6.52372 
 C                     4.71878   2.77637  -6.6407 
 H                     4.53414   3.84448  -6.74702 
 N                     6.00066   2.41629  -6.64602 
 C                     6.11644   1.08497  -6.50964 
 C                     3.77468   0.68109  -6.38803 
 N                     2.68376  -0.07878  -6.27112 
 H                     2.74744  -1.07208  -6.1686 
 H                     1.76614   0.3187   -6.28203 
 H                     9.10468   0.48011  -7.36775 
 H                     8.61287   1.87483  -6.67715 
 H                     9.15984   0.65195  -5.74576 
 N                     3.565     4.72661  -3.26456 
 C                     2.29866   4.19328  -3.26328 
 C                     3.88547   6.16488  -3.36129 
 N                    -1.14524   4.62094  -3.39872 
 H                    -1.96144   4.0441   -3.38065 
 H                    -1.28881   5.60792  -3.47605 
 N                     1.14366   4.88796  -3.34948 
 C                     0.08684   4.09548  -3.32272 
 N                     0.15384   2.72714  -3.21948 
 H                    -0.70635   2.20094  -3.20649 
 C                     1.33126   1.9913   -3.12957 
 O                     1.28154   0.75833  -3.03986 
 C                     2.47514   2.82896  -3.15705 
 N                     3.82511   2.51214  -3.09292 
 C                     4.4317    3.66615  -3.16 
 H                     5.5136    3.80123  -3.13738 
 H                     4.4411    6.33026  -4.17537 
 H                     3.0376    6.68951  -3.42565 
 H                     4.39207   6.45059  -2.54855 
 H                    -5.30299   0.12258  -3.84208 
 H                    -5.25618  -0.01163  -2.08582 
 H                    -4.43449   1.32648  -2.88935 
 H                    -2.45581  -3.72133  -3.32784 
 C                    -2.399    -2.6358   -3.2464 
 O                    -0.02844  -2.57133  -3.30466 
 C                    -1.11661  -2.00089  -3.23206 
 H                    -0.27099  -0.14107  -3.11248 
 N                    -1.1576   -0.62529  -3.12585 
 O                    -2.21141   1.37817  -2.94466 
 C                    -2.27614   0.16483  -3.03565 
 H                    -4.50696  -2.32605  -3.16654 
 C                    -3.50801  -1.892    -3.16 
 C                    -4.69758   0.28168  -2.96218 
 N                    -3.47482  -0.5207   -3.05609 
 H                    -3.36337   5.72287  -6.86174 
 H                    -2.04501   5.68744  -5.90113 
 H                    -3.53618   5.59396  -5.24405 
 H                    -0.80946  -1.22311  -6.31721 
 H                    -2.46937  -0.85841  -6.46493 
 N                    -1.5319   -0.53192  -6.33931 
 C                    -1.2584    0.76767  -6.20724 
 C                    -1.79892   3.08148  -6.08142 
 N                    -0.53059   3.49104  -5.91402 
 H                     1.35257   2.69388  -5.77681 
 C                     0.29928   2.4498   -5.90822 
 N                     0.02729   1.14744  -6.04035 
 H                    -5.0048    3.35027  -6.40123 
 C                    -3.97701   2.99531  -6.32 
 N                    -3.61619   1.73685  -6.38132 
 C                    -2.23757   1.7774   -6.23142 
 C                    -2.97158   5.33449  -6.02768 
 N                    -2.92806   3.86357  -6.13959 
 
 ITRead=  0  0  0  0  0  0  0  0  0  0  0  0  0  0  0  0  0  0  0  0
 ITRead=  0  0  0  0  0  0  0  0  0  0  0  0  0  0  0  0  0  0  0  0
 ITRead=  0  0  0  0  0  0  0  0  0  0  0  0  0  0  0  0  0  0  0  0
 ITRead=  0  0  0  0  0  0  0  0  0  0
 MicOpt= -1 -1 -1 -1 -1 -1 -1 -1 -1 -1 -1 -1 -1 -1 -1 -1 -1 -1 -1 -1
 MicOpt= -1 -1 -1 -1 -1 -1 -1 -1 -1 -1 -1 -1 -1 -1 -1 -1 -1 -1 -1 -1
 MicOpt= -1 -1 -1 -1 -1 -1 -1 -1 -1 -1 -1 -1 -1 -1 -1 -1 -1 -1 -1 -1
 MicOpt= -1 -1 -1 -1 -1 -1 -1 -1 -1 -1
 NAtoms=     70 NQM=       70 NQMF=       0 NMMI=      0 NMMIF=      0
                NMic=       0 NMicF=      0.
                    Isotopes and Nuclear Properties:
 (Nuclear quadrupole moments (NQMom) in fm**2, nuclear magnetic moments (NMagM)
  in nuclear magnetons)

  Atom         1           2           3           4           5           6           7           8           9          10
 IAtWgt=          14          12          12          14          12           1          14          12           1          14
 AtmWgt=  14.0030740  12.0000000  12.0000000  14.0030740  12.0000000   1.0078250  14.0030740  12.0000000   1.0078250  14.0030740
 NucSpn=           2           0           0           2           0           1           2           0           1           2
 AtZEff=  -0.0000000  -0.0000000  -0.0000000  -0.0000000  -0.0000000  -0.0000000  -0.0000000  -0.0000000  -0.0000000  -0.0000000
 NQMom=    2.0440000   0.0000000   0.0000000   2.0440000   0.0000000   0.0000000   2.0440000   0.0000000   0.0000000   2.0440000
 NMagM=    0.4037610   0.0000000   0.0000000   0.4037610   0.0000000   2.7928460   0.4037610   0.0000000   2.7928460   0.4037610
 AtZNuc=   7.0000000   6.0000000   6.0000000   7.0000000   6.0000000   1.0000000   7.0000000   6.0000000   1.0000000   7.0000000

  Atom        11          12          13          14          15          16          17          18          19          20
 IAtWgt=          12          12          14           1           1           1           1           1          14          12
 AtmWgt=  12.0000000  12.0000000  14.0030740   1.0078250   1.0078250   1.0078250   1.0078250   1.0078250  14.0030740  12.0000000
 NucSpn=           0           0           2           1           1           1           1           1           2           0
 AtZEff=  -0.0000000  -0.0000000  -0.0000000  -0.0000000  -0.0000000  -0.0000000  -0.0000000  -0.0000000  -0.0000000  -0.0000000
 NQMom=    0.0000000   0.0000000   2.0440000   0.0000000   0.0000000   0.0000000   0.0000000   0.0000000   2.0440000   0.0000000
 NMagM=    0.0000000   0.0000000   0.4037610   2.7928460   2.7928460   2.7928460   2.7928460   2.7928460   0.4037610   0.0000000
 AtZNuc=   6.0000000   6.0000000   7.0000000   1.0000000   1.0000000   1.0000000   1.0000000   1.0000000   7.0000000   6.0000000

  Atom        21          22          23          24          25          26          27          28          29          30
 IAtWgt=          12          14           1           1          14          12          14           1          12          16
 AtmWgt=  12.0000000  14.0030740   1.0078250   1.0078250  14.0030740  12.0000000  14.0030740   1.0078250  12.0000000  15.9949146
 NucSpn=           0           2           1           1           2           0           2           1           0           0
 AtZEff=  -0.0000000  -0.0000000  -0.0000000  -0.0000000  -0.0000000  -0.0000000  -0.0000000  -0.0000000  -0.0000000  -0.0000000
 NQMom=    0.0000000   2.0440000   0.0000000   0.0000000   2.0440000   0.0000000   2.0440000   0.0000000   0.0000000   0.0000000
 NMagM=    0.0000000   0.4037610   2.7928460   2.7928460   0.4037610   0.0000000   0.4037610   2.7928460   0.0000000   0.0000000
 AtZNuc=   6.0000000   7.0000000   1.0000000   1.0000000   7.0000000   6.0000000   7.0000000   1.0000000   6.0000000   8.0000000

  Atom        31          32          33          34          35          36          37          38          39          40
 IAtWgt=          12          14          12           1           1           1           1           1           1           1
 AtmWgt=  12.0000000  14.0030740  12.0000000   1.0078250   1.0078250   1.0078250   1.0078250   1.0078250   1.0078250   1.0078250
 NucSpn=           0           2           0           1           1           1           1           1           1           1
 AtZEff=  -0.0000000  -0.0000000  -0.0000000  -0.0000000  -0.0000000  -0.0000000  -0.0000000  -0.0000000  -0.0000000  -0.0000000
 NQMom=    0.0000000   2.0440000   0.0000000   0.0000000   0.0000000   0.0000000   0.0000000   0.0000000   0.0000000   0.0000000
 NMagM=    0.0000000   0.4037610   0.0000000   2.7928460   2.7928460   2.7928460   2.7928460   2.7928460   2.7928460   2.7928460
 AtZNuc=   6.0000000   7.0000000   6.0000000   1.0000000   1.0000000   1.0000000   1.0000000   1.0000000   1.0000000   1.0000000

  Atom        41          42          43          44          45          46          47          48          49          50
 IAtWgt=           1          12          16          12           1          14          16          12           1          12
 AtmWgt=   1.0078250  12.0000000  15.9949146  12.0000000   1.0078250  14.0030740  15.9949146  12.0000000   1.0078250  12.0000000
 NucSpn=           1           0           0           0           1           2           0           0           1           0
 AtZEff=  -0.0000000  -0.0000000  -0.0000000  -0.0000000  -0.0000000  -0.0000000  -0.0000000  -0.0000000  -0.0000000  -0.0000000
 NQMom=    0.0000000   0.0000000   0.0000000   0.0000000   0.0000000   2.0440000   0.0000000   0.0000000   0.0000000   0.0000000
 NMagM=    2.7928460   0.0000000   0.0000000   0.0000000   2.7928460   0.4037610   0.0000000   0.0000000   2.7928460   0.0000000
 AtZNuc=   1.0000000   6.0000000   8.0000000   6.0000000   1.0000000   7.0000000   8.0000000   6.0000000   1.0000000   6.0000000

  Atom        51          52          53          54          55          56          57          58          59          60
 IAtWgt=          12          14           1           1           1           1           1          14          12          12
 AtmWgt=  12.0000000  14.0030740   1.0078250   1.0078250   1.0078250   1.0078250   1.0078250  14.0030740  12.0000000  12.0000000
 NucSpn=           0           2           1           1           1           1           1           2           0           0
 AtZEff=  -0.0000000  -0.0000000  -0.0000000  -0.0000000  -0.0000000  -0.0000000  -0.0000000  -0.0000000  -0.0000000  -0.0000000
 NQMom=    0.0000000   2.0440000   0.0000000   0.0000000   0.0000000   0.0000000   0.0000000   2.0440000   0.0000000   0.0000000
 NMagM=    0.0000000   0.4037610   2.7928460   2.7928460   2.7928460   2.7928460   2.7928460   0.4037610   0.0000000   0.0000000
 AtZNuc=   6.0000000   7.0000000   1.0000000   1.0000000   1.0000000   1.0000000   1.0000000   7.0000000   6.0000000   6.0000000

  Atom        61          62          63          64          65          66          67          68          69          70
 IAtWgt=          14           1          12          14           1          12          14          12          12          14
 AtmWgt=  14.0030740   1.0078250  12.0000000  14.0030740   1.0078250  12.0000000  14.0030740  12.0000000  12.0000000  14.0030740
 NucSpn=           2           1           0           2           1           0           2           0           0           2
 AtZEff=  -0.0000000  -0.0000000  -0.0000000  -0.0000000  -0.0000000  -0.0000000  -0.0000000  -0.0000000  -0.0000000  -0.0000000
 NQMom=    2.0440000   0.0000000   0.0000000   2.0440000   0.0000000   0.0000000   2.0440000   0.0000000   0.0000000   2.0440000
 NMagM=    0.4037610   2.7928460   0.0000000   0.4037610   2.7928460   0.0000000   0.4037610   0.0000000   0.0000000   0.4037610
 AtZNuc=   7.0000000   1.0000000   6.0000000   7.0000000   1.0000000   6.0000000   7.0000000   6.0000000   6.0000000   7.0000000
 Leave Link  101 at Thu Jan 25 19:52:48 2018, MaxMem=  4294967296 cpu:               7.2 elap:               0.3
 (Enter /share/apps/g16/l202.exe)
 Stoichiometry    C23H27N17O3
 Framework group  C1[X(C23H27N17O3)]
 Deg. of freedom   204
 Full point group                 C1      NOp   1
 Largest Abelian subgroup         C1      NOp   1
 Largest concise Abelian subgroup C1      NOp   1
                         Standard orientation:                         
 ---------------------------------------------------------------------
 Center     Atomic      Atomic             Coordinates (Angstroms)
 Number     Number       Type             X           Y           Z
 ---------------------------------------------------------------------
      1          7           0       -6.447836   -1.657553    0.585330
      2          6           0       -7.845014   -1.191949    0.490016
      3          6           0       -4.264759   -1.731104    0.842475
      4          7           0       -4.668356   -3.031714    0.577439
      5          6           0       -5.967417   -2.935350    0.433125
      6          1           0       -6.630528   -3.772416    0.212787
      7          7           0       -2.946665    0.165859    1.319030
      8          6           0       -4.084257    0.867921    1.294879
      9          1           0       -3.976294    1.934943    1.484781
     10          7           0       -5.329332    0.451760    1.072394
     11          6           0       -5.350568   -0.872911    0.850554
     12          6           0       -3.001474   -1.164765    1.092063
     13          7           0       -1.866980   -1.867289    1.115753
     14          1           0       -1.860324   -2.854578    0.953187
     15          1           0       -0.985519   -1.430924    1.296715
     16          1           0       -8.401213   -1.659445    1.177226
     17          1           0       -7.880052   -0.205718    0.648910
     18          1           0       -8.204492   -1.394058   -0.420990
     19          7           0       -2.509384    3.064663   -1.742730
     20          6           0       -1.232630    2.588945   -1.564821
     21          6           0       -2.917459    4.479033   -1.625633
     22          7           0        2.117148    3.159853   -0.847371
     23          1           0        2.955257    2.621813   -0.761700
     24          1           0        2.193610    4.145874   -0.696913
     25          7           0       -0.145136    3.327724   -1.255635
     26          6           0        0.943022    2.585808   -1.150369
     27          7           0        0.966522    1.224408   -1.333505
     28          1           0        1.844472    0.738514   -1.233042
     29          6           0       -0.140280    0.443810   -1.652126
     30          8           0       -0.011131   -0.778230   -1.795911
     31          6           0       -1.316770    1.226884   -1.768561
     32          7           0       -2.620118    0.854979   -2.068354
     33          6           0       -3.290278    1.974967   -2.041803
     34          1           0       -4.360175    2.063119   -2.233676
     35          1           0       -3.604529    4.570942   -0.905710
     36          1           0       -2.120100    5.035931   -1.396842
     37          1           0       -3.301597    4.789862   -2.494336
     38          1           0        6.383782   -1.168407    0.036197
     39          1           0        6.626597   -1.199872   -1.708711
     40          1           0        5.616452    0.050387   -0.982188
     41          1           0        3.865090   -5.097214   -1.133070
     42          6           0        3.764277   -4.012344   -1.166661
     43          8           0        1.415062   -4.056474   -1.492770
     44          6           0        2.468793   -3.435107   -1.357346
     45          1           0        1.555356   -1.610735   -1.517349
     46          7           0        2.452878   -2.055162   -1.384441
     47          8           0        3.413749    0.000217   -1.287796
     48          6           0        3.527651   -1.212329   -1.250086
     49          1           0        5.838182   -3.605366   -0.885409
     50          6           0        4.831518   -3.216351   -1.032503
     51          6           0        5.919785   -0.984220   -0.921321
     52          7           0        4.742351   -1.844115   -1.069659
     53          1           0        3.688934    4.151006    2.983290
     54          1           0        2.545575    4.114432    1.819892
     55          1           0        4.125690    4.126309    1.411019
     56          1           0        1.629573   -2.856547    1.672243
     57          1           0        3.222434   -2.428143    2.107436
     58          7           0        2.301207   -2.136587    1.847510
     59          6           0        1.983532   -0.844829    1.739702
     60          6           0        2.413069    1.494027    1.823129
     61          7           0        1.168019    1.856259    1.472328
     62          1           0       -0.623502    0.986076    0.988783
     63          6           0        0.406554    0.781487    1.277558
     64          7           0        0.722879   -0.513104    1.385036
     65          1           0        5.507144    1.884999    2.675206
     66          6           0        4.526114    1.490341    2.409173
     67          7           0        4.227760    0.215722    2.345885
     68          6           0        2.890879    0.204037    1.975320
     69          6           0        3.457322    3.795952    2.077593
     70          7           0        3.474912    2.320498    2.104981
 ---------------------------------------------------------------------
 Rotational constants (GHZ):           0.1211008           0.0578088           0.0488742
 Leave Link  202 at Thu Jan 25 19:52:48 2018, MaxMem=  4294967296 cpu:               0.3 elap:               0.0
 (Enter /share/apps/g16/l301.exe)
 Standard basis: CC-pVDZ (5D, 7F)
 Ernie: Thresh=  0.10000D-02 Tol=  0.10000D-05 Strict=F.
 Ernie:  86 primitive shells out of 1081 were deleted.
 There are   780 symmetry adapted cartesian basis functions of A   symmetry.
 There are   737 symmetry adapted basis functions of A   symmetry.
   737 basis functions,  1608 primitive gaussians,   780 cartesian basis functions
   154 alpha electrons      154 beta electrons
       nuclear repulsion energy      5461.4057110131 Hartrees.
 IExCor= 4639 DFT=T Ex+Corr=wB97XD ExCW=0 ScaHFX=  1.000000
 ScaDFX=  1.000000  1.000000  1.000000  1.000000 ScalE2=  1.000000  1.000000
 IRadAn=      5 IRanWt=     -1 IRanGd=            0 ICorTp=0 IEmpDi=121
 HFx  wShort=  0.000000 wLong=  0.200000 cFull=  0.222036 cShort=  0.000000 cLong=  0.777964
 DFx  wShort=  0.000000 wLong=  0.200000 cFull=  0.000000 cShort=  0.000000 cLong=  1.000000
 NAtoms=   70 NActive=   70 NUniq=   70 SFac= 1.00D+00 NAtFMM=   60 NAOKFM=T Big=T
 Integral buffers will be    131072 words long.
 Raffenetti 2 integral format.
 Two-electron integral symmetry is turned on.
 R6Disp:  Grimme-D2 Dispersion energy=       -0.0684347815 Hartrees.
 Nuclear repulsion after empirical dispersion term =     5461.3372762316 Hartrees.
 Leave Link  301 at Thu Jan 25 19:52:48 2018, MaxMem=  4294967296 cpu:               2.1 elap:               0.1
 (Enter /share/apps/g16/l302.exe)
 NPDir=0 NMtPBC=     1 NCelOv=     1 NCel=       1 NClECP=     1 NCelD=      1
         NCelK=      1 NCelE2=     1 NClLst=     1 CellRange=     0.0.
 One-electron integrals computed using PRISM.
 One-electron integral symmetry used in STVInt
 NBasis=   737 RedAO= T EigKep=  6.98D-04  NBF=   737
 NBsUse=   737 1.00D-06 EigRej= -1.00D+00 NBFU=   737
 Precomputing XC quadrature grid using
 IXCGrd= 4 IRadAn=           5 IRanWt=          -1 IRanGd=           0 AccXCQ= 0.00D+00.
 Generated NRdTot=       0 NPtTot=           0 NUsed=           0 NTot=          32
 NSgBfM=   768   768   768   768   768 MxSgAt=    70 MxSgA2=    70.
 Leave Link  302 at Thu Jan 25 19:52:52 2018, MaxMem=  4294967296 cpu:             134.0 elap:               4.2
 (Enter /share/apps/g16/l303.exe)
 DipDrv:  MaxL=1.
 Leave Link  303 at Thu Jan 25 19:52:53 2018, MaxMem=  4294967296 cpu:              12.7 elap:               0.4
 (Enter /share/apps/g16/l401.exe)
 ExpMin= 1.22D-01 ExpMax= 1.17D+04 ExpMxC= 4.01D+02 IAcc=3 IRadAn=         5 AccDes= 0.00D+00
 Harris functional with IExCor= 4639 and IRadAn=       5 diagonalized for initial guess.
 HarFok:  IExCor= 4639 AccDes= 0.00D+00 IRadAn=         5 IDoV= 1 UseB2=F ITyADJ=14
 ICtDFT=  3500011 ScaDFX=  1.000000  1.000000  1.000000  1.000000
 FoFCou: FMM=F IPFlag=           0 FMFlag=      100000 FMFlg1=        2001
         NFxFlg=           0 DoJE=T BraDBF=F KetDBF=T FulRan=T
         wScrn=  0.000000 ICntrl=       500 IOpCl=  0 I1Cent=   200000004 NGrid=           0
         NMat0=    1 NMatS0=      1 NMatT0=    0 NMatD0=    1 NMtDS0=    0 NMtDT0=    0
 Petite list used in FoFCou.
 Harris En= -1963.87460955526    
 JPrj=0 DoOrth=F DoCkMO=F.
 Leave Link  401 at Thu Jan 25 19:53:05 2018, MaxMem=  4294967296 cpu:             394.3 elap:              12.4
 (Enter /share/apps/g16/l502.exe)
 Integral symmetry usage will be decided dynamically.
 Closed shell SCF:
 Using DIIS extrapolation, IDIIS=  1040.
 NGot=  4294967296 LenX=  4293717438 LenY=  4293108258
 Requested convergence on RMS density matrix=1.00D-08 within  20 cycles.
 Requested convergence on MAX density matrix=1.00D-06.
 Requested convergence on             energy=1.00D-06.
 No special actions if energy rises.
 Fock matrices will be formed incrementally for  20 cycles.
 Integral accuracy reduced to 1.0D-05 until final iterations.

 Cycle   1  Pass 0  IDiag  1:
 FoFJK:  IHMeth= 1 ICntrl=       0 DoSepK=T KAlg= 0 I1Cent=           0 FoldK=F
 IRaf=         1 NMat=       1 IRICut=       1 DoRegI=T DoRafI=F ISym2E= 0 IDoP0=0 IntGTp=1.
 FoFCou: FMM=T IPFlag=           0 FMFlag=      100000 FMFlg1=        2001
         NFxFlg=           0 DoJE=T BraDBF=F KetDBF=F FulRan=T
         wScrn=  0.000000 ICntrl=       500 IOpCl=  0 I1Cent=           0 NGrid=           0
         NMat0=    1 NMatS0=      1 NMatT0=    0 NMatD0=    1 NMtDS0=    0 NMtDT0=    0
 Symmetry not used in FoFCou.
 FMM levels:  10  Number of levels for PrismC:   9
 E= -2048.30194252620    
 DIIS: error= 2.28D-02 at cycle   1 NSaved=   1.
 NSaved= 1 IEnMin= 1 EnMin= -2048.30194252620     IErMin= 1 ErrMin= 2.28D-02
 ErrMax= 2.28D-02  0.00D+00 EMaxC= 1.00D-01 BMatC= 8.32D-01 BMatP= 8.32D-01
 IDIUse=3 WtCom= 7.72D-01 WtEn= 2.28D-01
 Coeff-Com:  0.100D+01
 Coeff-En:   0.100D+01
 Coeff:      0.100D+01
 Gap=     0.250 Goal=   None    Shift=    0.000
 GapD=    0.250 DampG=1.000 DampE=0.500 DampFc=0.5000 IDamp=-1.
 Damping current iteration by 5.00D-01
 RMSDP=1.58D-03 MaxDP=1.31D-01              OVMax= 1.93D-01

 Cycle   2  Pass 0  IDiag  1:
 RMSU=  7.88D-04    CP:  9.98D-01
 E= -2048.50060513400     Delta-E=       -0.198662607798 Rises=F Damp=T
 DIIS: error= 1.19D-02 at cycle   2 NSaved=   2.
 NSaved= 2 IEnMin= 2 EnMin= -2048.50060513400     IErMin= 2 ErrMin= 1.19D-02
 ErrMax= 1.19D-02  0.00D+00 EMaxC= 1.00D-01 BMatC= 1.45D-01 BMatP= 8.32D-01
 IDIUse=3 WtCom= 8.81D-01 WtEn= 1.19D-01
 Coeff-Com: -0.199D+00 0.120D+01
 Coeff-En:   0.000D+00 0.100D+01
 Coeff:     -0.175D+00 0.118D+01
 Gap=     0.361 Goal=   None    Shift=    0.000
 RMSDP=5.84D-04 MaxDP=3.50D-02 DE=-1.99D-01 OVMax= 1.36D-01

 Cycle   3  Pass 0  IDiag  1:
 RMSU=  5.71D-04    CP:  9.94D-01  1.14D+00
 E= -2048.68219599592     Delta-E=       -0.181590861924 Rises=F Damp=F
 DIIS: error= 9.57D-03 at cycle   3 NSaved=   3.
 NSaved= 3 IEnMin= 3 EnMin= -2048.68219599592     IErMin= 3 ErrMin= 9.57D-03
 ErrMax= 9.57D-03  0.00D+00 EMaxC= 1.00D-01 BMatC= 6.13D-02 BMatP= 1.45D-01
 IDIUse=3 WtCom= 9.04D-01 WtEn= 9.57D-02
 Coeff-Com: -0.231D+00 0.545D+00 0.686D+00
 Coeff-En:   0.000D+00 0.000D+00 0.100D+01
 Coeff:     -0.209D+00 0.493D+00 0.716D+00
 Gap=     0.276 Goal=   None    Shift=    0.000
 RMSDP=3.53D-04 MaxDP=3.48D-02 DE=-1.82D-01 OVMax= 7.72D-02

 Cycle   4  Pass 0  IDiag  1:
 RMSU=  2.02D-04    CP:  9.94D-01  1.43D+00  6.73D-01
 E= -2048.72785509261     Delta-E=       -0.045659096687 Rises=F Damp=F
 DIIS: error= 3.91D-03 at cycle   4 NSaved=   4.
 NSaved= 4 IEnMin= 4 EnMin= -2048.72785509261     IErMin= 4 ErrMin= 3.91D-03
 ErrMax= 3.91D-03  0.00D+00 EMaxC= 1.00D-01 BMatC= 9.66D-03 BMatP= 6.13D-02
 IDIUse=3 WtCom= 9.61D-01 WtEn= 3.91D-02
 Coeff-Com: -0.935D-01 0.181D+00 0.386D+00 0.526D+00
 Coeff-En:   0.000D+00 0.000D+00 0.811D-01 0.919D+00
 Coeff:     -0.898D-01 0.174D+00 0.374D+00 0.541D+00
 Gap=     0.282 Goal=   None    Shift=    0.000
 RMSDP=1.30D-04 MaxDP=1.33D-02 DE=-4.57D-02 OVMax= 1.51D-02

 Cycle   5  Pass 0  IDiag  1:
 RMSU=  6.20D-05    CP:  9.94D-01  1.39D+00  8.12D-01  6.09D-01
 E= -2048.73571159213     Delta-E=       -0.007856499516 Rises=F Damp=F
 DIIS: error= 7.18D-04 at cycle   5 NSaved=   5.
 NSaved= 5 IEnMin= 5 EnMin= -2048.73571159213     IErMin= 5 ErrMin= 7.18D-04
 ErrMax= 7.18D-04  0.00D+00 EMaxC= 1.00D-01 BMatC= 3.15D-04 BMatP= 9.66D-03
 IDIUse=3 WtCom= 9.93D-01 WtEn= 7.18D-03
 Coeff-Com: -0.235D-01 0.399D-01 0.124D+00 0.244D+00 0.616D+00
 Coeff-En:   0.000D+00 0.000D+00 0.000D+00 0.000D+00 0.100D+01
 Coeff:     -0.233D-01 0.396D-01 0.123D+00 0.242D+00 0.618D+00
 Gap=     0.281 Goal=   None    Shift=    0.000
 RMSDP=2.60D-05 MaxDP=2.29D-03 DE=-7.86D-03 OVMax= 3.55D-03

 Failed to achieve initial convergence to 1.0D-08 in  6 cycles.
 Switch to full accuracy anyway.
 Cycle   6  Pass 1  IDiag  1:
 E= -2048.73616659901     Delta-E=       -0.000455006885 Rises=F Damp=F
 DIIS: error= 1.92D-04 at cycle   1 NSaved=   1.
 NSaved= 1 IEnMin= 1 EnMin= -2048.73616659901     IErMin= 1 ErrMin= 1.92D-04
 ErrMax= 1.92D-04  0.00D+00 EMaxC= 1.00D-01 BMatC= 7.80D-05 BMatP= 7.80D-05
 IDIUse=3 WtCom= 9.98D-01 WtEn= 1.92D-03
 Coeff-Com:  0.100D+01
 Coeff-En:   0.100D+01
 Coeff:      0.100D+01
 Gap=     0.282 Goal=   None    Shift=    0.000
 RMSDP=2.60D-05 MaxDP=2.29D-03 DE=-4.55D-04 OVMax= 2.41D-03

 Cycle   7  Pass 1  IDiag  1:
 RMSU=  1.18D-04    CP:  1.00D+00
 E= -2048.73622444810     Delta-E=       -0.000057849094 Rises=F Damp=F
 DIIS: error= 2.75D-04 at cycle   2 NSaved=   2.
 NSaved= 2 IEnMin= 2 EnMin= -2048.73622444810     IErMin= 1 ErrMin= 1.92D-04
 ErrMax= 2.75D-04  0.00D+00 EMaxC= 1.00D-01 BMatC= 4.28D-05 BMatP= 7.80D-05
 IDIUse=3 WtCom= 9.97D-01 WtEn= 2.75D-03
 Coeff-Com:  0.399D+00 0.601D+00
 Coeff-En:   0.000D+00 0.100D+01
 Coeff:      0.398D+00 0.602D+00
 Gap=     0.282 Goal=   None    Shift=    0.000
 RMSDP=1.13D-05 MaxDP=1.30D-03 DE=-5.78D-05 OVMax= 1.55D-03

 Cycle   8  Pass 1  IDiag  1:
 RMSU=  1.08D-05    CP:  1.00D+00  1.03D+00
 E= -2048.73625392111     Delta-E=       -0.000029473009 Rises=F Damp=F
 DIIS: error= 1.27D-04 at cycle   3 NSaved=   3.
 NSaved= 3 IEnMin= 3 EnMin= -2048.73625392111     IErMin= 3 ErrMin= 1.27D-04
 ErrMax= 1.27D-04  0.00D+00 EMaxC= 1.00D-01 BMatC= 1.11D-05 BMatP= 4.28D-05
 IDIUse=3 WtCom= 9.99D-01 WtEn= 1.27D-03
 Coeff-Com: -0.190D-01 0.325D+00 0.694D+00
 Coeff-En:   0.000D+00 0.154D+00 0.846D+00
 Coeff:     -0.190D-01 0.325D+00 0.694D+00
 Gap=     0.282 Goal=   None    Shift=    0.000
 RMSDP=5.60D-06 MaxDP=5.21D-04 DE=-2.95D-05 OVMax= 5.68D-04

 Cycle   9  Pass 1  IDiag  1:
 RMSU=  3.74D-06    CP:  1.00D+00  1.05D+00  7.50D-01
 E= -2048.73626367869     Delta-E=       -0.000009757577 Rises=F Damp=F
 DIIS: error= 3.85D-05 at cycle   4 NSaved=   4.
 NSaved= 4 IEnMin= 4 EnMin= -2048.73626367869     IErMin= 4 ErrMin= 3.85D-05
 ErrMax= 3.85D-05  0.00D+00 EMaxC= 1.00D-01 BMatC= 4.86D-07 BMatP= 1.11D-05
 IDIUse=1 WtCom= 1.00D+00 WtEn= 0.00D+00
 Coeff-Com: -0.286D-01 0.926D-01 0.256D+00 0.680D+00
 Coeff:     -0.286D-01 0.926D-01 0.256D+00 0.680D+00
 Gap=     0.282 Goal=   None    Shift=    0.000
 RMSDP=1.38D-06 MaxDP=1.48D-04 DE=-9.76D-06 OVMax= 5.06D-04

 Cycle  10  Pass 1  IDiag  1:
 RMSU=  1.25D-06    CP:  1.00D+00  1.06D+00  7.82D-01  1.09D+00
 E= -2048.73626446224     Delta-E=       -0.000000783552 Rises=F Damp=F
 DIIS: error= 1.72D-05 at cycle   5 NSaved=   5.
 NSaved= 5 IEnMin= 5 EnMin= -2048.73626446224     IErMin= 5 ErrMin= 1.72D-05
 ErrMax= 1.72D-05  0.00D+00 EMaxC= 1.00D-01 BMatC= 1.15D-07 BMatP= 4.86D-07
 IDIUse=1 WtCom= 1.00D+00 WtEn= 0.00D+00
 Coeff-Com: -0.225D-02-0.575D-01-0.120D+00 0.199D+00 0.981D+00
 Coeff:     -0.225D-02-0.575D-01-0.120D+00 0.199D+00 0.981D+00
 Gap=     0.282 Goal=   None    Shift=    0.000
 RMSDP=1.17D-06 MaxDP=7.50D-05 DE=-7.84D-07 OVMax= 2.40D-04

 Cycle  11  Pass 1  IDiag  1:
 RMSU=  4.87D-07    CP:  1.00D+00  1.06D+00  7.92D-01  1.37D+00  1.17D+00
 E= -2048.73626470441     Delta-E=       -0.000000242168 Rises=F Damp=F
 DIIS: error= 1.16D-05 at cycle   6 NSaved=   6.
 NSaved= 6 IEnMin= 6 EnMin= -2048.73626470441     IErMin= 6 ErrMin= 1.16D-05
 ErrMax= 1.16D-05  0.00D+00 EMaxC= 1.00D-01 BMatC= 2.60D-08 BMatP= 1.15D-07
 IDIUse=1 WtCom= 1.00D+00 WtEn= 0.00D+00
 Coeff-Com:  0.450D-02-0.465D-01-0.112D+00-0.242D-02 0.517D+00 0.639D+00
 Coeff:      0.450D-02-0.465D-01-0.112D+00-0.242D-02 0.517D+00 0.639D+00
 Gap=     0.282 Goal=   None    Shift=    0.000
 RMSDP=3.53D-07 MaxDP=3.67D-05 DE=-2.42D-07 OVMax= 1.27D-04

 Cycle  12  Pass 1  IDiag  1:
 RMSU=  1.78D-07    CP:  1.00D+00  1.06D+00  7.92D-01  1.43D+00  1.30D+00
                    CP:  9.30D-01
 E= -2048.73626474256     Delta-E=       -0.000000038153 Rises=F Damp=F
 DIIS: error= 1.12D-06 at cycle   7 NSaved=   7.
 NSaved= 7 IEnMin= 7 EnMin= -2048.73626474256     IErMin= 7 ErrMin= 1.12D-06
 ErrMax= 1.12D-06  0.00D+00 EMaxC= 1.00D-01 BMatC= 7.75D-10 BMatP= 2.60D-08
 IDIUse=1 WtCom= 1.00D+00 WtEn= 0.00D+00
 Coeff-Com:  0.106D-02-0.771D-02-0.200D-01-0.739D-02 0.568D-01 0.143D+00
 Coeff-Com:  0.835D+00
 Coeff:      0.106D-02-0.771D-02-0.200D-01-0.739D-02 0.568D-01 0.143D+00
 Coeff:      0.835D+00
 Gap=     0.282 Goal=   None    Shift=    0.000
 RMSDP=8.17D-08 MaxDP=5.24D-06 DE=-3.82D-08 OVMax= 2.23D-05

 Cycle  13  Pass 1  IDiag  1:
 RMSU=  4.93D-08    CP:  1.00D+00  1.06D+00  7.92D-01  1.44D+00  1.31D+00
                    CP:  1.02D+00  1.13D+00
 E= -2048.73626474408     Delta-E=       -0.000000001520 Rises=F Damp=F
 DIIS: error= 6.78D-07 at cycle   8 NSaved=   8.
 NSaved= 8 IEnMin= 8 EnMin= -2048.73626474408     IErMin= 8 ErrMin= 6.78D-07
 ErrMax= 6.78D-07  0.00D+00 EMaxC= 1.00D-01 BMatC= 3.10D-10 BMatP= 7.75D-10
 IDIUse=1 WtCom= 1.00D+00 WtEn= 0.00D+00
 Coeff-Com: -0.641D-03 0.836D-02 0.189D-01-0.141D-02-0.107D+00-0.900D-01
 Coeff-Com:  0.426D+00 0.746D+00
 Coeff:     -0.641D-03 0.836D-02 0.189D-01-0.141D-02-0.107D+00-0.900D-01
 Coeff:      0.426D+00 0.746D+00
 Gap=     0.282 Goal=   None    Shift=    0.000
 RMSDP=4.46D-08 MaxDP=2.69D-06 DE=-1.52D-09 OVMax= 1.11D-05

 Cycle  14  Pass 1  IDiag  1:
 RMSU=  2.69D-08    CP:  1.00D+00  1.06D+00  7.91D-01  1.45D+00  1.32D+00
                    CP:  1.06D+00  1.27D+00  1.04D+00
 E= -2048.73626474454     Delta-E=       -0.000000000460 Rises=F Damp=F
 DIIS: error= 2.22D-07 at cycle   9 NSaved=   9.
 NSaved= 9 IEnMin= 9 EnMin= -2048.73626474454     IErMin= 9 ErrMin= 2.22D-07
 ErrMax= 2.22D-07  0.00D+00 EMaxC= 1.00D-01 BMatC= 3.48D-11 BMatP= 3.10D-10
 IDIUse=1 WtCom= 1.00D+00 WtEn= 0.00D+00
 Coeff-Com: -0.421D-03 0.482D-02 0.112D-01 0.643D-03-0.555D-01-0.581D-01
 Coeff-Com:  0.926D-01 0.326D+00 0.679D+00
 Coeff:     -0.421D-03 0.482D-02 0.112D-01 0.643D-03-0.555D-01-0.581D-01
 Coeff:      0.926D-01 0.326D+00 0.679D+00
 Gap=     0.282 Goal=   None    Shift=    0.000
 RMSDP=1.34D-08 MaxDP=7.60D-07 DE=-4.60D-10 OVMax= 3.45D-06

 Cycle  15  Pass 1  IDiag  1:
 RMSU=  9.25D-09    CP:  1.00D+00  1.06D+00  7.91D-01  1.45D+00  1.32D+00
                    CP:  1.07D+00  1.30D+00  1.19D+00  1.08D+00
 E= -2048.73626474471     Delta-E=       -0.000000000166 Rises=F Damp=F
 DIIS: error= 7.13D-08 at cycle  10 NSaved=  10.
 NSaved=10 IEnMin=10 EnMin= -2048.73626474471     IErMin=10 ErrMin= 7.13D-08
 ErrMax= 7.13D-08  0.00D+00 EMaxC= 1.00D-01 BMatC= 4.92D-12 BMatP= 3.48D-11
 IDIUse=1 WtCom= 1.00D+00 WtEn= 0.00D+00
 Coeff-Com:  0.555D-06-0.255D-03-0.473D-03 0.149D-03 0.467D-02 0.469D-03
 Coeff-Com: -0.568D-01-0.535D-01 0.246D+00 0.859D+00
 Coeff:      0.555D-06-0.255D-03-0.473D-03 0.149D-03 0.467D-02 0.469D-03
 Coeff:     -0.568D-01-0.535D-01 0.246D+00 0.859D+00
 Gap=     0.282 Goal=   None    Shift=    0.000
 RMSDP=6.77D-09 MaxDP=4.19D-07 DE=-1.66D-10 OVMax= 1.64D-06

 SCF Done:  E(RwB97XD) =  -2048.73626474     A.U. after   15 cycles
            NFock= 15  Conv=0.68D-08     -V/T= 2.0054
 KE= 2.037759861281D+03 PE=-1.570356360464D+04 EE= 6.155730202380D+03
 Leave Link  502 at Thu Jan 25 20:04:09 2018, MaxMem=  4294967296 cpu:           20551.0 elap:             664.1
 (Enter /share/apps/g16/l601.exe)
 Copying SCF densities to generalized density rwf, IOpCl= 0 IROHF=0.

 **********************************************************************

            Population analysis using the SCF density.

 **********************************************************************

 Orbital symmetries:
       Occupied  (A) (A) (A) (A) (A) (A) (A) (A) (A) (A) (A) (A)
                 (A) (A) (A) (A) (A) (A) (A) (A) (A) (A) (A) (A)
                 (A) (A) (A) (A) (A) (A) (A) (A) (A) (A) (A) (A)
                 (A) (A) (A) (A) (A) (A) (A) (A) (A) (A) (A) (A)
                 (A) (A) (A) (A) (A) (A) (A) (A) (A) (A) (A) (A)
                 (A) (A) (A) (A) (A) (A) (A) (A) (A) (A) (A) (A)
                 (A) (A) (A) (A) (A) (A) (A) (A) (A) (A) (A) (A)
                 (A) (A) (A) (A) (A) (A) (A) (A) (A) (A) (A) (A)
                 (A) (A) (A) (A) (A) (A) (A) (A) (A) (A) (A) (A)
                 (A) (A) (A) (A) (A) (A) (A) (A) (A) (A) (A) (A)
                 (A) (A) (A) (A) (A) (A) (A) (A) (A) (A) (A) (A)
                 (A) (A) (A) (A) (A) (A) (A) (A) (A) (A) (A) (A)
                 (A) (A) (A) (A) (A) (A) (A) (A) (A) (A)
       Virtual   (A) (A) (A) (A) (A) (A) (A) (A) (A) (A) (A) (A)
                 (A) (A) (A) (A) (A) (A) (A) (A) (A) (A) (A) (A)
                 (A) (A) (A) (A) (A) (A) (A) (A) (A) (A) (A) (A)
                 (A) (A) (A) (A) (A) (A) (A) (A) (A) (A) (A) (A)
                 (A) (A) (A) (A) (A) (A) (A) (A) (A) (A) (A) (A)
                 (A) (A) (A) (A) (A) (A) (A) (A) (A) (A) (A) (A)
                 (A) (A) (A) (A) (A) (A) (A) (A) (A) (A) (A) (A)
                 (A) (A) (A) (A) (A) (A) (A) (A) (A) (A) (A) (A)
                 (A) (A) (A) (A) (A) (A) (A) (A) (A) (A) (A) (A)
                 (A) (A) (A) (A) (A) (A) (A) (A) (A) (A) (A) (A)
                 (A) (A) (A) (A) (A) (A) (A) (A) (A) (A) (A) (A)
                 (A) (A) (A) (A) (A) (A) (A) (A) (A) (A) (A) (A)
                 (A) (A) (A) (A) (A) (A) (A) (A) (A) (A) (A) (A)
                 (A) (A) (A) (A) (A) (A) (A) (A) (A) (A) (A) (A)
                 (A) (A) (A) (A) (A) (A) (A) (A) (A) (A) (A) (A)
                 (A) (A) (A) (A) (A) (A) (A) (A) (A) (A) (A) (A)
                 (A) (A) (A) (A) (A) (A) (A) (A) (A) (A) (A) (A)
                 (A) (A) (A) (A) (A) (A) (A) (A) (A) (A) (A) (A)
                 (A) (A) (A) (A) (A) (A) (A) (A) (A) (A) (A) (A)
                 (A) (A) (A) (A) (A) (A) (A) (A) (A) (A) (A) (A)
                 (A) (A) (A) (A) (A) (A) (A) (A) (A) (A) (A) (A)
                 (A) (A) (A) (A) (A) (A) (A) (A) (A) (A) (A) (A)
                 (A) (A) (A) (A) (A) (A) (A) (A) (A) (A) (A) (A)
                 (A) (A) (A) (A) (A) (A) (A) (A) (A) (A) (A) (A)
                 (A) (A) (A) (A) (A) (A) (A) (A) (A) (A) (A) (A)
                 (A) (A) (A) (A) (A) (A) (A) (A) (A) (A) (A) (A)
                 (A) (A) (A) (A) (A) (A) (A) (A) (A) (A) (A) (A)
                 (A) (A) (A) (A) (A) (A) (A) (A) (A) (A) (A) (A)
                 (A) (A) (A) (A) (A) (A) (A) (A) (A) (A) (A) (A)
                 (A) (A) (A) (A) (A) (A) (A) (A) (A) (A) (A) (A)
                 (A) (A) (A) (A) (A) (A) (A) (A) (A) (A) (A) (A)
                 (A) (A) (A) (A) (A) (A) (A) (A) (A) (A) (A) (A)
                 (A) (A) (A) (A) (A) (A) (A) (A) (A) (A) (A) (A)
                 (A) (A) (A) (A) (A) (A) (A) (A) (A) (A) (A) (A)
                 (A) (A) (A) (A) (A) (A) (A) (A) (A) (A) (A) (A)
                 (A) (A) (A) (A) (A) (A) (A) (A) (A) (A) (A) (A)
                 (A) (A) (A) (A) (A) (A) (A) (A) (A) (A) (A) (A)
                 (A) (A) (A) (A) (A) (A) (A) (A) (A) (A) (A) (A)
                 (A) (A) (A) (A) (A) (A) (A) (A) (A) (A) (A) (A)
                 (A) (A) (A) (A) (A) (A) (A) (A) (A) (A) (A) (A)
                 (A) (A) (A) (A) (A) (A) (A) (A) (A) (A) (A) (A)
                 (A) (A) (A) (A) (A) (A) (A) (A) (A) (A) (A) (A)
                 (A) (A) (A) (A) (A) (A) (A) (A) (A) (A) (A) (A)
                 (A) (A) (A) (A) (A) (A) (A) (A) (A) (A) (A) (A)
                 (A) (A) (A) (A) (A) (A) (A) (A) (A) (A) (A) (A)
                 (A) (A) (A) (A) (A) (A) (A) (A) (A) (A) (A) (A)
                 (A) (A) (A) (A) (A) (A) (A) (A) (A) (A) (A) (A)
                 (A) (A) (A) (A) (A) (A) (A) (A) (A) (A) (A) (A)
                 (A) (A) (A) (A) (A) (A) (A)
 The electronic state is 1-A.
 Alpha  occ. eigenvalues --  -19.26024 -19.22242 -19.20722 -14.52597 -14.51998
 Alpha  occ. eigenvalues --  -14.48825 -14.48581 -14.47981 -14.47661 -14.46907
 Alpha  occ. eigenvalues --  -14.46846 -14.44975 -14.43515 -14.43222 -14.42139
 Alpha  occ. eigenvalues --  -14.42072 -14.41251 -14.40815 -14.40699 -14.39960
 Alpha  occ. eigenvalues --  -10.45633 -10.41300 -10.40331 -10.39260 -10.38297
 Alpha  occ. eigenvalues --  -10.38039 -10.37520 -10.36480 -10.35231 -10.35179
 Alpha  occ. eigenvalues --  -10.34951 -10.34431 -10.33917 -10.33794 -10.33261
 Alpha  occ. eigenvalues --  -10.33165 -10.32899 -10.32009 -10.31351 -10.30964
 Alpha  occ. eigenvalues --  -10.30800 -10.28338 -10.28182  -1.19587  -1.14671
 Alpha  occ. eigenvalues --   -1.13335  -1.13243  -1.11159  -1.10649  -1.09487
 Alpha  occ. eigenvalues --   -1.08770  -1.08533  -1.04780  -1.04159  -1.02645
 Alpha  occ. eigenvalues --   -1.00544  -1.00252  -0.99938  -0.98624  -0.96806
 Alpha  occ. eigenvalues --   -0.96625  -0.96111  -0.92439  -0.91252  -0.87095
 Alpha  occ. eigenvalues --   -0.85562  -0.84183  -0.83755  -0.83691  -0.82576
 Alpha  occ. eigenvalues --   -0.82142  -0.79063  -0.76475  -0.74730  -0.74179
 Alpha  occ. eigenvalues --   -0.73813  -0.73507  -0.72727  -0.70870  -0.69895
 Alpha  occ. eigenvalues --   -0.67523  -0.66699  -0.66254  -0.66137  -0.64584
 Alpha  occ. eigenvalues --   -0.63875  -0.63769  -0.62821  -0.62531  -0.61941
 Alpha  occ. eigenvalues --   -0.60178  -0.60066  -0.59904  -0.59663  -0.59395
 Alpha  occ. eigenvalues --   -0.59026  -0.58558  -0.56832  -0.56386  -0.56204
 Alpha  occ. eigenvalues --   -0.56105  -0.55310  -0.55175  -0.54723  -0.54492
 Alpha  occ. eigenvalues --   -0.53769  -0.53635  -0.53144  -0.53052  -0.52783
 Alpha  occ. eigenvalues --   -0.52467  -0.52233  -0.51597  -0.50542  -0.50257
 Alpha  occ. eigenvalues --   -0.50028  -0.49556  -0.49311  -0.48949  -0.48655
 Alpha  occ. eigenvalues --   -0.48597  -0.48499  -0.48301  -0.48071  -0.47488
 Alpha  occ. eigenvalues --   -0.46764  -0.45759  -0.44868  -0.44190  -0.43685
 Alpha  occ. eigenvalues --   -0.40960  -0.40082  -0.39566  -0.37666  -0.37326
 Alpha  occ. eigenvalues --   -0.37170  -0.36988  -0.36847  -0.35887  -0.34427
 Alpha  occ. eigenvalues --   -0.34039  -0.33486  -0.33383  -0.33278  -0.33079
 Alpha  occ. eigenvalues --   -0.32715  -0.32470  -0.32168  -0.31871  -0.30658
 Alpha  occ. eigenvalues --   -0.30190  -0.29233  -0.25757  -0.25361
 Alpha virt. eigenvalues --    0.02816   0.04577   0.07565   0.08147   0.08517
 Alpha virt. eigenvalues --    0.09077   0.09475   0.11024   0.11442   0.11794
 Alpha virt. eigenvalues --    0.12429   0.14124   0.14208   0.14688   0.15004
 Alpha virt. eigenvalues --    0.15859   0.16055   0.17031   0.17113   0.17887
 Alpha virt. eigenvalues --    0.18565   0.19299   0.19944   0.20351   0.20423
 Alpha virt. eigenvalues --    0.20810   0.20900   0.20967   0.21304   0.22095
 Alpha virt. eigenvalues --    0.22695   0.23145   0.23300   0.23503   0.23907
 Alpha virt. eigenvalues --    0.24046   0.24156   0.24597   0.24761   0.25231
 Alpha virt. eigenvalues --    0.25704   0.26567   0.27204   0.27476   0.27943
 Alpha virt. eigenvalues --    0.29134   0.29348   0.29669   0.30550   0.30925
 Alpha virt. eigenvalues --    0.31228   0.31737   0.32616   0.33508   0.33694
 Alpha virt. eigenvalues --    0.34088   0.34227   0.35071   0.35781   0.36707
 Alpha virt. eigenvalues --    0.37076   0.37345   0.38033   0.39407   0.39711
 Alpha virt. eigenvalues --    0.39914   0.40317   0.40773   0.41378   0.41641
 Alpha virt. eigenvalues --    0.42360   0.42682   0.43622   0.43762   0.44580
 Alpha virt. eigenvalues --    0.44758   0.45502   0.46306   0.46589   0.47283
 Alpha virt. eigenvalues --    0.47407   0.48057   0.48421   0.48746   0.49704
 Alpha virt. eigenvalues --    0.49850   0.50251   0.50544   0.50633   0.50864
 Alpha virt. eigenvalues --    0.51579   0.52159   0.52501   0.52676   0.53278
 Alpha virt. eigenvalues --    0.53681   0.54002   0.54839   0.55203   0.55742
 Alpha virt. eigenvalues --    0.56276   0.56548   0.56740   0.56866   0.57522
 Alpha virt. eigenvalues --    0.58110   0.58414   0.58886   0.58931   0.59292
 Alpha virt. eigenvalues --    0.59956   0.60221   0.60713   0.60855   0.61132
 Alpha virt. eigenvalues --    0.61691   0.62195   0.62357   0.62961   0.63461
 Alpha virt. eigenvalues --    0.63539   0.63873   0.64492   0.64853   0.65471
 Alpha virt. eigenvalues --    0.65705   0.66353   0.66556   0.66885   0.67380
 Alpha virt. eigenvalues --    0.67713   0.68260   0.68429   0.68835   0.69208
 Alpha virt. eigenvalues --    0.69798   0.70029   0.70096   0.70366   0.70755
 Alpha virt. eigenvalues --    0.71511   0.71799   0.72544   0.72994   0.73133
 Alpha virt. eigenvalues --    0.73901   0.74321   0.74843   0.74929   0.75404
 Alpha virt. eigenvalues --    0.75746   0.75903   0.76245   0.76653   0.77014
 Alpha virt. eigenvalues --    0.77044   0.77331   0.77871   0.78052   0.78305
 Alpha virt. eigenvalues --    0.78814   0.78946   0.79843   0.80487   0.80709
 Alpha virt. eigenvalues --    0.81443   0.81671   0.81894   0.82455   0.82525
 Alpha virt. eigenvalues --    0.83227   0.83687   0.83747   0.84679   0.85122
 Alpha virt. eigenvalues --    0.85502   0.85581   0.86178   0.87307   0.87622
 Alpha virt. eigenvalues --    0.88316   0.88726   0.89070   0.89499   0.90037
 Alpha virt. eigenvalues --    0.90259   0.90838   0.91310   0.91551   0.91701
 Alpha virt. eigenvalues --    0.92520   0.93259   0.93484   0.93760   0.94057
 Alpha virt. eigenvalues --    0.94241   0.95017   0.95471   0.95866   0.96447
 Alpha virt. eigenvalues --    0.96725   0.97100   0.97410   0.98414   0.98523
 Alpha virt. eigenvalues --    0.98830   0.99581   1.00628   1.00959   1.01134
 Alpha virt. eigenvalues --    1.01750   1.01870   1.02150   1.02418   1.03104
 Alpha virt. eigenvalues --    1.03199   1.04227   1.04698   1.05174   1.05510
 Alpha virt. eigenvalues --    1.05781   1.05969   1.06685   1.07221   1.08052
 Alpha virt. eigenvalues --    1.08153   1.08751   1.09223   1.10187   1.10828
 Alpha virt. eigenvalues --    1.11267   1.11363   1.12360   1.13203   1.13502
 Alpha virt. eigenvalues --    1.13851   1.14080   1.15032   1.15301   1.15867
 Alpha virt. eigenvalues --    1.16124   1.16230   1.16330   1.17028   1.17557
 Alpha virt. eigenvalues --    1.18667   1.19060   1.19188   1.19629   1.19871
 Alpha virt. eigenvalues --    1.20065   1.20375   1.20736   1.21162   1.21365
 Alpha virt. eigenvalues --    1.21881   1.22658   1.22715   1.22956   1.23025
 Alpha virt. eigenvalues --    1.23641   1.23719   1.24305   1.24365   1.25098
 Alpha virt. eigenvalues --    1.25601   1.25742   1.26943   1.27350   1.27844
 Alpha virt. eigenvalues --    1.28407   1.29136   1.29647   1.30572   1.31812
 Alpha virt. eigenvalues --    1.32097   1.32602   1.33268   1.34094   1.34208
 Alpha virt. eigenvalues --    1.34919   1.35487   1.35855   1.36388   1.37249
 Alpha virt. eigenvalues --    1.37837   1.38894   1.39273   1.39839   1.40729
 Alpha virt. eigenvalues --    1.41394   1.42076   1.42885   1.44096   1.44481
 Alpha virt. eigenvalues --    1.45547   1.46356   1.46989   1.47658   1.48099
 Alpha virt. eigenvalues --    1.48470   1.49147   1.49378   1.49630   1.49812
 Alpha virt. eigenvalues --    1.50898   1.50929   1.52341   1.53338   1.53493
 Alpha virt. eigenvalues --    1.55579   1.55792   1.56155   1.56257   1.56948
 Alpha virt. eigenvalues --    1.58268   1.58705   1.59297   1.59447   1.60997
 Alpha virt. eigenvalues --    1.61352   1.61844   1.61968   1.62854   1.63563
 Alpha virt. eigenvalues --    1.64012   1.65094   1.65422   1.66286   1.66582
 Alpha virt. eigenvalues --    1.67115   1.67910   1.68076   1.68462   1.69180
 Alpha virt. eigenvalues --    1.69972   1.70092   1.70345   1.71055   1.71298
 Alpha virt. eigenvalues --    1.71970   1.72653   1.72731   1.73049   1.73342
 Alpha virt. eigenvalues --    1.73809   1.74520   1.74843   1.75061   1.75281
 Alpha virt. eigenvalues --    1.75856   1.76154   1.76398   1.76863   1.76946
 Alpha virt. eigenvalues --    1.77191   1.77700   1.78073   1.78649   1.79134
 Alpha virt. eigenvalues --    1.79302   1.79699   1.80193   1.80433   1.80435
 Alpha virt. eigenvalues --    1.80611   1.81136   1.81322   1.81928   1.82384
 Alpha virt. eigenvalues --    1.83019   1.83187   1.83624   1.83690   1.84600
 Alpha virt. eigenvalues --    1.84965   1.85408   1.85911   1.86744   1.87009
 Alpha virt. eigenvalues --    1.87369   1.87601   1.88022   1.88805   1.89070
 Alpha virt. eigenvalues --    1.89541   1.89943   1.90259   1.90428   1.90779
 Alpha virt. eigenvalues --    1.92275   1.92787   1.93368   1.93597   1.93806
 Alpha virt. eigenvalues --    1.94044   1.95302   1.95406   1.96242   1.97084
 Alpha virt. eigenvalues --    1.98026   1.98718   1.99736   2.00579   2.00949
 Alpha virt. eigenvalues --    2.01244   2.01799   2.02007   2.02557   2.03941
 Alpha virt. eigenvalues --    2.04655   2.05197   2.06224   2.06540   2.06977
 Alpha virt. eigenvalues --    2.07839   2.08404   2.08545   2.08892   2.09363
 Alpha virt. eigenvalues --    2.10362   2.10468   2.11280   2.12717   2.13459
 Alpha virt. eigenvalues --    2.13993   2.14473   2.14884   2.16497   2.17959
 Alpha virt. eigenvalues --    2.18304   2.20068   2.20279   2.20532   2.21238
 Alpha virt. eigenvalues --    2.21304   2.22085   2.22837   2.23208   2.23923
 Alpha virt. eigenvalues --    2.24376   2.24579   2.25703   2.25906   2.26642
 Alpha virt. eigenvalues --    2.27381   2.28070   2.28606   2.29347   2.29710
 Alpha virt. eigenvalues --    2.29944   2.30521   2.31048   2.31595   2.32370
 Alpha virt. eigenvalues --    2.32883   2.34154   2.34475   2.34673   2.35031
 Alpha virt. eigenvalues --    2.35240   2.35597   2.36412   2.36651   2.37414
 Alpha virt. eigenvalues --    2.38245   2.39410   2.40030   2.40984   2.41749
 Alpha virt. eigenvalues --    2.41853   2.42513   2.43017   2.43505   2.44316
 Alpha virt. eigenvalues --    2.45374   2.45830   2.46039   2.46459   2.46919
 Alpha virt. eigenvalues --    2.47550   2.48598   2.49370   2.50488   2.51641
 Alpha virt. eigenvalues --    2.52325   2.53334   2.54289   2.54765   2.55472
 Alpha virt. eigenvalues --    2.56442   2.57245   2.57856   2.58042   2.58945
 Alpha virt. eigenvalues --    2.60643   2.61383   2.61939   2.62066   2.62982
 Alpha virt. eigenvalues --    2.64192   2.64521   2.64843   2.65142   2.65787
 Alpha virt. eigenvalues --    2.66504   2.67669   2.68657   2.68727   2.69007
 Alpha virt. eigenvalues --    2.69625   2.70502   2.70912   2.70981   2.71776
 Alpha virt. eigenvalues --    2.73129   2.73539   2.74338   2.75218   2.75840
 Alpha virt. eigenvalues --    2.77373   2.78502   2.78818   2.79076   2.79417
 Alpha virt. eigenvalues --    2.79839   2.80222   2.80670   2.80823   2.81383
 Alpha virt. eigenvalues --    2.81733   2.82152   2.82640   2.83066   2.84122
 Alpha virt. eigenvalues --    2.84674   2.85156   2.86192   2.86638   2.87145
 Alpha virt. eigenvalues --    2.87636   2.88351   2.89074   2.91638   2.93046
 Alpha virt. eigenvalues --    2.94502   2.95266   2.96796   2.98050   2.99341
 Alpha virt. eigenvalues --    3.00281   3.01898   3.03176   3.04806   3.06379
 Alpha virt. eigenvalues --    3.07329   3.09763   3.10308   3.13602   3.14642
 Alpha virt. eigenvalues --    3.15182   3.15890   3.16070   3.17893   3.19931
 Alpha virt. eigenvalues --    3.21843   3.22177   3.23825   3.24030   3.26246
 Alpha virt. eigenvalues --    3.45358   3.47324   3.47777   3.49504   3.50039
 Alpha virt. eigenvalues --    3.53461   3.54014   3.56144   3.57942   3.59828
 Alpha virt. eigenvalues --    3.62622   3.70490   3.74316
          Condensed to atoms (all electrons):
 Mulliken charges:
               1
     1  N   -0.311905
     2  C    0.181249
     3  C    0.036409
     4  N   -0.259616
     5  C    0.134100
     6  H    0.025919
     7  N   -0.293763
     8  C    0.139506
     9  H    0.006827
    10  N   -0.292143
    11  C    0.247304
    12  C    0.125207
    13  N   -0.056351
    14  H    0.109759
    15  H    0.087808
    16  H    0.024630
    17  H    0.033586
    18  H    0.026268
    19  N   -0.312258
    20  C    0.242275
    21  C    0.181389
    22  N   -0.103768
    23  H    0.115444
    24  H    0.113850
    25  N   -0.295628
    26  C    0.215676
    27  N   -0.122106
    28  H    0.113375
    29  C    0.150614
    30  O   -0.316344
    31  C    0.012923
    32  N   -0.223201
    33  C    0.127988
    34  H    0.028610
    35  H    0.028825
    36  H    0.027938
    37  H    0.024862
    38  H    0.063668
    39  H    0.057944
    40  H    0.074227
    41  H    0.031871
    42  C   -0.112063
    43  O   -0.264916
    44  C    0.163562
    45  H    0.134113
    46  N   -0.127297
    47  O   -0.346762
    48  C    0.353331
    49  H    0.048630
    50  C    0.166663
    51  C    0.043009
    52  N   -0.291348
    53  H    0.036419
    54  H    0.043385
    55  H    0.019823
    56  H    0.127110
    57  H    0.114191
    58  N   -0.067680
    59  C    0.084231
    60  C    0.217804
    61  N   -0.257730
    62  H    0.049143
    63  C    0.162989
    64  N   -0.301217
    65  H    0.033028
    66  C    0.133935
    67  N   -0.267668
    68  C    0.045452
    69  C    0.167944
    70  N   -0.311049
 Sum of Mulliken charges =  -0.00000
 Mulliken charges with hydrogens summed into heavy atoms:
               1
     1  N   -0.311905
     2  C    0.265732
     3  C    0.036409
     4  N   -0.259616
     5  C    0.160019
     7  N   -0.293763
     8  C    0.146334
    10  N   -0.292143
    11  C    0.247304
    12  C    0.125207
    13  N    0.141216
    19  N   -0.312258
    20  C    0.242275
    21  C    0.263014
    22  N    0.125526
    25  N   -0.295628
    26  C    0.215676
    27  N   -0.008732
    29  C    0.150614
    30  O   -0.316344
    31  C    0.012923
    32  N   -0.223201
    33  C    0.156599
    42  C   -0.080192
    43  O   -0.264916
    44  C    0.163562
    46  N    0.006817
    47  O   -0.346762
    48  C    0.353331
    50  C    0.215294
    51  C    0.238848
    52  N   -0.291348
    58  N    0.173621
    59  C    0.084231
    60  C    0.217804
    61  N   -0.257730
    63  C    0.212132
    64  N   -0.301217
    66  C    0.166963
    67  N   -0.267668
    68  C    0.045452
    69  C    0.267570
    70  N   -0.311049
 Electronic spatial extent (au):  <R**2>=          22788.9682
 Charge=             -0.0000 electrons
 Dipole moment (field-independent basis, Debye):
    X=              8.7936    Y=              5.2041    Z=              2.2164  Tot=             10.4557
 Quadrupole moment (field-independent basis, Debye-Ang):
   XX=           -155.8829   YY=           -213.6464   ZZ=           -252.7285
   XY=             -2.9433   XZ=              6.1933   YZ=             -8.2282
 Traceless Quadrupole moment (field-independent basis, Debye-Ang):
   XX=             51.5364   YY=             -6.2272   ZZ=            -45.3092
   XY=             -2.9433   XZ=              6.1933   YZ=             -8.2282
 Octapole moment (field-independent basis, Debye-Ang**2):
  XXX=            -23.0311  YYY=            141.0129  ZZZ=              0.2435  XYY=             93.5598
  XXY=            -65.2906  XXZ=            -50.1408  XZZ=             29.9904  YZZ=             30.7775
  YYZ=             39.0003  XYZ=             61.4434
 Hexadecapole moment (field-independent basis, Debye-Ang**3):
 XXXX=         -14393.9259 YYYY=          -6947.3703 ZZZZ=          -3496.7571 XXXY=            472.9552
 XXXZ=            -18.5429 YYYX=           -146.9068 YYYZ=           -105.3702 ZZZX=             31.3887
 ZZZY=             21.3174 XXYY=          -3456.6394 XXZZ=          -3738.1132 YYZZ=          -1747.9679
 XXYZ=            105.5958 YYXZ=            234.2882 ZZXY=             16.2704
 N-N= 5.461337276232D+03 E-N=-1.570356359939D+04  KE= 2.037759861281D+03
 No NMR shielding tensors so no spin-rotation constants.
 Leave Link  601 at Thu Jan 25 20:04:11 2018, MaxMem=  4294967296 cpu:              48.8 elap:               1.7
 (Enter /share/apps/g16/l9999.exe)
 1\1\GINC-COMPUTE-0-3\SP\RwB97XD\CC-pVDZ\C23H27N17O3\SATYA\25-Jan-2018\
 0\\#p wb97xd/cc-pvdz sp scf=(maxcycles=20)\\Base pair stacking\\0,1\N,
 0,7.27593,0.34734,-6.47105\C,0,8.64793,0.88126,-6.57363\C,0,5.08558,0.
 17082,-6.3785\N,0,5.5842,-1.11834,-6.25948\C,0,6.88384,-0.9604,-6.32\H
 ,0,7.61042,-1.77115,-6.25909\N,0,3.62471,2.01682,-6.52372\C,0,4.71878,
 2.77637,-6.6407\H,0,4.53414,3.84448,-6.74702\N,0,6.00066,2.41629,-6.64
 602\C,0,6.11644,1.08497,-6.50964\C,0,3.77468,0.68109,-6.38803\N,0,2.68
 376,-0.07878,-6.27112\H,0,2.74744,-1.07208,-6.1686\H,0,1.76614,0.3187,
 -6.28203\H,0,9.10468,0.48011,-7.36775\H,0,8.61287,1.87483,-6.67715\H,0
 ,9.15984,0.65195,-5.74576\N,0,3.565,4.72661,-3.26456\C,0,2.29866,4.193
 28,-3.26328\C,0,3.88547,6.16488,-3.36129\N,0,-1.14524,4.62094,-3.39872
 \H,0,-1.96144,4.0441,-3.38065\H,0,-1.28881,5.60792,-3.47605\N,0,1.1436
 6,4.88796,-3.34948\C,0,0.08684,4.09548,-3.32272\N,0,0.15384,2.72714,-3
 .21948\H,0,-0.70635,2.20094,-3.20649\C,0,1.33126,1.9913,-3.12957\O,0,1
 .28154,0.75833,-3.03986\C,0,2.47514,2.82896,-3.15705\N,0,3.82511,2.512
 14,-3.09292\C,0,4.4317,3.66615,-3.16\H,0,5.5136,3.80123,-3.13738\H,0,4
 .4411,6.33026,-4.17537\H,0,3.0376,6.68951,-3.42565\H,0,4.39207,6.45059
 ,-2.54855\H,0,-5.30299,0.12258,-3.84208\H,0,-5.25618,-0.01163,-2.08582
 \H,0,-4.43449,1.32648,-2.88935\H,0,-2.45581,-3.72133,-3.32784\C,0,-2.3
 99,-2.6358,-3.2464\O,0,-0.02844,-2.57133,-3.30466\C,0,-1.11661,-2.0008
 9,-3.23206\H,0,-0.27099,-0.14107,-3.11248\N,0,-1.1576,-0.62529,-3.1258
 5\O,0,-2.21141,1.37817,-2.94466\C,0,-2.27614,0.16483,-3.03565\H,0,-4.5
 0696,-2.32605,-3.16654\C,0,-3.50801,-1.892,-3.16\C,0,-4.69758,0.28168,
 -2.96218\N,0,-3.47482,-0.5207,-3.05609\H,0,-3.36337,5.72287,-6.86174\H
 ,0,-2.04501,5.68744,-5.90113\H,0,-3.53618,5.59396,-5.24405\H,0,-0.8094
 6,-1.22311,-6.31721\H,0,-2.46937,-0.85841,-6.46493\N,0,-1.5319,-0.5319
 2,-6.33931\C,0,-1.2584,0.76767,-6.20724\C,0,-1.79892,3.08148,-6.08142\
 N,0,-0.53059,3.49104,-5.91402\H,0,1.35257,2.69388,-5.77681\C,0,0.29928
 ,2.4498,-5.90822\N,0,0.02729,1.14744,-6.04035\H,0,-5.0048,3.35027,-6.4
 0123\C,0,-3.97701,2.99531,-6.32\N,0,-3.61619,1.73685,-6.38132\C,0,-2.2
 3757,1.7774,-6.23142\C,0,-2.97158,5.33449,-6.02768\N,0,-2.92806,3.8635
 7,-6.13959\\Version=EM64L-G16RevA.03\State=1-A\HF=-2048.7362647\RMSD=6
 .767e-09\Dipole=-3.6427918,1.9022465,-0.1822683\Quadrupole=37.5162912,
 -5.0057795,-32.5105118,5.4628742,-7.1759369,7.0358869\PG=C01 [X(C23H27
 N17O3)]\\@


 AS FAR AS THE LAWS OF MATHEMATICS REFER TO REALITY,
 THEY ARE NOT CERTAIN; AND AS FAR AS THEY ARE CERTAIN,
 THEY DO NOT REFER TO REALITY.

                                         -- ALBERT EINSTEIN
 Job cpu time:       0 days  5 hours 52 minutes 36.0 seconds.
 Elapsed time:       0 days  0 hours 11 minutes 23.4 seconds.
 File lengths (MBytes):  RWF=    298 Int=      0 D2E=      0 Chk=     33 Scr=      1
 Normal termination of Gaussian 16 at Thu Jan 25 20:04:12 2018.
