 Entering Gaussian System, Link 0=g16
 Input=str55.-5.2.5.com
 Output=str55.-5.2.5.log
 Initial command:
 /share/apps/g16/l1.exe "/state/partition1/scr/Gau-24906.inp" -scrdir="/state/partition1/scr/"
 Entering Link 1 = /share/apps/g16/l1.exe PID=     24907.
  
 Copyright (c) 1988,1990,1992,1993,1995,1998,2003,2009,2016,
            Gaussian, Inc.  All Rights Reserved.
  
 This is part of the Gaussian(R) 16 program.  It is based on
 the Gaussian(R) 09 system (copyright 2009, Gaussian, Inc.),
 the Gaussian(R) 03 system (copyright 2003, Gaussian, Inc.),
 the Gaussian(R) 98 system (copyright 1998, Gaussian, Inc.),
 the Gaussian(R) 94 system (copyright 1995, Gaussian, Inc.),
 the Gaussian 92(TM) system (copyright 1992, Gaussian, Inc.),
 the Gaussian 90(TM) system (copyright 1990, Gaussian, Inc.),
 the Gaussian 88(TM) system (copyright 1988, Gaussian, Inc.),
 the Gaussian 86(TM) system (copyright 1986, Carnegie Mellon
 University), and the Gaussian 82(TM) system (copyright 1983,
 Carnegie Mellon University). Gaussian is a federally registered
 trademark of Gaussian, Inc.
  
 This software contains proprietary and confidential information,
 including trade secrets, belonging to Gaussian, Inc.
  
 This software is provided under written license and may be
 used, copied, transmitted, or stored only in accord with that
 written license.
  
 The following legend is applicable only to US Government
 contracts under FAR:
  
                    RESTRICTED RIGHTS LEGEND
  
 Use, reproduction and disclosure by the US Government is
 subject to restrictions as set forth in subparagraphs (a)
 and (c) of the Commercial Computer Software - Restricted
 Rights clause in FAR 52.227-19.
  
 Gaussian, Inc.
 340 Quinnipiac St., Bldg. 40, Wallingford CT 06492
  
  
 ---------------------------------------------------------------
 Warning -- This program may not be used in any manner that
 competes with the business of Gaussian, Inc. or will provide
 assistance to any competitor of Gaussian, Inc.  The licensee
 of this program is prohibited from giving any competitor of
 Gaussian, Inc. access to this program.  By using this program,
 the user acknowledges that Gaussian, Inc. is engaged in the
 business of creating and licensing software in the field of
 computational chemistry and represents and warrants to the
 licensee that it is not a competitor of Gaussian, Inc. and that
 it will not use this program in any manner prohibited above.
 ---------------------------------------------------------------
  

 Cite this work as:
 Gaussian 16, Revision A.03,
 M. J. Frisch, G. W. Trucks, H. B. Schlegel, G. E. Scuseria, 
 M. A. Robb, J. R. Cheeseman, G. Scalmani, V. Barone, 
 G. A. Petersson, H. Nakatsuji, X. Li, M. Caricato, A. V. Marenich, 
 J. Bloino, B. G. Janesko, R. Gomperts, B. Mennucci, H. P. Hratchian, 
 J. V. Ortiz, A. F. Izmaylov, J. L. Sonnenberg, D. Williams-Young, 
 F. Ding, F. Lipparini, F. Egidi, J. Goings, B. Peng, A. Petrone, 
 T. Henderson, D. Ranasinghe, V. G. Zakrzewski, J. Gao, N. Rega, 
 G. Zheng, W. Liang, M. Hada, M. Ehara, K. Toyota, R. Fukuda, 
 J. Hasegawa, M. Ishida, T. Nakajima, Y. Honda, O. Kitao, H. Nakai, 
 T. Vreven, K. Throssell, J. A. Montgomery, Jr., J. E. Peralta, 
 F. Ogliaro, M. J. Bearpark, J. J. Heyd, E. N. Brothers, K. N. Kudin, 
 V. N. Staroverov, T. A. Keith, R. Kobayashi, J. Normand, 
 K. Raghavachari, A. P. Rendell, J. C. Burant, S. S. Iyengar, 
 J. Tomasi, M. Cossi, J. M. Millam, M. Klene, C. Adamo, R. Cammi, 
 J. W. Ochterski, R. L. Martin, K. Morokuma, O. Farkas, 
 J. B. Foresman, and D. J. Fox, Gaussian, Inc., Wallingford CT, 2016.
 
 ******************************************
 Gaussian 16:  EM64L-G16RevA.03 25-Dec-2016
                26-Jan-2018 
 ******************************************
 %nprocshared=32
 Will use up to   32 processors via shared memory.
 %mem=32GB
 %chk=allatoms_t.chk
 ---------------------------------------
 #p wb97xd/cc-pvdz sp scf=(maxcycles=20)
 ---------------------------------------
 1/38=1,172=1/1;
 2/12=2,17=6,18=5,40=1/2;
 3/5=16,11=2,25=1,30=1,74=-58/1,2,3;
 4//1;
 5/5=2,7=20,38=5/2;
 6/7=2,8=2,9=2,10=2,28=1/1;
 99/5=1,9=1/99;
 Leave Link    1 at Fri Jan 26 17:39:41 2018, MaxMem=  4294967296 cpu:               2.8 elap:               0.1
 (Enter /share/apps/g16/l101.exe)
 ------------------
 Base pair stacking
 ------------------
 Symbolic Z-matrix:
 Charge =  0 Multiplicity = 1
 N                     1.7355   -2.96651  -6.71874 
 C                     3.09977  -2.42394  -6.86844 
 C                    -0.44235  -3.15309  -6.47486 
 N                     0.05317  -4.44729  -6.53999 
 C                     1.34541  -4.28308  -6.68431 
 H                     2.06768  -5.09528  -6.77149 
 N                    -1.89451  -1.30299  -6.29801 
 C                    -0.80655  -0.53471  -6.41497 
 H                    -0.98993   0.53852  -6.38658 
 N                     0.46793  -0.89145  -6.56105 
 C                     0.58279  -2.22962  -6.58363 
 C                    -1.74565  -2.64546  -6.32445 
 N                    -2.83048  -3.41404  -6.20785 
 H                    -2.76736  -4.41256  -6.22216 
 H                    -3.74278  -3.01819  -6.10227 
 H                     3.48976  -2.73351  -7.73576 
 H                     3.0651   -1.42504  -6.85733 
 H                     3.67277  -2.74429  -6.11409 
 N                     1.80655   1.62655  -3.28682 
 C                     0.54219   1.09299  -3.21788 
 C                     2.12256   3.0675   -3.354 
 N                    -2.90205   1.52374  -3.10208 
 H                    -3.71625   0.94627  -3.04875 
 H                    -3.04857   2.51278  -3.13424 
 N                    -0.6146    1.78981  -3.20008 
 C                    -1.66871   0.99643  -3.12929 
 N                    -1.59757  -0.3747   -3.07964 
 H                    -2.4559   -0.90139  -3.02656 
 C                    -0.41823  -1.11277  -3.09673 
 O                    -0.46419  -2.34817  -3.04777 
 C                     0.72277  -0.27418  -3.17258 
 N                     2.07332  -0.59252  -3.21228 
 C                     2.67623   0.56342  -3.2796 
 H                     3.75742   0.69806  -3.32626 
 H                     2.62154   3.26202  -4.19779 
 H                     1.27333   3.59373  -3.3415 
 H                     2.68412   3.32428  -2.56818 
 H                    -7.08944  -2.95772  -3.41973 
 H                    -6.9229   -3.15442  -1.67668 
 H                    -6.15538  -1.78818  -2.48642 
 H                    -4.2215   -6.81632  -3.23859 
 C                    -4.15707  -5.73436  -3.12265 
 O                    -1.79592  -5.66684  -3.34063 
 C                    -2.87543  -5.09982  -3.1735 
 H                    -2.01986  -3.24508  -3.04595 
 N                    -2.90628  -3.72889  -3.01585 
 O                    -3.9412   -1.73361  -2.69181 
 C                    -4.01444  -2.94296  -2.82129 
 H                    -6.254    -5.42854  -2.88779 
 C                    -5.25607  -4.99457  -2.93417 
 C                    -6.42494  -2.82983  -2.57821 
 N                    -5.2131   -3.62783  -2.78404 
 H                    -8.85622   2.415    -5.67074 
 H                    -7.46727   2.27276  -4.82653 
 H                    -8.90336   2.10574  -4.069 
 H                    -6.32616  -4.54732  -6.10708 
 H                    -7.9894   -4.169    -6.08244 
 N                    -7.04228  -3.85828  -5.99512 
 C                    -6.74837  -2.58154  -5.74069 
 C                    -7.25794  -0.29655  -5.31534 
 N                    -5.97702   0.09217  -5.20333 
 H                    -4.09566  -0.71465  -5.30418 
 C                    -5.15801  -0.94287  -5.37894 
 N                    -5.45043  -2.22235  -5.63387 
 H                    -10.47662   0.00515  -5.35056 
 C                    -9.44865  -0.35629  -5.39037 
 N                    -9.10433  -1.59984  -5.61991 
 C                    -7.71791  -1.57581  -5.57508 
 C                    -8.40383   1.93584  -4.91858 
 N                    -8.38155   0.48671  -5.19705 
 
 ITRead=  0  0  0  0  0  0  0  0  0  0  0  0  0  0  0  0  0  0  0  0
 ITRead=  0  0  0  0  0  0  0  0  0  0  0  0  0  0  0  0  0  0  0  0
 ITRead=  0  0  0  0  0  0  0  0  0  0  0  0  0  0  0  0  0  0  0  0
 ITRead=  0  0  0  0  0  0  0  0  0  0
 MicOpt= -1 -1 -1 -1 -1 -1 -1 -1 -1 -1 -1 -1 -1 -1 -1 -1 -1 -1 -1 -1
 MicOpt= -1 -1 -1 -1 -1 -1 -1 -1 -1 -1 -1 -1 -1 -1 -1 -1 -1 -1 -1 -1
 MicOpt= -1 -1 -1 -1 -1 -1 -1 -1 -1 -1 -1 -1 -1 -1 -1 -1 -1 -1 -1 -1
 MicOpt= -1 -1 -1 -1 -1 -1 -1 -1 -1 -1
 NAtoms=     70 NQM=       70 NQMF=       0 NMMI=      0 NMMIF=      0
                NMic=       0 NMicF=      0.
                    Isotopes and Nuclear Properties:
 (Nuclear quadrupole moments (NQMom) in fm**2, nuclear magnetic moments (NMagM)
  in nuclear magnetons)

  Atom         1           2           3           4           5           6           7           8           9          10
 IAtWgt=          14          12          12          14          12           1          14          12           1          14
 AtmWgt=  14.0030740  12.0000000  12.0000000  14.0030740  12.0000000   1.0078250  14.0030740  12.0000000   1.0078250  14.0030740
 NucSpn=           2           0           0           2           0           1           2           0           1           2
 AtZEff=  -0.0000000  -0.0000000  -0.0000000  -0.0000000  -0.0000000  -0.0000000  -0.0000000  -0.0000000  -0.0000000  -0.0000000
 NQMom=    2.0440000   0.0000000   0.0000000   2.0440000   0.0000000   0.0000000   2.0440000   0.0000000   0.0000000   2.0440000
 NMagM=    0.4037610   0.0000000   0.0000000   0.4037610   0.0000000   2.7928460   0.4037610   0.0000000   2.7928460   0.4037610
 AtZNuc=   7.0000000   6.0000000   6.0000000   7.0000000   6.0000000   1.0000000   7.0000000   6.0000000   1.0000000   7.0000000

  Atom        11          12          13          14          15          16          17          18          19          20
 IAtWgt=          12          12          14           1           1           1           1           1          14          12
 AtmWgt=  12.0000000  12.0000000  14.0030740   1.0078250   1.0078250   1.0078250   1.0078250   1.0078250  14.0030740  12.0000000
 NucSpn=           0           0           2           1           1           1           1           1           2           0
 AtZEff=  -0.0000000  -0.0000000  -0.0000000  -0.0000000  -0.0000000  -0.0000000  -0.0000000  -0.0000000  -0.0000000  -0.0000000
 NQMom=    0.0000000   0.0000000   2.0440000   0.0000000   0.0000000   0.0000000   0.0000000   0.0000000   2.0440000   0.0000000
 NMagM=    0.0000000   0.0000000   0.4037610   2.7928460   2.7928460   2.7928460   2.7928460   2.7928460   0.4037610   0.0000000
 AtZNuc=   6.0000000   6.0000000   7.0000000   1.0000000   1.0000000   1.0000000   1.0000000   1.0000000   7.0000000   6.0000000

  Atom        21          22          23          24          25          26          27          28          29          30
 IAtWgt=          12          14           1           1          14          12          14           1          12          16
 AtmWgt=  12.0000000  14.0030740   1.0078250   1.0078250  14.0030740  12.0000000  14.0030740   1.0078250  12.0000000  15.9949146
 NucSpn=           0           2           1           1           2           0           2           1           0           0
 AtZEff=  -0.0000000  -0.0000000  -0.0000000  -0.0000000  -0.0000000  -0.0000000  -0.0000000  -0.0000000  -0.0000000  -0.0000000
 NQMom=    0.0000000   2.0440000   0.0000000   0.0000000   2.0440000   0.0000000   2.0440000   0.0000000   0.0000000   0.0000000
 NMagM=    0.0000000   0.4037610   2.7928460   2.7928460   0.4037610   0.0000000   0.4037610   2.7928460   0.0000000   0.0000000
 AtZNuc=   6.0000000   7.0000000   1.0000000   1.0000000   7.0000000   6.0000000   7.0000000   1.0000000   6.0000000   8.0000000

  Atom        31          32          33          34          35          36          37          38          39          40
 IAtWgt=          12          14          12           1           1           1           1           1           1           1
 AtmWgt=  12.0000000  14.0030740  12.0000000   1.0078250   1.0078250   1.0078250   1.0078250   1.0078250   1.0078250   1.0078250
 NucSpn=           0           2           0           1           1           1           1           1           1           1
 AtZEff=  -0.0000000  -0.0000000  -0.0000000  -0.0000000  -0.0000000  -0.0000000  -0.0000000  -0.0000000  -0.0000000  -0.0000000
 NQMom=    0.0000000   2.0440000   0.0000000   0.0000000   0.0000000   0.0000000   0.0000000   0.0000000   0.0000000   0.0000000
 NMagM=    0.0000000   0.4037610   0.0000000   2.7928460   2.7928460   2.7928460   2.7928460   2.7928460   2.7928460   2.7928460
 AtZNuc=   6.0000000   7.0000000   6.0000000   1.0000000   1.0000000   1.0000000   1.0000000   1.0000000   1.0000000   1.0000000

  Atom        41          42          43          44          45          46          47          48          49          50
 IAtWgt=           1          12          16          12           1          14          16          12           1          12
 AtmWgt=   1.0078250  12.0000000  15.9949146  12.0000000   1.0078250  14.0030740  15.9949146  12.0000000   1.0078250  12.0000000
 NucSpn=           1           0           0           0           1           2           0           0           1           0
 AtZEff=  -0.0000000  -0.0000000  -0.0000000  -0.0000000  -0.0000000  -0.0000000  -0.0000000  -0.0000000  -0.0000000  -0.0000000
 NQMom=    0.0000000   0.0000000   0.0000000   0.0000000   0.0000000   2.0440000   0.0000000   0.0000000   0.0000000   0.0000000
 NMagM=    2.7928460   0.0000000   0.0000000   0.0000000   2.7928460   0.4037610   0.0000000   0.0000000   2.7928460   0.0000000
 AtZNuc=   1.0000000   6.0000000   8.0000000   6.0000000   1.0000000   7.0000000   8.0000000   6.0000000   1.0000000   6.0000000

  Atom        51          52          53          54          55          56          57          58          59          60
 IAtWgt=          12          14           1           1           1           1           1          14          12          12
 AtmWgt=  12.0000000  14.0030740   1.0078250   1.0078250   1.0078250   1.0078250   1.0078250  14.0030740  12.0000000  12.0000000
 NucSpn=           0           2           1           1           1           1           1           2           0           0
 AtZEff=  -0.0000000  -0.0000000  -0.0000000  -0.0000000  -0.0000000  -0.0000000  -0.0000000  -0.0000000  -0.0000000  -0.0000000
 NQMom=    0.0000000   2.0440000   0.0000000   0.0000000   0.0000000   0.0000000   0.0000000   2.0440000   0.0000000   0.0000000
 NMagM=    0.0000000   0.4037610   2.7928460   2.7928460   2.7928460   2.7928460   2.7928460   0.4037610   0.0000000   0.0000000
 AtZNuc=   6.0000000   7.0000000   1.0000000   1.0000000   1.0000000   1.0000000   1.0000000   7.0000000   6.0000000   6.0000000

  Atom        61          62          63          64          65          66          67          68          69          70
 IAtWgt=          14           1          12          14           1          12          14          12          12          14
 AtmWgt=  14.0030740   1.0078250  12.0000000  14.0030740   1.0078250  12.0000000  14.0030740  12.0000000  12.0000000  14.0030740
 NucSpn=           2           1           0           2           1           0           2           0           0           2
 AtZEff=  -0.0000000  -0.0000000  -0.0000000  -0.0000000  -0.0000000  -0.0000000  -0.0000000  -0.0000000  -0.0000000  -0.0000000
 NQMom=    2.0440000   0.0000000   0.0000000   2.0440000   0.0000000   0.0000000   2.0440000   0.0000000   0.0000000   2.0440000
 NMagM=    0.4037610   2.7928460   0.0000000   0.4037610   2.7928460   0.0000000   0.4037610   0.0000000   0.0000000   0.4037610
 AtZNuc=   7.0000000   1.0000000   6.0000000   7.0000000   1.0000000   6.0000000   7.0000000   6.0000000   6.0000000   7.0000000
 Leave Link  101 at Fri Jan 26 17:39:42 2018, MaxMem=  4294967296 cpu:               7.0 elap:               0.2
 (Enter /share/apps/g16/l202.exe)
 Stoichiometry    C23H27N17O3
 Framework group  C1[X(C23H27N17O3)]
 Deg. of freedom   204
 Full point group                 C1      NOp   1
 Largest Abelian subgroup         C1      NOp   1
 Largest concise Abelian subgroup C1      NOp   1
                         Standard orientation:                         
 ---------------------------------------------------------------------
 Center     Atomic      Atomic             Coordinates (Angstroms)
 Number     Number       Type             X           Y           Z
 ---------------------------------------------------------------------
      1          7           0        4.261623   -2.158177   -1.871367
      2          6           0        5.669449   -1.785502   -2.110460
      3          6           0        2.079334   -2.086914   -1.607066
      4          7           0        2.447834   -3.413485   -1.436318
      5          6           0        3.747833   -3.403319   -1.602383
      6          1           0        4.387852   -4.283835   -1.539049
      7          7           0        0.813340   -0.103734   -1.771903
      8          6           0        1.968179    0.522458   -2.020541
      9          1           0        1.888729    1.595977   -2.186381
     10          7           0        3.200629    0.023994   -2.094730
     11          6           0        3.186605   -1.301254   -1.875819
     12          6           0        0.832695   -1.437166   -1.555873
     13          7           0       -0.319062   -2.064019   -1.307523
     14          1           0       -0.351974   -3.050262   -1.141773
     15          1           0       -1.187819   -1.569484   -1.278684
     16          1           0        6.016509   -2.281806   -2.906325
     17          1           0        5.730671   -0.802207   -2.279307
     18          1           0        6.219103   -2.019113   -1.308398
     19          7           0        4.817283    2.947371    0.678915
     20          6           0        3.508693    2.559387    0.837366
     21          6           0        5.268808    4.315560    0.355037
     22          7           0        0.123312    3.334278    0.859340
     23          1           0       -0.741631    2.857060    1.012223
     24          1           0        0.071692    4.310952    0.649232
     25          7           0        2.424227    3.356430    0.724706
     26          6           0        1.300067    2.694115    0.932582
     27          7           0        1.240330    1.353774    1.228288
     28          1           0        0.336318    0.930486    1.371608
     29          6           0        2.343303    0.514297    1.349159
     30          8           0        2.179992   -0.681982    1.619286
     31          6           0        3.558206    1.211581    1.128541
     32          7           0        4.871453    0.762454    1.152411
     33          6           0        5.581262    1.823895    0.880853
     34          1           0        6.669661    1.842998    0.815286
     35          1           0        5.772896    4.306479   -0.507873
     36          1           0        4.474070    4.914957    0.269133
     37          1           0        5.862717    4.653728    1.084224
     38          1           0       -4.477525   -0.706082    1.335161
     39          1           0       -4.307508   -0.602047    3.085852
     40          1           0       -3.423564    0.516216    2.046858
     41          1           0       -1.989823   -4.728066    2.219283
     42          6           0       -1.820628   -3.654211    2.139037
     43          8           0        0.533054   -3.855082    1.922394
     44          6           0       -0.484937   -3.165787    1.980295
     45          1           0        0.545798   -1.409624    1.775827
     46          7           0       -0.382373   -1.792343    1.888713
     47          8           0       -1.217237    0.319110    1.844311
     48          6           0       -1.407570   -0.881043    1.934110
     49          1           0       -3.875378   -3.110300    2.306257
     50          6           0       -2.841203   -2.790058    2.186789
     51          6           0       -3.792753   -0.494045    2.142750
     52          7           0       -2.665665   -1.429190    2.088873
     53          1           0       -5.751737    4.320692   -1.852722
     54          1           0       -4.371716    4.198830   -0.990866
     55          1           0       -5.807042    4.309800   -0.221693
     56          1           0       -3.905501   -2.818097   -1.019294
     57          1           0       -5.524436   -2.282772   -1.070079
     58          7           0       -4.550857   -2.054308   -1.036079
     59          6           0       -4.132783   -0.787060   -1.014156
     60          6           0       -4.415691    1.575502   -1.008790
     61          7           0       -3.102082    1.852545   -0.963126
     62          1           0       -1.308060    0.862982   -0.909335
     63          6           0       -2.388269    0.728662   -0.946300
     64          7           0       -2.805129   -0.541501   -0.968216
     65          1           0       -7.590915    2.175189   -1.111218
     66          6           0       -6.602865    1.714978   -1.081061
     67          7           0       -6.382188    0.423094   -1.081785
     68          6           0       -4.999359    0.320861   -1.036181
     69          6           0       -5.337354    3.942848   -1.024763
     70          7           0       -5.457531    2.471997   -1.038004
 ---------------------------------------------------------------------
 Rotational constants (GHZ):           0.1197229           0.0580158           0.0490601
 Leave Link  202 at Fri Jan 26 17:39:42 2018, MaxMem=  4294967296 cpu:               0.3 elap:               0.0
 (Enter /share/apps/g16/l301.exe)
 Standard basis: CC-pVDZ (5D, 7F)
 Ernie: Thresh=  0.10000D-02 Tol=  0.10000D-05 Strict=F.
 Ernie:  86 primitive shells out of 1081 were deleted.
 There are   780 symmetry adapted cartesian basis functions of A   symmetry.
 There are   737 symmetry adapted basis functions of A   symmetry.
   737 basis functions,  1608 primitive gaussians,   780 cartesian basis functions
   154 alpha electrons      154 beta electrons
       nuclear repulsion energy      5440.5504526071 Hartrees.
 IExCor= 4639 DFT=T Ex+Corr=wB97XD ExCW=0 ScaHFX=  1.000000
 ScaDFX=  1.000000  1.000000  1.000000  1.000000 ScalE2=  1.000000  1.000000
 IRadAn=      5 IRanWt=     -1 IRanGd=            0 ICorTp=0 IEmpDi=121
 HFx  wShort=  0.000000 wLong=  0.200000 cFull=  0.222036 cShort=  0.000000 cLong=  0.777964
 DFx  wShort=  0.000000 wLong=  0.200000 cFull=  0.000000 cShort=  0.000000 cLong=  1.000000
 NAtoms=   70 NActive=   70 NUniq=   70 SFac= 1.00D+00 NAtFMM=   60 NAOKFM=T Big=T
 Integral buffers will be    131072 words long.
 Raffenetti 2 integral format.
 Two-electron integral symmetry is turned on.
 R6Disp:  Grimme-D2 Dispersion energy=       -0.0670812576 Hartrees.
 Nuclear repulsion after empirical dispersion term =     5440.4833713495 Hartrees.
 Leave Link  301 at Fri Jan 26 17:39:42 2018, MaxMem=  4294967296 cpu:               2.1 elap:               0.1
 (Enter /share/apps/g16/l302.exe)
 NPDir=0 NMtPBC=     1 NCelOv=     1 NCel=       1 NClECP=     1 NCelD=      1
         NCelK=      1 NCelE2=     1 NClLst=     1 CellRange=     0.0.
 One-electron integrals computed using PRISM.
 One-electron integral symmetry used in STVInt
 NBasis=   737 RedAO= T EigKep=  7.09D-04  NBF=   737
 NBsUse=   737 1.00D-06 EigRej= -1.00D+00 NBFU=   737
 Precomputing XC quadrature grid using
 IXCGrd= 4 IRadAn=           5 IRanWt=          -1 IRanGd=           0 AccXCQ= 0.00D+00.
 Generated NRdTot=       0 NPtTot=           0 NUsed=           0 NTot=          32
 NSgBfM=   758   758   758   758   758 MxSgAt=    70 MxSgA2=    70.
 Leave Link  302 at Fri Jan 26 17:39:46 2018, MaxMem=  4294967296 cpu:             132.9 elap:               4.2
 (Enter /share/apps/g16/l303.exe)
 DipDrv:  MaxL=1.
 Leave Link  303 at Fri Jan 26 17:39:47 2018, MaxMem=  4294967296 cpu:              12.5 elap:               0.4
 (Enter /share/apps/g16/l401.exe)
 ExpMin= 1.22D-01 ExpMax= 1.17D+04 ExpMxC= 4.01D+02 IAcc=3 IRadAn=         5 AccDes= 0.00D+00
 Harris functional with IExCor= 4639 and IRadAn=       5 diagonalized for initial guess.
 HarFok:  IExCor= 4639 AccDes= 0.00D+00 IRadAn=         5 IDoV= 1 UseB2=F ITyADJ=14
 ICtDFT=  3500011 ScaDFX=  1.000000  1.000000  1.000000  1.000000
 FoFCou: FMM=F IPFlag=           0 FMFlag=      100000 FMFlg1=        2001
         NFxFlg=           0 DoJE=T BraDBF=F KetDBF=T FulRan=T
         wScrn=  0.000000 ICntrl=       500 IOpCl=  0 I1Cent=   200000004 NGrid=           0
         NMat0=    1 NMatS0=      1 NMatT0=    0 NMatD0=    1 NMtDS0=    0 NMtDT0=    0
 Petite list used in FoFCou.
 Harris En= -1963.88812012464    
 JPrj=0 DoOrth=F DoCkMO=F.
 Leave Link  401 at Fri Jan 26 17:39:59 2018, MaxMem=  4294967296 cpu:             393.4 elap:              12.3
 (Enter /share/apps/g16/l502.exe)
 Integral symmetry usage will be decided dynamically.
 Closed shell SCF:
 Using DIIS extrapolation, IDIIS=  1040.
 NGot=  4294967296 LenX=  4293717438 LenY=  4293108258
 Requested convergence on RMS density matrix=1.00D-08 within  20 cycles.
 Requested convergence on MAX density matrix=1.00D-06.
 Requested convergence on             energy=1.00D-06.
 No special actions if energy rises.
 Fock matrices will be formed incrementally for  20 cycles.
 Integral accuracy reduced to 1.0D-05 until final iterations.

 Cycle   1  Pass 0  IDiag  1:
 FoFJK:  IHMeth= 1 ICntrl=       0 DoSepK=T KAlg= 0 I1Cent=           0 FoldK=F
 IRaf=         1 NMat=       1 IRICut=       1 DoRegI=T DoRafI=F ISym2E= 0 IDoP0=0 IntGTp=1.
 FoFCou: FMM=T IPFlag=           0 FMFlag=      100000 FMFlg1=        2001
         NFxFlg=           0 DoJE=T BraDBF=F KetDBF=F FulRan=T
         wScrn=  0.000000 ICntrl=       500 IOpCl=  0 I1Cent=           0 NGrid=           0
         NMat0=    1 NMatS0=      1 NMatT0=    0 NMatD0=    1 NMtDS0=    0 NMtDT0=    0
 Symmetry not used in FoFCou.
 FMM levels:  10  Number of levels for PrismC:   9
 E= -2048.31695722476    
 DIIS: error= 2.68D-02 at cycle   1 NSaved=   1.
 NSaved= 1 IEnMin= 1 EnMin= -2048.31695722476     IErMin= 1 ErrMin= 2.68D-02
 ErrMax= 2.68D-02  0.00D+00 EMaxC= 1.00D-01 BMatC= 8.29D-01 BMatP= 8.29D-01
 IDIUse=3 WtCom= 7.32D-01 WtEn= 2.68D-01
 Coeff-Com:  0.100D+01
 Coeff-En:   0.100D+01
 Coeff:      0.100D+01
 Gap=     0.260 Goal=   None    Shift=    0.000
 GapD=    0.260 DampG=1.000 DampE=0.500 DampFc=0.5000 IDamp=-1.
 Damping current iteration by 5.00D-01
 RMSDP=1.54D-03 MaxDP=1.33D-01              OVMax= 2.12D-01

 Cycle   2  Pass 0  IDiag  1:
 RMSU=  7.67D-04    CP:  9.98D-01
 E= -2048.51522156334     Delta-E=       -0.198264338579 Rises=F Damp=T
 DIIS: error= 1.50D-02 at cycle   2 NSaved=   2.
 NSaved= 2 IEnMin= 2 EnMin= -2048.51522156334     IErMin= 2 ErrMin= 1.50D-02
 ErrMax= 1.50D-02  0.00D+00 EMaxC= 1.00D-01 BMatC= 1.44D-01 BMatP= 8.29D-01
 IDIUse=3 WtCom= 8.50D-01 WtEn= 1.50D-01
 Coeff-Com: -0.208D+00 0.121D+01
 Coeff-En:   0.000D+00 0.100D+01
 Coeff:     -0.177D+00 0.118D+01
 Gap=     0.288 Goal=   None    Shift=    0.000
 RMSDP=5.79D-04 MaxDP=3.61D-02 DE=-1.98D-01 OVMax= 1.60D-01

 Cycle   3  Pass 0  IDiag  1:
 RMSU=  5.61D-04    CP:  9.94D-01  1.18D+00
 E= -2048.69686021819     Delta-E=       -0.181638654844 Rises=F Damp=F
 DIIS: error= 1.05D-02 at cycle   3 NSaved=   3.
 NSaved= 3 IEnMin= 3 EnMin= -2048.69686021819     IErMin= 3 ErrMin= 1.05D-02
 ErrMax= 1.05D-02  0.00D+00 EMaxC= 1.00D-01 BMatC= 5.82D-02 BMatP= 1.44D-01
 IDIUse=3 WtCom= 8.95D-01 WtEn= 1.05D-01
 Coeff-Com: -0.229D+00 0.541D+00 0.688D+00
 Coeff-En:   0.000D+00 0.000D+00 0.100D+01
 Coeff:     -0.205D+00 0.484D+00 0.721D+00
 Gap=     0.285 Goal=   None    Shift=    0.000
 RMSDP=3.39D-04 MaxDP=3.69D-02 DE=-1.82D-01 OVMax= 7.01D-02

 Cycle   4  Pass 0  IDiag  1:
 RMSU=  1.95D-04    CP:  9.94D-01  1.45D+00  6.75D-01
 E= -2048.73926751194     Delta-E=       -0.042407293759 Rises=F Damp=F
 DIIS: error= 4.65D-03 at cycle   4 NSaved=   4.
 NSaved= 4 IEnMin= 4 EnMin= -2048.73926751194     IErMin= 4 ErrMin= 4.65D-03
 ErrMax= 4.65D-03  0.00D+00 EMaxC= 1.00D-01 BMatC= 9.67D-03 BMatP= 5.82D-02
 IDIUse=3 WtCom= 9.54D-01 WtEn= 4.65D-02
 Coeff-Com: -0.903D-01 0.174D+00 0.388D+00 0.528D+00
 Coeff-En:   0.000D+00 0.000D+00 0.875D-01 0.913D+00
 Coeff:     -0.861D-01 0.166D+00 0.374D+00 0.546D+00
 Gap=     0.287 Goal=   None    Shift=    0.000
 RMSDP=1.27D-04 MaxDP=1.46D-02 DE=-4.24D-02 OVMax= 1.80D-02

 Cycle   5  Pass 0  IDiag  1:
 RMSU=  6.20D-05    CP:  9.94D-01  1.42D+00  8.16D-01  6.22D-01
 E= -2048.74685859650     Delta-E=       -0.007591084551 Rises=F Damp=F
 DIIS: error= 7.50D-04 at cycle   5 NSaved=   5.
 NSaved= 5 IEnMin= 5 EnMin= -2048.74685859650     IErMin= 5 ErrMin= 7.50D-04
 ErrMax= 7.50D-04  0.00D+00 EMaxC= 1.00D-01 BMatC= 3.29D-04 BMatP= 9.67D-03
 IDIUse=3 WtCom= 9.92D-01 WtEn= 7.50D-03
 Coeff-Com: -0.230D-01 0.390D-01 0.128D+00 0.251D+00 0.605D+00
 Coeff-En:   0.000D+00 0.000D+00 0.000D+00 0.000D+00 0.100D+01
 Coeff:     -0.228D-01 0.387D-01 0.127D+00 0.249D+00 0.608D+00
 Gap=     0.286 Goal=   None    Shift=    0.000
 RMSDP=2.53D-05 MaxDP=3.06D-03 DE=-7.59D-03 OVMax= 4.45D-03

 Failed to achieve initial convergence to 1.0D-08 in  6 cycles.
 Switch to full accuracy anyway.
 Cycle   6  Pass 1  IDiag  1:
 E= -2048.74714308185     Delta-E=       -0.000284485357 Rises=F Damp=F
 DIIS: error= 2.18D-04 at cycle   1 NSaved=   1.
 NSaved= 1 IEnMin= 1 EnMin= -2048.74714308185     IErMin= 1 ErrMin= 2.18D-04
 ErrMax= 2.18D-04  0.00D+00 EMaxC= 1.00D-01 BMatC= 7.47D-05 BMatP= 7.47D-05
 IDIUse=3 WtCom= 9.98D-01 WtEn= 2.18D-03
 Coeff-Com:  0.100D+01
 Coeff-En:   0.100D+01
 Coeff:      0.100D+01
 Gap=     0.286 Goal=   None    Shift=    0.000
 RMSDP=2.53D-05 MaxDP=3.06D-03 DE=-2.84D-04 OVMax= 2.25D-03

 Cycle   7  Pass 1  IDiag  1:
 RMSU=  1.08D-04    CP:  1.00D+00
 E= -2048.74719059757     Delta-E=       -0.000047515716 Rises=F Damp=F
 DIIS: error= 3.29D-04 at cycle   2 NSaved=   2.
 NSaved= 2 IEnMin= 2 EnMin= -2048.74719059757     IErMin= 1 ErrMin= 2.18D-04
 ErrMax= 3.29D-04  0.00D+00 EMaxC= 1.00D-01 BMatC= 5.34D-05 BMatP= 7.47D-05
 IDIUse=3 WtCom= 9.97D-01 WtEn= 3.29D-03
 Coeff-Com:  0.445D+00 0.555D+00
 Coeff-En:   0.919D-01 0.908D+00
 Coeff:      0.444D+00 0.556D+00
 Gap=     0.286 Goal=   None    Shift=    0.000
 RMSDP=1.11D-05 MaxDP=1.67D-03 DE=-4.75D-05 OVMax= 1.90D-03

 Cycle   8  Pass 1  IDiag  1:
 RMSU=  1.08D-05    CP:  1.00D+00  1.02D+00
 E= -2048.74722794694     Delta-E=       -0.000037349374 Rises=F Damp=F
 DIIS: error= 1.51D-04 at cycle   3 NSaved=   3.
 NSaved= 3 IEnMin= 3 EnMin= -2048.74722794694     IErMin= 3 ErrMin= 1.51D-04
 ErrMax= 1.51D-04  0.00D+00 EMaxC= 1.00D-01 BMatC= 9.77D-06 BMatP= 5.34D-05
 IDIUse=3 WtCom= 9.98D-01 WtEn= 1.51D-03
 Coeff-Com: -0.191D-01 0.285D+00 0.734D+00
 Coeff-En:   0.000D+00 0.975D-01 0.902D+00
 Coeff:     -0.190D-01 0.285D+00 0.734D+00
 Gap=     0.286 Goal=   None    Shift=    0.000
 RMSDP=5.51D-06 MaxDP=5.64D-04 DE=-3.73D-05 OVMax= 5.48D-04

 Cycle   9  Pass 1  IDiag  1:
 RMSU=  3.77D-06    CP:  1.00D+00  1.05D+00  7.82D-01
 E= -2048.74723659875     Delta-E=       -0.000008651803 Rises=F Damp=F
 DIIS: error= 3.58D-05 at cycle   4 NSaved=   4.
 NSaved= 4 IEnMin= 4 EnMin= -2048.74723659875     IErMin= 4 ErrMin= 3.58D-05
 ErrMax= 3.58D-05  0.00D+00 EMaxC= 1.00D-01 BMatC= 4.48D-07 BMatP= 9.77D-06
 IDIUse=1 WtCom= 1.00D+00 WtEn= 0.00D+00
 Coeff-Com: -0.320D-01 0.759D-01 0.258D+00 0.698D+00
 Coeff:     -0.320D-01 0.759D-01 0.258D+00 0.698D+00
 Gap=     0.286 Goal=   None    Shift=    0.000
 RMSDP=1.38D-06 MaxDP=1.37D-04 DE=-8.65D-06 OVMax= 4.99D-04

 Cycle  10  Pass 1  IDiag  1:
 RMSU=  1.21D-06    CP:  1.00D+00  1.06D+00  8.10D-01  1.12D+00
 E= -2048.74723736716     Delta-E=       -0.000000768411 Rises=F Damp=F
 DIIS: error= 1.27D-05 at cycle   5 NSaved=   5.
 NSaved= 5 IEnMin= 5 EnMin= -2048.74723736716     IErMin= 5 ErrMin= 1.27D-05
 ErrMax= 1.27D-05  0.00D+00 EMaxC= 1.00D-01 BMatC= 1.01D-07 BMatP= 4.48D-07
 IDIUse=1 WtCom= 1.00D+00 WtEn= 0.00D+00
 Coeff-Com: -0.263D-02-0.484D-01-0.127D+00 0.180D+00 0.998D+00
 Coeff:     -0.263D-02-0.484D-01-0.127D+00 0.180D+00 0.998D+00
 Gap=     0.286 Goal=   None    Shift=    0.000
 RMSDP=1.15D-06 MaxDP=7.28D-05 DE=-7.68D-07 OVMax= 2.40D-04

 Cycle  11  Pass 1  IDiag  1:
 RMSU=  4.63D-07    CP:  1.00D+00  1.06D+00  8.13D-01  1.39D+00  1.18D+00
 E= -2048.74723759017     Delta-E=       -0.000000223014 Rises=F Damp=F
 DIIS: error= 1.05D-05 at cycle   6 NSaved=   6.
 NSaved= 6 IEnMin= 6 EnMin= -2048.74723759017     IErMin= 6 ErrMin= 1.05D-05
 ErrMax= 1.05D-05  0.00D+00 EMaxC= 1.00D-01 BMatC= 2.71D-08 BMatP= 1.01D-07
 IDIUse=1 WtCom= 1.00D+00 WtEn= 0.00D+00
 Coeff-Com:  0.459D-02-0.382D-01-0.114D+00-0.905D-02 0.541D+00 0.616D+00
 Coeff:      0.459D-02-0.382D-01-0.114D+00-0.905D-02 0.541D+00 0.616D+00
 Gap=     0.286 Goal=   None    Shift=    0.000
 RMSDP=3.35D-07 MaxDP=3.64D-05 DE=-2.23D-07 OVMax= 1.20D-04

 Cycle  12  Pass 1  IDiag  1:
 RMSU=  1.79D-07    CP:  1.00D+00  1.06D+00  8.14D-01  1.45D+00  1.31D+00
                    CP:  9.04D-01
 E= -2048.74723762692     Delta-E=       -0.000000036749 Rises=F Damp=F
 DIIS: error= 1.22D-06 at cycle   7 NSaved=   7.
 NSaved= 7 IEnMin= 7 EnMin= -2048.74723762692     IErMin= 7 ErrMin= 1.22D-06
 ErrMax= 1.22D-06  0.00D+00 EMaxC= 1.00D-01 BMatC= 7.83D-10 BMatP= 2.71D-08
 IDIUse=1 WtCom= 1.00D+00 WtEn= 0.00D+00
 Coeff-Com:  0.112D-02-0.627D-02-0.210D-01-0.862D-02 0.634D-01 0.143D+00
 Coeff-Com:  0.829D+00
 Coeff:      0.112D-02-0.627D-02-0.210D-01-0.862D-02 0.634D-01 0.143D+00
 Coeff:      0.829D+00
 Gap=     0.286 Goal=   None    Shift=    0.000
 RMSDP=7.84D-08 MaxDP=5.25D-06 DE=-3.67D-08 OVMax= 2.24D-05

 Cycle  13  Pass 1  IDiag  1:
 RMSU=  4.89D-08    CP:  1.00D+00  1.06D+00  8.13D-01  1.46D+00  1.33D+00
                    CP:  9.91D-01  1.12D+00
 E= -2048.74723762857     Delta-E=       -0.000000001648 Rises=F Damp=F
 DIIS: error= 5.59D-07 at cycle   8 NSaved=   8.
 NSaved= 8 IEnMin= 8 EnMin= -2048.74723762857     IErMin= 8 ErrMin= 5.59D-07
 ErrMax= 5.59D-07  0.00D+00 EMaxC= 1.00D-01 BMatC= 2.90D-10 BMatP= 7.83D-10
 IDIUse=1 WtCom= 1.00D+00 WtEn= 0.00D+00
 Coeff-Com: -0.707D-03 0.755D-02 0.209D-01 0.379D-04-0.118D+00-0.959D-01
 Coeff-Com:  0.403D+00 0.784D+00
 Coeff:     -0.707D-03 0.755D-02 0.209D-01 0.379D-04-0.118D+00-0.959D-01
 Coeff:      0.403D+00 0.784D+00
 Gap=     0.286 Goal=   None    Shift=    0.000
 RMSDP=4.71D-08 MaxDP=2.89D-06 DE=-1.65D-09 OVMax= 1.19D-05

 Cycle  14  Pass 1  IDiag  1:
 RMSU=  2.61D-08    CP:  1.00D+00  1.06D+00  8.13D-01  1.46D+00  1.33D+00
                    CP:  1.04D+00  1.28D+00  1.10D+00
 E= -2048.74723762931     Delta-E=       -0.000000000740 Rises=F Damp=F
 DIIS: error= 2.28D-07 at cycle   9 NSaved=   9.
 NSaved= 9 IEnMin= 9 EnMin= -2048.74723762931     IErMin= 9 ErrMin= 2.28D-07
 ErrMax= 2.28D-07  0.00D+00 EMaxC= 1.00D-01 BMatC= 2.77D-11 BMatP= 2.90D-10
 IDIUse=1 WtCom= 1.00D+00 WtEn= 0.00D+00
 Coeff-Com: -0.415D-03 0.385D-02 0.110D-01 0.133D-02-0.551D-01-0.544D-01
 Coeff-Com:  0.797D-01 0.312D+00 0.702D+00
 Coeff:     -0.415D-03 0.385D-02 0.110D-01 0.133D-02-0.551D-01-0.544D-01
 Coeff:      0.797D-01 0.312D+00 0.702D+00
 Gap=     0.286 Goal=   None    Shift=    0.000
 RMSDP=1.25D-08 MaxDP=7.98D-07 DE=-7.40D-10 OVMax= 3.38D-06

 Cycle  15  Pass 1  IDiag  1:
 RMSU=  8.62D-09    CP:  1.00D+00  1.06D+00  8.13D-01  1.46D+00  1.33D+00
                    CP:  1.04D+00  1.30D+00  1.24D+00  1.11D+00
 E= -2048.74723762900     Delta-E=        0.000000000307 Rises=F Damp=F
 DIIS: error= 5.87D-08 at cycle  10 NSaved=  10.
 NSaved=10 IEnMin= 9 EnMin= -2048.74723762931     IErMin=10 ErrMin= 5.87D-08
 ErrMax= 5.87D-08  0.00D+00 EMaxC= 1.00D-01 BMatC= 4.70D-12 BMatP= 2.77D-11
 IDIUse=1 WtCom= 1.00D+00 WtEn= 0.00D+00
 Coeff-Com:  0.109D-04-0.337D-03-0.787D-03 0.896D-04 0.639D-02 0.192D-02
 Coeff-Com: -0.577D-01-0.636D-01 0.260D+00 0.854D+00
 Coeff:      0.109D-04-0.337D-03-0.787D-03 0.896D-04 0.639D-02 0.192D-02
 Coeff:     -0.577D-01-0.636D-01 0.260D+00 0.854D+00
 Gap=     0.286 Goal=   None    Shift=    0.000
 RMSDP=6.65D-09 MaxDP=3.82D-07 DE= 3.07D-10 OVMax= 1.52D-06

 SCF Done:  E(RwB97XD) =  -2048.74723763     A.U. after   15 cycles
            NFock= 15  Conv=0.66D-08     -V/T= 2.0054
 KE= 2.037675796789D+03 PE=-1.566165866860D+04 EE= 6.134752262830D+03
 Leave Link  502 at Fri Jan 26 17:50:49 2018, MaxMem=  4294967296 cpu:           20123.1 elap:             650.5
 (Enter /share/apps/g16/l601.exe)
 Copying SCF densities to generalized density rwf, IOpCl= 0 IROHF=0.

 **********************************************************************

            Population analysis using the SCF density.

 **********************************************************************

 Orbital symmetries:
       Occupied  (A) (A) (A) (A) (A) (A) (A) (A) (A) (A) (A) (A)
                 (A) (A) (A) (A) (A) (A) (A) (A) (A) (A) (A) (A)
                 (A) (A) (A) (A) (A) (A) (A) (A) (A) (A) (A) (A)
                 (A) (A) (A) (A) (A) (A) (A) (A) (A) (A) (A) (A)
                 (A) (A) (A) (A) (A) (A) (A) (A) (A) (A) (A) (A)
                 (A) (A) (A) (A) (A) (A) (A) (A) (A) (A) (A) (A)
                 (A) (A) (A) (A) (A) (A) (A) (A) (A) (A) (A) (A)
                 (A) (A) (A) (A) (A) (A) (A) (A) (A) (A) (A) (A)
                 (A) (A) (A) (A) (A) (A) (A) (A) (A) (A) (A) (A)
                 (A) (A) (A) (A) (A) (A) (A) (A) (A) (A) (A) (A)
                 (A) (A) (A) (A) (A) (A) (A) (A) (A) (A) (A) (A)
                 (A) (A) (A) (A) (A) (A) (A) (A) (A) (A) (A) (A)
                 (A) (A) (A) (A) (A) (A) (A) (A) (A) (A)
       Virtual   (A) (A) (A) (A) (A) (A) (A) (A) (A) (A) (A) (A)
                 (A) (A) (A) (A) (A) (A) (A) (A) (A) (A) (A) (A)
                 (A) (A) (A) (A) (A) (A) (A) (A) (A) (A) (A) (A)
                 (A) (A) (A) (A) (A) (A) (A) (A) (A) (A) (A) (A)
                 (A) (A) (A) (A) (A) (A) (A) (A) (A) (A) (A) (A)
                 (A) (A) (A) (A) (A) (A) (A) (A) (A) (A) (A) (A)
                 (A) (A) (A) (A) (A) (A) (A) (A) (A) (A) (A) (A)
                 (A) (A) (A) (A) (A) (A) (A) (A) (A) (A) (A) (A)
                 (A) (A) (A) (A) (A) (A) (A) (A) (A) (A) (A) (A)
                 (A) (A) (A) (A) (A) (A) (A) (A) (A) (A) (A) (A)
                 (A) (A) (A) (A) (A) (A) (A) (A) (A) (A) (A) (A)
                 (A) (A) (A) (A) (A) (A) (A) (A) (A) (A) (A) (A)
                 (A) (A) (A) (A) (A) (A) (A) (A) (A) (A) (A) (A)
                 (A) (A) (A) (A) (A) (A) (A) (A) (A) (A) (A) (A)
                 (A) (A) (A) (A) (A) (A) (A) (A) (A) (A) (A) (A)
                 (A) (A) (A) (A) (A) (A) (A) (A) (A) (A) (A) (A)
                 (A) (A) (A) (A) (A) (A) (A) (A) (A) (A) (A) (A)
                 (A) (A) (A) (A) (A) (A) (A) (A) (A) (A) (A) (A)
                 (A) (A) (A) (A) (A) (A) (A) (A) (A) (A) (A) (A)
                 (A) (A) (A) (A) (A) (A) (A) (A) (A) (A) (A) (A)
                 (A) (A) (A) (A) (A) (A) (A) (A) (A) (A) (A) (A)
                 (A) (A) (A) (A) (A) (A) (A) (A) (A) (A) (A) (A)
                 (A) (A) (A) (A) (A) (A) (A) (A) (A) (A) (A) (A)
                 (A) (A) (A) (A) (A) (A) (A) (A) (A) (A) (A) (A)
                 (A) (A) (A) (A) (A) (A) (A) (A) (A) (A) (A) (A)
                 (A) (A) (A) (A) (A) (A) (A) (A) (A) (A) (A) (A)
                 (A) (A) (A) (A) (A) (A) (A) (A) (A) (A) (A) (A)
                 (A) (A) (A) (A) (A) (A) (A) (A) (A) (A) (A) (A)
                 (A) (A) (A) (A) (A) (A) (A) (A) (A) (A) (A) (A)
                 (A) (A) (A) (A) (A) (A) (A) (A) (A) (A) (A) (A)
                 (A) (A) (A) (A) (A) (A) (A) (A) (A) (A) (A) (A)
                 (A) (A) (A) (A) (A) (A) (A) (A) (A) (A) (A) (A)
                 (A) (A) (A) (A) (A) (A) (A) (A) (A) (A) (A) (A)
                 (A) (A) (A) (A) (A) (A) (A) (A) (A) (A) (A) (A)
                 (A) (A) (A) (A) (A) (A) (A) (A) (A) (A) (A) (A)
                 (A) (A) (A) (A) (A) (A) (A) (A) (A) (A) (A) (A)
                 (A) (A) (A) (A) (A) (A) (A) (A) (A) (A) (A) (A)
                 (A) (A) (A) (A) (A) (A) (A) (A) (A) (A) (A) (A)
                 (A) (A) (A) (A) (A) (A) (A) (A) (A) (A) (A) (A)
                 (A) (A) (A) (A) (A) (A) (A) (A) (A) (A) (A) (A)
                 (A) (A) (A) (A) (A) (A) (A) (A) (A) (A) (A) (A)
                 (A) (A) (A) (A) (A) (A) (A) (A) (A) (A) (A) (A)
                 (A) (A) (A) (A) (A) (A) (A) (A) (A) (A) (A) (A)
                 (A) (A) (A) (A) (A) (A) (A) (A) (A) (A) (A) (A)
                 (A) (A) (A) (A) (A) (A) (A) (A) (A) (A) (A) (A)
                 (A) (A) (A) (A) (A) (A) (A) (A) (A) (A) (A) (A)
                 (A) (A) (A) (A) (A) (A) (A) (A) (A) (A) (A) (A)
                 (A) (A) (A) (A) (A) (A) (A) (A) (A) (A) (A) (A)
                 (A) (A) (A) (A) (A) (A) (A)
 The electronic state is 1-A.
 Alpha  occ. eigenvalues --  -19.25173 -19.21232 -19.20519 -14.52621 -14.51753
 Alpha  occ. eigenvalues --  -14.49209 -14.48872 -14.48112 -14.47077 -14.46658
 Alpha  occ. eigenvalues --  -14.46436 -14.45554 -14.45044 -14.44934 -14.43067
 Alpha  occ. eigenvalues --  -14.41972 -14.41048 -14.40836 -14.40829 -14.40512
 Alpha  occ. eigenvalues --  -10.44756 -10.41098 -10.40631 -10.39350 -10.38135
 Alpha  occ. eigenvalues --  -10.38117 -10.37602 -10.37341 -10.36381 -10.35670
 Alpha  occ. eigenvalues --  -10.34350 -10.34330 -10.33989 -10.33566 -10.33475
 Alpha  occ. eigenvalues --  -10.33088 -10.33015 -10.32974 -10.31054 -10.30654
 Alpha  occ. eigenvalues --  -10.30006 -10.28330 -10.28096  -1.18730  -1.15427
 Alpha  occ. eigenvalues --   -1.13093  -1.12249  -1.10808  -1.10601  -1.10003
 Alpha  occ. eigenvalues --   -1.08647  -1.08424  -1.05509  -1.05164  -1.01726
 Alpha  occ. eigenvalues --   -1.01218  -1.00671  -0.99554  -0.98473  -0.97504
 Alpha  occ. eigenvalues --   -0.96638  -0.96504  -0.92851  -0.90513  -0.87988
 Alpha  occ. eigenvalues --   -0.86121  -0.84142  -0.83506  -0.82935  -0.82539
 Alpha  occ. eigenvalues --   -0.81761  -0.78274  -0.77511  -0.75327  -0.74581
 Alpha  occ. eigenvalues --   -0.73475  -0.72844  -0.72666  -0.70990  -0.70831
 Alpha  occ. eigenvalues --   -0.67366  -0.67242  -0.66238  -0.65926  -0.64710
 Alpha  occ. eigenvalues --   -0.64243  -0.63409  -0.62715  -0.62474  -0.61647
 Alpha  occ. eigenvalues --   -0.60989  -0.60659  -0.60089  -0.59774  -0.59088
 Alpha  occ. eigenvalues --   -0.58997  -0.58160  -0.56747  -0.56490  -0.55743
 Alpha  occ. eigenvalues --   -0.55565  -0.55537  -0.55473  -0.54973  -0.54035
 Alpha  occ. eigenvalues --   -0.53935  -0.53534  -0.53285  -0.53129  -0.52867
 Alpha  occ. eigenvalues --   -0.52381  -0.51836  -0.51279  -0.50393  -0.50295
 Alpha  occ. eigenvalues --   -0.50058  -0.49847  -0.49418  -0.48949  -0.48747
 Alpha  occ. eigenvalues --   -0.48661  -0.47965  -0.47777  -0.47632  -0.47046
 Alpha  occ. eigenvalues --   -0.46653  -0.45599  -0.45410  -0.44682  -0.43361
 Alpha  occ. eigenvalues --   -0.41173  -0.41052  -0.38906  -0.38197  -0.38012
 Alpha  occ. eigenvalues --   -0.37304  -0.37208  -0.36804  -0.35368  -0.35152
 Alpha  occ. eigenvalues --   -0.34961  -0.33965  -0.33354  -0.33224  -0.32836
 Alpha  occ. eigenvalues --   -0.32539  -0.32303  -0.31815  -0.31266  -0.30670
 Alpha  occ. eigenvalues --   -0.30533  -0.30299  -0.26162  -0.25149
 Alpha virt. eigenvalues --    0.03489   0.03699   0.06556   0.08058   0.09016
 Alpha virt. eigenvalues --    0.09338   0.09833   0.10303   0.10969   0.11358
 Alpha virt. eigenvalues --    0.13632   0.14522   0.14645   0.14731   0.14834
 Alpha virt. eigenvalues --    0.15717   0.16562   0.17004   0.17108   0.17728
 Alpha virt. eigenvalues --    0.19036   0.19706   0.19926   0.20115   0.20503
 Alpha virt. eigenvalues --    0.20640   0.20935   0.21040   0.21434   0.21761
 Alpha virt. eigenvalues --    0.21929   0.22802   0.23560   0.23754   0.23887
 Alpha virt. eigenvalues --    0.24347   0.24424   0.24569   0.24790   0.24904
 Alpha virt. eigenvalues --    0.25548   0.25915   0.27410   0.27676   0.28326
 Alpha virt. eigenvalues --    0.28646   0.29102   0.29852   0.30408   0.31004
 Alpha virt. eigenvalues --    0.31494   0.32155   0.32483   0.33165   0.33334
 Alpha virt. eigenvalues --    0.33917   0.34584   0.35047   0.35581   0.36415
 Alpha virt. eigenvalues --    0.36795   0.37022   0.37932   0.38676   0.39301
 Alpha virt. eigenvalues --    0.39471   0.40519   0.41049   0.41355   0.41575
 Alpha virt. eigenvalues --    0.42175   0.42531   0.42931   0.44033   0.44186
 Alpha virt. eigenvalues --    0.44721   0.45641   0.45942   0.46078   0.47030
 Alpha virt. eigenvalues --    0.47499   0.47771   0.48379   0.48884   0.49183
 Alpha virt. eigenvalues --    0.49683   0.50296   0.50455   0.51046   0.51384
 Alpha virt. eigenvalues --    0.51694   0.51951   0.52737   0.52856   0.53255
 Alpha virt. eigenvalues --    0.53595   0.54073   0.54432   0.55118   0.55449
 Alpha virt. eigenvalues --    0.55859   0.56273   0.56409   0.56865   0.57160
 Alpha virt. eigenvalues --    0.57622   0.58087   0.58717   0.59032   0.59215
 Alpha virt. eigenvalues --    0.59842   0.60321   0.60447   0.60751   0.61172
 Alpha virt. eigenvalues --    0.61384   0.61526   0.61703   0.62431   0.62573
 Alpha virt. eigenvalues --    0.62873   0.63770   0.64285   0.64718   0.65241
 Alpha virt. eigenvalues --    0.65310   0.66097   0.66328   0.66695   0.66986
 Alpha virt. eigenvalues --    0.67405   0.67781   0.69025   0.69333   0.69435
 Alpha virt. eigenvalues --    0.69528   0.69954   0.70590   0.70719   0.71033
 Alpha virt. eigenvalues --    0.71656   0.72106   0.72581   0.73037   0.73682
 Alpha virt. eigenvalues --    0.73937   0.74284   0.74821   0.75059   0.75121
 Alpha virt. eigenvalues --    0.75816   0.76212   0.76300   0.76828   0.76968
 Alpha virt. eigenvalues --    0.77182   0.77513   0.77960   0.78374   0.78762
 Alpha virt. eigenvalues --    0.79619   0.79816   0.80065   0.80369   0.80850
 Alpha virt. eigenvalues --    0.81090   0.81524   0.81877   0.82269   0.82358
 Alpha virt. eigenvalues --    0.82901   0.83625   0.84461   0.84643   0.85131
 Alpha virt. eigenvalues --    0.85785   0.86026   0.86799   0.87202   0.87440
 Alpha virt. eigenvalues --    0.87596   0.88074   0.88788   0.89270   0.89489
 Alpha virt. eigenvalues --    0.89689   0.90367   0.91603   0.92004   0.92215
 Alpha virt. eigenvalues --    0.92403   0.93065   0.93464   0.93909   0.94159
 Alpha virt. eigenvalues --    0.94451   0.94828   0.95214   0.95505   0.96369
 Alpha virt. eigenvalues --    0.96849   0.97197   0.97523   0.97872   0.98348
 Alpha virt. eigenvalues --    0.99031   0.99275   0.99623   1.00221   1.00575
 Alpha virt. eigenvalues --    1.00923   1.01151   1.01531   1.01948   1.02603
 Alpha virt. eigenvalues --    1.02650   1.03080   1.03676   1.04566   1.05146
 Alpha virt. eigenvalues --    1.05278   1.05546   1.06388   1.06894   1.06943
 Alpha virt. eigenvalues --    1.07226   1.07579   1.09231   1.09536   1.10120
 Alpha virt. eigenvalues --    1.10793   1.11612   1.12219   1.12737   1.13210
 Alpha virt. eigenvalues --    1.13541   1.14211   1.14473   1.14796   1.15458
 Alpha virt. eigenvalues --    1.15536   1.16007   1.16269   1.16664   1.16967
 Alpha virt. eigenvalues --    1.17166   1.17656   1.18014   1.19012   1.19609
 Alpha virt. eigenvalues --    1.19698   1.19872   1.20056   1.20405   1.20568
 Alpha virt. eigenvalues --    1.20903   1.21528   1.21743   1.22632   1.22879
 Alpha virt. eigenvalues --    1.23054   1.23357   1.23862   1.24214   1.24435
 Alpha virt. eigenvalues --    1.24768   1.25239   1.26274   1.26486   1.27404
 Alpha virt. eigenvalues --    1.27777   1.27814   1.28866   1.29062   1.29229
 Alpha virt. eigenvalues --    1.30337   1.31466   1.32487   1.32898   1.33290
 Alpha virt. eigenvalues --    1.33875   1.34375   1.34665   1.35373   1.35959
 Alpha virt. eigenvalues --    1.37154   1.37580   1.37926   1.38182   1.39848
 Alpha virt. eigenvalues --    1.40694   1.41400   1.42088   1.42409   1.44232
 Alpha virt. eigenvalues --    1.44355   1.45550   1.46191   1.46754   1.47074
 Alpha virt. eigenvalues --    1.47919   1.49324   1.49668   1.50002   1.50506
 Alpha virt. eigenvalues --    1.51282   1.52260   1.52775   1.53137   1.53515
 Alpha virt. eigenvalues --    1.54707   1.55870   1.55985   1.57164   1.57516
 Alpha virt. eigenvalues --    1.58141   1.58484   1.58945   1.59558   1.59921
 Alpha virt. eigenvalues --    1.60860   1.61617   1.62174   1.62919   1.63439
 Alpha virt. eigenvalues --    1.63589   1.63824   1.64346   1.65404   1.66254
 Alpha virt. eigenvalues --    1.66450   1.67184   1.67636   1.67997   1.68314
 Alpha virt. eigenvalues --    1.69169   1.69273   1.70263   1.70440   1.71111
 Alpha virt. eigenvalues --    1.71654   1.71834   1.72431   1.73075   1.73420
 Alpha virt. eigenvalues --    1.73525   1.73978   1.74535   1.74989   1.75403
 Alpha virt. eigenvalues --    1.75684   1.75810   1.76366   1.76718   1.77151
 Alpha virt. eigenvalues --    1.77308   1.77465   1.77601   1.78065   1.78542
 Alpha virt. eigenvalues --    1.78719   1.79017   1.79649   1.79875   1.79997
 Alpha virt. eigenvalues --    1.80313   1.80631   1.81248   1.81553   1.81604
 Alpha virt. eigenvalues --    1.81915   1.82667   1.82816   1.83605   1.84469
 Alpha virt. eigenvalues --    1.84815   1.85567   1.85716   1.86139   1.86535
 Alpha virt. eigenvalues --    1.86890   1.87388   1.87740   1.88172   1.88568
 Alpha virt. eigenvalues --    1.88813   1.89128   1.89544   1.90666   1.90891
 Alpha virt. eigenvalues --    1.91682   1.92155   1.92761   1.92863   1.93176
 Alpha virt. eigenvalues --    1.94168   1.94809   1.95030   1.95511   1.97089
 Alpha virt. eigenvalues --    1.97685   1.98487   1.99274   1.99793   2.00181
 Alpha virt. eigenvalues --    2.00984   2.01303   2.02239   2.02766   2.03239
 Alpha virt. eigenvalues --    2.04565   2.04758   2.05168   2.05281   2.05974
 Alpha virt. eigenvalues --    2.07138   2.07997   2.08557   2.08730   2.09373
 Alpha virt. eigenvalues --    2.09651   2.10063   2.11147   2.11710   2.11952
 Alpha virt. eigenvalues --    2.12461   2.13674   2.14480   2.15872   2.15974
 Alpha virt. eigenvalues --    2.17074   2.17724   2.19793   2.20703   2.20750
 Alpha virt. eigenvalues --    2.21058   2.22170   2.22805   2.23324   2.23679
 Alpha virt. eigenvalues --    2.23886   2.24374   2.24790   2.25908   2.25988
 Alpha virt. eigenvalues --    2.26901   2.27342   2.27984   2.29159   2.29775
 Alpha virt. eigenvalues --    2.30033   2.30429   2.31360   2.31615   2.31996
 Alpha virt. eigenvalues --    2.32717   2.32979   2.33595   2.34385   2.34575
 Alpha virt. eigenvalues --    2.34816   2.35380   2.36037   2.36617   2.36929
 Alpha virt. eigenvalues --    2.37216   2.38663   2.38880   2.39205   2.40790
 Alpha virt. eigenvalues --    2.41765   2.42237   2.42949   2.43153   2.44037
 Alpha virt. eigenvalues --    2.44320   2.44975   2.45111   2.45285   2.46322
 Alpha virt. eigenvalues --    2.46805   2.48877   2.49530   2.50554   2.51456
 Alpha virt. eigenvalues --    2.51895   2.52457   2.54036   2.55378   2.55803
 Alpha virt. eigenvalues --    2.56808   2.57093   2.57784   2.58224   2.59235
 Alpha virt. eigenvalues --    2.61442   2.61740   2.62189   2.62650   2.63268
 Alpha virt. eigenvalues --    2.64297   2.64679   2.65175   2.65260   2.65747
 Alpha virt. eigenvalues --    2.66307   2.67157   2.67711   2.68813   2.69303
 Alpha virt. eigenvalues --    2.69701   2.70054   2.70566   2.70972   2.71799
 Alpha virt. eigenvalues --    2.72791   2.73929   2.75214   2.76035   2.76370
 Alpha virt. eigenvalues --    2.76781   2.77374   2.77793   2.78814   2.79246
 Alpha virt. eigenvalues --    2.79454   2.79952   2.80362   2.80539   2.81098
 Alpha virt. eigenvalues --    2.81729   2.82007   2.82433   2.83280   2.84091
 Alpha virt. eigenvalues --    2.84305   2.85392   2.86237   2.86781   2.86938
 Alpha virt. eigenvalues --    2.86979   2.87981   2.88979   2.91113   2.93312
 Alpha virt. eigenvalues --    2.93772   2.95397   2.96153   2.97231   2.98217
 Alpha virt. eigenvalues --    2.99620   3.00650   3.02091   3.04512   3.04882
 Alpha virt. eigenvalues --    3.05792   3.08945   3.10361   3.12355   3.14529
 Alpha virt. eigenvalues --    3.15185   3.15797   3.16612   3.18309   3.20042
 Alpha virt. eigenvalues --    3.20445   3.22822   3.23921   3.24634   3.25294
 Alpha virt. eigenvalues --    3.43980   3.46785   3.47597   3.48641   3.50842
 Alpha virt. eigenvalues --    3.52635   3.54968   3.56421   3.57950   3.60484
 Alpha virt. eigenvalues --    3.63511   3.70997   3.75044
          Condensed to atoms (all electrons):
 Mulliken charges:
               1
     1  N   -0.312541
     2  C    0.185104
     3  C    0.062503
     4  N   -0.259774
     5  C    0.145632
     6  H    0.028030
     7  N   -0.291152
     8  C    0.122784
     9  H    0.015165
    10  N   -0.274524
    11  C    0.260415
    12  C    0.081523
    13  N   -0.071562
    14  H    0.111065
    15  H    0.082872
    16  H    0.019239
    17  H    0.032753
    18  H    0.033871
    19  N   -0.311287
    20  C    0.250213
    21  C    0.181046
    22  N   -0.119677
    23  H    0.120256
    24  H    0.116757
    25  N   -0.310756
    26  C    0.238233
    27  N   -0.133910
    28  H    0.116849
    29  C    0.174249
    30  O   -0.320209
    31  C    0.002142
    32  N   -0.232912
    33  C    0.124314
    34  H    0.022371
    35  H    0.027152
    36  H    0.029495
    37  H    0.024810
    38  H    0.059027
    39  H    0.057286
    40  H    0.076595
    41  H    0.028115
    42  C   -0.115923
    43  O   -0.256123
    44  C    0.168079
    45  H    0.136688
    46  N   -0.126326
    47  O   -0.348670
    48  C    0.354601
    49  H    0.041498
    50  C    0.161136
    51  C    0.038685
    52  N   -0.280310
    53  H    0.034539
    54  H    0.038803
    55  H    0.031168
    56  H    0.117619
    57  H    0.121014
    58  N   -0.062725
    59  C    0.060692
    60  C    0.248189
    61  N   -0.276788
    62  H    0.023682
    63  C    0.185450
    64  N   -0.308579
    65  H    0.040010
    66  C    0.142816
    67  N   -0.259799
    68  C    0.031360
    69  C    0.180818
    70  N   -0.313167
 Sum of Mulliken charges =  -0.00000
 Mulliken charges with hydrogens summed into heavy atoms:
               1
     1  N   -0.312541
     2  C    0.270967
     3  C    0.062503
     4  N   -0.259774
     5  C    0.173662
     7  N   -0.291152
     8  C    0.137949
    10  N   -0.274524
    11  C    0.260415
    12  C    0.081523
    13  N    0.122375
    19  N   -0.311287
    20  C    0.250213
    21  C    0.262503
    22  N    0.117336
    25  N   -0.310756
    26  C    0.238233
    27  N   -0.017061
    29  C    0.174249
    30  O   -0.320209
    31  C    0.002142
    32  N   -0.232912
    33  C    0.146685
    42  C   -0.087808
    43  O   -0.256123
    44  C    0.168079
    46  N    0.010362
    47  O   -0.348670
    48  C    0.354601
    50  C    0.202634
    51  C    0.231593
    52  N   -0.280310
    58  N    0.175908
    59  C    0.060692
    60  C    0.248189
    61  N   -0.276788
    63  C    0.209132
    64  N   -0.308579
    66  C    0.182827
    67  N   -0.259799
    68  C    0.031360
    69  C    0.285328
    70  N   -0.313167
 Electronic spatial extent (au):  <R**2>=          22703.0278
 Charge=             -0.0000 electrons
 Dipole moment (field-independent basis, Debye):
    X=             -8.8140    Y=              5.9586    Z=             -0.9389  Tot=             10.6805
 Quadrupole moment (field-independent basis, Debye-Ang):
   XX=           -173.4694   YY=           -211.2658   ZZ=           -250.6616
   XY=              8.2201   XZ=            -18.7129   YZ=              6.2010
 Traceless Quadrupole moment (field-independent basis, Debye-Ang):
   XX=             38.3296   YY=              0.5331   ZZ=            -38.8627
   XY=              8.2201   XZ=            -18.7129   YZ=              6.2010
 Octapole moment (field-independent basis, Debye-Ang**2):
  XXX=             41.1457  YYY=            157.0163  ZZZ=             22.2067  XYY=           -100.4867
  XXY=            116.9600  XXZ=            -58.6117  XZZ=            -34.3170  YZZ=              2.8513
  YYZ=            -34.2801  XYZ=             68.3287
 Hexadecapole moment (field-independent basis, Debye-Ang**3):
 XXXX=         -16023.7425 YYYY=          -6963.0375 ZZZZ=          -3555.1328 XXXY=           -382.5022
 XXXZ=           -351.5601 YYYX=            100.9038 YYYZ=             37.5076 ZZZX=           -100.9263
 ZZZY=            -12.3047 XXYY=          -2926.8600 XXZZ=          -3653.9998 YYZZ=          -1853.9147
 XXYZ=             38.0144 YYXZ=              1.5182 ZZXY=             -9.6479
 N-N= 5.440483371349D+03 E-N=-1.566165866089D+04  KE= 2.037675796789D+03
 No NMR shielding tensors so no spin-rotation constants.
 Leave Link  601 at Fri Jan 26 17:50:51 2018, MaxMem=  4294967296 cpu:              47.7 elap:               1.7
 (Enter /share/apps/g16/l9999.exe)
 1\1\GINC-COMPUTE-0-3\SP\RwB97XD\CC-pVDZ\C23H27N17O3\SATYA\26-Jan-2018\
 0\\#p wb97xd/cc-pvdz sp scf=(maxcycles=20)\\Base pair stacking\\0,1\N,
 0,1.7355,-2.96651,-6.71874\C,0,3.09977,-2.42394,-6.86844\C,0,-0.44235,
 -3.15309,-6.47486\N,0,0.05317,-4.44729,-6.53999\C,0,1.34541,-4.28308,-
 6.68431\H,0,2.06768,-5.09528,-6.77149\N,0,-1.89451,-1.30299,-6.29801\C
 ,0,-0.80655,-0.53471,-6.41497\H,0,-0.98993,0.53852,-6.38658\N,0,0.4679
 3,-0.89145,-6.56105\C,0,0.58279,-2.22962,-6.58363\C,0,-1.74565,-2.6454
 6,-6.32445\N,0,-2.83048,-3.41404,-6.20785\H,0,-2.76736,-4.41256,-6.222
 16\H,0,-3.74278,-3.01819,-6.10227\H,0,3.48976,-2.73351,-7.73576\H,0,3.
 0651,-1.42504,-6.85733\H,0,3.67277,-2.74429,-6.11409\N,0,1.80655,1.626
 55,-3.28682\C,0,0.54219,1.09299,-3.21788\C,0,2.12256,3.0675,-3.354\N,0
 ,-2.90205,1.52374,-3.10208\H,0,-3.71625,0.94627,-3.04875\H,0,-3.04857,
 2.51278,-3.13424\N,0,-0.6146,1.78981,-3.20008\C,0,-1.66871,0.99643,-3.
 12929\N,0,-1.59757,-0.3747,-3.07964\H,0,-2.4559,-0.90139,-3.02656\C,0,
 -0.41823,-1.11277,-3.09673\O,0,-0.46419,-2.34817,-3.04777\C,0,0.72277,
 -0.27418,-3.17258\N,0,2.07332,-0.59252,-3.21228\C,0,2.67623,0.56342,-3
 .2796\H,0,3.75742,0.69806,-3.32626\H,0,2.62154,3.26202,-4.19779\H,0,1.
 27333,3.59373,-3.3415\H,0,2.68412,3.32428,-2.56818\H,0,-7.08944,-2.957
 72,-3.41973\H,0,-6.9229,-3.15442,-1.67668\H,0,-6.15538,-1.78818,-2.486
 42\H,0,-4.2215,-6.81632,-3.23859\C,0,-4.15707,-5.73436,-3.12265\O,0,-1
 .79592,-5.66684,-3.34063\C,0,-2.87543,-5.09982,-3.1735\H,0,-2.01986,-3
 .24508,-3.04595\N,0,-2.90628,-3.72889,-3.01585\O,0,-3.9412,-1.73361,-2
 .69181\C,0,-4.01444,-2.94296,-2.82129\H,0,-6.254,-5.42854,-2.88779\C,0
 ,-5.25607,-4.99457,-2.93417\C,0,-6.42494,-2.82983,-2.57821\N,0,-5.2131
 ,-3.62783,-2.78404\H,0,-8.85622,2.415,-5.67074\H,0,-7.46727,2.27276,-4
 .82653\H,0,-8.90336,2.10574,-4.069\H,0,-6.32616,-4.54732,-6.10708\H,0,
 -7.9894,-4.169,-6.08244\N,0,-7.04228,-3.85828,-5.99512\C,0,-6.74837,-2
 .58154,-5.74069\C,0,-7.25794,-0.29655,-5.31534\N,0,-5.97702,0.09217,-5
 .20333\H,0,-4.09566,-0.71465,-5.30418\C,0,-5.15801,-0.94287,-5.37894\N
 ,0,-5.45043,-2.22235,-5.63387\H,0,-10.47662,0.00515,-5.35056\C,0,-9.44
 865,-0.35629,-5.39037\N,0,-9.10433,-1.59984,-5.61991\C,0,-7.71791,-1.5
 7581,-5.57508\C,0,-8.40383,1.93584,-4.91858\N,0,-8.38155,0.48671,-5.19
 705\\Version=EM64L-G16RevA.03\State=1-A\HF=-2048.7472376\RMSD=6.649e-0
 9\Dipole=-3.6792711,2.0297511,0.0112569\Quadrupole=26.940107,-0.293029
 1,-26.647078,11.1808864,-12.7239973,8.4157998\PG=C01 [X(C23H27N17O3)]\
 \@


                                                                                    A
                                                                                  AA
                                                                                 AAA
                                                                                AAAA
                                                                               AAAAA
                                                                              AAAAAA   KKKKKKKK
                                                                             AAAAAAA   KKKKKKKK
                                                                            AAAAAAAA   KKKKKKKK
                                       ZZZZZZZZZZZZZZZZZZZZ                AAAA  AAA   KKKKKKKK
                                       ZZZZZZZZZZZZZZZZZZZ                AAAA   AAA   KKKKKKKK          K
                                       ZZZZZZZZZZZZZZZZZZ                AAAA    AAA   KKKKKKKK         KKK
                                       ZZZZZZZZZZZZZZZZZ                AAAA     AAA   KKKKKKKK        KKKKK
                                       ZZZZZZZZZZZZZZZZ                AAAA      AAA   KKKKKKKK       KKKKKKK
                                                ZZZZZZ                AAAA       AAA   KKKKKKKK      KKKKKKK
                                               ZZZZZZ                AAAA        AAA   KKKKKKKK     KKKKKKK
                                              ZZZZZZ                AAAA         AAA   KKKKKKKK    KKKKKKK
                                             ZZZZZZ                AAAA          AAA   KKKKKKKK   KKKKKKK
                                            ZZZZZZ                AAAAAAAAAAAAAAAAAA   KKKKKKKK  KKKKKKK
                                           ZZZZZZ                AAAAAAAAAAAAAAAAAAA   KKKKKKKK KKKKKKK
                                          ZZZZZZ                AAAAAAAAAAAAAAAAAAAA   KKKKKKKKKKKKKKK
                                         ZZZZZZ                AAAAAAAAAAAAAAAAAAAAA   KKKKKKKKKKKKKK
                                        ZZZZZZ                AAAAAA        AAAAAAAA   KKKKKKKKKKKKK
                                       ZZZZZZ                AAAAAA         AAAAAAAA   KKKKKKKKKKKK
                                      ZZZZZZ                AAAAAA          AAAAAAAA   KKKKKKKKKKK
                                     ZZZZZZ                AAAAAA           AAAAAAAA   KKKKKKKKKKKK
                                    ZZZZZZ                AAAAAA            AAAAAAAA   KKKKKKKKKKKKK
                                   ZZZZZZ                AAAAAA             AAAAAAAA   KKKKKKKKKKKKKK
                                  ZZZZZZ                AAAAAA              AAAAAAAA   KKKKKKKKKKKKKKK
                                 ZZZZZZ                AAAAAA               AAAAAAAA   KKKKK KKKKKKKKKK
                                ZZZZZZ                AAAAAA                AAAAAAAA   KKKKK  KKKKKKKKKK
                               ZZZZZZ                AAAAAA                            KKKKK   KKKKKKKKKK
                              ZZZZZZ                AAAAAA                             KKKKK    KKKKKKKKKK
                             ZZZZZZ                                                    KKKKK     KKKKKKKKKK
                            ZZZZZZ                                                     KKKKK      KKKKKKKKKK
                           ZZZZZZ                                                      KKKKK       KKKKKKKKKK
                          ZZZZZZ                                                       KKKKK        KKKKKKKKKK
                         ZZZZZZZZZZZZZZZZZZZZZZZZZZZZZZZZZZZZZZZZ                      KKKKK         KKKKKKKKKK
                        ZZZZZZZZZZZZZZZZZZZZZZZZZZZZZZZZZZZZZZZZZ                      KKKKK          KKKKKKKKKK
                       ZZZZZZZZZZZZZZZZZZZZZZZZZZZZZZZZZZZZZZZZZZ                      KKKKK           KKKKKKKKKK
                       ZZZZZZZZZZZZZZZZZZZZZZZZZZZZZZZZZZZZZZZZZZ                      KKKKK            KKKKKKKKKK
                       ZZZZZZZZZZZZZZZZZZZZZZZZZZZZZZZZZZZZZZZZZZ                      KKKKK             KKKKKKKKKK
                       ZZZZZZZZZZZZZZZZZZZZZZZZZZZZZZZZZZZZZZZZZZ                      KKKKK              KKKKKKKKKK
                       ZZZZZZZZZZZZZZZZZZZZZZZZZZZZZZZZZZZZZZZZZZ                      KKKKK               KKKKKKKKKK
                       ZZZZZZZZZZZZZZZZZZZZZZZZZZZZZZZZZZZZZZZZZZ                      KKKKK                KKKKKKKKKK
                       ZZZZZZZZZZZZZZZZZZZZZZZZZZZZZZZZZZZZZZZZZZ                      KKKKK
                                                                                       KKKKK
                                                                                          (J.P.)
 Job cpu time:       0 days  5 hours 45 minutes 24.3 seconds.
 Elapsed time:       0 days  0 hours 11 minutes  9.7 seconds.
 File lengths (MBytes):  RWF=    298 Int=      0 D2E=      0 Chk=     33 Scr=      1
 Normal termination of Gaussian 16 at Fri Jan 26 17:50:52 2018.
