 Entering Gaussian System, Link 0=g16
 Input=str55.20.1.0.com
 Output=str55.20.1.0.log
 Initial command:
 /share/apps/g16/l1.exe "/state/partition1/scr/Gau-15350.inp" -scrdir="/state/partition1/scr/"
 Entering Link 1 = /share/apps/g16/l1.exe PID=     15351.
  
 Copyright (c) 1988,1990,1992,1993,1995,1998,2003,2009,2016,
            Gaussian, Inc.  All Rights Reserved.
  
 This is part of the Gaussian(R) 16 program.  It is based on
 the Gaussian(R) 09 system (copyright 2009, Gaussian, Inc.),
 the Gaussian(R) 03 system (copyright 2003, Gaussian, Inc.),
 the Gaussian(R) 98 system (copyright 1998, Gaussian, Inc.),
 the Gaussian(R) 94 system (copyright 1995, Gaussian, Inc.),
 the Gaussian 92(TM) system (copyright 1992, Gaussian, Inc.),
 the Gaussian 90(TM) system (copyright 1990, Gaussian, Inc.),
 the Gaussian 88(TM) system (copyright 1988, Gaussian, Inc.),
 the Gaussian 86(TM) system (copyright 1986, Carnegie Mellon
 University), and the Gaussian 82(TM) system (copyright 1983,
 Carnegie Mellon University). Gaussian is a federally registered
 trademark of Gaussian, Inc.
  
 This software contains proprietary and confidential information,
 including trade secrets, belonging to Gaussian, Inc.
  
 This software is provided under written license and may be
 used, copied, transmitted, or stored only in accord with that
 written license.
  
 The following legend is applicable only to US Government
 contracts under FAR:
  
                    RESTRICTED RIGHTS LEGEND
  
 Use, reproduction and disclosure by the US Government is
 subject to restrictions as set forth in subparagraphs (a)
 and (c) of the Commercial Computer Software - Restricted
 Rights clause in FAR 52.227-19.
  
 Gaussian, Inc.
 340 Quinnipiac St., Bldg. 40, Wallingford CT 06492
  
  
 ---------------------------------------------------------------
 Warning -- This program may not be used in any manner that
 competes with the business of Gaussian, Inc. or will provide
 assistance to any competitor of Gaussian, Inc.  The licensee
 of this program is prohibited from giving any competitor of
 Gaussian, Inc. access to this program.  By using this program,
 the user acknowledges that Gaussian, Inc. is engaged in the
 business of creating and licensing software in the field of
 computational chemistry and represents and warrants to the
 licensee that it is not a competitor of Gaussian, Inc. and that
 it will not use this program in any manner prohibited above.
 ---------------------------------------------------------------
  

 Cite this work as:
 Gaussian 16, Revision A.03,
 M. J. Frisch, G. W. Trucks, H. B. Schlegel, G. E. Scuseria, 
 M. A. Robb, J. R. Cheeseman, G. Scalmani, V. Barone, 
 G. A. Petersson, H. Nakatsuji, X. Li, M. Caricato, A. V. Marenich, 
 J. Bloino, B. G. Janesko, R. Gomperts, B. Mennucci, H. P. Hratchian, 
 J. V. Ortiz, A. F. Izmaylov, J. L. Sonnenberg, D. Williams-Young, 
 F. Ding, F. Lipparini, F. Egidi, J. Goings, B. Peng, A. Petrone, 
 T. Henderson, D. Ranasinghe, V. G. Zakrzewski, J. Gao, N. Rega, 
 G. Zheng, W. Liang, M. Hada, M. Ehara, K. Toyota, R. Fukuda, 
 J. Hasegawa, M. Ishida, T. Nakajima, Y. Honda, O. Kitao, H. Nakai, 
 T. Vreven, K. Throssell, J. A. Montgomery, Jr., J. E. Peralta, 
 F. Ogliaro, M. J. Bearpark, J. J. Heyd, E. N. Brothers, K. N. Kudin, 
 V. N. Staroverov, T. A. Keith, R. Kobayashi, J. Normand, 
 K. Raghavachari, A. P. Rendell, J. C. Burant, S. S. Iyengar, 
 J. Tomasi, M. Cossi, J. M. Millam, M. Klene, C. Adamo, R. Cammi, 
 J. W. Ochterski, R. L. Martin, K. Morokuma, O. Farkas, 
 J. B. Foresman, and D. J. Fox, Gaussian, Inc., Wallingford CT, 2016.
 
 ******************************************
 Gaussian 16:  EM64L-G16RevA.03 25-Dec-2016
                26-Jan-2018 
 ******************************************
 %nprocshared=32
 Will use up to   32 processors via shared memory.
 %mem=32GB
 %chk=allatoms_t.chk
 ---------------------------------------
 #p wb97xd/cc-pvdz sp scf=(maxcycles=20)
 ---------------------------------------
 1/38=1,172=1/1;
 2/12=2,17=6,18=5,40=1/2;
 3/5=16,11=2,25=1,30=1,74=-58/1,2,3;
 4//1;
 5/5=2,7=20,38=5/2;
 6/7=2,8=2,9=2,10=2,28=1/1;
 99/5=1,9=1/99;
 Leave Link    1 at Fri Jan 26 09:57:32 2018, MaxMem=  4294967296 cpu:               2.7 elap:               0.1
 (Enter /share/apps/g16/l101.exe)
 ------------------
 Base pair stacking
 ------------------
 Symbolic Z-matrix:
 Charge =  0 Multiplicity = 1
 N                     5.79674  -2.53904  -4.36861 
 C                     7.19867  -2.0932   -4.25096 
 C                     3.66608  -2.67284  -4.89745 
 N                     3.9398   -3.77915  -4.10632 
 C                     5.21249  -3.65426  -3.81938 
 H                     5.7811   -4.35324  -3.20534 
 N                     2.55715  -1.08283  -6.24099 
 C                     3.72813  -0.44188  -6.31559 
 H                     3.72067   0.47294  -6.90661 
 N                     4.90143  -0.75982  -5.77229 
 C                     4.80095  -1.89919  -5.06789 
 C                     2.48879  -2.22623  -5.52472 
 N                     1.32078  -2.86748  -5.44907 
 H                     1.22402  -3.71739  -4.92993 
 H                     0.50309  -2.52041  -5.90849 
 H                     7.80567  -2.79615  -4.62189 
 H                     7.32294  -1.24329  -4.76217 
 H                     7.4213   -1.93697  -3.28866 
 N                     3.2378    2.93385  -2.98327 
 C                     2.00151   2.39718  -3.2509 
 C                     3.618     4.34598  -3.18828 
 N                    -1.26366   2.77686  -4.37172 
 H                    -2.07253   2.20269  -4.49544 
 H                    -1.34971   3.74176  -4.62125 
 N                     0.93493   3.06435  -3.74215 
 C                    -0.11476   2.27628  -3.8928 
 N                    -0.1215    0.93703  -3.5864 
 H                    -0.96974   0.41196  -3.73388 
 C                     0.96435   0.22981  -3.07982 
 O                     0.8532   -0.97819  -2.8367 
 C                     2.09948   1.06312  -2.91255 
 N                     3.37167   0.76819  -2.44198 
 C                     4.01029   1.9052   -2.50182 
 H                     5.04996   2.04977  -2.20609 
 H                     4.37708   4.39783  -3.83628 
 H                     2.83579   4.85011  -3.55197 
 H                     3.89613   4.74794  -2.31656 
 H                    -5.28964  -1.76813  -5.29544 
 H                    -5.72123  -1.65088  -3.59114 
 H                    -4.67161  -0.43487  -4.31982 
 H                    -2.8093   -5.47961  -3.50116 
 C                    -2.74204  -4.39316  -3.55887 
 O                    -0.44236  -4.32086  -2.98147 
 C                    -1.49127  -3.75361  -3.28612 
 H                    -0.65034  -1.88974  -3.20139 
 N                    -1.5156   -2.3772   -3.38697 
 O                    -2.51512  -0.37584  -3.77777 
 C                    -2.59149  -1.59022  -3.71357 
 H                    -4.78285  -4.09011  -4.09653 
 C                    -3.8092   -3.65249  -3.88007 
 C                    -4.93847  -1.48124  -4.31541 
 N                    -3.76165  -2.28014  -3.96244 
 H                    -3.51004   2.06144  -10.23913 
 H                    -2.53349   2.45546  -8.99286 
 H                    -4.1487    2.64626  -8.85583 
 H                    -2.13389  -3.94222  -6.10056 
 H                    -3.62255  -3.68912  -6.89424 
 N                    -2.72498  -3.33407  -6.63057 
 C                    -2.33459  -2.10412  -6.97115 
 C                    -2.58511   0.03125  -7.99054 
 N                    -1.37418   0.48153  -7.62268 
 H                     0.27379  -0.16421  -6.58933 
 C                    -0.72158  -0.44832  -6.92813 
 N                    -1.11086  -1.68078  -6.58598 
 H                    -5.50674   0.1127   -9.37243 
 C                    -4.59876  -0.16479  -8.83622 
 N                    -4.40101  -1.32266  -8.25492 
 C                    -3.12795  -1.21166  -7.7148 
 C                    -3.42386   2.07624  -9.24296 
 N                    -3.54077   0.70286  -8.71556 
 
 ITRead=  0  0  0  0  0  0  0  0  0  0  0  0  0  0  0  0  0  0  0  0
 ITRead=  0  0  0  0  0  0  0  0  0  0  0  0  0  0  0  0  0  0  0  0
 ITRead=  0  0  0  0  0  0  0  0  0  0  0  0  0  0  0  0  0  0  0  0
 ITRead=  0  0  0  0  0  0  0  0  0  0
 MicOpt= -1 -1 -1 -1 -1 -1 -1 -1 -1 -1 -1 -1 -1 -1 -1 -1 -1 -1 -1 -1
 MicOpt= -1 -1 -1 -1 -1 -1 -1 -1 -1 -1 -1 -1 -1 -1 -1 -1 -1 -1 -1 -1
 MicOpt= -1 -1 -1 -1 -1 -1 -1 -1 -1 -1 -1 -1 -1 -1 -1 -1 -1 -1 -1 -1
 MicOpt= -1 -1 -1 -1 -1 -1 -1 -1 -1 -1
 NAtoms=     70 NQM=       70 NQMF=       0 NMMI=      0 NMMIF=      0
                NMic=       0 NMicF=      0.
                    Isotopes and Nuclear Properties:
 (Nuclear quadrupole moments (NQMom) in fm**2, nuclear magnetic moments (NMagM)
  in nuclear magnetons)

  Atom         1           2           3           4           5           6           7           8           9          10
 IAtWgt=          14          12          12          14          12           1          14          12           1          14
 AtmWgt=  14.0030740  12.0000000  12.0000000  14.0030740  12.0000000   1.0078250  14.0030740  12.0000000   1.0078250  14.0030740
 NucSpn=           2           0           0           2           0           1           2           0           1           2
 AtZEff=  -0.0000000  -0.0000000  -0.0000000  -0.0000000  -0.0000000  -0.0000000  -0.0000000  -0.0000000  -0.0000000  -0.0000000
 NQMom=    2.0440000   0.0000000   0.0000000   2.0440000   0.0000000   0.0000000   2.0440000   0.0000000   0.0000000   2.0440000
 NMagM=    0.4037610   0.0000000   0.0000000   0.4037610   0.0000000   2.7928460   0.4037610   0.0000000   2.7928460   0.4037610
 AtZNuc=   7.0000000   6.0000000   6.0000000   7.0000000   6.0000000   1.0000000   7.0000000   6.0000000   1.0000000   7.0000000

  Atom        11          12          13          14          15          16          17          18          19          20
 IAtWgt=          12          12          14           1           1           1           1           1          14          12
 AtmWgt=  12.0000000  12.0000000  14.0030740   1.0078250   1.0078250   1.0078250   1.0078250   1.0078250  14.0030740  12.0000000
 NucSpn=           0           0           2           1           1           1           1           1           2           0
 AtZEff=  -0.0000000  -0.0000000  -0.0000000  -0.0000000  -0.0000000  -0.0000000  -0.0000000  -0.0000000  -0.0000000  -0.0000000
 NQMom=    0.0000000   0.0000000   2.0440000   0.0000000   0.0000000   0.0000000   0.0000000   0.0000000   2.0440000   0.0000000
 NMagM=    0.0000000   0.0000000   0.4037610   2.7928460   2.7928460   2.7928460   2.7928460   2.7928460   0.4037610   0.0000000
 AtZNuc=   6.0000000   6.0000000   7.0000000   1.0000000   1.0000000   1.0000000   1.0000000   1.0000000   7.0000000   6.0000000

  Atom        21          22          23          24          25          26          27          28          29          30
 IAtWgt=          12          14           1           1          14          12          14           1          12          16
 AtmWgt=  12.0000000  14.0030740   1.0078250   1.0078250  14.0030740  12.0000000  14.0030740   1.0078250  12.0000000  15.9949146
 NucSpn=           0           2           1           1           2           0           2           1           0           0
 AtZEff=  -0.0000000  -0.0000000  -0.0000000  -0.0000000  -0.0000000  -0.0000000  -0.0000000  -0.0000000  -0.0000000  -0.0000000
 NQMom=    0.0000000   2.0440000   0.0000000   0.0000000   2.0440000   0.0000000   2.0440000   0.0000000   0.0000000   0.0000000
 NMagM=    0.0000000   0.4037610   2.7928460   2.7928460   0.4037610   0.0000000   0.4037610   2.7928460   0.0000000   0.0000000
 AtZNuc=   6.0000000   7.0000000   1.0000000   1.0000000   7.0000000   6.0000000   7.0000000   1.0000000   6.0000000   8.0000000

  Atom        31          32          33          34          35          36          37          38          39          40
 IAtWgt=          12          14          12           1           1           1           1           1           1           1
 AtmWgt=  12.0000000  14.0030740  12.0000000   1.0078250   1.0078250   1.0078250   1.0078250   1.0078250   1.0078250   1.0078250
 NucSpn=           0           2           0           1           1           1           1           1           1           1
 AtZEff=  -0.0000000  -0.0000000  -0.0000000  -0.0000000  -0.0000000  -0.0000000  -0.0000000  -0.0000000  -0.0000000  -0.0000000
 NQMom=    0.0000000   2.0440000   0.0000000   0.0000000   0.0000000   0.0000000   0.0000000   0.0000000   0.0000000   0.0000000
 NMagM=    0.0000000   0.4037610   0.0000000   2.7928460   2.7928460   2.7928460   2.7928460   2.7928460   2.7928460   2.7928460
 AtZNuc=   6.0000000   7.0000000   6.0000000   1.0000000   1.0000000   1.0000000   1.0000000   1.0000000   1.0000000   1.0000000

  Atom        41          42          43          44          45          46          47          48          49          50
 IAtWgt=           1          12          16          12           1          14          16          12           1          12
 AtmWgt=   1.0078250  12.0000000  15.9949146  12.0000000   1.0078250  14.0030740  15.9949146  12.0000000   1.0078250  12.0000000
 NucSpn=           1           0           0           0           1           2           0           0           1           0
 AtZEff=  -0.0000000  -0.0000000  -0.0000000  -0.0000000  -0.0000000  -0.0000000  -0.0000000  -0.0000000  -0.0000000  -0.0000000
 NQMom=    0.0000000   0.0000000   0.0000000   0.0000000   0.0000000   2.0440000   0.0000000   0.0000000   0.0000000   0.0000000
 NMagM=    2.7928460   0.0000000   0.0000000   0.0000000   2.7928460   0.4037610   0.0000000   0.0000000   2.7928460   0.0000000
 AtZNuc=   1.0000000   6.0000000   8.0000000   6.0000000   1.0000000   7.0000000   8.0000000   6.0000000   1.0000000   6.0000000

  Atom        51          52          53          54          55          56          57          58          59          60
 IAtWgt=          12          14           1           1           1           1           1          14          12          12
 AtmWgt=  12.0000000  14.0030740   1.0078250   1.0078250   1.0078250   1.0078250   1.0078250  14.0030740  12.0000000  12.0000000
 NucSpn=           0           2           1           1           1           1           1           2           0           0
 AtZEff=  -0.0000000  -0.0000000  -0.0000000  -0.0000000  -0.0000000  -0.0000000  -0.0000000  -0.0000000  -0.0000000  -0.0000000
 NQMom=    0.0000000   2.0440000   0.0000000   0.0000000   0.0000000   0.0000000   0.0000000   2.0440000   0.0000000   0.0000000
 NMagM=    0.0000000   0.4037610   2.7928460   2.7928460   2.7928460   2.7928460   2.7928460   0.4037610   0.0000000   0.0000000
 AtZNuc=   6.0000000   7.0000000   1.0000000   1.0000000   1.0000000   1.0000000   1.0000000   7.0000000   6.0000000   6.0000000

  Atom        61          62          63          64          65          66          67          68          69          70
 IAtWgt=          14           1          12          14           1          12          14          12          12          14
 AtmWgt=  14.0030740   1.0078250  12.0000000  14.0030740   1.0078250  12.0000000  14.0030740  12.0000000  12.0000000  14.0030740
 NucSpn=           2           1           0           2           1           0           2           0           0           2
 AtZEff=  -0.0000000  -0.0000000  -0.0000000  -0.0000000  -0.0000000  -0.0000000  -0.0000000  -0.0000000  -0.0000000  -0.0000000
 NQMom=    2.0440000   0.0000000   0.0000000   2.0440000   0.0000000   0.0000000   2.0440000   0.0000000   0.0000000   2.0440000
 NMagM=    0.4037610   2.7928460   0.0000000   0.4037610   2.7928460   0.0000000   0.4037610   0.0000000   0.0000000   0.4037610
 AtZNuc=   7.0000000   1.0000000   6.0000000   7.0000000   1.0000000   6.0000000   7.0000000   6.0000000   6.0000000   7.0000000
 Leave Link  101 at Fri Jan 26 09:57:32 2018, MaxMem=  4294967296 cpu:               7.6 elap:               0.3
 (Enter /share/apps/g16/l202.exe)
 Stoichiometry    C23H27N17O3
 Framework group  C1[X(C23H27N17O3)]
 Deg. of freedom   204
 Full point group                 C1      NOp   1
 Largest Abelian subgroup         C1      NOp   1
 Largest concise Abelian subgroup C1      NOp   1
                         Standard orientation:                         
 ---------------------------------------------------------------------
 Center     Atomic      Atomic             Coordinates (Angstroms)
 Number     Number       Type             X           Y           Z
 ---------------------------------------------------------------------
      1          7           0       -5.309974   -2.124773    1.338013
      2          6           0       -6.710766   -1.767179    1.634543
      3          6           0       -3.116684   -2.093810    1.177370
      4          7           0       -3.531419   -3.284602    0.598802
      5          6           0       -4.836196   -3.255594    0.718743
      6          1           0       -5.508470   -4.039947    0.369783
      7          7           0       -1.778737   -0.324517    1.978906
      8          6           0       -2.916982    0.257858    2.369817
      9          1           0       -2.800976    1.224837    2.857415
     10          7           0       -4.171119   -0.172882    2.249416
     11          6           0       -4.201784   -1.368336    1.637542
     12          6           0       -1.843183   -1.526826    1.366223
     13          7           0       -0.708052   -2.109758    0.975276
     14          1           0       -0.708313   -2.999739    0.517946
     15          1           0        0.180829   -1.677003    1.126122
     16          1           0       -7.114704   -2.461899    2.229837
     17          1           0       -6.739026   -0.879422    2.093034
     18          1           0       -7.231715   -1.717081    0.782430
     19          7           0       -3.754157    3.315362   -1.192646
     20          6           0       -2.456661    2.873299   -1.288239
     21          6           0       -4.164872    4.718646   -0.985766
     22          7           0        0.953296    3.532019   -1.285001
     23          1           0        1.804304    3.016127   -1.379284
     24          1           0        1.034207    4.519777   -1.149023
     25          7           0       -1.347880    3.640437   -1.209887
     26          6           0       -0.243106    2.927297   -1.338362
     27          7           0       -0.223498    1.566866   -1.529050
     28          1           0        0.668204    1.104160   -1.616969
     29          6           0       -1.352051    0.757417   -1.612805
     30          8           0       -1.224520   -0.460907   -1.786440
     31          6           0       -2.546571    1.509391   -1.476566
     32          7           0       -3.873797    1.103353   -1.498752
     33          6           0       -4.552094    2.205453   -1.327009
     34          1           0       -5.640357    2.265483   -1.290267
     35          1           0       -4.688118    4.792959   -0.137541
     36          1           0       -3.351853    5.296331   -0.926195
     37          1           0       -4.730222    5.018828   -1.753291
     38          1           0        5.420116   -0.682680   -1.335314
     39          1           0        5.292958   -0.708770   -3.092529
     40          1           0        4.425518    0.515046   -2.164532
     41          1           0        2.814223   -4.676680   -1.970845
     42          6           0        2.680779   -3.594839   -1.977252
     43          8           0        0.317269   -3.700572   -1.804662
     44          6           0        1.359689   -3.051788   -1.889725
     45          1           0        0.386431   -1.252007   -1.846022
     46          7           0        1.303006   -1.672736   -1.906102
     47          8           0        2.209693    0.407124   -2.002594
     48          6           0        2.360073   -0.802012   -1.995518
     49          1           0        4.756450   -3.133595   -2.134299
     50          6           0        3.731635   -2.771127   -2.065525
     51          6           0        4.761352   -0.511237   -2.173598
     52          7           0        3.601452   -1.401702   -2.076438
     53          1           0        4.952947    3.509243    3.612634
     54          1           0        3.610643    3.728264    2.711335
     55          1           0        5.083541    3.989962    2.058518
     56          1           0        2.853629   -2.932088    0.584830
     57          1           0        4.489213   -2.524820    0.847688
     58          7           0        3.528556   -2.244977    0.854081
     59          6           0        3.164760   -1.010136    1.206212
     60          6           0        3.545134    1.224342    1.930192
     61          7           0        2.247656    1.572155    1.929507
     62          1           0        0.418675    0.742968    1.519783
     63          6           0        1.489512    0.546093    1.548298
     64          7           0        1.851973   -0.691454    1.195221
     65          1           0        6.734254    1.593844    2.311189
     66          6           0        5.730473    1.218017    2.110868
     67          7           0        5.456731    0.000363    1.710789
     68          6           0        4.074479   -0.009029    1.592368
     69          6           0        4.562230    3.422702    2.696199
     70          7           0        4.620691    2.012722    2.264309
 ---------------------------------------------------------------------
 Rotational constants (GHZ):           0.1092901           0.0593604           0.0516795
 Leave Link  202 at Fri Jan 26 09:57:32 2018, MaxMem=  4294967296 cpu:               0.4 elap:               0.0
 (Enter /share/apps/g16/l301.exe)
 Standard basis: CC-pVDZ (5D, 7F)
 Ernie: Thresh=  0.10000D-02 Tol=  0.10000D-05 Strict=F.
 Ernie:  86 primitive shells out of 1081 were deleted.
 There are   780 symmetry adapted cartesian basis functions of A   symmetry.
 There are   737 symmetry adapted basis functions of A   symmetry.
   737 basis functions,  1608 primitive gaussians,   780 cartesian basis functions
   154 alpha electrons      154 beta electrons
       nuclear repulsion energy      5409.3704898284 Hartrees.
 IExCor= 4639 DFT=T Ex+Corr=wB97XD ExCW=0 ScaHFX=  1.000000
 ScaDFX=  1.000000  1.000000  1.000000  1.000000 ScalE2=  1.000000  1.000000
 IRadAn=      5 IRanWt=     -1 IRanGd=            0 ICorTp=0 IEmpDi=121
 HFx  wShort=  0.000000 wLong=  0.200000 cFull=  0.222036 cShort=  0.000000 cLong=  0.777964
 DFx  wShort=  0.000000 wLong=  0.200000 cFull=  0.000000 cShort=  0.000000 cLong=  1.000000
 NAtoms=   70 NActive=   70 NUniq=   70 SFac= 1.00D+00 NAtFMM=   60 NAOKFM=T Big=T
 Integral buffers will be    131072 words long.
 Raffenetti 2 integral format.
 Two-electron integral symmetry is turned on.
 R6Disp:  Grimme-D2 Dispersion energy=       -0.0635450603 Hartrees.
 Nuclear repulsion after empirical dispersion term =     5409.3069447681 Hartrees.
 Leave Link  301 at Fri Jan 26 09:57:32 2018, MaxMem=  4294967296 cpu:               3.0 elap:               0.1
 (Enter /share/apps/g16/l302.exe)
 NPDir=0 NMtPBC=     1 NCelOv=     1 NCel=       1 NClECP=     1 NCelD=      1
         NCelK=      1 NCelE2=     1 NClLst=     1 CellRange=     0.0.
 One-electron integrals computed using PRISM.
 One-electron integral symmetry used in STVInt
 NBasis=   737 RedAO= T EigKep=  7.19D-04  NBF=   737
 NBsUse=   737 1.00D-06 EigRej= -1.00D+00 NBFU=   737
 Precomputing XC quadrature grid using
 IXCGrd= 4 IRadAn=           5 IRanWt=          -1 IRanGd=           0 AccXCQ= 0.00D+00.
 Generated NRdTot=       0 NPtTot=           0 NUsed=           0 NTot=          32
 NSgBfM=   762   757   760   761   762 MxSgAt=    70 MxSgA2=    70.
 Leave Link  302 at Fri Jan 26 09:57:37 2018, MaxMem=  4294967296 cpu:             135.9 elap:               4.3
 (Enter /share/apps/g16/l303.exe)
 DipDrv:  MaxL=1.
 Leave Link  303 at Fri Jan 26 09:57:37 2018, MaxMem=  4294967296 cpu:              13.5 elap:               0.5
 (Enter /share/apps/g16/l401.exe)
 ExpMin= 1.22D-01 ExpMax= 1.17D+04 ExpMxC= 4.01D+02 IAcc=3 IRadAn=         5 AccDes= 0.00D+00
 Harris functional with IExCor= 4639 and IRadAn=       5 diagonalized for initial guess.
 HarFok:  IExCor= 4639 AccDes= 0.00D+00 IRadAn=         5 IDoV= 1 UseB2=F ITyADJ=14
 ICtDFT=  3500011 ScaDFX=  1.000000  1.000000  1.000000  1.000000
 FoFCou: FMM=F IPFlag=           0 FMFlag=      100000 FMFlg1=        2001
         NFxFlg=           0 DoJE=T BraDBF=F KetDBF=T FulRan=T
         wScrn=  0.000000 ICntrl=       500 IOpCl=  0 I1Cent=   200000004 NGrid=           0
         NMat0=    1 NMatS0=      1 NMatT0=    0 NMatD0=    1 NMtDS0=    0 NMtDT0=    0
 Petite list used in FoFCou.
 Harris En= -1963.88409730177    
 JPrj=0 DoOrth=F DoCkMO=F.
 Leave Link  401 at Fri Jan 26 09:57:49 2018, MaxMem=  4294967296 cpu:             388.1 elap:              12.2
 (Enter /share/apps/g16/l502.exe)
 Integral symmetry usage will be decided dynamically.
 Closed shell SCF:
 Using DIIS extrapolation, IDIIS=  1040.
 NGot=  4294967296 LenX=  4293717438 LenY=  4293108258
 Requested convergence on RMS density matrix=1.00D-08 within  20 cycles.
 Requested convergence on MAX density matrix=1.00D-06.
 Requested convergence on             energy=1.00D-06.
 No special actions if energy rises.
 Fock matrices will be formed incrementally for  20 cycles.
 Integral accuracy reduced to 1.0D-05 until final iterations.

 Cycle   1  Pass 0  IDiag  1:
 FoFJK:  IHMeth= 1 ICntrl=       0 DoSepK=T KAlg= 0 I1Cent=           0 FoldK=F
 IRaf=         1 NMat=       1 IRICut=       1 DoRegI=T DoRafI=F ISym2E= 0 IDoP0=0 IntGTp=1.
 FoFCou: FMM=T IPFlag=           0 FMFlag=      100000 FMFlg1=        2001
         NFxFlg=           0 DoJE=T BraDBF=F KetDBF=F FulRan=T
         wScrn=  0.000000 ICntrl=       500 IOpCl=  0 I1Cent=           0 NGrid=           0
         NMat0=    1 NMatS0=      1 NMatT0=    0 NMatD0=    1 NMtDS0=    0 NMtDT0=    0
 Symmetry not used in FoFCou.
 FMM levels:  10  Number of levels for PrismC:   9
 E= -2048.31049219102    
 DIIS: error= 2.71D-02 at cycle   1 NSaved=   1.
 NSaved= 1 IEnMin= 1 EnMin= -2048.31049219102     IErMin= 1 ErrMin= 2.71D-02
 ErrMax= 2.71D-02  0.00D+00 EMaxC= 1.00D-01 BMatC= 8.31D-01 BMatP= 8.31D-01
 IDIUse=3 WtCom= 7.29D-01 WtEn= 2.71D-01
 Coeff-Com:  0.100D+01
 Coeff-En:   0.100D+01
 Coeff:      0.100D+01
 Gap=     0.244 Goal=   None    Shift=    0.000
 GapD=    0.244 DampG=1.000 DampE=0.500 DampFc=0.5000 IDamp=-1.
 Damping current iteration by 5.00D-01
 RMSDP=1.55D-03 MaxDP=1.31D-01              OVMax= 1.76D-01

 Cycle   2  Pass 0  IDiag  1:
 RMSU=  7.74D-04    CP:  9.98D-01
 E= -2048.50858946843     Delta-E=       -0.198097277405 Rises=F Damp=T
 DIIS: error= 1.52D-02 at cycle   2 NSaved=   2.
 NSaved= 2 IEnMin= 2 EnMin= -2048.50858946843     IErMin= 2 ErrMin= 1.52D-02
 ErrMax= 1.52D-02  0.00D+00 EMaxC= 1.00D-01 BMatC= 1.44D-01 BMatP= 8.31D-01
 IDIUse=3 WtCom= 8.48D-01 WtEn= 1.52D-01
 Coeff-Com: -0.203D+00 0.120D+01
 Coeff-En:   0.000D+00 0.100D+01
 Coeff:     -0.172D+00 0.117D+01
 Gap=     0.312 Goal=   None    Shift=    0.000
 RMSDP=5.71D-04 MaxDP=3.53D-02 DE=-1.98D-01 OVMax= 1.59D-01

 Cycle   3  Pass 0  IDiag  1:
 RMSU=  5.57D-04    CP:  9.94D-01  1.15D+00
 E= -2048.69052829673     Delta-E=       -0.181938828305 Rises=F Damp=F
 DIIS: error= 7.45D-03 at cycle   3 NSaved=   3.
 NSaved= 3 IEnMin= 3 EnMin= -2048.69052829673     IErMin= 3 ErrMin= 7.45D-03
 ErrMax= 7.45D-03  0.00D+00 EMaxC= 1.00D-01 BMatC= 5.95D-02 BMatP= 1.44D-01
 IDIUse=3 WtCom= 9.26D-01 WtEn= 7.45D-02
 Coeff-Com: -0.228D+00 0.542D+00 0.687D+00
 Coeff-En:   0.000D+00 0.000D+00 0.100D+01
 Coeff:     -0.211D+00 0.501D+00 0.710D+00
 Gap=     0.263 Goal=   None    Shift=    0.000
 RMSDP=3.38D-04 MaxDP=3.43D-02 DE=-1.82D-01 OVMax= 6.92D-02

 Cycle   4  Pass 0  IDiag  1:
 RMSU=  1.96D-04    CP:  9.95D-01  1.42D+00  6.84D-01
 E= -2048.73501548434     Delta-E=       -0.044487187602 Rises=F Damp=F
 DIIS: error= 3.04D-03 at cycle   4 NSaved=   4.
 NSaved= 4 IEnMin= 4 EnMin= -2048.73501548434     IErMin= 4 ErrMin= 3.04D-03
 ErrMax= 3.04D-03  0.00D+00 EMaxC= 1.00D-01 BMatC= 8.69D-03 BMatP= 5.95D-02
 IDIUse=3 WtCom= 9.70D-01 WtEn= 3.04D-02
 Coeff-Com: -0.941D-01 0.183D+00 0.379D+00 0.533D+00
 Coeff-En:   0.000D+00 0.000D+00 0.589D-01 0.941D+00
 Coeff:     -0.913D-01 0.177D+00 0.369D+00 0.545D+00
 Gap=     0.270 Goal=   None    Shift=    0.000
 RMSDP=1.22D-04 MaxDP=1.28D-02 DE=-4.45D-02 OVMax= 1.25D-02

 Cycle   5  Pass 0  IDiag  1:
 RMSU=  6.18D-05    CP:  9.94D-01  1.40D+00  8.13D-01  6.22D-01
 E= -2048.74194629187     Delta-E=       -0.006930807530 Rises=F Damp=F
 DIIS: error= 7.62D-04 at cycle   5 NSaved=   5.
 NSaved= 5 IEnMin= 5 EnMin= -2048.74194629187     IErMin= 5 ErrMin= 7.62D-04
 ErrMax= 7.62D-04  0.00D+00 EMaxC= 1.00D-01 BMatC= 3.08D-04 BMatP= 8.69D-03
 IDIUse=3 WtCom= 9.92D-01 WtEn= 7.62D-03
 Coeff-Com: -0.246D-01 0.422D-01 0.123D+00 0.247D+00 0.613D+00
 Coeff-En:   0.000D+00 0.000D+00 0.000D+00 0.000D+00 0.100D+01
 Coeff:     -0.244D-01 0.419D-01 0.122D+00 0.245D+00 0.616D+00
 Gap=     0.269 Goal=   None    Shift=    0.000
 RMSDP=2.50D-05 MaxDP=2.53D-03 DE=-6.93D-03 OVMax= 3.24D-03

 Failed to achieve initial convergence to 1.0D-08 in  6 cycles.
 Switch to full accuracy anyway.
 Cycle   6  Pass 1  IDiag  1:
 E= -2048.74231586678     Delta-E=       -0.000369574916 Rises=F Damp=F
 DIIS: error= 2.46D-04 at cycle   1 NSaved=   1.
 NSaved= 1 IEnMin= 1 EnMin= -2048.74231586678     IErMin= 1 ErrMin= 2.46D-04
 ErrMax= 2.46D-04  0.00D+00 EMaxC= 1.00D-01 BMatC= 7.44D-05 BMatP= 7.44D-05
 IDIUse=3 WtCom= 9.98D-01 WtEn= 2.46D-03
 Coeff-Com:  0.100D+01
 Coeff-En:   0.100D+01
 Coeff:      0.100D+01
 Gap=     0.270 Goal=   None    Shift=    0.000
 RMSDP=2.50D-05 MaxDP=2.53D-03 DE=-3.70D-04 OVMax= 1.94D-03

 Cycle   7  Pass 1  IDiag  1:
 RMSU=  1.18D-04    CP:  1.00D+00
 E= -2048.74236964470     Delta-E=       -0.000053777914 Rises=F Damp=F
 DIIS: error= 3.12D-04 at cycle   2 NSaved=   2.
 NSaved= 2 IEnMin= 2 EnMin= -2048.74236964470     IErMin= 1 ErrMin= 2.46D-04
 ErrMax= 3.12D-04  0.00D+00 EMaxC= 1.00D-01 BMatC= 4.68D-05 BMatP= 7.44D-05
 IDIUse=3 WtCom= 9.97D-01 WtEn= 3.12D-03
 Coeff-Com:  0.423D+00 0.577D+00
 Coeff-En:   0.000D+00 0.100D+01
 Coeff:      0.421D+00 0.579D+00
 Gap=     0.269 Goal=   None    Shift=    0.000
 RMSDP=1.09D-05 MaxDP=1.48D-03 DE=-5.38D-05 OVMax= 1.67D-03

 Cycle   8  Pass 1  IDiag  1:
 RMSU=  1.05D-05    CP:  1.00D+00  1.03D+00
 E= -2048.74240210429     Delta-E=       -0.000032459591 Rises=F Damp=F
 DIIS: error= 1.18D-04 at cycle   3 NSaved=   3.
 NSaved= 3 IEnMin= 3 EnMin= -2048.74240210429     IErMin= 3 ErrMin= 1.18D-04
 ErrMax= 1.18D-04  0.00D+00 EMaxC= 1.00D-01 BMatC= 1.03D-05 BMatP= 4.68D-05
 IDIUse=3 WtCom= 9.99D-01 WtEn= 1.18D-03
 Coeff-Com: -0.190D-01 0.306D+00 0.713D+00
 Coeff-En:   0.000D+00 0.123D+00 0.877D+00
 Coeff:     -0.189D-01 0.306D+00 0.713D+00
 Gap=     0.270 Goal=   None    Shift=    0.000
 RMSDP=5.65D-06 MaxDP=5.51D-04 DE=-3.25D-05 OVMax= 5.88D-04

 Cycle   9  Pass 1  IDiag  1:
 RMSU=  3.75D-06    CP:  1.00D+00  1.06D+00  7.67D-01
 E= -2048.74241115039     Delta-E=       -0.000009046100 Rises=F Damp=F
 DIIS: error= 3.05D-05 at cycle   4 NSaved=   4.
 NSaved= 4 IEnMin= 4 EnMin= -2048.74241115039     IErMin= 4 ErrMin= 3.05D-05
 ErrMax= 3.05D-05  0.00D+00 EMaxC= 1.00D-01 BMatC= 4.83D-07 BMatP= 1.03D-05
 IDIUse=1 WtCom= 1.00D+00 WtEn= 0.00D+00
 Coeff-Com: -0.312D-01 0.846D-01 0.260D+00 0.687D+00
 Coeff:     -0.312D-01 0.846D-01 0.260D+00 0.687D+00
 Gap=     0.270 Goal=   None    Shift=    0.000
 RMSDP=1.40D-06 MaxDP=1.42D-04 DE=-9.05D-06 OVMax= 4.33D-04

 Cycle  10  Pass 1  IDiag  1:
 RMSU=  1.25D-06    CP:  1.00D+00  1.06D+00  7.99D-01  1.11D+00
 E= -2048.74241194996     Delta-E=       -0.000000799569 Rises=F Damp=F
 DIIS: error= 1.32D-05 at cycle   5 NSaved=   5.
 NSaved= 5 IEnMin= 5 EnMin= -2048.74241194996     IErMin= 5 ErrMin= 1.32D-05
 ErrMax= 1.32D-05  0.00D+00 EMaxC= 1.00D-01 BMatC= 1.12D-07 BMatP= 4.83D-07
 IDIUse=1 WtCom= 1.00D+00 WtEn= 0.00D+00
 Coeff-Com: -0.299D-02-0.515D-01-0.120D+00 0.197D+00 0.978D+00
 Coeff:     -0.299D-02-0.515D-01-0.120D+00 0.197D+00 0.978D+00
 Gap=     0.270 Goal=   None    Shift=    0.000
 RMSDP=1.16D-06 MaxDP=7.64D-05 DE=-8.00D-07 OVMax= 2.13D-04

 Cycle  11  Pass 1  IDiag  1:
 RMSU=  4.84D-07    CP:  1.00D+00  1.06D+00  8.05D-01  1.38D+00  1.17D+00
 E= -2048.74241219190     Delta-E=       -0.000000241943 Rises=F Damp=F
 DIIS: error= 8.96D-06 at cycle   6 NSaved=   6.
 NSaved= 6 IEnMin= 6 EnMin= -2048.74241219190     IErMin= 6 ErrMin= 8.96D-06
 ErrMax= 8.96D-06  0.00D+00 EMaxC= 1.00D-01 BMatC= 2.72D-08 BMatP= 1.12D-07
 IDIUse=1 WtCom= 1.00D+00 WtEn= 0.00D+00
 Coeff-Com:  0.473D-02-0.425D-01-0.114D+00-0.748D-02 0.521D+00 0.638D+00
 Coeff:      0.473D-02-0.425D-01-0.114D+00-0.748D-02 0.521D+00 0.638D+00
 Gap=     0.270 Goal=   None    Shift=    0.000
 RMSDP=3.64D-07 MaxDP=3.71D-05 DE=-2.42D-07 OVMax= 1.09D-04

 Cycle  12  Pass 1  IDiag  1:
 RMSU=  1.85D-07    CP:  1.00D+00  1.06D+00  8.06D-01  1.45D+00  1.31D+00
                    CP:  9.26D-01
 E= -2048.74241223124     Delta-E=       -0.000000039344 Rises=F Damp=F
 DIIS: error= 1.03D-06 at cycle   7 NSaved=   7.
 NSaved= 7 IEnMin= 7 EnMin= -2048.74241223124     IErMin= 7 ErrMin= 1.03D-06
 ErrMax= 1.03D-06  0.00D+00 EMaxC= 1.00D-01 BMatC= 8.30D-10 BMatP= 2.72D-08
 IDIUse=1 WtCom= 1.00D+00 WtEn= 0.00D+00
 Coeff-Com:  0.119D-02-0.749D-02-0.220D-01-0.816D-02 0.648D-01 0.151D+00
 Coeff-Com:  0.821D+00
 Coeff:      0.119D-02-0.749D-02-0.220D-01-0.816D-02 0.648D-01 0.151D+00
 Coeff:      0.821D+00
 Gap=     0.270 Goal=   None    Shift=    0.000
 RMSDP=8.06D-08 MaxDP=5.47D-06 DE=-3.93D-08 OVMax= 2.03D-05

 Cycle  13  Pass 1  IDiag  1:
 RMSU=  4.95D-08    CP:  1.00D+00  1.06D+00  8.06D-01  1.46D+00  1.32D+00
                    CP:  1.01D+00  1.13D+00
 E= -2048.74241223281     Delta-E=       -0.000000001563 Rises=F Damp=F
 DIIS: error= 5.77D-07 at cycle   8 NSaved=   8.
 NSaved= 8 IEnMin= 8 EnMin= -2048.74241223281     IErMin= 8 ErrMin= 5.77D-07
 ErrMax= 5.77D-07  0.00D+00 EMaxC= 1.00D-01 BMatC= 3.21D-10 BMatP= 8.30D-10
 IDIUse=1 WtCom= 1.00D+00 WtEn= 0.00D+00
 Coeff-Com: -0.718D-03 0.820D-02 0.205D-01-0.224D-03-0.114D+00-0.981D-01
 Coeff-Com:  0.410D+00 0.775D+00
 Coeff:     -0.718D-03 0.820D-02 0.205D-01-0.224D-03-0.114D+00-0.981D-01
 Coeff:      0.410D+00 0.775D+00
 Gap=     0.270 Goal=   None    Shift=    0.000
 RMSDP=4.87D-08 MaxDP=3.05D-06 DE=-1.56D-09 OVMax= 1.07D-05

 Cycle  14  Pass 1  IDiag  1:
 RMSU=  2.74D-08    CP:  1.00D+00  1.06D+00  8.05D-01  1.46D+00  1.33D+00
                    CP:  1.06D+00  1.28D+00  1.08D+00
 E= -2048.74241223330     Delta-E=       -0.000000000497 Rises=F Damp=F
 DIIS: error= 1.90D-07 at cycle   9 NSaved=   9.
 NSaved= 9 IEnMin= 9 EnMin= -2048.74241223330     IErMin= 9 ErrMin= 1.90D-07
 ErrMax= 1.90D-07  0.00D+00 EMaxC= 1.00D-01 BMatC= 3.30D-11 BMatP= 3.21D-10
 IDIUse=1 WtCom= 1.00D+00 WtEn= 0.00D+00
 Coeff-Com: -0.449D-03 0.449D-02 0.115D-01 0.125D-02-0.566D-01-0.592D-01
 Coeff-Com:  0.883D-01 0.326D+00 0.685D+00
 Coeff:     -0.449D-03 0.449D-02 0.115D-01 0.125D-02-0.566D-01-0.592D-01
 Coeff:      0.883D-01 0.326D+00 0.685D+00
 Gap=     0.270 Goal=   None    Shift=    0.000
 RMSDP=1.31D-08 MaxDP=8.29D-07 DE=-4.97D-10 OVMax= 3.10D-06

 Cycle  15  Pass 1  IDiag  1:
 RMSU=  9.02D-09    CP:  1.00D+00  1.06D+00  8.05D-01  1.46D+00  1.33D+00
                    CP:  1.06D+00  1.30D+00  1.23D+00  1.09D+00
 E= -2048.74241223355     Delta-E=       -0.000000000250 Rises=F Damp=F
 DIIS: error= 5.87D-08 at cycle  10 NSaved=  10.
 NSaved=10 IEnMin=10 EnMin= -2048.74241223355     IErMin=10 ErrMin= 5.87D-08
 ErrMax= 5.87D-08  0.00D+00 EMaxC= 1.00D-01 BMatC= 4.90D-12 BMatP= 3.30D-11
 IDIUse=1 WtCom= 1.00D+00 WtEn= 0.00D+00
 Coeff-Com:  0.410D-05-0.285D-03-0.573D-03 0.897D-04 0.515D-02 0.122D-02
 Coeff-Com: -0.546D-01-0.577D-01 0.246D+00 0.860D+00
 Coeff:      0.410D-05-0.285D-03-0.573D-03 0.897D-04 0.515D-02 0.122D-02
 Coeff:     -0.546D-01-0.577D-01 0.246D+00 0.860D+00
 Gap=     0.270 Goal=   None    Shift=    0.000
 RMSDP=6.83D-09 MaxDP=4.05D-07 DE=-2.50D-10 OVMax= 1.47D-06

 SCF Done:  E(RwB97XD) =  -2048.74241223     A.U. after   15 cycles
            NFock= 15  Conv=0.68D-08     -V/T= 2.0054
 KE= 2.037684512994D+03 PE=-1.559945830083D+04 EE= 6.103724430839D+03
 Leave Link  502 at Fri Jan 26 10:08:32 2018, MaxMem=  4294967296 cpu:           19771.1 elap:             642.7
 (Enter /share/apps/g16/l601.exe)
 Copying SCF densities to generalized density rwf, IOpCl= 0 IROHF=0.

 **********************************************************************

            Population analysis using the SCF density.

 **********************************************************************

 Orbital symmetries:
       Occupied  (A) (A) (A) (A) (A) (A) (A) (A) (A) (A) (A) (A)
                 (A) (A) (A) (A) (A) (A) (A) (A) (A) (A) (A) (A)
                 (A) (A) (A) (A) (A) (A) (A) (A) (A) (A) (A) (A)
                 (A) (A) (A) (A) (A) (A) (A) (A) (A) (A) (A) (A)
                 (A) (A) (A) (A) (A) (A) (A) (A) (A) (A) (A) (A)
                 (A) (A) (A) (A) (A) (A) (A) (A) (A) (A) (A) (A)
                 (A) (A) (A) (A) (A) (A) (A) (A) (A) (A) (A) (A)
                 (A) (A) (A) (A) (A) (A) (A) (A) (A) (A) (A) (A)
                 (A) (A) (A) (A) (A) (A) (A) (A) (A) (A) (A) (A)
                 (A) (A) (A) (A) (A) (A) (A) (A) (A) (A) (A) (A)
                 (A) (A) (A) (A) (A) (A) (A) (A) (A) (A) (A) (A)
                 (A) (A) (A) (A) (A) (A) (A) (A) (A) (A) (A) (A)
                 (A) (A) (A) (A) (A) (A) (A) (A) (A) (A)
       Virtual   (A) (A) (A) (A) (A) (A) (A) (A) (A) (A) (A) (A)
                 (A) (A) (A) (A) (A) (A) (A) (A) (A) (A) (A) (A)
                 (A) (A) (A) (A) (A) (A) (A) (A) (A) (A) (A) (A)
                 (A) (A) (A) (A) (A) (A) (A) (A) (A) (A) (A) (A)
                 (A) (A) (A) (A) (A) (A) (A) (A) (A) (A) (A) (A)
                 (A) (A) (A) (A) (A) (A) (A) (A) (A) (A) (A) (A)
                 (A) (A) (A) (A) (A) (A) (A) (A) (A) (A) (A) (A)
                 (A) (A) (A) (A) (A) (A) (A) (A) (A) (A) (A) (A)
                 (A) (A) (A) (A) (A) (A) (A) (A) (A) (A) (A) (A)
                 (A) (A) (A) (A) (A) (A) (A) (A) (A) (A) (A) (A)
                 (A) (A) (A) (A) (A) (A) (A) (A) (A) (A) (A) (A)
                 (A) (A) (A) (A) (A) (A) (A) (A) (A) (A) (A) (A)
                 (A) (A) (A) (A) (A) (A) (A) (A) (A) (A) (A) (A)
                 (A) (A) (A) (A) (A) (A) (A) (A) (A) (A) (A) (A)
                 (A) (A) (A) (A) (A) (A) (A) (A) (A) (A) (A) (A)
                 (A) (A) (A) (A) (A) (A) (A) (A) (A) (A) (A) (A)
                 (A) (A) (A) (A) (A) (A) (A) (A) (A) (A) (A) (A)
                 (A) (A) (A) (A) (A) (A) (A) (A) (A) (A) (A) (A)
                 (A) (A) (A) (A) (A) (A) (A) (A) (A) (A) (A) (A)
                 (A) (A) (A) (A) (A) (A) (A) (A) (A) (A) (A) (A)
                 (A) (A) (A) (A) (A) (A) (A) (A) (A) (A) (A) (A)
                 (A) (A) (A) (A) (A) (A) (A) (A) (A) (A) (A) (A)
                 (A) (A) (A) (A) (A) (A) (A) (A) (A) (A) (A) (A)
                 (A) (A) (A) (A) (A) (A) (A) (A) (A) (A) (A) (A)
                 (A) (A) (A) (A) (A) (A) (A) (A) (A) (A) (A) (A)
                 (A) (A) (A) (A) (A) (A) (A) (A) (A) (A) (A) (A)
                 (A) (A) (A) (A) (A) (A) (A) (A) (A) (A) (A) (A)
                 (A) (A) (A) (A) (A) (A) (A) (A) (A) (A) (A) (A)
                 (A) (A) (A) (A) (A) (A) (A) (A) (A) (A) (A) (A)
                 (A) (A) (A) (A) (A) (A) (A) (A) (A) (A) (A) (A)
                 (A) (A) (A) (A) (A) (A) (A) (A) (A) (A) (A) (A)
                 (A) (A) (A) (A) (A) (A) (A) (A) (A) (A) (A) (A)
                 (A) (A) (A) (A) (A) (A) (A) (A) (A) (A) (A) (A)
                 (A) (A) (A) (A) (A) (A) (A) (A) (A) (A) (A) (A)
                 (A) (A) (A) (A) (A) (A) (A) (A) (A) (A) (A) (A)
                 (A) (A) (A) (A) (A) (A) (A) (A) (A) (A) (A) (A)
                 (A) (A) (A) (A) (A) (A) (A) (A) (A) (A) (A) (A)
                 (A) (A) (A) (A) (A) (A) (A) (A) (A) (A) (A) (A)
                 (A) (A) (A) (A) (A) (A) (A) (A) (A) (A) (A) (A)
                 (A) (A) (A) (A) (A) (A) (A) (A) (A) (A) (A) (A)
                 (A) (A) (A) (A) (A) (A) (A) (A) (A) (A) (A) (A)
                 (A) (A) (A) (A) (A) (A) (A) (A) (A) (A) (A) (A)
                 (A) (A) (A) (A) (A) (A) (A) (A) (A) (A) (A) (A)
                 (A) (A) (A) (A) (A) (A) (A) (A) (A) (A) (A) (A)
                 (A) (A) (A) (A) (A) (A) (A) (A) (A) (A) (A) (A)
                 (A) (A) (A) (A) (A) (A) (A) (A) (A) (A) (A) (A)
                 (A) (A) (A) (A) (A) (A) (A) (A) (A) (A) (A) (A)
                 (A) (A) (A) (A) (A) (A) (A) (A) (A) (A) (A) (A)
                 (A) (A) (A) (A) (A) (A) (A)
 The electronic state is 1-A.
 Alpha  occ. eigenvalues --  -19.26017 -19.22498 -19.20720 -14.52702 -14.52216
 Alpha  occ. eigenvalues --  -14.48955 -14.48274 -14.48089 -14.47783 -14.47096
 Alpha  occ. eigenvalues --  -14.46881 -14.45292 -14.44239 -14.44127 -14.42196
 Alpha  occ. eigenvalues --  -14.41499 -14.41009 -14.40367 -14.40075 -14.39547
 Alpha  occ. eigenvalues --  -10.45700 -10.41427 -10.40600 -10.39864 -10.38412
 Alpha  occ. eigenvalues --  -10.38351 -10.37827 -10.37003 -10.35545 -10.35231
 Alpha  occ. eigenvalues --  -10.34648 -10.34501 -10.33641 -10.33450 -10.33105
 Alpha  occ. eigenvalues --  -10.32540 -10.32430 -10.32302 -10.31601 -10.31097
 Alpha  occ. eigenvalues --  -10.30135 -10.28255 -10.27598  -1.19621  -1.14979
 Alpha  occ. eigenvalues --   -1.13478  -1.13350  -1.10738  -1.10362  -1.09680
 Alpha  occ. eigenvalues --   -1.09184  -1.08725  -1.04776  -1.04219  -1.02764
 Alpha  occ. eigenvalues --   -1.00805  -0.99938  -0.99620  -0.98707  -0.96760
 Alpha  occ. eigenvalues --   -0.96756  -0.96000  -0.91897  -0.91569  -0.87429
 Alpha  occ. eigenvalues --   -0.85683  -0.84280  -0.83801  -0.83033  -0.82672
 Alpha  occ. eigenvalues --   -0.81448  -0.79289  -0.76911  -0.74797  -0.74665
 Alpha  occ. eigenvalues --   -0.73842  -0.73641  -0.72084  -0.70352  -0.70171
 Alpha  occ. eigenvalues --   -0.67570  -0.66856  -0.66745  -0.65475  -0.64743
 Alpha  occ. eigenvalues --   -0.64169  -0.63996  -0.62841  -0.61933  -0.61877
 Alpha  occ. eigenvalues --   -0.60528  -0.60137  -0.60045  -0.59797  -0.59331
 Alpha  occ. eigenvalues --   -0.59059  -0.58560  -0.56777  -0.56180  -0.55830
 Alpha  occ. eigenvalues --   -0.55466  -0.55088  -0.54802  -0.54597  -0.54149
 Alpha  occ. eigenvalues --   -0.53864  -0.53712  -0.53468  -0.53342  -0.53164
 Alpha  occ. eigenvalues --   -0.52636  -0.52623  -0.50954  -0.50383  -0.49905
 Alpha  occ. eigenvalues --   -0.49762  -0.49667  -0.49364  -0.49139  -0.49071
 Alpha  occ. eigenvalues --   -0.48594  -0.48440  -0.48095  -0.47876  -0.47510
 Alpha  occ. eigenvalues --   -0.46123  -0.45804  -0.45435  -0.44112  -0.43930
 Alpha  occ. eigenvalues --   -0.40506  -0.40288  -0.39602  -0.37500  -0.37463
 Alpha  occ. eigenvalues --   -0.37421  -0.37401  -0.36263  -0.36097  -0.34685
 Alpha  occ. eigenvalues --   -0.34269  -0.34061  -0.33604  -0.32835  -0.32707
 Alpha  occ. eigenvalues --   -0.32665  -0.32547  -0.32372  -0.32004  -0.30072
 Alpha  occ. eigenvalues --   -0.29961  -0.29633  -0.25668  -0.24901
 Alpha virt. eigenvalues --    0.02067   0.04393   0.07129   0.08223   0.08886
 Alpha virt. eigenvalues --    0.09112   0.09628   0.10705   0.11245   0.11857
 Alpha virt. eigenvalues --    0.13213   0.14407   0.14672   0.14869   0.15247
 Alpha virt. eigenvalues --    0.15472   0.16674   0.17192   0.17329   0.17584
 Alpha virt. eigenvalues --    0.18185   0.19942   0.19967   0.20443   0.20501
 Alpha virt. eigenvalues --    0.20970   0.21003   0.21114   0.21698   0.22000
 Alpha virt. eigenvalues --    0.22527   0.22877   0.23136   0.23579   0.23669
 Alpha virt. eigenvalues --    0.24305   0.24603   0.24728   0.24926   0.25252
 Alpha virt. eigenvalues --    0.25317   0.25843   0.27022   0.27589   0.28017
 Alpha virt. eigenvalues --    0.28963   0.29514   0.29782   0.30504   0.30856
 Alpha virt. eigenvalues --    0.31460   0.31922   0.32433   0.32911   0.33297
 Alpha virt. eigenvalues --    0.34116   0.34340   0.35033   0.35910   0.36213
 Alpha virt. eigenvalues --    0.36617   0.37392   0.37749   0.38967   0.39126
 Alpha virt. eigenvalues --    0.39826   0.40448   0.41059   0.41416   0.41578
 Alpha virt. eigenvalues --    0.41948   0.42843   0.43222   0.43967   0.44387
 Alpha virt. eigenvalues --    0.44852   0.45605   0.46511   0.46718   0.47079
 Alpha virt. eigenvalues --    0.47381   0.47470   0.48559   0.48660   0.49138
 Alpha virt. eigenvalues --    0.49695   0.50083   0.50392   0.50680   0.51004
 Alpha virt. eigenvalues --    0.51404   0.51542   0.52255   0.52859   0.53226
 Alpha virt. eigenvalues --    0.54080   0.54440   0.54578   0.54935   0.55511
 Alpha virt. eigenvalues --    0.55735   0.56511   0.56901   0.57071   0.57513
 Alpha virt. eigenvalues --    0.57702   0.57816   0.58165   0.59328   0.59459
 Alpha virt. eigenvalues --    0.59576   0.59908   0.60553   0.60705   0.60981
 Alpha virt. eigenvalues --    0.61231   0.61883   0.62402   0.62736   0.62880
 Alpha virt. eigenvalues --    0.63377   0.63805   0.64279   0.65431   0.65468
 Alpha virt. eigenvalues --    0.65941   0.66092   0.66365   0.66825   0.67014
 Alpha virt. eigenvalues --    0.67273   0.67498   0.68064   0.68216   0.68648
 Alpha virt. eigenvalues --    0.69262   0.69779   0.69941   0.70537   0.71056
 Alpha virt. eigenvalues --    0.71109   0.71333   0.72221   0.72792   0.73412
 Alpha virt. eigenvalues --    0.73636   0.74135   0.74238   0.74465   0.74901
 Alpha virt. eigenvalues --    0.75300   0.75877   0.75896   0.76424   0.76774
 Alpha virt. eigenvalues --    0.76915   0.77330   0.77724   0.78089   0.78265
 Alpha virt. eigenvalues --    0.78585   0.79113   0.79917   0.80431   0.80941
 Alpha virt. eigenvalues --    0.81062   0.81482   0.81603   0.81862   0.82340
 Alpha virt. eigenvalues --    0.83076   0.83209   0.83863   0.84356   0.84668
 Alpha virt. eigenvalues --    0.84833   0.85440   0.85886   0.86755   0.87238
 Alpha virt. eigenvalues --    0.88142   0.88189   0.88377   0.88653   0.89773
 Alpha virt. eigenvalues --    0.90186   0.90342   0.91026   0.91254   0.91701
 Alpha virt. eigenvalues --    0.91878   0.92634   0.93040   0.93297   0.94137
 Alpha virt. eigenvalues --    0.94599   0.94923   0.95589   0.96004   0.96161
 Alpha virt. eigenvalues --    0.96752   0.96983   0.97512   0.97989   0.98370
 Alpha virt. eigenvalues --    0.98719   0.98944   0.99427   0.99694   1.00163
 Alpha virt. eigenvalues --    1.00483   1.01054   1.01097   1.01991   1.02393
 Alpha virt. eigenvalues --    1.02781   1.03254   1.03426   1.04208   1.04701
 Alpha virt. eigenvalues --    1.05043   1.05663   1.05963   1.06251   1.07032
 Alpha virt. eigenvalues --    1.07516   1.07837   1.08741   1.09959   1.10377
 Alpha virt. eigenvalues --    1.10773   1.11588   1.11704   1.12573   1.12819
 Alpha virt. eigenvalues --    1.13396   1.13677   1.14268   1.14469   1.14841
 Alpha virt. eigenvalues --    1.15311   1.15904   1.16188   1.16661   1.16847
 Alpha virt. eigenvalues --    1.17481   1.17808   1.18032   1.18703   1.19109
 Alpha virt. eigenvalues --    1.19608   1.19709   1.20014   1.20432   1.20628
 Alpha virt. eigenvalues --    1.21030   1.21929   1.22037   1.22563   1.23188
 Alpha virt. eigenvalues --    1.23221   1.23514   1.23614   1.24073   1.24232
 Alpha virt. eigenvalues --    1.24623   1.25147   1.25567   1.26024   1.26929
 Alpha virt. eigenvalues --    1.27890   1.28224   1.28616   1.29503   1.29878
 Alpha virt. eigenvalues --    1.30548   1.31675   1.31921   1.32268   1.33116
 Alpha virt. eigenvalues --    1.33785   1.34238   1.34659   1.35297   1.36023
 Alpha virt. eigenvalues --    1.36801   1.37353   1.37706   1.38705   1.39500
 Alpha virt. eigenvalues --    1.40550   1.40901   1.41036   1.41578   1.42567
 Alpha virt. eigenvalues --    1.44766   1.45928   1.45989   1.46082   1.46489
 Alpha virt. eigenvalues --    1.47578   1.48536   1.48943   1.49543   1.50406
 Alpha virt. eigenvalues --    1.50831   1.51645   1.52388   1.53045   1.53230
 Alpha virt. eigenvalues --    1.53520   1.53757   1.55922   1.56369   1.56741
 Alpha virt. eigenvalues --    1.56909   1.58383   1.58786   1.59162   1.59925
 Alpha virt. eigenvalues --    1.60528   1.61220   1.61903   1.62362   1.62517
 Alpha virt. eigenvalues --    1.63013   1.64055   1.64589   1.65206   1.65524
 Alpha virt. eigenvalues --    1.65668   1.66744   1.67555   1.67780   1.68616
 Alpha virt. eigenvalues --    1.68660   1.69314   1.69769   1.70350   1.70408
 Alpha virt. eigenvalues --    1.71399   1.71727   1.72163   1.72432   1.72912
 Alpha virt. eigenvalues --    1.73315   1.73715   1.73995   1.74419   1.74778
 Alpha virt. eigenvalues --    1.75276   1.75607   1.76029   1.76153   1.76338
 Alpha virt. eigenvalues --    1.76738   1.77073   1.77483   1.77676   1.77988
 Alpha virt. eigenvalues --    1.78583   1.78740   1.78953   1.79871   1.80052
 Alpha virt. eigenvalues --    1.80192   1.80377   1.80952   1.81087   1.81122
 Alpha virt. eigenvalues --    1.81609   1.82042   1.82574   1.83805   1.83931
 Alpha virt. eigenvalues --    1.84496   1.84741   1.85143   1.85530   1.86067
 Alpha virt. eigenvalues --    1.86507   1.87079   1.87654   1.88071   1.88516
 Alpha virt. eigenvalues --    1.88874   1.89482   1.89982   1.90345   1.90589
 Alpha virt. eigenvalues --    1.91385   1.91645   1.91892   1.93033   1.93379
 Alpha virt. eigenvalues --    1.94421   1.94629   1.94925   1.95197   1.96557
 Alpha virt. eigenvalues --    1.97104   1.98310   1.98666   1.99822   2.00478
 Alpha virt. eigenvalues --    2.00770   2.01571   2.01756   2.02231   2.02373
 Alpha virt. eigenvalues --    2.03060   2.03667   2.05385   2.05733   2.06309
 Alpha virt. eigenvalues --    2.07200   2.07743   2.07823   2.08149   2.09373
 Alpha virt. eigenvalues --    2.09621   2.09858   2.10499   2.10975   2.11489
 Alpha virt. eigenvalues --    2.11829   2.13253   2.14519   2.15622   2.16337
 Alpha virt. eigenvalues --    2.17723   2.18142   2.19403   2.19980   2.20626
 Alpha virt. eigenvalues --    2.21481   2.22141   2.22311   2.22507   2.23458
 Alpha virt. eigenvalues --    2.24039   2.24515   2.25253   2.25401   2.26219
 Alpha virt. eigenvalues --    2.26733   2.27169   2.28358   2.28605   2.29619
 Alpha virt. eigenvalues --    2.29939   2.30347   2.30616   2.31308   2.31716
 Alpha virt. eigenvalues --    2.32387   2.32778   2.33212   2.33550   2.33621
 Alpha virt. eigenvalues --    2.34523   2.35028   2.35351   2.36094   2.37003
 Alpha virt. eigenvalues --    2.37369   2.37477   2.38593   2.39431   2.40213
 Alpha virt. eigenvalues --    2.40783   2.42453   2.43360   2.43520   2.43918
 Alpha virt. eigenvalues --    2.44111   2.44569   2.45219   2.45634   2.46691
 Alpha virt. eigenvalues --    2.47584   2.47943   2.49268   2.50950   2.51251
 Alpha virt. eigenvalues --    2.51369   2.52775   2.53960   2.54657   2.54987
 Alpha virt. eigenvalues --    2.56000   2.56795   2.57135   2.57993   2.59050
 Alpha virt. eigenvalues --    2.60126   2.61100   2.61866   2.62233   2.62686
 Alpha virt. eigenvalues --    2.63104   2.63998   2.64718   2.64932   2.65428
 Alpha virt. eigenvalues --    2.65687   2.66889   2.67349   2.67435   2.68497
 Alpha virt. eigenvalues --    2.68841   2.69855   2.70101   2.70713   2.71754
 Alpha virt. eigenvalues --    2.72622   2.73420   2.74907   2.75764   2.76521
 Alpha virt. eigenvalues --    2.76922   2.77292   2.78278   2.78686   2.78937
 Alpha virt. eigenvalues --    2.79223   2.80151   2.80214   2.80709   2.80947
 Alpha virt. eigenvalues --    2.81465   2.81840   2.82092   2.83602   2.83718
 Alpha virt. eigenvalues --    2.84233   2.85129   2.85462   2.86363   2.86805
 Alpha virt. eigenvalues --    2.87441   2.87800   2.88224   2.89988   2.91749
 Alpha virt. eigenvalues --    2.93216   2.94195   2.94851   2.96284   2.98017
 Alpha virt. eigenvalues --    3.00147   3.00442   3.01149   3.03915   3.04297
 Alpha virt. eigenvalues --    3.05227   3.09298   3.11075   3.12582   3.14576
 Alpha virt. eigenvalues --    3.15508   3.16040   3.16318   3.17150   3.19699
 Alpha virt. eigenvalues --    3.20685   3.22050   3.23066   3.24763   3.25019
 Alpha virt. eigenvalues --    3.44425   3.47032   3.47366   3.49376   3.49960
 Alpha virt. eigenvalues --    3.53554   3.54525   3.55926   3.57391   3.59604
 Alpha virt. eigenvalues --    3.62725   3.70331   3.74348
          Condensed to atoms (all electrons):
 Mulliken charges:
               1
     1  N   -0.312978
     2  C    0.182110
     3  C    0.046678
     4  N   -0.254968
     5  C    0.137203
     6  H    0.024079
     7  N   -0.302144
     8  C    0.137361
     9  H    0.007687
    10  N   -0.290422
    11  C    0.256865
    12  C    0.110438
    13  N   -0.062647
    14  H    0.113934
    15  H    0.082035
    16  H    0.022143
    17  H    0.032102
    18  H    0.026377
    19  N   -0.311771
    20  C    0.249518
    21  C    0.180757
    22  N   -0.121323
    23  H    0.115058
    24  H    0.117230
    25  N   -0.311394
    26  C    0.247895
    27  N   -0.152566
    28  H    0.121312
    29  C    0.199378
    30  O   -0.320770
    31  C   -0.014775
    32  N   -0.226087
    33  C    0.130103
    34  H    0.024431
    35  H    0.028598
    36  H    0.029088
    37  H    0.025065
    38  H    0.059618
    39  H    0.060650
    40  H    0.075255
    41  H    0.031995
    42  C   -0.124712
    43  O   -0.263112
    44  C    0.167112
    45  H    0.132337
    46  N   -0.117884
    47  O   -0.344885
    48  C    0.340966
    49  H    0.045812
    50  C    0.155223
    51  C    0.038757
    52  N   -0.272164
    53  H    0.033859
    54  H    0.043082
    55  H    0.027505
    56  H    0.118705
    57  H    0.113698
    58  N   -0.057154
    59  C    0.095432
    60  C    0.249040
    61  N   -0.272513
    62  H    0.039477
    63  C    0.173934
    64  N   -0.315554
    65  H    0.037313
    66  C    0.139291
    67  N   -0.270890
    68  C    0.027589
    69  C    0.179527
    70  N   -0.312912
 Sum of Mulliken charges =  -0.00000
 Mulliken charges with hydrogens summed into heavy atoms:
               1
     1  N   -0.312978
     2  C    0.262732
     3  C    0.046678
     4  N   -0.254968
     5  C    0.161282
     7  N   -0.302144
     8  C    0.145048
    10  N   -0.290422
    11  C    0.256865
    12  C    0.110438
    13  N    0.133322
    19  N   -0.311771
    20  C    0.249518
    21  C    0.263508
    22  N    0.110965
    25  N   -0.311394
    26  C    0.247895
    27  N   -0.031254
    29  C    0.199378
    30  O   -0.320770
    31  C   -0.014775
    32  N   -0.226087
    33  C    0.154534
    42  C   -0.092717
    43  O   -0.263112
    44  C    0.167112
    46  N    0.014453
    47  O   -0.344885
    48  C    0.340966
    50  C    0.201035
    51  C    0.234281
    52  N   -0.272164
    58  N    0.175249
    59  C    0.095432
    60  C    0.249040
    61  N   -0.272513
    63  C    0.213411
    64  N   -0.315554
    66  C    0.176605
    67  N   -0.270890
    68  C    0.027589
    69  C    0.283972
    70  N   -0.312912
 Electronic spatial extent (au):  <R**2>=          22452.1506
 Charge=              0.0000 electrons
 Dipole moment (field-independent basis, Debye):
    X=              9.2903    Y=              5.9440    Z=              0.0584  Tot=             11.0293
 Quadrupole moment (field-independent basis, Debye-Ang):
   XX=           -165.2736   YY=           -211.3571   ZZ=           -248.6662
   XY=             -5.6279   XZ=             -7.5880   YZ=              0.5104
 Traceless Quadrupole moment (field-independent basis, Debye-Ang):
   XX=             43.1587   YY=             -2.9248   ZZ=            -40.2339
   XY=             -5.6279   XZ=             -7.5880   YZ=              0.5104
 Octapole moment (field-independent basis, Debye-Ang**2):
  XXX=            -63.1424  YYY=            148.4232  ZZZ=            -12.0698  XYY=             64.6630
  XXY=             39.3126  XXZ=              5.2155  XZZ=             80.7822  YZZ=             32.3996
  YYZ=             20.4657  XYZ=             96.9087
 Hexadecapole moment (field-independent basis, Debye-Ang**3):
 XXXX=         -14319.3065 YYYY=          -7021.0423 ZZZZ=          -4437.0550 XXXY=            519.3675
 XXXZ=           -169.0992 YYYX=           -233.5881 YYYZ=            -21.6838 ZZZX=             38.0967
 ZZZY=            107.0470 XXYY=          -3004.2867 XXZZ=          -3429.4668 YYZZ=          -1948.0360
 XXYZ=            172.8458 YYXZ=            102.7442 ZZXY=            103.9809
 N-N= 5.409306944768D+03 E-N=-1.559945829931D+04  KE= 2.037684512994D+03
 No NMR shielding tensors so no spin-rotation constants.
 Leave Link  601 at Fri Jan 26 10:08:34 2018, MaxMem=  4294967296 cpu:              47.2 elap:               1.7
 (Enter /share/apps/g16/l9999.exe)
 1\1\GINC-COMPUTE-0-3\SP\RwB97XD\CC-pVDZ\C23H27N17O3\SATYA\26-Jan-2018\
 0\\#p wb97xd/cc-pvdz sp scf=(maxcycles=20)\\Base pair stacking\\0,1\N,
 0,5.79674,-2.53904,-4.36861\C,0,7.19867,-2.0932,-4.25096\C,0,3.66608,-
 2.67284,-4.89745\N,0,3.9398,-3.77915,-4.10632\C,0,5.21249,-3.65426,-3.
 81938\H,0,5.7811,-4.35324,-3.20534\N,0,2.55715,-1.08283,-6.24099\C,0,3
 .72813,-0.44188,-6.31559\H,0,3.72067,0.47294,-6.90661\N,0,4.90143,-0.7
 5982,-5.77229\C,0,4.80095,-1.89919,-5.06789\C,0,2.48879,-2.22623,-5.52
 472\N,0,1.32078,-2.86748,-5.44907\H,0,1.22402,-3.71739,-4.92993\H,0,0.
 50309,-2.52041,-5.90849\H,0,7.80567,-2.79615,-4.62189\H,0,7.32294,-1.2
 4329,-4.76217\H,0,7.4213,-1.93697,-3.28866\N,0,3.2378,2.93385,-2.98327
 \C,0,2.00151,2.39718,-3.2509\C,0,3.618,4.34598,-3.18828\N,0,-1.26366,2
 .77686,-4.37172\H,0,-2.07253,2.20269,-4.49544\H,0,-1.34971,3.74176,-4.
 62125\N,0,0.93493,3.06435,-3.74215\C,0,-0.11476,2.27628,-3.8928\N,0,-0
 .1215,0.93703,-3.5864\H,0,-0.96974,0.41196,-3.73388\C,0,0.96435,0.2298
 1,-3.07982\O,0,0.8532,-0.97819,-2.8367\C,0,2.09948,1.06312,-2.91255\N,
 0,3.37167,0.76819,-2.44198\C,0,4.01029,1.9052,-2.50182\H,0,5.04996,2.0
 4977,-2.20609\H,0,4.37708,4.39783,-3.83628\H,0,2.83579,4.85011,-3.5519
 7\H,0,3.89613,4.74794,-2.31656\H,0,-5.28964,-1.76813,-5.29544\H,0,-5.7
 2123,-1.65088,-3.59114\H,0,-4.67161,-0.43487,-4.31982\H,0,-2.8093,-5.4
 7961,-3.50116\C,0,-2.74204,-4.39316,-3.55887\O,0,-0.44236,-4.32086,-2.
 98147\C,0,-1.49127,-3.75361,-3.28612\H,0,-0.65034,-1.88974,-3.20139\N,
 0,-1.5156,-2.3772,-3.38697\O,0,-2.51512,-0.37584,-3.77777\C,0,-2.59149
 ,-1.59022,-3.71357\H,0,-4.78285,-4.09011,-4.09653\C,0,-3.8092,-3.65249
 ,-3.88007\C,0,-4.93847,-1.48124,-4.31541\N,0,-3.76165,-2.28014,-3.9624
 4\H,0,-3.51004,2.06144,-10.23913\H,0,-2.53349,2.45546,-8.99286\H,0,-4.
 1487,2.64626,-8.85583\H,0,-2.13389,-3.94222,-6.10056\H,0,-3.62255,-3.6
 8912,-6.89424\N,0,-2.72498,-3.33407,-6.63057\C,0,-2.33459,-2.10412,-6.
 97115\C,0,-2.58511,0.03125,-7.99054\N,0,-1.37418,0.48153,-7.62268\H,0,
 0.27379,-0.16421,-6.58933\C,0,-0.72158,-0.44832,-6.92813\N,0,-1.11086,
 -1.68078,-6.58598\H,0,-5.50674,0.1127,-9.37243\C,0,-4.59876,-0.16479,-
 8.83622\N,0,-4.40101,-1.32266,-8.25492\C,0,-3.12795,-1.21166,-7.7148\C
 ,0,-3.42386,2.07624,-9.24296\N,0,-3.54077,0.70286,-8.71556\\Version=EM
 64L-G16RevA.03\State=1-A\HF=-2048.7424122\RMSD=6.835e-09\Dipole=-3.580
 048,2.0279809,-1.3782957\Quadrupole=28.7769093,-1.5665242,-27.2103851,
 7.0590733,13.3449509,-0.7956442\PG=C01 [X(C23H27N17O3)]\\@


 A MAN BEGINS CUTTING HIS WISDOM TEETH THE 1ST
 TIME HE BITES OFF MORE THAN HE CAN CHEW.
 Job cpu time:       0 days  5 hours 39 minutes 31.9 seconds.
 Elapsed time:       0 days  0 hours 11 minutes  1.9 seconds.
 File lengths (MBytes):  RWF=    298 Int=      0 D2E=      0 Chk=     33 Scr=      1
 Normal termination of Gaussian 16 at Fri Jan 26 10:08:34 2018.
