 Entering Gaussian System, Link 0=g16
 Input=str55.-20.2.5.com
 Output=str55.-20.2.5.log
 Initial command:
 /share/apps/g16/l1.exe "/state/partition1/scr/Gau-25815.inp" -scrdir="/state/partition1/scr/"
 Entering Link 1 = /share/apps/g16/l1.exe PID=     25816.
  
 Copyright (c) 1988,1990,1992,1993,1995,1998,2003,2009,2016,
            Gaussian, Inc.  All Rights Reserved.
  
 This is part of the Gaussian(R) 16 program.  It is based on
 the Gaussian(R) 09 system (copyright 2009, Gaussian, Inc.),
 the Gaussian(R) 03 system (copyright 2003, Gaussian, Inc.),
 the Gaussian(R) 98 system (copyright 1998, Gaussian, Inc.),
 the Gaussian(R) 94 system (copyright 1995, Gaussian, Inc.),
 the Gaussian 92(TM) system (copyright 1992, Gaussian, Inc.),
 the Gaussian 90(TM) system (copyright 1990, Gaussian, Inc.),
 the Gaussian 88(TM) system (copyright 1988, Gaussian, Inc.),
 the Gaussian 86(TM) system (copyright 1986, Carnegie Mellon
 University), and the Gaussian 82(TM) system (copyright 1983,
 Carnegie Mellon University). Gaussian is a federally registered
 trademark of Gaussian, Inc.
  
 This software contains proprietary and confidential information,
 including trade secrets, belonging to Gaussian, Inc.
  
 This software is provided under written license and may be
 used, copied, transmitted, or stored only in accord with that
 written license.
  
 The following legend is applicable only to US Government
 contracts under FAR:
  
                    RESTRICTED RIGHTS LEGEND
  
 Use, reproduction and disclosure by the US Government is
 subject to restrictions as set forth in subparagraphs (a)
 and (c) of the Commercial Computer Software - Restricted
 Rights clause in FAR 52.227-19.
  
 Gaussian, Inc.
 340 Quinnipiac St., Bldg. 40, Wallingford CT 06492
  
  
 ---------------------------------------------------------------
 Warning -- This program may not be used in any manner that
 competes with the business of Gaussian, Inc. or will provide
 assistance to any competitor of Gaussian, Inc.  The licensee
 of this program is prohibited from giving any competitor of
 Gaussian, Inc. access to this program.  By using this program,
 the user acknowledges that Gaussian, Inc. is engaged in the
 business of creating and licensing software in the field of
 computational chemistry and represents and warrants to the
 licensee that it is not a competitor of Gaussian, Inc. and that
 it will not use this program in any manner prohibited above.
 ---------------------------------------------------------------
  

 Cite this work as:
 Gaussian 16, Revision A.03,
 M. J. Frisch, G. W. Trucks, H. B. Schlegel, G. E. Scuseria, 
 M. A. Robb, J. R. Cheeseman, G. Scalmani, V. Barone, 
 G. A. Petersson, H. Nakatsuji, X. Li, M. Caricato, A. V. Marenich, 
 J. Bloino, B. G. Janesko, R. Gomperts, B. Mennucci, H. P. Hratchian, 
 J. V. Ortiz, A. F. Izmaylov, J. L. Sonnenberg, D. Williams-Young, 
 F. Ding, F. Lipparini, F. Egidi, J. Goings, B. Peng, A. Petrone, 
 T. Henderson, D. Ranasinghe, V. G. Zakrzewski, J. Gao, N. Rega, 
 G. Zheng, W. Liang, M. Hada, M. Ehara, K. Toyota, R. Fukuda, 
 J. Hasegawa, M. Ishida, T. Nakajima, Y. Honda, O. Kitao, H. Nakai, 
 T. Vreven, K. Throssell, J. A. Montgomery, Jr., J. E. Peralta, 
 F. Ogliaro, M. J. Bearpark, J. J. Heyd, E. N. Brothers, K. N. Kudin, 
 V. N. Staroverov, T. A. Keith, R. Kobayashi, J. Normand, 
 K. Raghavachari, A. P. Rendell, J. C. Burant, S. S. Iyengar, 
 J. Tomasi, M. Cossi, J. M. Millam, M. Klene, C. Adamo, R. Cammi, 
 J. W. Ochterski, R. L. Martin, K. Morokuma, O. Farkas, 
 J. B. Foresman, and D. J. Fox, Gaussian, Inc., Wallingford CT, 2016.
 
 ******************************************
 Gaussian 16:  EM64L-G16RevA.03 25-Dec-2016
                26-Jan-2018 
 ******************************************
 %nprocshared=32
 Will use up to   32 processors via shared memory.
 %mem=32GB
 %chk=allatoms_t.chk
 ---------------------------------------
 #p wb97xd/cc-pvdz sp scf=(maxcycles=20)
 ---------------------------------------
 1/38=1,172=1/1;
 2/12=2,17=6,18=5,40=1/2;
 3/5=16,11=2,25=1,30=1,74=-58/1,2,3;
 4//1;
 5/5=2,7=20,38=5/2;
 6/7=2,8=2,9=2,10=2,28=1/1;
 99/5=1,9=1/99;
 Leave Link    1 at Fri Jan 26 11:53:46 2018, MaxMem=  4294967296 cpu:               2.7 elap:               0.1
 (Enter /share/apps/g16/l101.exe)
 ------------------
 Base pair stacking
 ------------------
 Symbolic Z-matrix:
 Charge =  0 Multiplicity = 1
 N                     0.31225  -2.17406  -7.14983 
 C                     1.65612  -1.63917  -7.44296 
 C                    -1.76604  -2.38819  -6.46268 
 N                    -1.42496  -3.59782  -7.05021 
 C                    -0.18652  -3.4204   -7.44067 
 H                     0.41656  -4.17226  -7.95052 
 N                    -2.95715  -0.67212  -5.36755 
 C                    -1.85237   0.07037  -5.49305 
 H                    -1.92001   1.07749  -5.08392 
 N                    -0.68209  -0.24295  -6.04547 
 C                    -0.70538  -1.50071  -6.51656 
 C                    -2.94871  -1.93332  -5.85169 
 N                    -4.05055  -2.67605  -5.72736 
 H                    -4.08929  -3.61496  -6.07113 
 H                    -4.87442  -2.3195   -5.2866 
 H                     1.81368  -1.65277  -8.43047 
 H                     1.72181  -0.6994   -7.10884 
 H                     2.34729  -2.20158  -6.98911 
 N                     1.41258   1.65329  -3.32179 
 C                     0.17698   1.11626  -3.05172 
 C                     1.74074   3.09294  -3.30107 
 N                    -3.16105   1.53446  -2.18892 
 H                    -3.9602    0.95516  -2.03079 
 H                    -3.2887    2.52136  -2.08673 
 N                    -0.93598   1.80795  -2.72469 
 C                    -1.97127   1.01227  -2.52305 
 N                    -1.92247  -0.35634  -2.63277 
 H                    -2.76372  -0.88511  -2.46052 
 C                    -0.78825  -1.08914  -2.96804 
 O                    -0.85114  -2.32266  -3.04025 
 C                     0.33209  -0.24802  -3.18767 
 N                     1.63879  -0.56118  -3.53607 
 C                     2.24132   0.59491  -3.60403 
 H                     3.29316   0.73304  -3.85667 
 H                     2.06188   3.37633  -4.20405 
 H                     0.92391   3.61538  -3.06 
 H                     2.45609   3.26374  -2.62438 
 H                    -7.42554  -2.88442  -2.10988 
 H                    -6.91234  -3.26669  -0.46819 
 H                    -6.29499  -1.82214  -1.27038 
 H                    -4.66856  -6.74217  -2.92442 
 C                    -4.55749  -5.67888  -2.71156 
 O                    -2.28915  -5.59001  -3.39995 
 C                    -3.29901  -5.0434   -2.95699 
 H                    -2.39375  -3.21355  -2.8139 
 N                    -3.2662   -3.69721  -2.65379 
 O                    -4.16824  -1.74738  -1.9178 
 C                    -4.29356  -2.93588  -2.15536 
 H                    -6.55533  -5.39854  -2.02175 
 C                    -5.57817  -4.96278  -2.22575 
 C                    -6.60102  -2.8478   -1.41353 
 N                    -5.47472  -3.61999  -1.94542 
 H                    -9.21563   2.76557  -1.94761 
 H                    -7.69541   2.32572  -1.55066 
 H                    -8.93874   1.94613  -0.56367 
 H                    -7.53131  -3.71079  -5.15469 
 H                    -9.10357  -3.32946  -4.6137 
 N                    -8.1349   -3.08345  -4.66248 
 C                    -7.66977  -1.96814  -4.09599 
 C                    -7.84908   0.05801  -2.86138 
 N                    -6.5434    0.36298  -2.94289 
 H                    -4.81778  -0.40187  -3.74153 
 C                    -5.88752  -0.5719   -3.62752 
 N                    -6.35159  -1.68967  -4.19569 
 H                    -10.9517   0.41708  -2.02655 
 C                    -9.99775   0.06907  -2.4238 
 N                    -9.8347   -1.03557  -3.11 
 C                    -8.47681  -1.05469  -3.39371 
 C                    -8.65741   2.05636  -1.51703 
 N                    -8.83766   0.78012  -2.23587 
 
 ITRead=  0  0  0  0  0  0  0  0  0  0  0  0  0  0  0  0  0  0  0  0
 ITRead=  0  0  0  0  0  0  0  0  0  0  0  0  0  0  0  0  0  0  0  0
 ITRead=  0  0  0  0  0  0  0  0  0  0  0  0  0  0  0  0  0  0  0  0
 ITRead=  0  0  0  0  0  0  0  0  0  0
 MicOpt= -1 -1 -1 -1 -1 -1 -1 -1 -1 -1 -1 -1 -1 -1 -1 -1 -1 -1 -1 -1
 MicOpt= -1 -1 -1 -1 -1 -1 -1 -1 -1 -1 -1 -1 -1 -1 -1 -1 -1 -1 -1 -1
 MicOpt= -1 -1 -1 -1 -1 -1 -1 -1 -1 -1 -1 -1 -1 -1 -1 -1 -1 -1 -1 -1
 MicOpt= -1 -1 -1 -1 -1 -1 -1 -1 -1 -1
 NAtoms=     70 NQM=       70 NQMF=       0 NMMI=      0 NMMIF=      0
                NMic=       0 NMicF=      0.
                    Isotopes and Nuclear Properties:
 (Nuclear quadrupole moments (NQMom) in fm**2, nuclear magnetic moments (NMagM)
  in nuclear magnetons)

  Atom         1           2           3           4           5           6           7           8           9          10
 IAtWgt=          14          12          12          14          12           1          14          12           1          14
 AtmWgt=  14.0030740  12.0000000  12.0000000  14.0030740  12.0000000   1.0078250  14.0030740  12.0000000   1.0078250  14.0030740
 NucSpn=           2           0           0           2           0           1           2           0           1           2
 AtZEff=  -0.0000000  -0.0000000  -0.0000000  -0.0000000  -0.0000000  -0.0000000  -0.0000000  -0.0000000  -0.0000000  -0.0000000
 NQMom=    2.0440000   0.0000000   0.0000000   2.0440000   0.0000000   0.0000000   2.0440000   0.0000000   0.0000000   2.0440000
 NMagM=    0.4037610   0.0000000   0.0000000   0.4037610   0.0000000   2.7928460   0.4037610   0.0000000   2.7928460   0.4037610
 AtZNuc=   7.0000000   6.0000000   6.0000000   7.0000000   6.0000000   1.0000000   7.0000000   6.0000000   1.0000000   7.0000000

  Atom        11          12          13          14          15          16          17          18          19          20
 IAtWgt=          12          12          14           1           1           1           1           1          14          12
 AtmWgt=  12.0000000  12.0000000  14.0030740   1.0078250   1.0078250   1.0078250   1.0078250   1.0078250  14.0030740  12.0000000
 NucSpn=           0           0           2           1           1           1           1           1           2           0
 AtZEff=  -0.0000000  -0.0000000  -0.0000000  -0.0000000  -0.0000000  -0.0000000  -0.0000000  -0.0000000  -0.0000000  -0.0000000
 NQMom=    0.0000000   0.0000000   2.0440000   0.0000000   0.0000000   0.0000000   0.0000000   0.0000000   2.0440000   0.0000000
 NMagM=    0.0000000   0.0000000   0.4037610   2.7928460   2.7928460   2.7928460   2.7928460   2.7928460   0.4037610   0.0000000
 AtZNuc=   6.0000000   6.0000000   7.0000000   1.0000000   1.0000000   1.0000000   1.0000000   1.0000000   7.0000000   6.0000000

  Atom        21          22          23          24          25          26          27          28          29          30
 IAtWgt=          12          14           1           1          14          12          14           1          12          16
 AtmWgt=  12.0000000  14.0030740   1.0078250   1.0078250  14.0030740  12.0000000  14.0030740   1.0078250  12.0000000  15.9949146
 NucSpn=           0           2           1           1           2           0           2           1           0           0
 AtZEff=  -0.0000000  -0.0000000  -0.0000000  -0.0000000  -0.0000000  -0.0000000  -0.0000000  -0.0000000  -0.0000000  -0.0000000
 NQMom=    0.0000000   2.0440000   0.0000000   0.0000000   2.0440000   0.0000000   2.0440000   0.0000000   0.0000000   0.0000000
 NMagM=    0.0000000   0.4037610   2.7928460   2.7928460   0.4037610   0.0000000   0.4037610   2.7928460   0.0000000   0.0000000
 AtZNuc=   6.0000000   7.0000000   1.0000000   1.0000000   7.0000000   6.0000000   7.0000000   1.0000000   6.0000000   8.0000000

  Atom        31          32          33          34          35          36          37          38          39          40
 IAtWgt=          12          14          12           1           1           1           1           1           1           1
 AtmWgt=  12.0000000  14.0030740  12.0000000   1.0078250   1.0078250   1.0078250   1.0078250   1.0078250   1.0078250   1.0078250
 NucSpn=           0           2           0           1           1           1           1           1           1           1
 AtZEff=  -0.0000000  -0.0000000  -0.0000000  -0.0000000  -0.0000000  -0.0000000  -0.0000000  -0.0000000  -0.0000000  -0.0000000
 NQMom=    0.0000000   2.0440000   0.0000000   0.0000000   0.0000000   0.0000000   0.0000000   0.0000000   0.0000000   0.0000000
 NMagM=    0.0000000   0.4037610   0.0000000   2.7928460   2.7928460   2.7928460   2.7928460   2.7928460   2.7928460   2.7928460
 AtZNuc=   6.0000000   7.0000000   6.0000000   1.0000000   1.0000000   1.0000000   1.0000000   1.0000000   1.0000000   1.0000000

  Atom        41          42          43          44          45          46          47          48          49          50
 IAtWgt=           1          12          16          12           1          14          16          12           1          12
 AtmWgt=   1.0078250  12.0000000  15.9949146  12.0000000   1.0078250  14.0030740  15.9949146  12.0000000   1.0078250  12.0000000
 NucSpn=           1           0           0           0           1           2           0           0           1           0
 AtZEff=  -0.0000000  -0.0000000  -0.0000000  -0.0000000  -0.0000000  -0.0000000  -0.0000000  -0.0000000  -0.0000000  -0.0000000
 NQMom=    0.0000000   0.0000000   0.0000000   0.0000000   0.0000000   2.0440000   0.0000000   0.0000000   0.0000000   0.0000000
 NMagM=    2.7928460   0.0000000   0.0000000   0.0000000   2.7928460   0.4037610   0.0000000   0.0000000   2.7928460   0.0000000
 AtZNuc=   1.0000000   6.0000000   8.0000000   6.0000000   1.0000000   7.0000000   8.0000000   6.0000000   1.0000000   6.0000000

  Atom        51          52          53          54          55          56          57          58          59          60
 IAtWgt=          12          14           1           1           1           1           1          14          12          12
 AtmWgt=  12.0000000  14.0030740   1.0078250   1.0078250   1.0078250   1.0078250   1.0078250  14.0030740  12.0000000  12.0000000
 NucSpn=           0           2           1           1           1           1           1           2           0           0
 AtZEff=  -0.0000000  -0.0000000  -0.0000000  -0.0000000  -0.0000000  -0.0000000  -0.0000000  -0.0000000  -0.0000000  -0.0000000
 NQMom=    0.0000000   2.0440000   0.0000000   0.0000000   0.0000000   0.0000000   0.0000000   2.0440000   0.0000000   0.0000000
 NMagM=    0.0000000   0.4037610   2.7928460   2.7928460   2.7928460   2.7928460   2.7928460   0.4037610   0.0000000   0.0000000
 AtZNuc=   6.0000000   7.0000000   1.0000000   1.0000000   1.0000000   1.0000000   1.0000000   7.0000000   6.0000000   6.0000000

  Atom        61          62          63          64          65          66          67          68          69          70
 IAtWgt=          14           1          12          14           1          12          14          12          12          14
 AtmWgt=  14.0030740   1.0078250  12.0000000  14.0030740   1.0078250  12.0000000  14.0030740  12.0000000  12.0000000  14.0030740
 NucSpn=           2           1           0           2           1           0           2           0           0           2
 AtZEff=  -0.0000000  -0.0000000  -0.0000000  -0.0000000  -0.0000000  -0.0000000  -0.0000000  -0.0000000  -0.0000000  -0.0000000
 NQMom=    2.0440000   0.0000000   0.0000000   2.0440000   0.0000000   0.0000000   2.0440000   0.0000000   0.0000000   2.0440000
 NMagM=    0.4037610   2.7928460   0.0000000   0.4037610   2.7928460   0.0000000   0.4037610   0.0000000   0.0000000   0.4037610
 AtZNuc=   7.0000000   1.0000000   6.0000000   7.0000000   1.0000000   6.0000000   7.0000000   6.0000000   6.0000000   7.0000000
 Leave Link  101 at Fri Jan 26 11:53:46 2018, MaxMem=  4294967296 cpu:               7.8 elap:               0.3
 (Enter /share/apps/g16/l202.exe)
 Stoichiometry    C23H27N17O3
 Framework group  C1[X(C23H27N17O3)]
 Deg. of freedom   204
 Full point group                 C1      NOp   1
 Largest Abelian subgroup         C1      NOp   1
 Largest concise Abelian subgroup C1      NOp   1
                         Standard orientation:                         
 ---------------------------------------------------------------------
 Center     Atomic      Atomic             Coordinates (Angstroms)
 Number     Number       Type             X           Y           Z
 ---------------------------------------------------------------------
      1          7           0        4.293343   -2.032653   -1.803272
      2          6           0        5.713155   -1.641601   -1.899349
      3          6           0        2.099957   -1.981288   -1.649211
      4          7           0        2.455160   -3.321899   -1.685621
      5          6           0        3.762374   -3.299185   -1.776974
      6          1           0        4.395734   -4.185243   -1.828949
      7          7           0        0.849926    0.016061   -1.544487
      8          6           0        2.018295    0.661565   -1.620760
      9          1           0        1.950794    1.748533   -1.606690
     10          7           0        3.251724    0.168278   -1.711389
     11          6           0        3.222336   -1.174657   -1.720878
     12          6           0        0.853999   -1.334839   -1.556388
     13          7           0       -0.311272   -1.980994   -1.480329
     14          1           0       -0.355737   -2.980605   -1.485813
     15          1           0       -1.179077   -1.488200   -1.415312
     16          1           0        6.102494   -2.000541   -2.747738
     17          1           0        5.786058   -0.644709   -1.895888
     18          1           0        6.217009   -2.013681   -1.119806
     19          7           0        4.798552    2.885410    0.660597
     20          6           0        3.488654    2.483680    0.764650
     21          6           0        5.248557    4.239549    0.280447
     22          7           0        0.097054    3.195952    0.537757
     23          1           0       -0.768409    2.713023    0.668092
     24          1           0        0.043796    4.156983    0.265193
     25          7           0        2.401313    3.252308    0.538898
     26          6           0        1.276554    2.583206    0.720036
     27          7           0        1.218868    1.262379    1.093671
     28          1           0        0.314189    0.831964    1.208855
     29          6           0        2.324785    0.452237    1.331313
     30          8           0        2.163148   -0.728286    1.664451
     31          6           0        3.540376    1.157140    1.140705
     32          7           0        4.856280    0.734577    1.270145
     33          6           0        5.565440    1.790509    0.976370
     34          1           0        6.655410    1.825657    0.974505
     35          1           0        5.803935    4.187482   -0.548805
     36          1           0        4.451694    4.817890    0.110742
     37          1           0        5.792287    4.632164    1.021404
     38          1           0       -4.463968   -0.892260    0.987445
     39          1           0       -4.401566   -0.679210    2.735406
     40          1           0       -3.473093    0.390137    1.683841
     41          1           0       -1.975110   -4.806738    2.263807
     42          6           0       -1.817250   -3.736784    2.127753
     43          8           0        0.547938   -3.907001    2.064073
     44          6           0       -0.481763   -3.234334    2.018840
     45          1           0        0.533397   -1.475091    1.768169
     46          7           0       -0.394151   -1.867314    1.849088
     47          8           0       -1.255879    0.221823    1.625205
     48          6           0       -1.433547   -0.973991    1.777307
     49          1           0       -3.886152   -3.221696    2.138830
     50          6           0       -2.851488   -2.890285    2.061496
     51          6           0       -3.832441   -0.619090    1.819689
     52          7           0       -2.690464   -1.534845    1.890539
     53          1           0       -5.689672    4.467757   -1.230890
     54          1           0       -4.359751    4.185937   -0.328673
     55          1           0       -5.835154    4.182442    0.369382
     56          1           0       -3.910026   -2.730562   -1.518296
     57          1           0       -5.522339   -2.175295   -1.565325
     58          7           0       -4.551565   -1.967326   -1.440544
     59          6           0       -4.132225   -0.726971   -1.181996
     60          6           0       -4.409155    1.603959   -0.792419
     61          7           0       -3.099389    1.853825   -0.629535
     62          1           0       -1.313556    0.848298   -0.646907
     63          6           0       -2.390391    0.734889   -0.764453
     64          7           0       -2.808538   -0.508363   -1.023418
     65          1           0       -7.572351    2.249730   -0.963582
     66          6           0       -6.588623    1.779420   -0.958288
     67          7           0       -6.371431    0.503668   -1.165578
     68          6           0       -4.993509    0.378910   -1.063168
     69          6           0       -5.322665    3.950757   -0.457582
     70          7           0       -5.445558    2.504759   -0.725900
 ---------------------------------------------------------------------
 Rotational constants (GHZ):           0.1252581           0.0587889           0.0493382
 Leave Link  202 at Fri Jan 26 11:53:46 2018, MaxMem=  4294967296 cpu:               6.8 elap:               0.3
 (Enter /share/apps/g16/l301.exe)
 Standard basis: CC-pVDZ (5D, 7F)
 Ernie: Thresh=  0.10000D-02 Tol=  0.10000D-05 Strict=F.
 Ernie:  86 primitive shells out of 1081 were deleted.
 There are   780 symmetry adapted cartesian basis functions of A   symmetry.
 There are   737 symmetry adapted basis functions of A   symmetry.
   737 basis functions,  1608 primitive gaussians,   780 cartesian basis functions
   154 alpha electrons      154 beta electrons
       nuclear repulsion energy      5498.0308966672 Hartrees.
 IExCor= 4639 DFT=T Ex+Corr=wB97XD ExCW=0 ScaHFX=  1.000000
 ScaDFX=  1.000000  1.000000  1.000000  1.000000 ScalE2=  1.000000  1.000000
 IRadAn=      5 IRanWt=     -1 IRanGd=            0 ICorTp=0 IEmpDi=121
 HFx  wShort=  0.000000 wLong=  0.200000 cFull=  0.222036 cShort=  0.000000 cLong=  0.777964
 DFx  wShort=  0.000000 wLong=  0.200000 cFull=  0.000000 cShort=  0.000000 cLong=  1.000000
 NAtoms=   70 NActive=   70 NUniq=   70 SFac= 1.00D+00 NAtFMM=   60 NAOKFM=T Big=T
 Integral buffers will be    131072 words long.
 Raffenetti 2 integral format.
 Two-electron integral symmetry is turned on.
 R6Disp:  Grimme-D2 Dispersion energy=       -0.0707627012 Hartrees.
 Nuclear repulsion after empirical dispersion term =     5497.9601339660 Hartrees.
 Leave Link  301 at Fri Jan 26 11:53:46 2018, MaxMem=  4294967296 cpu:               3.0 elap:               0.1
 (Enter /share/apps/g16/l302.exe)
 NPDir=0 NMtPBC=     1 NCelOv=     1 NCel=       1 NClECP=     1 NCelD=      1
         NCelK=      1 NCelE2=     1 NClLst=     1 CellRange=     0.0.
 One-electron integrals computed using PRISM.
 One-electron integral symmetry used in STVInt
 NBasis=   737 RedAO= T EigKep=  6.90D-04  NBF=   737
 NBsUse=   737 1.00D-06 EigRej= -1.00D+00 NBFU=   737
 Precomputing XC quadrature grid using
 IXCGrd= 4 IRadAn=           5 IRanWt=          -1 IRanGd=           0 AccXCQ= 0.00D+00.
 Generated NRdTot=       0 NPtTot=           0 NUsed=           0 NTot=          32
 NSgBfM=   756   755   755   755   756 MxSgAt=    70 MxSgA2=    70.
 Leave Link  302 at Fri Jan 26 11:53:51 2018, MaxMem=  4294967296 cpu:             137.9 elap:               4.4
 (Enter /share/apps/g16/l303.exe)
 DipDrv:  MaxL=1.
 Leave Link  303 at Fri Jan 26 11:53:51 2018, MaxMem=  4294967296 cpu:              12.6 elap:               0.4
 (Enter /share/apps/g16/l401.exe)
 ExpMin= 1.22D-01 ExpMax= 1.17D+04 ExpMxC= 4.01D+02 IAcc=3 IRadAn=         5 AccDes= 0.00D+00
 Harris functional with IExCor= 4639 and IRadAn=       5 diagonalized for initial guess.
 HarFok:  IExCor= 4639 AccDes= 0.00D+00 IRadAn=         5 IDoV= 1 UseB2=F ITyADJ=14
 ICtDFT=  3500011 ScaDFX=  1.000000  1.000000  1.000000  1.000000
 FoFCou: FMM=F IPFlag=           0 FMFlag=      100000 FMFlg1=        2001
         NFxFlg=           0 DoJE=T BraDBF=F KetDBF=T FulRan=T
         wScrn=  0.000000 ICntrl=       500 IOpCl=  0 I1Cent=   200000004 NGrid=           0
         NMat0=    1 NMatS0=      1 NMatT0=    0 NMatD0=    1 NMtDS0=    0 NMtDT0=    0
 Petite list used in FoFCou.
 Harris En= -1963.87342785397    
 JPrj=0 DoOrth=F DoCkMO=F.
 Leave Link  401 at Fri Jan 26 11:54:04 2018, MaxMem=  4294967296 cpu:             401.1 elap:              12.6
 (Enter /share/apps/g16/l502.exe)
 Integral symmetry usage will be decided dynamically.
 Closed shell SCF:
 Using DIIS extrapolation, IDIIS=  1040.
 NGot=  4294967296 LenX=  4293717438 LenY=  4293108258
 Requested convergence on RMS density matrix=1.00D-08 within  20 cycles.
 Requested convergence on MAX density matrix=1.00D-06.
 Requested convergence on             energy=1.00D-06.
 No special actions if energy rises.
 Fock matrices will be formed incrementally for  20 cycles.
 Integral accuracy reduced to 1.0D-05 until final iterations.

 Cycle   1  Pass 0  IDiag  1:
 FoFJK:  IHMeth= 1 ICntrl=       0 DoSepK=T KAlg= 0 I1Cent=           0 FoldK=F
 IRaf=         1 NMat=       1 IRICut=       1 DoRegI=T DoRafI=F ISym2E= 0 IDoP0=0 IntGTp=1.
 FoFCou: FMM=T IPFlag=           0 FMFlag=      100000 FMFlg1=        2001
         NFxFlg=           0 DoJE=T BraDBF=F KetDBF=F FulRan=T
         wScrn=  0.000000 ICntrl=       500 IOpCl=  0 I1Cent=           0 NGrid=           0
         NMat0=    1 NMatS0=      1 NMatT0=    0 NMatD0=    1 NMtDS0=    0 NMtDT0=    0
 Symmetry not used in FoFCou.
 FMM levels:  10  Number of levels for PrismC:   9
 E= -2048.30930116463    
 DIIS: error= 2.60D-02 at cycle   1 NSaved=   1.
 NSaved= 1 IEnMin= 1 EnMin= -2048.30930116463     IErMin= 1 ErrMin= 2.60D-02
 ErrMax= 2.60D-02  0.00D+00 EMaxC= 1.00D-01 BMatC= 8.28D-01 BMatP= 8.28D-01
 IDIUse=3 WtCom= 7.40D-01 WtEn= 2.60D-01
 Coeff-Com:  0.100D+01
 Coeff-En:   0.100D+01
 Coeff:      0.100D+01
 Gap=     0.256 Goal=   None    Shift=    0.000
 GapD=    0.256 DampG=1.000 DampE=0.500 DampFc=0.5000 IDamp=-1.
 Damping current iteration by 5.00D-01
 RMSDP=1.54D-03 MaxDP=1.33D-01              OVMax= 1.91D-01

 Cycle   2  Pass 0  IDiag  1:
 RMSU=  7.70D-04    CP:  9.98D-01
 E= -2048.50736463892     Delta-E=       -0.198063474286 Rises=F Damp=T
 DIIS: error= 1.45D-02 at cycle   2 NSaved=   2.
 NSaved= 2 IEnMin= 2 EnMin= -2048.50736463892     IErMin= 2 ErrMin= 1.45D-02
 ErrMax= 1.45D-02  0.00D+00 EMaxC= 1.00D-01 BMatC= 1.44D-01 BMatP= 8.28D-01
 IDIUse=3 WtCom= 8.55D-01 WtEn= 1.45D-01
 Coeff-Com: -0.210D+00 0.121D+01
 Coeff-En:   0.000D+00 0.100D+01
 Coeff:     -0.179D+00 0.118D+01
 Gap=     0.283 Goal=   None    Shift=    0.000
 RMSDP=5.81D-04 MaxDP=3.61D-02 DE=-1.98D-01 OVMax= 1.64D-01

 Cycle   3  Pass 0  IDiag  1:
 RMSU=  5.61D-04    CP:  9.94D-01  1.19D+00
 E= -2048.68864323526     Delta-E=       -0.181278596347 Rises=F Damp=F
 DIIS: error= 9.71D-03 at cycle   3 NSaved=   3.
 NSaved= 3 IEnMin= 3 EnMin= -2048.68864323526     IErMin= 3 ErrMin= 9.71D-03
 ErrMax= 9.71D-03  0.00D+00 EMaxC= 1.00D-01 BMatC= 5.76D-02 BMatP= 1.44D-01
 IDIUse=3 WtCom= 9.03D-01 WtEn= 9.71D-02
 Coeff-Com: -0.229D+00 0.540D+00 0.689D+00
 Coeff-En:   0.000D+00 0.000D+00 0.100D+01
 Coeff:     -0.207D+00 0.488D+00 0.719D+00
 Gap=     0.281 Goal=   None    Shift=    0.000
 RMSDP=3.35D-04 MaxDP=3.67D-02 DE=-1.81D-01 OVMax= 7.67D-02

 Cycle   4  Pass 0  IDiag  1:
 RMSU=  1.94D-04    CP:  9.94D-01  1.45D+00  6.80D-01
 E= -2048.73094089050     Delta-E=       -0.042297655234 Rises=F Damp=F
 DIIS: error= 4.26D-03 at cycle   4 NSaved=   4.
 NSaved= 4 IEnMin= 4 EnMin= -2048.73094089050     IErMin= 4 ErrMin= 4.26D-03
 ErrMax= 4.26D-03  0.00D+00 EMaxC= 1.00D-01 BMatC= 9.24D-03 BMatP= 5.76D-02
 IDIUse=3 WtCom= 9.57D-01 WtEn= 4.26D-02
 Coeff-Com: -0.910D-01 0.176D+00 0.386D+00 0.529D+00
 Coeff-En:   0.000D+00 0.000D+00 0.779D-01 0.922D+00
 Coeff:     -0.872D-01 0.168D+00 0.373D+00 0.546D+00
 Gap=     0.285 Goal=   None    Shift=    0.000
 RMSDP=1.24D-04 MaxDP=1.41D-02 DE=-4.23D-02 OVMax= 1.73D-02

 Cycle   5  Pass 0  IDiag  1:
 RMSU=  6.12D-05    CP:  9.93D-01  1.43D+00  8.16D-01  6.26D-01
 E= -2048.73818409667     Delta-E=       -0.007243206171 Rises=F Damp=F
 DIIS: error= 6.67D-04 at cycle   5 NSaved=   5.
 NSaved= 5 IEnMin= 5 EnMin= -2048.73818409667     IErMin= 5 ErrMin= 6.67D-04
 ErrMax= 6.67D-04  0.00D+00 EMaxC= 1.00D-01 BMatC= 3.13D-04 BMatP= 9.24D-03
 IDIUse=3 WtCom= 9.93D-01 WtEn= 6.67D-03
 Coeff-Com: -0.234D-01 0.398D-01 0.127D+00 0.249D+00 0.607D+00
 Coeff-En:   0.000D+00 0.000D+00 0.000D+00 0.000D+00 0.100D+01
 Coeff:     -0.232D-01 0.396D-01 0.126D+00 0.248D+00 0.610D+00
 Gap=     0.282 Goal=   None    Shift=    0.000
 RMSDP=2.51D-05 MaxDP=2.96D-03 DE=-7.24D-03 OVMax= 4.33D-03

 Failed to achieve initial convergence to 1.0D-08 in  6 cycles.
 Switch to full accuracy anyway.
 Cycle   6  Pass 1  IDiag  1:
 E= -2048.73852811277     Delta-E=       -0.000344016101 Rises=F Damp=F
 DIIS: error= 2.34D-04 at cycle   1 NSaved=   1.
 NSaved= 1 IEnMin= 1 EnMin= -2048.73852811277     IErMin= 1 ErrMin= 2.34D-04
 ErrMax= 2.34D-04  0.00D+00 EMaxC= 1.00D-01 BMatC= 7.73D-05 BMatP= 7.73D-05
 IDIUse=3 WtCom= 9.98D-01 WtEn= 2.34D-03
 Coeff-Com:  0.100D+01
 Coeff-En:   0.100D+01
 Coeff:      0.100D+01
 Gap=     0.282 Goal=   None    Shift=    0.000
 RMSDP=2.51D-05 MaxDP=2.96D-03 DE=-3.44D-04 OVMax= 2.21D-03

 Cycle   7  Pass 1  IDiag  1:
 RMSU=  1.08D-04    CP:  1.00D+00
 E= -2048.73857559269     Delta-E=       -0.000047479921 Rises=F Damp=F
 DIIS: error= 3.20D-04 at cycle   2 NSaved=   2.
 NSaved= 2 IEnMin= 2 EnMin= -2048.73857559269     IErMin= 1 ErrMin= 2.34D-04
 ErrMax= 3.20D-04  0.00D+00 EMaxC= 1.00D-01 BMatC= 5.43D-05 BMatP= 7.73D-05
 IDIUse=3 WtCom= 9.97D-01 WtEn= 3.20D-03
 Coeff-Com:  0.442D+00 0.558D+00
 Coeff-En:   0.100D+00 0.900D+00
 Coeff:      0.441D+00 0.559D+00
 Gap=     0.282 Goal=   None    Shift=    0.000
 RMSDP=1.12D-05 MaxDP=1.66D-03 DE=-4.75D-05 OVMax= 1.87D-03

 Cycle   8  Pass 1  IDiag  1:
 RMSU=  1.10D-05    CP:  1.00D+00  1.02D+00
 E= -2048.73861317468     Delta-E=       -0.000037581993 Rises=F Damp=F
 DIIS: error= 1.48D-04 at cycle   3 NSaved=   3.
 NSaved= 3 IEnMin= 3 EnMin= -2048.73861317468     IErMin= 3 ErrMin= 1.48D-04
 ErrMax= 1.48D-04  0.00D+00 EMaxC= 1.00D-01 BMatC= 1.03D-05 BMatP= 5.43D-05
 IDIUse=3 WtCom= 9.99D-01 WtEn= 1.48D-03
 Coeff-Com: -0.186D-01 0.290D+00 0.729D+00
 Coeff-En:   0.000D+00 0.107D+00 0.893D+00
 Coeff:     -0.185D-01 0.290D+00 0.729D+00
 Gap=     0.282 Goal=   None    Shift=    0.000
 RMSDP=5.50D-06 MaxDP=5.66D-04 DE=-3.76D-05 OVMax= 5.44D-04

 Cycle   9  Pass 1  IDiag  1:
 RMSU=  3.75D-06    CP:  1.00D+00  1.05D+00  7.79D-01
 E= -2048.73862216466     Delta-E=       -0.000008989981 Rises=F Damp=F
 DIIS: error= 3.33D-05 at cycle   4 NSaved=   4.
 NSaved= 4 IEnMin= 4 EnMin= -2048.73862216466     IErMin= 4 ErrMin= 3.33D-05
 ErrMax= 3.33D-05  0.00D+00 EMaxC= 1.00D-01 BMatC= 4.40D-07 BMatP= 1.03D-05
 IDIUse=1 WtCom= 1.00D+00 WtEn= 0.00D+00
 Coeff-Com: -0.304D-01 0.782D-01 0.254D+00 0.698D+00
 Coeff:     -0.304D-01 0.782D-01 0.254D+00 0.698D+00
 Gap=     0.282 Goal=   None    Shift=    0.000
 RMSDP=1.36D-06 MaxDP=1.37D-04 DE=-8.99D-06 OVMax= 4.95D-04

 Cycle  10  Pass 1  IDiag  1:
 RMSU=  1.21D-06    CP:  1.00D+00  1.05D+00  8.05D-01  1.12D+00
 E= -2048.73862292065     Delta-E=       -0.000000755990 Rises=F Damp=F
 DIIS: error= 1.20D-05 at cycle   5 NSaved=   5.
 NSaved= 5 IEnMin= 5 EnMin= -2048.73862292065     IErMin= 5 ErrMin= 1.20D-05
 ErrMax= 1.20D-05  0.00D+00 EMaxC= 1.00D-01 BMatC= 9.88D-08 BMatP= 4.40D-07
 IDIUse=1 WtCom= 1.00D+00 WtEn= 0.00D+00
 Coeff-Com: -0.205D-02-0.504D-01-0.131D+00 0.174D+00 0.101D+01
 Coeff:     -0.205D-02-0.504D-01-0.131D+00 0.174D+00 0.101D+01
 Gap=     0.282 Goal=   None    Shift=    0.000
 RMSDP=1.16D-06 MaxDP=7.25D-05 DE=-7.56D-07 OVMax= 2.43D-04

 Cycle  11  Pass 1  IDiag  1:
 RMSU=  4.65D-07    CP:  1.00D+00  1.05D+00  8.08D-01  1.39D+00  1.19D+00
 E= -2048.73862314367     Delta-E=       -0.000000223016 Rises=F Damp=F
 DIIS: error= 9.83D-06 at cycle   6 NSaved=   6.
 NSaved= 6 IEnMin= 6 EnMin= -2048.73862314367     IErMin= 6 ErrMin= 9.83D-06
 ErrMax= 9.83D-06  0.00D+00 EMaxC= 1.00D-01 BMatC= 2.69D-08 BMatP= 9.88D-08
 IDIUse=1 WtCom= 1.00D+00 WtEn= 0.00D+00
 Coeff-Com:  0.448D-02-0.393D-01-0.114D+00-0.964D-02 0.549D+00 0.610D+00
 Coeff:      0.448D-02-0.393D-01-0.114D+00-0.964D-02 0.549D+00 0.610D+00
 Gap=     0.282 Goal=   None    Shift=    0.000
 RMSDP=3.31D-07 MaxDP=3.64D-05 DE=-2.23D-07 OVMax= 1.20D-04

 Cycle  12  Pass 1  IDiag  1:
 RMSU=  1.80D-07    CP:  1.00D+00  1.05D+00  8.09D-01  1.45D+00  1.32D+00
                    CP:  9.00D-01
 E= -2048.73862317938     Delta-E=       -0.000000035716 Rises=F Damp=F
 DIIS: error= 1.02D-06 at cycle   7 NSaved=   7.
 NSaved= 7 IEnMin= 7 EnMin= -2048.73862317938     IErMin= 7 ErrMin= 1.02D-06
 ErrMax= 1.02D-06  0.00D+00 EMaxC= 1.00D-01 BMatC= 7.75D-10 BMatP= 2.69D-08
 IDIUse=1 WtCom= 1.00D+00 WtEn= 0.00D+00
 Coeff-Com:  0.107D-02-0.631D-02-0.205D-01-0.868D-02 0.627D-01 0.141D+00
 Coeff-Com:  0.831D+00
 Coeff:      0.107D-02-0.631D-02-0.205D-01-0.868D-02 0.627D-01 0.141D+00
 Coeff:      0.831D+00
 Gap=     0.282 Goal=   None    Shift=    0.000
 RMSDP=7.86D-08 MaxDP=5.12D-06 DE=-3.57D-08 OVMax= 2.20D-05

 Cycle  13  Pass 1  IDiag  1:
 RMSU=  4.95D-08    CP:  1.00D+00  1.05D+00  8.09D-01  1.46D+00  1.34D+00
                    CP:  9.87D-01  1.11D+00
 E= -2048.73862318110     Delta-E=       -0.000000001713 Rises=F Damp=F
 DIIS: error= 5.16D-07 at cycle   8 NSaved=   8.
 NSaved= 8 IEnMin= 8 EnMin= -2048.73862318110     IErMin= 8 ErrMin= 5.16D-07
 ErrMax= 5.16D-07  0.00D+00 EMaxC= 1.00D-01 BMatC= 2.94D-10 BMatP= 7.75D-10
 IDIUse=1 WtCom= 1.00D+00 WtEn= 0.00D+00
 Coeff-Com: -0.671D-03 0.759D-02 0.204D-01-0.864D-04-0.117D+00-0.913D-01
 Coeff-Com:  0.410D+00 0.772D+00
 Coeff:     -0.671D-03 0.759D-02 0.204D-01-0.864D-04-0.117D+00-0.913D-01
 Coeff:      0.410D+00 0.772D+00
 Gap=     0.282 Goal=   None    Shift=    0.000
 RMSDP=4.66D-08 MaxDP=2.77D-06 DE=-1.71D-09 OVMax= 1.16D-05

 Cycle  14  Pass 1  IDiag  1:
 RMSU=  2.63D-08    CP:  1.00D+00  1.05D+00  8.08D-01  1.46D+00  1.34D+00
                    CP:  1.03D+00  1.27D+00  1.08D+00
 E= -2048.73862318143     Delta-E=       -0.000000000332 Rises=F Damp=F
 DIIS: error= 2.10D-07 at cycle   9 NSaved=   9.
 NSaved= 9 IEnMin= 9 EnMin= -2048.73862318143     IErMin= 9 ErrMin= 2.10D-07
 ErrMax= 2.10D-07  0.00D+00 EMaxC= 1.00D-01 BMatC= 2.81D-11 BMatP= 2.94D-10
 IDIUse=1 WtCom= 1.00D+00 WtEn= 0.00D+00
 Coeff-Com: -0.400D-03 0.391D-02 0.108D-01 0.132D-02-0.551D-01-0.528D-01
 Coeff-Com:  0.806D-01 0.308D+00 0.703D+00
 Coeff:     -0.400D-03 0.391D-02 0.108D-01 0.132D-02-0.551D-01-0.528D-01
 Coeff:      0.806D-01 0.308D+00 0.703D+00
 Gap=     0.282 Goal=   None    Shift=    0.000
 RMSDP=1.26D-08 MaxDP=7.89D-07 DE=-3.32D-10 OVMax= 3.38D-06

 Cycle  15  Pass 1  IDiag  1:
 RMSU=  8.73D-09    CP:  1.00D+00  1.05D+00  8.08D-01  1.46D+00  1.34D+00
                    CP:  1.04D+00  1.29D+00  1.22D+00  1.11D+00
 E= -2048.73862318162     Delta-E=       -0.000000000189 Rises=F Damp=F
 DIIS: error= 5.83D-08 at cycle  10 NSaved=  10.
 NSaved=10 IEnMin=10 EnMin= -2048.73862318162     IErMin=10 ErrMin= 5.83D-08
 ErrMax= 5.83D-08  0.00D+00 EMaxC= 1.00D-01 BMatC= 4.76D-12 BMatP= 2.81D-11
 IDIUse=1 WtCom= 1.00D+00 WtEn= 0.00D+00
 Coeff-Com:  0.921D-05-0.330D-03-0.749D-03 0.107D-03 0.626D-02 0.159D-02
 Coeff-Com: -0.596D-01-0.632D-01 0.259D+00 0.857D+00
 Coeff:      0.921D-05-0.330D-03-0.749D-03 0.107D-03 0.626D-02 0.159D-02
 Coeff:     -0.596D-01-0.632D-01 0.259D+00 0.857D+00
 Gap=     0.282 Goal=   None    Shift=    0.000
 RMSDP=6.84D-09 MaxDP=3.88D-07 DE=-1.89D-10 OVMax= 1.56D-06

 SCF Done:  E(RwB97XD) =  -2048.73862318     A.U. after   15 cycles
            NFock= 15  Conv=0.68D-08     -V/T= 2.0054
 KE= 2.037798188838D+03 PE=-1.577660587945D+04 EE= 6.192108933463D+03
 Leave Link  502 at Fri Jan 26 12:05:23 2018, MaxMem=  4294967296 cpu:           21052.0 elap:             679.1
 (Enter /share/apps/g16/l601.exe)
 Copying SCF densities to generalized density rwf, IOpCl= 0 IROHF=0.

 **********************************************************************

            Population analysis using the SCF density.

 **********************************************************************

 Orbital symmetries:
       Occupied  (A) (A) (A) (A) (A) (A) (A) (A) (A) (A) (A) (A)
                 (A) (A) (A) (A) (A) (A) (A) (A) (A) (A) (A) (A)
                 (A) (A) (A) (A) (A) (A) (A) (A) (A) (A) (A) (A)
                 (A) (A) (A) (A) (A) (A) (A) (A) (A) (A) (A) (A)
                 (A) (A) (A) (A) (A) (A) (A) (A) (A) (A) (A) (A)
                 (A) (A) (A) (A) (A) (A) (A) (A) (A) (A) (A) (A)
                 (A) (A) (A) (A) (A) (A) (A) (A) (A) (A) (A) (A)
                 (A) (A) (A) (A) (A) (A) (A) (A) (A) (A) (A) (A)
                 (A) (A) (A) (A) (A) (A) (A) (A) (A) (A) (A) (A)
                 (A) (A) (A) (A) (A) (A) (A) (A) (A) (A) (A) (A)
                 (A) (A) (A) (A) (A) (A) (A) (A) (A) (A) (A) (A)
                 (A) (A) (A) (A) (A) (A) (A) (A) (A) (A) (A) (A)
                 (A) (A) (A) (A) (A) (A) (A) (A) (A) (A)
       Virtual   (A) (A) (A) (A) (A) (A) (A) (A) (A) (A) (A) (A)
                 (A) (A) (A) (A) (A) (A) (A) (A) (A) (A) (A) (A)
                 (A) (A) (A) (A) (A) (A) (A) (A) (A) (A) (A) (A)
                 (A) (A) (A) (A) (A) (A) (A) (A) (A) (A) (A) (A)
                 (A) (A) (A) (A) (A) (A) (A) (A) (A) (A) (A) (A)
                 (A) (A) (A) (A) (A) (A) (A) (A) (A) (A) (A) (A)
                 (A) (A) (A) (A) (A) (A) (A) (A) (A) (A) (A) (A)
                 (A) (A) (A) (A) (A) (A) (A) (A) (A) (A) (A) (A)
                 (A) (A) (A) (A) (A) (A) (A) (A) (A) (A) (A) (A)
                 (A) (A) (A) (A) (A) (A) (A) (A) (A) (A) (A) (A)
                 (A) (A) (A) (A) (A) (A) (A) (A) (A) (A) (A) (A)
                 (A) (A) (A) (A) (A) (A) (A) (A) (A) (A) (A) (A)
                 (A) (A) (A) (A) (A) (A) (A) (A) (A) (A) (A) (A)
                 (A) (A) (A) (A) (A) (A) (A) (A) (A) (A) (A) (A)
                 (A) (A) (A) (A) (A) (A) (A) (A) (A) (A) (A) (A)
                 (A) (A) (A) (A) (A) (A) (A) (A) (A) (A) (A) (A)
                 (A) (A) (A) (A) (A) (A) (A) (A) (A) (A) (A) (A)
                 (A) (A) (A) (A) (A) (A) (A) (A) (A) (A) (A) (A)
                 (A) (A) (A) (A) (A) (A) (A) (A) (A) (A) (A) (A)
                 (A) (A) (A) (A) (A) (A) (A) (A) (A) (A) (A) (A)
                 (A) (A) (A) (A) (A) (A) (A) (A) (A) (A) (A) (A)
                 (A) (A) (A) (A) (A) (A) (A) (A) (A) (A) (A) (A)
                 (A) (A) (A) (A) (A) (A) (A) (A) (A) (A) (A) (A)
                 (A) (A) (A) (A) (A) (A) (A) (A) (A) (A) (A) (A)
                 (A) (A) (A) (A) (A) (A) (A) (A) (A) (A) (A) (A)
                 (A) (A) (A) (A) (A) (A) (A) (A) (A) (A) (A) (A)
                 (A) (A) (A) (A) (A) (A) (A) (A) (A) (A) (A) (A)
                 (A) (A) (A) (A) (A) (A) (A) (A) (A) (A) (A) (A)
                 (A) (A) (A) (A) (A) (A) (A) (A) (A) (A) (A) (A)
                 (A) (A) (A) (A) (A) (A) (A) (A) (A) (A) (A) (A)
                 (A) (A) (A) (A) (A) (A) (A) (A) (A) (A) (A) (A)
                 (A) (A) (A) (A) (A) (A) (A) (A) (A) (A) (A) (A)
                 (A) (A) (A) (A) (A) (A) (A) (A) (A) (A) (A) (A)
                 (A) (A) (A) (A) (A) (A) (A) (A) (A) (A) (A) (A)
                 (A) (A) (A) (A) (A) (A) (A) (A) (A) (A) (A) (A)
                 (A) (A) (A) (A) (A) (A) (A) (A) (A) (A) (A) (A)
                 (A) (A) (A) (A) (A) (A) (A) (A) (A) (A) (A) (A)
                 (A) (A) (A) (A) (A) (A) (A) (A) (A) (A) (A) (A)
                 (A) (A) (A) (A) (A) (A) (A) (A) (A) (A) (A) (A)
                 (A) (A) (A) (A) (A) (A) (A) (A) (A) (A) (A) (A)
                 (A) (A) (A) (A) (A) (A) (A) (A) (A) (A) (A) (A)
                 (A) (A) (A) (A) (A) (A) (A) (A) (A) (A) (A) (A)
                 (A) (A) (A) (A) (A) (A) (A) (A) (A) (A) (A) (A)
                 (A) (A) (A) (A) (A) (A) (A) (A) (A) (A) (A) (A)
                 (A) (A) (A) (A) (A) (A) (A) (A) (A) (A) (A) (A)
                 (A) (A) (A) (A) (A) (A) (A) (A) (A) (A) (A) (A)
                 (A) (A) (A) (A) (A) (A) (A) (A) (A) (A) (A) (A)
                 (A) (A) (A) (A) (A) (A) (A) (A) (A) (A) (A) (A)
                 (A) (A) (A) (A) (A) (A) (A)
 The electronic state is 1-A.
 Alpha  occ. eigenvalues --  -19.25040 -19.21082 -19.20453 -14.52771 -14.51614
 Alpha  occ. eigenvalues --  -14.49409 -14.48717 -14.48343 -14.46995 -14.46380
 Alpha  occ. eigenvalues --  -14.46201 -14.45679 -14.45191 -14.45128 -14.43340
 Alpha  occ. eigenvalues --  -14.41875 -14.41144 -14.41009 -14.40886 -14.40644
 Alpha  occ. eigenvalues --  -10.44624 -10.40889 -10.40812 -10.39218 -10.38231
 Alpha  occ. eigenvalues --  -10.37947 -10.37807 -10.37136 -10.36593 -10.35906
 Alpha  occ. eigenvalues --  -10.34124 -10.34089 -10.34045 -10.33832 -10.33347
 Alpha  occ. eigenvalues --  -10.33229 -10.33194 -10.33036 -10.30952 -10.30467
 Alpha  occ. eigenvalues --  -10.30111 -10.28572 -10.27901  -1.18689  -1.15583
 Alpha  occ. eigenvalues --   -1.12980  -1.12123  -1.11044  -1.10453  -1.10223
 Alpha  occ. eigenvalues --   -1.08529  -1.08292  -1.05738  -1.05401  -1.01622
 Alpha  occ. eigenvalues --   -1.01357  -1.00930  -0.99361  -0.98332  -0.97722
 Alpha  occ. eigenvalues --   -0.96751  -0.96491  -0.93076  -0.90340  -0.88185
 Alpha  occ. eigenvalues --   -0.86273  -0.84000  -0.83732  -0.82811  -0.82400
 Alpha  occ. eigenvalues --   -0.81940  -0.78131  -0.77693  -0.75556  -0.74431
 Alpha  occ. eigenvalues --   -0.73299  -0.73102  -0.72558  -0.71227  -0.71044
 Alpha  occ. eigenvalues --   -0.67568  -0.67066  -0.66480  -0.65808  -0.64896
 Alpha  occ. eigenvalues --   -0.64100  -0.63329  -0.62957  -0.62384  -0.61474
 Alpha  occ. eigenvalues --   -0.61150  -0.60873  -0.60320  -0.60038  -0.59150
 Alpha  occ. eigenvalues --   -0.58850  -0.57961  -0.57057  -0.56466  -0.56015
 Alpha  occ. eigenvalues --   -0.55715  -0.55697  -0.55561  -0.55173  -0.54107
 Alpha  occ. eigenvalues --   -0.53833  -0.53736  -0.53267  -0.53120  -0.52758
 Alpha  occ. eigenvalues --   -0.52261  -0.51773  -0.51452  -0.50543  -0.50524
 Alpha  occ. eigenvalues --   -0.49966  -0.49854  -0.49321  -0.48941  -0.48892
 Alpha  occ. eigenvalues --   -0.48546  -0.47845  -0.47718  -0.47503  -0.46951
 Alpha  occ. eigenvalues --   -0.46809  -0.45646  -0.45234  -0.44574  -0.43146
 Alpha  occ. eigenvalues --   -0.41326  -0.41187  -0.38921  -0.38290  -0.38198
 Alpha  occ. eigenvalues --   -0.37457  -0.37114  -0.36775  -0.35574  -0.35246
 Alpha  occ. eigenvalues --   -0.35050  -0.34189  -0.33600  -0.33236  -0.32730
 Alpha  occ. eigenvalues --   -0.32518  -0.32196  -0.31705  -0.31084  -0.30748
 Alpha  occ. eigenvalues --   -0.30626  -0.30219  -0.26520  -0.24812
 Alpha virt. eigenvalues --    0.03412   0.03756   0.06467   0.07857   0.09050
 Alpha virt. eigenvalues --    0.09354   0.09799   0.10206   0.10871   0.11480
 Alpha virt. eigenvalues --    0.13595   0.14431   0.14510   0.14630   0.15063
 Alpha virt. eigenvalues --    0.15960   0.16511   0.16997   0.17278   0.17687
 Alpha virt. eigenvalues --    0.19575   0.19724   0.19910   0.20236   0.20544
 Alpha virt. eigenvalues --    0.20829   0.20937   0.21100   0.21612   0.21797
 Alpha virt. eigenvalues --    0.22418   0.22812   0.23612   0.23983   0.24100
 Alpha virt. eigenvalues --    0.24340   0.24443   0.24581   0.24837   0.25311
 Alpha virt. eigenvalues --    0.25512   0.25976   0.27495   0.27777   0.28588
 Alpha virt. eigenvalues --    0.28965   0.29158   0.29964   0.30652   0.30894
 Alpha virt. eigenvalues --    0.31574   0.32316   0.32873   0.32941   0.33453
 Alpha virt. eigenvalues --    0.34313   0.34731   0.35198   0.35752   0.36680
 Alpha virt. eigenvalues --    0.36983   0.37148   0.38206   0.38772   0.39386
 Alpha virt. eigenvalues --    0.39704   0.40483   0.41116   0.41531   0.41718
 Alpha virt. eigenvalues --    0.42408   0.42954   0.43204   0.43855   0.44412
 Alpha virt. eigenvalues --    0.45375   0.45440   0.46048   0.46148   0.47069
 Alpha virt. eigenvalues --    0.47588   0.48183   0.48679   0.49467   0.49736
 Alpha virt. eigenvalues --    0.49931   0.50343   0.50688   0.51414   0.51649
 Alpha virt. eigenvalues --    0.51926   0.52293   0.52740   0.53304   0.53666
 Alpha virt. eigenvalues --    0.53839   0.54510   0.55218   0.55428   0.55601
 Alpha virt. eigenvalues --    0.56170   0.56575   0.56701   0.56939   0.57393
 Alpha virt. eigenvalues --    0.57755   0.58413   0.58978   0.59316   0.59810
 Alpha virt. eigenvalues --    0.59964   0.60228   0.60827   0.60932   0.61148
 Alpha virt. eigenvalues --    0.61465   0.61770   0.62152   0.62282   0.62655
 Alpha virt. eigenvalues --    0.62904   0.64042   0.64329   0.64829   0.65187
 Alpha virt. eigenvalues --    0.65615   0.66240   0.66700   0.67146   0.67529
 Alpha virt. eigenvalues --    0.68217   0.68443   0.69078   0.69737   0.69999
 Alpha virt. eigenvalues --    0.70279   0.70393   0.70729   0.70969   0.71376
 Alpha virt. eigenvalues --    0.72023   0.72782   0.73001   0.73389   0.73701
 Alpha virt. eigenvalues --    0.73975   0.74796   0.74871   0.75017   0.75492
 Alpha virt. eigenvalues --    0.76244   0.76433   0.76710   0.76791   0.77174
 Alpha virt. eigenvalues --    0.77419   0.77886   0.78132   0.78752   0.79079
 Alpha virt. eigenvalues --    0.79505   0.79593   0.80034   0.80123   0.80892
 Alpha virt. eigenvalues --    0.81114   0.81483   0.81654   0.82333   0.82896
 Alpha virt. eigenvalues --    0.83277   0.83520   0.84407   0.84526   0.85691
 Alpha virt. eigenvalues --    0.86214   0.86595   0.86805   0.87440   0.87535
 Alpha virt. eigenvalues --    0.87886   0.88421   0.89197   0.89673   0.89829
 Alpha virt. eigenvalues --    0.90217   0.90364   0.91315   0.91911   0.92405
 Alpha virt. eigenvalues --    0.93100   0.93322   0.93854   0.94187   0.94403
 Alpha virt. eigenvalues --    0.94859   0.95802   0.95932   0.96102   0.96495
 Alpha virt. eigenvalues --    0.97230   0.97486   0.98005   0.98116   0.98791
 Alpha virt. eigenvalues --    0.99313   0.99602   1.00323   1.00861   1.00996
 Alpha virt. eigenvalues --    1.01752   1.01791   1.02292   1.02572   1.03000
 Alpha virt. eigenvalues --    1.03411   1.03926   1.04553   1.05216   1.05752
 Alpha virt. eigenvalues --    1.06136   1.06593   1.07126   1.07856   1.08233
 Alpha virt. eigenvalues --    1.08757   1.09593   1.10337   1.10724   1.11324
 Alpha virt. eigenvalues --    1.11541   1.12767   1.12891   1.13304   1.13915
 Alpha virt. eigenvalues --    1.14489   1.14593   1.14822   1.15560   1.15883
 Alpha virt. eigenvalues --    1.16186   1.16905   1.17113   1.17535   1.17771
 Alpha virt. eigenvalues --    1.18474   1.18791   1.19134   1.19605   1.19684
 Alpha virt. eigenvalues --    1.20155   1.20519   1.20912   1.21363   1.21516
 Alpha virt. eigenvalues --    1.22414   1.22688   1.22803   1.23091   1.23425
 Alpha virt. eigenvalues --    1.23920   1.24055   1.24410   1.25223   1.25438
 Alpha virt. eigenvalues --    1.26410   1.26805   1.27136   1.27668   1.28521
 Alpha virt. eigenvalues --    1.29314   1.29610   1.29871   1.30141   1.31489
 Alpha virt. eigenvalues --    1.32235   1.33205   1.33630   1.33901   1.33970
 Alpha virt. eigenvalues --    1.35211   1.35325   1.35552   1.36513   1.37456
 Alpha virt. eigenvalues --    1.38447   1.38821   1.39467   1.40593   1.41504
 Alpha virt. eigenvalues --    1.41836   1.42745   1.43787   1.44008   1.44733
 Alpha virt. eigenvalues --    1.45513   1.46430   1.47361   1.47914   1.48335
 Alpha virt. eigenvalues --    1.48831   1.49575   1.50293   1.50565   1.51116
 Alpha virt. eigenvalues --    1.52180   1.53138   1.53571   1.54126   1.54857
 Alpha virt. eigenvalues --    1.56065   1.56945   1.57233   1.57462   1.58192
 Alpha virt. eigenvalues --    1.59096   1.59395   1.59936   1.60429   1.60580
 Alpha virt. eigenvalues --    1.60889   1.62065   1.62563   1.62989   1.63638
 Alpha virt. eigenvalues --    1.63875   1.64239   1.64766   1.65731   1.66536
 Alpha virt. eigenvalues --    1.67219   1.67706   1.67976   1.68831   1.69274
 Alpha virt. eigenvalues --    1.69790   1.70124   1.70424   1.70902   1.71870
 Alpha virt. eigenvalues --    1.72025   1.72323   1.73129   1.73386   1.74057
 Alpha virt. eigenvalues --    1.74476   1.74996   1.75444   1.75806   1.76055
 Alpha virt. eigenvalues --    1.76242   1.76464   1.76884   1.77088   1.77146
 Alpha virt. eigenvalues --    1.77564   1.77743   1.77849   1.78456   1.78915
 Alpha virt. eigenvalues --    1.79271   1.80036   1.80337   1.80374   1.80713
 Alpha virt. eigenvalues --    1.80926   1.81114   1.81796   1.82174   1.82300
 Alpha virt. eigenvalues --    1.82922   1.83435   1.83946   1.84806   1.84968
 Alpha virt. eigenvalues --    1.85313   1.85691   1.85987   1.86977   1.87012
 Alpha virt. eigenvalues --    1.87382   1.88123   1.88560   1.88828   1.89231
 Alpha virt. eigenvalues --    1.89896   1.90588   1.90768   1.91446   1.92187
 Alpha virt. eigenvalues --    1.92419   1.93219   1.93612   1.94185   1.94809
 Alpha virt. eigenvalues --    1.95167   1.95357   1.95885   1.96214   1.97582
 Alpha virt. eigenvalues --    1.97839   1.99466   2.00000   2.00699   2.01286
 Alpha virt. eigenvalues --    2.02085   2.02499   2.02878   2.03905   2.04123
 Alpha virt. eigenvalues --    2.04645   2.05887   2.06473   2.06996   2.07306
 Alpha virt. eigenvalues --    2.07759   2.08157   2.09131   2.09730   2.09751
 Alpha virt. eigenvalues --    2.10293   2.11089   2.11810   2.12071   2.13160
 Alpha virt. eigenvalues --    2.13892   2.14946   2.15284   2.16376   2.16622
 Alpha virt. eigenvalues --    2.17849   2.18125   2.19931   2.21133   2.21561
 Alpha virt. eigenvalues --    2.21820   2.23128   2.23247   2.23757   2.24234
 Alpha virt. eigenvalues --    2.24281   2.24920   2.25927   2.26141   2.26748
 Alpha virt. eigenvalues --    2.27673   2.28590   2.29229   2.29530   2.30407
 Alpha virt. eigenvalues --    2.30933   2.31118   2.32006   2.32348   2.32670
 Alpha virt. eigenvalues --    2.33355   2.33554   2.34330   2.34419   2.34543
 Alpha virt. eigenvalues --    2.35423   2.36033   2.36551   2.37480   2.38440
 Alpha virt. eigenvalues --    2.38568   2.39062   2.39463   2.40667   2.41378
 Alpha virt. eigenvalues --    2.41906   2.42815   2.43685   2.43861   2.44674
 Alpha virt. eigenvalues --    2.45124   2.45246   2.46042   2.46836   2.46915
 Alpha virt. eigenvalues --    2.48069   2.49269   2.50245   2.50877   2.51789
 Alpha virt. eigenvalues --    2.52902   2.53708   2.54857   2.55829   2.56376
 Alpha virt. eigenvalues --    2.57122   2.57938   2.58863   2.59735   2.60301
 Alpha virt. eigenvalues --    2.61847   2.62428   2.63079   2.63465   2.63971
 Alpha virt. eigenvalues --    2.64925   2.65192   2.65384   2.65590   2.66397
 Alpha virt. eigenvalues --    2.67002   2.68130   2.68616   2.69559   2.70006
 Alpha virt. eigenvalues --    2.71051   2.71160   2.71412   2.71777   2.72866
 Alpha virt. eigenvalues --    2.73454   2.74780   2.75561   2.76130   2.76635
 Alpha virt. eigenvalues --    2.77374   2.77839   2.78690   2.79368   2.79644
 Alpha virt. eigenvalues --    2.79756   2.80097   2.80520   2.80987   2.81389
 Alpha virt. eigenvalues --    2.81788   2.82675   2.83222   2.83816   2.84682
 Alpha virt. eigenvalues --    2.84933   2.85614   2.86751   2.87087   2.87123
 Alpha virt. eigenvalues --    2.87829   2.88571   2.90030   2.92148   2.94043
 Alpha virt. eigenvalues --    2.95515   2.96040   2.97246   2.99049   2.99728
 Alpha virt. eigenvalues --    3.01042   3.01319   3.04522   3.05127   3.05967
 Alpha virt. eigenvalues --    3.07527   3.09305   3.10922   3.13037   3.14527
 Alpha virt. eigenvalues --    3.15955   3.16276   3.17332   3.18566   3.20492
 Alpha virt. eigenvalues --    3.21882   3.23167   3.24373   3.24706   3.25875
 Alpha virt. eigenvalues --    3.44068   3.47065   3.48557   3.49094   3.51197
 Alpha virt. eigenvalues --    3.52846   3.54884   3.56930   3.58489   3.60996
 Alpha virt. eigenvalues --    3.64098   3.71551   3.75288
          Condensed to atoms (all electrons):
 Mulliken charges:
               1
     1  N   -0.312907
     2  C    0.186003
     3  C    0.065071
     4  N   -0.264406
     5  C    0.145027
     6  H    0.028385
     7  N   -0.282771
     8  C    0.110539
     9  H    0.024353
    10  N   -0.264450
    11  C    0.260201
    12  C    0.075732
    13  N   -0.071926
    14  H    0.107460
    15  H    0.083118
    16  H    0.019018
    17  H    0.032987
    18  H    0.034419
    19  N   -0.310122
    20  C    0.241437
    21  C    0.181368
    22  N   -0.105794
    23  H    0.118094
    24  H    0.115389
    25  N   -0.299313
    26  C    0.198592
    27  N   -0.107864
    28  H    0.116275
    29  C    0.147880
    30  O   -0.318028
    31  C    0.025219
    32  N   -0.232108
    33  C    0.121147
    34  H    0.021332
    35  H    0.026508
    36  H    0.029005
    37  H    0.024409
    38  H    0.060558
    39  H    0.054851
    40  H    0.078057
    41  H    0.028260
    42  C   -0.114154
    43  O   -0.260443
    44  C    0.177346
    45  H    0.136277
    46  N   -0.129811
    47  O   -0.346206
    48  C    0.355159
    49  H    0.042406
    50  C    0.162506
    51  C    0.037744
    52  N   -0.280263
    53  H    0.034691
    54  H    0.037204
    55  H    0.032470
    56  H    0.117890
    57  H    0.121902
    58  N   -0.059344
    59  C    0.047218
    60  C    0.244933
    61  N   -0.279858
    62  H    0.005009
    63  C    0.201396
    64  N   -0.302512
    65  H    0.040436
    66  C    0.142164
    67  N   -0.257958
    68  C    0.034936
    69  C    0.181379
    70  N   -0.313523
 Sum of Mulliken charges =  -0.00000
 Mulliken charges with hydrogens summed into heavy atoms:
               1
     1  N   -0.312907
     2  C    0.272428
     3  C    0.065071
     4  N   -0.264406
     5  C    0.173412
     7  N   -0.282771
     8  C    0.134892
    10  N   -0.264450
    11  C    0.260201
    12  C    0.075732
    13  N    0.118653
    19  N   -0.310122
    20  C    0.241437
    21  C    0.261290
    22  N    0.127689
    25  N   -0.299313
    26  C    0.198592
    27  N    0.008411
    29  C    0.147880
    30  O   -0.318028
    31  C    0.025219
    32  N   -0.232108
    33  C    0.142479
    42  C   -0.085894
    43  O   -0.260443
    44  C    0.177346
    46  N    0.006466
    47  O   -0.346206
    48  C    0.355159
    50  C    0.204913
    51  C    0.231210
    52  N   -0.280263
    58  N    0.180449
    59  C    0.047218
    60  C    0.244933
    61  N   -0.279858
    63  C    0.206405
    64  N   -0.302512
    66  C    0.182600
    67  N   -0.257958
    68  C    0.034936
    69  C    0.285744
    70  N   -0.313523
 Electronic spatial extent (au):  <R**2>=          22360.1574
 Charge=              0.0000 electrons
 Dipole moment (field-independent basis, Debye):
    X=             -8.8868    Y=              5.6795    Z=             -2.0026  Tot=             10.7351
 Quadrupole moment (field-independent basis, Debye-Ang):
   XX=           -172.9509   YY=           -213.1106   ZZ=           -252.4902
   XY=              9.1513   XZ=            -19.4539   YZ=              9.7438
 Traceless Quadrupole moment (field-independent basis, Debye-Ang):
   XX=             39.8997   YY=             -0.2600   ZZ=            -39.6397
   XY=              9.1513   XZ=            -19.4539   YZ=              9.7438
 Octapole moment (field-independent basis, Debye-Ang**2):
  XXX=             40.1127  YYY=            153.8434  ZZZ=             11.6224  XYY=           -107.8576
  XXY=            113.3032  XXZ=            -55.1678  XZZ=            -32.9424  YZZ=             -0.5224
  YYZ=            -38.7585  XYZ=             47.9921
 Hexadecapole moment (field-independent basis, Debye-Ang**3):
 XXXX=         -16027.0563 YYYY=          -6848.7036 ZZZZ=          -3257.0005 XXXY=           -378.5232
 XXXZ=           -438.2813 YYYX=             94.5557 YYYZ=             73.8639 ZZZX=            -93.8436
 ZZZY=             15.5907 XXYY=          -2936.2894 XXZZ=          -3643.8831 YYZZ=          -1794.2806
 XXYZ=            148.9593 YYXZ=            -13.2629 ZZXY=             47.7544
 N-N= 5.497960133966D+03 E-N=-1.577660586903D+04  KE= 2.037798188838D+03
 No NMR shielding tensors so no spin-rotation constants.
 Leave Link  601 at Fri Jan 26 12:05:25 2018, MaxMem=  4294967296 cpu:              49.5 elap:               1.7
 (Enter /share/apps/g16/l9999.exe)
 1\1\GINC-COMPUTE-0-3\SP\RwB97XD\CC-pVDZ\C23H27N17O3\SATYA\26-Jan-2018\
 0\\#p wb97xd/cc-pvdz sp scf=(maxcycles=20)\\Base pair stacking\\0,1\N,
 0,0.31225,-2.17406,-7.14983\C,0,1.65612,-1.63917,-7.44296\C,0,-1.76604
 ,-2.38819,-6.46268\N,0,-1.42496,-3.59782,-7.05021\C,0,-0.18652,-3.4204
 ,-7.44067\H,0,0.41656,-4.17226,-7.95052\N,0,-2.95715,-0.67212,-5.36755
 \C,0,-1.85237,0.07037,-5.49305\H,0,-1.92001,1.07749,-5.08392\N,0,-0.68
 209,-0.24295,-6.04547\C,0,-0.70538,-1.50071,-6.51656\C,0,-2.94871,-1.9
 3332,-5.85169\N,0,-4.05055,-2.67605,-5.72736\H,0,-4.08929,-3.61496,-6.
 07113\H,0,-4.87442,-2.3195,-5.2866\H,0,1.81368,-1.65277,-8.43047\H,0,1
 .72181,-0.6994,-7.10884\H,0,2.34729,-2.20158,-6.98911\N,0,1.41258,1.65
 329,-3.32179\C,0,0.17698,1.11626,-3.05172\C,0,1.74074,3.09294,-3.30107
 \N,0,-3.16105,1.53446,-2.18892\H,0,-3.9602,0.95516,-2.03079\H,0,-3.288
 7,2.52136,-2.08673\N,0,-0.93598,1.80795,-2.72469\C,0,-1.97127,1.01227,
 -2.52305\N,0,-1.92247,-0.35634,-2.63277\H,0,-2.76372,-0.88511,-2.46052
 \C,0,-0.78825,-1.08914,-2.96804\O,0,-0.85114,-2.32266,-3.04025\C,0,0.3
 3209,-0.24802,-3.18767\N,0,1.63879,-0.56118,-3.53607\C,0,2.24132,0.594
 91,-3.60403\H,0,3.29316,0.73304,-3.85667\H,0,2.06188,3.37633,-4.20405\
 H,0,0.92391,3.61538,-3.06\H,0,2.45609,3.26374,-2.62438\H,0,-7.42554,-2
 .88442,-2.10988\H,0,-6.91234,-3.26669,-0.46819\H,0,-6.29499,-1.82214,-
 1.27038\H,0,-4.66856,-6.74217,-2.92442\C,0,-4.55749,-5.67888,-2.71156\
 O,0,-2.28915,-5.59001,-3.39995\C,0,-3.29901,-5.0434,-2.95699\H,0,-2.39
 375,-3.21355,-2.8139\N,0,-3.2662,-3.69721,-2.65379\O,0,-4.16824,-1.747
 38,-1.9178\C,0,-4.29356,-2.93588,-2.15536\H,0,-6.55533,-5.39854,-2.021
 75\C,0,-5.57817,-4.96278,-2.22575\C,0,-6.60102,-2.8478,-1.41353\N,0,-5
 .47472,-3.61999,-1.94542\H,0,-9.21563,2.76557,-1.94761\H,0,-7.69541,2.
 32572,-1.55066\H,0,-8.93874,1.94613,-0.56367\H,0,-7.53131,-3.71079,-5.
 15469\H,0,-9.10357,-3.32946,-4.6137\N,0,-8.1349,-3.08345,-4.66248\C,0,
 -7.66977,-1.96814,-4.09599\C,0,-7.84908,0.05801,-2.86138\N,0,-6.5434,0
 .36298,-2.94289\H,0,-4.81778,-0.40187,-3.74153\C,0,-5.88752,-0.5719,-3
 .62752\N,0,-6.35159,-1.68967,-4.19569\H,0,-10.9517,0.41708,-2.02655\C,
 0,-9.99775,0.06907,-2.4238\N,0,-9.8347,-1.03557,-3.11\C,0,-8.47681,-1.
 05469,-3.39371\C,0,-8.65741,2.05636,-1.51703\N,0,-8.83766,0.78012,-2.2
 3587\\Version=EM64L-G16RevA.03\State=1-A\HF=-2048.7386232\RMSD=6.837e-
 09\Dipole=-3.5934666,2.0229093,0.9125685\Quadrupole=18.3192843,-5.6383
 544,-12.6809299,17.5893835,-22.6560556,9.7705931\PG=C01 [X(C23H27N17O3
 )]\\@


 The arm of the moral universe is long, but it bends toward justice.
 -- Martin Luther King, Jr.
 Job cpu time:       0 days  6 hours  1 minutes 15.9 seconds.
 Elapsed time:       0 days  0 hours 11 minutes 39.0 seconds.
 File lengths (MBytes):  RWF=    298 Int=      0 D2E=      0 Chk=     33 Scr=      1
 Normal termination of Gaussian 16 at Fri Jan 26 12:05:25 2018.
