 Entering Gaussian System, Link 0=g16
 Input=str55.20.-2.5.com
 Output=str55.20.-2.5.log
 Initial command:
 /share/apps/g16/l1.exe "/state/partition1/scr/Gau-26868.inp" -scrdir="/state/partition1/scr/"
 Entering Link 1 = /share/apps/g16/l1.exe PID=     26869.
  
 Copyright (c) 1988,1990,1992,1993,1995,1998,2003,2009,2016,
            Gaussian, Inc.  All Rights Reserved.
  
 This is part of the Gaussian(R) 16 program.  It is based on
 the Gaussian(R) 09 system (copyright 2009, Gaussian, Inc.),
 the Gaussian(R) 03 system (copyright 2003, Gaussian, Inc.),
 the Gaussian(R) 98 system (copyright 1998, Gaussian, Inc.),
 the Gaussian(R) 94 system (copyright 1995, Gaussian, Inc.),
 the Gaussian 92(TM) system (copyright 1992, Gaussian, Inc.),
 the Gaussian 90(TM) system (copyright 1990, Gaussian, Inc.),
 the Gaussian 88(TM) system (copyright 1988, Gaussian, Inc.),
 the Gaussian 86(TM) system (copyright 1986, Carnegie Mellon
 University), and the Gaussian 82(TM) system (copyright 1983,
 Carnegie Mellon University). Gaussian is a federally registered
 trademark of Gaussian, Inc.
  
 This software contains proprietary and confidential information,
 including trade secrets, belonging to Gaussian, Inc.
  
 This software is provided under written license and may be
 used, copied, transmitted, or stored only in accord with that
 written license.
  
 The following legend is applicable only to US Government
 contracts under FAR:
  
                    RESTRICTED RIGHTS LEGEND
  
 Use, reproduction and disclosure by the US Government is
 subject to restrictions as set forth in subparagraphs (a)
 and (c) of the Commercial Computer Software - Restricted
 Rights clause in FAR 52.227-19.
  
 Gaussian, Inc.
 340 Quinnipiac St., Bldg. 40, Wallingford CT 06492
  
  
 ---------------------------------------------------------------
 Warning -- This program may not be used in any manner that
 competes with the business of Gaussian, Inc. or will provide
 assistance to any competitor of Gaussian, Inc.  The licensee
 of this program is prohibited from giving any competitor of
 Gaussian, Inc. access to this program.  By using this program,
 the user acknowledges that Gaussian, Inc. is engaged in the
 business of creating and licensing software in the field of
 computational chemistry and represents and warrants to the
 licensee that it is not a competitor of Gaussian, Inc. and that
 it will not use this program in any manner prohibited above.
 ---------------------------------------------------------------
  

 Cite this work as:
 Gaussian 16, Revision A.03,
 M. J. Frisch, G. W. Trucks, H. B. Schlegel, G. E. Scuseria, 
 M. A. Robb, J. R. Cheeseman, G. Scalmani, V. Barone, 
 G. A. Petersson, H. Nakatsuji, X. Li, M. Caricato, A. V. Marenich, 
 J. Bloino, B. G. Janesko, R. Gomperts, B. Mennucci, H. P. Hratchian, 
 J. V. Ortiz, A. F. Izmaylov, J. L. Sonnenberg, D. Williams-Young, 
 F. Ding, F. Lipparini, F. Egidi, J. Goings, B. Peng, A. Petrone, 
 T. Henderson, D. Ranasinghe, V. G. Zakrzewski, J. Gao, N. Rega, 
 G. Zheng, W. Liang, M. Hada, M. Ehara, K. Toyota, R. Fukuda, 
 J. Hasegawa, M. Ishida, T. Nakajima, Y. Honda, O. Kitao, H. Nakai, 
 T. Vreven, K. Throssell, J. A. Montgomery, Jr., J. E. Peralta, 
 F. Ogliaro, M. J. Bearpark, J. J. Heyd, E. N. Brothers, K. N. Kudin, 
 V. N. Staroverov, T. A. Keith, R. Kobayashi, J. Normand, 
 K. Raghavachari, A. P. Rendell, J. C. Burant, S. S. Iyengar, 
 J. Tomasi, M. Cossi, J. M. Millam, M. Klene, C. Adamo, R. Cammi, 
 J. W. Ochterski, R. L. Martin, K. Morokuma, O. Farkas, 
 J. B. Foresman, and D. J. Fox, Gaussian, Inc., Wallingford CT, 2016.
 
 ******************************************
 Gaussian 16:  EM64L-G16RevA.03 25-Dec-2016
                26-Jan-2018 
 ******************************************
 %nprocshared=32
 Will use up to   32 processors via shared memory.
 %mem=32GB
 %chk=allatoms_t.chk
 ---------------------------------------
 #p wb97xd/cc-pvdz sp scf=(maxcycles=20)
 ---------------------------------------
 1/38=1,172=1/1;
 2/12=2,17=6,18=5,40=1/2;
 3/5=16,11=2,25=1,30=1,74=-58/1,2,3;
 4//1;
 5/5=2,7=20,38=5/2;
 6/7=2,8=2,9=2,10=2,28=1/1;
 99/5=1,9=1/99;
 Leave Link    1 at Fri Jan 26 12:05:25 2018, MaxMem=  4294967296 cpu:               2.7 elap:               0.1
 (Enter /share/apps/g16/l101.exe)
 ------------------
 Base pair stacking
 ------------------
 Symbolic Z-matrix:
 Charge =  0 Multiplicity = 1
 N                     10.58201   1.04614  -2.97306 
 C                     11.98393   1.49198  -2.85541 
 C                     8.45134   0.91234  -3.5019 
 N                     8.72506  -0.19397  -2.71077 
 C                     9.99775  -0.06908  -2.42383 
 H                     10.56636  -0.76806  -1.80978 
 N                     7.34241   2.50235  -4.84544 
 C                     8.51339   3.1433   -4.92004 
 H                     8.50593   4.05813  -5.51106 
 N                     9.68669   2.82536  -4.37673 
 C                     9.58621   1.68599  -3.67234 
 C                     7.27406   1.35895  -4.12917 
 N                     6.10605   0.7177   -4.05352 
 H                     6.00928  -0.13221  -3.53437 
 H                     5.28836   1.06478  -4.51294 
 H                     12.59093   0.78903  -3.22633 
 H                     12.10821   2.34189  -3.36662 
 H                     12.20656   1.64821  -1.89311 
 N                     4.80568   5.99142  -2.70722 
 C                     3.56939   5.45475  -2.97485 
 C                     5.18588   7.40356  -2.91222 
 N                     0.30422   5.83443  -4.09567 
 H                    -0.50465   5.26027  -4.21939 
 H                     0.21817   6.79934  -4.3452 
 N                     2.50281   6.12193  -3.4661 
 C                     1.45312   5.33385  -3.61675 
 N                     1.44638   3.99461  -3.31035 
 H                     0.59814   3.46954  -3.45783 
 C                     2.53223   3.28739  -2.80377 
 O                     2.42108   2.07938  -2.56065 
 C                     3.66736   4.12069  -2.6365 
 N                     4.93955   3.82576  -2.16593 
 C                     5.57817   4.96278  -2.22577 
 H                     6.61784   5.10734  -1.93004 
 H                     5.94496   7.45541  -3.56023 
 H                     4.40367   7.90769  -3.27592 
 H                     5.46401   7.80552  -2.04051 
 H                    -3.72176   1.28945  -5.01938 
 H                    -4.15335   1.40669  -3.31509 
 H                    -3.10374   2.62271  -4.04377 
 H                    -1.24142  -2.42203  -3.22511 
 C                    -1.17416  -1.33558  -3.28281 
 O                     1.12552  -1.26328  -2.70542 
 C                     0.07661  -0.69603  -3.01007 
 H                     0.91754   1.16783  -2.92534 
 N                     0.05228   0.68037  -3.11092 
 O                    -0.94724   2.68173  -3.50172 
 C                    -1.02361   1.46736  -3.43752 
 H                    -3.21497  -1.03254  -3.82048 
 C                    -2.24132  -0.59491  -3.60402 
 C                    -3.37059   1.57633  -4.03936 
 N                    -2.19377   0.77743  -3.68638 
 H                     1.27523   5.64662  -8.84358 
 H                     2.25178   6.04065  -7.5973 
 H                     0.63657   6.23144  -7.46028 
 H                     2.65137  -0.35704  -4.70501 
 H                     1.16271  -0.10394  -5.49868 
 N                     2.06029   0.25111  -5.23502 
 C                     2.45067   1.48106  -5.5756 
 C                     2.20015   3.61643  -6.59499 
 N                     3.41108   4.06671  -6.22713 
 H                     5.05906   3.42097  -5.19378 
 C                     4.06368   3.13687  -5.53257 
 N                     3.6744    1.9044   -5.19043 
 H                    -0.72148   3.69789  -7.97687 
 C                     0.1865    3.42039  -7.44067 
 N                     0.38425   2.26252  -6.85937 
 C                     1.65731   2.37353  -6.31924 
 C                     1.3614    5.66143  -7.84741 
 N                     1.24449   4.28804  -7.32 
 
 ITRead=  0  0  0  0  0  0  0  0  0  0  0  0  0  0  0  0  0  0  0  0
 ITRead=  0  0  0  0  0  0  0  0  0  0  0  0  0  0  0  0  0  0  0  0
 ITRead=  0  0  0  0  0  0  0  0  0  0  0  0  0  0  0  0  0  0  0  0
 ITRead=  0  0  0  0  0  0  0  0  0  0
 MicOpt= -1 -1 -1 -1 -1 -1 -1 -1 -1 -1 -1 -1 -1 -1 -1 -1 -1 -1 -1 -1
 MicOpt= -1 -1 -1 -1 -1 -1 -1 -1 -1 -1 -1 -1 -1 -1 -1 -1 -1 -1 -1 -1
 MicOpt= -1 -1 -1 -1 -1 -1 -1 -1 -1 -1 -1 -1 -1 -1 -1 -1 -1 -1 -1 -1
 MicOpt= -1 -1 -1 -1 -1 -1 -1 -1 -1 -1
 NAtoms=     70 NQM=       70 NQMF=       0 NMMI=      0 NMMIF=      0
                NMic=       0 NMicF=      0.
                    Isotopes and Nuclear Properties:
 (Nuclear quadrupole moments (NQMom) in fm**2, nuclear magnetic moments (NMagM)
  in nuclear magnetons)

  Atom         1           2           3           4           5           6           7           8           9          10
 IAtWgt=          14          12          12          14          12           1          14          12           1          14
 AtmWgt=  14.0030740  12.0000000  12.0000000  14.0030740  12.0000000   1.0078250  14.0030740  12.0000000   1.0078250  14.0030740
 NucSpn=           2           0           0           2           0           1           2           0           1           2
 AtZEff=  -0.0000000  -0.0000000  -0.0000000  -0.0000000  -0.0000000  -0.0000000  -0.0000000  -0.0000000  -0.0000000  -0.0000000
 NQMom=    2.0440000   0.0000000   0.0000000   2.0440000   0.0000000   0.0000000   2.0440000   0.0000000   0.0000000   2.0440000
 NMagM=    0.4037610   0.0000000   0.0000000   0.4037610   0.0000000   2.7928460   0.4037610   0.0000000   2.7928460   0.4037610
 AtZNuc=   7.0000000   6.0000000   6.0000000   7.0000000   6.0000000   1.0000000   7.0000000   6.0000000   1.0000000   7.0000000

  Atom        11          12          13          14          15          16          17          18          19          20
 IAtWgt=          12          12          14           1           1           1           1           1          14          12
 AtmWgt=  12.0000000  12.0000000  14.0030740   1.0078250   1.0078250   1.0078250   1.0078250   1.0078250  14.0030740  12.0000000
 NucSpn=           0           0           2           1           1           1           1           1           2           0
 AtZEff=  -0.0000000  -0.0000000  -0.0000000  -0.0000000  -0.0000000  -0.0000000  -0.0000000  -0.0000000  -0.0000000  -0.0000000
 NQMom=    0.0000000   0.0000000   2.0440000   0.0000000   0.0000000   0.0000000   0.0000000   0.0000000   2.0440000   0.0000000
 NMagM=    0.0000000   0.0000000   0.4037610   2.7928460   2.7928460   2.7928460   2.7928460   2.7928460   0.4037610   0.0000000
 AtZNuc=   6.0000000   6.0000000   7.0000000   1.0000000   1.0000000   1.0000000   1.0000000   1.0000000   7.0000000   6.0000000

  Atom        21          22          23          24          25          26          27          28          29          30
 IAtWgt=          12          14           1           1          14          12          14           1          12          16
 AtmWgt=  12.0000000  14.0030740   1.0078250   1.0078250  14.0030740  12.0000000  14.0030740   1.0078250  12.0000000  15.9949146
 NucSpn=           0           2           1           1           2           0           2           1           0           0
 AtZEff=  -0.0000000  -0.0000000  -0.0000000  -0.0000000  -0.0000000  -0.0000000  -0.0000000  -0.0000000  -0.0000000  -0.0000000
 NQMom=    0.0000000   2.0440000   0.0000000   0.0000000   2.0440000   0.0000000   2.0440000   0.0000000   0.0000000   0.0000000
 NMagM=    0.0000000   0.4037610   2.7928460   2.7928460   0.4037610   0.0000000   0.4037610   2.7928460   0.0000000   0.0000000
 AtZNuc=   6.0000000   7.0000000   1.0000000   1.0000000   7.0000000   6.0000000   7.0000000   1.0000000   6.0000000   8.0000000

  Atom        31          32          33          34          35          36          37          38          39          40
 IAtWgt=          12          14          12           1           1           1           1           1           1           1
 AtmWgt=  12.0000000  14.0030740  12.0000000   1.0078250   1.0078250   1.0078250   1.0078250   1.0078250   1.0078250   1.0078250
 NucSpn=           0           2           0           1           1           1           1           1           1           1
 AtZEff=  -0.0000000  -0.0000000  -0.0000000  -0.0000000  -0.0000000  -0.0000000  -0.0000000  -0.0000000  -0.0000000  -0.0000000
 NQMom=    0.0000000   2.0440000   0.0000000   0.0000000   0.0000000   0.0000000   0.0000000   0.0000000   0.0000000   0.0000000
 NMagM=    0.0000000   0.4037610   0.0000000   2.7928460   2.7928460   2.7928460   2.7928460   2.7928460   2.7928460   2.7928460
 AtZNuc=   6.0000000   7.0000000   6.0000000   1.0000000   1.0000000   1.0000000   1.0000000   1.0000000   1.0000000   1.0000000

  Atom        41          42          43          44          45          46          47          48          49          50
 IAtWgt=           1          12          16          12           1          14          16          12           1          12
 AtmWgt=   1.0078250  12.0000000  15.9949146  12.0000000   1.0078250  14.0030740  15.9949146  12.0000000   1.0078250  12.0000000
 NucSpn=           1           0           0           0           1           2           0           0           1           0
 AtZEff=  -0.0000000  -0.0000000  -0.0000000  -0.0000000  -0.0000000  -0.0000000  -0.0000000  -0.0000000  -0.0000000  -0.0000000
 NQMom=    0.0000000   0.0000000   0.0000000   0.0000000   0.0000000   2.0440000   0.0000000   0.0000000   0.0000000   0.0000000
 NMagM=    2.7928460   0.0000000   0.0000000   0.0000000   2.7928460   0.4037610   0.0000000   0.0000000   2.7928460   0.0000000
 AtZNuc=   1.0000000   6.0000000   8.0000000   6.0000000   1.0000000   7.0000000   8.0000000   6.0000000   1.0000000   6.0000000

  Atom        51          52          53          54          55          56          57          58          59          60
 IAtWgt=          12          14           1           1           1           1           1          14          12          12
 AtmWgt=  12.0000000  14.0030740   1.0078250   1.0078250   1.0078250   1.0078250   1.0078250  14.0030740  12.0000000  12.0000000
 NucSpn=           0           2           1           1           1           1           1           2           0           0
 AtZEff=  -0.0000000  -0.0000000  -0.0000000  -0.0000000  -0.0000000  -0.0000000  -0.0000000  -0.0000000  -0.0000000  -0.0000000
 NQMom=    0.0000000   2.0440000   0.0000000   0.0000000   0.0000000   0.0000000   0.0000000   2.0440000   0.0000000   0.0000000
 NMagM=    0.0000000   0.4037610   2.7928460   2.7928460   2.7928460   2.7928460   2.7928460   0.4037610   0.0000000   0.0000000
 AtZNuc=   6.0000000   7.0000000   1.0000000   1.0000000   1.0000000   1.0000000   1.0000000   7.0000000   6.0000000   6.0000000

  Atom        61          62          63          64          65          66          67          68          69          70
 IAtWgt=          14           1          12          14           1          12          14          12          12          14
 AtmWgt=  14.0030740   1.0078250  12.0000000  14.0030740   1.0078250  12.0000000  14.0030740  12.0000000  12.0000000  14.0030740
 NucSpn=           2           1           0           2           1           0           2           0           0           2
 AtZEff=  -0.0000000  -0.0000000  -0.0000000  -0.0000000  -0.0000000  -0.0000000  -0.0000000  -0.0000000  -0.0000000  -0.0000000
 NQMom=    2.0440000   0.0000000   0.0000000   2.0440000   0.0000000   0.0000000   2.0440000   0.0000000   0.0000000   2.0440000
 NMagM=    0.4037610   2.7928460   0.0000000   0.4037610   2.7928460   0.0000000   0.4037610   0.0000000   0.0000000   0.4037610
 AtZNuc=   7.0000000   1.0000000   6.0000000   7.0000000   1.0000000   6.0000000   7.0000000   6.0000000   6.0000000   7.0000000
 Leave Link  101 at Fri Jan 26 12:05:26 2018, MaxMem=  4294967296 cpu:               7.7 elap:               0.3
 (Enter /share/apps/g16/l202.exe)
 Stoichiometry    C23H27N17O3
 Framework group  C1[X(C23H27N17O3)]
 Deg. of freedom   204
 Full point group                 C1      NOp   1
 Largest Abelian subgroup         C1      NOp   1
 Largest concise Abelian subgroup C1      NOp   1
                         Standard orientation:                         
 ---------------------------------------------------------------------
 Center     Atomic      Atomic             Coordinates (Angstroms)
 Number     Number       Type             X           Y           Z
 ---------------------------------------------------------------------
      1          7           0       -7.234704   -1.562369   -0.004671
      2          6           0       -8.641095   -1.118841   -0.062493
      3          6           0       -5.058652   -1.631079    0.307423
      4          7           0       -5.417928   -2.872972   -0.195919
      5          6           0       -6.714534   -2.781869   -0.363797
      6          1           0       -7.347391   -3.581414   -0.750020
      7          7           0       -3.808330    0.180739    1.154165
      8          6           0       -4.963987    0.850168    1.216602
      9          1           0       -4.891417    1.868870    1.595092
     10          7           0       -6.190069    0.452037    0.883257
     11          6           0       -6.167852   -0.812563    0.430800
     12          6           0       -3.819358   -1.089561    0.694496
     13          7           0       -2.666769   -1.759436    0.631424
     14          1           0       -2.627818   -2.701941    0.297666
     15          1           0       -1.803389   -1.342259    0.915479
     16          1           0       -9.203341   -1.713054    0.512797
     17          1           0       -8.708264   -0.177371    0.266522
     18          1           0       -8.968643   -1.164502   -1.006220
     19          7           0       -1.523637    3.078380   -1.938479
     20          6           0       -0.265291    2.581694   -1.697806
     21          6           0       -1.879041    4.510428   -1.998843
     22          7           0        3.103632    3.113378   -1.042521
     23          1           0        3.921285    2.559619   -0.887498
     24          1           0        3.216597    4.106953   -1.014798
     25          7           0        0.848934    3.312553   -1.477811
     26          6           0        1.908933    2.549837   -1.277107
     27          7           0        1.881955    1.176307   -1.290422
     28          1           0        2.741355    0.674618   -1.127019
     29          6           0        0.746890    0.403534   -1.514705
     30          8           0        0.830656   -0.830829   -1.505759
     31          6           0       -0.399867    1.208917   -1.731950
     32          7           0       -1.716205    0.850965   -1.988880
     33          6           0       -2.344445    1.989535   -2.103783
     34          1           0       -3.410430    2.092550   -2.309531
     35          1           0       -2.561928    4.715888   -1.298658
     36          1           0       -1.061512    5.061643   -1.837332
     37          1           0       -2.251775    4.725326   -2.900893
     38          1           0        7.207527   -1.226300    0.387109
     39          1           0        7.448268   -1.482280   -1.339488
     40          1           0        6.485398   -0.115455   -0.777321
     41          1           0        4.544660   -5.174266   -0.297935
     42          6           0        4.484055   -4.098920   -0.465818
     43          8           0        2.134672   -4.096618   -0.793735
     44          6           0        3.210742   -3.502452   -0.731781
     45          1           0        2.365379   -1.679532   -1.119904
     46          7           0        3.245897   -2.136812   -0.929340
     47          8           0        4.282223   -0.122002   -1.083545
     48          6           0        4.351180   -1.323927   -0.895739
     49          1           0        6.571721   -3.736824   -0.228402
     50          6           0        5.580071   -3.332230   -0.426653
     51          6           0        6.750252   -1.145045   -0.587754
     52          7           0        5.541745   -1.972786   -0.633547
     53          1           0        2.662869    3.956717    3.713032
     54          1           0        1.554624    4.100979    2.524291
     55          1           0        3.144804    4.220655    2.176316
     56          1           0        0.838851   -2.752556    1.119952
     57          1           0        2.406018   -2.372205    1.676190
     58          7           0        1.484771   -2.060061    1.441464
     59          6           0        1.134242   -0.777119    1.552629
     60          6           0        1.495544    1.519086    2.061180
     61          7           0        0.251346    1.909569    1.738817
     62          1           0       -1.500587    1.098605    1.050560
     63          6           0       -0.473850    0.869388    1.332595
     64          7           0       -0.124586   -0.416320    1.220570
     65          1           0        4.551891    1.822624    3.070516
     66          6           0        3.590287    1.459307    2.706837
     67          7           0        3.329693    0.209636    2.410037
     68          6           0        2.004761    0.233637    1.999274
     69          6           0        2.467222    3.762521    2.751778
     70          7           0        2.525340    2.306305    2.519212
 ---------------------------------------------------------------------
 Rotational constants (GHZ):           0.1230343           0.0503441           0.0432429
 Leave Link  202 at Fri Jan 26 12:05:26 2018, MaxMem=  4294967296 cpu:               0.3 elap:               0.0
 (Enter /share/apps/g16/l301.exe)
 Standard basis: CC-pVDZ (5D, 7F)
 Ernie: Thresh=  0.10000D-02 Tol=  0.10000D-05 Strict=F.
 Ernie:  86 primitive shells out of 1081 were deleted.
 There are   780 symmetry adapted cartesian basis functions of A   symmetry.
 There are   737 symmetry adapted basis functions of A   symmetry.
   737 basis functions,  1608 primitive gaussians,   780 cartesian basis functions
   154 alpha electrons      154 beta electrons
       nuclear repulsion energy      5347.2152431551 Hartrees.
 IExCor= 4639 DFT=T Ex+Corr=wB97XD ExCW=0 ScaHFX=  1.000000
 ScaDFX=  1.000000  1.000000  1.000000  1.000000 ScalE2=  1.000000  1.000000
 IRadAn=      5 IRanWt=     -1 IRanGd=            0 ICorTp=0 IEmpDi=121
 HFx  wShort=  0.000000 wLong=  0.200000 cFull=  0.222036 cShort=  0.000000 cLong=  0.777964
 DFx  wShort=  0.000000 wLong=  0.200000 cFull=  0.000000 cShort=  0.000000 cLong=  1.000000
 NAtoms=   70 NActive=   70 NUniq=   70 SFac= 1.00D+00 NAtFMM=   60 NAOKFM=T Big=T
 Integral buffers will be    131072 words long.
 Raffenetti 2 integral format.
 Two-electron integral symmetry is turned on.
 R6Disp:  Grimme-D2 Dispersion energy=       -0.0641857010 Hartrees.
 Nuclear repulsion after empirical dispersion term =     5347.1510574541 Hartrees.
 Leave Link  301 at Fri Jan 26 12:05:26 2018, MaxMem=  4294967296 cpu:               2.2 elap:               0.1
 (Enter /share/apps/g16/l302.exe)
 NPDir=0 NMtPBC=     1 NCelOv=     1 NCel=       1 NClECP=     1 NCelD=      1
         NCelK=      1 NCelE2=     1 NClLst=     1 CellRange=     0.0.
 One-electron integrals computed using PRISM.
 One-electron integral symmetry used in STVInt
 NBasis=   737 RedAO= T EigKep=  6.84D-04  NBF=   737
 NBsUse=   737 1.00D-06 EigRej= -1.00D+00 NBFU=   737
 Precomputing XC quadrature grid using
 IXCGrd= 4 IRadAn=           5 IRanWt=          -1 IRanGd=           0 AccXCQ= 0.00D+00.
 Generated NRdTot=       0 NPtTot=           0 NUsed=           0 NTot=          32
 NSgBfM=   758   758   758   758   758 MxSgAt=    70 MxSgA2=    70.
 Leave Link  302 at Fri Jan 26 12:05:30 2018, MaxMem=  4294967296 cpu:             132.9 elap:               4.2
 (Enter /share/apps/g16/l303.exe)
 DipDrv:  MaxL=1.
 Leave Link  303 at Fri Jan 26 12:05:30 2018, MaxMem=  4294967296 cpu:              12.2 elap:               0.4
 (Enter /share/apps/g16/l401.exe)
 ExpMin= 1.22D-01 ExpMax= 1.17D+04 ExpMxC= 4.01D+02 IAcc=3 IRadAn=         5 AccDes= 0.00D+00
 Harris functional with IExCor= 4639 and IRadAn=       5 diagonalized for initial guess.
 HarFok:  IExCor= 4639 AccDes= 0.00D+00 IRadAn=         5 IDoV= 1 UseB2=F ITyADJ=14
 ICtDFT=  3500011 ScaDFX=  1.000000  1.000000  1.000000  1.000000
 FoFCou: FMM=F IPFlag=           0 FMFlag=      100000 FMFlg1=        2001
         NFxFlg=           0 DoJE=T BraDBF=F KetDBF=T FulRan=T
         wScrn=  0.000000 ICntrl=       500 IOpCl=  0 I1Cent=   200000004 NGrid=           0
         NMat0=    1 NMatS0=      1 NMatT0=    0 NMatD0=    1 NMtDS0=    0 NMtDT0=    0
 Petite list used in FoFCou.
 Harris En= -1963.88040012543    
 JPrj=0 DoOrth=F DoCkMO=F.
 Leave Link  401 at Fri Jan 26 12:05:42 2018, MaxMem=  4294967296 cpu:             378.0 elap:              11.9
 (Enter /share/apps/g16/l502.exe)
 Integral symmetry usage will be decided dynamically.
 Closed shell SCF:
 Using DIIS extrapolation, IDIIS=  1040.
 NGot=  4294967296 LenX=  4293717438 LenY=  4293108258
 Requested convergence on RMS density matrix=1.00D-08 within  20 cycles.
 Requested convergence on MAX density matrix=1.00D-06.
 Requested convergence on             energy=1.00D-06.
 No special actions if energy rises.
 Fock matrices will be formed incrementally for  20 cycles.
 Integral accuracy reduced to 1.0D-05 until final iterations.

 Cycle   1  Pass 0  IDiag  1:
 FoFJK:  IHMeth= 1 ICntrl=       0 DoSepK=T KAlg= 0 I1Cent=           0 FoldK=F
 IRaf=         1 NMat=       1 IRICut=       1 DoRegI=T DoRafI=F ISym2E= 0 IDoP0=0 IntGTp=1.
 FoFCou: FMM=T IPFlag=           0 FMFlag=      100000 FMFlg1=        2001
         NFxFlg=           0 DoJE=T BraDBF=F KetDBF=F FulRan=T
         wScrn=  0.000000 ICntrl=       500 IOpCl=  0 I1Cent=           0 NGrid=           0
         NMat0=    1 NMatS0=      1 NMatT0=    0 NMatD0=    1 NMtDS0=    0 NMtDT0=    0
 Symmetry not used in FoFCou.
 FMM levels:  10  Number of levels for PrismC:   9
 E= -2048.30942057581    
 DIIS: error= 2.38D-02 at cycle   1 NSaved=   1.
 NSaved= 1 IEnMin= 1 EnMin= -2048.30942057581     IErMin= 1 ErrMin= 2.38D-02
 ErrMax= 2.38D-02  0.00D+00 EMaxC= 1.00D-01 BMatC= 8.33D-01 BMatP= 8.33D-01
 IDIUse=3 WtCom= 7.62D-01 WtEn= 2.38D-01
 Coeff-Com:  0.100D+01
 Coeff-En:   0.100D+01
 Coeff:      0.100D+01
 Gap=     0.253 Goal=   None    Shift=    0.000
 GapD=    0.253 DampG=1.000 DampE=0.500 DampFc=0.5000 IDamp=-1.
 Damping current iteration by 5.00D-01
 RMSDP=1.56D-03 MaxDP=1.29D-01              OVMax= 1.98D-01

 Cycle   2  Pass 0  IDiag  1:
 RMSU=  7.81D-04    CP:  9.98D-01
 E= -2048.50741377591     Delta-E=       -0.197993200093 Rises=F Damp=T
 DIIS: error= 1.31D-02 at cycle   2 NSaved=   2.
 NSaved= 2 IEnMin= 2 EnMin= -2048.50741377591     IErMin= 2 ErrMin= 1.31D-02
 ErrMax= 1.31D-02  0.00D+00 EMaxC= 1.00D-01 BMatC= 1.44D-01 BMatP= 8.33D-01
 IDIUse=3 WtCom= 8.69D-01 WtEn= 1.31D-01
 Coeff-Com: -0.198D+00 0.120D+01
 Coeff-En:   0.000D+00 0.100D+01
 Coeff:     -0.172D+00 0.117D+01
 Gap=     0.361 Goal=   None    Shift=    0.000
 RMSDP=5.81D-04 MaxDP=3.38D-02 DE=-1.98D-01 OVMax= 1.50D-01

 Cycle   3  Pass 0  IDiag  1:
 RMSU=  5.69D-04    CP:  9.94D-01  1.14D+00
 E= -2048.68825165837     Delta-E=       -0.180837882467 Rises=F Damp=F
 DIIS: error= 9.11D-03 at cycle   3 NSaved=   3.
 NSaved= 3 IEnMin= 3 EnMin= -2048.68825165837     IErMin= 3 ErrMin= 9.11D-03
 ErrMax= 9.11D-03  0.00D+00 EMaxC= 1.00D-01 BMatC= 6.17D-02 BMatP= 1.44D-01
 IDIUse=3 WtCom= 9.09D-01 WtEn= 9.11D-02
 Coeff-Com: -0.230D+00 0.545D+00 0.685D+00
 Coeff-En:   0.000D+00 0.000D+00 0.100D+01
 Coeff:     -0.209D+00 0.496D+00 0.713D+00
 Gap=     0.275 Goal=   None    Shift=    0.000
 RMSDP=3.54D-04 MaxDP=3.27D-02 DE=-1.81D-01 OVMax= 7.17D-02

 Cycle   4  Pass 0  IDiag  1:
 RMSU=  2.04D-04    CP:  9.94D-01  1.42D+00  6.72D-01
 E= -2048.73429039986     Delta-E=       -0.046038741491 Rises=F Damp=F
 DIIS: error= 3.40D-03 at cycle   4 NSaved=   4.
 NSaved= 4 IEnMin= 4 EnMin= -2048.73429039986     IErMin= 4 ErrMin= 3.40D-03
 ErrMax= 3.40D-03  0.00D+00 EMaxC= 1.00D-01 BMatC= 9.79D-03 BMatP= 6.17D-02
 IDIUse=3 WtCom= 9.66D-01 WtEn= 3.40D-02
 Coeff-Com: -0.938D-01 0.182D+00 0.386D+00 0.526D+00
 Coeff-En:   0.000D+00 0.000D+00 0.842D-01 0.916D+00
 Coeff:     -0.906D-01 0.176D+00 0.376D+00 0.539D+00
 Gap=     0.280 Goal=   None    Shift=    0.000
 RMSDP=1.30D-04 MaxDP=1.14D-02 DE=-4.60D-02 OVMax= 1.37D-02

 Cycle   5  Pass 0  IDiag  1:
 RMSU=  6.11D-05    CP:  9.94D-01  1.39D+00  8.10D-01  6.07D-01
 E= -2048.74231866277     Delta-E=       -0.008028262911 Rises=F Damp=F
 DIIS: error= 7.04D-04 at cycle   5 NSaved=   5.
 NSaved= 5 IEnMin= 5 EnMin= -2048.74231866277     IErMin= 5 ErrMin= 7.04D-04
 ErrMax= 7.04D-04  0.00D+00 EMaxC= 1.00D-01 BMatC= 3.23D-04 BMatP= 9.79D-03
 IDIUse=3 WtCom= 9.93D-01 WtEn= 7.04D-03
 Coeff-Com: -0.251D-01 0.430D-01 0.129D+00 0.247D+00 0.606D+00
 Coeff-En:   0.000D+00 0.000D+00 0.000D+00 0.000D+00 0.100D+01
 Coeff:     -0.249D-01 0.427D-01 0.128D+00 0.245D+00 0.609D+00
 Gap=     0.280 Goal=   None    Shift=    0.000
 RMSDP=2.70D-05 MaxDP=1.89D-03 DE=-8.03D-03 OVMax= 3.41D-03

 Failed to achieve initial convergence to 1.0D-08 in  6 cycles.
 Switch to full accuracy anyway.
 Cycle   6  Pass 1  IDiag  1:
 E= -2048.74271233908     Delta-E=       -0.000393676311 Rises=F Damp=F
 DIIS: error= 2.42D-04 at cycle   1 NSaved=   1.
 NSaved= 1 IEnMin= 1 EnMin= -2048.74271233908     IErMin= 1 ErrMin= 2.42D-04
 ErrMax= 2.42D-04  0.00D+00 EMaxC= 1.00D-01 BMatC= 6.71D-05 BMatP= 6.71D-05
 IDIUse=3 WtCom= 9.98D-01 WtEn= 2.42D-03
 Coeff-Com:  0.100D+01
 Coeff-En:   0.100D+01
 Coeff:      0.100D+01
 Gap=     0.280 Goal=   None    Shift=    0.000
 RMSDP=2.70D-05 MaxDP=1.89D-03 DE=-3.94D-04 OVMax= 2.63D-03

 Cycle   7  Pass 1  IDiag  1:
 RMSU=  1.00D-04    CP:  1.00D+00
 E= -2048.74276271326     Delta-E=       -0.000050374177 Rises=F Damp=F
 DIIS: error= 2.57D-04 at cycle   2 NSaved=   2.
 NSaved= 2 IEnMin= 2 EnMin= -2048.74276271326     IErMin= 1 ErrMin= 2.42D-04
 ErrMax= 2.57D-04  0.00D+00 EMaxC= 1.00D-01 BMatC= 4.10D-05 BMatP= 6.71D-05
 IDIUse=3 WtCom= 9.97D-01 WtEn= 2.57D-03
 Coeff-Com:  0.418D+00 0.582D+00
 Coeff-En:   0.000D+00 0.100D+01
 Coeff:      0.417D+00 0.583D+00
 Gap=     0.280 Goal=   None    Shift=    0.000
 RMSDP=1.09D-05 MaxDP=9.88D-04 DE=-5.04D-05 OVMax= 1.49D-03

 Cycle   8  Pass 1  IDiag  1:
 RMSU=  1.07D-05    CP:  1.00D+00  1.02D+00
 E= -2048.74279294668     Delta-E=       -0.000030233422 Rises=F Damp=F
 DIIS: error= 8.09D-05 at cycle   3 NSaved=   3.
 NSaved= 3 IEnMin= 3 EnMin= -2048.74279294668     IErMin= 3 ErrMin= 8.09D-05
 ErrMax= 8.09D-05  0.00D+00 EMaxC= 1.00D-01 BMatC= 8.92D-06 BMatP= 4.10D-05
 IDIUse=1 WtCom= 1.00D+00 WtEn= 0.00D+00
 Coeff-Com: -0.204D-01 0.303D+00 0.718D+00
 Coeff:     -0.204D-01 0.303D+00 0.718D+00
 Gap=     0.281 Goal=   None    Shift=    0.000
 RMSDP=5.36D-06 MaxDP=3.94D-04 DE=-3.02D-05 OVMax= 5.49D-04

 Cycle   9  Pass 1  IDiag  1:
 RMSU=  3.73D-06    CP:  1.00D+00  1.05D+00  7.75D-01
 E= -2048.74280145586     Delta-E=       -0.000008509175 Rises=F Damp=F
 DIIS: error= 2.80D-05 at cycle   4 NSaved=   4.
 NSaved= 4 IEnMin= 4 EnMin= -2048.74280145586     IErMin= 4 ErrMin= 2.80D-05
 ErrMax= 2.80D-05  0.00D+00 EMaxC= 1.00D-01 BMatC= 4.85D-07 BMatP= 8.92D-06
 IDIUse=1 WtCom= 1.00D+00 WtEn= 0.00D+00
 Coeff-Com: -0.337D-01 0.801D-01 0.266D+00 0.688D+00
 Coeff:     -0.337D-01 0.801D-01 0.266D+00 0.688D+00
 Gap=     0.280 Goal=   None    Shift=    0.000
 RMSDP=1.42D-06 MaxDP=1.25D-04 DE=-8.51D-06 OVMax= 4.96D-04

 Cycle  10  Pass 1  IDiag  1:
 RMSU=  1.25D-06    CP:  1.00D+00  1.06D+00  8.13D-01  1.11D+00
 E= -2048.74280227298     Delta-E=       -0.000000817124 Rises=F Damp=F
 DIIS: error= 1.25D-05 at cycle   5 NSaved=   5.
 NSaved= 5 IEnMin= 5 EnMin= -2048.74280227298     IErMin= 5 ErrMin= 1.25D-05
 ErrMax= 1.25D-05  0.00D+00 EMaxC= 1.00D-01 BMatC= 1.13D-07 BMatP= 4.85D-07
 IDIUse=1 WtCom= 1.00D+00 WtEn= 0.00D+00
 Coeff-Com: -0.361D-02-0.541D-01-0.121D+00 0.204D+00 0.975D+00
 Coeff:     -0.361D-02-0.541D-01-0.121D+00 0.204D+00 0.975D+00
 Gap=     0.281 Goal=   None    Shift=    0.000
 RMSDP=1.16D-06 MaxDP=7.44D-05 DE=-8.17D-07 OVMax= 2.50D-04

 Cycle  11  Pass 1  IDiag  1:
 RMSU=  4.65D-07    CP:  1.00D+00  1.06D+00  8.24D-01  1.38D+00  1.17D+00
 E= -2048.74280251581     Delta-E=       -0.000000242823 Rises=F Damp=F
 DIIS: error= 7.88D-06 at cycle   6 NSaved=   6.
 NSaved= 6 IEnMin= 6 EnMin= -2048.74280251581     IErMin= 6 ErrMin= 7.88D-06
 ErrMax= 7.88D-06  0.00D+00 EMaxC= 1.00D-01 BMatC= 2.58D-08 BMatP= 1.13D-07
 IDIUse=1 WtCom= 1.00D+00 WtEn= 0.00D+00
 Coeff-Com:  0.476D-02-0.421D-01-0.113D+00 0.602D-03 0.513D+00 0.636D+00
 Coeff:      0.476D-02-0.421D-01-0.113D+00 0.602D-03 0.513D+00 0.636D+00
 Gap=     0.281 Goal=   None    Shift=    0.000
 RMSDP=3.41D-07 MaxDP=3.34D-05 DE=-2.43D-07 OVMax= 1.20D-04

 Cycle  12  Pass 1  IDiag  1:
 RMSU=  1.73D-07    CP:  1.00D+00  1.06D+00  8.25D-01  1.45D+00  1.29D+00
                    CP:  9.34D-01
 E= -2048.74280255301     Delta-E=       -0.000000037203 Rises=F Damp=F
 DIIS: error= 9.61D-07 at cycle   7 NSaved=   7.
 NSaved= 7 IEnMin= 7 EnMin= -2048.74280255301     IErMin= 7 ErrMin= 9.61D-07
 ErrMax= 9.61D-07  0.00D+00 EMaxC= 1.00D-01 BMatC= 6.37D-10 BMatP= 2.58D-08
 IDIUse=1 WtCom= 1.00D+00 WtEn= 0.00D+00
 Coeff-Com:  0.907D-03-0.470D-02-0.142D-01-0.766D-02 0.282D-01 0.106D+00
 Coeff-Com:  0.891D+00
 Coeff:      0.907D-03-0.470D-02-0.142D-01-0.766D-02 0.282D-01 0.106D+00
 Coeff:      0.891D+00
 Gap=     0.281 Goal=   None    Shift=    0.000
 RMSDP=8.30D-08 MaxDP=5.27D-06 DE=-3.72D-08 OVMax= 2.41D-05

 Cycle  13  Pass 1  IDiag  1:
 RMSU=  4.65D-08    CP:  1.00D+00  1.06D+00  8.25D-01  1.46D+00  1.31D+00
                    CP:  1.02D+00  1.16D+00
 E= -2048.74280255452     Delta-E=       -0.000000001507 Rises=F Damp=F
 DIIS: error= 4.87D-07 at cycle   8 NSaved=   8.
 NSaved= 8 IEnMin= 8 EnMin= -2048.74280255452     IErMin= 8 ErrMin= 4.87D-07
 ErrMax= 4.87D-07  0.00D+00 EMaxC= 1.00D-01 BMatC= 2.59D-10 BMatP= 6.37D-10
 IDIUse=1 WtCom= 1.00D+00 WtEn= 0.00D+00
 Coeff-Com: -0.748D-03 0.838D-02 0.213D-01-0.158D-02-0.113D+00-0.105D+00
 Coeff-Com:  0.424D+00 0.766D+00
 Coeff:     -0.748D-03 0.838D-02 0.213D-01-0.158D-02-0.113D+00-0.105D+00
 Coeff:      0.424D+00 0.766D+00
 Gap=     0.281 Goal=   None    Shift=    0.000
 RMSDP=4.15D-08 MaxDP=2.34D-06 DE=-1.51D-09 OVMax= 9.83D-06

 Cycle  14  Pass 1  IDiag  1:
 RMSU=  2.38D-08    CP:  1.00D+00  1.06D+00  8.24D-01  1.46D+00  1.32D+00
                    CP:  1.07D+00  1.31D+00  1.11D+00
 E= -2048.74280255490     Delta-E=       -0.000000000386 Rises=F Damp=F
 DIIS: error= 1.39D-07 at cycle   9 NSaved=   9.
 NSaved= 9 IEnMin= 9 EnMin= -2048.74280255490     IErMin= 9 ErrMin= 1.39D-07
 ErrMax= 1.39D-07  0.00D+00 EMaxC= 1.00D-01 BMatC= 1.90D-11 BMatP= 2.59D-10
 IDIUse=1 WtCom= 1.00D+00 WtEn= 0.00D+00
 Coeff-Com: -0.362D-03 0.352D-02 0.917D-02 0.149D-03-0.439D-01-0.485D-01
 Coeff-Com:  0.745D-01 0.264D+00 0.742D+00
 Coeff:     -0.362D-03 0.352D-02 0.917D-02 0.149D-03-0.439D-01-0.485D-01
 Coeff:      0.745D-01 0.264D+00 0.742D+00
 Gap=     0.281 Goal=   None    Shift=    0.000
 RMSDP=1.14D-08 MaxDP=7.00D-07 DE=-3.86D-10 OVMax= 3.26D-06

 Cycle  15  Pass 1  IDiag  1:
 RMSU=  7.80D-09    CP:  1.00D+00  1.06D+00  8.24D-01  1.46D+00  1.32D+00
                    CP:  1.07D+00  1.33D+00  1.24D+00  1.12D+00
 E= -2048.74280255475     Delta-E=        0.000000000152 Rises=F Damp=F
 DIIS: error= 6.45D-08 at cycle  10 NSaved=  10.
 NSaved=10 IEnMin= 9 EnMin= -2048.74280255490     IErMin=10 ErrMin= 6.45D-08
 ErrMax= 6.45D-08  0.00D+00 EMaxC= 1.00D-01 BMatC= 4.63D-12 BMatP= 1.90D-11
 IDIUse=1 WtCom= 1.00D+00 WtEn= 0.00D+00
 Coeff-Com:  0.268D-04-0.512D-03-0.120D-02 0.154D-03 0.811D-02 0.446D-02
 Coeff-Com: -0.625D-01-0.770D-01 0.301D+00 0.828D+00
 Coeff:      0.268D-04-0.512D-03-0.120D-02 0.154D-03 0.811D-02 0.446D-02
 Coeff:     -0.625D-01-0.770D-01 0.301D+00 0.828D+00
 Gap=     0.281 Goal=   None    Shift=    0.000
 RMSDP=5.94D-09 MaxDP=3.51D-07 DE= 1.52D-10 OVMax= 1.24D-06

 SCF Done:  E(RwB97XD) =  -2048.74280255     A.U. after   15 cycles
            NFock= 15  Conv=0.59D-08     -V/T= 2.0054
 KE= 2.037710405603D+03 PE=-1.547543422229D+04 EE= 6.041829956682D+03
 Leave Link  502 at Fri Jan 26 12:16:06 2018, MaxMem=  4294967296 cpu:           19335.9 elap:             624.1
 (Enter /share/apps/g16/l601.exe)
 Copying SCF densities to generalized density rwf, IOpCl= 0 IROHF=0.

 **********************************************************************

            Population analysis using the SCF density.

 **********************************************************************

 Orbital symmetries:
       Occupied  (A) (A) (A) (A) (A) (A) (A) (A) (A) (A) (A) (A)
                 (A) (A) (A) (A) (A) (A) (A) (A) (A) (A) (A) (A)
                 (A) (A) (A) (A) (A) (A) (A) (A) (A) (A) (A) (A)
                 (A) (A) (A) (A) (A) (A) (A) (A) (A) (A) (A) (A)
                 (A) (A) (A) (A) (A) (A) (A) (A) (A) (A) (A) (A)
                 (A) (A) (A) (A) (A) (A) (A) (A) (A) (A) (A) (A)
                 (A) (A) (A) (A) (A) (A) (A) (A) (A) (A) (A) (A)
                 (A) (A) (A) (A) (A) (A) (A) (A) (A) (A) (A) (A)
                 (A) (A) (A) (A) (A) (A) (A) (A) (A) (A) (A) (A)
                 (A) (A) (A) (A) (A) (A) (A) (A) (A) (A) (A) (A)
                 (A) (A) (A) (A) (A) (A) (A) (A) (A) (A) (A) (A)
                 (A) (A) (A) (A) (A) (A) (A) (A) (A) (A) (A) (A)
                 (A) (A) (A) (A) (A) (A) (A) (A) (A) (A)
       Virtual   (A) (A) (A) (A) (A) (A) (A) (A) (A) (A) (A) (A)
                 (A) (A) (A) (A) (A) (A) (A) (A) (A) (A) (A) (A)
                 (A) (A) (A) (A) (A) (A) (A) (A) (A) (A) (A) (A)
                 (A) (A) (A) (A) (A) (A) (A) (A) (A) (A) (A) (A)
                 (A) (A) (A) (A) (A) (A) (A) (A) (A) (A) (A) (A)
                 (A) (A) (A) (A) (A) (A) (A) (A) (A) (A) (A) (A)
                 (A) (A) (A) (A) (A) (A) (A) (A) (A) (A) (A) (A)
                 (A) (A) (A) (A) (A) (A) (A) (A) (A) (A) (A) (A)
                 (A) (A) (A) (A) (A) (A) (A) (A) (A) (A) (A) (A)
                 (A) (A) (A) (A) (A) (A) (A) (A) (A) (A) (A) (A)
                 (A) (A) (A) (A) (A) (A) (A) (A) (A) (A) (A) (A)
                 (A) (A) (A) (A) (A) (A) (A) (A) (A) (A) (A) (A)
                 (A) (A) (A) (A) (A) (A) (A) (A) (A) (A) (A) (A)
                 (A) (A) (A) (A) (A) (A) (A) (A) (A) (A) (A) (A)
                 (A) (A) (A) (A) (A) (A) (A) (A) (A) (A) (A) (A)
                 (A) (A) (A) (A) (A) (A) (A) (A) (A) (A) (A) (A)
                 (A) (A) (A) (A) (A) (A) (A) (A) (A) (A) (A) (A)
                 (A) (A) (A) (A) (A) (A) (A) (A) (A) (A) (A) (A)
                 (A) (A) (A) (A) (A) (A) (A) (A) (A) (A) (A) (A)
                 (A) (A) (A) (A) (A) (A) (A) (A) (A) (A) (A) (A)
                 (A) (A) (A) (A) (A) (A) (A) (A) (A) (A) (A) (A)
                 (A) (A) (A) (A) (A) (A) (A) (A) (A) (A) (A) (A)
                 (A) (A) (A) (A) (A) (A) (A) (A) (A) (A) (A) (A)
                 (A) (A) (A) (A) (A) (A) (A) (A) (A) (A) (A) (A)
                 (A) (A) (A) (A) (A) (A) (A) (A) (A) (A) (A) (A)
                 (A) (A) (A) (A) (A) (A) (A) (A) (A) (A) (A) (A)
                 (A) (A) (A) (A) (A) (A) (A) (A) (A) (A) (A) (A)
                 (A) (A) (A) (A) (A) (A) (A) (A) (A) (A) (A) (A)
                 (A) (A) (A) (A) (A) (A) (A) (A) (A) (A) (A) (A)
                 (A) (A) (A) (A) (A) (A) (A) (A) (A) (A) (A) (A)
                 (A) (A) (A) (A) (A) (A) (A) (A) (A) (A) (A) (A)
                 (A) (A) (A) (A) (A) (A) (A) (A) (A) (A) (A) (A)
                 (A) (A) (A) (A) (A) (A) (A) (A) (A) (A) (A) (A)
                 (A) (A) (A) (A) (A) (A) (A) (A) (A) (A) (A) (A)
                 (A) (A) (A) (A) (A) (A) (A) (A) (A) (A) (A) (A)
                 (A) (A) (A) (A) (A) (A) (A) (A) (A) (A) (A) (A)
                 (A) (A) (A) (A) (A) (A) (A) (A) (A) (A) (A) (A)
                 (A) (A) (A) (A) (A) (A) (A) (A) (A) (A) (A) (A)
                 (A) (A) (A) (A) (A) (A) (A) (A) (A) (A) (A) (A)
                 (A) (A) (A) (A) (A) (A) (A) (A) (A) (A) (A) (A)
                 (A) (A) (A) (A) (A) (A) (A) (A) (A) (A) (A) (A)
                 (A) (A) (A) (A) (A) (A) (A) (A) (A) (A) (A) (A)
                 (A) (A) (A) (A) (A) (A) (A) (A) (A) (A) (A) (A)
                 (A) (A) (A) (A) (A) (A) (A) (A) (A) (A) (A) (A)
                 (A) (A) (A) (A) (A) (A) (A) (A) (A) (A) (A) (A)
                 (A) (A) (A) (A) (A) (A) (A) (A) (A) (A) (A) (A)
                 (A) (A) (A) (A) (A) (A) (A) (A) (A) (A) (A) (A)
                 (A) (A) (A) (A) (A) (A) (A) (A) (A) (A) (A) (A)
                 (A) (A) (A) (A) (A) (A) (A)
 The electronic state is 1-A.
 Alpha  occ. eigenvalues --  -19.26291 -19.22930 -19.21145 -14.52993 -14.50776
 Alpha  occ. eigenvalues --  -14.49105 -14.48774 -14.48521 -14.47625 -14.47563
 Alpha  occ. eigenvalues --  -14.45812 -14.43862 -14.42612 -14.42266 -14.42106
 Alpha  occ. eigenvalues --  -14.41928 -14.41466 -14.41103 -14.40799 -14.40021
 Alpha  occ. eigenvalues --  -10.45996 -10.41863 -10.40944 -10.38759 -10.38412
 Alpha  occ. eigenvalues --  -10.37796 -10.36383 -10.35684 -10.35315 -10.35292
 Alpha  occ. eigenvalues --  -10.34741 -10.34116 -10.33787 -10.33568 -10.33347
 Alpha  occ. eigenvalues --  -10.32980 -10.32557 -10.31686 -10.31135 -10.30931
 Alpha  occ. eigenvalues --  -10.30759 -10.28527 -10.28521  -1.19921  -1.13908
 Alpha  occ. eigenvalues --   -1.13810  -1.13411  -1.11358  -1.10994  -1.09884
 Alpha  occ. eigenvalues --   -1.09221  -1.07144  -1.04877  -1.03232  -1.02703
 Alpha  occ. eigenvalues --   -1.00520  -1.00294  -0.99232  -0.99033  -0.96947
 Alpha  occ. eigenvalues --   -0.96926  -0.94748  -0.92503  -0.91642  -0.85861
 Alpha  occ. eigenvalues --   -0.84520  -0.84286  -0.84162  -0.83915  -0.82844
 Alpha  occ. eigenvalues --   -0.82285  -0.79475  -0.75167  -0.75074  -0.74280
 Alpha  occ. eigenvalues --   -0.73979  -0.72860  -0.72818  -0.70981  -0.68539
 Alpha  occ. eigenvalues --   -0.67978  -0.67135  -0.66217  -0.65002  -0.64899
 Alpha  occ. eigenvalues --   -0.64221  -0.63160  -0.62659  -0.62352  -0.62257
 Alpha  occ. eigenvalues --   -0.60100  -0.60080  -0.60042  -0.59111  -0.58677
 Alpha  occ. eigenvalues --   -0.58386  -0.57837  -0.56925  -0.56448  -0.56382
 Alpha  occ. eigenvalues --   -0.56377  -0.55233  -0.54958  -0.54612  -0.54132
 Alpha  occ. eigenvalues --   -0.53848  -0.53599  -0.53387  -0.52930  -0.52209
 Alpha  occ. eigenvalues --   -0.51950  -0.51628  -0.51088  -0.50697  -0.50650
 Alpha  occ. eigenvalues --   -0.50104  -0.49991  -0.49436  -0.49138  -0.48977
 Alpha  occ. eigenvalues --   -0.48678  -0.48514  -0.48038  -0.47901  -0.47508
 Alpha  occ. eigenvalues --   -0.46877  -0.45192  -0.45038  -0.44613  -0.43008
 Alpha  occ. eigenvalues --   -0.41082  -0.39904  -0.39017  -0.37777  -0.37731
 Alpha  occ. eigenvalues --   -0.37115  -0.36820  -0.35772  -0.35604  -0.35091
 Alpha  occ. eigenvalues --   -0.34032  -0.33492  -0.33457  -0.33226  -0.32943
 Alpha  occ. eigenvalues --   -0.32645  -0.32403  -0.32271  -0.32035  -0.30912
 Alpha  occ. eigenvalues --   -0.30226  -0.28057  -0.25928  -0.25675
 Alpha virt. eigenvalues --    0.02378   0.05804   0.07824   0.08064   0.08584
 Alpha virt. eigenvalues --    0.09050   0.09507   0.11091   0.11651   0.12352
 Alpha virt. eigenvalues --    0.12843   0.14032   0.14357   0.14777   0.15808
 Alpha virt. eigenvalues --    0.16352   0.16556   0.16901   0.17148   0.17853
 Alpha virt. eigenvalues --    0.18827   0.19266   0.19985   0.20054   0.20199
 Alpha virt. eigenvalues --    0.20586   0.21009   0.21687   0.22196   0.22480
 Alpha virt. eigenvalues --    0.22813   0.23293   0.23359   0.23582   0.23775
 Alpha virt. eigenvalues --    0.24086   0.24152   0.24458   0.24693   0.24952
 Alpha virt. eigenvalues --    0.26111   0.26724   0.26841   0.27419   0.27813
 Alpha virt. eigenvalues --    0.29036   0.29262   0.29959   0.30176   0.30914
 Alpha virt. eigenvalues --    0.31026   0.31621   0.32862   0.33055   0.33601
 Alpha virt. eigenvalues --    0.33797   0.34667   0.35430   0.35792   0.36706
 Alpha virt. eigenvalues --    0.37118   0.37504   0.38250   0.39077   0.40128
 Alpha virt. eigenvalues --    0.40366   0.40765   0.41019   0.41162   0.42012
 Alpha virt. eigenvalues --    0.42310   0.42839   0.43472   0.43964   0.44400
 Alpha virt. eigenvalues --    0.44853   0.46033   0.46170   0.46318   0.47153
 Alpha virt. eigenvalues --    0.47632   0.47891   0.48632   0.48837   0.49752
 Alpha virt. eigenvalues --    0.49996   0.50329   0.50511   0.50962   0.51462
 Alpha virt. eigenvalues --    0.51914   0.51988   0.52604   0.53094   0.53519
 Alpha virt. eigenvalues --    0.53777   0.54216   0.54508   0.54903   0.55352
 Alpha virt. eigenvalues --    0.56019   0.56161   0.56682   0.57380   0.57419
 Alpha virt. eigenvalues --    0.57696   0.58016   0.58579   0.58951   0.59478
 Alpha virt. eigenvalues --    0.59810   0.60108   0.60516   0.60906   0.61116
 Alpha virt. eigenvalues --    0.61504   0.61977   0.62362   0.62534   0.63225
 Alpha virt. eigenvalues --    0.63730   0.64180   0.64749   0.65001   0.65212
 Alpha virt. eigenvalues --    0.65747   0.65957   0.66019   0.66424   0.67198
 Alpha virt. eigenvalues --    0.67441   0.67825   0.68174   0.68427   0.68738
 Alpha virt. eigenvalues --    0.68926   0.69629   0.70022   0.70257   0.70517
 Alpha virt. eigenvalues --    0.70667   0.71112   0.72788   0.73143   0.73526
 Alpha virt. eigenvalues --    0.73876   0.74340   0.74734   0.75143   0.75490
 Alpha virt. eigenvalues --    0.75781   0.75874   0.76113   0.76240   0.76576
 Alpha virt. eigenvalues --    0.77262   0.77426   0.77692   0.77794   0.78233
 Alpha virt. eigenvalues --    0.78299   0.78698   0.79462   0.79679   0.80522
 Alpha virt. eigenvalues --    0.80886   0.81455   0.82064   0.82319   0.82932
 Alpha virt. eigenvalues --    0.83451   0.83652   0.84008   0.84595   0.84866
 Alpha virt. eigenvalues --    0.85461   0.86069   0.86582   0.86830   0.87648
 Alpha virt. eigenvalues --    0.88090   0.88457   0.88921   0.89022   0.89622
 Alpha virt. eigenvalues --    0.90107   0.90751   0.91062   0.91268   0.92066
 Alpha virt. eigenvalues --    0.92378   0.92557   0.92768   0.93242   0.93705
 Alpha virt. eigenvalues --    0.94097   0.95210   0.95718   0.95768   0.95980
 Alpha virt. eigenvalues --    0.96205   0.96978   0.97705   0.97908   0.98567
 Alpha virt. eigenvalues --    0.98772   0.99046   0.99719   1.00089   1.00506
 Alpha virt. eigenvalues --    1.01084   1.01566   1.01852   1.02457   1.02665
 Alpha virt. eigenvalues --    1.03030   1.03751   1.03814   1.04145   1.04845
 Alpha virt. eigenvalues --    1.05605   1.05993   1.06119   1.06966   1.07045
 Alpha virt. eigenvalues --    1.07487   1.07898   1.09126   1.09585   1.10630
 Alpha virt. eigenvalues --    1.10746   1.11044   1.12085   1.12389   1.13259
 Alpha virt. eigenvalues --    1.13350   1.13711   1.14235   1.14831   1.15087
 Alpha virt. eigenvalues --    1.15434   1.16018   1.16690   1.16941   1.17363
 Alpha virt. eigenvalues --    1.18090   1.18408   1.19148   1.19447   1.19552
 Alpha virt. eigenvalues --    1.19874   1.20052   1.20320   1.20673   1.20863
 Alpha virt. eigenvalues --    1.21627   1.21927   1.22131   1.22521   1.22820
 Alpha virt. eigenvalues --    1.22913   1.23364   1.24055   1.24391   1.24648
 Alpha virt. eigenvalues --    1.25808   1.26206   1.26664   1.27522   1.28017
 Alpha virt. eigenvalues --    1.28330   1.28872   1.29219   1.29746   1.31203
 Alpha virt. eigenvalues --    1.31858   1.32625   1.32955   1.33208   1.33634
 Alpha virt. eigenvalues --    1.34068   1.35014   1.35253   1.36090   1.36529
 Alpha virt. eigenvalues --    1.37402   1.37555   1.38873   1.39075   1.39595
 Alpha virt. eigenvalues --    1.40848   1.41103   1.42126   1.44223   1.44319
 Alpha virt. eigenvalues --    1.44774   1.45527   1.46261   1.47227   1.47777
 Alpha virt. eigenvalues --    1.48036   1.48651   1.48887   1.49112   1.50027
 Alpha virt. eigenvalues --    1.50768   1.51464   1.52155   1.52675   1.54698
 Alpha virt. eigenvalues --    1.55145   1.55953   1.56138   1.56498   1.56795
 Alpha virt. eigenvalues --    1.57724   1.58756   1.59228   1.59535   1.59922
 Alpha virt. eigenvalues --    1.61168   1.61331   1.61375   1.62277   1.62976
 Alpha virt. eigenvalues --    1.63506   1.65420   1.65956   1.66292   1.66759
 Alpha virt. eigenvalues --    1.67197   1.67293   1.67678   1.68011   1.68218
 Alpha virt. eigenvalues --    1.69115   1.69611   1.70024   1.70412   1.71341
 Alpha virt. eigenvalues --    1.71517   1.72154   1.72543   1.72741   1.73243
 Alpha virt. eigenvalues --    1.73645   1.74071   1.74418   1.74728   1.74958
 Alpha virt. eigenvalues --    1.75076   1.75314   1.75802   1.76346   1.76678
 Alpha virt. eigenvalues --    1.76955   1.77361   1.77902   1.78276   1.78478
 Alpha virt. eigenvalues --    1.78890   1.79796   1.80048   1.80072   1.80291
 Alpha virt. eigenvalues --    1.80462   1.80592   1.80797   1.81221   1.82106
 Alpha virt. eigenvalues --    1.82133   1.82641   1.82764   1.83615   1.83625
 Alpha virt. eigenvalues --    1.84288   1.85182   1.85901   1.86141   1.86498
 Alpha virt. eigenvalues --    1.86864   1.87731   1.87774   1.88138   1.88649
 Alpha virt. eigenvalues --    1.88819   1.89274   1.89531   1.90025   1.90539
 Alpha virt. eigenvalues --    1.91242   1.92080   1.92341   1.93165   1.93442
 Alpha virt. eigenvalues --    1.93517   1.94488   1.95289   1.95677   1.96467
 Alpha virt. eigenvalues --    1.97830   1.98514   1.99304   1.99722   2.00787
 Alpha virt. eigenvalues --    2.01185   2.01363   2.02170   2.02785   2.03583
 Alpha virt. eigenvalues --    2.04213   2.04776   2.05904   2.06749   2.06949
 Alpha virt. eigenvalues --    2.07360   2.08281   2.08639   2.08748   2.09662
 Alpha virt. eigenvalues --    2.09871   2.10551   2.10791   2.11840   2.12532
 Alpha virt. eigenvalues --    2.13187   2.13854   2.14280   2.15804   2.17720
 Alpha virt. eigenvalues --    2.18745   2.18943   2.19899   2.20615   2.20758
 Alpha virt. eigenvalues --    2.21200   2.21697   2.22459   2.23004   2.23819
 Alpha virt. eigenvalues --    2.24072   2.25193   2.25243   2.25582   2.26171
 Alpha virt. eigenvalues --    2.27563   2.28031   2.28194   2.29217   2.29588
 Alpha virt. eigenvalues --    2.29783   2.30179   2.31118   2.31588   2.32140
 Alpha virt. eigenvalues --    2.32542   2.32772   2.33606   2.34136   2.34416
 Alpha virt. eigenvalues --    2.34899   2.35467   2.36088   2.36811   2.37248
 Alpha virt. eigenvalues --    2.38026   2.39167   2.39611   2.40653   2.41529
 Alpha virt. eigenvalues --    2.41765   2.42212   2.42835   2.43554   2.43934
 Alpha virt. eigenvalues --    2.44303   2.44724   2.46027   2.46215   2.46961
 Alpha virt. eigenvalues --    2.47904   2.48571   2.49094   2.50407   2.51289
 Alpha virt. eigenvalues --    2.51593   2.53519   2.53905   2.54487   2.55148
 Alpha virt. eigenvalues --    2.56171   2.56737   2.56835   2.58645   2.59804
 Alpha virt. eigenvalues --    2.60047   2.61163   2.61744   2.62065   2.63292
 Alpha virt. eigenvalues --    2.63931   2.64706   2.64901   2.65176   2.66246
 Alpha virt. eigenvalues --    2.67036   2.67616   2.68205   2.68686   2.68945
 Alpha virt. eigenvalues --    2.69274   2.69906   2.70751   2.70812   2.71709
 Alpha virt. eigenvalues --    2.73370   2.74075   2.74160   2.75508   2.75884
 Alpha virt. eigenvalues --    2.77197   2.78494   2.79016   2.79221   2.79501
 Alpha virt. eigenvalues --    2.80084   2.80131   2.80371   2.80674   2.81185
 Alpha virt. eigenvalues --    2.81944   2.82364   2.82844   2.83147   2.84058
 Alpha virt. eigenvalues --    2.84570   2.85006   2.85822   2.86368   2.86898
 Alpha virt. eigenvalues --    2.87691   2.87827   2.88747   2.89751   2.90966
 Alpha virt. eigenvalues --    2.93308   2.96011   2.97129   2.98232   2.99202
 Alpha virt. eigenvalues --    2.99962   3.01730   3.02231   3.03923   3.06027
 Alpha virt. eigenvalues --    3.06740   3.09936   3.11369   3.13971   3.14479
 Alpha virt. eigenvalues --    3.14883   3.15246   3.16071   3.17202   3.19745
 Alpha virt. eigenvalues --    3.21497   3.22885   3.22988   3.23796   3.25434
 Alpha virt. eigenvalues --    3.46720   3.46914   3.47385   3.49477   3.51026
 Alpha virt. eigenvalues --    3.53290   3.53593   3.55471   3.57211   3.59398
 Alpha virt. eigenvalues --    3.61483   3.70555   3.73896
          Condensed to atoms (all electrons):
 Mulliken charges:
               1
     1  N   -0.310665
     2  C    0.181067
     3  C    0.027458
     4  N   -0.258359
     5  C    0.132597
     6  H    0.026274
     7  N   -0.291651
     8  C    0.131353
     9  H    0.010793
    10  N   -0.289453
    11  C    0.240817
    12  C    0.121473
    13  N   -0.052739
    14  H    0.109235
    15  H    0.090921
    16  H    0.025474
    17  H    0.035251
    18  H    0.025415
    19  N   -0.310487
    20  C    0.260518
    21  C    0.182315
    22  N   -0.122389
    23  H    0.116370
    24  H    0.118164
    25  N   -0.302090
    26  C    0.227349
    27  N   -0.129565
    28  H    0.120820
    29  C    0.174421
    30  O   -0.324112
    31  C   -0.019644
    32  N   -0.217154
    33  C    0.130095
    34  H    0.031895
    35  H    0.030684
    36  H    0.027619
    37  H    0.025423
    38  H    0.062971
    39  H    0.061084
    40  H    0.075613
    41  H    0.034079
    42  C   -0.105446
    43  O   -0.273122
    44  C    0.152764
    45  H    0.136614
    46  N   -0.133373
    47  O   -0.349990
    48  C    0.363795
    49  H    0.051135
    50  C    0.175139
    51  C    0.042351
    52  N   -0.297584
    53  H    0.029205
    54  H    0.043549
    55  H    0.013482
    56  H    0.127587
    57  H    0.111505
    58  N   -0.051243
    59  C    0.091796
    60  C    0.239186
    61  N   -0.266406
    62  H    0.036213
    63  C    0.166642
    64  N   -0.297795
    65  H    0.025850
    66  C    0.125909
    67  N   -0.268083
    68  C    0.025532
    69  C    0.183709
    70  N   -0.308160
 Sum of Mulliken charges =  -0.00000
 Mulliken charges with hydrogens summed into heavy atoms:
               1
     1  N   -0.310665
     2  C    0.267207
     3  C    0.027458
     4  N   -0.258359
     5  C    0.158872
     7  N   -0.291651
     8  C    0.142146
    10  N   -0.289453
    11  C    0.240817
    12  C    0.121473
    13  N    0.147417
    19  N   -0.310487
    20  C    0.260518
    21  C    0.266040
    22  N    0.112145
    25  N   -0.302090
    26  C    0.227349
    27  N   -0.008745
    29  C    0.174421
    30  O   -0.324112
    31  C   -0.019644
    32  N   -0.217154
    33  C    0.161990
    42  C   -0.071367
    43  O   -0.273122
    44  C    0.152764
    46  N    0.003241
    47  O   -0.349990
    48  C    0.363795
    50  C    0.226274
    51  C    0.242020
    52  N   -0.297584
    58  N    0.187849
    59  C    0.091796
    60  C    0.239186
    61  N   -0.266406
    63  C    0.202855
    64  N   -0.297795
    66  C    0.151759
    67  N   -0.268083
    68  C    0.025532
    69  C    0.269946
    70  N   -0.308160
 Electronic spatial extent (au):  <R**2>=          25230.8042
 Charge=             -0.0000 electrons
 Dipole moment (field-independent basis, Debye):
    X=              9.3455    Y=              5.0177    Z=              0.9427  Tot=             10.6492
 Quadrupole moment (field-independent basis, Debye-Ang):
   XX=           -147.6116   YY=           -213.8153   ZZ=           -247.5106
   XY=             -0.3961   XZ=             13.7092   YZ=             -5.3674
 Traceless Quadrupole moment (field-independent basis, Debye-Ang):
   XX=             55.3676   YY=            -10.8361   ZZ=            -44.5314
   XY=             -0.3961   XZ=             13.7092   YZ=             -5.3674
 Octapole moment (field-independent basis, Debye-Ang**2):
  XXX=             86.7146  YYY=            138.6389  ZZZ=              1.6873  XYY=             96.1474
  XXY=           -136.1797  XXZ=            -82.1822  XZZ=             23.5409  YZZ=             46.9966
  YYZ=             22.4877  XYZ=             44.9818
 Hexadecapole moment (field-independent basis, Debye-Ang**3):
 XXXX=         -15880.2826 YYYY=          -6923.9052 ZZZZ=          -3311.7348 XXXY=            377.6501
 XXXZ=            341.2855 YYYX=           -113.2438 YYYZ=            -96.2976 ZZZX=             78.3094
 ZZZY=             77.1977 XXYY=          -4073.5081 XXZZ=          -4288.2064 YYZZ=          -1654.2324
 XXYZ=            103.6207 YYXZ=            218.7531 ZZXY=             58.5369
 N-N= 5.347151057454D+03 E-N=-1.547543421505D+04  KE= 2.037710405603D+03
 No NMR shielding tensors so no spin-rotation constants.
 Leave Link  601 at Fri Jan 26 12:16:08 2018, MaxMem=  4294967296 cpu:              46.9 elap:               1.6
 (Enter /share/apps/g16/l9999.exe)
 1\1\GINC-COMPUTE-0-3\SP\RwB97XD\CC-pVDZ\C23H27N17O3\SATYA\26-Jan-2018\
 0\\#p wb97xd/cc-pvdz sp scf=(maxcycles=20)\\Base pair stacking\\0,1\N,
 0,10.58201,1.04614,-2.97306\C,0,11.98393,1.49198,-2.85541\C,0,8.45134,
 0.91234,-3.5019\N,0,8.72506,-0.19397,-2.71077\C,0,9.99775,-0.06908,-2.
 42383\H,0,10.56636,-0.76806,-1.80978\N,0,7.34241,2.50235,-4.84544\C,0,
 8.51339,3.1433,-4.92004\H,0,8.50593,4.05813,-5.51106\N,0,9.68669,2.825
 36,-4.37673\C,0,9.58621,1.68599,-3.67234\C,0,7.27406,1.35895,-4.12917\
 N,0,6.10605,0.7177,-4.05352\H,0,6.00928,-0.13221,-3.53437\H,0,5.28836,
 1.06478,-4.51294\H,0,12.59093,0.78903,-3.22633\H,0,12.10821,2.34189,-3
 .36662\H,0,12.20656,1.64821,-1.89311\N,0,4.80568,5.99142,-2.70722\C,0,
 3.56939,5.45475,-2.97485\C,0,5.18588,7.40356,-2.91222\N,0,0.30422,5.83
 443,-4.09567\H,0,-0.50465,5.26027,-4.21939\H,0,0.21817,6.79934,-4.3452
 \N,0,2.50281,6.12193,-3.4661\C,0,1.45312,5.33385,-3.61675\N,0,1.44638,
 3.99461,-3.31035\H,0,0.59814,3.46954,-3.45783\C,0,2.53223,3.28739,-2.8
 0377\O,0,2.42108,2.07938,-2.56065\C,0,3.66736,4.12069,-2.6365\N,0,4.93
 955,3.82576,-2.16593\C,0,5.57817,4.96278,-2.22577\H,0,6.61784,5.10734,
 -1.93004\H,0,5.94496,7.45541,-3.56023\H,0,4.40367,7.90769,-3.27592\H,0
 ,5.46401,7.80552,-2.04051\H,0,-3.72176,1.28945,-5.01938\H,0,-4.15335,1
 .40669,-3.31509\H,0,-3.10374,2.62271,-4.04377\H,0,-1.24142,-2.42203,-3
 .22511\C,0,-1.17416,-1.33558,-3.28281\O,0,1.12552,-1.26328,-2.70542\C,
 0,0.07661,-0.69603,-3.01007\H,0,0.91754,1.16783,-2.92534\N,0,0.05228,0
 .68037,-3.11092\O,0,-0.94724,2.68173,-3.50172\C,0,-1.02361,1.46736,-3.
 43752\H,0,-3.21497,-1.03254,-3.82048\C,0,-2.24132,-0.59491,-3.60402\C,
 0,-3.37059,1.57633,-4.03936\N,0,-2.19377,0.77743,-3.68638\H,0,1.27523,
 5.64662,-8.84358\H,0,2.25178,6.04065,-7.5973\H,0,0.63657,6.23144,-7.46
 028\H,0,2.65137,-0.35704,-4.70501\H,0,1.16271,-0.10394,-5.49868\N,0,2.
 06029,0.25111,-5.23502\C,0,2.45067,1.48106,-5.5756\C,0,2.20015,3.61643
 ,-6.59499\N,0,3.41108,4.06671,-6.22713\H,0,5.05906,3.42097,-5.19378\C,
 0,4.06368,3.13687,-5.53257\N,0,3.6744,1.9044,-5.19043\H,0,-0.72148,3.6
 9789,-7.97687\C,0,0.1865,3.42039,-7.44067\N,0,0.38425,2.26252,-6.85937
 \C,0,1.65731,2.37353,-6.31924\C,0,1.3614,5.66143,-7.84741\N,0,1.24449,
 4.28804,-7.32\\Version=EM64L-G16RevA.03\State=1-A\HF=-2048.7428026\RMS
 D=5.941e-09\Dipole=-3.5681406,1.8495725,-1.1837102\Quadrupole=38.07954
 34,-7.5307385,-30.5488049,2.6214303,17.864115,-1.2965488\PG=C01 [X(C23
 H27N17O3)]\\@


 WHERE THERE IS MUCH DESIRE TO LEARN, THERE OF NECESSITY WILL BE
 MUCH ARGUING, MUCH WRITING, MANY OPINIONS; FOR OPINION IN GOOD MEN
 IS BUT KNOWLEDGE IN THE MAKING. -- JOHN MILTON.
 Job cpu time:       0 days  5 hours 32 minutes  1.3 seconds.
 Elapsed time:       0 days  0 hours 10 minutes 42.8 seconds.
 File lengths (MBytes):  RWF=    298 Int=      0 D2E=      0 Chk=     33 Scr=      1
 Normal termination of Gaussian 16 at Fri Jan 26 12:16:09 2018.
