 Entering Gaussian System, Link 0=g16
 Input=str55.-15.-2.0.com
 Output=str55.-15.-2.0.log
 Initial command:
 /share/apps/g16/l1.exe "/state/partition1/scr/Gau-25368.inp" -scrdir="/state/partition1/scr/"
 Entering Link 1 = /share/apps/g16/l1.exe PID=     25369.
  
 Copyright (c) 1988,1990,1992,1993,1995,1998,2003,2009,2016,
            Gaussian, Inc.  All Rights Reserved.
  
 This is part of the Gaussian(R) 16 program.  It is based on
 the Gaussian(R) 09 system (copyright 2009, Gaussian, Inc.),
 the Gaussian(R) 03 system (copyright 2003, Gaussian, Inc.),
 the Gaussian(R) 98 system (copyright 1998, Gaussian, Inc.),
 the Gaussian(R) 94 system (copyright 1995, Gaussian, Inc.),
 the Gaussian 92(TM) system (copyright 1992, Gaussian, Inc.),
 the Gaussian 90(TM) system (copyright 1990, Gaussian, Inc.),
 the Gaussian 88(TM) system (copyright 1988, Gaussian, Inc.),
 the Gaussian 86(TM) system (copyright 1986, Carnegie Mellon
 University), and the Gaussian 82(TM) system (copyright 1983,
 Carnegie Mellon University). Gaussian is a federally registered
 trademark of Gaussian, Inc.
  
 This software contains proprietary and confidential information,
 including trade secrets, belonging to Gaussian, Inc.
  
 This software is provided under written license and may be
 used, copied, transmitted, or stored only in accord with that
 written license.
  
 The following legend is applicable only to US Government
 contracts under FAR:
  
                    RESTRICTED RIGHTS LEGEND
  
 Use, reproduction and disclosure by the US Government is
 subject to restrictions as set forth in subparagraphs (a)
 and (c) of the Commercial Computer Software - Restricted
 Rights clause in FAR 52.227-19.
  
 Gaussian, Inc.
 340 Quinnipiac St., Bldg. 40, Wallingford CT 06492
  
  
 ---------------------------------------------------------------
 Warning -- This program may not be used in any manner that
 competes with the business of Gaussian, Inc. or will provide
 assistance to any competitor of Gaussian, Inc.  The licensee
 of this program is prohibited from giving any competitor of
 Gaussian, Inc. access to this program.  By using this program,
 the user acknowledges that Gaussian, Inc. is engaged in the
 business of creating and licensing software in the field of
 computational chemistry and represents and warrants to the
 licensee that it is not a competitor of Gaussian, Inc. and that
 it will not use this program in any manner prohibited above.
 ---------------------------------------------------------------
  

 Cite this work as:
 Gaussian 16, Revision A.03,
 M. J. Frisch, G. W. Trucks, H. B. Schlegel, G. E. Scuseria, 
 M. A. Robb, J. R. Cheeseman, G. Scalmani, V. Barone, 
 G. A. Petersson, H. Nakatsuji, X. Li, M. Caricato, A. V. Marenich, 
 J. Bloino, B. G. Janesko, R. Gomperts, B. Mennucci, H. P. Hratchian, 
 J. V. Ortiz, A. F. Izmaylov, J. L. Sonnenberg, D. Williams-Young, 
 F. Ding, F. Lipparini, F. Egidi, J. Goings, B. Peng, A. Petrone, 
 T. Henderson, D. Ranasinghe, V. G. Zakrzewski, J. Gao, N. Rega, 
 G. Zheng, W. Liang, M. Hada, M. Ehara, K. Toyota, R. Fukuda, 
 J. Hasegawa, M. Ishida, T. Nakajima, Y. Honda, O. Kitao, H. Nakai, 
 T. Vreven, K. Throssell, J. A. Montgomery, Jr., J. E. Peralta, 
 F. Ogliaro, M. J. Bearpark, J. J. Heyd, E. N. Brothers, K. N. Kudin, 
 V. N. Staroverov, T. A. Keith, R. Kobayashi, J. Normand, 
 K. Raghavachari, A. P. Rendell, J. C. Burant, S. S. Iyengar, 
 J. Tomasi, M. Cossi, J. M. Millam, M. Klene, C. Adamo, R. Cammi, 
 J. W. Ochterski, R. L. Martin, K. Morokuma, O. Farkas, 
 J. B. Foresman, and D. J. Fox, Gaussian, Inc., Wallingford CT, 2016.
 
 ******************************************
 Gaussian 16:  EM64L-G16RevA.03 25-Dec-2016
                26-Jan-2018 
 ******************************************
 %nprocshared=32
 Will use up to   32 processors via shared memory.
 %mem=32GB
 %chk=allatoms_t.chk
 ---------------------------------------
 #p wb97xd/cc-pvdz sp scf=(maxcycles=20)
 ---------------------------------------
 1/38=1,172=1/1;
 2/12=2,17=6,18=5,40=1/2;
 3/5=16,11=2,25=1,30=1,74=-58/1,2,3;
 4//1;
 5/5=2,7=20,38=5/2;
 6/7=2,8=2,9=2,10=2,28=1/1;
 99/5=1,9=1/99;
 Leave Link    1 at Fri Jan 26 05:51:28 2018, MaxMem=  4294967296 cpu:               2.7 elap:               0.1
 (Enter /share/apps/g16/l101.exe)
 ------------------
 Base pair stacking
 ------------------
 Symbolic Z-matrix:
 Charge =  0 Multiplicity = 1
 N                     7.10816   2.1541   -8.42828 
 C                     8.45854   2.69725  -8.67218 
 C                     4.98659   1.94833  -7.88615 
 N                     5.40224   0.6944   -8.30997 
 C                     6.66377   0.86856  -8.61961 
 H                     7.32352   0.0862   -8.99589 
 N                     3.67102   3.73261  -7.08082 
 C                     4.76473   4.49234  -7.19989 
 H                     4.64073   5.53471  -6.90945 
 N                     5.9829    4.15935  -7.62187 
 C                     6.02716   2.85839  -7.95349 
 C                     3.74803   2.42785  -7.42252 
 N                     2.65734   1.66786  -7.30435 
 H                     2.66846   0.69687  -7.54574 
 H                     1.79239   2.04295  -6.9707 
 H                     8.69586   2.58334  -9.63701 
 H                     8.47503   3.66894  -8.43834 
 H                     9.12358   2.20886  -8.10722 
 N                     3.58025   5.60025  -3.58352 
 C                     2.33139   5.06471  -3.37959 
 C                     3.90002   7.04191  -3.59136 
 N                    -1.05963   5.4904   -2.7619 
 H                    -1.86523   4.91163  -2.6383 
 H                    -1.19822   6.4794   -2.70361 
 N                     1.19569   5.75992  -3.15392 
 C                     0.15246   4.96484  -2.99539 
 N                     0.21455   3.59359  -3.05308 
 H                    -0.63423   3.06554  -2.92006 
 C                     1.37221   2.85715  -3.28406 
 O                     1.31971   1.62147  -3.31676 
 C                     2.50132   3.69758  -3.45632 
 N                     3.83012   3.3812   -3.70345 
 C                     4.43091   4.53823  -3.77096 
 H                     5.49697   4.6745   -3.95596 
 H                     4.28098   7.2957   -4.47976 
 H                     3.06637   7.56696  -3.42521 
 H                     4.56664   7.24107  -2.87389 
 H                    -5.30046   1.04846  -2.81791 
 H                    -4.89917   0.72729  -1.13254 
 H                    -4.23459   2.14702  -1.94129 
 H                    -2.47761  -2.81681  -3.30555 
 C                    -2.38595  -1.74601  -3.12332 
 O                    -0.07623  -1.66604  -3.65803 
 C                    -1.11637  -1.11107  -3.30461 
 H                    -0.23092   0.7287   -3.16485 
 N                    -1.11018   0.24509  -3.04765 
 O                    -2.06887   2.21336  -2.44431 
 C                    -2.17252   1.01647  -2.64771 
 H                    -4.42751  -1.45514  -2.5818 
 C                    -3.44056  -1.02023  -2.73391 
 C                    -4.5257    1.11495  -2.06865 
 N                    -3.36232   0.3322   -2.49481 
 H                    -2.92234   7.31426  -4.55462 
 H                    -1.42945   6.96804  -3.99471 
 H                    -2.73947   6.6565   -3.07228 
 H                    -0.83332   0.58962  -6.8957 
 H                    -2.4527    0.97615  -6.52382 
 N                    -1.48926   1.24633  -6.52338 
 C                    -1.09765   2.43001  -6.04723 
 C                    -1.42355   4.56963  -5.05851 
 N                    -0.12303   4.90566  -5.07064 
 H                     1.67898   4.11539  -5.64409 
 C                     0.60777   3.92445  -5.59606 
 N                     0.21742   2.73817  -6.07351 
 H                    -4.59114   4.91657  -4.51243 
 C                    -3.60029   4.55876  -4.79374 
 N                    -3.35649   3.39295  -5.34067 
 C                    -1.98      3.387    -5.51378 
 C                    -2.38447   6.67324  -4.00709 
 N                    -2.47612   5.32247  -4.59446 
 
 ITRead=  0  0  0  0  0  0  0  0  0  0  0  0  0  0  0  0  0  0  0  0
 ITRead=  0  0  0  0  0  0  0  0  0  0  0  0  0  0  0  0  0  0  0  0
 ITRead=  0  0  0  0  0  0  0  0  0  0  0  0  0  0  0  0  0  0  0  0
 ITRead=  0  0  0  0  0  0  0  0  0  0
 MicOpt= -1 -1 -1 -1 -1 -1 -1 -1 -1 -1 -1 -1 -1 -1 -1 -1 -1 -1 -1 -1
 MicOpt= -1 -1 -1 -1 -1 -1 -1 -1 -1 -1 -1 -1 -1 -1 -1 -1 -1 -1 -1 -1
 MicOpt= -1 -1 -1 -1 -1 -1 -1 -1 -1 -1 -1 -1 -1 -1 -1 -1 -1 -1 -1 -1
 MicOpt= -1 -1 -1 -1 -1 -1 -1 -1 -1 -1
 NAtoms=     70 NQM=       70 NQMF=       0 NMMI=      0 NMMIF=      0
                NMic=       0 NMicF=      0.
                    Isotopes and Nuclear Properties:
 (Nuclear quadrupole moments (NQMom) in fm**2, nuclear magnetic moments (NMagM)
  in nuclear magnetons)

  Atom         1           2           3           4           5           6           7           8           9          10
 IAtWgt=          14          12          12          14          12           1          14          12           1          14
 AtmWgt=  14.0030740  12.0000000  12.0000000  14.0030740  12.0000000   1.0078250  14.0030740  12.0000000   1.0078250  14.0030740
 NucSpn=           2           0           0           2           0           1           2           0           1           2
 AtZEff=  -0.0000000  -0.0000000  -0.0000000  -0.0000000  -0.0000000  -0.0000000  -0.0000000  -0.0000000  -0.0000000  -0.0000000
 NQMom=    2.0440000   0.0000000   0.0000000   2.0440000   0.0000000   0.0000000   2.0440000   0.0000000   0.0000000   2.0440000
 NMagM=    0.4037610   0.0000000   0.0000000   0.4037610   0.0000000   2.7928460   0.4037610   0.0000000   2.7928460   0.4037610
 AtZNuc=   7.0000000   6.0000000   6.0000000   7.0000000   6.0000000   1.0000000   7.0000000   6.0000000   1.0000000   7.0000000

  Atom        11          12          13          14          15          16          17          18          19          20
 IAtWgt=          12          12          14           1           1           1           1           1          14          12
 AtmWgt=  12.0000000  12.0000000  14.0030740   1.0078250   1.0078250   1.0078250   1.0078250   1.0078250  14.0030740  12.0000000
 NucSpn=           0           0           2           1           1           1           1           1           2           0
 AtZEff=  -0.0000000  -0.0000000  -0.0000000  -0.0000000  -0.0000000  -0.0000000  -0.0000000  -0.0000000  -0.0000000  -0.0000000
 NQMom=    0.0000000   0.0000000   2.0440000   0.0000000   0.0000000   0.0000000   0.0000000   0.0000000   2.0440000   0.0000000
 NMagM=    0.0000000   0.0000000   0.4037610   2.7928460   2.7928460   2.7928460   2.7928460   2.7928460   0.4037610   0.0000000
 AtZNuc=   6.0000000   6.0000000   7.0000000   1.0000000   1.0000000   1.0000000   1.0000000   1.0000000   7.0000000   6.0000000

  Atom        21          22          23          24          25          26          27          28          29          30
 IAtWgt=          12          14           1           1          14          12          14           1          12          16
 AtmWgt=  12.0000000  14.0030740   1.0078250   1.0078250  14.0030740  12.0000000  14.0030740   1.0078250  12.0000000  15.9949146
 NucSpn=           0           2           1           1           2           0           2           1           0           0
 AtZEff=  -0.0000000  -0.0000000  -0.0000000  -0.0000000  -0.0000000  -0.0000000  -0.0000000  -0.0000000  -0.0000000  -0.0000000
 NQMom=    0.0000000   2.0440000   0.0000000   0.0000000   2.0440000   0.0000000   2.0440000   0.0000000   0.0000000   0.0000000
 NMagM=    0.0000000   0.4037610   2.7928460   2.7928460   0.4037610   0.0000000   0.4037610   2.7928460   0.0000000   0.0000000
 AtZNuc=   6.0000000   7.0000000   1.0000000   1.0000000   7.0000000   6.0000000   7.0000000   1.0000000   6.0000000   8.0000000

  Atom        31          32          33          34          35          36          37          38          39          40
 IAtWgt=          12          14          12           1           1           1           1           1           1           1
 AtmWgt=  12.0000000  14.0030740  12.0000000   1.0078250   1.0078250   1.0078250   1.0078250   1.0078250   1.0078250   1.0078250
 NucSpn=           0           2           0           1           1           1           1           1           1           1
 AtZEff=  -0.0000000  -0.0000000  -0.0000000  -0.0000000  -0.0000000  -0.0000000  -0.0000000  -0.0000000  -0.0000000  -0.0000000
 NQMom=    0.0000000   2.0440000   0.0000000   0.0000000   0.0000000   0.0000000   0.0000000   0.0000000   0.0000000   0.0000000
 NMagM=    0.0000000   0.4037610   0.0000000   2.7928460   2.7928460   2.7928460   2.7928460   2.7928460   2.7928460   2.7928460
 AtZNuc=   6.0000000   7.0000000   6.0000000   1.0000000   1.0000000   1.0000000   1.0000000   1.0000000   1.0000000   1.0000000

  Atom        41          42          43          44          45          46          47          48          49          50
 IAtWgt=           1          12          16          12           1          14          16          12           1          12
 AtmWgt=   1.0078250  12.0000000  15.9949146  12.0000000   1.0078250  14.0030740  15.9949146  12.0000000   1.0078250  12.0000000
 NucSpn=           1           0           0           0           1           2           0           0           1           0
 AtZEff=  -0.0000000  -0.0000000  -0.0000000  -0.0000000  -0.0000000  -0.0000000  -0.0000000  -0.0000000  -0.0000000  -0.0000000
 NQMom=    0.0000000   0.0000000   0.0000000   0.0000000   0.0000000   2.0440000   0.0000000   0.0000000   0.0000000   0.0000000
 NMagM=    2.7928460   0.0000000   0.0000000   0.0000000   2.7928460   0.4037610   0.0000000   0.0000000   2.7928460   0.0000000
 AtZNuc=   1.0000000   6.0000000   8.0000000   6.0000000   1.0000000   7.0000000   8.0000000   6.0000000   1.0000000   6.0000000

  Atom        51          52          53          54          55          56          57          58          59          60
 IAtWgt=          12          14           1           1           1           1           1          14          12          12
 AtmWgt=  12.0000000  14.0030740   1.0078250   1.0078250   1.0078250   1.0078250   1.0078250  14.0030740  12.0000000  12.0000000
 NucSpn=           0           2           1           1           1           1           1           2           0           0
 AtZEff=  -0.0000000  -0.0000000  -0.0000000  -0.0000000  -0.0000000  -0.0000000  -0.0000000  -0.0000000  -0.0000000  -0.0000000
 NQMom=    0.0000000   2.0440000   0.0000000   0.0000000   0.0000000   0.0000000   0.0000000   2.0440000   0.0000000   0.0000000
 NMagM=    0.0000000   0.4037610   2.7928460   2.7928460   2.7928460   2.7928460   2.7928460   0.4037610   0.0000000   0.0000000
 AtZNuc=   6.0000000   7.0000000   1.0000000   1.0000000   1.0000000   1.0000000   1.0000000   7.0000000   6.0000000   6.0000000

  Atom        61          62          63          64          65          66          67          68          69          70
 IAtWgt=          14           1          12          14           1          12          14          12          12          14
 AtmWgt=  14.0030740   1.0078250  12.0000000  14.0030740   1.0078250  12.0000000  14.0030740  12.0000000  12.0000000  14.0030740
 NucSpn=           2           1           0           2           1           0           2           0           0           2
 AtZEff=  -0.0000000  -0.0000000  -0.0000000  -0.0000000  -0.0000000  -0.0000000  -0.0000000  -0.0000000  -0.0000000  -0.0000000
 NQMom=    2.0440000   0.0000000   0.0000000   2.0440000   0.0000000   0.0000000   2.0440000   0.0000000   0.0000000   2.0440000
 NMagM=    0.4037610   2.7928460   0.0000000   0.4037610   2.7928460   0.0000000   0.4037610   0.0000000   0.0000000   0.4037610
 AtZNuc=   7.0000000   1.0000000   6.0000000   7.0000000   1.0000000   6.0000000   7.0000000   6.0000000   6.0000000   7.0000000
 Leave Link  101 at Fri Jan 26 05:51:28 2018, MaxMem=  4294967296 cpu:               7.5 elap:               0.3
 (Enter /share/apps/g16/l202.exe)
 Stoichiometry    C23H27N17O3
 Framework group  C1[X(C23H27N17O3)]
 Deg. of freedom   204
 Full point group                 C1      NOp   1
 Largest Abelian subgroup         C1      NOp   1
 Largest concise Abelian subgroup C1      NOp   1
                         Standard orientation:                         
 ---------------------------------------------------------------------
 Center     Atomic      Atomic             Coordinates (Angstroms)
 Number     Number       Type             X           Y           Z
 ---------------------------------------------------------------------
      1          7           0       -6.893478   -1.603905    0.296436
      2          6           0       -8.270155   -1.147851    0.022942
      3          6           0       -4.734629   -1.653746    0.713801
      4          7           0       -5.149491   -2.976375    0.656604
      5          6           0       -6.433508   -2.893405    0.407439
      6          1           0       -7.099558   -3.749201    0.293717
      7          7           0       -3.407902    0.283576    0.936322
      8          6           0       -4.524916    0.982189    0.708750
      9          1           0       -4.405327    2.064754    0.713122
     10          7           0       -5.761665    0.546372    0.477661
     11          6           0       -5.798543   -0.796315    0.493735
     12          6           0       -3.478062   -1.065524    0.946086
     13          7           0       -2.364115   -1.764634    1.173067
     14          1           0       -2.369354   -2.765095    1.189337
     15          1           0       -1.486839   -1.312446    1.334516
     16          1           0       -8.881445   -1.478943    0.741896
     17          1           0       -8.293002   -0.148779    0.001286
     18          1           0       -8.572770   -1.505714   -0.860427
     19          7           0       -2.044200    2.890647   -1.722798
     20          6           0       -0.776552    2.431645   -1.457419
     21          6           0       -2.494342    4.289174   -1.573823
     22          7           0        2.484557    3.031246   -0.424259
     23          1           0        3.324727    2.506054   -0.291856
     24          1           0        2.524319    4.009823   -0.220466
     25          7           0        0.262447    3.175129   -1.019501
     26          6           0        1.354842    2.450260   -0.855644
     27          7           0        1.426363    1.100424   -1.101284
     28          1           0        2.303705    0.627353   -0.948205
     29          6           0        0.369948    0.315278   -1.552289
     30          8           0        0.540003   -0.895298   -1.742861
     31          6           0       -0.810438    1.080081   -1.732982
     32          7           0       -2.073933    0.698253   -2.162710
     33          6           0       -2.770328    1.802236   -2.140820
     34          1           0       -3.821544    1.878959   -2.420708
     35          1           0       -3.242802    4.331569   -0.912911
     36          1           0       -1.733094    4.849393   -1.249921
     37          1           0       -2.809578    4.635461   -2.456728
     38          1           0        6.760999   -1.251661    0.618506
     39          1           0        7.153746   -1.191160   -1.098103
     40          1           0        6.055388    0.001283   -0.403072
     41          1           0        4.446371   -5.165543   -0.953311
     42          6           0        4.323070   -4.082529   -0.943350
     43          8           0        2.012345   -4.156140   -1.474620
     44          6           0        3.035447   -3.521872   -1.218191
     45          1           0        2.096061   -1.709955   -1.369249
     46          7           0        2.989119   -2.142870   -1.180187
     47          8           0        3.888982   -0.076531   -0.901471
     48          6           0        4.027999   -1.286993   -0.912332
     49          1           0        6.354813   -3.649711   -0.463240
     50          6           0        5.355575   -3.273552   -0.678607
     51          6           0        6.376875   -1.028957   -0.365830
     52          7           0        5.237353   -1.903177   -0.657362
     53          1           0        3.192118    4.430522    2.323719
     54          1           0        2.128170    4.198813    1.108641
     55          1           0        3.731844    4.120402    0.815096
     56          1           0        1.064008   -2.675970    2.138336
     57          1           0        2.633800   -2.193809    2.600252
     58          7           0        1.738865   -1.943538    2.229214
     59          6           0        1.458837   -0.688540    1.871808
     60          6           0        1.935535    1.622797    1.568106
     61          7           0        0.725246    1.929829    1.072781
     62          1           0       -1.049667    1.006511    0.628057
     63          6           0       -0.046088    0.845801    1.019539
     64          7           0        0.232543   -0.412039    1.377021
     65          1           0        4.974227    2.126542    2.550343
     66          6           0        4.004259    1.701248    2.291048
     67          7           0        3.681552    0.439132    2.434599
     68          6           0        2.372369    0.375751    1.979900
     69          6           0        3.013187    3.921756    1.481614
     70          7           0        2.994990    2.474890    1.771839
 ---------------------------------------------------------------------
 Rotational constants (GHZ):           0.1292219           0.0546533           0.0458931
 Leave Link  202 at Fri Jan 26 05:51:28 2018, MaxMem=  4294967296 cpu:               0.3 elap:               0.0
 (Enter /share/apps/g16/l301.exe)
 Standard basis: CC-pVDZ (5D, 7F)
 Ernie: Thresh=  0.10000D-02 Tol=  0.10000D-05 Strict=F.
 Ernie:  86 primitive shells out of 1081 were deleted.
 There are   780 symmetry adapted cartesian basis functions of A   symmetry.
 There are   737 symmetry adapted basis functions of A   symmetry.
   737 basis functions,  1608 primitive gaussians,   780 cartesian basis functions
   154 alpha electrons      154 beta electrons
       nuclear repulsion energy      5486.8107638538 Hartrees.
 IExCor= 4639 DFT=T Ex+Corr=wB97XD ExCW=0 ScaHFX=  1.000000
 ScaDFX=  1.000000  1.000000  1.000000  1.000000 ScalE2=  1.000000  1.000000
 IRadAn=      5 IRanWt=     -1 IRanGd=            0 ICorTp=0 IEmpDi=121
 HFx  wShort=  0.000000 wLong=  0.200000 cFull=  0.222036 cShort=  0.000000 cLong=  0.777964
 DFx  wShort=  0.000000 wLong=  0.200000 cFull=  0.000000 cShort=  0.000000 cLong=  1.000000
 NAtoms=   70 NActive=   70 NUniq=   70 SFac= 1.00D+00 NAtFMM=   60 NAOKFM=T Big=T
 Integral buffers will be    131072 words long.
 Raffenetti 2 integral format.
 Two-electron integral symmetry is turned on.
 R6Disp:  Grimme-D2 Dispersion energy=       -0.0688496395 Hartrees.
 Nuclear repulsion after empirical dispersion term =     5486.7419142143 Hartrees.
 Leave Link  301 at Fri Jan 26 05:51:28 2018, MaxMem=  4294967296 cpu:               2.1 elap:               0.1
 (Enter /share/apps/g16/l302.exe)
 NPDir=0 NMtPBC=     1 NCelOv=     1 NCel=       1 NClECP=     1 NCelD=      1
         NCelK=      1 NCelE2=     1 NClLst=     1 CellRange=     0.0.
 One-electron integrals computed using PRISM.
 One-electron integral symmetry used in STVInt
 NBasis=   737 RedAO= T EigKep=  6.74D-04  NBF=   737
 NBsUse=   737 1.00D-06 EigRej= -1.00D+00 NBFU=   737
 Precomputing XC quadrature grid using
 IXCGrd= 4 IRadAn=           5 IRanWt=          -1 IRanGd=           0 AccXCQ= 0.00D+00.
 Generated NRdTot=       0 NPtTot=           0 NUsed=           0 NTot=          32
 NSgBfM=   762   762   762   762   762 MxSgAt=    70 MxSgA2=    70.
 Leave Link  302 at Fri Jan 26 05:51:33 2018, MaxMem=  4294967296 cpu:             133.6 elap:               4.2
 (Enter /share/apps/g16/l303.exe)
 DipDrv:  MaxL=1.
 Leave Link  303 at Fri Jan 26 05:51:33 2018, MaxMem=  4294967296 cpu:              12.4 elap:               0.4
 (Enter /share/apps/g16/l401.exe)
 ExpMin= 1.22D-01 ExpMax= 1.17D+04 ExpMxC= 4.01D+02 IAcc=3 IRadAn=         5 AccDes= 0.00D+00
 Harris functional with IExCor= 4639 and IRadAn=       5 diagonalized for initial guess.
 HarFok:  IExCor= 4639 AccDes= 0.00D+00 IRadAn=         5 IDoV= 1 UseB2=F ITyADJ=14
 ICtDFT=  3500011 ScaDFX=  1.000000  1.000000  1.000000  1.000000
 FoFCou: FMM=F IPFlag=           0 FMFlag=      100000 FMFlg1=        2001
         NFxFlg=           0 DoJE=T BraDBF=F KetDBF=T FulRan=T
         wScrn=  0.000000 ICntrl=       500 IOpCl=  0 I1Cent=   200000004 NGrid=           0
         NMat0=    1 NMatS0=      1 NMatT0=    0 NMatD0=    1 NMtDS0=    0 NMtDT0=    0
 Petite list used in FoFCou.
 Harris En= -1963.70376815791    
 JPrj=0 DoOrth=F DoCkMO=F.
 Leave Link  401 at Fri Jan 26 05:51:45 2018, MaxMem=  4294967296 cpu:             394.9 elap:              12.4
 (Enter /share/apps/g16/l502.exe)
 Integral symmetry usage will be decided dynamically.
 Closed shell SCF:
 Using DIIS extrapolation, IDIIS=  1040.
 NGot=  4294967296 LenX=  4293717438 LenY=  4293108258
 Requested convergence on RMS density matrix=1.00D-08 within  20 cycles.
 Requested convergence on MAX density matrix=1.00D-06.
 Requested convergence on             energy=1.00D-06.
 No special actions if energy rises.
 Fock matrices will be formed incrementally for  20 cycles.
 Integral accuracy reduced to 1.0D-05 until final iterations.

 Cycle   1  Pass 0  IDiag  1:
 FoFJK:  IHMeth= 1 ICntrl=       0 DoSepK=T KAlg= 0 I1Cent=           0 FoldK=F
 IRaf=         1 NMat=       1 IRICut=       1 DoRegI=T DoRafI=F ISym2E= 0 IDoP0=0 IntGTp=1.
 FoFCou: FMM=T IPFlag=           0 FMFlag=      100000 FMFlg1=        2001
         NFxFlg=           0 DoJE=T BraDBF=F KetDBF=F FulRan=T
         wScrn=  0.000000 ICntrl=       500 IOpCl=  0 I1Cent=           0 NGrid=           0
         NMat0=    1 NMatS0=      1 NMatT0=    0 NMatD0=    1 NMtDS0=    0 NMtDT0=    0
 Symmetry not used in FoFCou.
 FMM levels:  10  Number of levels for PrismC:   9
 E= -2048.15959907032    
 DIIS: error= 2.09D-02 at cycle   1 NSaved=   1.
 NSaved= 1 IEnMin= 1 EnMin= -2048.15959907032     IErMin= 1 ErrMin= 2.09D-02
 ErrMax= 2.09D-02  0.00D+00 EMaxC= 1.00D-01 BMatC= 8.37D-01 BMatP= 8.37D-01
 IDIUse=3 WtCom= 7.91D-01 WtEn= 2.09D-01
 Coeff-Com:  0.100D+01
 Coeff-En:   0.100D+01
 Coeff:      0.100D+01
 Gap=     0.261 Goal=   None    Shift=    0.000
 GapD=    0.261 DampG=1.000 DampE=0.500 DampFc=0.5000 IDamp=-1.
 Damping current iteration by 5.00D-01
 RMSDP=1.63D-03 MaxDP=1.30D-01              OVMax= 1.74D-01

 Cycle   2  Pass 0  IDiag  1:
 RMSU=  8.14D-04    CP:  9.97D-01
 E= -2048.35890934376     Delta-E=       -0.199310273443 Rises=F Damp=T
 DIIS: error= 1.03D-02 at cycle   2 NSaved=   2.
 NSaved= 2 IEnMin= 2 EnMin= -2048.35890934376     IErMin= 2 ErrMin= 1.03D-02
 ErrMax= 1.03D-02  0.00D+00 EMaxC= 1.00D-01 BMatC= 1.46D-01 BMatP= 8.37D-01
 IDIUse=3 WtCom= 8.97D-01 WtEn= 1.03D-01
 Coeff-Com: -0.187D+00 0.119D+01
 Coeff-En:   0.000D+00 0.100D+01
 Coeff:     -0.168D+00 0.117D+01
 Gap=     0.350 Goal=   None    Shift=    0.000
 RMSDP=6.07D-04 MaxDP=3.36D-02 DE=-1.99D-01 OVMax= 1.55D-01

 Cycle   3  Pass 0  IDiag  1:
 RMSU=  5.96D-04    CP:  9.93D-01  1.12D+00
 E= -2048.54213894970     Delta-E=       -0.183229605940 Rises=F Damp=F
 DIIS: error= 8.16D-03 at cycle   3 NSaved=   3.
 NSaved= 3 IEnMin= 3 EnMin= -2048.54213894970     IErMin= 3 ErrMin= 8.16D-03
 ErrMax= 8.16D-03  0.00D+00 EMaxC= 1.00D-01 BMatC= 6.47D-02 BMatP= 1.46D-01
 IDIUse=3 WtCom= 9.18D-01 WtEn= 8.16D-02
 Coeff-Com: -0.231D+00 0.547D+00 0.684D+00
 Coeff-En:   0.000D+00 0.000D+00 0.100D+01
 Coeff:     -0.212D+00 0.502D+00 0.710D+00
 Gap=     0.273 Goal=   None    Shift=    0.000
 RMSDP=3.70D-04 MaxDP=3.36D-02 DE=-1.83D-01 OVMax= 7.20D-02

 Cycle   4  Pass 0  IDiag  1:
 RMSU=  2.11D-04    CP:  9.94D-01  1.41D+00  6.78D-01
 E= -2048.59081032253     Delta-E=       -0.048671372831 Rises=F Damp=F
 DIIS: error= 3.16D-03 at cycle   4 NSaved=   4.
 NSaved= 4 IEnMin= 4 EnMin= -2048.59081032253     IErMin= 4 ErrMin= 3.16D-03
 ErrMax= 3.16D-03  0.00D+00 EMaxC= 1.00D-01 BMatC= 9.72D-03 BMatP= 6.47D-02
 IDIUse=3 WtCom= 9.68D-01 WtEn= 3.16D-02
 Coeff-Com: -0.963D-01 0.187D+00 0.384D+00 0.526D+00
 Coeff-En:   0.000D+00 0.000D+00 0.733D-01 0.927D+00
 Coeff:     -0.933D-01 0.181D+00 0.374D+00 0.538D+00
 Gap=     0.274 Goal=   None    Shift=    0.000
 RMSDP=1.35D-04 MaxDP=1.21D-02 DE=-4.87D-02 OVMax= 1.49D-02

 Cycle   5  Pass 0  IDiag  1:
 RMSU=  6.44D-05    CP:  9.93D-01  1.38D+00  8.13D-01  6.08D-01
 E= -2048.59884363987     Delta-E=       -0.008033317334 Rises=F Damp=F
 DIIS: error= 6.19D-04 at cycle   5 NSaved=   5.
 NSaved= 5 IEnMin= 5 EnMin= -2048.59884363987     IErMin= 5 ErrMin= 6.19D-04
 ErrMax= 6.19D-04  0.00D+00 EMaxC= 1.00D-01 BMatC= 3.22D-04 BMatP= 9.72D-03
 IDIUse=3 WtCom= 9.94D-01 WtEn= 6.19D-03
 Coeff-Com: -0.250D-01 0.427D-01 0.124D+00 0.241D+00 0.617D+00
 Coeff-En:   0.000D+00 0.000D+00 0.000D+00 0.000D+00 0.100D+01
 Coeff:     -0.248D-01 0.424D-01 0.123D+00 0.240D+00 0.619D+00
 Gap=     0.275 Goal=   None    Shift=    0.000
 RMSDP=2.90D-05 MaxDP=1.79D-03 DE=-8.03D-03 OVMax= 4.13D-03

 Failed to achieve initial convergence to 1.0D-08 in  6 cycles.
 Switch to full accuracy anyway.
 Cycle   6  Pass 1  IDiag  1:
 E= -2048.59939898671     Delta-E=       -0.000555346837 Rises=F Damp=F
 DIIS: error= 2.55D-04 at cycle   1 NSaved=   1.
 NSaved= 1 IEnMin= 1 EnMin= -2048.59939898671     IErMin= 1 ErrMin= 2.55D-04
 ErrMax= 2.55D-04  0.00D+00 EMaxC= 1.00D-01 BMatC= 8.01D-05 BMatP= 8.01D-05
 IDIUse=3 WtCom= 9.97D-01 WtEn= 2.55D-03
 Coeff-Com:  0.100D+01
 Coeff-En:   0.100D+01
 Coeff:      0.100D+01
 Gap=     0.274 Goal=   None    Shift=    0.000
 RMSDP=2.90D-05 MaxDP=1.79D-03 DE=-5.55D-04 OVMax= 2.69D-03

 Cycle   7  Pass 1  IDiag  1:
 RMSU=  1.10D-04    CP:  1.00D+00
 E= -2048.59945103948     Delta-E=       -0.000052052777 Rises=F Damp=F
 DIIS: error= 2.07D-04 at cycle   2 NSaved=   2.
 NSaved= 2 IEnMin= 2 EnMin= -2048.59945103948     IErMin= 2 ErrMin= 2.07D-04
 ErrMax= 2.07D-04  0.00D+00 EMaxC= 1.00D-01 BMatC= 5.36D-05 BMatP= 8.01D-05
 IDIUse=3 WtCom= 9.98D-01 WtEn= 2.07D-03
 Coeff-Com:  0.434D+00 0.566D+00
 Coeff-En:   0.902D-01 0.910D+00
 Coeff:      0.433D+00 0.567D+00
 Gap=     0.275 Goal=   None    Shift=    0.000
 RMSDP=1.32D-05 MaxDP=1.09D-03 DE=-5.21D-05 OVMax= 1.90D-03

 Cycle   8  Pass 1  IDiag  1:
 RMSU=  1.30D-05    CP:  1.00D+00  1.02D+00
 E= -2048.59949154617     Delta-E=       -0.000040506691 Rises=F Damp=F
 DIIS: error= 7.23D-05 at cycle   3 NSaved=   3.
 NSaved= 3 IEnMin= 3 EnMin= -2048.59949154617     IErMin= 3 ErrMin= 7.23D-05
 ErrMax= 7.23D-05  0.00D+00 EMaxC= 1.00D-01 BMatC= 1.05D-05 BMatP= 5.36D-05
 IDIUse=1 WtCom= 1.00D+00 WtEn= 0.00D+00
 Coeff-Com: -0.182D-01 0.292D+00 0.726D+00
 Coeff:     -0.182D-01 0.292D+00 0.726D+00
 Gap=     0.275 Goal=   None    Shift=    0.000
 RMSDP=6.09D-06 MaxDP=3.63D-04 DE=-4.05D-05 OVMax= 8.12D-04

 Cycle   9  Pass 1  IDiag  1:
 RMSU=  4.12D-06    CP:  1.00D+00  1.05D+00  7.73D-01
 E= -2048.59950187652     Delta-E=       -0.000010330346 Rises=F Damp=F
 DIIS: error= 4.35D-05 at cycle   4 NSaved=   4.
 NSaved= 4 IEnMin= 4 EnMin= -2048.59950187652     IErMin= 4 ErrMin= 4.35D-05
 ErrMax= 4.35D-05  0.00D+00 EMaxC= 1.00D-01 BMatC= 6.20D-07 BMatP= 1.05D-05
 IDIUse=1 WtCom= 1.00D+00 WtEn= 0.00D+00
 Coeff-Com: -0.332D-01 0.827D-01 0.282D+00 0.668D+00
 Coeff:     -0.332D-01 0.827D-01 0.282D+00 0.668D+00
 Gap=     0.275 Goal=   None    Shift=    0.000
 RMSDP=1.60D-06 MaxDP=1.23D-04 DE=-1.03D-05 OVMax= 4.23D-04

 Cycle  10  Pass 1  IDiag  1:
 RMSU=  1.41D-06    CP:  1.00D+00  1.05D+00  8.11D-01  1.10D+00
 E= -2048.59950287695     Delta-E=       -0.000001000431 Rises=F Damp=F
 DIIS: error= 1.45D-05 at cycle   5 NSaved=   5.
 NSaved= 5 IEnMin= 5 EnMin= -2048.59950287695     IErMin= 5 ErrMin= 1.45D-05
 ErrMax= 1.45D-05  0.00D+00 EMaxC= 1.00D-01 BMatC= 1.29D-07 BMatP= 6.20D-07
 IDIUse=1 WtCom= 1.00D+00 WtEn= 0.00D+00
 Coeff-Com: -0.395D-02-0.515D-01-0.119D+00 0.192D+00 0.983D+00
 Coeff:     -0.395D-02-0.515D-01-0.119D+00 0.192D+00 0.983D+00
 Gap=     0.275 Goal=   None    Shift=    0.000
 RMSDP=1.31D-06 MaxDP=7.56D-05 DE=-1.00D-06 OVMax= 2.42D-04

 Cycle  11  Pass 1  IDiag  1:
 RMSU=  5.26D-07    CP:  1.00D+00  1.05D+00  8.18D-01  1.39D+00  1.20D+00
 E= -2048.59950318019     Delta-E=       -0.000000303243 Rises=F Damp=F
 DIIS: error= 1.00D-05 at cycle   6 NSaved=   6.
 NSaved= 6 IEnMin= 6 EnMin= -2048.59950318019     IErMin= 6 ErrMin= 1.00D-05
 ErrMax= 1.00D-05  0.00D+00 EMaxC= 1.00D-01 BMatC= 3.44D-08 BMatP= 1.29D-07
 IDIUse=1 WtCom= 1.00D+00 WtEn= 0.00D+00
 Coeff-Com:  0.477D-02-0.431D-01-0.120D+00-0.102D-01 0.533D+00 0.635D+00
 Coeff:      0.477D-02-0.431D-01-0.120D+00-0.102D-01 0.533D+00 0.635D+00
 Gap=     0.275 Goal=   None    Shift=    0.000
 RMSDP=4.30D-07 MaxDP=3.18D-05 DE=-3.03D-07 OVMax= 1.06D-04

 Cycle  12  Pass 1  IDiag  1:
 RMSU=  2.07D-07    CP:  1.00D+00  1.05D+00  8.21D-01  1.46D+00  1.34D+00
                    CP:  9.22D-01
 E= -2048.59950322914     Delta-E=       -0.000000048945 Rises=F Damp=F
 DIIS: error= 1.39D-06 at cycle   7 NSaved=   7.
 NSaved= 7 IEnMin= 7 EnMin= -2048.59950322914     IErMin= 7 ErrMin= 1.39D-06
 ErrMax= 1.39D-06  0.00D+00 EMaxC= 1.00D-01 BMatC= 8.95D-10 BMatP= 3.44D-08
 IDIUse=1 WtCom= 1.00D+00 WtEn= 0.00D+00
 Coeff-Com:  0.126D-02-0.798D-02-0.238D-01-0.987D-02 0.765D-01 0.145D+00
 Coeff-Com:  0.819D+00
 Coeff:      0.126D-02-0.798D-02-0.238D-01-0.987D-02 0.765D-01 0.145D+00
 Coeff:      0.819D+00
 Gap=     0.275 Goal=   None    Shift=    0.000
 RMSDP=9.48D-08 MaxDP=6.40D-06 DE=-4.89D-08 OVMax= 2.27D-05

 Cycle  13  Pass 1  IDiag  1:
 RMSU=  6.05D-08    CP:  1.00D+00  1.05D+00  8.21D-01  1.47D+00  1.36D+00
                    CP:  1.01D+00  1.13D+00
 E= -2048.59950323123     Delta-E=       -0.000000002088 Rises=F Damp=F
 DIIS: error= 8.74D-07 at cycle   8 NSaved=   8.
 NSaved= 8 IEnMin= 8 EnMin= -2048.59950323123     IErMin= 8 ErrMin= 8.74D-07
 ErrMax= 8.74D-07  0.00D+00 EMaxC= 1.00D-01 BMatC= 4.56D-10 BMatP= 8.95D-10
 IDIUse=1 WtCom= 1.00D+00 WtEn= 0.00D+00
 Coeff-Com: -0.683D-03 0.812D-02 0.214D-01-0.150D-02-0.112D+00-0.109D+00
 Coeff-Com:  0.428D+00 0.766D+00
 Coeff:     -0.683D-03 0.812D-02 0.214D-01-0.150D-02-0.112D+00-0.109D+00
 Coeff:      0.428D+00 0.766D+00
 Gap=     0.275 Goal=   None    Shift=    0.000
 RMSDP=6.10D-08 MaxDP=4.01D-06 DE=-2.09D-09 OVMax= 1.40D-05

 Cycle  14  Pass 1  IDiag  1:
 RMSU=  3.28D-08    CP:  1.00D+00  1.05D+00  8.21D-01  1.48D+00  1.37D+00
                    CP:  1.06D+00  1.31D+00  1.06D+00
 E= -2048.59950323217     Delta-E=       -0.000000000946 Rises=F Damp=F
 DIIS: error= 2.84D-07 at cycle   9 NSaved=   9.
 NSaved= 9 IEnMin= 9 EnMin= -2048.59950323217     IErMin= 9 ErrMin= 2.84D-07
 ErrMax= 2.84D-07  0.00D+00 EMaxC= 1.00D-01 BMatC= 5.48D-11 BMatP= 4.56D-10
 IDIUse=1 WtCom= 1.00D+00 WtEn= 0.00D+00
 Coeff-Com: -0.493D-03 0.500D-02 0.134D-01 0.104D-02-0.620D-01-0.706D-01
 Coeff-Com:  0.112D+00 0.354D+00 0.647D+00
 Coeff:     -0.493D-03 0.500D-02 0.134D-01 0.104D-02-0.620D-01-0.706D-01
 Coeff:      0.112D+00 0.354D+00 0.647D+00
 Gap=     0.275 Goal=   None    Shift=    0.000
 RMSDP=1.66D-08 MaxDP=1.11D-06 DE=-9.46D-10 OVMax= 2.94D-06

 Cycle  15  Pass 1  IDiag  1:
 RMSU=  1.10D-08    CP:  1.00D+00  1.05D+00  8.21D-01  1.48D+00  1.37D+00
                    CP:  1.06D+00  1.34D+00  1.22D+00  1.08D+00
 E= -2048.59950323210     Delta-E=        0.000000000075 Rises=F Damp=F
 DIIS: error= 1.24D-07 at cycle  10 NSaved=  10.
 NSaved=10 IEnMin= 9 EnMin= -2048.59950323217     IErMin=10 ErrMin= 1.24D-07
 ErrMax= 1.24D-07  0.00D+00 EMaxC= 1.00D-01 BMatC= 6.32D-12 BMatP= 5.48D-11
 IDIUse=1 WtCom= 1.00D+00 WtEn= 0.00D+00
 Coeff-Com: -0.125D-04-0.133D-03-0.299D-03 0.233D-03 0.341D-02-0.470D-03
 Coeff-Com: -0.528D-01-0.509D-01 0.200D+00 0.901D+00
 Coeff:     -0.125D-04-0.133D-03-0.299D-03 0.233D-03 0.341D-02-0.470D-03
 Coeff:     -0.528D-01-0.509D-01 0.200D+00 0.901D+00
 Gap=     0.275 Goal=   None    Shift=    0.000
 RMSDP=9.58D-09 MaxDP=4.45D-07 DE= 7.46D-11 OVMax= 2.52D-06

 SCF Done:  E(RwB97XD) =  -2048.59950323     A.U. after   15 cycles
            NFock= 15  Conv=0.96D-08     -V/T= 2.0049
 KE= 2.038526530001D+03 PE=-1.575446832694D+04 EE= 6.180600379495D+03
 Leave Link  502 at Fri Jan 26 06:03:15 2018, MaxMem=  4294967296 cpu:           21334.0 elap:             689.8
 (Enter /share/apps/g16/l601.exe)
 Copying SCF densities to generalized density rwf, IOpCl= 0 IROHF=0.

 **********************************************************************

            Population analysis using the SCF density.

 **********************************************************************

 Orbital symmetries:
       Occupied  (A) (A) (A) (A) (A) (A) (A) (A) (A) (A) (A) (A)
                 (A) (A) (A) (A) (A) (A) (A) (A) (A) (A) (A) (A)
                 (A) (A) (A) (A) (A) (A) (A) (A) (A) (A) (A) (A)
                 (A) (A) (A) (A) (A) (A) (A) (A) (A) (A) (A) (A)
                 (A) (A) (A) (A) (A) (A) (A) (A) (A) (A) (A) (A)
                 (A) (A) (A) (A) (A) (A) (A) (A) (A) (A) (A) (A)
                 (A) (A) (A) (A) (A) (A) (A) (A) (A) (A) (A) (A)
                 (A) (A) (A) (A) (A) (A) (A) (A) (A) (A) (A) (A)
                 (A) (A) (A) (A) (A) (A) (A) (A) (A) (A) (A) (A)
                 (A) (A) (A) (A) (A) (A) (A) (A) (A) (A) (A) (A)
                 (A) (A) (A) (A) (A) (A) (A) (A) (A) (A) (A) (A)
                 (A) (A) (A) (A) (A) (A) (A) (A) (A) (A) (A) (A)
                 (A) (A) (A) (A) (A) (A) (A) (A) (A) (A)
       Virtual   (A) (A) (A) (A) (A) (A) (A) (A) (A) (A) (A) (A)
                 (A) (A) (A) (A) (A) (A) (A) (A) (A) (A) (A) (A)
                 (A) (A) (A) (A) (A) (A) (A) (A) (A) (A) (A) (A)
                 (A) (A) (A) (A) (A) (A) (A) (A) (A) (A) (A) (A)
                 (A) (A) (A) (A) (A) (A) (A) (A) (A) (A) (A) (A)
                 (A) (A) (A) (A) (A) (A) (A) (A) (A) (A) (A) (A)
                 (A) (A) (A) (A) (A) (A) (A) (A) (A) (A) (A) (A)
                 (A) (A) (A) (A) (A) (A) (A) (A) (A) (A) (A) (A)
                 (A) (A) (A) (A) (A) (A) (A) (A) (A) (A) (A) (A)
                 (A) (A) (A) (A) (A) (A) (A) (A) (A) (A) (A) (A)
                 (A) (A) (A) (A) (A) (A) (A) (A) (A) (A) (A) (A)
                 (A) (A) (A) (A) (A) (A) (A) (A) (A) (A) (A) (A)
                 (A) (A) (A) (A) (A) (A) (A) (A) (A) (A) (A) (A)
                 (A) (A) (A) (A) (A) (A) (A) (A) (A) (A) (A) (A)
                 (A) (A) (A) (A) (A) (A) (A) (A) (A) (A) (A) (A)
                 (A) (A) (A) (A) (A) (A) (A) (A) (A) (A) (A) (A)
                 (A) (A) (A) (A) (A) (A) (A) (A) (A) (A) (A) (A)
                 (A) (A) (A) (A) (A) (A) (A) (A) (A) (A) (A) (A)
                 (A) (A) (A) (A) (A) (A) (A) (A) (A) (A) (A) (A)
                 (A) (A) (A) (A) (A) (A) (A) (A) (A) (A) (A) (A)
                 (A) (A) (A) (A) (A) (A) (A) (A) (A) (A) (A) (A)
                 (A) (A) (A) (A) (A) (A) (A) (A) (A) (A) (A) (A)
                 (A) (A) (A) (A) (A) (A) (A) (A) (A) (A) (A) (A)
                 (A) (A) (A) (A) (A) (A) (A) (A) (A) (A) (A) (A)
                 (A) (A) (A) (A) (A) (A) (A) (A) (A) (A) (A) (A)
                 (A) (A) (A) (A) (A) (A) (A) (A) (A) (A) (A) (A)
                 (A) (A) (A) (A) (A) (A) (A) (A) (A) (A) (A) (A)
                 (A) (A) (A) (A) (A) (A) (A) (A) (A) (A) (A) (A)
                 (A) (A) (A) (A) (A) (A) (A) (A) (A) (A) (A) (A)
                 (A) (A) (A) (A) (A) (A) (A) (A) (A) (A) (A) (A)
                 (A) (A) (A) (A) (A) (A) (A) (A) (A) (A) (A) (A)
                 (A) (A) (A) (A) (A) (A) (A) (A) (A) (A) (A) (A)
                 (A) (A) (A) (A) (A) (A) (A) (A) (A) (A) (A) (A)
                 (A) (A) (A) (A) (A) (A) (A) (A) (A) (A) (A) (A)
                 (A) (A) (A) (A) (A) (A) (A) (A) (A) (A) (A) (A)
                 (A) (A) (A) (A) (A) (A) (A) (A) (A) (A) (A) (A)
                 (A) (A) (A) (A) (A) (A) (A) (A) (A) (A) (A) (A)
                 (A) (A) (A) (A) (A) (A) (A) (A) (A) (A) (A) (A)
                 (A) (A) (A) (A) (A) (A) (A) (A) (A) (A) (A) (A)
                 (A) (A) (A) (A) (A) (A) (A) (A) (A) (A) (A) (A)
                 (A) (A) (A) (A) (A) (A) (A) (A) (A) (A) (A) (A)
                 (A) (A) (A) (A) (A) (A) (A) (A) (A) (A) (A) (A)
                 (A) (A) (A) (A) (A) (A) (A) (A) (A) (A) (A) (A)
                 (A) (A) (A) (A) (A) (A) (A) (A) (A) (A) (A) (A)
                 (A) (A) (A) (A) (A) (A) (A) (A) (A) (A) (A) (A)
                 (A) (A) (A) (A) (A) (A) (A) (A) (A) (A) (A) (A)
                 (A) (A) (A) (A) (A) (A) (A) (A) (A) (A) (A) (A)
                 (A) (A) (A) (A) (A) (A) (A) (A) (A) (A) (A) (A)
                 (A) (A) (A) (A) (A) (A) (A)
 The electronic state is 1-A.
 Alpha  occ. eigenvalues --  -19.25887 -19.22003 -19.20415 -14.52487 -14.52145
 Alpha  occ. eigenvalues --  -14.49065 -14.48651 -14.47922 -14.47684 -14.45875
 Alpha  occ. eigenvalues --  -14.45460 -14.44900 -14.43556 -14.42726 -14.42616
 Alpha  occ. eigenvalues --  -14.41773 -14.41268 -14.41237 -14.40690 -14.40469
 Alpha  occ. eigenvalues --  -10.45527 -10.41241 -10.40130 -10.39330 -10.37985
 Alpha  occ. eigenvalues --  -10.37855 -10.37665 -10.36317 -10.35769 -10.35280
 Alpha  occ. eigenvalues --  -10.34656 -10.34424 -10.34273 -10.34214 -10.33695
 Alpha  occ. eigenvalues --  -10.33438 -10.33224 -10.32152 -10.31163 -10.31148
 Alpha  occ. eigenvalues --  -10.30872 -10.28893 -10.28063  -1.19471  -1.15685
 Alpha  occ. eigenvalues --   -1.13182  -1.13028  -1.11668  -1.10514  -1.09367
 Alpha  occ. eigenvalues --   -1.09169  -1.08731  -1.05314  -1.04100  -1.02756
 Alpha  occ. eigenvalues --   -1.02484  -1.00798  -0.99063  -0.98331  -0.97295
 Alpha  occ. eigenvalues --   -0.96487  -0.96391  -0.92972  -0.91103  -0.88270
 Alpha  occ. eigenvalues --   -0.86428  -0.84244  -0.83999  -0.83689  -0.82601
 Alpha  occ. eigenvalues --   -0.82500  -0.78928  -0.76780  -0.74782  -0.74337
 Alpha  occ. eigenvalues --   -0.74174  -0.73404  -0.73246  -0.71398  -0.70424
 Alpha  occ. eigenvalues --   -0.68043  -0.66960  -0.66649  -0.66534  -0.64893
 Alpha  occ. eigenvalues --   -0.64405  -0.63827  -0.63456  -0.63033  -0.62743
 Alpha  occ. eigenvalues --   -0.60766  -0.60454  -0.60185  -0.59836  -0.59536
 Alpha  occ. eigenvalues --   -0.59409  -0.58983  -0.57057  -0.56750  -0.56620
 Alpha  occ. eigenvalues --   -0.56031  -0.55742  -0.55707  -0.54457  -0.54101
 Alpha  occ. eigenvalues --   -0.53867  -0.53375  -0.53315  -0.52793  -0.52742
 Alpha  occ. eigenvalues --   -0.52454  -0.52030  -0.51632  -0.51020  -0.50496
 Alpha  occ. eigenvalues --   -0.50057  -0.49647  -0.49429  -0.49134  -0.48776
 Alpha  occ. eigenvalues --   -0.48540  -0.48309  -0.48136  -0.47848  -0.47272
 Alpha  occ. eigenvalues --   -0.47260  -0.45718  -0.45386  -0.44033  -0.42405
 Alpha  occ. eigenvalues --   -0.41518  -0.39603  -0.39311  -0.38371  -0.37513
 Alpha  occ. eigenvalues --   -0.37074  -0.36959  -0.36275  -0.35522  -0.34683
 Alpha  occ. eigenvalues --   -0.33898  -0.33791  -0.33258  -0.33144  -0.33051
 Alpha  occ. eigenvalues --   -0.32506  -0.32033  -0.31905  -0.31714  -0.31171
 Alpha  occ. eigenvalues --   -0.30691  -0.29038  -0.26145  -0.24434
 Alpha virt. eigenvalues --    0.03033   0.03645   0.07025   0.07583   0.08341
 Alpha virt. eigenvalues --    0.09340   0.09810   0.10547   0.11302   0.12451
 Alpha virt. eigenvalues --    0.13009   0.13882   0.13942   0.14567   0.15075
 Alpha virt. eigenvalues --    0.15531   0.15893   0.16724   0.17126   0.17816
 Alpha virt. eigenvalues --    0.18600   0.18979   0.19747   0.20102   0.20358
 Alpha virt. eigenvalues --    0.20520   0.20902   0.20972   0.21011   0.21746
 Alpha virt. eigenvalues --    0.22953   0.23265   0.23576   0.23695   0.23853
 Alpha virt. eigenvalues --    0.24120   0.24298   0.24375   0.25270   0.25455
 Alpha virt. eigenvalues --    0.25686   0.26586   0.27819   0.28388   0.28636
 Alpha virt. eigenvalues --    0.29128   0.29434   0.29756   0.30522   0.30846
 Alpha virt. eigenvalues --    0.31527   0.31868   0.32575   0.33347   0.33986
 Alpha virt. eigenvalues --    0.34440   0.34965   0.35418   0.35833   0.36839
 Alpha virt. eigenvalues --    0.37574   0.37942   0.38314   0.39464   0.39789
 Alpha virt. eigenvalues --    0.40240   0.40558   0.40847   0.41338   0.41900
 Alpha virt. eigenvalues --    0.42443   0.42643   0.43487   0.44212   0.44733
 Alpha virt. eigenvalues --    0.45018   0.45555   0.46295   0.46489   0.47383
 Alpha virt. eigenvalues --    0.47914   0.48075   0.48770   0.49636   0.49876
 Alpha virt. eigenvalues --    0.50277   0.50574   0.50912   0.51160   0.51660
 Alpha virt. eigenvalues --    0.51902   0.52200   0.52806   0.53452   0.53756
 Alpha virt. eigenvalues --    0.54012   0.54513   0.54828   0.55648   0.55858
 Alpha virt. eigenvalues --    0.56459   0.56914   0.57244   0.57784   0.57979
 Alpha virt. eigenvalues --    0.58704   0.58718   0.59246   0.59414   0.59736
 Alpha virt. eigenvalues --    0.59947   0.60824   0.61185   0.61624   0.61688
 Alpha virt. eigenvalues --    0.62029   0.62396   0.62784   0.63484   0.63759
 Alpha virt. eigenvalues --    0.63931   0.64325   0.64650   0.65193   0.65674
 Alpha virt. eigenvalues --    0.66042   0.66307   0.66875   0.67150   0.67590
 Alpha virt. eigenvalues --    0.67785   0.68141   0.68530   0.68745   0.68960
 Alpha virt. eigenvalues --    0.69370   0.69854   0.69982   0.70768   0.70916
 Alpha virt. eigenvalues --    0.71921   0.72298   0.72672   0.73246   0.73710
 Alpha virt. eigenvalues --    0.74188   0.74815   0.75105   0.75194   0.75565
 Alpha virt. eigenvalues --    0.75807   0.76257   0.76312   0.76772   0.76848
 Alpha virt. eigenvalues --    0.77158   0.77899   0.78098   0.78588   0.78920
 Alpha virt. eigenvalues --    0.79194   0.79895   0.79962   0.80357   0.80757
 Alpha virt. eigenvalues --    0.81337   0.81751   0.82157   0.82729   0.83108
 Alpha virt. eigenvalues --    0.83369   0.83985   0.84149   0.84464   0.84566
 Alpha virt. eigenvalues --    0.85303   0.85791   0.86370   0.87107   0.87797
 Alpha virt. eigenvalues --    0.88514   0.88554   0.89128   0.89499   0.89859
 Alpha virt. eigenvalues --    0.90016   0.90778   0.90916   0.91125   0.91584
 Alpha virt. eigenvalues --    0.92887   0.93164   0.93720   0.93769   0.94364
 Alpha virt. eigenvalues --    0.94937   0.95165   0.95392   0.96105   0.96484
 Alpha virt. eigenvalues --    0.96723   0.97174   0.97641   0.98139   0.98672
 Alpha virt. eigenvalues --    0.99406   0.99921   1.00330   1.00620   1.01573
 Alpha virt. eigenvalues --    1.02016   1.02548   1.02782   1.03142   1.03357
 Alpha virt. eigenvalues --    1.04449   1.04843   1.05333   1.05740   1.06181
 Alpha virt. eigenvalues --    1.06318   1.06672   1.07020   1.08459   1.08976
 Alpha virt. eigenvalues --    1.09800   1.09967   1.10363   1.11297   1.11592
 Alpha virt. eigenvalues --    1.12407   1.12849   1.13393   1.13917   1.14577
 Alpha virt. eigenvalues --    1.14807   1.15157   1.15476   1.16049   1.16679
 Alpha virt. eigenvalues --    1.17063   1.17283   1.17550   1.17703   1.18653
 Alpha virt. eigenvalues --    1.18981   1.19273   1.19565   1.19906   1.20817
 Alpha virt. eigenvalues --    1.21033   1.21268   1.21781   1.22381   1.22517
 Alpha virt. eigenvalues --    1.22551   1.23011   1.23444   1.24112   1.24452
 Alpha virt. eigenvalues --    1.24678   1.25404   1.26023   1.26706   1.26900
 Alpha virt. eigenvalues --    1.27351   1.27846   1.29097   1.29350   1.29928
 Alpha virt. eigenvalues --    1.30409   1.30971   1.31632   1.32199   1.32783
 Alpha virt. eigenvalues --    1.33403   1.34191   1.34241   1.34755   1.35183
 Alpha virt. eigenvalues --    1.36154   1.37412   1.37862   1.38430   1.38794
 Alpha virt. eigenvalues --    1.39046   1.39896   1.41152   1.41627   1.43020
 Alpha virt. eigenvalues --    1.43679   1.44446   1.44679   1.46229   1.46742
 Alpha virt. eigenvalues --    1.47329   1.47953   1.48233   1.48484   1.48874
 Alpha virt. eigenvalues --    1.49289   1.49847   1.50487   1.51140   1.52042
 Alpha virt. eigenvalues --    1.52491   1.54236   1.54715   1.55787   1.55942
 Alpha virt. eigenvalues --    1.56085   1.56896   1.58424   1.58875   1.59281
 Alpha virt. eigenvalues --    1.59517   1.60538   1.61248   1.61467   1.62250
 Alpha virt. eigenvalues --    1.62652   1.62935   1.63287   1.63644   1.64619
 Alpha virt. eigenvalues --    1.65320   1.65956   1.66512   1.66808   1.67250
 Alpha virt. eigenvalues --    1.67589   1.68226   1.68538   1.68771   1.69188
 Alpha virt. eigenvalues --    1.69518   1.69931   1.70365   1.70720   1.71473
 Alpha virt. eigenvalues --    1.71759   1.72674   1.72852   1.73432   1.73772
 Alpha virt. eigenvalues --    1.74366   1.74549   1.74979   1.75229   1.75336
 Alpha virt. eigenvalues --    1.76014   1.76451   1.76631   1.77650   1.78114
 Alpha virt. eigenvalues --    1.78269   1.78956   1.79530   1.79718   1.79759
 Alpha virt. eigenvalues --    1.79976   1.80090   1.80324   1.80870   1.81309
 Alpha virt. eigenvalues --    1.81436   1.82506   1.82741   1.83242   1.83358
 Alpha virt. eigenvalues --    1.84033   1.84571   1.84654   1.86027   1.86474
 Alpha virt. eigenvalues --    1.86705   1.87088   1.87548   1.87765   1.88006
 Alpha virt. eigenvalues --    1.88118   1.88744   1.89244   1.89467   1.90109
 Alpha virt. eigenvalues --    1.90985   1.91718   1.91902   1.92025   1.92933
 Alpha virt. eigenvalues --    1.93443   1.93781   1.94651   1.95503   1.95881
 Alpha virt. eigenvalues --    1.96443   1.96831   1.97724   1.98717   1.99012
 Alpha virt. eigenvalues --    1.99762   2.00247   2.01009   2.01743   2.02105
 Alpha virt. eigenvalues --    2.02685   2.03486   2.04674   2.05190   2.05482
 Alpha virt. eigenvalues --    2.06027   2.06811   2.07012   2.08047   2.08101
 Alpha virt. eigenvalues --    2.08452   2.09181   2.10073   2.10369   2.10724
 Alpha virt. eigenvalues --    2.11182   2.12562   2.12977   2.13577   2.14755
 Alpha virt. eigenvalues --    2.15372   2.15737   2.17152   2.18660   2.19407
 Alpha virt. eigenvalues --    2.19652   2.20183   2.20895   2.22277   2.22312
 Alpha virt. eigenvalues --    2.22774   2.23795   2.24060   2.24760   2.25114
 Alpha virt. eigenvalues --    2.25710   2.26805   2.27545   2.27877   2.28560
 Alpha virt. eigenvalues --    2.29049   2.29322   2.29875   2.30571   2.31027
 Alpha virt. eigenvalues --    2.31741   2.32361   2.32953   2.33484   2.33746
 Alpha virt. eigenvalues --    2.34360   2.34649   2.34981   2.35840   2.36244
 Alpha virt. eigenvalues --    2.36786   2.37180   2.37872   2.39373   2.39633
 Alpha virt. eigenvalues --    2.40406   2.41081   2.41314   2.41470   2.42536
 Alpha virt. eigenvalues --    2.43125   2.43484   2.44253   2.44809   2.44980
 Alpha virt. eigenvalues --    2.46046   2.46283   2.46954   2.47852   2.49087
 Alpha virt. eigenvalues --    2.49766   2.50048   2.51340   2.52175   2.53536
 Alpha virt. eigenvalues --    2.54478   2.54773   2.55931   2.56472   2.56810
 Alpha virt. eigenvalues --    2.57536   2.58555   2.59687   2.60267   2.60558
 Alpha virt. eigenvalues --    2.61095   2.61450   2.62281   2.62812   2.64176
 Alpha virt. eigenvalues --    2.64838   2.64990   2.65906   2.66282   2.67584
 Alpha virt. eigenvalues --    2.68323   2.68808   2.69202   2.69811   2.70221
 Alpha virt. eigenvalues --    2.70477   2.71334   2.72790   2.73341   2.74015
 Alpha virt. eigenvalues --    2.74236   2.75226   2.75417   2.77312   2.78548
 Alpha virt. eigenvalues --    2.78996   2.79773   2.79920   2.80047   2.80123
 Alpha virt. eigenvalues --    2.80692   2.80985   2.81328   2.82061   2.82609
 Alpha virt. eigenvalues --    2.82816   2.83392   2.84229   2.84711   2.85508
 Alpha virt. eigenvalues --    2.86440   2.87201   2.87358   2.87973   2.88135
 Alpha virt. eigenvalues --    2.88239   2.90258   2.91681   2.92792   2.94322
 Alpha virt. eigenvalues --    2.95355   2.97623   2.98720   2.99277   2.99758
 Alpha virt. eigenvalues --    3.01227   3.03215   3.04971   3.05226   3.06957
 Alpha virt. eigenvalues --    3.09722   3.10148   3.13913   3.14423   3.14808
 Alpha virt. eigenvalues --    3.15207   3.16019   3.16613   3.19356   3.22040
 Alpha virt. eigenvalues --    3.22728   3.23337   3.23576   3.26709   3.37374
 Alpha virt. eigenvalues --    3.45813   3.47096   3.49512   3.49871   3.52264
 Alpha virt. eigenvalues --    3.53061   3.53852   3.56595   3.60236   3.60850
 Alpha virt. eigenvalues --    3.62608   3.71343   3.74533
          Condensed to atoms (all electrons):
 Mulliken charges:
               1
     1  N   -0.311675
     2  C    0.181092
     3  C    0.032019
     4  N   -0.260361
     5  C    0.134957
     6  H    0.027658
     7  N   -0.289253
     8  C    0.134374
     9  H    0.006825
    10  N   -0.288170
    11  C    0.246051
    12  C    0.126262
    13  N   -0.059710
    14  H    0.107452
    15  H    0.088210
    16  H    0.025577
    17  H    0.034960
    18  H    0.027270
    19  N   -0.310801
    20  C    0.220920
    21  C    0.182025
    22  N   -0.092655
    23  H    0.115741
    24  H    0.104164
    25  N   -0.251295
    26  C    0.142704
    27  N   -0.093777
    28  H    0.116396
    29  C    0.133048
    30  O   -0.317650
    31  C    0.002946
    32  N   -0.218017
    33  C    0.125486
    34  H    0.030923
    35  H    0.027189
    36  H    0.026453
    37  H    0.024845
    38  H    0.061464
    39  H    0.058702
    40  H    0.073482
    41  H    0.032004
    42  C   -0.112788
    43  O   -0.263999
    44  C    0.176563
    45  H    0.134935
    46  N   -0.139562
    47  O   -0.346319
    48  C    0.361160
    49  H    0.047879
    50  C    0.169995
    51  C    0.044434
    52  N   -0.297440
    53  H    0.013676
    54  H    0.031958
    55  H   -0.008129
    56  H    0.123007
    57  H    0.115651
    58  N   -0.068626
    59  C    0.103377
    60  C    0.204776
    61  N   -0.252631
    62  H    0.074999
    63  C    0.155408
    64  N   -0.294701
    65  H    0.031861
    66  C    0.123941
    67  N   -0.264295
    68  C    0.047107
    69  C    0.248309
    70  N   -0.318383
 Sum of Mulliken charges =  -0.00000
 Mulliken charges with hydrogens summed into heavy atoms:
               1
     1  N   -0.311675
     2  C    0.268900
     3  C    0.032019
     4  N   -0.260361
     5  C    0.162615
     7  N   -0.289253
     8  C    0.141199
    10  N   -0.288170
    11  C    0.246051
    12  C    0.126262
    13  N    0.135951
    19  N   -0.310801
    20  C    0.220920
    21  C    0.260511
    22  N    0.127249
    25  N   -0.251295
    26  C    0.142704
    27  N    0.022619
    29  C    0.133048
    30  O   -0.317650
    31  C    0.002946
    32  N   -0.218017
    33  C    0.156409
    42  C   -0.080784
    43  O   -0.263999
    44  C    0.176563
    46  N   -0.004627
    47  O   -0.346319
    48  C    0.361160
    50  C    0.217874
    51  C    0.238082
    52  N   -0.297440
    58  N    0.170031
    59  C    0.103377
    60  C    0.204776
    61  N   -0.252631
    63  C    0.230407
    64  N   -0.294701
    66  C    0.155801
    67  N   -0.264295
    68  C    0.047107
    69  C    0.285813
    70  N   -0.318383
 Electronic spatial extent (au):  <R**2>=          23650.1242
 Charge=             -0.0000 electrons
 Dipole moment (field-independent basis, Debye):
    X=              8.0027    Y=              4.8676    Z=              3.7320  Tot=             10.0828
 Quadrupole moment (field-independent basis, Debye-Ang):
   XX=           -151.3971   YY=           -216.9754   ZZ=           -254.0720
   XY=              0.0918   XZ=             11.4532   YZ=            -11.9827
 Traceless Quadrupole moment (field-independent basis, Debye-Ang):
   XX=             56.0844   YY=             -9.4939   ZZ=            -46.5905
   XY=              0.0918   XZ=             11.4532   YZ=            -11.9827
 Octapole moment (field-independent basis, Debye-Ang**2):
  XXX=              4.9800  YYY=            136.9374  ZZZ=              3.3886  XYY=             86.7122
  XXY=           -116.0312  XXZ=            -48.7728  XZZ=              9.8452  YZZ=             14.9400
  YYZ=             50.1365  XYZ=             34.5530
 Hexadecapole moment (field-independent basis, Debye-Ang**3):
 XXXX=         -15129.3937 YYYY=          -6927.4776 ZZZZ=          -2972.0981 XXXY=            450.7682
 XXXZ=            155.4644 YYYX=            -73.9361 YYYZ=           -130.9794 ZZZX=             17.8705
 ZZZY=            -49.3882 XXYY=          -3807.8093 XXZZ=          -4012.8965 YYZZ=          -1669.0939
 XXYZ=             92.3340 YYXZ=            241.9025 ZZXY=            -25.3308
 N-N= 5.486741914214D+03 E-N=-1.575446831693D+04  KE= 2.038526530001D+03
 No NMR shielding tensors so no spin-rotation constants.
 Leave Link  601 at Fri Jan 26 06:03:17 2018, MaxMem=  4294967296 cpu:              49.5 elap:               1.7
 (Enter /share/apps/g16/l9999.exe)
 1\1\GINC-COMPUTE-0-3\SP\RwB97XD\CC-pVDZ\C23H27N17O3\SATYA\26-Jan-2018\
 0\\#p wb97xd/cc-pvdz sp scf=(maxcycles=20)\\Base pair stacking\\0,1\N,
 0,7.10816,2.1541,-8.42828\C,0,8.45854,2.69725,-8.67218\C,0,4.98659,1.9
 4833,-7.88615\N,0,5.40224,0.6944,-8.30997\C,0,6.66377,0.86856,-8.61961
 \H,0,7.32352,0.0862,-8.99589\N,0,3.67102,3.73261,-7.08082\C,0,4.76473,
 4.49234,-7.19989\H,0,4.64073,5.53471,-6.90945\N,0,5.9829,4.15935,-7.62
 187\C,0,6.02716,2.85839,-7.95349\C,0,3.74803,2.42785,-7.42252\N,0,2.65
 734,1.66786,-7.30435\H,0,2.66846,0.69687,-7.54574\H,0,1.79239,2.04295,
 -6.9707\H,0,8.69586,2.58334,-9.63701\H,0,8.47503,3.66894,-8.43834\H,0,
 9.12358,2.20886,-8.10722\N,0,3.58025,5.60025,-3.58352\C,0,2.33139,5.06
 471,-3.37959\C,0,3.90002,7.04191,-3.59136\N,0,-1.05963,5.4904,-2.7619\
 H,0,-1.86523,4.91163,-2.6383\H,0,-1.19822,6.4794,-2.70361\N,0,1.19569,
 5.75992,-3.15392\C,0,0.15246,4.96484,-2.99539\N,0,0.21455,3.59359,-3.0
 5308\H,0,-0.63423,3.06554,-2.92006\C,0,1.37221,2.85715,-3.28406\O,0,1.
 31971,1.62147,-3.31676\C,0,2.50132,3.69758,-3.45632\N,0,3.83012,3.3812
 ,-3.70345\C,0,4.43091,4.53823,-3.77096\H,0,5.49697,4.6745,-3.95596\H,0
 ,4.28098,7.2957,-4.47976\H,0,3.06637,7.56696,-3.42521\H,0,4.56664,7.24
 107,-2.87389\H,0,-5.30046,1.04846,-2.81791\H,0,-4.89917,0.72729,-1.132
 54\H,0,-4.23459,2.14702,-1.94129\H,0,-2.47761,-2.81681,-3.30555\C,0,-2
 .38595,-1.74601,-3.12332\O,0,-0.07623,-1.66604,-3.65803\C,0,-1.11637,-
 1.11107,-3.30461\H,0,-0.23092,0.7287,-3.16485\N,0,-1.11018,0.24509,-3.
 04765\O,0,-2.06887,2.21336,-2.44431\C,0,-2.17252,1.01647,-2.64771\H,0,
 -4.42751,-1.45514,-2.5818\C,0,-3.44056,-1.02023,-2.73391\C,0,-4.5257,1
 .11495,-2.06865\N,0,-3.36232,0.3322,-2.49481\H,0,-2.92234,7.31426,-4.5
 5462\H,0,-1.42945,6.96804,-3.99471\H,0,-2.73947,6.6565,-3.07228\H,0,-0
 .83332,0.58962,-6.8957\H,0,-2.4527,0.97615,-6.52382\N,0,-1.48926,1.246
 33,-6.52338\C,0,-1.09765,2.43001,-6.04723\C,0,-1.42355,4.56963,-5.0585
 1\N,0,-0.12303,4.90566,-5.07064\H,0,1.67898,4.11539,-5.64409\C,0,0.607
 77,3.92445,-5.59606\N,0,0.21742,2.73817,-6.07351\H,0,-4.59114,4.91657,
 -4.51243\C,0,-3.60029,4.55876,-4.79374\N,0,-3.35649,3.39295,-5.34067\C
 ,0,-1.98,3.387,-5.51378\C,0,-2.38447,6.67324,-4.00709\N,0,-2.47612,5.3
 2247,-4.59446\\Version=EM64L-G16RevA.03\State=1-A\HF=-2048.5995032\RMS
 D=9.577e-09\Dipole=-3.4990486,1.8051601,0.4840817\Quadrupole=33.549398
 6,-11.3100702,-22.2393284,9.9223613,-23.4021239,11.2207927\PG=C01 [X(C
 23H27N17O3)]\\@


 A MAN SHOULD NEVER BE ASHAMED TO OWN HE HAS BEEN IN THE WRONG
 WHICH IS BUT SAYING IN OTHER WORDS,
 THAT HE IS WISER TODAY THAN HE WAS YESTERDAY.

                          -- JONATHAN SWIFT
 Job cpu time:       0 days  6 hours  5 minutes 40.7 seconds.
 Elapsed time:       0 days  0 hours 11 minutes 49.2 seconds.
 File lengths (MBytes):  RWF=    298 Int=      0 D2E=      0 Chk=     33 Scr=      1
 Normal termination of Gaussian 16 at Fri Jan 26 06:03:18 2018.
