 Entering Gaussian System, Link 0=g16
 Input=str55.0.1.5.com
 Output=str55.0.1.5.log
 Initial command:
 /share/apps/g16/l1.exe "/state/partition1/scr/Gau-6013.inp" -scrdir="/state/partition1/scr/"
 Entering Link 1 = /share/apps/g16/l1.exe PID=      6014.
  
 Copyright (c) 1988,1990,1992,1993,1995,1998,2003,2009,2016,
            Gaussian, Inc.  All Rights Reserved.
  
 This is part of the Gaussian(R) 16 program.  It is based on
 the Gaussian(R) 09 system (copyright 2009, Gaussian, Inc.),
 the Gaussian(R) 03 system (copyright 2003, Gaussian, Inc.),
 the Gaussian(R) 98 system (copyright 1998, Gaussian, Inc.),
 the Gaussian(R) 94 system (copyright 1995, Gaussian, Inc.),
 the Gaussian 92(TM) system (copyright 1992, Gaussian, Inc.),
 the Gaussian 90(TM) system (copyright 1990, Gaussian, Inc.),
 the Gaussian 88(TM) system (copyright 1988, Gaussian, Inc.),
 the Gaussian 86(TM) system (copyright 1986, Carnegie Mellon
 University), and the Gaussian 82(TM) system (copyright 1983,
 Carnegie Mellon University). Gaussian is a federally registered
 trademark of Gaussian, Inc.
  
 This software contains proprietary and confidential information,
 including trade secrets, belonging to Gaussian, Inc.
  
 This software is provided under written license and may be
 used, copied, transmitted, or stored only in accord with that
 written license.
  
 The following legend is applicable only to US Government
 contracts under FAR:
  
                    RESTRICTED RIGHTS LEGEND
  
 Use, reproduction and disclosure by the US Government is
 subject to restrictions as set forth in subparagraphs (a)
 and (c) of the Commercial Computer Software - Restricted
 Rights clause in FAR 52.227-19.
  
 Gaussian, Inc.
 340 Quinnipiac St., Bldg. 40, Wallingford CT 06492
  
  
 ---------------------------------------------------------------
 Warning -- This program may not be used in any manner that
 competes with the business of Gaussian, Inc. or will provide
 assistance to any competitor of Gaussian, Inc.  The licensee
 of this program is prohibited from giving any competitor of
 Gaussian, Inc. access to this program.  By using this program,
 the user acknowledges that Gaussian, Inc. is engaged in the
 business of creating and licensing software in the field of
 computational chemistry and represents and warrants to the
 licensee that it is not a competitor of Gaussian, Inc. and that
 it will not use this program in any manner prohibited above.
 ---------------------------------------------------------------
  

 Cite this work as:
 Gaussian 16, Revision A.03,
 M. J. Frisch, G. W. Trucks, H. B. Schlegel, G. E. Scuseria, 
 M. A. Robb, J. R. Cheeseman, G. Scalmani, V. Barone, 
 G. A. Petersson, H. Nakatsuji, X. Li, M. Caricato, A. V. Marenich, 
 J. Bloino, B. G. Janesko, R. Gomperts, B. Mennucci, H. P. Hratchian, 
 J. V. Ortiz, A. F. Izmaylov, J. L. Sonnenberg, D. Williams-Young, 
 F. Ding, F. Lipparini, F. Egidi, J. Goings, B. Peng, A. Petrone, 
 T. Henderson, D. Ranasinghe, V. G. Zakrzewski, J. Gao, N. Rega, 
 G. Zheng, W. Liang, M. Hada, M. Ehara, K. Toyota, R. Fukuda, 
 J. Hasegawa, M. Ishida, T. Nakajima, Y. Honda, O. Kitao, H. Nakai, 
 T. Vreven, K. Throssell, J. A. Montgomery, Jr., J. E. Peralta, 
 F. Ogliaro, M. J. Bearpark, J. J. Heyd, E. N. Brothers, K. N. Kudin, 
 V. N. Staroverov, T. A. Keith, R. Kobayashi, J. Normand, 
 K. Raghavachari, A. P. Rendell, J. C. Burant, S. S. Iyengar, 
 J. Tomasi, M. Cossi, J. M. Millam, M. Klene, C. Adamo, R. Cammi, 
 J. W. Ochterski, R. L. Martin, K. Morokuma, O. Farkas, 
 J. B. Foresman, and D. J. Fox, Gaussian, Inc., Wallingford CT, 2016.
 
 ******************************************
 Gaussian 16:  EM64L-G16RevA.03 25-Dec-2016
                25-Jan-2018 
 ******************************************
 %nprocshared=32
 Will use up to   32 processors via shared memory.
 %mem=32GB
 %chk=allatoms_t.chk
 ---------------------------------------
 #p wb97xd/cc-pvdz sp scf=(maxcycles=20)
 ---------------------------------------
 1/38=1,172=1/1;
 2/12=2,17=6,18=5,40=1/2;
 3/5=16,11=2,25=1,30=1,74=-58/1,2,3;
 4//1;
 5/5=2,7=20,38=5/2;
 6/7=2,8=2,9=2,10=2,28=1/1;
 99/5=1,9=1/99;
 Leave Link    1 at Thu Jan 25 20:26:45 2018, MaxMem=  4294967296 cpu:               5.5 elap:               0.2
 (Enter /share/apps/g16/l101.exe)
 ------------------
 Base pair stacking
 ------------------
 Symbolic Z-matrix:
 Charge =  0 Multiplicity = 1
 N                     3.64239  -2.1963   -6.47105 
 C                     5.01439  -1.66237  -6.57363 
 C                     1.45205  -2.37282  -6.3785 
 N                     1.95066  -3.66198  -6.25948 
 C                     3.2503   -3.50404  -6.32 
 H                     3.97689  -4.31479  -6.25909 
 N                    -0.00883  -0.52682  -6.52372 
 C                     1.08524   0.23273  -6.6407 
 H                     0.9006    1.30084  -6.74702 
 N                     2.36712  -0.12735  -6.64602 
 C                     2.4829   -1.45867  -6.50964 
 C                     0.14114  -1.86255  -6.38803 
 N                    -0.94978  -2.62242  -6.27112 
 H                    -0.8861   -3.61572  -6.1686 
 H                    -1.8674   -2.22494  -6.28203 
 H                     5.47114  -2.06353  -7.36775 
 H                     4.97933  -0.66881  -6.67715 
 H                     5.5263   -1.89169  -5.74576 
 N                     2.41039   2.50891  -3.26456 
 C                     1.14405   1.97558  -3.26328 
 C                     2.73086   3.94719  -3.36129 
 N                    -2.29986   2.40324  -3.39872 
 H                    -3.11605   1.8264   -3.38065 
 H                    -2.44342   3.39022  -3.47605 
 N                    -0.01095   2.67027  -3.34948 
 C                    -1.06778   1.87778  -3.32272 
 N                    -1.00078   0.50944  -3.21948 
 H                    -1.86096  -0.01675  -3.20649 
 C                     0.17665  -0.22639  -3.12957 
 O                     0.12693  -1.45936  -3.03986 
 C                     1.32053   0.61126  -3.15705 
 N                     2.67049   0.29444  -3.09292 
 C                     3.27708   1.44846  -3.16 
 H                     4.35899   1.58353  -3.13738 
 H                     3.28649   4.11256  -4.17537 
 H                     1.88299   4.47182  -3.42565 
 H                     3.23746   4.2329   -2.54855 
 H                    -6.45761  -2.09511  -3.84208 
 H                    -6.41079  -2.22932  -2.08582 
 H                    -5.5891   -0.89122  -2.88935 
 H                    -3.61042  -5.93903  -3.32784 
 C                    -3.55362  -4.8535   -3.2464 
 O                    -1.18305  -4.78903  -3.30466 
 C                    -2.27123  -4.21859  -3.23206 
 H                    -1.4256   -2.35877  -3.11248 
 N                    -2.31221  -2.84299  -3.12585 
 O                    -3.36603  -0.83953  -2.94466 
 C                    -3.43075  -2.05287  -3.03565 
 H                    -5.66157  -4.54374  -3.16654 
 C                    -4.66262  -4.10969  -3.16 
 C                    -5.85219  -1.93602  -2.96218 
 N                    -4.62944  -2.73839  -3.05609 
 H                    -6.99691   3.17923  -6.86174 
 H                    -5.67855   3.1438   -5.90113 
 H                    -7.16972   3.05032  -5.24405 
 H                    -4.443    -3.76675  -6.31721 
 H                    -6.10291  -3.40205  -6.46493 
 N                    -5.16544  -3.07556  -6.33931 
 C                    -4.89193  -1.77597  -6.20724 
 C                    -5.43246   0.53784  -6.08142 
 N                    -4.16413   0.9474   -5.91402 
 H                    -2.28097   0.15024  -5.77681 
 C                    -3.33426  -0.09384  -5.90822 
 N                    -3.60625  -1.3962   -6.04035 
 H                    -8.63834   0.80663  -6.40123 
 C                    -7.61055   0.45167  -6.32 
 N                    -7.24973  -0.80679  -6.38132 
 C                    -5.87111  -0.76624  -6.23142 
 C                    -6.60512   2.79085  -6.02768 
 N                    -6.5616    1.31993  -6.13959 
 
 ITRead=  0  0  0  0  0  0  0  0  0  0  0  0  0  0  0  0  0  0  0  0
 ITRead=  0  0  0  0  0  0  0  0  0  0  0  0  0  0  0  0  0  0  0  0
 ITRead=  0  0  0  0  0  0  0  0  0  0  0  0  0  0  0  0  0  0  0  0
 ITRead=  0  0  0  0  0  0  0  0  0  0
 MicOpt= -1 -1 -1 -1 -1 -1 -1 -1 -1 -1 -1 -1 -1 -1 -1 -1 -1 -1 -1 -1
 MicOpt= -1 -1 -1 -1 -1 -1 -1 -1 -1 -1 -1 -1 -1 -1 -1 -1 -1 -1 -1 -1
 MicOpt= -1 -1 -1 -1 -1 -1 -1 -1 -1 -1 -1 -1 -1 -1 -1 -1 -1 -1 -1 -1
 MicOpt= -1 -1 -1 -1 -1 -1 -1 -1 -1 -1
 NAtoms=     70 NQM=       70 NQMF=       0 NMMI=      0 NMMIF=      0
                NMic=       0 NMicF=      0.
                    Isotopes and Nuclear Properties:
 (Nuclear quadrupole moments (NQMom) in fm**2, nuclear magnetic moments (NMagM)
  in nuclear magnetons)

  Atom         1           2           3           4           5           6           7           8           9          10
 IAtWgt=          14          12          12          14          12           1          14          12           1          14
 AtmWgt=  14.0030740  12.0000000  12.0000000  14.0030740  12.0000000   1.0078250  14.0030740  12.0000000   1.0078250  14.0030740
 NucSpn=           2           0           0           2           0           1           2           0           1           2
 AtZEff=  -0.0000000  -0.0000000  -0.0000000  -0.0000000  -0.0000000  -0.0000000  -0.0000000  -0.0000000  -0.0000000  -0.0000000
 NQMom=    2.0440000   0.0000000   0.0000000   2.0440000   0.0000000   0.0000000   2.0440000   0.0000000   0.0000000   2.0440000
 NMagM=    0.4037610   0.0000000   0.0000000   0.4037610   0.0000000   2.7928460   0.4037610   0.0000000   2.7928460   0.4037610
 AtZNuc=   7.0000000   6.0000000   6.0000000   7.0000000   6.0000000   1.0000000   7.0000000   6.0000000   1.0000000   7.0000000

  Atom        11          12          13          14          15          16          17          18          19          20
 IAtWgt=          12          12          14           1           1           1           1           1          14          12
 AtmWgt=  12.0000000  12.0000000  14.0030740   1.0078250   1.0078250   1.0078250   1.0078250   1.0078250  14.0030740  12.0000000
 NucSpn=           0           0           2           1           1           1           1           1           2           0
 AtZEff=  -0.0000000  -0.0000000  -0.0000000  -0.0000000  -0.0000000  -0.0000000  -0.0000000  -0.0000000  -0.0000000  -0.0000000
 NQMom=    0.0000000   0.0000000   2.0440000   0.0000000   0.0000000   0.0000000   0.0000000   0.0000000   2.0440000   0.0000000
 NMagM=    0.0000000   0.0000000   0.4037610   2.7928460   2.7928460   2.7928460   2.7928460   2.7928460   0.4037610   0.0000000
 AtZNuc=   6.0000000   6.0000000   7.0000000   1.0000000   1.0000000   1.0000000   1.0000000   1.0000000   7.0000000   6.0000000

  Atom        21          22          23          24          25          26          27          28          29          30
 IAtWgt=          12          14           1           1          14          12          14           1          12          16
 AtmWgt=  12.0000000  14.0030740   1.0078250   1.0078250  14.0030740  12.0000000  14.0030740   1.0078250  12.0000000  15.9949146
 NucSpn=           0           2           1           1           2           0           2           1           0           0
 AtZEff=  -0.0000000  -0.0000000  -0.0000000  -0.0000000  -0.0000000  -0.0000000  -0.0000000  -0.0000000  -0.0000000  -0.0000000
 NQMom=    0.0000000   2.0440000   0.0000000   0.0000000   2.0440000   0.0000000   2.0440000   0.0000000   0.0000000   0.0000000
 NMagM=    0.0000000   0.4037610   2.7928460   2.7928460   0.4037610   0.0000000   0.4037610   2.7928460   0.0000000   0.0000000
 AtZNuc=   6.0000000   7.0000000   1.0000000   1.0000000   7.0000000   6.0000000   7.0000000   1.0000000   6.0000000   8.0000000

  Atom        31          32          33          34          35          36          37          38          39          40
 IAtWgt=          12          14          12           1           1           1           1           1           1           1
 AtmWgt=  12.0000000  14.0030740  12.0000000   1.0078250   1.0078250   1.0078250   1.0078250   1.0078250   1.0078250   1.0078250
 NucSpn=           0           2           0           1           1           1           1           1           1           1
 AtZEff=  -0.0000000  -0.0000000  -0.0000000  -0.0000000  -0.0000000  -0.0000000  -0.0000000  -0.0000000  -0.0000000  -0.0000000
 NQMom=    0.0000000   2.0440000   0.0000000   0.0000000   0.0000000   0.0000000   0.0000000   0.0000000   0.0000000   0.0000000
 NMagM=    0.0000000   0.4037610   0.0000000   2.7928460   2.7928460   2.7928460   2.7928460   2.7928460   2.7928460   2.7928460
 AtZNuc=   6.0000000   7.0000000   6.0000000   1.0000000   1.0000000   1.0000000   1.0000000   1.0000000   1.0000000   1.0000000

  Atom        41          42          43          44          45          46          47          48          49          50
 IAtWgt=           1          12          16          12           1          14          16          12           1          12
 AtmWgt=   1.0078250  12.0000000  15.9949146  12.0000000   1.0078250  14.0030740  15.9949146  12.0000000   1.0078250  12.0000000
 NucSpn=           1           0           0           0           1           2           0           0           1           0
 AtZEff=  -0.0000000  -0.0000000  -0.0000000  -0.0000000  -0.0000000  -0.0000000  -0.0000000  -0.0000000  -0.0000000  -0.0000000
 NQMom=    0.0000000   0.0000000   0.0000000   0.0000000   0.0000000   2.0440000   0.0000000   0.0000000   0.0000000   0.0000000
 NMagM=    2.7928460   0.0000000   0.0000000   0.0000000   2.7928460   0.4037610   0.0000000   0.0000000   2.7928460   0.0000000
 AtZNuc=   1.0000000   6.0000000   8.0000000   6.0000000   1.0000000   7.0000000   8.0000000   6.0000000   1.0000000   6.0000000

  Atom        51          52          53          54          55          56          57          58          59          60
 IAtWgt=          12          14           1           1           1           1           1          14          12          12
 AtmWgt=  12.0000000  14.0030740   1.0078250   1.0078250   1.0078250   1.0078250   1.0078250  14.0030740  12.0000000  12.0000000
 NucSpn=           0           2           1           1           1           1           1           2           0           0
 AtZEff=  -0.0000000  -0.0000000  -0.0000000  -0.0000000  -0.0000000  -0.0000000  -0.0000000  -0.0000000  -0.0000000  -0.0000000
 NQMom=    0.0000000   2.0440000   0.0000000   0.0000000   0.0000000   0.0000000   0.0000000   2.0440000   0.0000000   0.0000000
 NMagM=    0.0000000   0.4037610   2.7928460   2.7928460   2.7928460   2.7928460   2.7928460   0.4037610   0.0000000   0.0000000
 AtZNuc=   6.0000000   7.0000000   1.0000000   1.0000000   1.0000000   1.0000000   1.0000000   7.0000000   6.0000000   6.0000000

  Atom        61          62          63          64          65          66          67          68          69          70
 IAtWgt=          14           1          12          14           1          12          14          12          12          14
 AtmWgt=  14.0030740   1.0078250  12.0000000  14.0030740   1.0078250  12.0000000  14.0030740  12.0000000  12.0000000  14.0030740
 NucSpn=           2           1           0           2           1           0           2           0           0           2
 AtZEff=  -0.0000000  -0.0000000  -0.0000000  -0.0000000  -0.0000000  -0.0000000  -0.0000000  -0.0000000  -0.0000000  -0.0000000
 NQMom=    2.0440000   0.0000000   0.0000000   2.0440000   0.0000000   0.0000000   2.0440000   0.0000000   0.0000000   2.0440000
 NMagM=    0.4037610   2.7928460   0.0000000   0.4037610   2.7928460   0.0000000   0.4037610   0.0000000   0.0000000   0.4037610
 AtZNuc=   7.0000000   1.0000000   6.0000000   7.0000000   1.0000000   6.0000000   7.0000000   6.0000000   6.0000000   7.0000000
 Leave Link  101 at Thu Jan 25 20:26:45 2018, MaxMem=  4294967296 cpu:               7.7 elap:               0.3
 (Enter /share/apps/g16/l202.exe)
 Stoichiometry    C23H27N17O3
 Framework group  C1[X(C23H27N17O3)]
 Deg. of freedom   204
 Full point group                 C1      NOp   1
 Largest Abelian subgroup         C1      NOp   1
 Largest concise Abelian subgroup C1      NOp   1
                         Standard orientation:                         
 ---------------------------------------------------------------------
 Center     Atomic      Atomic             Coordinates (Angstroms)
 Number     Number       Type             X           Y           Z
 ---------------------------------------------------------------------
      1          7           0        4.929081   -2.061183   -1.599838
      2          6           0        6.337753   -1.661995   -1.784984
      3          6           0        2.734562   -2.038101   -1.455380
      4          7           0        3.127193   -3.342196   -1.191014
      5          6           0        4.433592   -3.303910   -1.288623
      6          1           0        5.091643   -4.160926   -1.142158
      7          7           0        1.428854   -0.104034   -1.798143
      8          6           0        2.579016    0.540410   -2.020425
      9          1           0        2.481137    1.600496   -2.250407
     10          7           0        3.826068    0.074148   -2.001339
     11          6           0        3.834228   -1.236961   -1.709204
     12          6           0        1.470693   -1.422505   -1.506661
     13          7           0        0.323641   -2.067542   -1.284456
     14          1           0        0.307131   -3.043736   -1.065405
     15          1           0       -0.557808   -1.597259   -1.329355
     16          1           0        6.740102   -2.191063   -2.532231
     17          1           0        6.382773   -0.688103   -2.005471
     18          1           0        6.848917   -1.835419   -0.943175
     19          7           0        4.170565    3.075614    1.041445
     20          6           0        2.864734    2.656117    1.124427
     21          6           0        4.606865    4.459984    0.769659
     22          7           0       -0.534066    3.357185    0.988719
     23          1           0       -1.394638    2.858204    1.087058
     24          1           0       -0.597045    4.336897    0.796579
     25          7           0        1.769628    3.431884    0.972839
     26          6           0        0.651629    2.741085    1.108934
     27          7           0        0.607311    1.393620    1.373276
     28          1           0       -0.293005    0.947910    1.461180
     29          6           0        1.721438    0.575671    1.533119
     30          8           0        1.571745   -0.629486    1.769605
     31          6           0        2.929891    1.303641    1.389682
     32          7           0        4.250055    0.882523    1.471588
     33          6           0        4.948528    1.964709    1.258937
     34          1           0        6.038145    2.008698    1.249728
     35          1           0        5.154265    4.480674   -0.066238
     36          1           0        3.804154    5.043850    0.655561
     37          1           0        5.155123    4.794819    1.535243
     38          1           0       -5.060459   -0.790868    1.143721
     39          1           0       -4.982080   -0.721569    2.902615
     40          1           0       -4.072011    0.437981    1.933820
     41          1           0       -2.530481   -4.776691    2.070585
     42          6           0       -2.381795   -3.697936    2.021457
     43          8           0       -0.016186   -3.843236    1.921777
     44          6           0       -1.051160   -3.177471    1.941665
     45          1           0       -0.051397   -1.395443    1.826903
     46          7           0       -0.975203   -1.800466    1.884024
     47          8           0       -1.854338    0.292968    1.840715
     48          6           0       -2.021758   -0.912690    1.895683
     49          1           0       -4.454176   -3.202238    2.094269
     50          6           0       -3.422782   -2.857240    2.034717
     51          6           0       -4.422623   -0.581864    1.989623
     52          7           0       -3.273357   -1.491087    1.974235
     53          1           0       -5.233627    4.119346   -2.473966
     54          1           0       -3.899701    4.084532   -1.535068
     55          1           0       -5.376997    4.196367   -0.850108
     56          1           0       -3.252595   -2.907141   -1.143704
     57          1           0       -4.879611   -2.422014   -1.309828
     58          7           0       -3.915488   -2.164220   -1.237473
     59          6           0       -3.531900   -0.886218   -1.264930
     60          6           0       -3.875259    1.463992   -1.407535
     61          7           0       -2.573601    1.780651   -1.308355
     62          1           0       -0.760327    0.847360   -1.104427
     63          6           0       -1.833136    0.680306   -1.190666
     64          7           0       -2.215442   -0.600574   -1.162961
     65          1           0       -7.054610    1.965928   -1.710812
     66          6           0       -6.058158    1.536567   -1.602747
     67          7           0       -5.804654    0.253442   -1.519088
     68          6           0       -4.424179    0.193533   -1.394964
     69          6           0       -4.855184    3.799519   -1.605355
     70          7           0       -4.936662    2.327317   -1.542067
 ---------------------------------------------------------------------
 Rotational constants (GHZ):           0.1163223           0.0603162           0.0512348
 Leave Link  202 at Thu Jan 25 20:26:45 2018, MaxMem=  4294967296 cpu:               0.4 elap:               0.0
 (Enter /share/apps/g16/l301.exe)
 Standard basis: CC-pVDZ (5D, 7F)
 Ernie: Thresh=  0.10000D-02 Tol=  0.10000D-05 Strict=F.
 Ernie:  86 primitive shells out of 1081 were deleted.
 There are   780 symmetry adapted cartesian basis functions of A   symmetry.
 There are   737 symmetry adapted basis functions of A   symmetry.
   737 basis functions,  1608 primitive gaussians,   780 cartesian basis functions
   154 alpha electrons      154 beta electrons
       nuclear repulsion energy      5457.6376412617 Hartrees.
 IExCor= 4639 DFT=T Ex+Corr=wB97XD ExCW=0 ScaHFX=  1.000000
 ScaDFX=  1.000000  1.000000  1.000000  1.000000 ScalE2=  1.000000  1.000000
 IRadAn=      5 IRanWt=     -1 IRanGd=            0 ICorTp=0 IEmpDi=121
 HFx  wShort=  0.000000 wLong=  0.200000 cFull=  0.222036 cShort=  0.000000 cLong=  0.777964
 DFx  wShort=  0.000000 wLong=  0.200000 cFull=  0.000000 cShort=  0.000000 cLong=  1.000000
 NAtoms=   70 NActive=   70 NUniq=   70 SFac= 1.00D+00 NAtFMM=   60 NAOKFM=T Big=T
 Integral buffers will be    131072 words long.
 Raffenetti 2 integral format.
 Two-electron integral symmetry is turned on.
 R6Disp:  Grimme-D2 Dispersion energy=       -0.0669766998 Hartrees.
 Nuclear repulsion after empirical dispersion term =     5457.5706645619 Hartrees.
 Leave Link  301 at Thu Jan 25 20:26:45 2018, MaxMem=  4294967296 cpu:               3.0 elap:               0.1
 (Enter /share/apps/g16/l302.exe)
 NPDir=0 NMtPBC=     1 NCelOv=     1 NCel=       1 NClECP=     1 NCelD=      1
         NCelK=      1 NCelE2=     1 NClLst=     1 CellRange=     0.0.
 One-electron integrals computed using PRISM.
 One-electron integral symmetry used in STVInt
 NBasis=   737 RedAO= T EigKep=  7.26D-04  NBF=   737
 NBsUse=   737 1.00D-06 EigRej= -1.00D+00 NBFU=   737
 Precomputing XC quadrature grid using
 IXCGrd= 4 IRadAn=           5 IRanWt=          -1 IRanGd=           0 AccXCQ= 0.00D+00.
 Generated NRdTot=       0 NPtTot=           0 NUsed=           0 NTot=          32
 NSgBfM=   761   761   761   761   761 MxSgAt=    70 MxSgA2=    70.
 Leave Link  302 at Thu Jan 25 20:26:49 2018, MaxMem=  4294967296 cpu:             137.3 elap:               4.3
 (Enter /share/apps/g16/l303.exe)
 DipDrv:  MaxL=1.
 Leave Link  303 at Thu Jan 25 20:26:50 2018, MaxMem=  4294967296 cpu:              12.3 elap:               0.4
 (Enter /share/apps/g16/l401.exe)
 ExpMin= 1.22D-01 ExpMax= 1.17D+04 ExpMxC= 4.01D+02 IAcc=3 IRadAn=         5 AccDes= 0.00D+00
 Harris functional with IExCor= 4639 and IRadAn=       5 diagonalized for initial guess.
 HarFok:  IExCor= 4639 AccDes= 0.00D+00 IRadAn=         5 IDoV= 1 UseB2=F ITyADJ=14
 ICtDFT=  3500011 ScaDFX=  1.000000  1.000000  1.000000  1.000000
 FoFCou: FMM=F IPFlag=           0 FMFlag=      100000 FMFlg1=        2001
         NFxFlg=           0 DoJE=T BraDBF=F KetDBF=T FulRan=T
         wScrn=  0.000000 ICntrl=       500 IOpCl=  0 I1Cent=   200000004 NGrid=           0
         NMat0=    1 NMatS0=      1 NMatT0=    0 NMatD0=    1 NMtDS0=    0 NMtDT0=    0
 Petite list used in FoFCou.
 Harris En= -1963.89089471672    
 JPrj=0 DoOrth=F DoCkMO=F.
 Leave Link  401 at Thu Jan 25 20:27:02 2018, MaxMem=  4294967296 cpu:             397.3 elap:              12.5
 (Enter /share/apps/g16/l502.exe)
 Integral symmetry usage will be decided dynamically.
 Closed shell SCF:
 Using DIIS extrapolation, IDIIS=  1040.
 NGot=  4294967296 LenX=  4293717438 LenY=  4293108258
 Requested convergence on RMS density matrix=1.00D-08 within  20 cycles.
 Requested convergence on MAX density matrix=1.00D-06.
 Requested convergence on             energy=1.00D-06.
 No special actions if energy rises.
 Fock matrices will be formed incrementally for  20 cycles.
 Integral accuracy reduced to 1.0D-05 until final iterations.

 Cycle   1  Pass 0  IDiag  1:
 FoFJK:  IHMeth= 1 ICntrl=       0 DoSepK=T KAlg= 0 I1Cent=           0 FoldK=F
 IRaf=         1 NMat=       1 IRICut=       1 DoRegI=T DoRafI=F ISym2E= 0 IDoP0=0 IntGTp=1.
 FoFCou: FMM=T IPFlag=           0 FMFlag=      100000 FMFlg1=        2001
         NFxFlg=           0 DoJE=T BraDBF=F KetDBF=F FulRan=T
         wScrn=  0.000000 ICntrl=       500 IOpCl=  0 I1Cent=           0 NGrid=           0
         NMat0=    1 NMatS0=      1 NMatT0=    0 NMatD0=    1 NMtDS0=    0 NMtDT0=    0
 Symmetry not used in FoFCou.
 FMM levels:  10  Number of levels for PrismC:   9
 E= -2048.31770230457    
 DIIS: error= 2.69D-02 at cycle   1 NSaved=   1.
 NSaved= 1 IEnMin= 1 EnMin= -2048.31770230457     IErMin= 1 ErrMin= 2.69D-02
 ErrMax= 2.69D-02  0.00D+00 EMaxC= 1.00D-01 BMatC= 8.30D-01 BMatP= 8.30D-01
 IDIUse=3 WtCom= 7.31D-01 WtEn= 2.69D-01
 Coeff-Com:  0.100D+01
 Coeff-En:   0.100D+01
 Coeff:      0.100D+01
 Gap=     0.253 Goal=   None    Shift=    0.000
 GapD=    0.253 DampG=1.000 DampE=0.500 DampFc=0.5000 IDamp=-1.
 Damping current iteration by 5.00D-01
 RMSDP=1.54D-03 MaxDP=1.32D-01              OVMax= 2.09D-01

 Cycle   2  Pass 0  IDiag  1:
 RMSU=  7.70D-04    CP:  9.98D-01
 E= -2048.51579880833     Delta-E=       -0.198096503758 Rises=F Damp=T
 DIIS: error= 1.51D-02 at cycle   2 NSaved=   2.
 NSaved= 2 IEnMin= 2 EnMin= -2048.51579880833     IErMin= 2 ErrMin= 1.51D-02
 ErrMax= 1.51D-02  0.00D+00 EMaxC= 1.00D-01 BMatC= 1.44D-01 BMatP= 8.30D-01
 IDIUse=3 WtCom= 8.49D-01 WtEn= 1.51D-01
 Coeff-Com: -0.205D+00 0.120D+01
 Coeff-En:   0.000D+00 0.100D+01
 Coeff:     -0.174D+00 0.117D+01
 Gap=     0.293 Goal=   None    Shift=    0.000
 RMSDP=5.72D-04 MaxDP=3.58D-02 DE=-1.98D-01 OVMax= 1.21D-01

 Cycle   3  Pass 0  IDiag  1:
 RMSU=  5.57D-04    CP:  9.94D-01  1.16D+00
 E= -2048.69791513411     Delta-E=       -0.182116325786 Rises=F Damp=F
 DIIS: error= 9.92D-03 at cycle   3 NSaved=   3.
 NSaved= 3 IEnMin= 3 EnMin= -2048.69791513411     IErMin= 3 ErrMin= 9.92D-03
 ErrMax= 9.92D-03  0.00D+00 EMaxC= 1.00D-01 BMatC= 5.86D-02 BMatP= 1.44D-01
 IDIUse=3 WtCom= 9.01D-01 WtEn= 9.92D-02
 Coeff-Com: -0.228D+00 0.540D+00 0.688D+00
 Coeff-En:   0.000D+00 0.000D+00 0.100D+01
 Coeff:     -0.206D+00 0.486D+00 0.719D+00
 Gap=     0.276 Goal=   None    Shift=    0.000
 RMSDP=3.40D-04 MaxDP=3.60D-02 DE=-1.82D-01 OVMax= 7.61D-02

 Cycle   4  Pass 0  IDiag  1:
 RMSU=  1.96D-04    CP:  9.95D-01  1.44D+00  6.77D-01
 E= -2048.74092480346     Delta-E=       -0.043009669351 Rises=F Damp=F
 DIIS: error= 4.14D-03 at cycle   4 NSaved=   4.
 NSaved= 4 IEnMin= 4 EnMin= -2048.74092480346     IErMin= 4 ErrMin= 4.14D-03
 ErrMax= 4.14D-03  0.00D+00 EMaxC= 1.00D-01 BMatC= 9.51D-03 BMatP= 5.86D-02
 IDIUse=3 WtCom= 9.59D-01 WtEn= 4.14D-02
 Coeff-Com: -0.910D-01 0.176D+00 0.387D+00 0.528D+00
 Coeff-En:   0.000D+00 0.000D+00 0.828D-01 0.917D+00
 Coeff:     -0.872D-01 0.169D+00 0.374D+00 0.544D+00
 Gap=     0.281 Goal=   None    Shift=    0.000
 RMSDP=1.26D-04 MaxDP=1.40D-02 DE=-4.30D-02 OVMax= 1.62D-02

 Cycle   5  Pass 0  IDiag  1:
 RMSU=  6.19D-05    CP:  9.94D-01  1.41D+00  8.15D-01  6.18D-01
 E= -2048.74843681028     Delta-E=       -0.007512006820 Rises=F Damp=F
 DIIS: error= 8.23D-04 at cycle   5 NSaved=   5.
 NSaved= 5 IEnMin= 5 EnMin= -2048.74843681028     IErMin= 5 ErrMin= 8.23D-04
 ErrMax= 8.23D-04  0.00D+00 EMaxC= 1.00D-01 BMatC= 3.20D-04 BMatP= 9.51D-03
 IDIUse=3 WtCom= 9.92D-01 WtEn= 8.23D-03
 Coeff-Com: -0.232D-01 0.393D-01 0.127D+00 0.249D+00 0.609D+00
 Coeff-En:   0.000D+00 0.000D+00 0.000D+00 0.000D+00 0.100D+01
 Coeff:     -0.230D-01 0.390D-01 0.125D+00 0.246D+00 0.612D+00
 Gap=     0.280 Goal=   None    Shift=    0.000
 RMSDP=2.51D-05 MaxDP=2.81D-03 DE=-7.51D-03 OVMax= 3.75D-03

 Failed to achieve initial convergence to 1.0D-08 in  6 cycles.
 Switch to full accuracy anyway.
 Cycle   6  Pass 1  IDiag  1:
 E= -2048.74885887743     Delta-E=       -0.000422067143 Rises=F Damp=F
 DIIS: error= 2.56D-04 at cycle   1 NSaved=   1.
 NSaved= 1 IEnMin= 1 EnMin= -2048.74885887743     IErMin= 1 ErrMin= 2.56D-04
 ErrMax= 2.56D-04  0.00D+00 EMaxC= 1.00D-01 BMatC= 7.91D-05 BMatP= 7.91D-05
 IDIUse=3 WtCom= 9.97D-01 WtEn= 2.56D-03
 Coeff-Com:  0.100D+01
 Coeff-En:   0.100D+01
 Coeff:      0.100D+01
 Gap=     0.280 Goal=   None    Shift=    0.000
 RMSDP=2.51D-05 MaxDP=2.81D-03 DE=-4.22D-04 OVMax= 2.17D-03

 Cycle   7  Pass 1  IDiag  1:
 RMSU=  1.17D-04    CP:  1.00D+00
 E= -2048.74891396111     Delta-E=       -0.000055083680 Rises=F Damp=F
 DIIS: error= 3.43D-04 at cycle   2 NSaved=   2.
 NSaved= 2 IEnMin= 2 EnMin= -2048.74891396111     IErMin= 1 ErrMin= 2.56D-04
 ErrMax= 3.43D-04  0.00D+00 EMaxC= 1.00D-01 BMatC= 5.01D-05 BMatP= 7.91D-05
 IDIUse=3 WtCom= 9.97D-01 WtEn= 3.43D-03
 Coeff-Com:  0.424D+00 0.576D+00
 Coeff-En:   0.000D+00 0.100D+01
 Coeff:      0.422D+00 0.578D+00
 Gap=     0.280 Goal=   None    Shift=    0.000
 RMSDP=1.12D-05 MaxDP=1.60D-03 DE=-5.51D-05 OVMax= 1.92D-03

 Cycle   8  Pass 1  IDiag  1:
 RMSU=  1.08D-05    CP:  1.00D+00  1.02D+00
 E= -2048.74894808823     Delta-E=       -0.000034127124 Rises=F Damp=F
 DIIS: error= 1.37D-04 at cycle   3 NSaved=   3.
 NSaved= 3 IEnMin= 3 EnMin= -2048.74894808823     IErMin= 3 ErrMin= 1.37D-04
 ErrMax= 1.37D-04  0.00D+00 EMaxC= 1.00D-01 BMatC= 1.11D-05 BMatP= 5.01D-05
 IDIUse=3 WtCom= 9.99D-01 WtEn= 1.37D-03
 Coeff-Com: -0.196D-01 0.308D+00 0.711D+00
 Coeff-En:   0.000D+00 0.133D+00 0.867D+00
 Coeff:     -0.195D-01 0.308D+00 0.711D+00
 Gap=     0.280 Goal=   None    Shift=    0.000
 RMSDP=5.67D-06 MaxDP=5.76D-04 DE=-3.41D-05 OVMax= 6.26D-04

 Cycle   9  Pass 1  IDiag  1:
 RMSU=  3.78D-06    CP:  1.00D+00  1.05D+00  7.61D-01
 E= -2048.74895769779     Delta-E=       -0.000009609562 Rises=F Damp=F
 DIIS: error= 3.62D-05 at cycle   4 NSaved=   4.
 NSaved= 4 IEnMin= 4 EnMin= -2048.74895769779     IErMin= 4 ErrMin= 3.62D-05
 ErrMax= 3.62D-05  0.00D+00 EMaxC= 1.00D-01 BMatC= 4.68D-07 BMatP= 1.11D-05
 IDIUse=1 WtCom= 1.00D+00 WtEn= 0.00D+00
 Coeff-Com: -0.297D-01 0.867D-01 0.256D+00 0.687D+00
 Coeff:     -0.297D-01 0.867D-01 0.256D+00 0.687D+00
 Gap=     0.280 Goal=   None    Shift=    0.000
 RMSDP=1.37D-06 MaxDP=1.39D-04 DE=-9.61D-06 OVMax= 4.75D-04

 Cycle  10  Pass 1  IDiag  1:
 RMSU=  1.22D-06    CP:  1.00D+00  1.06D+00  7.90D-01  1.11D+00
 E= -2048.74895846843     Delta-E=       -0.000000770635 Rises=F Damp=F
 DIIS: error= 1.58D-05 at cycle   5 NSaved=   5.
 NSaved= 5 IEnMin= 5 EnMin= -2048.74895846843     IErMin= 5 ErrMin= 1.58D-05
 ErrMax= 1.58D-05  0.00D+00 EMaxC= 1.00D-01 BMatC= 1.06D-07 BMatP= 4.68D-07
 IDIUse=1 WtCom= 1.00D+00 WtEn= 0.00D+00
 Coeff-Com: -0.220D-02-0.519D-01-0.122D+00 0.187D+00 0.989D+00
 Coeff:     -0.220D-02-0.519D-01-0.122D+00 0.187D+00 0.989D+00
 Gap=     0.280 Goal=   None    Shift=    0.000
 RMSDP=1.15D-06 MaxDP=7.35D-05 DE=-7.71D-07 OVMax= 2.25D-04

 Cycle  11  Pass 1  IDiag  1:
 RMSU=  4.79D-07    CP:  1.00D+00  1.06D+00  7.95D-01  1.38D+00  1.17D+00
 E= -2048.74895869993     Delta-E=       -0.000000231505 Rises=F Damp=F
 DIIS: error= 9.92D-06 at cycle   6 NSaved=   6.
 NSaved= 6 IEnMin= 6 EnMin= -2048.74895869993     IErMin= 6 ErrMin= 9.92D-06
 ErrMax= 9.92D-06  0.00D+00 EMaxC= 1.00D-01 BMatC= 2.71D-08 BMatP= 1.06D-07
 IDIUse=1 WtCom= 1.00D+00 WtEn= 0.00D+00
 Coeff-Com:  0.462D-02-0.426D-01-0.113D+00-0.882D-02 0.531D+00 0.628D+00
 Coeff:      0.462D-02-0.426D-01-0.113D+00-0.882D-02 0.531D+00 0.628D+00
 Gap=     0.280 Goal=   None    Shift=    0.000
 RMSDP=3.52D-07 MaxDP=3.67D-05 DE=-2.32D-07 OVMax= 1.17D-04

 Cycle  12  Pass 1  IDiag  1:
 RMSU=  1.83D-07    CP:  1.00D+00  1.06D+00  7.96D-01  1.44D+00  1.30D+00
                    CP:  9.15D-01
 E= -2048.74895873775     Delta-E=       -0.000000037823 Rises=F Damp=F
 DIIS: error= 1.25D-06 at cycle   7 NSaved=   7.
 NSaved= 7 IEnMin= 7 EnMin= -2048.74895873775     IErMin= 7 ErrMin= 1.25D-06
 ErrMax= 1.25D-06  0.00D+00 EMaxC= 1.00D-01 BMatC= 7.92D-10 BMatP= 2.71D-08
 IDIUse=1 WtCom= 1.00D+00 WtEn= 0.00D+00
 Coeff-Com:  0.112D-02-0.728D-02-0.210D-01-0.822D-02 0.639D-01 0.146D+00
 Coeff-Com:  0.825D+00
 Coeff:      0.112D-02-0.728D-02-0.210D-01-0.822D-02 0.639D-01 0.146D+00
 Coeff:      0.825D+00
 Gap=     0.280 Goal=   None    Shift=    0.000
 RMSDP=7.84D-08 MaxDP=5.21D-06 DE=-3.78D-08 OVMax= 2.17D-05

 Cycle  13  Pass 1  IDiag  1:
 RMSU=  4.87D-08    CP:  1.00D+00  1.06D+00  7.96D-01  1.45D+00  1.32D+00
                    CP:  1.00D+00  1.12D+00
 E= -2048.74895873909     Delta-E=       -0.000000001334 Rises=F Damp=F
 DIIS: error= 6.16D-07 at cycle   8 NSaved=   8.
 NSaved= 8 IEnMin= 8 EnMin= -2048.74895873909     IErMin= 8 ErrMin= 6.16D-07
 ErrMax= 6.16D-07  0.00D+00 EMaxC= 1.00D-01 BMatC= 3.05D-10 BMatP= 7.92D-10
 IDIUse=1 WtCom= 1.00D+00 WtEn= 0.00D+00
 Coeff-Com: -0.693D-03 0.805D-02 0.199D-01-0.884D-04-0.114D+00-0.941D-01
 Coeff-Com:  0.409D+00 0.772D+00
 Coeff:     -0.693D-03 0.805D-02 0.199D-01-0.884D-04-0.114D+00-0.941D-01
 Coeff:      0.409D+00 0.772D+00
 Gap=     0.280 Goal=   None    Shift=    0.000
 RMSDP=4.72D-08 MaxDP=2.82D-06 DE=-1.33D-09 OVMax= 1.14D-05

 Cycle  14  Pass 1  IDiag  1:
 RMSU=  2.70D-08    CP:  1.00D+00  1.06D+00  7.95D-01  1.45D+00  1.33D+00
                    CP:  1.04D+00  1.27D+00  1.09D+00
 E= -2048.74895873982     Delta-E=       -0.000000000736 Rises=F Damp=F
 DIIS: error= 2.01D-07 at cycle   9 NSaved=   9.
 NSaved= 9 IEnMin= 9 EnMin= -2048.74895873982     IErMin= 9 ErrMin= 2.01D-07
 ErrMax= 2.01D-07  0.00D+00 EMaxC= 1.00D-01 BMatC= 3.10D-11 BMatP= 3.05D-10
 IDIUse=1 WtCom= 1.00D+00 WtEn= 0.00D+00
 Coeff-Com: -0.425D-03 0.433D-02 0.110D-01 0.134D-02-0.552D-01-0.561D-01
 Coeff-Com:  0.842D-01 0.319D+00 0.692D+00
 Coeff:     -0.425D-03 0.433D-02 0.110D-01 0.134D-02-0.552D-01-0.561D-01
 Coeff:      0.842D-01 0.319D+00 0.692D+00
 Gap=     0.280 Goal=   None    Shift=    0.000
 RMSDP=1.29D-08 MaxDP=7.98D-07 DE=-7.36D-10 OVMax= 3.32D-06

 Cycle  15  Pass 1  IDiag  1:
 RMSU=  8.80D-09    CP:  1.00D+00  1.06D+00  7.95D-01  1.45D+00  1.33D+00
                    CP:  1.05D+00  1.30D+00  1.24D+00  1.10D+00
 E= -2048.74895873998     Delta-E=       -0.000000000159 Rises=F Damp=F
 DIIS: error= 6.54D-08 at cycle  10 NSaved=  10.
 NSaved=10 IEnMin=10 EnMin= -2048.74895873998     IErMin=10 ErrMin= 6.54D-08
 ErrMax= 6.54D-08  0.00D+00 EMaxC= 1.00D-01 BMatC= 4.80D-12 BMatP= 3.10D-11
 IDIUse=1 WtCom= 1.00D+00 WtEn= 0.00D+00
 Coeff-Com:  0.111D-04-0.352D-03-0.749D-03 0.838D-04 0.623D-02 0.184D-02
 Coeff-Com: -0.592D-01-0.639D-01 0.248D+00 0.868D+00
 Coeff:      0.111D-04-0.352D-03-0.749D-03 0.838D-04 0.623D-02 0.184D-02
 Coeff:     -0.592D-01-0.639D-01 0.248D+00 0.868D+00
 Gap=     0.280 Goal=   None    Shift=    0.000
 RMSDP=6.97D-09 MaxDP=3.90D-07 DE=-1.59D-10 OVMax= 1.57D-06

 SCF Done:  E(RwB97XD) =  -2048.74895874     A.U. after   15 cycles
            NFock= 15  Conv=0.70D-08     -V/T= 2.0054
 KE= 2.037659232880D+03 PE=-1.569595099733D+04 EE= 6.151972141146D+03
 Leave Link  502 at Thu Jan 25 20:37:53 2018, MaxMem=  4294967296 cpu:           20118.6 elap:             650.4
 (Enter /share/apps/g16/l601.exe)
 Copying SCF densities to generalized density rwf, IOpCl= 0 IROHF=0.

 **********************************************************************

            Population analysis using the SCF density.

 **********************************************************************

 Orbital symmetries:
       Occupied  (A) (A) (A) (A) (A) (A) (A) (A) (A) (A) (A) (A)
                 (A) (A) (A) (A) (A) (A) (A) (A) (A) (A) (A) (A)
                 (A) (A) (A) (A) (A) (A) (A) (A) (A) (A) (A) (A)
                 (A) (A) (A) (A) (A) (A) (A) (A) (A) (A) (A) (A)
                 (A) (A) (A) (A) (A) (A) (A) (A) (A) (A) (A) (A)
                 (A) (A) (A) (A) (A) (A) (A) (A) (A) (A) (A) (A)
                 (A) (A) (A) (A) (A) (A) (A) (A) (A) (A) (A) (A)
                 (A) (A) (A) (A) (A) (A) (A) (A) (A) (A) (A) (A)
                 (A) (A) (A) (A) (A) (A) (A) (A) (A) (A) (A) (A)
                 (A) (A) (A) (A) (A) (A) (A) (A) (A) (A) (A) (A)
                 (A) (A) (A) (A) (A) (A) (A) (A) (A) (A) (A) (A)
                 (A) (A) (A) (A) (A) (A) (A) (A) (A) (A) (A) (A)
                 (A) (A) (A) (A) (A) (A) (A) (A) (A) (A)
       Virtual   (A) (A) (A) (A) (A) (A) (A) (A) (A) (A) (A) (A)
                 (A) (A) (A) (A) (A) (A) (A) (A) (A) (A) (A) (A)
                 (A) (A) (A) (A) (A) (A) (A) (A) (A) (A) (A) (A)
                 (A) (A) (A) (A) (A) (A) (A) (A) (A) (A) (A) (A)
                 (A) (A) (A) (A) (A) (A) (A) (A) (A) (A) (A) (A)
                 (A) (A) (A) (A) (A) (A) (A) (A) (A) (A) (A) (A)
                 (A) (A) (A) (A) (A) (A) (A) (A) (A) (A) (A) (A)
                 (A) (A) (A) (A) (A) (A) (A) (A) (A) (A) (A) (A)
                 (A) (A) (A) (A) (A) (A) (A) (A) (A) (A) (A) (A)
                 (A) (A) (A) (A) (A) (A) (A) (A) (A) (A) (A) (A)
                 (A) (A) (A) (A) (A) (A) (A) (A) (A) (A) (A) (A)
                 (A) (A) (A) (A) (A) (A) (A) (A) (A) (A) (A) (A)
                 (A) (A) (A) (A) (A) (A) (A) (A) (A) (A) (A) (A)
                 (A) (A) (A) (A) (A) (A) (A) (A) (A) (A) (A) (A)
                 (A) (A) (A) (A) (A) (A) (A) (A) (A) (A) (A) (A)
                 (A) (A) (A) (A) (A) (A) (A) (A) (A) (A) (A) (A)
                 (A) (A) (A) (A) (A) (A) (A) (A) (A) (A) (A) (A)
                 (A) (A) (A) (A) (A) (A) (A) (A) (A) (A) (A) (A)
                 (A) (A) (A) (A) (A) (A) (A) (A) (A) (A) (A) (A)
                 (A) (A) (A) (A) (A) (A) (A) (A) (A) (A) (A) (A)
                 (A) (A) (A) (A) (A) (A) (A) (A) (A) (A) (A) (A)
                 (A) (A) (A) (A) (A) (A) (A) (A) (A) (A) (A) (A)
                 (A) (A) (A) (A) (A) (A) (A) (A) (A) (A) (A) (A)
                 (A) (A) (A) (A) (A) (A) (A) (A) (A) (A) (A) (A)
                 (A) (A) (A) (A) (A) (A) (A) (A) (A) (A) (A) (A)
                 (A) (A) (A) (A) (A) (A) (A) (A) (A) (A) (A) (A)
                 (A) (A) (A) (A) (A) (A) (A) (A) (A) (A) (A) (A)
                 (A) (A) (A) (A) (A) (A) (A) (A) (A) (A) (A) (A)
                 (A) (A) (A) (A) (A) (A) (A) (A) (A) (A) (A) (A)
                 (A) (A) (A) (A) (A) (A) (A) (A) (A) (A) (A) (A)
                 (A) (A) (A) (A) (A) (A) (A) (A) (A) (A) (A) (A)
                 (A) (A) (A) (A) (A) (A) (A) (A) (A) (A) (A) (A)
                 (A) (A) (A) (A) (A) (A) (A) (A) (A) (A) (A) (A)
                 (A) (A) (A) (A) (A) (A) (A) (A) (A) (A) (A) (A)
                 (A) (A) (A) (A) (A) (A) (A) (A) (A) (A) (A) (A)
                 (A) (A) (A) (A) (A) (A) (A) (A) (A) (A) (A) (A)
                 (A) (A) (A) (A) (A) (A) (A) (A) (A) (A) (A) (A)
                 (A) (A) (A) (A) (A) (A) (A) (A) (A) (A) (A) (A)
                 (A) (A) (A) (A) (A) (A) (A) (A) (A) (A) (A) (A)
                 (A) (A) (A) (A) (A) (A) (A) (A) (A) (A) (A) (A)
                 (A) (A) (A) (A) (A) (A) (A) (A) (A) (A) (A) (A)
                 (A) (A) (A) (A) (A) (A) (A) (A) (A) (A) (A) (A)
                 (A) (A) (A) (A) (A) (A) (A) (A) (A) (A) (A) (A)
                 (A) (A) (A) (A) (A) (A) (A) (A) (A) (A) (A) (A)
                 (A) (A) (A) (A) (A) (A) (A) (A) (A) (A) (A) (A)
                 (A) (A) (A) (A) (A) (A) (A) (A) (A) (A) (A) (A)
                 (A) (A) (A) (A) (A) (A) (A) (A) (A) (A) (A) (A)
                 (A) (A) (A) (A) (A) (A) (A) (A) (A) (A) (A) (A)
                 (A) (A) (A) (A) (A) (A) (A)
 The electronic state is 1-A.
 Alpha  occ. eigenvalues --  -19.25414 -19.21675 -19.20439 -14.52614 -14.52138
 Alpha  occ. eigenvalues --  -14.48898 -14.48760 -14.48037 -14.47433 -14.46702
 Alpha  occ. eigenvalues --  -14.46350 -14.45595 -14.44759 -14.44718 -14.42445
 Alpha  occ. eigenvalues --  -14.41892 -14.40841 -14.40703 -14.40464 -14.40067
 Alpha  occ. eigenvalues --  -10.45102 -10.41064 -10.40403 -10.39800 -10.38167
 Alpha  occ. eigenvalues --  -10.38082 -10.37739 -10.37469 -10.36134 -10.35249
 Alpha  occ. eigenvalues --  -10.34764 -10.34274 -10.34033 -10.33431 -10.33297
 Alpha  occ. eigenvalues --  -10.32971 -10.32782 -10.32683 -10.31020 -10.30952
 Alpha  occ. eigenvalues --  -10.30214 -10.28021 -10.28012  -1.19041  -1.15382
 Alpha  occ. eigenvalues --   -1.13042  -1.12677  -1.10664  -1.10505  -1.09737
 Alpha  occ. eigenvalues --   -1.09013  -1.08376  -1.05277  -1.04746  -1.02097
 Alpha  occ. eigenvalues --   -1.01188  -1.00220  -0.99491  -0.98416  -0.97269
 Alpha  occ. eigenvalues --   -0.96535  -0.96362  -0.92437  -0.90900  -0.87870
 Alpha  occ. eigenvalues --   -0.86099  -0.84039  -0.83337  -0.83269  -0.82461
 Alpha  occ. eigenvalues --   -0.81725  -0.78645  -0.77351  -0.75170  -0.74514
 Alpha  occ. eigenvalues --   -0.73441  -0.73019  -0.72542  -0.70786  -0.70588
 Alpha  occ. eigenvalues --   -0.67249  -0.67149  -0.66247  -0.65946  -0.64595
 Alpha  occ. eigenvalues --   -0.64283  -0.63614  -0.62518  -0.62386  -0.61575
 Alpha  occ. eigenvalues --   -0.60853  -0.60482  -0.60139  -0.59540  -0.59347
 Alpha  occ. eigenvalues --   -0.59239  -0.58109  -0.56629  -0.56252  -0.55719
 Alpha  occ. eigenvalues --   -0.55603  -0.55532  -0.55252  -0.54581  -0.54091
 Alpha  occ. eigenvalues --   -0.53939  -0.53503  -0.53454  -0.53050  -0.52912
 Alpha  occ. eigenvalues --   -0.52785  -0.52118  -0.51218  -0.50220  -0.50197
 Alpha  occ. eigenvalues --   -0.50004  -0.49701  -0.49568  -0.49142  -0.48667
 Alpha  occ. eigenvalues --   -0.48542  -0.48176  -0.47973  -0.47610  -0.47138
 Alpha  occ. eigenvalues --   -0.46454  -0.45669  -0.45361  -0.44287  -0.43694
 Alpha  occ. eigenvalues --   -0.40995  -0.40802  -0.39088  -0.37999  -0.37870
 Alpha  occ. eigenvalues --   -0.37191  -0.37165  -0.36572  -0.35483  -0.35078
 Alpha  occ. eigenvalues --   -0.34780  -0.33761  -0.33137  -0.33041  -0.32800
 Alpha  occ. eigenvalues --   -0.32521  -0.32386  -0.31835  -0.31771  -0.30479
 Alpha  occ. eigenvalues --   -0.30395  -0.30045  -0.25577  -0.25242
 Alpha virt. eigenvalues --    0.02774   0.04197   0.06465   0.08383   0.08970
 Alpha virt. eigenvalues --    0.09367   0.09905   0.10360   0.11313   0.11348
 Alpha virt. eigenvalues --    0.13021   0.14392   0.14686   0.14945   0.15057
 Alpha virt. eigenvalues --    0.15486   0.16511   0.16938   0.17240   0.17537
 Alpha virt. eigenvalues --    0.18559   0.19676   0.20180   0.20374   0.20577
 Alpha virt. eigenvalues --    0.20740   0.20937   0.21149   0.21305   0.21736
 Alpha virt. eigenvalues --    0.22021   0.23051   0.23664   0.23732   0.23901
 Alpha virt. eigenvalues --    0.24343   0.24546   0.24660   0.24712   0.25093
 Alpha virt. eigenvalues --    0.25268   0.25761   0.27372   0.27847   0.28209
 Alpha virt. eigenvalues --    0.29068   0.29126   0.29549   0.30478   0.30928
 Alpha virt. eigenvalues --    0.31603   0.31894   0.32297   0.33342   0.33493
 Alpha virt. eigenvalues --    0.33679   0.34439   0.34831   0.35872   0.36142
 Alpha virt. eigenvalues --    0.36789   0.37130   0.37811   0.38704   0.39158
 Alpha virt. eigenvalues --    0.39546   0.40184   0.40626   0.41485   0.41864
 Alpha virt. eigenvalues --    0.42027   0.42755   0.43357   0.43954   0.44128
 Alpha virt. eigenvalues --    0.44487   0.45534   0.45748   0.46535   0.47132
 Alpha virt. eigenvalues --    0.47506   0.47708   0.48544   0.48834   0.49122
 Alpha virt. eigenvalues --    0.49939   0.50207   0.50590   0.50801   0.51207
 Alpha virt. eigenvalues --    0.51265   0.51762   0.52356   0.52885   0.53382
 Alpha virt. eigenvalues --    0.53914   0.54093   0.54423   0.54912   0.55377
 Alpha virt. eigenvalues --    0.55825   0.56250   0.56550   0.57263   0.57478
 Alpha virt. eigenvalues --    0.57616   0.58207   0.58433   0.59265   0.59518
 Alpha virt. eigenvalues --    0.60023   0.60217   0.60325   0.60571   0.61159
 Alpha virt. eigenvalues --    0.61230   0.61864   0.62144   0.62605   0.62810
 Alpha virt. eigenvalues --    0.63012   0.63498   0.63890   0.65208   0.65376
 Alpha virt. eigenvalues --    0.65994   0.66174   0.66491   0.66823   0.67021
 Alpha virt. eigenvalues --    0.67150   0.67399   0.67894   0.68115   0.68986
 Alpha virt. eigenvalues --    0.69724   0.70017   0.70472   0.70983   0.71545
 Alpha virt. eigenvalues --    0.71800   0.72403   0.72916   0.73042   0.73604
 Alpha virt. eigenvalues --    0.73984   0.74176   0.74604   0.74710   0.75109
 Alpha virt. eigenvalues --    0.75657   0.76002   0.76277   0.76361   0.76753
 Alpha virt. eigenvalues --    0.77308   0.77660   0.77989   0.78684   0.79193
 Alpha virt. eigenvalues --    0.79308   0.79753   0.80200   0.80530   0.80611
 Alpha virt. eigenvalues --    0.80811   0.81203   0.81669   0.82440   0.82689
 Alpha virt. eigenvalues --    0.83246   0.83673   0.84413   0.84639   0.84948
 Alpha virt. eigenvalues --    0.85492   0.85952   0.86226   0.86760   0.87535
 Alpha virt. eigenvalues --    0.87780   0.88131   0.88388   0.89332   0.89621
 Alpha virt. eigenvalues --    0.90183   0.90781   0.91456   0.91668   0.92022
 Alpha virt. eigenvalues --    0.92474   0.92594   0.92842   0.93233   0.94047
 Alpha virt. eigenvalues --    0.94293   0.94929   0.95212   0.95647   0.96117
 Alpha virt. eigenvalues --    0.96853   0.97167   0.98138   0.98276   0.98614
 Alpha virt. eigenvalues --    0.99369   0.99456   0.99975   1.00289   1.00691
 Alpha virt. eigenvalues --    1.00973   1.01289   1.01704   1.02253   1.02384
 Alpha virt. eigenvalues --    1.03044   1.03380   1.04086   1.04653   1.04966
 Alpha virt. eigenvalues --    1.05628   1.05654   1.06371   1.06496   1.07072
 Alpha virt. eigenvalues --    1.07699   1.08387   1.09154   1.09712   1.09954
 Alpha virt. eigenvalues --    1.10680   1.11056   1.11615   1.12751   1.13061
 Alpha virt. eigenvalues --    1.13400   1.14020   1.14430   1.14767   1.15446
 Alpha virt. eigenvalues --    1.15688   1.16024   1.16675   1.17209   1.17526
 Alpha virt. eigenvalues --    1.17663   1.18183   1.18320   1.19099   1.19664
 Alpha virt. eigenvalues --    1.19926   1.20070   1.20401   1.20520   1.21097
 Alpha virt. eigenvalues --    1.21639   1.21719   1.22638   1.22764   1.23066
 Alpha virt. eigenvalues --    1.23565   1.23750   1.24055   1.24454   1.24823
 Alpha virt. eigenvalues --    1.25095   1.25412   1.26987   1.27439   1.27527
 Alpha virt. eigenvalues --    1.28046   1.28361   1.29122   1.29687   1.30483
 Alpha virt. eigenvalues --    1.31097   1.31978   1.32222   1.32618   1.33153
 Alpha virt. eigenvalues --    1.33826   1.34287   1.34718   1.35682   1.36065
 Alpha virt. eigenvalues --    1.36304   1.37481   1.38369   1.38646   1.40094
 Alpha virt. eigenvalues --    1.40936   1.41382   1.42242   1.43035   1.43236
 Alpha virt. eigenvalues --    1.44092   1.45386   1.45755   1.46336   1.48101
 Alpha virt. eigenvalues --    1.48263   1.48729   1.49670   1.49876   1.50550
 Alpha virt. eigenvalues --    1.50778   1.51686   1.52575   1.53228   1.54248
 Alpha virt. eigenvalues --    1.54451   1.55316   1.56061   1.56639   1.56896
 Alpha virt. eigenvalues --    1.58133   1.58411   1.58535   1.59398   1.59728
 Alpha virt. eigenvalues --    1.61173   1.61871   1.62143   1.62365   1.63171
 Alpha virt. eigenvalues --    1.63556   1.63872   1.64648   1.65595   1.65867
 Alpha virt. eigenvalues --    1.65941   1.66836   1.67423   1.68380   1.68633
 Alpha virt. eigenvalues --    1.69198   1.69450   1.69732   1.70094   1.71206
 Alpha virt. eigenvalues --    1.71361   1.72003   1.72603   1.72729   1.73463
 Alpha virt. eigenvalues --    1.73894   1.74511   1.74618   1.74896   1.75299
 Alpha virt. eigenvalues --    1.75757   1.75868   1.76265   1.76283   1.76731
 Alpha virt. eigenvalues --    1.77108   1.77196   1.77525   1.77925   1.78302
 Alpha virt. eigenvalues --    1.78814   1.79019   1.79415   1.79786   1.80099
 Alpha virt. eigenvalues --    1.80455   1.80777   1.81041   1.81482   1.81740
 Alpha virt. eigenvalues --    1.82237   1.82413   1.82734   1.83530   1.84142
 Alpha virt. eigenvalues --    1.84537   1.84862   1.85370   1.85685   1.86349
 Alpha virt. eigenvalues --    1.86844   1.87519   1.87695   1.88566   1.88672
 Alpha virt. eigenvalues --    1.88879   1.89296   1.89439   1.90385   1.90882
 Alpha virt. eigenvalues --    1.91650   1.92025   1.92174   1.92898   1.93272
 Alpha virt. eigenvalues --    1.94000   1.94310   1.95110   1.96013   1.96915
 Alpha virt. eigenvalues --    1.97219   1.98510   1.98978   1.99875   2.00154
 Alpha virt. eigenvalues --    2.01346   2.02346   2.02525   2.02727   2.03054
 Alpha virt. eigenvalues --    2.03483   2.04136   2.05067   2.06153   2.06403
 Alpha virt. eigenvalues --    2.06812   2.07859   2.08325   2.08697   2.09443
 Alpha virt. eigenvalues --    2.09709   2.10332   2.10889   2.12169   2.12294
 Alpha virt. eigenvalues --    2.13387   2.14267   2.14873   2.15596   2.16462
 Alpha virt. eigenvalues --    2.17473   2.18705   2.19069   2.20263   2.20855
 Alpha virt. eigenvalues --    2.21403   2.21854   2.22616   2.22937   2.23355
 Alpha virt. eigenvalues --    2.24307   2.24430   2.25365   2.25539   2.26257
 Alpha virt. eigenvalues --    2.26746   2.27692   2.27990   2.29113   2.29702
 Alpha virt. eigenvalues --    2.30276   2.30381   2.31173   2.31635   2.31914
 Alpha virt. eigenvalues --    2.32604   2.33144   2.33774   2.34038   2.34340
 Alpha virt. eigenvalues --    2.34864   2.35453   2.35710   2.36198   2.37089
 Alpha virt. eigenvalues --    2.37596   2.37859   2.39315   2.40071   2.40145
 Alpha virt. eigenvalues --    2.41769   2.42033   2.42734   2.43194   2.43797
 Alpha virt. eigenvalues --    2.44098   2.44720   2.45245   2.45372   2.45978
 Alpha virt. eigenvalues --    2.47058   2.47897   2.49554   2.50775   2.51600
 Alpha virt. eigenvalues --    2.52382   2.52486   2.54552   2.55202   2.55896
 Alpha virt. eigenvalues --    2.56720   2.56847   2.57718   2.58452   2.59893
 Alpha virt. eigenvalues --    2.60848   2.61656   2.62275   2.62664   2.63294
 Alpha virt. eigenvalues --    2.63613   2.64273   2.64863   2.65234   2.65575
 Alpha virt. eigenvalues --    2.65964   2.66691   2.67971   2.68131   2.68686
 Alpha virt. eigenvalues --    2.69149   2.69753   2.70590   2.71038   2.71908
 Alpha virt. eigenvalues --    2.72330   2.74623   2.74747   2.75544   2.76298
 Alpha virt. eigenvalues --    2.76598   2.76989   2.78054   2.78846   2.79312
 Alpha virt. eigenvalues --    2.79486   2.79948   2.80365   2.80571   2.80836
 Alpha virt. eigenvalues --    2.81680   2.82066   2.82334   2.83540   2.83647
 Alpha virt. eigenvalues --    2.84220   2.85177   2.86056   2.86519   2.86991
 Alpha virt. eigenvalues --    2.87412   2.88070   2.89117   2.91206   2.92947
 Alpha virt. eigenvalues --    2.94006   2.94445   2.95759   2.96877   2.98634
 Alpha virt. eigenvalues --    2.99923   3.00837   3.01016   3.03785   3.04803
 Alpha virt. eigenvalues --    3.06244   3.08529   3.10453   3.12533   3.14976
 Alpha virt. eigenvalues --    3.15449   3.15884   3.16954   3.17661   3.19738
 Alpha virt. eigenvalues --    3.20341   3.22703   3.23772   3.24630   3.25332
 Alpha virt. eigenvalues --    3.43928   3.47382   3.47440   3.49191   3.50531
 Alpha virt. eigenvalues --    3.53553   3.54460   3.56350   3.57819   3.60214
 Alpha virt. eigenvalues --    3.63433   3.70808   3.74939
          Condensed to atoms (all electrons):
 Mulliken charges:
               1
     1  N   -0.313320
     2  C    0.183499
     3  C    0.051774
     4  N   -0.258915
     5  C    0.140468
     6  H    0.025989
     7  N   -0.297657
     8  C    0.133908
     9  H    0.010840
    10  N   -0.282836
    11  C    0.262295
    12  C    0.102991
    13  N   -0.068026
    14  H    0.112147
    15  H    0.080754
    16  H    0.021325
    17  H    0.032011
    18  H    0.029529
    19  N   -0.310764
    20  C    0.250104
    21  C    0.180669
    22  N   -0.111272
    23  H    0.113134
    24  H    0.115013
    25  N   -0.311271
    26  C    0.239389
    27  N   -0.143340
    28  H    0.116398
    29  C    0.192067
    30  O   -0.322553
    31  C   -0.015478
    32  N   -0.227050
    33  C    0.128997
    34  H    0.021897
    35  H    0.028133
    36  H    0.028911
    37  H    0.024428
    38  H    0.055755
    39  H    0.060162
    40  H    0.074628
    41  H    0.029348
    42  C   -0.117513
    43  O   -0.259922
    44  C    0.172548
    45  H    0.133449
    46  N   -0.126762
    47  O   -0.345704
    48  C    0.348466
    49  H    0.042800
    50  C    0.161131
    51  C    0.038736
    52  N   -0.280020
    53  H    0.035142
    54  H    0.038847
    55  H    0.030054
    56  H    0.118003
    57  H    0.117711
    58  N   -0.060212
    59  C    0.084093
    60  C    0.254223
    61  N   -0.276500
    62  H    0.036394
    63  C    0.176164
    64  N   -0.312313
    65  H    0.039492
    66  C    0.140153
    67  N   -0.263723
    68  C    0.025181
    69  C    0.179966
    70  N   -0.313962
 Sum of Mulliken charges =  -0.00000
 Mulliken charges with hydrogens summed into heavy atoms:
               1
     1  N   -0.313320
     2  C    0.266363
     3  C    0.051774
     4  N   -0.258915
     5  C    0.166457
     7  N   -0.297657
     8  C    0.144748
    10  N   -0.282836
    11  C    0.262295
    12  C    0.102991
    13  N    0.124874
    19  N   -0.310764
    20  C    0.250104
    21  C    0.262141
    22  N    0.116874
    25  N   -0.311271
    26  C    0.239389
    27  N   -0.026942
    29  C    0.192067
    30  O   -0.322553
    31  C   -0.015478
    32  N   -0.227050
    33  C    0.150894
    42  C   -0.088165
    43  O   -0.259922
    44  C    0.172548
    46  N    0.006687
    47  O   -0.345704
    48  C    0.348466
    50  C    0.203931
    51  C    0.229281
    52  N   -0.280020
    58  N    0.175502
    59  C    0.084093
    60  C    0.254223
    61  N   -0.276500
    63  C    0.212558
    64  N   -0.312313
    66  C    0.179645
    67  N   -0.263723
    68  C    0.025181
    69  C    0.284010
    70  N   -0.313962
 Electronic spatial extent (au):  <R**2>=          22120.8705
 Charge=             -0.0000 electrons
 Dipole moment (field-independent basis, Debye):
    X=             -9.0164    Y=              5.7884    Z=             -1.1334  Tot=             10.7743
 Quadrupole moment (field-independent basis, Debye-Ang):
   XX=           -167.3154   YY=           -211.4764   ZZ=           -252.0552
   XY=              6.2626   XZ=            -12.2789   YZ=              5.0694
 Traceless Quadrupole moment (field-independent basis, Debye-Ang):
   XX=             42.9669   YY=             -1.1941   ZZ=            -41.7728
   XY=              6.2626   XZ=            -12.2789   YZ=              5.0694
 Octapole moment (field-independent basis, Debye-Ang**2):
  XXX=             66.0704  YYY=            150.6872  ZZZ=             17.4187  XYY=            -91.8099
  XXY=             66.7802  XXZ=            -28.2645  XZZ=            -49.5155  YZZ=             13.5494
  YYZ=            -34.6546  XYZ=             79.5011
 Hexadecapole moment (field-independent basis, Debye-Ang**3):
 XXXX=         -14766.4668 YYYY=          -6982.8886 ZZZZ=          -3849.4667 XXXY=           -500.2425
 XXXZ=           -284.9234 YYYX=            155.4811 YYYZ=             38.2521 ZZZX=            -61.2563
 ZZZY=            -31.0339 XXYY=          -2912.0106 XXZZ=          -3484.3076 YYZZ=          -1884.2927
 XXYZ=            -38.5934 YYXZ=             92.1640 ZZXY=            -23.1646
 N-N= 5.457570664562D+03 E-N=-1.569595099214D+04  KE= 2.037659232880D+03
 No NMR shielding tensors so no spin-rotation constants.
 Leave Link  601 at Thu Jan 25 20:37:55 2018, MaxMem=  4294967296 cpu:              49.3 elap:               1.7
 (Enter /share/apps/g16/l9999.exe)
 1\1\GINC-COMPUTE-0-3\SP\RwB97XD\CC-pVDZ\C23H27N17O3\SATYA\25-Jan-2018\
 0\\#p wb97xd/cc-pvdz sp scf=(maxcycles=20)\\Base pair stacking\\0,1\N,
 0,3.64239,-2.1963,-6.47105\C,0,5.01439,-1.66237,-6.57363\C,0,1.45205,-
 2.37282,-6.3785\N,0,1.95066,-3.66198,-6.25948\C,0,3.2503,-3.50404,-6.3
 2\H,0,3.97689,-4.31479,-6.25909\N,0,-0.00883,-0.52682,-6.52372\C,0,1.0
 8524,0.23273,-6.6407\H,0,0.9006,1.30084,-6.74702\N,0,2.36712,-0.12735,
 -6.64602\C,0,2.4829,-1.45867,-6.50964\C,0,0.14114,-1.86255,-6.38803\N,
 0,-0.94978,-2.62242,-6.27112\H,0,-0.8861,-3.61572,-6.1686\H,0,-1.8674,
 -2.22494,-6.28203\H,0,5.47114,-2.06353,-7.36775\H,0,4.97933,-0.66881,-
 6.67715\H,0,5.5263,-1.89169,-5.74576\N,0,2.41039,2.50891,-3.26456\C,0,
 1.14405,1.97558,-3.26328\C,0,2.73086,3.94719,-3.36129\N,0,-2.29986,2.4
 0324,-3.39872\H,0,-3.11605,1.8264,-3.38065\H,0,-2.44342,3.39022,-3.476
 05\N,0,-0.01095,2.67027,-3.34948\C,0,-1.06778,1.87778,-3.32272\N,0,-1.
 00078,0.50944,-3.21948\H,0,-1.86096,-0.01675,-3.20649\C,0,0.17665,-0.2
 2639,-3.12957\O,0,0.12693,-1.45936,-3.03986\C,0,1.32053,0.61126,-3.157
 05\N,0,2.67049,0.29444,-3.09292\C,0,3.27708,1.44846,-3.16\H,0,4.35899,
 1.58353,-3.13738\H,0,3.28649,4.11256,-4.17537\H,0,1.88299,4.47182,-3.4
 2565\H,0,3.23746,4.2329,-2.54855\H,0,-6.45761,-2.09511,-3.84208\H,0,-6
 .41079,-2.22932,-2.08582\H,0,-5.5891,-0.89122,-2.88935\H,0,-3.61042,-5
 .93903,-3.32784\C,0,-3.55362,-4.8535,-3.2464\O,0,-1.18305,-4.78903,-3.
 30466\C,0,-2.27123,-4.21859,-3.23206\H,0,-1.4256,-2.35877,-3.11248\N,0
 ,-2.31221,-2.84299,-3.12585\O,0,-3.36603,-0.83953,-2.94466\C,0,-3.4307
 5,-2.05287,-3.03565\H,0,-5.66157,-4.54374,-3.16654\C,0,-4.66262,-4.109
 69,-3.16\C,0,-5.85219,-1.93602,-2.96218\N,0,-4.62944,-2.73839,-3.05609
 \H,0,-6.99691,3.17923,-6.86174\H,0,-5.67855,3.1438,-5.90113\H,0,-7.169
 72,3.05032,-5.24405\H,0,-4.443,-3.76675,-6.31721\H,0,-6.10291,-3.40205
 ,-6.46493\N,0,-5.16544,-3.07556,-6.33931\C,0,-4.89193,-1.77597,-6.2072
 4\C,0,-5.43246,0.53784,-6.08142\N,0,-4.16413,0.9474,-5.91402\H,0,-2.28
 097,0.15024,-5.77681\C,0,-3.33426,-0.09384,-5.90822\N,0,-3.60625,-1.39
 62,-6.04035\H,0,-8.63834,0.80663,-6.40123\C,0,-7.61055,0.45167,-6.32\N
 ,0,-7.24973,-0.80679,-6.38132\C,0,-5.87111,-0.76624,-6.23142\C,0,-6.60
 512,2.79085,-6.02768\N,0,-6.5616,1.31993,-6.13959\\Version=EM64L-G16Re
 vA.03\State=1-A\HF=-2048.7489587\RMSD=6.970e-09\Dipole=-3.7218733,2.01
 18447,-0.2620666\Quadrupole=31.1727169,-1.030891,-30.1418259,8.2976305
 ,-7.5868159,6.7119644\PG=C01 [X(C23H27N17O3)]\\@


 THE ATTENTION SPAN OF A COMPUTER IS AS LONG
 AS ITS EXTENSION CORD.
 Job cpu time:       0 days  5 hours 45 minutes 33.8 seconds.
 Elapsed time:       0 days  0 hours 11 minutes 10.1 seconds.
 File lengths (MBytes):  RWF=    298 Int=      0 D2E=      0 Chk=     33 Scr=      1
 Normal termination of Gaussian 16 at Thu Jan 25 20:37:55 2018.
