 Entering Gaussian System, Link 0=g16
 Input=str55.-15.-1.5.com
 Output=str55.-15.-1.5.log
 Initial command:
 /share/apps/g16/l1.exe "/state/partition1/scr/Gau-21290.inp" -scrdir="/state/partition1/scr/"
 Entering Link 1 = /share/apps/g16/l1.exe PID=     21291.
  
 Copyright (c) 1988,1990,1992,1993,1995,1998,2003,2009,2016,
            Gaussian, Inc.  All Rights Reserved.
  
 This is part of the Gaussian(R) 16 program.  It is based on
 the Gaussian(R) 09 system (copyright 2009, Gaussian, Inc.),
 the Gaussian(R) 03 system (copyright 2003, Gaussian, Inc.),
 the Gaussian(R) 98 system (copyright 1998, Gaussian, Inc.),
 the Gaussian(R) 94 system (copyright 1995, Gaussian, Inc.),
 the Gaussian 92(TM) system (copyright 1992, Gaussian, Inc.),
 the Gaussian 90(TM) system (copyright 1990, Gaussian, Inc.),
 the Gaussian 88(TM) system (copyright 1988, Gaussian, Inc.),
 the Gaussian 86(TM) system (copyright 1986, Carnegie Mellon
 University), and the Gaussian 82(TM) system (copyright 1983,
 Carnegie Mellon University). Gaussian is a federally registered
 trademark of Gaussian, Inc.
  
 This software contains proprietary and confidential information,
 including trade secrets, belonging to Gaussian, Inc.
  
 This software is provided under written license and may be
 used, copied, transmitted, or stored only in accord with that
 written license.
  
 The following legend is applicable only to US Government
 contracts under FAR:
  
                    RESTRICTED RIGHTS LEGEND
  
 Use, reproduction and disclosure by the US Government is
 subject to restrictions as set forth in subparagraphs (a)
 and (c) of the Commercial Computer Software - Restricted
 Rights clause in FAR 52.227-19.
  
 Gaussian, Inc.
 340 Quinnipiac St., Bldg. 40, Wallingford CT 06492
  
  
 ---------------------------------------------------------------
 Warning -- This program may not be used in any manner that
 competes with the business of Gaussian, Inc. or will provide
 assistance to any competitor of Gaussian, Inc.  The licensee
 of this program is prohibited from giving any competitor of
 Gaussian, Inc. access to this program.  By using this program,
 the user acknowledges that Gaussian, Inc. is engaged in the
 business of creating and licensing software in the field of
 computational chemistry and represents and warrants to the
 licensee that it is not a competitor of Gaussian, Inc. and that
 it will not use this program in any manner prohibited above.
 ---------------------------------------------------------------
  

 Cite this work as:
 Gaussian 16, Revision A.03,
 M. J. Frisch, G. W. Trucks, H. B. Schlegel, G. E. Scuseria, 
 M. A. Robb, J. R. Cheeseman, G. Scalmani, V. Barone, 
 G. A. Petersson, H. Nakatsuji, X. Li, M. Caricato, A. V. Marenich, 
 J. Bloino, B. G. Janesko, R. Gomperts, B. Mennucci, H. P. Hratchian, 
 J. V. Ortiz, A. F. Izmaylov, J. L. Sonnenberg, D. Williams-Young, 
 F. Ding, F. Lipparini, F. Egidi, J. Goings, B. Peng, A. Petrone, 
 T. Henderson, D. Ranasinghe, V. G. Zakrzewski, J. Gao, N. Rega, 
 G. Zheng, W. Liang, M. Hada, M. Ehara, K. Toyota, R. Fukuda, 
 J. Hasegawa, M. Ishida, T. Nakajima, Y. Honda, O. Kitao, H. Nakai, 
 T. Vreven, K. Throssell, J. A. Montgomery, Jr., J. E. Peralta, 
 F. Ogliaro, M. J. Bearpark, J. J. Heyd, E. N. Brothers, K. N. Kudin, 
 V. N. Staroverov, T. A. Keith, R. Kobayashi, J. Normand, 
 K. Raghavachari, A. P. Rendell, J. C. Burant, S. S. Iyengar, 
 J. Tomasi, M. Cossi, J. M. Millam, M. Klene, C. Adamo, R. Cammi, 
 J. W. Ochterski, R. L. Martin, K. Morokuma, O. Farkas, 
 J. B. Foresman, and D. J. Fox, Gaussian, Inc., Wallingford CT, 2016.
 
 ******************************************
 Gaussian 16:  EM64L-G16RevA.03 25-Dec-2016
                26-Jan-2018 
 ******************************************
 %nprocshared=32
 Will use up to   32 processors via shared memory.
 %mem=32GB
 %chk=allatoms_t.chk
 ---------------------------------------
 #p wb97xd/cc-pvdz sp scf=(maxcycles=20)
 ---------------------------------------
 1/38=1,172=1/1;
 2/12=2,17=6,18=5,40=1/2;
 3/5=16,11=2,25=1,30=1,74=-58/1,2,3;
 4//1;
 5/5=2,7=20,38=5/2;
 6/7=2,8=2,9=2,10=2,28=1/1;
 99/5=1,9=1/99;
 Leave Link    1 at Fri Jan 26 05:06:01 2018, MaxMem=  4294967296 cpu:               2.7 elap:               0.1
 (Enter /share/apps/g16/l101.exe)
 ------------------
 Base pair stacking
 ------------------
 Symbolic Z-matrix:
 Charge =  0 Multiplicity = 1
 N                     6.40604   1.64331  -8.27603 
 C                     7.75641   2.18646  -8.51994 
 C                     4.28447   1.43754  -7.73391 
 N                     4.70011   0.18361  -8.15772 
 C                     5.96165   0.35776  -8.46737 
 H                     6.6214   -0.42459  -8.84365 
 N                     2.9689    3.22182  -6.92858 
 C                     4.06261   3.98155  -7.04764 
 H                     3.93861   5.02392  -6.75721 
 N                     5.28078   3.64855  -7.46963 
 C                     5.32504   2.34759  -7.80125 
 C                     3.04591   1.91706  -7.27027 
 N                     1.95521   1.15707  -7.15211 
 H                     1.96634   0.18607  -7.3935 
 H                     1.09027   1.53215  -6.81846 
 H                     7.99373   2.07255  -9.48476 
 H                     7.77291   3.15815  -8.2861 
 H                     8.42146   1.69807  -7.95498 
 N                     3.35327   5.16051  -3.55365 
 C                     2.10441   4.62497  -3.34972 
 C                     3.67304   6.60217  -3.56149 
 N                    -1.28661   5.05066  -2.73203 
 H                    -2.09221   4.47189  -2.60843 
 H                    -1.4252    6.03966  -2.67374 
 N                     0.96872   5.32018  -3.12405 
 C                    -0.07451   4.5251   -2.96552 
 N                    -0.01243   3.15385  -3.02321 
 H                    -0.86121   2.62579  -2.89019 
 C                     1.14523   2.41741  -3.25419 
 O                     1.09273   1.18173  -3.28689 
 C                     2.27434   3.25784  -3.42645 
 N                     3.60314   2.94146  -3.67358 
 C                     4.20393   4.09848  -3.74109 
 H                     5.26999   4.23476  -3.92609 
 H                     4.054     6.85596  -4.44989 
 H                     2.83939   7.12722  -3.39534 
 H                     4.33966   6.80133  -2.84402 
 H                    -5.52744   0.60872  -2.78804 
 H                    -5.12615   0.28755  -1.10267 
 H                    -4.46157   1.70728  -1.91142 
 H                    -2.70459  -3.25656  -3.27568 
 C                    -2.61293  -2.18575  -3.09345 
 O                    -0.3032   -2.10578  -3.62816 
 C                    -1.34335  -1.55082  -3.27474 
 H                    -0.45789   0.28895  -3.13498 
 N                    -1.33716  -0.19465  -3.01778 
 O                    -2.29585   1.77362  -2.41444 
 C                    -2.3995    0.57673  -2.61784 
 H                    -4.65448  -1.89489  -2.55193 
 C                    -3.66754  -1.45997  -2.70404 
 C                    -4.75267   0.67521  -2.03878 
 N                    -3.5893   -0.10754  -2.46494 
 H                    -3.62447   6.80347  -4.40238 
 H                    -2.13157   6.45725  -3.84246 
 H                    -3.44159   6.14571  -2.92004 
 H                    -1.53544   0.07883  -6.74346 
 H                    -3.15482   0.46536  -6.37157 
 N                    -2.19138   0.73554  -6.37114 
 C                    -1.79977   1.91922  -5.89499 
 C                    -2.12567   4.05883  -4.90627 
 N                    -0.82515   4.39487  -4.91839 
 H                     0.97686   3.60459  -5.49185 
 C                    -0.09435   3.41365  -5.44381 
 N                    -0.4847    2.22738  -5.92127 
 H                    -5.29326   4.40578  -4.36019 
 C                    -4.30241   4.04797  -4.6415 
 N                    -4.05861   2.88215  -5.18842 
 C                    -2.68212   2.8762   -5.36154 
 C                    -3.08659   6.16245  -3.85485 
 N                    -3.17824   4.81167  -4.44222 
 
 ITRead=  0  0  0  0  0  0  0  0  0  0  0  0  0  0  0  0  0  0  0  0
 ITRead=  0  0  0  0  0  0  0  0  0  0  0  0  0  0  0  0  0  0  0  0
 ITRead=  0  0  0  0  0  0  0  0  0  0  0  0  0  0  0  0  0  0  0  0
 ITRead=  0  0  0  0  0  0  0  0  0  0
 MicOpt= -1 -1 -1 -1 -1 -1 -1 -1 -1 -1 -1 -1 -1 -1 -1 -1 -1 -1 -1 -1
 MicOpt= -1 -1 -1 -1 -1 -1 -1 -1 -1 -1 -1 -1 -1 -1 -1 -1 -1 -1 -1 -1
 MicOpt= -1 -1 -1 -1 -1 -1 -1 -1 -1 -1 -1 -1 -1 -1 -1 -1 -1 -1 -1 -1
 MicOpt= -1 -1 -1 -1 -1 -1 -1 -1 -1 -1
 NAtoms=     70 NQM=       70 NQMF=       0 NMMI=      0 NMMIF=      0
                NMic=       0 NMicF=      0.
                    Isotopes and Nuclear Properties:
 (Nuclear quadrupole moments (NQMom) in fm**2, nuclear magnetic moments (NMagM)
  in nuclear magnetons)

  Atom         1           2           3           4           5           6           7           8           9          10
 IAtWgt=          14          12          12          14          12           1          14          12           1          14
 AtmWgt=  14.0030740  12.0000000  12.0000000  14.0030740  12.0000000   1.0078250  14.0030740  12.0000000   1.0078250  14.0030740
 NucSpn=           2           0           0           2           0           1           2           0           1           2
 AtZEff=  -0.0000000  -0.0000000  -0.0000000  -0.0000000  -0.0000000  -0.0000000  -0.0000000  -0.0000000  -0.0000000  -0.0000000
 NQMom=    2.0440000   0.0000000   0.0000000   2.0440000   0.0000000   0.0000000   2.0440000   0.0000000   0.0000000   2.0440000
 NMagM=    0.4037610   0.0000000   0.0000000   0.4037610   0.0000000   2.7928460   0.4037610   0.0000000   2.7928460   0.4037610
 AtZNuc=   7.0000000   6.0000000   6.0000000   7.0000000   6.0000000   1.0000000   7.0000000   6.0000000   1.0000000   7.0000000

  Atom        11          12          13          14          15          16          17          18          19          20
 IAtWgt=          12          12          14           1           1           1           1           1          14          12
 AtmWgt=  12.0000000  12.0000000  14.0030740   1.0078250   1.0078250   1.0078250   1.0078250   1.0078250  14.0030740  12.0000000
 NucSpn=           0           0           2           1           1           1           1           1           2           0
 AtZEff=  -0.0000000  -0.0000000  -0.0000000  -0.0000000  -0.0000000  -0.0000000  -0.0000000  -0.0000000  -0.0000000  -0.0000000
 NQMom=    0.0000000   0.0000000   2.0440000   0.0000000   0.0000000   0.0000000   0.0000000   0.0000000   2.0440000   0.0000000
 NMagM=    0.0000000   0.0000000   0.4037610   2.7928460   2.7928460   2.7928460   2.7928460   2.7928460   0.4037610   0.0000000
 AtZNuc=   6.0000000   6.0000000   7.0000000   1.0000000   1.0000000   1.0000000   1.0000000   1.0000000   7.0000000   6.0000000

  Atom        21          22          23          24          25          26          27          28          29          30
 IAtWgt=          12          14           1           1          14          12          14           1          12          16
 AtmWgt=  12.0000000  14.0030740   1.0078250   1.0078250  14.0030740  12.0000000  14.0030740   1.0078250  12.0000000  15.9949146
 NucSpn=           0           2           1           1           2           0           2           1           0           0
 AtZEff=  -0.0000000  -0.0000000  -0.0000000  -0.0000000  -0.0000000  -0.0000000  -0.0000000  -0.0000000  -0.0000000  -0.0000000
 NQMom=    0.0000000   2.0440000   0.0000000   0.0000000   2.0440000   0.0000000   2.0440000   0.0000000   0.0000000   0.0000000
 NMagM=    0.0000000   0.4037610   2.7928460   2.7928460   0.4037610   0.0000000   0.4037610   2.7928460   0.0000000   0.0000000
 AtZNuc=   6.0000000   7.0000000   1.0000000   1.0000000   7.0000000   6.0000000   7.0000000   1.0000000   6.0000000   8.0000000

  Atom        31          32          33          34          35          36          37          38          39          40
 IAtWgt=          12          14          12           1           1           1           1           1           1           1
 AtmWgt=  12.0000000  14.0030740  12.0000000   1.0078250   1.0078250   1.0078250   1.0078250   1.0078250   1.0078250   1.0078250
 NucSpn=           0           2           0           1           1           1           1           1           1           1
 AtZEff=  -0.0000000  -0.0000000  -0.0000000  -0.0000000  -0.0000000  -0.0000000  -0.0000000  -0.0000000  -0.0000000  -0.0000000
 NQMom=    0.0000000   2.0440000   0.0000000   0.0000000   0.0000000   0.0000000   0.0000000   0.0000000   0.0000000   0.0000000
 NMagM=    0.0000000   0.4037610   0.0000000   2.7928460   2.7928460   2.7928460   2.7928460   2.7928460   2.7928460   2.7928460
 AtZNuc=   6.0000000   7.0000000   6.0000000   1.0000000   1.0000000   1.0000000   1.0000000   1.0000000   1.0000000   1.0000000

  Atom        41          42          43          44          45          46          47          48          49          50
 IAtWgt=           1          12          16          12           1          14          16          12           1          12
 AtmWgt=   1.0078250  12.0000000  15.9949146  12.0000000   1.0078250  14.0030740  15.9949146  12.0000000   1.0078250  12.0000000
 NucSpn=           1           0           0           0           1           2           0           0           1           0
 AtZEff=  -0.0000000  -0.0000000  -0.0000000  -0.0000000  -0.0000000  -0.0000000  -0.0000000  -0.0000000  -0.0000000  -0.0000000
 NQMom=    0.0000000   0.0000000   0.0000000   0.0000000   0.0000000   2.0440000   0.0000000   0.0000000   0.0000000   0.0000000
 NMagM=    2.7928460   0.0000000   0.0000000   0.0000000   2.7928460   0.4037610   0.0000000   0.0000000   2.7928460   0.0000000
 AtZNuc=   1.0000000   6.0000000   8.0000000   6.0000000   1.0000000   7.0000000   8.0000000   6.0000000   1.0000000   6.0000000

  Atom        51          52          53          54          55          56          57          58          59          60
 IAtWgt=          12          14           1           1           1           1           1          14          12          12
 AtmWgt=  12.0000000  14.0030740   1.0078250   1.0078250   1.0078250   1.0078250   1.0078250  14.0030740  12.0000000  12.0000000
 NucSpn=           0           2           1           1           1           1           1           2           0           0
 AtZEff=  -0.0000000  -0.0000000  -0.0000000  -0.0000000  -0.0000000  -0.0000000  -0.0000000  -0.0000000  -0.0000000  -0.0000000
 NQMom=    0.0000000   2.0440000   0.0000000   0.0000000   0.0000000   0.0000000   0.0000000   2.0440000   0.0000000   0.0000000
 NMagM=    0.0000000   0.4037610   2.7928460   2.7928460   2.7928460   2.7928460   2.7928460   0.4037610   0.0000000   0.0000000
 AtZNuc=   6.0000000   7.0000000   1.0000000   1.0000000   1.0000000   1.0000000   1.0000000   7.0000000   6.0000000   6.0000000

  Atom        61          62          63          64          65          66          67          68          69          70
 IAtWgt=          14           1          12          14           1          12          14          12          12          14
 AtmWgt=  14.0030740   1.0078250  12.0000000  14.0030740   1.0078250  12.0000000  14.0030740  12.0000000  12.0000000  14.0030740
 NucSpn=           2           1           0           2           1           0           2           0           0           2
 AtZEff=  -0.0000000  -0.0000000  -0.0000000  -0.0000000  -0.0000000  -0.0000000  -0.0000000  -0.0000000  -0.0000000  -0.0000000
 NQMom=    2.0440000   0.0000000   0.0000000   2.0440000   0.0000000   0.0000000   2.0440000   0.0000000   0.0000000   2.0440000
 NMagM=    0.4037610   2.7928460   0.0000000   0.4037610   2.7928460   0.0000000   0.4037610   0.0000000   0.0000000   0.4037610
 AtZNuc=   7.0000000   1.0000000   6.0000000   7.0000000   1.0000000   6.0000000   7.0000000   6.0000000   6.0000000   7.0000000
 Leave Link  101 at Fri Jan 26 05:06:01 2018, MaxMem=  4294967296 cpu:               7.7 elap:               0.3
 (Enter /share/apps/g16/l202.exe)
 Stoichiometry    C23H27N17O3
 Framework group  C1[X(C23H27N17O3)]
 Deg. of freedom   204
 Full point group                 C1      NOp   1
 Largest Abelian subgroup         C1      NOp   1
 Largest concise Abelian subgroup C1      NOp   1
                         Standard orientation:                         
 ---------------------------------------------------------------------
 Center     Atomic      Atomic             Coordinates (Angstroms)
 Number     Number       Type             X           Y           Z
 ---------------------------------------------------------------------
      1          7           0       -6.646162   -1.621431    0.458262
      2          6           0       -8.027732   -1.162599    0.215900
      3          6           0       -4.479494   -1.675561    0.832314
      4          7           0       -4.896132   -2.997508    0.772472
      5          6           0       -6.184803   -2.911994    0.549514
      6          1           0       -6.853455   -3.766553    0.441988
      7          7           0       -3.147536    0.259339    1.044412
      8          6           0       -4.268449    0.960246    0.844786
      9          1           0       -4.148198    2.042688    0.855700
     10          7           0       -5.509783    0.526823    0.634698
     11          6           0       -5.547083   -0.815937    0.640453
     12          6           0       -3.218236   -1.089765    1.044456
     13          7           0       -2.100392   -1.791162    1.243553
     14          1           0       -2.105873   -2.791731    1.251685
     15          1           0       -1.219843   -1.340674    1.391280
     16          1           0       -8.624827   -1.499359    0.944079
     17          1           0       -8.050457   -0.163374    0.202919
     18          1           0       -8.348012   -1.513054   -0.664212
     19          7           0       -2.323662    2.923876   -1.697465
     20          6           0       -1.051257    2.462204   -1.461065
     21          6           0       -2.769982    4.321305   -1.528090
     22          7           0        2.230031    3.051988   -0.487886
     23          1           0        3.072369    2.525393   -0.376498
     24          1           0        2.274371    4.028838   -0.276876
     25          7           0       -0.003374    3.201646   -1.037741
     26          6           0        1.091651    2.475021   -0.901551
     27          7           0        1.157544    1.127227   -1.159655
     28          1           0        2.037487    0.652555   -1.027906
     29          6           0        0.091957    0.346238   -1.596065
     30          8           0        0.257525   -0.862794   -1.799926
     31          6           0       -1.091353    1.112969   -1.747013
     32          7           0       -2.363333    0.735191   -2.154725
     33          6           0       -3.058541    1.839221   -2.109947
     34          1           0       -4.115058    1.918671   -2.368289
     35          1           0       -3.505167    4.358549   -0.852137
     36          1           0       -2.002149    4.878536   -1.214750
     37          1           0       -3.102470    4.674977   -2.401690
     38          1           0        6.523922   -1.241047    0.434584
     39          1           0        6.882587   -1.166562   -1.288920
     40          1           0        5.798891    0.020547   -0.562454
     41          1           0        4.176402   -5.140946   -1.123170
     42          6           0        4.053925   -4.057993   -1.101853
     43          8           0        1.733070   -4.126315   -1.587782
     44          6           0        2.761419   -3.494593   -1.346482
     45          1           0        1.820223   -1.681123   -1.463971
     46          7           0        2.716621   -2.115923   -1.296220
     47          8           0        3.622985   -0.052305   -1.018413
     48          6           0        3.761086   -1.262691   -1.041988
     49          1           0        6.095022   -3.629954   -0.658594
     50          6           0        5.091927   -3.251631   -0.850992
     51          6           0        6.120470   -1.010090   -0.540078
     52          7           0        4.974913   -1.881430   -0.816131
     53          1           0        3.481015    4.392116    2.334719
     54          1           0        2.393049    4.170846    1.139102
     55          1           0        3.990539    4.094221    0.813183
     56          1           0        1.345680   -2.711769    2.133107
     57          1           0        2.924595   -2.234045    2.567742
     58          7           0        2.022614   -1.980376    2.216606
     59          6           0        1.736253   -0.722366    1.875163
     60          6           0        2.208124    1.591196    1.581093
     61          7           0        0.988426    1.902787    1.112404
     62          1           0       -0.795474    0.983851    0.695394
     63          6           0        0.215584    0.819529    1.065551
     64          7           0        0.500543   -0.441316    1.407086
     65          1           0        5.265974    2.085646    2.506984
     66          6           0        4.290819    1.662884    2.263487
     67          7           0        3.970323    0.399748    2.403009
     68          6           0        2.652343    0.340629    1.973867
     69          6           0        3.285129    3.890375    1.492166
     70          7           0        3.271885    2.441165    1.770778
 ---------------------------------------------------------------------
 Rotational constants (GHZ):           0.1271748           0.0568447           0.0476965
 Leave Link  202 at Fri Jan 26 05:06:01 2018, MaxMem=  4294967296 cpu:               0.3 elap:               0.0
 (Enter /share/apps/g16/l301.exe)
 Standard basis: CC-pVDZ (5D, 7F)
 Ernie: Thresh=  0.10000D-02 Tol=  0.10000D-05 Strict=F.
 Ernie:  86 primitive shells out of 1081 were deleted.
 There are   780 symmetry adapted cartesian basis functions of A   symmetry.
 There are   737 symmetry adapted basis functions of A   symmetry.
   737 basis functions,  1608 primitive gaussians,   780 cartesian basis functions
   154 alpha electrons      154 beta electrons
       nuclear repulsion energy      5504.6718237031 Hartrees.
 IExCor= 4639 DFT=T Ex+Corr=wB97XD ExCW=0 ScaHFX=  1.000000
 ScaDFX=  1.000000  1.000000  1.000000  1.000000 ScalE2=  1.000000  1.000000
 IRadAn=      5 IRanWt=     -1 IRanGd=            0 ICorTp=0 IEmpDi=121
 HFx  wShort=  0.000000 wLong=  0.200000 cFull=  0.222036 cShort=  0.000000 cLong=  0.777964
 DFx  wShort=  0.000000 wLong=  0.200000 cFull=  0.000000 cShort=  0.000000 cLong=  1.000000
 NAtoms=   70 NActive=   70 NUniq=   70 SFac= 1.00D+00 NAtFMM=   60 NAOKFM=T Big=T
 Integral buffers will be    131072 words long.
 Raffenetti 2 integral format.
 Two-electron integral symmetry is turned on.
 R6Disp:  Grimme-D2 Dispersion energy=       -0.0696459379 Hartrees.
 Nuclear repulsion after empirical dispersion term =     5504.6021777652 Hartrees.
 Leave Link  301 at Fri Jan 26 05:06:01 2018, MaxMem=  4294967296 cpu:               2.1 elap:               0.1
 (Enter /share/apps/g16/l302.exe)
 NPDir=0 NMtPBC=     1 NCelOv=     1 NCel=       1 NClECP=     1 NCelD=      1
         NCelK=      1 NCelE2=     1 NClLst=     1 CellRange=     0.0.
 One-electron integrals computed using PRISM.
 One-electron integral symmetry used in STVInt
 NBasis=   737 RedAO= T EigKep=  6.53D-04  NBF=   737
 NBsUse=   737 1.00D-06 EigRej= -1.00D+00 NBFU=   737
 Precomputing XC quadrature grid using
 IXCGrd= 4 IRadAn=           5 IRanWt=          -1 IRanGd=           0 AccXCQ= 0.00D+00.
 Generated NRdTot=       0 NPtTot=           0 NUsed=           0 NTot=          32
 NSgBfM=   767   767   767   767   767 MxSgAt=    70 MxSgA2=    70.
 Leave Link  302 at Fri Jan 26 05:06:06 2018, MaxMem=  4294967296 cpu:             133.4 elap:               4.2
 (Enter /share/apps/g16/l303.exe)
 DipDrv:  MaxL=1.
 Leave Link  303 at Fri Jan 26 05:06:06 2018, MaxMem=  4294967296 cpu:              12.5 elap:               0.4
 (Enter /share/apps/g16/l401.exe)
 ExpMin= 1.22D-01 ExpMax= 1.17D+04 ExpMxC= 4.01D+02 IAcc=3 IRadAn=         5 AccDes= 0.00D+00
 Harris functional with IExCor= 4639 and IRadAn=       5 diagonalized for initial guess.
 HarFok:  IExCor= 4639 AccDes= 0.00D+00 IRadAn=         5 IDoV= 1 UseB2=F ITyADJ=14
 ICtDFT=  3500011 ScaDFX=  1.000000  1.000000  1.000000  1.000000
 FoFCou: FMM=F IPFlag=           0 FMFlag=      100000 FMFlg1=        2001
         NFxFlg=           0 DoJE=T BraDBF=F KetDBF=T FulRan=T
         wScrn=  0.000000 ICntrl=       500 IOpCl=  0 I1Cent=   200000004 NGrid=           0
         NMat0=    1 NMatS0=      1 NMatT0=    0 NMatD0=    1 NMtDS0=    0 NMtDT0=    0
 Petite list used in FoFCou.
 Harris En= -1963.74334036795    
 JPrj=0 DoOrth=F DoCkMO=F.
 Leave Link  401 at Fri Jan 26 05:06:19 2018, MaxMem=  4294967296 cpu:             397.4 elap:              12.5
 (Enter /share/apps/g16/l502.exe)
 Integral symmetry usage will be decided dynamically.
 Closed shell SCF:
 Using DIIS extrapolation, IDIIS=  1040.
 NGot=  4294967296 LenX=  4293717438 LenY=  4293108258
 Requested convergence on RMS density matrix=1.00D-08 within  20 cycles.
 Requested convergence on MAX density matrix=1.00D-06.
 Requested convergence on             energy=1.00D-06.
 No special actions if energy rises.
 Fock matrices will be formed incrementally for  20 cycles.
 Integral accuracy reduced to 1.0D-05 until final iterations.

 Cycle   1  Pass 0  IDiag  1:
 FoFJK:  IHMeth= 1 ICntrl=       0 DoSepK=T KAlg= 0 I1Cent=           0 FoldK=F
 IRaf=         1 NMat=       1 IRICut=       1 DoRegI=T DoRafI=F ISym2E= 0 IDoP0=0 IntGTp=1.
 FoFCou: FMM=T IPFlag=           0 FMFlag=      100000 FMFlg1=        2001
         NFxFlg=           0 DoJE=T BraDBF=F KetDBF=F FulRan=T
         wScrn=  0.000000 ICntrl=       500 IOpCl=  0 I1Cent=           0 NGrid=           0
         NMat0=    1 NMatS0=      1 NMatT0=    0 NMatD0=    1 NMtDS0=    0 NMtDT0=    0
 Symmetry not used in FoFCou.
 FMM levels:  10  Number of levels for PrismC:   9
 E= -2048.19577484708    
 DIIS: error= 2.15D-02 at cycle   1 NSaved=   1.
 NSaved= 1 IEnMin= 1 EnMin= -2048.19577484708     IErMin= 1 ErrMin= 2.15D-02
 ErrMax= 2.15D-02  0.00D+00 EMaxC= 1.00D-01 BMatC= 8.36D-01 BMatP= 8.36D-01
 IDIUse=3 WtCom= 7.85D-01 WtEn= 2.15D-01
 Coeff-Com:  0.100D+01
 Coeff-En:   0.100D+01
 Coeff:      0.100D+01
 Gap=     0.259 Goal=   None    Shift=    0.000
 GapD=    0.259 DampG=1.000 DampE=0.500 DampFc=0.5000 IDamp=-1.
 Damping current iteration by 5.00D-01
 RMSDP=1.62D-03 MaxDP=1.30D-01              OVMax= 2.12D-01

 Cycle   2  Pass 0  IDiag  1:
 RMSU=  8.08D-04    CP:  9.97D-01
 E= -2048.39567006975     Delta-E=       -0.199895222672 Rises=F Damp=T
 DIIS: error= 1.06D-02 at cycle   2 NSaved=   2.
 NSaved= 2 IEnMin= 2 EnMin= -2048.39567006975     IErMin= 2 ErrMin= 1.06D-02
 ErrMax= 1.06D-02  0.00D+00 EMaxC= 1.00D-01 BMatC= 1.45D-01 BMatP= 8.36D-01
 IDIUse=3 WtCom= 8.94D-01 WtEn= 1.06D-01
 Coeff-Com: -0.192D+00 0.119D+01
 Coeff-En:   0.000D+00 0.100D+01
 Coeff:     -0.172D+00 0.117D+01
 Gap=     0.354 Goal=   None    Shift=    0.000
 RMSDP=6.00D-04 MaxDP=3.42D-02 DE=-2.00D-01 OVMax= 1.32D-01

 Cycle   3  Pass 0  IDiag  1:
 RMSU=  5.87D-04    CP:  9.93D-01  1.14D+00
 E= -2048.57908852745     Delta-E=       -0.183418457700 Rises=F Damp=F
 DIIS: error= 7.04D-03 at cycle   3 NSaved=   3.
 NSaved= 3 IEnMin= 3 EnMin= -2048.57908852745     IErMin= 3 ErrMin= 7.04D-03
 ErrMax= 7.04D-03  0.00D+00 EMaxC= 1.00D-01 BMatC= 6.29D-02 BMatP= 1.45D-01
 IDIUse=3 WtCom= 9.30D-01 WtEn= 7.04D-02
 Coeff-Com: -0.231D+00 0.545D+00 0.685D+00
 Coeff-En:   0.000D+00 0.000D+00 0.100D+01
 Coeff:     -0.214D+00 0.507D+00 0.708D+00
 Gap=     0.276 Goal=   None    Shift=    0.000
 RMSDP=3.58D-04 MaxDP=3.41D-02 DE=-1.83D-01 OVMax= 7.42D-02

 Cycle   4  Pass 0  IDiag  1:
 RMSU=  2.07D-04    CP:  9.94D-01  1.42D+00  6.85D-01
 E= -2048.62678474287     Delta-E=       -0.047696215421 Rises=F Damp=F
 DIIS: error= 2.65D-03 at cycle   4 NSaved=   4.
 NSaved= 4 IEnMin= 4 EnMin= -2048.62678474287     IErMin= 4 ErrMin= 2.65D-03
 ErrMax= 2.65D-03  0.00D+00 EMaxC= 1.00D-01 BMatC= 8.96D-03 BMatP= 6.29D-02
 IDIUse=3 WtCom= 9.73D-01 WtEn= 2.65D-02
 Coeff-Com: -0.972D-01 0.188D+00 0.380D+00 0.529D+00
 Coeff-En:   0.000D+00 0.000D+00 0.574D-01 0.943D+00
 Coeff:     -0.946D-01 0.183D+00 0.371D+00 0.540D+00
 Gap=     0.279 Goal=   None    Shift=    0.000
 RMSDP=1.28D-04 MaxDP=1.23D-02 DE=-4.77D-02 OVMax= 1.23D-02

 Cycle   5  Pass 0  IDiag  1:
 RMSU=  6.30D-05    CP:  9.93D-01  1.39D+00  8.14D-01  6.15D-01
 E= -2048.63415192442     Delta-E=       -0.007367181553 Rises=F Damp=F
 DIIS: error= 5.63D-04 at cycle   5 NSaved=   5.
 NSaved= 5 IEnMin= 5 EnMin= -2048.63415192442     IErMin= 5 ErrMin= 5.63D-04
 ErrMax= 5.63D-04  0.00D+00 EMaxC= 1.00D-01 BMatC= 2.96D-04 BMatP= 8.96D-03
 IDIUse=3 WtCom= 9.94D-01 WtEn= 5.63D-03
 Coeff-Com: -0.246D-01 0.421D-01 0.119D+00 0.237D+00 0.626D+00
 Coeff-En:   0.000D+00 0.000D+00 0.000D+00 0.000D+00 0.100D+01
 Coeff:     -0.245D-01 0.419D-01 0.119D+00 0.236D+00 0.628D+00
 Gap=     0.279 Goal=   None    Shift=    0.000
 RMSDP=2.72D-05 MaxDP=1.90D-03 DE=-7.37D-03 OVMax= 3.17D-03

 Failed to achieve initial convergence to 1.0D-08 in  6 cycles.
 Switch to full accuracy anyway.
 Cycle   6  Pass 1  IDiag  1:
 E= -2048.63463608379     Delta-E=       -0.000484159365 Rises=F Damp=F
 DIIS: error= 2.55D-04 at cycle   1 NSaved=   1.
 NSaved= 1 IEnMin= 1 EnMin= -2048.63463608379     IErMin= 1 ErrMin= 2.55D-04
 ErrMax= 2.55D-04  0.00D+00 EMaxC= 1.00D-01 BMatC= 8.20D-05 BMatP= 8.20D-05
 IDIUse=3 WtCom= 9.97D-01 WtEn= 2.55D-03
 Coeff-Com:  0.100D+01
 Coeff-En:   0.100D+01
 Coeff:      0.100D+01
 Gap=     0.279 Goal=   None    Shift=    0.000
 RMSDP=2.72D-05 MaxDP=1.90D-03 DE=-4.84D-04 OVMax= 2.55D-03

 Cycle   7  Pass 1  IDiag  1:
 RMSU=  1.22D-04    CP:  1.00D+00
 E= -2048.63469465649     Delta-E=       -0.000058572702 Rises=F Damp=F
 DIIS: error= 2.19D-04 at cycle   2 NSaved=   2.
 NSaved= 2 IEnMin= 2 EnMin= -2048.63469465649     IErMin= 2 ErrMin= 2.19D-04
 ErrMax= 2.19D-04  0.00D+00 EMaxC= 1.00D-01 BMatC= 4.70D-05 BMatP= 8.20D-05
 IDIUse=3 WtCom= 9.98D-01 WtEn= 2.19D-03
 Coeff-Com:  0.406D+00 0.594D+00
 Coeff-En:   0.000D+00 0.100D+01
 Coeff:      0.405D+00 0.595D+00
 Gap=     0.279 Goal=   None    Shift=    0.000
 RMSDP=1.24D-05 MaxDP=1.07D-03 DE=-5.86D-05 OVMax= 1.49D-03

 Cycle   8  Pass 1  IDiag  1:
 RMSU=  1.21D-05    CP:  1.00D+00  1.02D+00
 E= -2048.63472818531     Delta-E=       -0.000033528821 Rises=F Damp=F
 DIIS: error= 9.32D-05 at cycle   3 NSaved=   3.
 NSaved= 3 IEnMin= 3 EnMin= -2048.63472818531     IErMin= 3 ErrMin= 9.32D-05
 ErrMax= 9.32D-05  0.00D+00 EMaxC= 1.00D-01 BMatC= 1.14D-05 BMatP= 4.70D-05
 IDIUse=1 WtCom= 1.00D+00 WtEn= 0.00D+00
 Coeff-Com: -0.186D-01 0.317D+00 0.701D+00
 Coeff:     -0.186D-01 0.317D+00 0.701D+00
 Gap=     0.279 Goal=   None    Shift=    0.000
 RMSDP=6.02D-06 MaxDP=4.38D-04 DE=-3.35D-05 OVMax= 6.62D-04

 Cycle   9  Pass 1  IDiag  1:
 RMSU=  3.91D-06    CP:  1.00D+00  1.05D+00  7.49D-01
 E= -2048.63473867023     Delta-E=       -0.000010484917 Rises=F Damp=F
 DIIS: error= 4.14D-05 at cycle   4 NSaved=   4.
 NSaved= 4 IEnMin= 4 EnMin= -2048.63473867023     IErMin= 4 ErrMin= 4.14D-05
 ErrMax= 4.14D-05  0.00D+00 EMaxC= 1.00D-01 BMatC= 5.61D-07 BMatP= 1.14D-05
 IDIUse=1 WtCom= 1.00D+00 WtEn= 0.00D+00
 Coeff-Com: -0.296D-01 0.924D-01 0.269D+00 0.669D+00
 Coeff:     -0.296D-01 0.924D-01 0.269D+00 0.669D+00
 Gap=     0.279 Goal=   None    Shift=    0.000
 RMSDP=1.46D-06 MaxDP=1.23D-04 DE=-1.05D-05 OVMax= 4.23D-04

 Cycle  10  Pass 1  IDiag  1:
 RMSU=  1.32D-06    CP:  1.00D+00  1.05D+00  7.82D-01  1.09D+00
 E= -2048.63473954489     Delta-E=       -0.000000874667 Rises=F Damp=F
 DIIS: error= 1.64D-05 at cycle   5 NSaved=   5.
 NSaved= 5 IEnMin= 5 EnMin= -2048.63473954489     IErMin= 5 ErrMin= 1.64D-05
 ErrMax= 1.64D-05  0.00D+00 EMaxC= 1.00D-01 BMatC= 1.18D-07 BMatP= 5.61D-07
 IDIUse=1 WtCom= 1.00D+00 WtEn= 0.00D+00
 Coeff-Com: -0.251D-02-0.561D-01-0.117D+00 0.188D+00 0.988D+00
 Coeff:     -0.251D-02-0.561D-01-0.117D+00 0.188D+00 0.988D+00
 Gap=     0.279 Goal=   None    Shift=    0.000
 RMSDP=1.21D-06 MaxDP=7.49D-05 DE=-8.75D-07 OVMax= 2.26D-04

 Cycle  11  Pass 1  IDiag  1:
 RMSU=  5.11D-07    CP:  1.00D+00  1.05D+00  7.89D-01  1.36D+00  1.19D+00
 E= -2048.63473980915     Delta-E=       -0.000000264259 Rises=F Damp=F
 DIIS: error= 9.23D-06 at cycle   6 NSaved=   6.
 NSaved= 6 IEnMin= 6 EnMin= -2048.63473980915     IErMin= 6 ErrMin= 9.23D-06
 ErrMax= 9.23D-06  0.00D+00 EMaxC= 1.00D-01 BMatC= 2.93D-08 BMatP= 1.18D-07
 IDIUse=1 WtCom= 1.00D+00 WtEn= 0.00D+00
 Coeff-Com:  0.460D-02-0.466D-01-0.113D+00-0.896D-02 0.528D+00 0.637D+00
 Coeff:      0.460D-02-0.466D-01-0.113D+00-0.896D-02 0.528D+00 0.637D+00
 Gap=     0.279 Goal=   None    Shift=    0.000
 RMSDP=3.81D-07 MaxDP=3.40D-05 DE=-2.64D-07 OVMax= 1.08D-04

 Cycle  12  Pass 1  IDiag  1:
 RMSU=  1.92D-07    CP:  1.00D+00  1.05D+00  7.92D-01  1.43D+00  1.32D+00
                    CP:  9.37D-01
 E= -2048.63473985082     Delta-E=       -0.000000041663 Rises=F Damp=F
 DIIS: error= 1.21D-06 at cycle   7 NSaved=   7.
 NSaved= 7 IEnMin= 7 EnMin= -2048.63473985082     IErMin= 7 ErrMin= 1.21D-06
 ErrMax= 1.21D-06  0.00D+00 EMaxC= 1.00D-01 BMatC= 7.18D-10 BMatP= 2.93D-08
 IDIUse=1 WtCom= 1.00D+00 WtEn= 0.00D+00
 Coeff-Com:  0.993D-03-0.686D-02-0.178D-01-0.919D-02 0.508D-01 0.125D+00
 Coeff-Com:  0.857D+00
 Coeff:      0.993D-03-0.686D-02-0.178D-01-0.919D-02 0.508D-01 0.125D+00
 Coeff:      0.857D+00
 Gap=     0.279 Goal=   None    Shift=    0.000
 RMSDP=8.71D-08 MaxDP=5.39D-06 DE=-4.17D-08 OVMax= 2.21D-05

 Cycle  13  Pass 1  IDiag  1:
 RMSU=  5.24D-08    CP:  1.00D+00  1.05D+00  7.91D-01  1.44D+00  1.34D+00
                    CP:  1.03D+00  1.14D+00
 E= -2048.63473985254     Delta-E=       -0.000000001726 Rises=F Damp=F
 DIIS: error= 5.87D-07 at cycle   8 NSaved=   8.
 NSaved= 8 IEnMin= 8 EnMin= -2048.63473985254     IErMin= 8 ErrMin= 5.87D-07
 ErrMax= 5.87D-07  0.00D+00 EMaxC= 1.00D-01 BMatC= 3.31D-10 BMatP= 7.18D-10
 IDIUse=1 WtCom= 1.00D+00 WtEn= 0.00D+00
 Coeff-Com: -0.682D-03 0.862D-02 0.203D-01-0.117D-02-0.111D+00-0.101D+00
 Coeff-Com:  0.431D+00 0.754D+00
 Coeff:     -0.682D-03 0.862D-02 0.203D-01-0.117D-02-0.111D+00-0.101D+00
 Coeff:      0.431D+00 0.754D+00
 Gap=     0.279 Goal=   None    Shift=    0.000
 RMSDP=4.87D-08 MaxDP=3.26D-06 DE=-1.73D-09 OVMax= 9.10D-06

 Cycle  14  Pass 1  IDiag  1:
 RMSU=  2.91D-08    CP:  1.00D+00  1.05D+00  7.91D-01  1.44D+00  1.34D+00
                    CP:  1.07D+00  1.29D+00  1.05D+00
 E= -2048.63473985318     Delta-E=       -0.000000000639 Rises=F Damp=F
 DIIS: error= 2.39D-07 at cycle   9 NSaved=   9.
 NSaved= 9 IEnMin= 9 EnMin= -2048.63473985318     IErMin= 9 ErrMin= 2.39D-07
 ErrMax= 2.39D-07  0.00D+00 EMaxC= 1.00D-01 BMatC= 3.64D-11 BMatP= 3.31D-10
 IDIUse=1 WtCom= 1.00D+00 WtEn= 0.00D+00
 Coeff-Com: -0.422D-03 0.469D-02 0.112D-01 0.866D-03-0.545D-01-0.590D-01
 Coeff-Com:  0.105D+00 0.327D+00 0.665D+00
 Coeff:     -0.422D-03 0.469D-02 0.112D-01 0.866D-03-0.545D-01-0.590D-01
 Coeff:      0.105D+00 0.327D+00 0.665D+00
 Gap=     0.279 Goal=   None    Shift=    0.000
 RMSDP=1.36D-08 MaxDP=1.02D-06 DE=-6.39D-10 OVMax= 2.96D-06

 Cycle  15  Pass 1  IDiag  1:
 RMSU=  9.75D-09    CP:  1.00D+00  1.05D+00  7.91D-01  1.44D+00  1.35D+00
                    CP:  1.07D+00  1.31D+00  1.20D+00  1.06D+00
 E= -2048.63473985339     Delta-E=       -0.000000000204 Rises=F Damp=F
 DIIS: error= 8.86D-08 at cycle  10 NSaved=  10.
 NSaved=10 IEnMin=10 EnMin= -2048.63473985339     IErMin=10 ErrMin= 8.86D-08
 ErrMax= 8.86D-08  0.00D+00 EMaxC= 1.00D-01 BMatC= 6.01D-12 BMatP= 3.64D-11
 IDIUse=1 WtCom= 1.00D+00 WtEn= 0.00D+00
 Coeff-Com: -0.491D-06-0.239D-03-0.478D-03 0.180D-03 0.449D-02 0.402D-03
 Coeff-Com: -0.579D-01-0.590D-01 0.249D+00 0.864D+00
 Coeff:     -0.491D-06-0.239D-03-0.478D-03 0.180D-03 0.449D-02 0.402D-03
 Coeff:     -0.579D-01-0.590D-01 0.249D+00 0.864D+00
 Gap=     0.279 Goal=   None    Shift=    0.000
 RMSDP=7.96D-09 MaxDP=3.86D-07 DE=-2.04D-10 OVMax= 1.52D-06

 SCF Done:  E(RwB97XD) =  -2048.63473985     A.U. after   15 cycles
            NFock= 15  Conv=0.80D-08     -V/T= 2.0050
 KE= 2.038358471894D+03 PE=-1.579013460238D+04 EE= 6.198539212871D+03
 Leave Link  502 at Fri Jan 26 05:17:50 2018, MaxMem=  4294967296 cpu:           21423.8 elap:             691.7
 (Enter /share/apps/g16/l601.exe)
 Copying SCF densities to generalized density rwf, IOpCl= 0 IROHF=0.

 **********************************************************************

            Population analysis using the SCF density.

 **********************************************************************

 Orbital symmetries:
       Occupied  (A) (A) (A) (A) (A) (A) (A) (A) (A) (A) (A) (A)
                 (A) (A) (A) (A) (A) (A) (A) (A) (A) (A) (A) (A)
                 (A) (A) (A) (A) (A) (A) (A) (A) (A) (A) (A) (A)
                 (A) (A) (A) (A) (A) (A) (A) (A) (A) (A) (A) (A)
                 (A) (A) (A) (A) (A) (A) (A) (A) (A) (A) (A) (A)
                 (A) (A) (A) (A) (A) (A) (A) (A) (A) (A) (A) (A)
                 (A) (A) (A) (A) (A) (A) (A) (A) (A) (A) (A) (A)
                 (A) (A) (A) (A) (A) (A) (A) (A) (A) (A) (A) (A)
                 (A) (A) (A) (A) (A) (A) (A) (A) (A) (A) (A) (A)
                 (A) (A) (A) (A) (A) (A) (A) (A) (A) (A) (A) (A)
                 (A) (A) (A) (A) (A) (A) (A) (A) (A) (A) (A) (A)
                 (A) (A) (A) (A) (A) (A) (A) (A) (A) (A) (A) (A)
                 (A) (A) (A) (A) (A) (A) (A) (A) (A) (A)
       Virtual   (A) (A) (A) (A) (A) (A) (A) (A) (A) (A) (A) (A)
                 (A) (A) (A) (A) (A) (A) (A) (A) (A) (A) (A) (A)
                 (A) (A) (A) (A) (A) (A) (A) (A) (A) (A) (A) (A)
                 (A) (A) (A) (A) (A) (A) (A) (A) (A) (A) (A) (A)
                 (A) (A) (A) (A) (A) (A) (A) (A) (A) (A) (A) (A)
                 (A) (A) (A) (A) (A) (A) (A) (A) (A) (A) (A) (A)
                 (A) (A) (A) (A) (A) (A) (A) (A) (A) (A) (A) (A)
                 (A) (A) (A) (A) (A) (A) (A) (A) (A) (A) (A) (A)
                 (A) (A) (A) (A) (A) (A) (A) (A) (A) (A) (A) (A)
                 (A) (A) (A) (A) (A) (A) (A) (A) (A) (A) (A) (A)
                 (A) (A) (A) (A) (A) (A) (A) (A) (A) (A) (A) (A)
                 (A) (A) (A) (A) (A) (A) (A) (A) (A) (A) (A) (A)
                 (A) (A) (A) (A) (A) (A) (A) (A) (A) (A) (A) (A)
                 (A) (A) (A) (A) (A) (A) (A) (A) (A) (A) (A) (A)
                 (A) (A) (A) (A) (A) (A) (A) (A) (A) (A) (A) (A)
                 (A) (A) (A) (A) (A) (A) (A) (A) (A) (A) (A) (A)
                 (A) (A) (A) (A) (A) (A) (A) (A) (A) (A) (A) (A)
                 (A) (A) (A) (A) (A) (A) (A) (A) (A) (A) (A) (A)
                 (A) (A) (A) (A) (A) (A) (A) (A) (A) (A) (A) (A)
                 (A) (A) (A) (A) (A) (A) (A) (A) (A) (A) (A) (A)
                 (A) (A) (A) (A) (A) (A) (A) (A) (A) (A) (A) (A)
                 (A) (A) (A) (A) (A) (A) (A) (A) (A) (A) (A) (A)
                 (A) (A) (A) (A) (A) (A) (A) (A) (A) (A) (A) (A)
                 (A) (A) (A) (A) (A) (A) (A) (A) (A) (A) (A) (A)
                 (A) (A) (A) (A) (A) (A) (A) (A) (A) (A) (A) (A)
                 (A) (A) (A) (A) (A) (A) (A) (A) (A) (A) (A) (A)
                 (A) (A) (A) (A) (A) (A) (A) (A) (A) (A) (A) (A)
                 (A) (A) (A) (A) (A) (A) (A) (A) (A) (A) (A) (A)
                 (A) (A) (A) (A) (A) (A) (A) (A) (A) (A) (A) (A)
                 (A) (A) (A) (A) (A) (A) (A) (A) (A) (A) (A) (A)
                 (A) (A) (A) (A) (A) (A) (A) (A) (A) (A) (A) (A)
                 (A) (A) (A) (A) (A) (A) (A) (A) (A) (A) (A) (A)
                 (A) (A) (A) (A) (A) (A) (A) (A) (A) (A) (A) (A)
                 (A) (A) (A) (A) (A) (A) (A) (A) (A) (A) (A) (A)
                 (A) (A) (A) (A) (A) (A) (A) (A) (A) (A) (A) (A)
                 (A) (A) (A) (A) (A) (A) (A) (A) (A) (A) (A) (A)
                 (A) (A) (A) (A) (A) (A) (A) (A) (A) (A) (A) (A)
                 (A) (A) (A) (A) (A) (A) (A) (A) (A) (A) (A) (A)
                 (A) (A) (A) (A) (A) (A) (A) (A) (A) (A) (A) (A)
                 (A) (A) (A) (A) (A) (A) (A) (A) (A) (A) (A) (A)
                 (A) (A) (A) (A) (A) (A) (A) (A) (A) (A) (A) (A)
                 (A) (A) (A) (A) (A) (A) (A) (A) (A) (A) (A) (A)
                 (A) (A) (A) (A) (A) (A) (A) (A) (A) (A) (A) (A)
                 (A) (A) (A) (A) (A) (A) (A) (A) (A) (A) (A) (A)
                 (A) (A) (A) (A) (A) (A) (A) (A) (A) (A) (A) (A)
                 (A) (A) (A) (A) (A) (A) (A) (A) (A) (A) (A) (A)
                 (A) (A) (A) (A) (A) (A) (A) (A) (A) (A) (A) (A)
                 (A) (A) (A) (A) (A) (A) (A) (A) (A) (A) (A) (A)
                 (A) (A) (A) (A) (A) (A) (A)
 The electronic state is 1-A.
 Alpha  occ. eigenvalues --  -19.25926 -19.22007 -19.20532 -14.52486 -14.52386
 Alpha  occ. eigenvalues --  -14.48923 -14.48616 -14.47927 -14.47925 -14.46043
 Alpha  occ. eigenvalues --  -14.45270 -14.45200 -14.43728 -14.42767 -14.42536
 Alpha  occ. eigenvalues --  -14.41626 -14.41514 -14.41087 -14.40598 -14.40337
 Alpha  occ. eigenvalues --  -10.45539 -10.41280 -10.40134 -10.39519 -10.38043
 Alpha  occ. eigenvalues --  -10.37880 -10.37865 -10.36611 -10.35644 -10.35186
 Alpha  occ. eigenvalues --  -10.35025 -10.34279 -10.34222 -10.34179 -10.33545
 Alpha  occ. eigenvalues --  -10.33296 -10.33020 -10.32279 -10.31180 -10.31044
 Alpha  occ. eigenvalues --  -10.30838 -10.28737 -10.27896  -1.19501  -1.15489
 Alpha  occ. eigenvalues --   -1.13316  -1.13037  -1.11519  -1.10480  -1.09375
 Alpha  occ. eigenvalues --   -1.09267  -1.08620  -1.05175  -1.04281  -1.02554
 Alpha  occ. eigenvalues --   -1.01896  -1.00673  -0.99406  -0.98367  -0.97172
 Alpha  occ. eigenvalues --   -0.96591  -0.96375  -0.92838  -0.91106  -0.87805
 Alpha  occ. eigenvalues --   -0.86451  -0.84106  -0.83967  -0.83640  -0.82475
 Alpha  occ. eigenvalues --   -0.82453  -0.78932  -0.77031  -0.74889  -0.74430
 Alpha  occ. eigenvalues --   -0.73802  -0.73396  -0.73113  -0.71260  -0.70469
 Alpha  occ. eigenvalues --   -0.67718  -0.66949  -0.66545  -0.66521  -0.64681
 Alpha  occ. eigenvalues --   -0.64397  -0.63744  -0.63073  -0.62818  -0.62774
 Alpha  occ. eigenvalues --   -0.60683  -0.60471  -0.60344  -0.59768  -0.59540
 Alpha  occ. eigenvalues --   -0.59265  -0.58888  -0.57380  -0.56719  -0.56497
 Alpha  occ. eigenvalues --   -0.56028  -0.55880  -0.55617  -0.54549  -0.54301
 Alpha  occ. eigenvalues --   -0.53848  -0.53364  -0.53293  -0.52907  -0.52769
 Alpha  occ. eigenvalues --   -0.52398  -0.51931  -0.51865  -0.50898  -0.50379
 Alpha  occ. eigenvalues --   -0.50052  -0.49724  -0.49418  -0.49077  -0.48804
 Alpha  occ. eigenvalues --   -0.48738  -0.48388  -0.48293  -0.48086  -0.47316
 Alpha  occ. eigenvalues --   -0.47116  -0.46043  -0.45240  -0.44018  -0.42772
 Alpha  occ. eigenvalues --   -0.41369  -0.39746  -0.39400  -0.38077  -0.37377
 Alpha  occ. eigenvalues --   -0.37204  -0.37033  -0.36550  -0.35752  -0.34627
 Alpha  occ. eigenvalues --   -0.34078  -0.33730  -0.33648  -0.33158  -0.32561
 Alpha  occ. eigenvalues --   -0.32339  -0.32048  -0.31909  -0.31691  -0.30976
 Alpha  occ. eigenvalues --   -0.30529  -0.28846  -0.26033  -0.24928
 Alpha virt. eigenvalues --    0.03000   0.03619   0.07267   0.07717   0.08436
 Alpha virt. eigenvalues --    0.09132   0.09494   0.10678   0.11534   0.12268
 Alpha virt. eigenvalues --    0.12797   0.13824   0.14060   0.14746   0.14993
 Alpha virt. eigenvalues --    0.15695   0.15891   0.16816   0.16830   0.17701
 Alpha virt. eigenvalues --    0.18511   0.19100   0.19815   0.20398   0.20445
 Alpha virt. eigenvalues --    0.20800   0.20996   0.21057   0.21224   0.21878
 Alpha virt. eigenvalues --    0.23013   0.23344   0.23585   0.23788   0.23936
 Alpha virt. eigenvalues --    0.24042   0.24271   0.24396   0.25296   0.25448
 Alpha virt. eigenvalues --    0.25513   0.26535   0.27707   0.28374   0.28773
 Alpha virt. eigenvalues --    0.29160   0.29326   0.29688   0.30610   0.30817
 Alpha virt. eigenvalues --    0.31340   0.31922   0.32593   0.33361   0.33981
 Alpha virt. eigenvalues --    0.34134   0.34837   0.35032   0.35803   0.36711
 Alpha virt. eigenvalues --    0.37568   0.37762   0.38332   0.39271   0.39560
 Alpha virt. eigenvalues --    0.40265   0.40514   0.40718   0.41381   0.41911
 Alpha virt. eigenvalues --    0.42322   0.42632   0.43318   0.43982   0.44486
 Alpha virt. eigenvalues --    0.44818   0.45541   0.46248   0.46555   0.47215
 Alpha virt. eigenvalues --    0.47626   0.48263   0.48559   0.49718   0.49858
 Alpha virt. eigenvalues --    0.50087   0.50760   0.50948   0.51121   0.51534
 Alpha virt. eigenvalues --    0.51986   0.52250   0.52618   0.53303   0.53549
 Alpha virt. eigenvalues --    0.53810   0.54811   0.55001   0.55647   0.55905
 Alpha virt. eigenvalues --    0.56433   0.56889   0.57613   0.57699   0.57946
 Alpha virt. eigenvalues --    0.58560   0.58844   0.59270   0.59326   0.59717
 Alpha virt. eigenvalues --    0.59826   0.60465   0.61051   0.61330   0.61436
 Alpha virt. eigenvalues --    0.62159   0.62378   0.63027   0.63317   0.63405
 Alpha virt. eigenvalues --    0.63856   0.64162   0.64507   0.64743   0.65439
 Alpha virt. eigenvalues --    0.66044   0.66319   0.66756   0.67384   0.67707
 Alpha virt. eigenvalues --    0.68037   0.68217   0.68635   0.68952   0.69410
 Alpha virt. eigenvalues --    0.69724   0.69806   0.70184   0.70837   0.70975
 Alpha virt. eigenvalues --    0.71838   0.72819   0.73279   0.73763   0.73958
 Alpha virt. eigenvalues --    0.74317   0.74790   0.74974   0.75361   0.75447
 Alpha virt. eigenvalues --    0.75795   0.76147   0.76276   0.76482   0.76864
 Alpha virt. eigenvalues --    0.76924   0.77850   0.78210   0.78523   0.78677
 Alpha virt. eigenvalues --    0.78920   0.79559   0.80187   0.80916   0.81222
 Alpha virt. eigenvalues --    0.81471   0.81818   0.82172   0.82302   0.82726
 Alpha virt. eigenvalues --    0.83519   0.83672   0.84465   0.84816   0.85196
 Alpha virt. eigenvalues --    0.85825   0.85944   0.86759   0.87351   0.87582
 Alpha virt. eigenvalues --    0.87881   0.88242   0.88905   0.89590   0.89858
 Alpha virt. eigenvalues --    0.90188   0.90294   0.90873   0.91463   0.91606
 Alpha virt. eigenvalues --    0.92706   0.93111   0.93448   0.93788   0.94430
 Alpha virt. eigenvalues --    0.95078   0.95369   0.95769   0.96167   0.96858
 Alpha virt. eigenvalues --    0.96977   0.97225   0.97645   0.97901   0.98409
 Alpha virt. eigenvalues --    0.99423   0.99763   1.00261   1.01049   1.01217
 Alpha virt. eigenvalues --    1.01607   1.02449   1.03106   1.03433   1.03906
 Alpha virt. eigenvalues --    1.04163   1.04602   1.05255   1.05502   1.05879
 Alpha virt. eigenvalues --    1.06247   1.06452   1.07211   1.08747   1.09313
 Alpha virt. eigenvalues --    1.09677   1.09944   1.10722   1.11297   1.11924
 Alpha virt. eigenvalues --    1.12307   1.12743   1.13411   1.13894   1.14759
 Alpha virt. eigenvalues --    1.14797   1.15367   1.15811   1.16147   1.16356
 Alpha virt. eigenvalues --    1.16559   1.16843   1.17193   1.18201   1.18512
 Alpha virt. eigenvalues --    1.18789   1.19151   1.19751   1.20314   1.20584
 Alpha virt. eigenvalues --    1.20777   1.21212   1.21603   1.22071   1.22218
 Alpha virt. eigenvalues --    1.22437   1.22867   1.23559   1.23867   1.24023
 Alpha virt. eigenvalues --    1.24364   1.24984   1.25058   1.25954   1.26755
 Alpha virt. eigenvalues --    1.27382   1.28187   1.28550   1.28716   1.29619
 Alpha virt. eigenvalues --    1.29881   1.30589   1.31954   1.32428   1.32954
 Alpha virt. eigenvalues --    1.33635   1.34305   1.34831   1.35164   1.35464
 Alpha virt. eigenvalues --    1.35912   1.37502   1.38007   1.38374   1.38581
 Alpha virt. eigenvalues --    1.39004   1.40319   1.41571   1.42111   1.42450
 Alpha virt. eigenvalues --    1.43402   1.44334   1.45188   1.45865   1.46139
 Alpha virt. eigenvalues --    1.46483   1.47585   1.48116   1.48547   1.48929
 Alpha virt. eigenvalues --    1.49038   1.49513   1.49814   1.50664   1.51106
 Alpha virt. eigenvalues --    1.52137   1.52615   1.53377   1.55267   1.56035
 Alpha virt. eigenvalues --    1.56091   1.56273   1.58102   1.58388   1.58915
 Alpha virt. eigenvalues --    1.59029   1.59231   1.60473   1.61279   1.61593
 Alpha virt. eigenvalues --    1.62567   1.62701   1.63224   1.63741   1.65185
 Alpha virt. eigenvalues --    1.65533   1.66133   1.66413   1.66591   1.67262
 Alpha virt. eigenvalues --    1.67562   1.68323   1.68596   1.69074   1.69372
 Alpha virt. eigenvalues --    1.69837   1.70611   1.70810   1.71039   1.71566
 Alpha virt. eigenvalues --    1.71674   1.72416   1.73062   1.73542   1.74229
 Alpha virt. eigenvalues --    1.74436   1.74675   1.74898   1.75276   1.75738
 Alpha virt. eigenvalues --    1.75774   1.76567   1.77111   1.77357   1.77777
 Alpha virt. eigenvalues --    1.78354   1.78719   1.79391   1.79656   1.80034
 Alpha virt. eigenvalues --    1.80165   1.80222   1.80405   1.81036   1.81207
 Alpha virt. eigenvalues --    1.81602   1.81970   1.82600   1.82864   1.83399
 Alpha virt. eigenvalues --    1.83499   1.83819   1.84435   1.85466   1.86094
 Alpha virt. eigenvalues --    1.86769   1.87039   1.87445   1.87633   1.88184
 Alpha virt. eigenvalues --    1.88808   1.88964   1.89275   1.89382   1.89903
 Alpha virt. eigenvalues --    1.90942   1.91765   1.92432   1.92595   1.93092
 Alpha virt. eigenvalues --    1.93447   1.93591   1.94533   1.94925   1.95217
 Alpha virt. eigenvalues --    1.95583   1.95980   1.96540   1.97937   1.98202
 Alpha virt. eigenvalues --    1.99423   1.99673   2.00546   2.00924   2.01802
 Alpha virt. eigenvalues --    2.02364   2.03132   2.04125   2.04572   2.04898
 Alpha virt. eigenvalues --    2.05217   2.05771   2.06737   2.07239   2.08003
 Alpha virt. eigenvalues --    2.08350   2.08635   2.10082   2.10313   2.10624
 Alpha virt. eigenvalues --    2.11291   2.12035   2.12761   2.13092   2.13820
 Alpha virt. eigenvalues --    2.14467   2.15596   2.16907   2.17857   2.19047
 Alpha virt. eigenvalues --    2.19857   2.19943   2.20714   2.21364   2.21841
 Alpha virt. eigenvalues --    2.22047   2.22530   2.23321   2.24243   2.25008
 Alpha virt. eigenvalues --    2.25689   2.26396   2.27010   2.27310   2.28364
 Alpha virt. eigenvalues --    2.28464   2.29138   2.29635   2.30202   2.30627
 Alpha virt. eigenvalues --    2.30969   2.31617   2.32004   2.33104   2.33794
 Alpha virt. eigenvalues --    2.34095   2.34474   2.35125   2.35387   2.36015
 Alpha virt. eigenvalues --    2.36474   2.37315   2.37633   2.39422   2.39930
 Alpha virt. eigenvalues --    2.40457   2.41354   2.41562   2.42316   2.42514
 Alpha virt. eigenvalues --    2.43068   2.43379   2.44031   2.44493   2.45444
 Alpha virt. eigenvalues --    2.45810   2.46312   2.46573   2.47378   2.48852
 Alpha virt. eigenvalues --    2.49443   2.50286   2.50659   2.51514   2.53572
 Alpha virt. eigenvalues --    2.54412   2.54864   2.55456   2.55645   2.57076
 Alpha virt. eigenvalues --    2.57333   2.58416   2.58741   2.60289   2.60684
 Alpha virt. eigenvalues --    2.61109   2.61594   2.61709   2.62092   2.62823
 Alpha virt. eigenvalues --    2.64241   2.64848   2.65297   2.65806   2.67369
 Alpha virt. eigenvalues --    2.68479   2.68606   2.68916   2.69331   2.70197
 Alpha virt. eigenvalues --    2.70609   2.71508   2.71729   2.72605   2.73453
 Alpha virt. eigenvalues --    2.74178   2.75542   2.75725   2.76196   2.77854
 Alpha virt. eigenvalues --    2.78774   2.78995   2.79829   2.79958   2.80008
 Alpha virt. eigenvalues --    2.80555   2.80865   2.81655   2.82330   2.82767
 Alpha virt. eigenvalues --    2.82829   2.83594   2.84155   2.84423   2.85385
 Alpha virt. eigenvalues --    2.85602   2.86399   2.86616   2.87406   2.87815
 Alpha virt. eigenvalues --    2.88516   2.90227   2.92299   2.93311   2.94097
 Alpha virt. eigenvalues --    2.95156   2.98082   2.98668   2.99036   2.99286
 Alpha virt. eigenvalues --    3.00327   3.03556   3.04747   3.05591   3.07846
 Alpha virt. eigenvalues --    3.10070   3.10324   3.12990   3.14186   3.14750
 Alpha virt. eigenvalues --    3.15165   3.16142   3.16607   3.19173   3.22085
 Alpha virt. eigenvalues --    3.22405   3.22895   3.23707   3.26090   3.29927
 Alpha virt. eigenvalues --    3.45376   3.47221   3.48838   3.49665   3.50782
 Alpha virt. eigenvalues --    3.53168   3.53980   3.56575   3.59229   3.60252
 Alpha virt. eigenvalues --    3.62689   3.71088   3.74478
          Condensed to atoms (all electrons):
 Mulliken charges:
               1
     1  N   -0.312069
     2  C    0.181208
     3  C    0.034254
     4  N   -0.260665
     5  C    0.134949
     6  H    0.027163
     7  N   -0.291598
     8  C    0.139669
     9  H    0.006082
    10  N   -0.289653
    11  C    0.248080
    12  C    0.126215
    13  N   -0.059606
    14  H    0.107610
    15  H    0.087310
    16  H    0.025180
    17  H    0.034317
    18  H    0.027275
    19  N   -0.310219
    20  C    0.224392
    21  C    0.181489
    22  N   -0.095424
    23  H    0.116968
    24  H    0.100292
    25  N   -0.266575
    26  C    0.173817
    27  N   -0.103998
    28  H    0.116701
    29  C    0.127863
    30  O   -0.315328
    31  C    0.018429
    32  N   -0.219683
    33  C    0.120321
    34  H    0.029101
    35  H    0.026572
    36  H    0.026975
    37  H    0.024839
    38  H    0.062008
    39  H    0.058035
    40  H    0.074063
    41  H    0.031928
    42  C   -0.112632
    43  O   -0.263350
    44  C    0.175521
    45  H    0.133934
    46  N   -0.136746
    47  O   -0.345898
    48  C    0.358696
    49  H    0.047783
    50  C    0.168791
    51  C    0.043877
    52  N   -0.295754
    53  H    0.029278
    54  H    0.044326
    55  H    0.010377
    56  H    0.123101
    57  H    0.115801
    58  N   -0.068859
    59  C    0.096889
    60  C    0.210103
    61  N   -0.263239
    62  H    0.073971
    63  C    0.165979
    64  N   -0.298345
    65  H    0.033822
    66  C    0.133852
    67  N   -0.264982
    68  C    0.047613
    69  C    0.187740
    70  N   -0.319936
 Sum of Mulliken charges =  -0.00000
 Mulliken charges with hydrogens summed into heavy atoms:
               1
     1  N   -0.312069
     2  C    0.267980
     3  C    0.034254
     4  N   -0.260665
     5  C    0.162112
     7  N   -0.291598
     8  C    0.145750
    10  N   -0.289653
    11  C    0.248080
    12  C    0.126215
    13  N    0.135315
    19  N   -0.310219
    20  C    0.224392
    21  C    0.259875
    22  N    0.121836
    25  N   -0.266575
    26  C    0.173817
    27  N    0.012703
    29  C    0.127863
    30  O   -0.315328
    31  C    0.018429
    32  N   -0.219683
    33  C    0.149422
    42  C   -0.080705
    43  O   -0.263350
    44  C    0.175521
    46  N   -0.002812
    47  O   -0.345898
    48  C    0.358696
    50  C    0.216575
    51  C    0.237983
    52  N   -0.295754
    58  N    0.170043
    59  C    0.096889
    60  C    0.210103
    61  N   -0.263239
    63  C    0.239950
    64  N   -0.298345
    66  C    0.167674
    67  N   -0.264982
    68  C    0.047613
    69  C    0.271721
    70  N   -0.319936
 Electronic spatial extent (au):  <R**2>=          22979.3391
 Charge=             -0.0000 electrons
 Dipole moment (field-independent basis, Debye):
    X=              8.2271    Y=              4.8502    Z=              3.6799  Tot=             10.2348
 Quadrupole moment (field-independent basis, Debye-Ang):
   XX=           -153.7469   YY=           -216.5106   ZZ=           -254.4710
   XY=             -1.5180   XZ=              8.7905   YZ=            -11.2988
 Traceless Quadrupole moment (field-independent basis, Debye-Ang):
   XX=             54.4960   YY=             -8.2678   ZZ=            -46.2281
   XY=             -1.5180   XZ=              8.7905   YZ=            -11.2988
 Octapole moment (field-independent basis, Debye-Ang**2):
  XXX=            -16.5314  YYY=            136.6620  ZZZ=              5.2505  XYY=             89.2753
  XXY=            -92.9758  XXZ=            -44.6870  XZZ=             16.7140  YZZ=             16.7229
  YYZ=             51.0374  XYZ=             42.9905
 Hexadecapole moment (field-independent basis, Debye-Ang**3):
 XXXX=         -14670.3682 YYYY=          -6913.5336 ZZZZ=          -3124.5571 XXXY=            464.0592
 XXXZ=             47.5791 YYYX=            -98.4371 YYYZ=           -120.9295 ZZZX=             15.8558
 ZZZY=            -42.2510 XXYY=          -3605.6396 XXZZ=          -3850.5155 YYZZ=          -1694.5559
 XXYZ=             89.6262 YYXZ=            241.1457 ZZXY=            -27.5214
 N-N= 5.504602177765D+03 E-N=-1.579013459751D+04  KE= 2.038358471894D+03
 No NMR shielding tensors so no spin-rotation constants.
 Leave Link  601 at Fri Jan 26 05:17:52 2018, MaxMem=  4294967296 cpu:              47.1 elap:               1.7
 (Enter /share/apps/g16/l9999.exe)
 1\1\GINC-COMPUTE-0-3\SP\RwB97XD\CC-pVDZ\C23H27N17O3\SATYA\26-Jan-2018\
 0\\#p wb97xd/cc-pvdz sp scf=(maxcycles=20)\\Base pair stacking\\0,1\N,
 0,6.40604,1.64331,-8.27603\C,0,7.75641,2.18646,-8.51994\C,0,4.28447,1.
 43754,-7.73391\N,0,4.70011,0.18361,-8.15772\C,0,5.96165,0.35776,-8.467
 37\H,0,6.6214,-0.42459,-8.84365\N,0,2.9689,3.22182,-6.92858\C,0,4.0626
 1,3.98155,-7.04764\H,0,3.93861,5.02392,-6.75721\N,0,5.28078,3.64855,-7
 .46963\C,0,5.32504,2.34759,-7.80125\C,0,3.04591,1.91706,-7.27027\N,0,1
 .95521,1.15707,-7.15211\H,0,1.96634,0.18607,-7.3935\H,0,1.09027,1.5321
 5,-6.81846\H,0,7.99373,2.07255,-9.48476\H,0,7.77291,3.15815,-8.2861\H,
 0,8.42146,1.69807,-7.95498\N,0,3.35327,5.16051,-3.55365\C,0,2.10441,4.
 62497,-3.34972\C,0,3.67304,6.60217,-3.56149\N,0,-1.28661,5.05066,-2.73
 203\H,0,-2.09221,4.47189,-2.60843\H,0,-1.4252,6.03966,-2.67374\N,0,0.9
 6872,5.32018,-3.12405\C,0,-0.07451,4.5251,-2.96552\N,0,-0.01243,3.1538
 5,-3.02321\H,0,-0.86121,2.62579,-2.89019\C,0,1.14523,2.41741,-3.25419\
 O,0,1.09273,1.18173,-3.28689\C,0,2.27434,3.25784,-3.42645\N,0,3.60314,
 2.94146,-3.67358\C,0,4.20393,4.09848,-3.74109\H,0,5.26999,4.23476,-3.9
 2609\H,0,4.054,6.85596,-4.44989\H,0,2.83939,7.12722,-3.39534\H,0,4.339
 66,6.80133,-2.84402\H,0,-5.52744,0.60872,-2.78804\H,0,-5.12615,0.28755
 ,-1.10267\H,0,-4.46157,1.70728,-1.91142\H,0,-2.70459,-3.25656,-3.27568
 \C,0,-2.61293,-2.18575,-3.09345\O,0,-0.3032,-2.10578,-3.62816\C,0,-1.3
 4335,-1.55082,-3.27474\H,0,-0.45789,0.28895,-3.13498\N,0,-1.33716,-0.1
 9465,-3.01778\O,0,-2.29585,1.77362,-2.41444\C,0,-2.3995,0.57673,-2.617
 84\H,0,-4.65448,-1.89489,-2.55193\C,0,-3.66754,-1.45997,-2.70404\C,0,-
 4.75267,0.67521,-2.03878\N,0,-3.5893,-0.10754,-2.46494\H,0,-3.62447,6.
 80347,-4.40238\H,0,-2.13157,6.45725,-3.84246\H,0,-3.44159,6.14571,-2.9
 2004\H,0,-1.53544,0.07883,-6.74346\H,0,-3.15482,0.46536,-6.37157\N,0,-
 2.19138,0.73554,-6.37114\C,0,-1.79977,1.91922,-5.89499\C,0,-2.12567,4.
 05883,-4.90627\N,0,-0.82515,4.39487,-4.91839\H,0,0.97686,3.60459,-5.49
 185\C,0,-0.09435,3.41365,-5.44381\N,0,-0.4847,2.22738,-5.92127\H,0,-5.
 29326,4.40578,-4.36019\C,0,-4.30241,4.04797,-4.6415\N,0,-4.05861,2.882
 15,-5.18842\C,0,-2.68212,2.8762,-5.36154\C,0,-3.08659,6.16245,-3.85485
 \N,0,-3.17824,4.81167,-4.44222\\Version=EM64L-G16RevA.03\State=1-A\HF=
 -2048.6347399\RMSD=7.957e-09\Dipole=-3.5635663,1.8107621,0.4861764\Qua
 drupole=32.0938645,-10.2446785,-21.8491859,10.4812841,-22.6934404,10.6
 69478\PG=C01 [X(C23H27N17O3)]\\@


 K N O W I N G  IS A BARRIER WHICH PREVENTS LEARNING

                     -- TEACHING OF THE BENE GESSERIT
 Job cpu time:       0 days  6 hours  7 minutes  9.6 seconds.
 Elapsed time:       0 days  0 hours 11 minutes 51.0 seconds.
 File lengths (MBytes):  RWF=    298 Int=      0 D2E=      0 Chk=     33 Scr=      1
 Normal termination of Gaussian 16 at Fri Jan 26 05:17:52 2018.
