 Entering Gaussian System, Link 0=g16
 Input=str55.-5.-2.0.com
 Output=str55.-5.-2.0.log
 Initial command:
 /share/apps/g16/l1.exe "/state/partition1/scr/Gau-19806.inp" -scrdir="/state/partition1/scr/"
 Entering Link 1 = /share/apps/g16/l1.exe PID=     19807.
  
 Copyright (c) 1988,1990,1992,1993,1995,1998,2003,2009,2016,
            Gaussian, Inc.  All Rights Reserved.
  
 This is part of the Gaussian(R) 16 program.  It is based on
 the Gaussian(R) 09 system (copyright 2009, Gaussian, Inc.),
 the Gaussian(R) 03 system (copyright 2003, Gaussian, Inc.),
 the Gaussian(R) 98 system (copyright 1998, Gaussian, Inc.),
 the Gaussian(R) 94 system (copyright 1995, Gaussian, Inc.),
 the Gaussian 92(TM) system (copyright 1992, Gaussian, Inc.),
 the Gaussian 90(TM) system (copyright 1990, Gaussian, Inc.),
 the Gaussian 88(TM) system (copyright 1988, Gaussian, Inc.),
 the Gaussian 86(TM) system (copyright 1986, Carnegie Mellon
 University), and the Gaussian 82(TM) system (copyright 1983,
 Carnegie Mellon University). Gaussian is a federally registered
 trademark of Gaussian, Inc.
  
 This software contains proprietary and confidential information,
 including trade secrets, belonging to Gaussian, Inc.
  
 This software is provided under written license and may be
 used, copied, transmitted, or stored only in accord with that
 written license.
  
 The following legend is applicable only to US Government
 contracts under FAR:
  
                    RESTRICTED RIGHTS LEGEND
  
 Use, reproduction and disclosure by the US Government is
 subject to restrictions as set forth in subparagraphs (a)
 and (c) of the Commercial Computer Software - Restricted
 Rights clause in FAR 52.227-19.
  
 Gaussian, Inc.
 340 Quinnipiac St., Bldg. 40, Wallingford CT 06492
  
  
 ---------------------------------------------------------------
 Warning -- This program may not be used in any manner that
 competes with the business of Gaussian, Inc. or will provide
 assistance to any competitor of Gaussian, Inc.  The licensee
 of this program is prohibited from giving any competitor of
 Gaussian, Inc. access to this program.  By using this program,
 the user acknowledges that Gaussian, Inc. is engaged in the
 business of creating and licensing software in the field of
 computational chemistry and represents and warrants to the
 licensee that it is not a competitor of Gaussian, Inc. and that
 it will not use this program in any manner prohibited above.
 ---------------------------------------------------------------
  

 Cite this work as:
 Gaussian 16, Revision A.03,
 M. J. Frisch, G. W. Trucks, H. B. Schlegel, G. E. Scuseria, 
 M. A. Robb, J. R. Cheeseman, G. Scalmani, V. Barone, 
 G. A. Petersson, H. Nakatsuji, X. Li, M. Caricato, A. V. Marenich, 
 J. Bloino, B. G. Janesko, R. Gomperts, B. Mennucci, H. P. Hratchian, 
 J. V. Ortiz, A. F. Izmaylov, J. L. Sonnenberg, D. Williams-Young, 
 F. Ding, F. Lipparini, F. Egidi, J. Goings, B. Peng, A. Petrone, 
 T. Henderson, D. Ranasinghe, V. G. Zakrzewski, J. Gao, N. Rega, 
 G. Zheng, W. Liang, M. Hada, M. Ehara, K. Toyota, R. Fukuda, 
 J. Hasegawa, M. Ishida, T. Nakajima, Y. Honda, O. Kitao, H. Nakai, 
 T. Vreven, K. Throssell, J. A. Montgomery, Jr., J. E. Peralta, 
 F. Ogliaro, M. J. Bearpark, J. J. Heyd, E. N. Brothers, K. N. Kudin, 
 V. N. Staroverov, T. A. Keith, R. Kobayashi, J. Normand, 
 K. Raghavachari, A. P. Rendell, J. C. Burant, S. S. Iyengar, 
 J. Tomasi, M. Cossi, J. M. Millam, M. Klene, C. Adamo, R. Cammi, 
 J. W. Ochterski, R. L. Martin, K. Morokuma, O. Farkas, 
 J. B. Foresman, and D. J. Fox, Gaussian, Inc., Wallingford CT, 2016.
 
 ******************************************
 Gaussian 16:  EM64L-G16RevA.03 25-Dec-2016
                26-Jan-2018 
 ******************************************
 %nprocshared=32
 Will use up to   32 processors via shared memory.
 %mem=32GB
 %chk=allatoms_t.chk
 ---------------------------------------
 #p wb97xd/cc-pvdz sp scf=(maxcycles=20)
 ---------------------------------------
 1/38=1,172=1/1;
 2/12=2,17=6,18=5,40=1/2;
 3/5=16,11=2,25=1,30=1,74=-58/1,2,3;
 4//1;
 5/5=2,7=20,38=5/2;
 6/7=2,8=2,9=2,10=2,28=1/1;
 99/5=1,9=1/99;
 Leave Link    1 at Fri Jan 26 16:43:30 2018, MaxMem=  4294967296 cpu:               2.7 elap:               0.1
 (Enter /share/apps/g16/l101.exe)
 ------------------
 Base pair stacking
 ------------------
 Symbolic Z-matrix:
 Charge =  0 Multiplicity = 1
 N                     8.25121   1.61398  -7.18293 
 C                     9.61547   2.15655  -7.33262 
 C                     6.07336   1.4274   -6.93905 
 N                     6.56888   0.1332   -7.00418 
 C                     7.86112   0.29741  -7.1485 
 H                     8.58339  -0.51479  -7.23568 
 N                     4.6212    3.2775   -6.7622 
 C                     5.70915   4.04578  -6.87916 
 H                     5.52577   5.11901  -6.85077 
 N                     6.98363   3.68904  -7.02523 
 C                     7.0985    2.35086  -7.04782 
 C                     4.77005   1.93503  -6.78864 
 N                     3.68523   1.16645  -6.67204 
 H                     3.74835   0.16793  -6.68634 
 H                     2.77293   1.5623   -6.56646 
 H                     10.00547   1.84697  -8.19995 
 H                     9.5808    3.15545  -7.32152 
 H                     10.18847   1.83619  -6.57828 
 N                     3.88097   5.61461  -3.37705 
 C                     2.61661   5.08104  -3.30811 
 C                     4.19697   7.05555  -3.44423 
 N                    -0.82763   5.51179  -3.19231 
 H                    -1.64184   4.93433  -3.13898 
 H                    -0.97416   6.50083  -3.22447 
 N                     1.45982   5.77786  -3.29031 
 C                     0.4057    4.98448  -3.21952 
 N                     0.47685   3.61335  -3.16987 
 H                    -0.38149   3.08666  -3.11679 
 C                     1.65618   2.87528  -3.18696 
 O                     1.61023   1.63988  -3.13799 
 C                     2.79719   3.71387  -3.26281 
 N                     4.14774   3.39554  -3.30251 
 C                     4.75065   4.55147  -3.36982 
 H                     5.83184   4.68611  -3.41649 
 H                     4.69596   7.25007  -4.28802 
 H                     3.34774   7.58178  -3.43173 
 H                     4.75854   7.31233  -2.65841 
 H                    -5.01502   1.03033  -3.50996 
 H                    -4.84848   0.83363  -1.76691 
 H                    -4.08097   2.19987  -2.57665 
 H                    -2.14709  -2.82826  -3.32882 
 C                    -2.08265  -1.7463   -3.21288 
 O                     0.2785   -1.67879  -3.43086 
 C                    -0.80101  -1.11177  -3.26373 
 H                     0.05456   0.74297  -3.13618 
 N                    -0.83187   0.25916  -3.10608 
 O                    -1.86678   2.25444  -2.78204 
 C                    -1.94002   1.04509  -2.91152 
 H                    -4.17959  -1.44049  -2.97802 
 C                    -3.18165  -1.00652  -3.0244 
 C                    -4.35053   1.15822  -2.66844 
 N                    -3.13868   0.36022  -2.87427 
 H                    -2.34051   6.99549  -6.13493 
 H                    -0.95157   6.85324  -5.29072 
 H                    -2.38765   6.68623  -4.53319 
 H                     0.18955   0.03316  -6.57127 
 H                    -1.47369   0.41148  -6.54662 
 N                    -0.52657   0.72221  -6.45931 
 C                    -0.23267   1.99895  -6.20487 
 C                    -0.74223   4.28393  -5.77953 
 N                     0.53869   4.67266  -5.66752 
 H                     2.42004   3.86584  -5.76837 
 C                     1.35769   3.63762  -5.84313 
 N                     1.06528   2.35814  -6.09806 
 H                    -3.96091   4.58563  -5.81475 
 C                    -2.93295   4.2242   -5.85456 
 N                    -2.58862   2.98064  -6.0841 
 C                    -1.2022    3.00468  -6.03927 
 C                    -1.88812   6.51633  -5.38277 
 N                    -1.86584   5.0672   -5.66124 
 
 ITRead=  0  0  0  0  0  0  0  0  0  0  0  0  0  0  0  0  0  0  0  0
 ITRead=  0  0  0  0  0  0  0  0  0  0  0  0  0  0  0  0  0  0  0  0
 ITRead=  0  0  0  0  0  0  0  0  0  0  0  0  0  0  0  0  0  0  0  0
 ITRead=  0  0  0  0  0  0  0  0  0  0
 MicOpt= -1 -1 -1 -1 -1 -1 -1 -1 -1 -1 -1 -1 -1 -1 -1 -1 -1 -1 -1 -1
 MicOpt= -1 -1 -1 -1 -1 -1 -1 -1 -1 -1 -1 -1 -1 -1 -1 -1 -1 -1 -1 -1
 MicOpt= -1 -1 -1 -1 -1 -1 -1 -1 -1 -1 -1 -1 -1 -1 -1 -1 -1 -1 -1 -1
 MicOpt= -1 -1 -1 -1 -1 -1 -1 -1 -1 -1
 NAtoms=     70 NQM=       70 NQMF=       0 NMMI=      0 NMMIF=      0
                NMic=       0 NMicF=      0.
                    Isotopes and Nuclear Properties:
 (Nuclear quadrupole moments (NQMom) in fm**2, nuclear magnetic moments (NMagM)
  in nuclear magnetons)

  Atom         1           2           3           4           5           6           7           8           9          10
 IAtWgt=          14          12          12          14          12           1          14          12           1          14
 AtmWgt=  14.0030740  12.0000000  12.0000000  14.0030740  12.0000000   1.0078250  14.0030740  12.0000000   1.0078250  14.0030740
 NucSpn=           2           0           0           2           0           1           2           0           1           2
 AtZEff=  -0.0000000  -0.0000000  -0.0000000  -0.0000000  -0.0000000  -0.0000000  -0.0000000  -0.0000000  -0.0000000  -0.0000000
 NQMom=    2.0440000   0.0000000   0.0000000   2.0440000   0.0000000   0.0000000   2.0440000   0.0000000   0.0000000   2.0440000
 NMagM=    0.4037610   0.0000000   0.0000000   0.4037610   0.0000000   2.7928460   0.4037610   0.0000000   2.7928460   0.4037610
 AtZNuc=   7.0000000   6.0000000   6.0000000   7.0000000   6.0000000   1.0000000   7.0000000   6.0000000   1.0000000   7.0000000

  Atom        11          12          13          14          15          16          17          18          19          20
 IAtWgt=          12          12          14           1           1           1           1           1          14          12
 AtmWgt=  12.0000000  12.0000000  14.0030740   1.0078250   1.0078250   1.0078250   1.0078250   1.0078250  14.0030740  12.0000000
 NucSpn=           0           0           2           1           1           1           1           1           2           0
 AtZEff=  -0.0000000  -0.0000000  -0.0000000  -0.0000000  -0.0000000  -0.0000000  -0.0000000  -0.0000000  -0.0000000  -0.0000000
 NQMom=    0.0000000   0.0000000   2.0440000   0.0000000   0.0000000   0.0000000   0.0000000   0.0000000   2.0440000   0.0000000
 NMagM=    0.0000000   0.0000000   0.4037610   2.7928460   2.7928460   2.7928460   2.7928460   2.7928460   0.4037610   0.0000000
 AtZNuc=   6.0000000   6.0000000   7.0000000   1.0000000   1.0000000   1.0000000   1.0000000   1.0000000   7.0000000   6.0000000

  Atom        21          22          23          24          25          26          27          28          29          30
 IAtWgt=          12          14           1           1          14          12          14           1          12          16
 AtmWgt=  12.0000000  14.0030740   1.0078250   1.0078250  14.0030740  12.0000000  14.0030740   1.0078250  12.0000000  15.9949146
 NucSpn=           0           2           1           1           2           0           2           1           0           0
 AtZEff=  -0.0000000  -0.0000000  -0.0000000  -0.0000000  -0.0000000  -0.0000000  -0.0000000  -0.0000000  -0.0000000  -0.0000000
 NQMom=    0.0000000   2.0440000   0.0000000   0.0000000   2.0440000   0.0000000   2.0440000   0.0000000   0.0000000   0.0000000
 NMagM=    0.0000000   0.4037610   2.7928460   2.7928460   0.4037610   0.0000000   0.4037610   2.7928460   0.0000000   0.0000000
 AtZNuc=   6.0000000   7.0000000   1.0000000   1.0000000   7.0000000   6.0000000   7.0000000   1.0000000   6.0000000   8.0000000

  Atom        31          32          33          34          35          36          37          38          39          40
 IAtWgt=          12          14          12           1           1           1           1           1           1           1
 AtmWgt=  12.0000000  14.0030740  12.0000000   1.0078250   1.0078250   1.0078250   1.0078250   1.0078250   1.0078250   1.0078250
 NucSpn=           0           2           0           1           1           1           1           1           1           1
 AtZEff=  -0.0000000  -0.0000000  -0.0000000  -0.0000000  -0.0000000  -0.0000000  -0.0000000  -0.0000000  -0.0000000  -0.0000000
 NQMom=    0.0000000   2.0440000   0.0000000   0.0000000   0.0000000   0.0000000   0.0000000   0.0000000   0.0000000   0.0000000
 NMagM=    0.0000000   0.4037610   0.0000000   2.7928460   2.7928460   2.7928460   2.7928460   2.7928460   2.7928460   2.7928460
 AtZNuc=   6.0000000   7.0000000   6.0000000   1.0000000   1.0000000   1.0000000   1.0000000   1.0000000   1.0000000   1.0000000

  Atom        41          42          43          44          45          46          47          48          49          50
 IAtWgt=           1          12          16          12           1          14          16          12           1          12
 AtmWgt=   1.0078250  12.0000000  15.9949146  12.0000000   1.0078250  14.0030740  15.9949146  12.0000000   1.0078250  12.0000000
 NucSpn=           1           0           0           0           1           2           0           0           1           0
 AtZEff=  -0.0000000  -0.0000000  -0.0000000  -0.0000000  -0.0000000  -0.0000000  -0.0000000  -0.0000000  -0.0000000  -0.0000000
 NQMom=    0.0000000   0.0000000   0.0000000   0.0000000   0.0000000   2.0440000   0.0000000   0.0000000   0.0000000   0.0000000
 NMagM=    2.7928460   0.0000000   0.0000000   0.0000000   2.7928460   0.4037610   0.0000000   0.0000000   2.7928460   0.0000000
 AtZNuc=   1.0000000   6.0000000   8.0000000   6.0000000   1.0000000   7.0000000   8.0000000   6.0000000   1.0000000   6.0000000

  Atom        51          52          53          54          55          56          57          58          59          60
 IAtWgt=          12          14           1           1           1           1           1          14          12          12
 AtmWgt=  12.0000000  14.0030740   1.0078250   1.0078250   1.0078250   1.0078250   1.0078250  14.0030740  12.0000000  12.0000000
 NucSpn=           0           2           1           1           1           1           1           2           0           0
 AtZEff=  -0.0000000  -0.0000000  -0.0000000  -0.0000000  -0.0000000  -0.0000000  -0.0000000  -0.0000000  -0.0000000  -0.0000000
 NQMom=    0.0000000   2.0440000   0.0000000   0.0000000   0.0000000   0.0000000   0.0000000   2.0440000   0.0000000   0.0000000
 NMagM=    0.0000000   0.4037610   2.7928460   2.7928460   2.7928460   2.7928460   2.7928460   0.4037610   0.0000000   0.0000000
 AtZNuc=   6.0000000   7.0000000   1.0000000   1.0000000   1.0000000   1.0000000   1.0000000   7.0000000   6.0000000   6.0000000

  Atom        61          62          63          64          65          66          67          68          69          70
 IAtWgt=          14           1          12          14           1          12          14          12          12          14
 AtmWgt=  14.0030740   1.0078250  12.0000000  14.0030740   1.0078250  12.0000000  14.0030740  12.0000000  12.0000000  14.0030740
 NucSpn=           2           1           0           2           1           0           2           0           0           2
 AtZEff=  -0.0000000  -0.0000000  -0.0000000  -0.0000000  -0.0000000  -0.0000000  -0.0000000  -0.0000000  -0.0000000  -0.0000000
 NQMom=    2.0440000   0.0000000   0.0000000   2.0440000   0.0000000   0.0000000   2.0440000   0.0000000   0.0000000   2.0440000
 NMagM=    0.4037610   2.7928460   0.0000000   0.4037610   2.7928460   0.0000000   0.4037610   0.0000000   0.0000000   0.4037610
 AtZNuc=   7.0000000   1.0000000   6.0000000   7.0000000   1.0000000   6.0000000   7.0000000   6.0000000   6.0000000   7.0000000
 Leave Link  101 at Fri Jan 26 16:43:30 2018, MaxMem=  4294967296 cpu:               7.8 elap:               0.3
 (Enter /share/apps/g16/l202.exe)
 Stoichiometry    C23H27N17O3
 Framework group  C1[X(C23H27N17O3)]
 Deg. of freedom   204
 Full point group                 C1      NOp   1
 Largest Abelian subgroup         C1      NOp   1
 Largest concise Abelian subgroup C1      NOp   1
                         Standard orientation:                         
 ---------------------------------------------------------------------
 Center     Atomic      Atomic             Coordinates (Angstroms)
 Number     Number       Type             X           Y           Z
 ---------------------------------------------------------------------
      1          7           0       -6.935516   -1.597431    0.255603
      2          6           0       -8.321536   -1.133183    0.052091
      3          6           0       -4.769595   -1.662546    0.632256
      4          7           0       -5.170600   -2.977365    0.444683
      5          6           0       -6.459436   -2.885507    0.225270
      6          1           0       -7.117717   -3.733400    0.033732
      7          7           0       -3.460999    0.258176    1.033898
      8          6           0       -4.589353    0.962234    0.897190
      9          1           0       -4.481765    2.039974    1.011898
     10          7           0       -5.824850    0.536860    0.641252
     11          6           0       -5.846511   -0.800649    0.518649
     12          6           0       -3.515957   -1.085479    0.904863
     13          7           0       -2.390679   -1.790009    1.040992
     14          1           0       -2.384501   -2.786778    0.953552
     15          1           0       -1.515931   -1.345767    1.234898
     16          1           0       -8.917054   -1.544675    0.742187
     17          1           0       -8.355866   -0.137611    0.134453
     18          1           0       -8.634816   -1.401600   -0.858841
     19          7           0       -1.964786    2.951835   -1.790073
     20          6           0       -0.697737    2.484070   -1.537415
     21          6           0       -2.387982    4.363536   -1.696892
     22          7           0        2.600324    3.075643   -0.623859
     23          1           0        3.435318    2.542847   -0.489115
     24          1           0        2.661553    4.062027   -0.468935
     25          7           0        0.364976    3.229502   -1.164574
     26          6           0        1.449732    2.494395   -0.995596
     27          7           0        1.492578    1.133270   -1.177334
     28          1           0        2.366141    0.652862   -1.025470
     29          6           0        0.411413    0.345911   -1.560748
     30          8           0        0.556528   -0.875200   -1.696958
     31          6           0       -0.761112    1.121623   -1.746072
     32          7           0       -2.042170    0.741693   -2.122158
     33          6           0       -2.719803    1.857425   -2.134861
     34          1           0       -3.777093    1.938939   -2.389365
     35          1           0       -3.116814    4.450679   -1.018644
     36          1           0       -1.609014    4.925309   -1.421418
     37          1           0       -2.722271    4.672459   -2.586627
     38          1           0        6.834832   -1.226167    0.508392
     39          1           0        7.180143   -1.255062   -1.219200
     40          1           0        6.121090   -0.011634   -0.553127
     41          1           0        4.414252   -5.170071   -0.808031
     42          6           0        4.308725   -4.085839   -0.847258
     43          8           0        1.983110   -4.144578   -1.311118
     44          6           0        3.023094   -3.516673   -1.113749
     45          1           0        2.109133   -1.697994   -1.326841
     46          7           0        3.000074   -2.136833   -1.141423
     47          8           0        3.940566   -0.075500   -0.987909
     48          6           0        4.059709   -1.287325   -0.943822
     49          1           0        6.359864   -3.665972   -0.444296
     50          6           0        5.361155   -3.283216   -0.650315
     51          6           0        6.426852   -1.044343   -0.474741
     52          7           0        5.265664   -1.911546   -0.692345
     53          1           0        3.114619    4.323477    2.741790
     54          1           0        2.033247    4.205106    1.525771
     55          1           0        3.632580    4.178011    1.201014
     56          1           0        1.062968   -2.752371    1.853681
     57          1           0        2.634770   -2.300527    2.338837
     58          7           0        1.731049   -2.024691    2.009573
     59          6           0        1.431167   -0.743134    1.788516
     60          6           0        1.876969    1.593120    1.718688
     61          7           0        0.655262    1.934240    1.276554
     62          1           0       -1.116412    1.039234    0.765928
     63          6           0       -0.104724    0.851747    1.123135
     64          7           0        0.193788   -0.432647    1.344004
     65          1           0        4.925788    2.031396    2.700923
     66          6           0        3.956444    1.622834    2.413923
     67          7           0        3.650246    0.348609    2.430843
     68          6           0        2.334455    0.315861    1.992245
     69          6           0        2.927370    3.902307    1.854350
     70          7           0        2.930112    2.433053    1.993291
 ---------------------------------------------------------------------
 Rotational constants (GHZ):           0.1268068           0.0540678           0.0455317
 Leave Link  202 at Fri Jan 26 16:43:30 2018, MaxMem=  4294967296 cpu:               0.4 elap:               0.0
 (Enter /share/apps/g16/l301.exe)
 Standard basis: CC-pVDZ (5D, 7F)
 Ernie: Thresh=  0.10000D-02 Tol=  0.10000D-05 Strict=F.
 Ernie:  86 primitive shells out of 1081 were deleted.
 There are   780 symmetry adapted cartesian basis functions of A   symmetry.
 There are   737 symmetry adapted basis functions of A   symmetry.
   737 basis functions,  1608 primitive gaussians,   780 cartesian basis functions
   154 alpha electrons      154 beta electrons
       nuclear repulsion energy      5445.9541667700 Hartrees.
 IExCor= 4639 DFT=T Ex+Corr=wB97XD ExCW=0 ScaHFX=  1.000000
 ScaDFX=  1.000000  1.000000  1.000000  1.000000 ScalE2=  1.000000  1.000000
 IRadAn=      5 IRanWt=     -1 IRanGd=            0 ICorTp=0 IEmpDi=121
 HFx  wShort=  0.000000 wLong=  0.200000 cFull=  0.222036 cShort=  0.000000 cLong=  0.777964
 DFx  wShort=  0.000000 wLong=  0.200000 cFull=  0.000000 cShort=  0.000000 cLong=  1.000000
 NAtoms=   70 NActive=   70 NUniq=   70 SFac= 1.00D+00 NAtFMM=   60 NAOKFM=T Big=T
 Integral buffers will be    131072 words long.
 Raffenetti 2 integral format.
 Two-electron integral symmetry is turned on.
 R6Disp:  Grimme-D2 Dispersion energy=       -0.0683602474 Hartrees.
 Nuclear repulsion after empirical dispersion term =     5445.8858065226 Hartrees.
 Leave Link  301 at Fri Jan 26 16:43:31 2018, MaxMem=  4294967296 cpu:               3.0 elap:               0.1
 (Enter /share/apps/g16/l302.exe)
 NPDir=0 NMtPBC=     1 NCelOv=     1 NCel=       1 NClECP=     1 NCelD=      1
         NCelK=      1 NCelE2=     1 NClLst=     1 CellRange=     0.0.
 One-electron integrals computed using PRISM.
 One-electron integral symmetry used in STVInt
 NBasis=   737 RedAO= T EigKep=  6.98D-04  NBF=   737
 NBsUse=   737 1.00D-06 EigRej= -1.00D+00 NBFU=   737
 Precomputing XC quadrature grid using
 IXCGrd= 4 IRadAn=           5 IRanWt=          -1 IRanGd=           0 AccXCQ= 0.00D+00.
 Generated NRdTot=       0 NPtTot=           0 NUsed=           0 NTot=          32
 NSgBfM=   764   763   764   764   764 MxSgAt=    70 MxSgA2=    70.
 Leave Link  302 at Fri Jan 26 16:43:35 2018, MaxMem=  4294967296 cpu:             137.5 elap:               4.3
 (Enter /share/apps/g16/l303.exe)
 DipDrv:  MaxL=1.
 Leave Link  303 at Fri Jan 26 16:43:35 2018, MaxMem=  4294967296 cpu:              12.3 elap:               0.4
 (Enter /share/apps/g16/l401.exe)
 ExpMin= 1.22D-01 ExpMax= 1.17D+04 ExpMxC= 4.01D+02 IAcc=3 IRadAn=         5 AccDes= 0.00D+00
 Harris functional with IExCor= 4639 and IRadAn=       5 diagonalized for initial guess.
 HarFok:  IExCor= 4639 AccDes= 0.00D+00 IRadAn=         5 IDoV= 1 UseB2=F ITyADJ=14
 ICtDFT=  3500011 ScaDFX=  1.000000  1.000000  1.000000  1.000000
 FoFCou: FMM=F IPFlag=           0 FMFlag=      100000 FMFlg1=        2001
         NFxFlg=           0 DoJE=T BraDBF=F KetDBF=T FulRan=T
         wScrn=  0.000000 ICntrl=       500 IOpCl=  0 I1Cent=   200000004 NGrid=           0
         NMat0=    1 NMatS0=      1 NMatT0=    0 NMatD0=    1 NMtDS0=    0 NMtDT0=    0
 Petite list used in FoFCou.
 Harris En= -1963.84050340264    
 JPrj=0 DoOrth=F DoCkMO=F.
 Leave Link  401 at Fri Jan 26 16:43:48 2018, MaxMem=  4294967296 cpu:             390.5 elap:              12.2
 (Enter /share/apps/g16/l502.exe)
 Integral symmetry usage will be decided dynamically.
 Closed shell SCF:
 Using DIIS extrapolation, IDIIS=  1040.
 NGot=  4294967296 LenX=  4293717438 LenY=  4293108258
 Requested convergence on RMS density matrix=1.00D-08 within  20 cycles.
 Requested convergence on MAX density matrix=1.00D-06.
 Requested convergence on             energy=1.00D-06.
 No special actions if energy rises.
 Fock matrices will be formed incrementally for  20 cycles.
 Integral accuracy reduced to 1.0D-05 until final iterations.

 Cycle   1  Pass 0  IDiag  1:
 FoFJK:  IHMeth= 1 ICntrl=       0 DoSepK=T KAlg= 0 I1Cent=           0 FoldK=F
 IRaf=         1 NMat=       1 IRICut=       1 DoRegI=T DoRafI=F ISym2E= 0 IDoP0=0 IntGTp=1.
 FoFCou: FMM=T IPFlag=           0 FMFlag=      100000 FMFlg1=        2001
         NFxFlg=           0 DoJE=T BraDBF=F KetDBF=F FulRan=T
         wScrn=  0.000000 ICntrl=       500 IOpCl=  0 I1Cent=           0 NGrid=           0
         NMat0=    1 NMatS0=      1 NMatT0=    0 NMatD0=    1 NMtDS0=    0 NMtDT0=    0
 Symmetry not used in FoFCou.
 FMM levels:  10  Number of levels for PrismC:   9
 E= -2048.27538850845    
 DIIS: error= 2.35D-02 at cycle   1 NSaved=   1.
 NSaved= 1 IEnMin= 1 EnMin= -2048.27538850845     IErMin= 1 ErrMin= 2.35D-02
 ErrMax= 2.35D-02  0.00D+00 EMaxC= 1.00D-01 BMatC= 8.33D-01 BMatP= 8.33D-01
 IDIUse=3 WtCom= 7.65D-01 WtEn= 2.35D-01
 Coeff-Com:  0.100D+01
 Coeff-En:   0.100D+01
 Coeff:      0.100D+01
 Gap=     0.260 Goal=   None    Shift=    0.000
 GapD=    0.260 DampG=1.000 DampE=0.500 DampFc=0.5000 IDamp=-1.
 Damping current iteration by 5.00D-01
 RMSDP=1.59D-03 MaxDP=1.30D-01              OVMax= 2.10D-01

 Cycle   2  Pass 0  IDiag  1:
 RMSU=  7.96D-04    CP:  9.98D-01
 E= -2048.47371658751     Delta-E=       -0.198328079061 Rises=F Damp=T
 DIIS: error= 1.26D-02 at cycle   2 NSaved=   2.
 NSaved= 2 IEnMin= 2 EnMin= -2048.47371658751     IErMin= 2 ErrMin= 1.26D-02
 ErrMax= 1.26D-02  0.00D+00 EMaxC= 1.00D-01 BMatC= 1.45D-01 BMatP= 8.33D-01
 IDIUse=3 WtCom= 8.74D-01 WtEn= 1.26D-01
 Coeff-Com: -0.194D+00 0.119D+01
 Coeff-En:   0.000D+00 0.100D+01
 Coeff:     -0.170D+00 0.117D+01
 Gap=     0.368 Goal=   None    Shift=    0.000
 RMSDP=5.93D-04 MaxDP=3.39D-02 DE=-1.98D-01 OVMax= 1.56D-01

 Cycle   3  Pass 0  IDiag  1:
 RMSU=  5.82D-04    CP:  9.94D-01  1.14D+00
 E= -2048.65592464285     Delta-E=       -0.182208055337 Rises=F Damp=F
 DIIS: error= 7.48D-03 at cycle   3 NSaved=   3.
 NSaved= 3 IEnMin= 3 EnMin= -2048.65592464285     IErMin= 3 ErrMin= 7.48D-03
 ErrMax= 7.48D-03  0.00D+00 EMaxC= 1.00D-01 BMatC= 6.22D-02 BMatP= 1.45D-01
 IDIUse=3 WtCom= 9.25D-01 WtEn= 7.48D-02
 Coeff-Com: -0.230D+00 0.544D+00 0.686D+00
 Coeff-En:   0.000D+00 0.000D+00 0.100D+01
 Coeff:     -0.213D+00 0.504D+00 0.709D+00
 Gap=     0.279 Goal=   None    Shift=    0.000
 RMSDP=3.53D-04 MaxDP=3.36D-02 DE=-1.82D-01 OVMax= 5.77D-02

 Cycle   4  Pass 0  IDiag  1:
 RMSU=  2.04D-04    CP:  9.94D-01  1.41D+00  6.82D-01
 E= -2048.70298881396     Delta-E=       -0.047064171113 Rises=F Damp=F
 DIIS: error= 3.74D-03 at cycle   4 NSaved=   4.
 NSaved= 4 IEnMin= 4 EnMin= -2048.70298881396     IErMin= 4 ErrMin= 3.74D-03
 ErrMax= 3.74D-03  0.00D+00 EMaxC= 1.00D-01 BMatC= 8.97D-03 BMatP= 6.22D-02
 IDIUse=3 WtCom= 9.63D-01 WtEn= 3.74D-02
 Coeff-Com: -0.957D-01 0.186D+00 0.380D+00 0.530D+00
 Coeff-En:   0.000D+00 0.000D+00 0.616D-01 0.938D+00
 Coeff:     -0.921D-01 0.179D+00 0.368D+00 0.545D+00
 Gap=     0.283 Goal=   None    Shift=    0.000
 RMSDP=1.29D-04 MaxDP=1.23D-02 DE=-4.71D-02 OVMax= 1.24D-02

 Cycle   5  Pass 0  IDiag  1:
 RMSU=  6.28D-05    CP:  9.94D-01  1.39D+00  8.13D-01  6.11D-01
 E= -2048.71033653531     Delta-E=       -0.007347721350 Rises=F Damp=F
 DIIS: error= 7.04D-04 at cycle   5 NSaved=   5.
 NSaved= 5 IEnMin= 5 EnMin= -2048.71033653531     IErMin= 5 ErrMin= 7.04D-04
 ErrMax= 7.04D-04  0.00D+00 EMaxC= 1.00D-01 BMatC= 3.27D-04 BMatP= 8.97D-03
 IDIUse=3 WtCom= 9.93D-01 WtEn= 7.04D-03
 Coeff-Com: -0.252D-01 0.432D-01 0.123D+00 0.248D+00 0.611D+00
 Coeff-En:   0.000D+00 0.000D+00 0.000D+00 0.000D+00 0.100D+01
 Coeff:     -0.250D-01 0.429D-01 0.122D+00 0.247D+00 0.613D+00
 Gap=     0.283 Goal=   None    Shift=    0.000
 RMSDP=2.75D-05 MaxDP=2.07D-03 DE=-7.35D-03 OVMax= 3.65D-03

 Failed to achieve initial convergence to 1.0D-08 in  6 cycles.
 Switch to full accuracy anyway.
 Cycle   6  Pass 1  IDiag  1:
 E= -2048.71091915674     Delta-E=       -0.000582621428 Rises=F Damp=F
 DIIS: error= 2.18D-04 at cycle   1 NSaved=   1.
 NSaved= 1 IEnMin= 1 EnMin= -2048.71091915674     IErMin= 1 ErrMin= 2.18D-04
 ErrMax= 2.18D-04  0.00D+00 EMaxC= 1.00D-01 BMatC= 7.26D-05 BMatP= 7.26D-05
 IDIUse=3 WtCom= 9.98D-01 WtEn= 2.18D-03
 Coeff-Com:  0.100D+01
 Coeff-En:   0.100D+01
 Coeff:      0.100D+01
 Gap=     0.282 Goal=   None    Shift=    0.000
 RMSDP=2.75D-05 MaxDP=2.07D-03 DE=-5.83D-04 OVMax= 2.58D-03

 Cycle   7  Pass 1  IDiag  1:
 RMSU=  1.03D-04    CP:  1.00D+00
 E= -2048.71096985625     Delta-E=       -0.000050699516 Rises=F Damp=F
 DIIS: error= 2.46D-04 at cycle   2 NSaved=   2.
 NSaved= 2 IEnMin= 2 EnMin= -2048.71096985625     IErMin= 1 ErrMin= 2.18D-04
 ErrMax= 2.46D-04  0.00D+00 EMaxC= 1.00D-01 BMatC= 4.53D-05 BMatP= 7.26D-05
 IDIUse=3 WtCom= 9.98D-01 WtEn= 2.46D-03
 Coeff-Com:  0.422D+00 0.578D+00
 Coeff-En:   0.138D-01 0.986D+00
 Coeff:      0.421D+00 0.579D+00
 Gap=     0.283 Goal=   None    Shift=    0.000
 RMSDP=1.15D-05 MaxDP=1.06D-03 DE=-5.07D-05 OVMax= 1.58D-03

 Cycle   8  Pass 1  IDiag  1:
 RMSU=  1.13D-05    CP:  1.00D+00  1.02D+00
 E= -2048.71100331155     Delta-E=       -0.000033455299 Rises=F Damp=F
 DIIS: error= 1.28D-04 at cycle   3 NSaved=   3.
 NSaved= 3 IEnMin= 3 EnMin= -2048.71100331155     IErMin= 3 ErrMin= 1.28D-04
 ErrMax= 1.28D-04  0.00D+00 EMaxC= 1.00D-01 BMatC= 9.54D-06 BMatP= 4.53D-05
 IDIUse=3 WtCom= 9.99D-01 WtEn= 1.28D-03
 Coeff-Com: -0.186D-01 0.300D+00 0.719D+00
 Coeff-En:   0.000D+00 0.114D+00 0.886D+00
 Coeff:     -0.186D-01 0.300D+00 0.719D+00
 Gap=     0.283 Goal=   None    Shift=    0.000
 RMSDP=5.58D-06 MaxDP=4.31D-04 DE=-3.35D-05 OVMax= 5.66D-04

 Cycle   9  Pass 1  IDiag  1:
 RMSU=  3.87D-06    CP:  1.00D+00  1.05D+00  7.72D-01
 E= -2048.71101238811     Delta-E=       -0.000009076556 Rises=F Damp=F
 DIIS: error= 4.52D-05 at cycle   4 NSaved=   4.
 NSaved= 4 IEnMin= 4 EnMin= -2048.71101238811     IErMin= 4 ErrMin= 4.52D-05
 ErrMax= 4.52D-05  0.00D+00 EMaxC= 1.00D-01 BMatC= 5.19D-07 BMatP= 9.54D-06
 IDIUse=1 WtCom= 1.00D+00 WtEn= 0.00D+00
 Coeff-Com: -0.326D-01 0.816D-01 0.269D+00 0.682D+00
 Coeff:     -0.326D-01 0.816D-01 0.269D+00 0.682D+00
 Gap=     0.283 Goal=   None    Shift=    0.000
 RMSDP=1.45D-06 MaxDP=1.26D-04 DE=-9.08D-06 OVMax= 4.93D-04

 Cycle  10  Pass 1  IDiag  1:
 RMSU=  1.30D-06    CP:  1.00D+00  1.05D+00  8.07D-01  1.10D+00
 E= -2048.71101324429     Delta-E=       -0.000000856183 Rises=F Damp=F
 DIIS: error= 1.44D-05 at cycle   5 NSaved=   5.
 NSaved= 5 IEnMin= 5 EnMin= -2048.71101324429     IErMin= 5 ErrMin= 1.44D-05
 ErrMax= 1.44D-05  0.00D+00 EMaxC= 1.00D-01 BMatC= 1.17D-07 BMatP= 5.19D-07
 IDIUse=1 WtCom= 1.00D+00 WtEn= 0.00D+00
 Coeff-Com: -0.363D-02-0.534D-01-0.122D+00 0.198D+00 0.981D+00
 Coeff:     -0.363D-02-0.534D-01-0.122D+00 0.198D+00 0.981D+00
 Gap=     0.283 Goal=   None    Shift=    0.000
 RMSDP=1.21D-06 MaxDP=7.49D-05 DE=-8.56D-07 OVMax= 2.49D-04

 Cycle  11  Pass 1  IDiag  1:
 RMSU=  4.78D-07    CP:  1.00D+00  1.05D+00  8.17D-01  1.38D+00  1.18D+00
 E= -2048.71101350036     Delta-E=       -0.000000256066 Rises=F Damp=F
 DIIS: error= 1.03D-05 at cycle   6 NSaved=   6.
 NSaved= 6 IEnMin= 6 EnMin= -2048.71101350036     IErMin= 6 ErrMin= 1.03D-05
 ErrMax= 1.03D-05  0.00D+00 EMaxC= 1.00D-01 BMatC= 2.78D-08 BMatP= 1.17D-07
 IDIUse=1 WtCom= 1.00D+00 WtEn= 0.00D+00
 Coeff-Com:  0.459D-02-0.422D-01-0.114D+00-0.315D-02 0.521D+00 0.634D+00
 Coeff:      0.459D-02-0.422D-01-0.114D+00-0.315D-02 0.521D+00 0.634D+00
 Gap=     0.283 Goal=   None    Shift=    0.000
 RMSDP=3.58D-07 MaxDP=3.37D-05 DE=-2.56D-07 OVMax= 1.20D-04

 Cycle  12  Pass 1  IDiag  1:
 RMSU=  1.78D-07    CP:  1.00D+00  1.05D+00  8.18D-01  1.44D+00  1.31D+00
                    CP:  9.17D-01
 E= -2048.71101353984     Delta-E=       -0.000000039485 Rises=F Damp=F
 DIIS: error= 1.14D-06 at cycle   7 NSaved=   7.
 NSaved= 7 IEnMin= 7 EnMin= -2048.71101353984     IErMin= 7 ErrMin= 1.14D-06
 ErrMax= 1.14D-06  0.00D+00 EMaxC= 1.00D-01 BMatC= 6.52D-10 BMatP= 2.78D-08
 IDIUse=1 WtCom= 1.00D+00 WtEn= 0.00D+00
 Coeff-Com:  0.889D-03-0.490D-02-0.149D-01-0.796D-02 0.325D-01 0.106D+00
 Coeff-Com:  0.889D+00
 Coeff:      0.889D-03-0.490D-02-0.149D-01-0.796D-02 0.325D-01 0.106D+00
 Coeff:      0.889D+00
 Gap=     0.283 Goal=   None    Shift=    0.000
 RMSDP=8.54D-08 MaxDP=5.35D-06 DE=-3.95D-08 OVMax= 2.40D-05

 Cycle  13  Pass 1  IDiag  1:
 RMSU=  4.87D-08    CP:  1.00D+00  1.05D+00  8.18D-01  1.45D+00  1.33D+00
                    CP:  1.01D+00  1.16D+00
 E= -2048.71101354155     Delta-E=       -0.000000001711 Rises=F Damp=F
 DIIS: error= 5.55D-07 at cycle   8 NSaved=   8.
 NSaved= 8 IEnMin= 8 EnMin= -2048.71101354155     IErMin= 8 ErrMin= 5.55D-07
 ErrMax= 5.55D-07  0.00D+00 EMaxC= 1.00D-01 BMatC= 2.69D-10 BMatP= 6.52D-10
 IDIUse=1 WtCom= 1.00D+00 WtEn= 0.00D+00
 Coeff-Com: -0.712D-03 0.831D-02 0.214D-01-0.997D-03-0.113D+00-0.106D+00
 Coeff-Com:  0.416D+00 0.775D+00
 Coeff:     -0.712D-03 0.831D-02 0.214D-01-0.997D-03-0.113D+00-0.106D+00
 Coeff:      0.416D+00 0.775D+00
 Gap=     0.283 Goal=   None    Shift=    0.000
 RMSDP=4.34D-08 MaxDP=2.33D-06 DE=-1.71D-09 OVMax= 9.56D-06

 Cycle  14  Pass 1  IDiag  1:
 RMSU=  2.51D-08    CP:  1.00D+00  1.05D+00  8.18D-01  1.46D+00  1.33D+00
                    CP:  1.05D+00  1.31D+00  1.11D+00
 E= -2048.71101354198     Delta-E=       -0.000000000429 Rises=F Damp=F
 DIIS: error= 2.22D-07 at cycle   9 NSaved=   9.
 NSaved= 9 IEnMin= 9 EnMin= -2048.71101354198     IErMin= 9 ErrMin= 2.22D-07
 ErrMax= 2.22D-07  0.00D+00 EMaxC= 1.00D-01 BMatC= 2.17D-11 BMatP= 2.69D-10
 IDIUse=1 WtCom= 1.00D+00 WtEn= 0.00D+00
 Coeff-Com: -0.356D-03 0.361D-02 0.949D-02 0.515D-03-0.450D-01-0.501D-01
 Coeff-Com:  0.749D-01 0.276D+00 0.731D+00
 Coeff:     -0.356D-03 0.361D-02 0.949D-02 0.515D-03-0.450D-01-0.501D-01
 Coeff:      0.749D-01 0.276D+00 0.731D+00
 Gap=     0.283 Goal=   None    Shift=    0.000
 RMSDP=1.22D-08 MaxDP=6.96D-07 DE=-4.29D-10 OVMax= 3.21D-06

 Cycle  15  Pass 1  IDiag  1:
 RMSU=  8.47D-09    CP:  1.00D+00  1.05D+00  8.17D-01  1.46D+00  1.33D+00
                    CP:  1.05D+00  1.34D+00  1.24D+00  1.10D+00
 E= -2048.71101354187     Delta-E=        0.000000000111 Rises=F Damp=F
 DIIS: error= 8.23D-08 at cycle  10 NSaved=  10.
 NSaved=10 IEnMin= 9 EnMin= -2048.71101354198     IErMin=10 ErrMin= 8.23D-08
 ErrMax= 8.23D-08  0.00D+00 EMaxC= 1.00D-01 BMatC= 5.31D-12 BMatP= 2.17D-11
 IDIUse=1 WtCom= 1.00D+00 WtEn= 0.00D+00
 Coeff-Com:  0.196D-04-0.452D-03-0.108D-02 0.109D-03 0.740D-02 0.362D-02
 Coeff-Com: -0.629D-01-0.740D-01 0.303D+00 0.824D+00
 Coeff:      0.196D-04-0.452D-03-0.108D-02 0.109D-03 0.740D-02 0.362D-02
 Coeff:     -0.629D-01-0.740D-01 0.303D+00 0.824D+00
 Gap=     0.283 Goal=   None    Shift=    0.000
 RMSDP=6.64D-09 MaxDP=3.22D-07 DE= 1.11D-10 OVMax= 1.27D-06

 SCF Done:  E(RwB97XD) =  -2048.71101354     A.U. after   15 cycles
            NFock= 15  Conv=0.66D-08     -V/T= 2.0053
 KE= 2.037931727924D+03 PE=-1.567269318702D+04 EE= 6.140164639032D+03
 Leave Link  502 at Fri Jan 26 16:54:48 2018, MaxMem=  4294967296 cpu:           20484.3 elap:             660.7
 (Enter /share/apps/g16/l601.exe)
 Copying SCF densities to generalized density rwf, IOpCl= 0 IROHF=0.

 **********************************************************************

            Population analysis using the SCF density.

 **********************************************************************

 Orbital symmetries:
       Occupied  (A) (A) (A) (A) (A) (A) (A) (A) (A) (A) (A) (A)
                 (A) (A) (A) (A) (A) (A) (A) (A) (A) (A) (A) (A)
                 (A) (A) (A) (A) (A) (A) (A) (A) (A) (A) (A) (A)
                 (A) (A) (A) (A) (A) (A) (A) (A) (A) (A) (A) (A)
                 (A) (A) (A) (A) (A) (A) (A) (A) (A) (A) (A) (A)
                 (A) (A) (A) (A) (A) (A) (A) (A) (A) (A) (A) (A)
                 (A) (A) (A) (A) (A) (A) (A) (A) (A) (A) (A) (A)
                 (A) (A) (A) (A) (A) (A) (A) (A) (A) (A) (A) (A)
                 (A) (A) (A) (A) (A) (A) (A) (A) (A) (A) (A) (A)
                 (A) (A) (A) (A) (A) (A) (A) (A) (A) (A) (A) (A)
                 (A) (A) (A) (A) (A) (A) (A) (A) (A) (A) (A) (A)
                 (A) (A) (A) (A) (A) (A) (A) (A) (A) (A) (A) (A)
                 (A) (A) (A) (A) (A) (A) (A) (A) (A) (A)
       Virtual   (A) (A) (A) (A) (A) (A) (A) (A) (A) (A) (A) (A)
                 (A) (A) (A) (A) (A) (A) (A) (A) (A) (A) (A) (A)
                 (A) (A) (A) (A) (A) (A) (A) (A) (A) (A) (A) (A)
                 (A) (A) (A) (A) (A) (A) (A) (A) (A) (A) (A) (A)
                 (A) (A) (A) (A) (A) (A) (A) (A) (A) (A) (A) (A)
                 (A) (A) (A) (A) (A) (A) (A) (A) (A) (A) (A) (A)
                 (A) (A) (A) (A) (A) (A) (A) (A) (A) (A) (A) (A)
                 (A) (A) (A) (A) (A) (A) (A) (A) (A) (A) (A) (A)
                 (A) (A) (A) (A) (A) (A) (A) (A) (A) (A) (A) (A)
                 (A) (A) (A) (A) (A) (A) (A) (A) (A) (A) (A) (A)
                 (A) (A) (A) (A) (A) (A) (A) (A) (A) (A) (A) (A)
                 (A) (A) (A) (A) (A) (A) (A) (A) (A) (A) (A) (A)
                 (A) (A) (A) (A) (A) (A) (A) (A) (A) (A) (A) (A)
                 (A) (A) (A) (A) (A) (A) (A) (A) (A) (A) (A) (A)
                 (A) (A) (A) (A) (A) (A) (A) (A) (A) (A) (A) (A)
                 (A) (A) (A) (A) (A) (A) (A) (A) (A) (A) (A) (A)
                 (A) (A) (A) (A) (A) (A) (A) (A) (A) (A) (A) (A)
                 (A) (A) (A) (A) (A) (A) (A) (A) (A) (A) (A) (A)
                 (A) (A) (A) (A) (A) (A) (A) (A) (A) (A) (A) (A)
                 (A) (A) (A) (A) (A) (A) (A) (A) (A) (A) (A) (A)
                 (A) (A) (A) (A) (A) (A) (A) (A) (A) (A) (A) (A)
                 (A) (A) (A) (A) (A) (A) (A) (A) (A) (A) (A) (A)
                 (A) (A) (A) (A) (A) (A) (A) (A) (A) (A) (A) (A)
                 (A) (A) (A) (A) (A) (A) (A) (A) (A) (A) (A) (A)
                 (A) (A) (A) (A) (A) (A) (A) (A) (A) (A) (A) (A)
                 (A) (A) (A) (A) (A) (A) (A) (A) (A) (A) (A) (A)
                 (A) (A) (A) (A) (A) (A) (A) (A) (A) (A) (A) (A)
                 (A) (A) (A) (A) (A) (A) (A) (A) (A) (A) (A) (A)
                 (A) (A) (A) (A) (A) (A) (A) (A) (A) (A) (A) (A)
                 (A) (A) (A) (A) (A) (A) (A) (A) (A) (A) (A) (A)
                 (A) (A) (A) (A) (A) (A) (A) (A) (A) (A) (A) (A)
                 (A) (A) (A) (A) (A) (A) (A) (A) (A) (A) (A) (A)
                 (A) (A) (A) (A) (A) (A) (A) (A) (A) (A) (A) (A)
                 (A) (A) (A) (A) (A) (A) (A) (A) (A) (A) (A) (A)
                 (A) (A) (A) (A) (A) (A) (A) (A) (A) (A) (A) (A)
                 (A) (A) (A) (A) (A) (A) (A) (A) (A) (A) (A) (A)
                 (A) (A) (A) (A) (A) (A) (A) (A) (A) (A) (A) (A)
                 (A) (A) (A) (A) (A) (A) (A) (A) (A) (A) (A) (A)
                 (A) (A) (A) (A) (A) (A) (A) (A) (A) (A) (A) (A)
                 (A) (A) (A) (A) (A) (A) (A) (A) (A) (A) (A) (A)
                 (A) (A) (A) (A) (A) (A) (A) (A) (A) (A) (A) (A)
                 (A) (A) (A) (A) (A) (A) (A) (A) (A) (A) (A) (A)
                 (A) (A) (A) (A) (A) (A) (A) (A) (A) (A) (A) (A)
                 (A) (A) (A) (A) (A) (A) (A) (A) (A) (A) (A) (A)
                 (A) (A) (A) (A) (A) (A) (A) (A) (A) (A) (A) (A)
                 (A) (A) (A) (A) (A) (A) (A) (A) (A) (A) (A) (A)
                 (A) (A) (A) (A) (A) (A) (A) (A) (A) (A) (A) (A)
                 (A) (A) (A) (A) (A) (A) (A) (A) (A) (A) (A) (A)
                 (A) (A) (A) (A) (A) (A) (A)
 The electronic state is 1-A.
 Alpha  occ. eigenvalues --  -19.25976 -19.22179 -19.20703 -14.52585 -14.51617
 Alpha  occ. eigenvalues --  -14.48937 -14.48896 -14.48037 -14.47187 -14.47045
 Alpha  occ. eigenvalues --  -14.46755 -14.44575 -14.43087 -14.42682 -14.42363
 Alpha  occ. eigenvalues --  -14.41989 -14.41633 -14.41066 -14.40890 -14.40291
 Alpha  occ. eigenvalues --  -10.45624 -10.41423 -10.40292 -10.38857 -10.38333
 Alpha  occ. eigenvalues --  -10.37977 -10.37193 -10.36019 -10.35577 -10.35345
 Alpha  occ. eigenvalues --  -10.34448 -10.34372 -10.34287 -10.33600 -10.33546
 Alpha  occ. eigenvalues --  -10.33402 -10.33257 -10.31689 -10.31277 -10.31059
 Alpha  occ. eigenvalues --  -10.31000 -10.28733 -10.28324  -1.19560  -1.14507
 Alpha  occ. eigenvalues --   -1.13345  -1.13190  -1.11532  -1.10722  -1.09471
 Alpha  occ. eigenvalues --   -1.08939  -1.08174  -1.05137  -1.03727  -1.02665
 Alpha  occ. eigenvalues --   -1.00927  -1.00601  -0.99655  -0.98621  -0.97142
 Alpha  occ. eigenvalues --   -0.96696  -0.95747  -0.92786  -0.91217  -0.86899
 Alpha  occ. eigenvalues --   -0.85424  -0.84285  -0.84104  -0.83777  -0.82674
 Alpha  occ. eigenvalues --   -0.82469  -0.79041  -0.76118  -0.74838  -0.74117
 Alpha  occ. eigenvalues --   -0.73775  -0.73518  -0.73075  -0.71229  -0.69569
 Alpha  occ. eigenvalues --   -0.67752  -0.66716  -0.66476  -0.65936  -0.64624
 Alpha  occ. eigenvalues --   -0.63955  -0.63493  -0.62907  -0.62830  -0.62590
 Alpha  occ. eigenvalues --   -0.60396  -0.59874  -0.59745  -0.59657  -0.59417
 Alpha  occ. eigenvalues --   -0.59170  -0.58671  -0.56956  -0.56664  -0.56515
 Alpha  occ. eigenvalues --   -0.56094  -0.55574  -0.55299  -0.54592  -0.54393
 Alpha  occ. eigenvalues --   -0.53805  -0.53483  -0.53166  -0.52955  -0.52556
 Alpha  occ. eigenvalues --   -0.52295  -0.51921  -0.51866  -0.50879  -0.50340
 Alpha  occ. eigenvalues --   -0.50287  -0.49563  -0.49367  -0.48958  -0.48803
 Alpha  occ. eigenvalues --   -0.48700  -0.48455  -0.48254  -0.47745  -0.47517
 Alpha  occ. eigenvalues --   -0.47120  -0.45595  -0.45241  -0.44174  -0.42854
 Alpha  occ. eigenvalues --   -0.41342  -0.39731  -0.39509  -0.37978  -0.37362
 Alpha  occ. eigenvalues --   -0.37332  -0.36774  -0.36379  -0.35609  -0.34906
 Alpha  occ. eigenvalues --   -0.33748  -0.33631  -0.33342  -0.33271  -0.32934
 Alpha  occ. eigenvalues --   -0.32772  -0.32370  -0.32120  -0.31946  -0.31060
 Alpha  occ. eigenvalues --   -0.30513  -0.28882  -0.25957  -0.25377
 Alpha virt. eigenvalues --    0.02919   0.04677   0.07551   0.07772   0.08288
 Alpha virt. eigenvalues --    0.09309   0.09669   0.10759   0.11224   0.12388
 Alpha virt. eigenvalues --    0.12956   0.13848   0.14265   0.14587   0.14834
 Alpha virt. eigenvalues --    0.15675   0.16203   0.16799   0.17056   0.17975
 Alpha virt. eigenvalues --    0.18901   0.19610   0.19836   0.20215   0.20304
 Alpha virt. eigenvalues --    0.20370   0.20697   0.20903   0.21253   0.22135
 Alpha virt. eigenvalues --    0.22912   0.23085   0.23219   0.23588   0.23791
 Alpha virt. eigenvalues --    0.23950   0.24039   0.24366   0.25232   0.25483
 Alpha virt. eigenvalues --    0.25975   0.26594   0.27530   0.27761   0.27913
 Alpha virt. eigenvalues --    0.28880   0.29470   0.29763   0.30680   0.30853
 Alpha virt. eigenvalues --    0.31367   0.31603   0.32735   0.33409   0.33863
 Alpha virt. eigenvalues --    0.34064   0.34802   0.35510   0.35918   0.36794
 Alpha virt. eigenvalues --    0.37255   0.37743   0.38368   0.39898   0.40016
 Alpha virt. eigenvalues --    0.40184   0.40446   0.40744   0.41364   0.41816
 Alpha virt. eigenvalues --    0.42510   0.42763   0.43694   0.44080   0.44739
 Alpha virt. eigenvalues --    0.45222   0.45459   0.46189   0.46687   0.47602
 Alpha virt. eigenvalues --    0.47794   0.48089   0.48730   0.49638   0.50013
 Alpha virt. eigenvalues --    0.50300   0.50432   0.50893   0.51206   0.51616
 Alpha virt. eigenvalues --    0.51912   0.52199   0.52796   0.53400   0.53681
 Alpha virt. eigenvalues --    0.53879   0.54235   0.54319   0.55531   0.55850
 Alpha virt. eigenvalues --    0.56232   0.56675   0.56953   0.57528   0.57939
 Alpha virt. eigenvalues --    0.58351   0.58533   0.59181   0.59411   0.59672
 Alpha virt. eigenvalues --    0.59968   0.60161   0.60994   0.61263   0.61777
 Alpha virt. eigenvalues --    0.61839   0.62245   0.62436   0.62832   0.63322
 Alpha virt. eigenvalues --    0.63704   0.64266   0.64579   0.64978   0.65088
 Alpha virt. eigenvalues --    0.65551   0.65862   0.66241   0.66311   0.67251
 Alpha virt. eigenvalues --    0.67737   0.68059   0.68232   0.68458   0.68987
 Alpha virt. eigenvalues --    0.69475   0.69542   0.70061   0.70537   0.70760
 Alpha virt. eigenvalues --    0.71505   0.71918   0.72552   0.72953   0.73869
 Alpha virt. eigenvalues --    0.74021   0.74525   0.74958   0.74985   0.75287
 Alpha virt. eigenvalues --    0.75628   0.75990   0.76317   0.76665   0.76850
 Alpha virt. eigenvalues --    0.77377   0.77666   0.78166   0.78302   0.78838
 Alpha virt. eigenvalues --    0.79014   0.79660   0.80024   0.80120   0.80438
 Alpha virt. eigenvalues --    0.80810   0.81363   0.81810   0.82051   0.83209
 Alpha virt. eigenvalues --    0.83331   0.83603   0.83925   0.84526   0.84680
 Alpha virt. eigenvalues --    0.85079   0.85129   0.85863   0.86648   0.87364
 Alpha virt. eigenvalues --    0.87793   0.88350   0.89081   0.89563   0.89852
 Alpha virt. eigenvalues --    0.90217   0.90860   0.91376   0.91416   0.91774
 Alpha virt. eigenvalues --    0.92017   0.92919   0.93680   0.93774   0.94469
 Alpha virt. eigenvalues --    0.94667   0.95080   0.95403   0.95870   0.96477
 Alpha virt. eigenvalues --    0.96873   0.97137   0.97336   0.98074   0.98424
 Alpha virt. eigenvalues --    0.98657   0.99496   0.99817   1.00560   1.01310
 Alpha virt. eigenvalues --    1.02087   1.02448   1.02516   1.02892   1.03304
 Alpha virt. eigenvalues --    1.03668   1.04097   1.05057   1.05626   1.05888
 Alpha virt. eigenvalues --    1.06055   1.06440   1.06916   1.08560   1.08642
 Alpha virt. eigenvalues --    1.09029   1.09470   1.10240   1.10506   1.10977
 Alpha virt. eigenvalues --    1.11693   1.12115   1.12960   1.13684   1.13857
 Alpha virt. eigenvalues --    1.14618   1.14796   1.15247   1.15975   1.16115
 Alpha virt. eigenvalues --    1.16564   1.16952   1.17062   1.17309   1.17921
 Alpha virt. eigenvalues --    1.18479   1.18831   1.19081   1.19942   1.20133
 Alpha virt. eigenvalues --    1.20749   1.20831   1.21310   1.21684   1.21777
 Alpha virt. eigenvalues --    1.22203   1.22485   1.22943   1.23076   1.23454
 Alpha virt. eigenvalues --    1.23963   1.24594   1.24899   1.25241   1.26043
 Alpha virt. eigenvalues --    1.26532   1.27460   1.27753   1.28114   1.28904
 Alpha virt. eigenvalues --    1.29385   1.30136   1.30798   1.31665   1.32057
 Alpha virt. eigenvalues --    1.32598   1.33742   1.33896   1.34572   1.35120
 Alpha virt. eigenvalues --    1.35257   1.36378   1.37264   1.37910   1.38590
 Alpha virt. eigenvalues --    1.38828   1.39025   1.39506   1.40768   1.42545
 Alpha virt. eigenvalues --    1.43529   1.43668   1.43790   1.44455   1.44973
 Alpha virt. eigenvalues --    1.46013   1.47232   1.47864   1.48016   1.48321
 Alpha virt. eigenvalues --    1.48921   1.49129   1.49919   1.50626   1.51294
 Alpha virt. eigenvalues --    1.51576   1.51888   1.53159   1.53532   1.54908
 Alpha virt. eigenvalues --    1.55675   1.56023   1.56095   1.57286   1.58690
 Alpha virt. eigenvalues --    1.58914   1.58956   1.59803   1.59875   1.61323
 Alpha virt. eigenvalues --    1.62089   1.62429   1.62811   1.62940   1.64064
 Alpha virt. eigenvalues --    1.65346   1.65415   1.66119   1.66894   1.67113
 Alpha virt. eigenvalues --    1.67658   1.67958   1.68409   1.68604   1.69085
 Alpha virt. eigenvalues --    1.69390   1.69882   1.70106   1.70393   1.71131
 Alpha virt. eigenvalues --    1.72034   1.72424   1.72688   1.73164   1.73361
 Alpha virt. eigenvalues --    1.73463   1.74329   1.74576   1.74981   1.75143
 Alpha virt. eigenvalues --    1.75471   1.75774   1.75975   1.76399   1.77227
 Alpha virt. eigenvalues --    1.77835   1.78819   1.78901   1.79480   1.79635
 Alpha virt. eigenvalues --    1.79854   1.79960   1.80149   1.80244   1.80400
 Alpha virt. eigenvalues --    1.81070   1.81287   1.81713   1.82078   1.82664
 Alpha virt. eigenvalues --    1.83007   1.83683   1.84061   1.84493   1.84801
 Alpha virt. eigenvalues --    1.85761   1.86589   1.87333   1.87420   1.87513
 Alpha virt. eigenvalues --    1.87797   1.88201   1.88671   1.88809   1.89281
 Alpha virt. eigenvalues --    1.89497   1.89737   1.90979   1.91258   1.92152
 Alpha virt. eigenvalues --    1.92873   1.93065   1.93583   1.93866   1.94357
 Alpha virt. eigenvalues --    1.95195   1.95500   1.96226   1.96488   1.97809
 Alpha virt. eigenvalues --    1.98324   1.99131   1.99872   2.00807   2.01208
 Alpha virt. eigenvalues --    2.01650   2.02154   2.03027   2.04515   2.04882
 Alpha virt. eigenvalues --    2.05395   2.05553   2.06169   2.06948   2.07602
 Alpha virt. eigenvalues --    2.08410   2.08606   2.08957   2.10318   2.10444
 Alpha virt. eigenvalues --    2.10868   2.11544   2.12694   2.13046   2.13725
 Alpha virt. eigenvalues --    2.14431   2.14994   2.15842   2.17199   2.17449
 Alpha virt. eigenvalues --    2.19106   2.19610   2.19978   2.20496   2.20965
 Alpha virt. eigenvalues --    2.22106   2.22344   2.23231   2.23767   2.24138
 Alpha virt. eigenvalues --    2.25364   2.25679   2.26014   2.27023   2.27687
 Alpha virt. eigenvalues --    2.28294   2.29311   2.29482   2.29676   2.29858
 Alpha virt. eigenvalues --    2.30296   2.31681   2.31949   2.32348   2.32981
 Alpha virt. eigenvalues --    2.33670   2.34287   2.34572   2.35110   2.35428
 Alpha virt. eigenvalues --    2.35812   2.36070   2.36515   2.37453   2.38123
 Alpha virt. eigenvalues --    2.38567   2.38991   2.40276   2.41331   2.41624
 Alpha virt. eigenvalues --    2.42241   2.42920   2.43328   2.43689   2.44195
 Alpha virt. eigenvalues --    2.45482   2.45847   2.46036   2.46540   2.47829
 Alpha virt. eigenvalues --    2.48615   2.48988   2.50199   2.51657   2.51888
 Alpha virt. eigenvalues --    2.53120   2.54298   2.54433   2.55146   2.56335
 Alpha virt. eigenvalues --    2.56774   2.57365   2.58684   2.59306   2.59730
 Alpha virt. eigenvalues --    2.60340   2.61179   2.61585   2.62254   2.63719
 Alpha virt. eigenvalues --    2.64569   2.64783   2.65435   2.66416   2.66556
 Alpha virt. eigenvalues --    2.67272   2.68057   2.68592   2.69120   2.69208
 Alpha virt. eigenvalues --    2.70289   2.70677   2.71312   2.72710   2.73427
 Alpha virt. eigenvalues --    2.73841   2.74135   2.74764   2.75450   2.76084
 Alpha virt. eigenvalues --    2.78585   2.78676   2.79227   2.79609   2.79943
 Alpha virt. eigenvalues --    2.80339   2.80464   2.80843   2.81201   2.81857
 Alpha virt. eigenvalues --    2.82387   2.82444   2.82785   2.84014   2.84360
 Alpha virt. eigenvalues --    2.85187   2.86179   2.86351   2.86996   2.87402
 Alpha virt. eigenvalues --    2.87717   2.89236   2.89580   2.91467   2.92650
 Alpha virt. eigenvalues --    2.94588   2.96285   2.97814   2.98750   2.99087
 Alpha virt. eigenvalues --    2.99937   3.02390   3.03926   3.04835   3.05904
 Alpha virt. eigenvalues --    3.09547   3.10512   3.11542   3.13923   3.14628
 Alpha virt. eigenvalues --    3.15370   3.15574   3.16049   3.18393   3.21441
 Alpha virt. eigenvalues --    3.21978   3.22596   3.23641   3.24545   3.26761
 Alpha virt. eigenvalues --    3.45992   3.47103   3.48161   3.50139   3.50216
 Alpha virt. eigenvalues --    3.53147   3.53778   3.56149   3.58399   3.59903
 Alpha virt. eigenvalues --    3.62334   3.71052   3.74320
          Condensed to atoms (all electrons):
 Mulliken charges:
               1
     1  N   -0.311323
     2  C    0.181080
     3  C    0.031126
     4  N   -0.259637
     5  C    0.134239
     6  H    0.027134
     7  N   -0.290154
     8  C    0.133512
     9  H    0.007319
    10  N   -0.289299
    11  C    0.244297
    12  C    0.126176
    13  N   -0.057822
    14  H    0.108246
    15  H    0.088893
    16  H    0.025487
    17  H    0.034842
    18  H    0.026622
    19  N   -0.310945
    20  C    0.234695
    21  C    0.182151
    22  N   -0.101178
    23  H    0.117796
    24  H    0.113974
    25  N   -0.271573
    26  C    0.186265
    27  N   -0.104734
    28  H    0.116091
    29  C    0.145124
    30  O   -0.317066
    31  C   -0.001081
    32  N   -0.218733
    33  C    0.129114
    34  H    0.031337
    35  H    0.028991
    36  H    0.027285
    37  H    0.025041
    38  H    0.062177
    39  H    0.059010
    40  H    0.074039
    41  H    0.032188
    42  C   -0.113362
    43  O   -0.266088
    44  C    0.172494
    45  H    0.135616
    46  N   -0.137271
    47  O   -0.347793
    48  C    0.361391
    49  H    0.048639
    50  C    0.171140
    51  C    0.044123
    52  N   -0.297090
    53  H    0.030279
    54  H    0.043139
    55  H    0.002889
    56  H    0.124647
    57  H    0.113737
    58  N   -0.067222
    59  C    0.099840
    60  C    0.212652
    61  N   -0.254438
    62  H    0.062035
    63  C    0.148062
    64  N   -0.295248
    65  H    0.029336
    66  C    0.123297
    67  N   -0.264715
    68  C    0.038045
    69  C    0.182532
    70  N   -0.301375
 Sum of Mulliken charges =  -0.00000
 Mulliken charges with hydrogens summed into heavy atoms:
               1
     1  N   -0.311323
     2  C    0.268031
     3  C    0.031126
     4  N   -0.259637
     5  C    0.161374
     7  N   -0.290154
     8  C    0.140831
    10  N   -0.289299
    11  C    0.244297
    12  C    0.126176
    13  N    0.139318
    19  N   -0.310945
    20  C    0.234695
    21  C    0.263467
    22  N    0.130593
    25  N   -0.271573
    26  C    0.186265
    27  N    0.011357
    29  C    0.145124
    30  O   -0.317066
    31  C   -0.001081
    32  N   -0.218733
    33  C    0.160451
    42  C   -0.081174
    43  O   -0.266088
    44  C    0.172494
    46  N   -0.001655
    47  O   -0.347793
    48  C    0.361391
    50  C    0.219779
    51  C    0.239349
    52  N   -0.297090
    58  N    0.171163
    59  C    0.099840
    60  C    0.212652
    61  N   -0.254438
    63  C    0.210098
    64  N   -0.295248
    66  C    0.152633
    67  N   -0.264715
    68  C    0.038045
    69  C    0.258839
    70  N   -0.301375
 Electronic spatial extent (au):  <R**2>=          23900.3508
 Charge=             -0.0000 electrons
 Dipole moment (field-independent basis, Debye):
    X=              8.3304    Y=              5.0406    Z=              2.7544  Tot=             10.1188
 Quadrupole moment (field-independent basis, Debye-Ang):
   XX=           -151.1666   YY=           -215.3676   ZZ=           -252.4160
   XY=             -0.1922   XZ=             11.5751   YZ=            -10.2837
 Traceless Quadrupole moment (field-independent basis, Debye-Ang):
   XX=             55.1501   YY=             -9.0509   ZZ=            -46.0992
   XY=             -0.1922   XZ=             11.5751   YZ=            -10.2837
 Octapole moment (field-independent basis, Debye-Ang**2):
  XXX=             18.6789  YYY=            140.4678  ZZZ=             -0.9328  XYY=             90.4377
  XXY=           -115.1758  XXZ=            -57.1323  XZZ=             13.5409  YZZ=             25.3029
  YYZ=             43.8217  XYZ=             41.1815
 Hexadecapole moment (field-independent basis, Debye-Ang**3):
 XXXX=         -15209.6847 YYYY=          -6955.0297 ZZZZ=          -3075.8780 XXXY=            438.5655
 XXXZ=            178.7742 YYYX=            -87.7603 YYYZ=           -119.3292 ZZZX=             28.0461
 ZZZY=             -9.3620 XXYY=          -3837.6685 XXZZ=          -4036.1862 YYZZ=          -1670.7875
 XXYZ=            100.1744 YYXZ=            245.6854 ZZXY=              1.4613
 N-N= 5.445885806523D+03 E-N=-1.567269318301D+04  KE= 2.037931727924D+03
 No NMR shielding tensors so no spin-rotation constants.
 Leave Link  601 at Fri Jan 26 16:54:50 2018, MaxMem=  4294967296 cpu:              47.6 elap:               1.7
 (Enter /share/apps/g16/l9999.exe)
 1\1\GINC-COMPUTE-0-3\SP\RwB97XD\CC-pVDZ\C23H27N17O3\SATYA\26-Jan-2018\
 0\\#p wb97xd/cc-pvdz sp scf=(maxcycles=20)\\Base pair stacking\\0,1\N,
 0,8.25121,1.61398,-7.18293\C,0,9.61547,2.15655,-7.33262\C,0,6.07336,1.
 4274,-6.93905\N,0,6.56888,0.1332,-7.00418\C,0,7.86112,0.29741,-7.1485\
 H,0,8.58339,-0.51479,-7.23568\N,0,4.6212,3.2775,-6.7622\C,0,5.70915,4.
 04578,-6.87916\H,0,5.52577,5.11901,-6.85077\N,0,6.98363,3.68904,-7.025
 23\C,0,7.0985,2.35086,-7.04782\C,0,4.77005,1.93503,-6.78864\N,0,3.6852
 3,1.16645,-6.67204\H,0,3.74835,0.16793,-6.68634\H,0,2.77293,1.5623,-6.
 56646\H,0,10.00547,1.84697,-8.19995\H,0,9.5808,3.15545,-7.32152\H,0,10
 .18847,1.83619,-6.57828\N,0,3.88097,5.61461,-3.37705\C,0,2.61661,5.081
 04,-3.30811\C,0,4.19697,7.05555,-3.44423\N,0,-0.82763,5.51179,-3.19231
 \H,0,-1.64184,4.93433,-3.13898\H,0,-0.97416,6.50083,-3.22447\N,0,1.459
 82,5.77786,-3.29031\C,0,0.4057,4.98448,-3.21952\N,0,0.47685,3.61335,-3
 .16987\H,0,-0.38149,3.08666,-3.11679\C,0,1.65618,2.87528,-3.18696\O,0,
 1.61023,1.63988,-3.13799\C,0,2.79719,3.71387,-3.26281\N,0,4.14774,3.39
 554,-3.30251\C,0,4.75065,4.55147,-3.36982\H,0,5.83184,4.68611,-3.41649
 \H,0,4.69596,7.25007,-4.28802\H,0,3.34774,7.58178,-3.43173\H,0,4.75854
 ,7.31233,-2.65841\H,0,-5.01502,1.03033,-3.50996\H,0,-4.84848,0.83363,-
 1.76691\H,0,-4.08097,2.19987,-2.57665\H,0,-2.14709,-2.82826,-3.32882\C
 ,0,-2.08265,-1.7463,-3.21288\O,0,0.2785,-1.67879,-3.43086\C,0,-0.80101
 ,-1.11177,-3.26373\H,0,0.05456,0.74297,-3.13618\N,0,-0.83187,0.25916,-
 3.10608\O,0,-1.86678,2.25444,-2.78204\C,0,-1.94002,1.04509,-2.91152\H,
 0,-4.17959,-1.44049,-2.97802\C,0,-3.18165,-1.00652,-3.0244\C,0,-4.3505
 3,1.15822,-2.66844\N,0,-3.13868,0.36022,-2.87427\H,0,-2.34051,6.99549,
 -6.13493\H,0,-0.95157,6.85324,-5.29072\H,0,-2.38765,6.68623,-4.53319\H
 ,0,0.18955,0.03316,-6.57127\H,0,-1.47369,0.41148,-6.54662\N,0,-0.52657
 ,0.72221,-6.45931\C,0,-0.23267,1.99895,-6.20487\C,0,-0.74223,4.28393,-
 5.77953\N,0,0.53869,4.67266,-5.66752\H,0,2.42004,3.86584,-5.76837\C,0,
 1.35769,3.63762,-5.84313\N,0,1.06528,2.35814,-6.09806\H,0,-3.96091,4.5
 8563,-5.81475\C,0,-2.93295,4.2242,-5.85456\N,0,-2.58862,2.98064,-6.084
 1\C,0,-1.2022,3.00468,-6.03927\C,0,-1.88812,6.51633,-5.38277\N,0,-1.86
 584,5.0672,-5.66124\\Version=EM64L-G16RevA.03\State=1-A\HF=-2048.71101
 35\RMSD=6.644e-09\Dipole=-3.5346614,1.8296005,0.0865424\Quadrupole=39.
 2328408,-8.0248201,-31.2080207,5.7210408,-13.326522,9.1667621\PG=C01 [
 X(C23H27N17O3)]\\@


 A MAN THINKING OR WORKING IS ALWAYS ALONE, 
 LET HIM BE WHERE HE WILL.

                                    -- THOREAU
 Job cpu time:       0 days  5 hours 51 minutes 28.6 seconds.
 Elapsed time:       0 days  0 hours 11 minutes 20.0 seconds.
 File lengths (MBytes):  RWF=    298 Int=      0 D2E=      0 Chk=     33 Scr=      1
 Normal termination of Gaussian 16 at Fri Jan 26 16:54:51 2018.
