 Entering Gaussian System, Link 0=g16
 Input=str55.-5.-1.0.com
 Output=str55.-5.-1.0.log
 Initial command:
 /share/apps/g16/l1.exe "/state/partition1/scr/Gau-11590.inp" -scrdir="/state/partition1/scr/"
 Entering Link 1 = /share/apps/g16/l1.exe PID=     11591.
  
 Copyright (c) 1988,1990,1992,1993,1995,1998,2003,2009,2016,
            Gaussian, Inc.  All Rights Reserved.
  
 This is part of the Gaussian(R) 16 program.  It is based on
 the Gaussian(R) 09 system (copyright 2009, Gaussian, Inc.),
 the Gaussian(R) 03 system (copyright 2003, Gaussian, Inc.),
 the Gaussian(R) 98 system (copyright 1998, Gaussian, Inc.),
 the Gaussian(R) 94 system (copyright 1995, Gaussian, Inc.),
 the Gaussian 92(TM) system (copyright 1992, Gaussian, Inc.),
 the Gaussian 90(TM) system (copyright 1990, Gaussian, Inc.),
 the Gaussian 88(TM) system (copyright 1988, Gaussian, Inc.),
 the Gaussian 86(TM) system (copyright 1986, Carnegie Mellon
 University), and the Gaussian 82(TM) system (copyright 1983,
 Carnegie Mellon University). Gaussian is a federally registered
 trademark of Gaussian, Inc.
  
 This software contains proprietary and confidential information,
 including trade secrets, belonging to Gaussian, Inc.
  
 This software is provided under written license and may be
 used, copied, transmitted, or stored only in accord with that
 written license.
  
 The following legend is applicable only to US Government
 contracts under FAR:
  
                    RESTRICTED RIGHTS LEGEND
  
 Use, reproduction and disclosure by the US Government is
 subject to restrictions as set forth in subparagraphs (a)
 and (c) of the Commercial Computer Software - Restricted
 Rights clause in FAR 52.227-19.
  
 Gaussian, Inc.
 340 Quinnipiac St., Bldg. 40, Wallingford CT 06492
  
  
 ---------------------------------------------------------------
 Warning -- This program may not be used in any manner that
 competes with the business of Gaussian, Inc. or will provide
 assistance to any competitor of Gaussian, Inc.  The licensee
 of this program is prohibited from giving any competitor of
 Gaussian, Inc. access to this program.  By using this program,
 the user acknowledges that Gaussian, Inc. is engaged in the
 business of creating and licensing software in the field of
 computational chemistry and represents and warrants to the
 licensee that it is not a competitor of Gaussian, Inc. and that
 it will not use this program in any manner prohibited above.
 ---------------------------------------------------------------
  

 Cite this work as:
 Gaussian 16, Revision A.03,
 M. J. Frisch, G. W. Trucks, H. B. Schlegel, G. E. Scuseria, 
 M. A. Robb, J. R. Cheeseman, G. Scalmani, V. Barone, 
 G. A. Petersson, H. Nakatsuji, X. Li, M. Caricato, A. V. Marenich, 
 J. Bloino, B. G. Janesko, R. Gomperts, B. Mennucci, H. P. Hratchian, 
 J. V. Ortiz, A. F. Izmaylov, J. L. Sonnenberg, D. Williams-Young, 
 F. Ding, F. Lipparini, F. Egidi, J. Goings, B. Peng, A. Petrone, 
 T. Henderson, D. Ranasinghe, V. G. Zakrzewski, J. Gao, N. Rega, 
 G. Zheng, W. Liang, M. Hada, M. Ehara, K. Toyota, R. Fukuda, 
 J. Hasegawa, M. Ishida, T. Nakajima, Y. Honda, O. Kitao, H. Nakai, 
 T. Vreven, K. Throssell, J. A. Montgomery, Jr., J. E. Peralta, 
 F. Ogliaro, M. J. Bearpark, J. J. Heyd, E. N. Brothers, K. N. Kudin, 
 V. N. Staroverov, T. A. Keith, R. Kobayashi, J. Normand, 
 K. Raghavachari, A. P. Rendell, J. C. Burant, S. S. Iyengar, 
 J. Tomasi, M. Cossi, J. M. Millam, M. Klene, C. Adamo, R. Cammi, 
 J. W. Ochterski, R. L. Martin, K. Morokuma, O. Farkas, 
 J. B. Foresman, and D. J. Fox, Gaussian, Inc., Wallingford CT, 2016.
 
 ******************************************
 Gaussian 16:  EM64L-G16RevA.03 25-Dec-2016
                26-Jan-2018 
 ******************************************
 %nprocshared=32
 Will use up to   32 processors via shared memory.
 %mem=32GB
 %chk=allatoms_t.chk
 ---------------------------------------
 #p wb97xd/cc-pvdz sp scf=(maxcycles=20)
 ---------------------------------------
 1/38=1,172=1/1;
 2/12=2,17=6,18=5,40=1/2;
 3/5=16,11=2,25=1,30=1,74=-58/1,2,3;
 4//1;
 5/5=2,7=20,38=5/2;
 6/7=2,8=2,9=2,10=2,28=1/1;
 99/5=1,9=1/99;
 Leave Link    1 at Fri Jan 26 15:12:41 2018, MaxMem=  4294967296 cpu:               2.7 elap:               0.1
 (Enter /share/apps/g16/l101.exe)
 ------------------
 Base pair stacking
 ------------------
 Symbolic Z-matrix:
 Charge =  0 Multiplicity = 1
 N                     6.80328   0.5961   -7.07977 
 C                     8.16754   1.13866  -7.22947 
 C                     4.62543   0.40951  -6.8359 
 N                     5.12094  -0.88469  -6.90102 
 C                     6.41318  -0.72048  -7.04534 
 H                     7.13545  -1.53268  -7.13253 
 N                     3.17326   2.25961  -6.65905 
 C                     4.26122   3.02789  -6.77601 
 H                     4.07784   4.10113  -6.74762 
 N                     5.5357    2.67116  -6.92208 
 C                     5.65056   1.33298  -6.94467 
 C                     3.32212   0.91715  -6.68549 
 N                     2.23729   0.14856  -6.56888 
 H                     2.30042  -0.84995  -6.58319 
 H                     1.32499   0.54442  -6.4633 
 H                     8.55753   0.82909  -8.09679 
 H                     8.13287   2.13756  -7.21836 
 H                     8.74054   0.81831  -6.47512 
 N                     3.41999   4.72837  -3.357 
 C                     2.15563   4.1948   -3.28806 
 C                     3.73599   6.16932  -3.42418 
 N                    -1.28861   4.62555  -3.17225 
 H                    -2.10282   4.04809  -3.11893 
 H                    -1.43514   5.6146   -3.20442 
 N                     0.99884   4.89162  -3.27026 
 C                    -0.05528   4.09824  -3.19947 
 N                     0.01587   2.72712  -3.14982 
 H                    -0.84247   2.20043  -3.09674 
 C                     1.1952    1.98905  -3.16691 
 O                     1.14925   0.75364  -3.11794 
 C                     2.33621   2.82764  -3.24276 
 N                     3.68676   2.5093   -3.28246 
 C                     4.28967   3.66523  -3.34977 
 H                     5.37085   3.79988  -3.39644 
 H                     4.23498   6.36384  -4.26797 
 H                     2.88676   6.69555  -3.41168 
 H                     4.29756   6.4261   -2.63836 
 H                    -5.476     0.14409  -3.48991 
 H                    -5.30946  -0.0526   -1.74686 
 H                    -4.54195   1.31364  -2.5566 
 H                    -2.60807  -3.7145   -3.30877 
 C                    -2.54364  -2.63254  -3.19283 
 O                    -0.18248  -2.56502  -3.41081 
 C                    -1.26199  -1.998    -3.24368 
 H                    -0.40643  -0.14326  -3.11613 
 N                    -1.29285  -0.62707  -3.08603 
 O                    -2.32776   1.36821  -2.76199 
 C                    -2.401     0.15886  -2.89147 
 H                    -4.64057  -2.32672  -2.95797 
 C                    -3.64264  -1.89275  -3.00435 
 C                    -4.81151   0.27199  -2.64839 
 N                    -3.59966  -0.52601  -2.85422 
 H                    -3.78845   5.9776   -6.03178 
 H                    -2.3995    5.83536  -5.18757 
 H                    -3.83558   5.66835  -4.43004 
 H                    -1.25839  -0.98472  -6.46812 
 H                    -2.92163  -0.6064   -6.44347 
 N                    -1.9745   -0.29567  -6.35616 
 C                    -1.6806    0.98106  -6.10172 
 C                    -2.19017   3.26605  -5.67638 
 N                    -0.90924   3.65477  -5.56437 
 H                     0.97211   2.84796  -5.66522 
 C                    -0.09024   2.61974  -5.73998 
 N                    -0.38266   1.34025  -5.9949 
 H                    -5.40885   3.56775  -5.71159 
 C                    -4.38088   3.20631  -5.7514 
 N                    -4.03655   1.96276  -5.98094 
 C                    -2.65014   1.98679  -5.93612 
 C                    -3.33606   5.49844  -5.27962 
 N                    -3.31378   4.04931  -5.55809 
 
 ITRead=  0  0  0  0  0  0  0  0  0  0  0  0  0  0  0  0  0  0  0  0
 ITRead=  0  0  0  0  0  0  0  0  0  0  0  0  0  0  0  0  0  0  0  0
 ITRead=  0  0  0  0  0  0  0  0  0  0  0  0  0  0  0  0  0  0  0  0
 ITRead=  0  0  0  0  0  0  0  0  0  0
 MicOpt= -1 -1 -1 -1 -1 -1 -1 -1 -1 -1 -1 -1 -1 -1 -1 -1 -1 -1 -1 -1
 MicOpt= -1 -1 -1 -1 -1 -1 -1 -1 -1 -1 -1 -1 -1 -1 -1 -1 -1 -1 -1 -1
 MicOpt= -1 -1 -1 -1 -1 -1 -1 -1 -1 -1 -1 -1 -1 -1 -1 -1 -1 -1 -1 -1
 MicOpt= -1 -1 -1 -1 -1 -1 -1 -1 -1 -1
 NAtoms=     70 NQM=       70 NQMF=       0 NMMI=      0 NMMIF=      0
                NMic=       0 NMicF=      0.
                    Isotopes and Nuclear Properties:
 (Nuclear quadrupole moments (NQMom) in fm**2, nuclear magnetic moments (NMagM)
  in nuclear magnetons)

  Atom         1           2           3           4           5           6           7           8           9          10
 IAtWgt=          14          12          12          14          12           1          14          12           1          14
 AtmWgt=  14.0030740  12.0000000  12.0000000  14.0030740  12.0000000   1.0078250  14.0030740  12.0000000   1.0078250  14.0030740
 NucSpn=           2           0           0           2           0           1           2           0           1           2
 AtZEff=  -0.0000000  -0.0000000  -0.0000000  -0.0000000  -0.0000000  -0.0000000  -0.0000000  -0.0000000  -0.0000000  -0.0000000
 NQMom=    2.0440000   0.0000000   0.0000000   2.0440000   0.0000000   0.0000000   2.0440000   0.0000000   0.0000000   2.0440000
 NMagM=    0.4037610   0.0000000   0.0000000   0.4037610   0.0000000   2.7928460   0.4037610   0.0000000   2.7928460   0.4037610
 AtZNuc=   7.0000000   6.0000000   6.0000000   7.0000000   6.0000000   1.0000000   7.0000000   6.0000000   1.0000000   7.0000000

  Atom        11          12          13          14          15          16          17          18          19          20
 IAtWgt=          12          12          14           1           1           1           1           1          14          12
 AtmWgt=  12.0000000  12.0000000  14.0030740   1.0078250   1.0078250   1.0078250   1.0078250   1.0078250  14.0030740  12.0000000
 NucSpn=           0           0           2           1           1           1           1           1           2           0
 AtZEff=  -0.0000000  -0.0000000  -0.0000000  -0.0000000  -0.0000000  -0.0000000  -0.0000000  -0.0000000  -0.0000000  -0.0000000
 NQMom=    0.0000000   0.0000000   2.0440000   0.0000000   0.0000000   0.0000000   0.0000000   0.0000000   2.0440000   0.0000000
 NMagM=    0.0000000   0.0000000   0.4037610   2.7928460   2.7928460   2.7928460   2.7928460   2.7928460   0.4037610   0.0000000
 AtZNuc=   6.0000000   6.0000000   7.0000000   1.0000000   1.0000000   1.0000000   1.0000000   1.0000000   7.0000000   6.0000000

  Atom        21          22          23          24          25          26          27          28          29          30
 IAtWgt=          12          14           1           1          14          12          14           1          12          16
 AtmWgt=  12.0000000  14.0030740   1.0078250   1.0078250  14.0030740  12.0000000  14.0030740   1.0078250  12.0000000  15.9949146
 NucSpn=           0           2           1           1           2           0           2           1           0           0
 AtZEff=  -0.0000000  -0.0000000  -0.0000000  -0.0000000  -0.0000000  -0.0000000  -0.0000000  -0.0000000  -0.0000000  -0.0000000
 NQMom=    0.0000000   2.0440000   0.0000000   0.0000000   2.0440000   0.0000000   2.0440000   0.0000000   0.0000000   0.0000000
 NMagM=    0.0000000   0.4037610   2.7928460   2.7928460   0.4037610   0.0000000   0.4037610   2.7928460   0.0000000   0.0000000
 AtZNuc=   6.0000000   7.0000000   1.0000000   1.0000000   7.0000000   6.0000000   7.0000000   1.0000000   6.0000000   8.0000000

  Atom        31          32          33          34          35          36          37          38          39          40
 IAtWgt=          12          14          12           1           1           1           1           1           1           1
 AtmWgt=  12.0000000  14.0030740  12.0000000   1.0078250   1.0078250   1.0078250   1.0078250   1.0078250   1.0078250   1.0078250
 NucSpn=           0           2           0           1           1           1           1           1           1           1
 AtZEff=  -0.0000000  -0.0000000  -0.0000000  -0.0000000  -0.0000000  -0.0000000  -0.0000000  -0.0000000  -0.0000000  -0.0000000
 NQMom=    0.0000000   2.0440000   0.0000000   0.0000000   0.0000000   0.0000000   0.0000000   0.0000000   0.0000000   0.0000000
 NMagM=    0.0000000   0.4037610   0.0000000   2.7928460   2.7928460   2.7928460   2.7928460   2.7928460   2.7928460   2.7928460
 AtZNuc=   6.0000000   7.0000000   6.0000000   1.0000000   1.0000000   1.0000000   1.0000000   1.0000000   1.0000000   1.0000000

  Atom        41          42          43          44          45          46          47          48          49          50
 IAtWgt=           1          12          16          12           1          14          16          12           1          12
 AtmWgt=   1.0078250  12.0000000  15.9949146  12.0000000   1.0078250  14.0030740  15.9949146  12.0000000   1.0078250  12.0000000
 NucSpn=           1           0           0           0           1           2           0           0           1           0
 AtZEff=  -0.0000000  -0.0000000  -0.0000000  -0.0000000  -0.0000000  -0.0000000  -0.0000000  -0.0000000  -0.0000000  -0.0000000
 NQMom=    0.0000000   0.0000000   0.0000000   0.0000000   0.0000000   2.0440000   0.0000000   0.0000000   0.0000000   0.0000000
 NMagM=    2.7928460   0.0000000   0.0000000   0.0000000   2.7928460   0.4037610   0.0000000   0.0000000   2.7928460   0.0000000
 AtZNuc=   1.0000000   6.0000000   8.0000000   6.0000000   1.0000000   7.0000000   8.0000000   6.0000000   1.0000000   6.0000000

  Atom        51          52          53          54          55          56          57          58          59          60
 IAtWgt=          12          14           1           1           1           1           1          14          12          12
 AtmWgt=  12.0000000  14.0030740   1.0078250   1.0078250   1.0078250   1.0078250   1.0078250  14.0030740  12.0000000  12.0000000
 NucSpn=           0           2           1           1           1           1           1           2           0           0
 AtZEff=  -0.0000000  -0.0000000  -0.0000000  -0.0000000  -0.0000000  -0.0000000  -0.0000000  -0.0000000  -0.0000000  -0.0000000
 NQMom=    0.0000000   2.0440000   0.0000000   0.0000000   0.0000000   0.0000000   0.0000000   2.0440000   0.0000000   0.0000000
 NMagM=    0.0000000   0.4037610   2.7928460   2.7928460   2.7928460   2.7928460   2.7928460   0.4037610   0.0000000   0.0000000
 AtZNuc=   6.0000000   7.0000000   1.0000000   1.0000000   1.0000000   1.0000000   1.0000000   7.0000000   6.0000000   6.0000000

  Atom        61          62          63          64          65          66          67          68          69          70
 IAtWgt=          14           1          12          14           1          12          14          12          12          14
 AtmWgt=  14.0030740   1.0078250  12.0000000  14.0030740   1.0078250  12.0000000  14.0030740  12.0000000  12.0000000  14.0030740
 NucSpn=           2           1           0           2           1           0           2           0           0           2
 AtZEff=  -0.0000000  -0.0000000  -0.0000000  -0.0000000  -0.0000000  -0.0000000  -0.0000000  -0.0000000  -0.0000000  -0.0000000
 NQMom=    2.0440000   0.0000000   0.0000000   2.0440000   0.0000000   0.0000000   2.0440000   0.0000000   0.0000000   2.0440000
 NMagM=    0.4037610   2.7928460   0.0000000   0.4037610   2.7928460   0.0000000   0.4037610   0.0000000   0.0000000   0.4037610
 AtZNuc=   7.0000000   1.0000000   6.0000000   7.0000000   1.0000000   6.0000000   7.0000000   6.0000000   6.0000000   7.0000000
 Leave Link  101 at Fri Jan 26 15:12:42 2018, MaxMem=  4294967296 cpu:               7.3 elap:               0.3
 (Enter /share/apps/g16/l202.exe)
 Stoichiometry    C23H27N17O3
 Framework group  C1[X(C23H27N17O3)]
 Deg. of freedom   204
 Full point group                 C1      NOp   1
 Largest Abelian subgroup         C1      NOp   1
 Largest concise Abelian subgroup C1      NOp   1
                         Standard orientation:                         
 ---------------------------------------------------------------------
 Center     Atomic      Atomic             Coordinates (Angstroms)
 Number     Number       Type             X           Y           Z
 ---------------------------------------------------------------------
      1          7           0       -6.429768   -1.655031    0.604030
      2          6           0       -7.823895   -1.189117    0.472414
      3          6           0       -4.249132   -1.724156    0.882175
      4          7           0       -4.656976   -3.035466    0.685060
      5          6           0       -5.954404   -2.941340    0.525380
      6          1           0       -6.619859   -3.786209    0.345630
      7          7           0       -2.925539    0.190064    1.265329
      8          6           0       -4.059486    0.894807    1.193969
      9          1           0       -3.947807    1.970105    1.326413
     10          7           0       -5.304818    0.472689    0.984546
     11          6           0       -5.330777   -0.861990    0.834919
     12          6           0       -2.985064   -1.150675    1.110631
     13          7           0       -1.854212   -1.855892    1.181529
     14          1           0       -1.851105   -2.850585    1.072954
     15          1           0       -0.972057   -1.414236    1.345499
     16          1           0       -8.387629   -1.616056    1.179589
     17          1           0       -7.855363   -0.195554    0.577147
     18          1           0       -8.177320   -1.438913   -0.429079
     19          7           0       -2.544145    3.026402   -1.712743
     20          6           0       -1.266673    2.555715   -1.526797
     21          6           0       -2.963966    4.435084   -1.571079
     22          7           0        2.068396    3.133913   -0.749142
     23          1           0        2.909030    2.599907   -0.663037
     24          1           0        2.135636    4.116948   -0.576374
     25          7           0       -0.189007    3.295068   -1.186164
     26          6           0        0.902844    2.558526   -1.081284
     27          7           0        0.938696    1.201603   -1.293352
     28          1           0        1.818583    0.719684   -1.190777
     29          6           0       -0.157841    0.420522   -1.644602
     30          8           0       -0.017908   -0.797209   -1.812819
     31          6           0       -1.338138    1.197844   -1.761036
     32          7           0       -2.634389    0.823579   -2.087473
     33          6           0       -3.312870    1.938112   -2.046434
     34          1           0       -4.380533    2.023060   -2.251712
     35          1           0       -3.661849    4.506668   -0.859289
     36          1           0       -2.173953    4.992352   -1.318894
     37          1           0       -3.337929    4.762006   -2.438307
     38          1           0        6.352937   -1.183095    0.102195
     39          1           0        6.620760   -1.175104   -1.639314
     40          1           0        5.591450    0.052170   -0.900612
     41          1           0        3.879354   -5.102850   -1.187554
     42          6           0        3.771260   -4.018225   -1.199206
     43          8           0        1.427288   -4.071386   -1.559922
     44          6           0        2.474511   -3.445894   -1.396007
     45          1           0        1.550394   -1.624787   -1.529770
     46          7           0        2.449095   -2.065820   -1.393586
     47          8           0        3.393737   -0.006476   -1.238870
     48          6           0        3.515769   -1.218743   -1.225653
     49          1           0        5.837980   -3.603212   -0.879464
     50          6           0        4.830748   -3.218012   -1.032594
     51          6           0        5.901294   -0.981405   -0.857701
     52          7           0        4.732289   -1.845936   -1.041451
     53          1           0        3.716316    4.230440    2.763142
     54          1           0        2.581798    4.135677    1.594386
     55          1           0        4.165052    4.118274    1.198060
     56          1           0        1.633109   -2.828880    1.818819
     57          1           0        3.224626   -2.384492    2.242725
     58          7           0        2.306853   -2.103432    1.960006
     59          6           0        1.996298   -0.818071    1.779570
     60          6           0        2.436543    1.519942    1.739086
     61          7           0        1.196005    1.868058    1.359203
     62          1           0       -0.595943    0.980792    0.909456
     63          6           0        0.430852    0.787669    1.217121
     64          7           0        0.740045   -0.500547    1.397362
     65          1           0        5.525818    1.942989    2.593238
     66          6           0        4.544964    1.538788    2.341259
     67          7           0        4.240919    0.263950    2.345017
     68          6           0        2.906886    0.238038    1.965012
     69          6           0        3.489975    3.827647    1.876281
     70          7           0        3.500180    2.355809    1.984015
 ---------------------------------------------------------------------
 Rotational constants (GHZ):           0.1225238           0.0581326           0.0489798
 Leave Link  202 at Fri Jan 26 15:12:42 2018, MaxMem=  4294967296 cpu:               0.3 elap:               0.0
 (Enter /share/apps/g16/l301.exe)
 Standard basis: CC-pVDZ (5D, 7F)
 Ernie: Thresh=  0.10000D-02 Tol=  0.10000D-05 Strict=F.
 Ernie:  86 primitive shells out of 1081 were deleted.
 There are   780 symmetry adapted cartesian basis functions of A   symmetry.
 There are   737 symmetry adapted basis functions of A   symmetry.
   737 basis functions,  1608 primitive gaussians,   780 cartesian basis functions
   154 alpha electrons      154 beta electrons
       nuclear repulsion energy      5478.8210338485 Hartrees.
 IExCor= 4639 DFT=T Ex+Corr=wB97XD ExCW=0 ScaHFX=  1.000000
 ScaDFX=  1.000000  1.000000  1.000000  1.000000 ScalE2=  1.000000  1.000000
 IRadAn=      5 IRanWt=     -1 IRanGd=            0 ICorTp=0 IEmpDi=121
 HFx  wShort=  0.000000 wLong=  0.200000 cFull=  0.222036 cShort=  0.000000 cLong=  0.777964
 DFx  wShort=  0.000000 wLong=  0.200000 cFull=  0.000000 cShort=  0.000000 cLong=  1.000000
 NAtoms=   70 NActive=   70 NUniq=   70 SFac= 1.00D+00 NAtFMM=   60 NAOKFM=T Big=T
 Integral buffers will be    131072 words long.
 Raffenetti 2 integral format.
 Two-electron integral symmetry is turned on.
 R6Disp:  Grimme-D2 Dispersion energy=       -0.0692891830 Hartrees.
 Nuclear repulsion after empirical dispersion term =     5478.7517446655 Hartrees.
 Leave Link  301 at Fri Jan 26 15:12:42 2018, MaxMem=  4294967296 cpu:               2.1 elap:               0.1
 (Enter /share/apps/g16/l302.exe)
 NPDir=0 NMtPBC=     1 NCelOv=     1 NCel=       1 NClECP=     1 NCelD=      1
         NCelK=      1 NCelE2=     1 NClLst=     1 CellRange=     0.0.
 One-electron integrals computed using PRISM.
 One-electron integral symmetry used in STVInt
 NBasis=   737 RedAO= T EigKep=  6.90D-04  NBF=   737
 NBsUse=   737 1.00D-06 EigRej= -1.00D+00 NBFU=   737
 Precomputing XC quadrature grid using
 IXCGrd= 4 IRadAn=           5 IRanWt=          -1 IRanGd=           0 AccXCQ= 0.00D+00.
 Generated NRdTot=       0 NPtTot=           0 NUsed=           0 NTot=          32
 NSgBfM=   769   769   769   769   769 MxSgAt=    70 MxSgA2=    70.
 Leave Link  302 at Fri Jan 26 15:12:46 2018, MaxMem=  4294967296 cpu:             132.9 elap:               4.2
 (Enter /share/apps/g16/l303.exe)
 DipDrv:  MaxL=1.
 Leave Link  303 at Fri Jan 26 15:12:47 2018, MaxMem=  4294967296 cpu:              12.5 elap:               0.4
 (Enter /share/apps/g16/l401.exe)
 ExpMin= 1.22D-01 ExpMax= 1.17D+04 ExpMxC= 4.01D+02 IAcc=3 IRadAn=         5 AccDes= 0.00D+00
 Harris functional with IExCor= 4639 and IRadAn=       5 diagonalized for initial guess.
 HarFok:  IExCor= 4639 AccDes= 0.00D+00 IRadAn=         5 IDoV= 1 UseB2=F ITyADJ=14
 ICtDFT=  3500011 ScaDFX=  1.000000  1.000000  1.000000  1.000000
 FoFCou: FMM=F IPFlag=           0 FMFlag=      100000 FMFlg1=        2001
         NFxFlg=           0 DoJE=T BraDBF=F KetDBF=T FulRan=T
         wScrn=  0.000000 ICntrl=       500 IOpCl=  0 I1Cent=   200000004 NGrid=           0
         NMat0=    1 NMatS0=      1 NMatT0=    0 NMatD0=    1 NMtDS0=    0 NMtDT0=    0
 Petite list used in FoFCou.
 Harris En= -1963.85868161726    
 JPrj=0 DoOrth=F DoCkMO=F.
 Leave Link  401 at Fri Jan 26 15:12:59 2018, MaxMem=  4294967296 cpu:             396.0 elap:              12.4
 (Enter /share/apps/g16/l502.exe)
 Integral symmetry usage will be decided dynamically.
 Closed shell SCF:
 Using DIIS extrapolation, IDIIS=  1040.
 NGot=  4294967296 LenX=  4293717438 LenY=  4293108258
 Requested convergence on RMS density matrix=1.00D-08 within  20 cycles.
 Requested convergence on MAX density matrix=1.00D-06.
 Requested convergence on             energy=1.00D-06.
 No special actions if energy rises.
 Fock matrices will be formed incrementally for  20 cycles.
 Integral accuracy reduced to 1.0D-05 until final iterations.

 Cycle   1  Pass 0  IDiag  1:
 FoFJK:  IHMeth= 1 ICntrl=       0 DoSepK=T KAlg= 0 I1Cent=           0 FoldK=F
 IRaf=         1 NMat=       1 IRICut=       1 DoRegI=T DoRafI=F ISym2E= 0 IDoP0=0 IntGTp=1.
 FoFCou: FMM=T IPFlag=           0 FMFlag=      100000 FMFlg1=        2001
         NFxFlg=           0 DoJE=T BraDBF=F KetDBF=F FulRan=T
         wScrn=  0.000000 ICntrl=       500 IOpCl=  0 I1Cent=           0 NGrid=           0
         NMat0=    1 NMatS0=      1 NMatT0=    0 NMatD0=    1 NMtDS0=    0 NMtDT0=    0
 Symmetry not used in FoFCou.
 FMM levels:  10  Number of levels for PrismC:   9
 E= -2048.28919746226    
 DIIS: error= 2.20D-02 at cycle   1 NSaved=   1.
 NSaved= 1 IEnMin= 1 EnMin= -2048.28919746226     IErMin= 1 ErrMin= 2.20D-02
 ErrMax= 2.20D-02  0.00D+00 EMaxC= 1.00D-01 BMatC= 8.33D-01 BMatP= 8.33D-01
 IDIUse=3 WtCom= 7.80D-01 WtEn= 2.20D-01
 Coeff-Com:  0.100D+01
 Coeff-En:   0.100D+01
 Coeff:      0.100D+01
 Gap=     0.251 Goal=   None    Shift=    0.000
 GapD=    0.251 DampG=1.000 DampE=0.500 DampFc=0.5000 IDamp=-1.
 Damping current iteration by 5.00D-01
 RMSDP=1.58D-03 MaxDP=1.31D-01              OVMax= 1.58D-01

 Cycle   2  Pass 0  IDiag  1:
 RMSU=  7.91D-04    CP:  9.98D-01
 E= -2048.48806831084     Delta-E=       -0.198870848585 Rises=F Damp=T
 DIIS: error= 1.21D-02 at cycle   2 NSaved=   2.
 NSaved= 2 IEnMin= 2 EnMin= -2048.48806831084     IErMin= 2 ErrMin= 1.21D-02
 ErrMax= 1.21D-02  0.00D+00 EMaxC= 1.00D-01 BMatC= 1.45D-01 BMatP= 8.33D-01
 IDIUse=3 WtCom= 8.79D-01 WtEn= 1.21D-01
 Coeff-Com: -0.198D+00 0.120D+01
 Coeff-En:   0.000D+00 0.100D+01
 Coeff:     -0.174D+00 0.117D+01
 Gap=     0.361 Goal=   None    Shift=    0.000
 RMSDP=5.85D-04 MaxDP=3.48D-02 DE=-1.99D-01 OVMax= 1.55D-01

 Cycle   3  Pass 0  IDiag  1:
 RMSU=  5.72D-04    CP:  9.94D-01  1.15D+00
 E= -2048.67032352949     Delta-E=       -0.182255218650 Rises=F Damp=F
 DIIS: error= 8.76D-03 at cycle   3 NSaved=   3.
 NSaved= 3 IEnMin= 3 EnMin= -2048.67032352949     IErMin= 3 ErrMin= 8.76D-03
 ErrMax= 8.76D-03  0.00D+00 EMaxC= 1.00D-01 BMatC= 6.10D-02 BMatP= 1.45D-01
 IDIUse=3 WtCom= 9.12D-01 WtEn= 8.76D-02
 Coeff-Com: -0.230D+00 0.543D+00 0.687D+00
 Coeff-En:   0.000D+00 0.000D+00 0.100D+01
 Coeff:     -0.210D+00 0.496D+00 0.714D+00
 Gap=     0.277 Goal=   None    Shift=    0.000
 RMSDP=3.50D-04 MaxDP=3.48D-02 DE=-1.82D-01 OVMax= 7.66D-02

 Cycle   4  Pass 0  IDiag  1:
 RMSU=  2.02D-04    CP:  9.94D-01  1.42D+00  6.78D-01
 E= -2048.71602391854     Delta-E=       -0.045700389051 Rises=F Damp=F
 DIIS: error= 3.49D-03 at cycle   4 NSaved=   4.
 NSaved= 4 IEnMin= 4 EnMin= -2048.71602391854     IErMin= 4 ErrMin= 3.49D-03
 ErrMax= 3.49D-03  0.00D+00 EMaxC= 1.00D-01 BMatC= 9.30D-03 BMatP= 6.10D-02
 IDIUse=3 WtCom= 9.65D-01 WtEn= 3.49D-02
 Coeff-Com: -0.942D-01 0.183D+00 0.384D+00 0.527D+00
 Coeff-En:   0.000D+00 0.000D+00 0.726D-01 0.927D+00
 Coeff:     -0.909D-01 0.176D+00 0.373D+00 0.541D+00
 Gap=     0.282 Goal=   None    Shift=    0.000
 RMSDP=1.28D-04 MaxDP=1.31D-02 DE=-4.57D-02 OVMax= 1.45D-02

 Cycle   5  Pass 0  IDiag  1:
 RMSU=  6.20D-05    CP:  9.94D-01  1.39D+00  8.13D-01  6.12D-01
 E= -2048.72359507857     Delta-E=       -0.007571160028 Rises=F Damp=F
 DIIS: error= 7.33D-04 at cycle   5 NSaved=   5.
 NSaved= 5 IEnMin= 5 EnMin= -2048.72359507857     IErMin= 5 ErrMin= 7.33D-04
 ErrMax= 7.33D-04  0.00D+00 EMaxC= 1.00D-01 BMatC= 3.05D-04 BMatP= 9.30D-03
 IDIUse=3 WtCom= 9.93D-01 WtEn= 7.33D-03
 Coeff-Com: -0.236D-01 0.402D-01 0.122D+00 0.242D+00 0.620D+00
 Coeff-En:   0.000D+00 0.000D+00 0.000D+00 0.000D+00 0.100D+01
 Coeff:     -0.234D-01 0.399D-01 0.121D+00 0.240D+00 0.622D+00
 Gap=     0.282 Goal=   None    Shift=    0.000
 RMSDP=2.59D-05 MaxDP=2.25D-03 DE=-7.57D-03 OVMax= 3.50D-03

 Failed to achieve initial convergence to 1.0D-08 in  6 cycles.
 Switch to full accuracy anyway.
 Cycle   6  Pass 1  IDiag  1:
 E= -2048.72406564911     Delta-E=       -0.000470570542 Rises=F Damp=F
 DIIS: error= 2.03D-04 at cycle   1 NSaved=   1.
 NSaved= 1 IEnMin= 1 EnMin= -2048.72406564911     IErMin= 1 ErrMin= 2.03D-04
 ErrMax= 2.03D-04  0.00D+00 EMaxC= 1.00D-01 BMatC= 8.04D-05 BMatP= 8.04D-05
 IDIUse=3 WtCom= 9.98D-01 WtEn= 2.03D-03
 Coeff-Com:  0.100D+01
 Coeff-En:   0.100D+01
 Coeff:      0.100D+01
 Gap=     0.282 Goal=   None    Shift=    0.000
 RMSDP=2.59D-05 MaxDP=2.25D-03 DE=-4.71D-04 OVMax= 2.45D-03

 Cycle   7  Pass 1  IDiag  1:
 RMSU=  1.22D-04    CP:  1.00D+00
 E= -2048.72412563144     Delta-E=       -0.000059982323 Rises=F Damp=F
 DIIS: error= 2.85D-04 at cycle   2 NSaved=   2.
 NSaved= 2 IEnMin= 2 EnMin= -2048.72412563144     IErMin= 1 ErrMin= 2.03D-04
 ErrMax= 2.85D-04  0.00D+00 EMaxC= 1.00D-01 BMatC= 4.30D-05 BMatP= 8.04D-05
 IDIUse=3 WtCom= 9.97D-01 WtEn= 2.85D-03
 Coeff-Com:  0.394D+00 0.606D+00
 Coeff-En:   0.000D+00 0.100D+01
 Coeff:      0.393D+00 0.607D+00
 Gap=     0.282 Goal=   None    Shift=    0.000
 RMSDP=1.14D-05 MaxDP=1.31D-03 DE=-6.00D-05 OVMax= 1.58D-03

 Cycle   8  Pass 1  IDiag  1:
 RMSU=  1.10D-05    CP:  1.00D+00  1.03D+00
 E= -2048.72415492365     Delta-E=       -0.000029292215 Rises=F Damp=F
 DIIS: error= 1.18D-04 at cycle   3 NSaved=   3.
 NSaved= 3 IEnMin= 3 EnMin= -2048.72415492365     IErMin= 3 ErrMin= 1.18D-04
 ErrMax= 1.18D-04  0.00D+00 EMaxC= 1.00D-01 BMatC= 1.16D-05 BMatP= 4.30D-05
 IDIUse=3 WtCom= 9.99D-01 WtEn= 1.18D-03
 Coeff-Com: -0.192D-01 0.331D+00 0.688D+00
 Coeff-En:   0.000D+00 0.163D+00 0.837D+00
 Coeff:     -0.192D-01 0.331D+00 0.689D+00
 Gap=     0.282 Goal=   None    Shift=    0.000
 RMSDP=5.68D-06 MaxDP=5.25D-04 DE=-2.93D-05 OVMax= 5.89D-04

 Cycle   9  Pass 1  IDiag  1:
 RMSU=  3.76D-06    CP:  1.00D+00  1.05D+00  7.46D-01
 E= -2048.72416507725     Delta-E=       -0.000010153602 Rises=F Damp=F
 DIIS: error= 3.64D-05 at cycle   4 NSaved=   4.
 NSaved= 4 IEnMin= 4 EnMin= -2048.72416507725     IErMin= 4 ErrMin= 3.64D-05
 ErrMax= 3.64D-05  0.00D+00 EMaxC= 1.00D-01 BMatC= 4.92D-07 BMatP= 1.16D-05
 IDIUse=1 WtCom= 1.00D+00 WtEn= 0.00D+00
 Coeff-Com: -0.279D-01 0.954D-01 0.255D+00 0.678D+00
 Coeff:     -0.279D-01 0.954D-01 0.255D+00 0.678D+00
 Gap=     0.282 Goal=   None    Shift=    0.000
 RMSDP=1.38D-06 MaxDP=1.48D-04 DE=-1.02D-05 OVMax= 5.07D-04

 Cycle  10  Pass 1  IDiag  1:
 RMSU=  1.25D-06    CP:  1.00D+00  1.06D+00  7.77D-01  1.09D+00
 E= -2048.72416586335     Delta-E=       -0.000000786096 Rises=F Damp=F
 DIIS: error= 1.58D-05 at cycle   5 NSaved=   5.
 NSaved= 5 IEnMin= 5 EnMin= -2048.72416586335     IErMin= 5 ErrMin= 1.58D-05
 ErrMax= 1.58D-05  0.00D+00 EMaxC= 1.00D-01 BMatC= 1.15D-07 BMatP= 4.92D-07
 IDIUse=1 WtCom= 1.00D+00 WtEn= 0.00D+00
 Coeff-Com: -0.193D-02-0.588D-01-0.121D+00 0.197D+00 0.985D+00
 Coeff:     -0.193D-02-0.588D-01-0.121D+00 0.197D+00 0.985D+00
 Gap=     0.282 Goal=   None    Shift=    0.000
 RMSDP=1.17D-06 MaxDP=7.53D-05 DE=-7.86D-07 OVMax= 2.42D-04

 Cycle  11  Pass 1  IDiag  1:
 RMSU=  4.89D-07    CP:  1.00D+00  1.06D+00  7.87D-01  1.36D+00  1.17D+00
 E= -2048.72416610830     Delta-E=       -0.000000244954 Rises=F Damp=F
 DIIS: error= 1.10D-05 at cycle   6 NSaved=   6.
 NSaved= 6 IEnMin= 6 EnMin= -2048.72416610830     IErMin= 6 ErrMin= 1.10D-05
 ErrMax= 1.10D-05  0.00D+00 EMaxC= 1.00D-01 BMatC= 2.63D-08 BMatP= 1.15D-07
 IDIUse=1 WtCom= 1.00D+00 WtEn= 0.00D+00
 Coeff-Com:  0.450D-02-0.477D-01-0.111D+00-0.232D-02 0.520D+00 0.637D+00
 Coeff:      0.450D-02-0.477D-01-0.111D+00-0.232D-02 0.520D+00 0.637D+00
 Gap=     0.282 Goal=   None    Shift=    0.000
 RMSDP=3.54D-07 MaxDP=3.68D-05 DE=-2.45D-07 OVMax= 1.28D-04

 Cycle  12  Pass 1  IDiag  1:
 RMSU=  1.80D-07    CP:  1.00D+00  1.06D+00  7.87D-01  1.43D+00  1.30D+00
                    CP:  9.29D-01
 E= -2048.72416614653     Delta-E=       -0.000000038229 Rises=F Damp=F
 DIIS: error= 1.23D-06 at cycle   7 NSaved=   7.
 NSaved= 7 IEnMin= 7 EnMin= -2048.72416614653     IErMin= 7 ErrMin= 1.23D-06
 ErrMax= 1.23D-06  0.00D+00 EMaxC= 1.00D-01 BMatC= 7.83D-10 BMatP= 2.63D-08
 IDIUse=1 WtCom= 1.00D+00 WtEn= 0.00D+00
 Coeff-Com:  0.104D-02-0.779D-02-0.195D-01-0.744D-02 0.556D-01 0.141D+00
 Coeff-Com:  0.837D+00
 Coeff:      0.104D-02-0.779D-02-0.195D-01-0.744D-02 0.556D-01 0.141D+00
 Coeff:      0.837D+00
 Gap=     0.282 Goal=   None    Shift=    0.000
 RMSDP=8.23D-08 MaxDP=5.25D-06 DE=-3.82D-08 OVMax= 2.25D-05

 Cycle  13  Pass 1  IDiag  1:
 RMSU=  4.97D-08    CP:  1.00D+00  1.06D+00  7.87D-01  1.44D+00  1.32D+00
                    CP:  1.02D+00  1.13D+00
 E= -2048.72416614806     Delta-E=       -0.000000001527 Rises=F Damp=F
 DIIS: error= 6.38D-07 at cycle   8 NSaved=   8.
 NSaved= 8 IEnMin= 8 EnMin= -2048.72416614806     IErMin= 8 ErrMin= 6.38D-07
 ErrMax= 6.38D-07  0.00D+00 EMaxC= 1.00D-01 BMatC= 3.13D-10 BMatP= 7.83D-10
 IDIUse=1 WtCom= 1.00D+00 WtEn= 0.00D+00
 Coeff-Com: -0.641D-03 0.853D-02 0.189D-01-0.153D-02-0.108D+00-0.890D-01
 Coeff-Com:  0.428D+00 0.744D+00
 Coeff:     -0.641D-03 0.853D-02 0.189D-01-0.153D-02-0.108D+00-0.890D-01
 Coeff:      0.428D+00 0.744D+00
 Gap=     0.282 Goal=   None    Shift=    0.000
 RMSDP=4.47D-08 MaxDP=2.69D-06 DE=-1.53D-09 OVMax= 1.11D-05

 Cycle  14  Pass 1  IDiag  1:
 RMSU=  2.71D-08    CP:  1.00D+00  1.06D+00  7.86D-01  1.44D+00  1.32D+00
                    CP:  1.06D+00  1.27D+00  1.04D+00
 E= -2048.72416614893     Delta-E=       -0.000000000870 Rises=F Damp=F
 DIIS: error= 2.08D-07 at cycle   9 NSaved=   9.
 NSaved= 9 IEnMin= 9 EnMin= -2048.72416614893     IErMin= 9 ErrMin= 2.08D-07
 ErrMax= 2.08D-07  0.00D+00 EMaxC= 1.00D-01 BMatC= 3.53D-11 BMatP= 3.13D-10
 IDIUse=1 WtCom= 1.00D+00 WtEn= 0.00D+00
 Coeff-Com: -0.420D-03 0.491D-02 0.111D-01 0.602D-03-0.558D-01-0.575D-01
 Coeff-Com:  0.946D-01 0.325D+00 0.678D+00
 Coeff:     -0.420D-03 0.491D-02 0.111D-01 0.602D-03-0.558D-01-0.575D-01
 Coeff:      0.946D-01 0.325D+00 0.678D+00
 Gap=     0.282 Goal=   None    Shift=    0.000
 RMSDP=1.35D-08 MaxDP=7.60D-07 DE=-8.70D-10 OVMax= 3.46D-06

 Cycle  15  Pass 1  IDiag  1:
 RMSU=  9.18D-09    CP:  1.00D+00  1.06D+00  7.86D-01  1.44D+00  1.32D+00
                    CP:  1.06D+00  1.29D+00  1.19D+00  1.08D+00
 E= -2048.72416614882     Delta-E=        0.000000000108 Rises=F Damp=F
 DIIS: error= 6.21D-08 at cycle  10 NSaved=  10.
 NSaved=10 IEnMin= 9 EnMin= -2048.72416614893     IErMin=10 ErrMin= 6.21D-08
 ErrMax= 6.21D-08  0.00D+00 EMaxC= 1.00D-01 BMatC= 5.01D-12 BMatP= 3.53D-11
 IDIUse=1 WtCom= 1.00D+00 WtEn= 0.00D+00
 Coeff-Com:  0.437D-05-0.299D-03-0.573D-03 0.169D-03 0.519D-02 0.821D-03
 Coeff-Com: -0.578D-01-0.568D-01 0.246D+00 0.864D+00
 Coeff:      0.437D-05-0.299D-03-0.573D-03 0.169D-03 0.519D-02 0.821D-03
 Coeff:     -0.578D-01-0.568D-01 0.246D+00 0.864D+00
 Gap=     0.282 Goal=   None    Shift=    0.000
 RMSDP=6.90D-09 MaxDP=4.20D-07 DE= 1.08D-10 OVMax= 1.65D-06

 SCF Done:  E(RwB97XD) =  -2048.72416615     A.U. after   15 cycles
            NFock= 15  Conv=0.69D-08     -V/T= 2.0053
 KE= 2.037842295028D+03 PE=-1.573838768591D+04 EE= 6.173069480067D+03
 Leave Link  502 at Fri Jan 26 15:24:20 2018, MaxMem=  4294967296 cpu:           20979.8 elap:             680.7
 (Enter /share/apps/g16/l601.exe)
 Copying SCF densities to generalized density rwf, IOpCl= 0 IROHF=0.

 **********************************************************************

            Population analysis using the SCF density.

 **********************************************************************

 Orbital symmetries:
       Occupied  (A) (A) (A) (A) (A) (A) (A) (A) (A) (A) (A) (A)
                 (A) (A) (A) (A) (A) (A) (A) (A) (A) (A) (A) (A)
                 (A) (A) (A) (A) (A) (A) (A) (A) (A) (A) (A) (A)
                 (A) (A) (A) (A) (A) (A) (A) (A) (A) (A) (A) (A)
                 (A) (A) (A) (A) (A) (A) (A) (A) (A) (A) (A) (A)
                 (A) (A) (A) (A) (A) (A) (A) (A) (A) (A) (A) (A)
                 (A) (A) (A) (A) (A) (A) (A) (A) (A) (A) (A) (A)
                 (A) (A) (A) (A) (A) (A) (A) (A) (A) (A) (A) (A)
                 (A) (A) (A) (A) (A) (A) (A) (A) (A) (A) (A) (A)
                 (A) (A) (A) (A) (A) (A) (A) (A) (A) (A) (A) (A)
                 (A) (A) (A) (A) (A) (A) (A) (A) (A) (A) (A) (A)
                 (A) (A) (A) (A) (A) (A) (A) (A) (A) (A) (A) (A)
                 (A) (A) (A) (A) (A) (A) (A) (A) (A) (A)
       Virtual   (A) (A) (A) (A) (A) (A) (A) (A) (A) (A) (A) (A)
                 (A) (A) (A) (A) (A) (A) (A) (A) (A) (A) (A) (A)
                 (A) (A) (A) (A) (A) (A) (A) (A) (A) (A) (A) (A)
                 (A) (A) (A) (A) (A) (A) (A) (A) (A) (A) (A) (A)
                 (A) (A) (A) (A) (A) (A) (A) (A) (A) (A) (A) (A)
                 (A) (A) (A) (A) (A) (A) (A) (A) (A) (A) (A) (A)
                 (A) (A) (A) (A) (A) (A) (A) (A) (A) (A) (A) (A)
                 (A) (A) (A) (A) (A) (A) (A) (A) (A) (A) (A) (A)
                 (A) (A) (A) (A) (A) (A) (A) (A) (A) (A) (A) (A)
                 (A) (A) (A) (A) (A) (A) (A) (A) (A) (A) (A) (A)
                 (A) (A) (A) (A) (A) (A) (A) (A) (A) (A) (A) (A)
                 (A) (A) (A) (A) (A) (A) (A) (A) (A) (A) (A) (A)
                 (A) (A) (A) (A) (A) (A) (A) (A) (A) (A) (A) (A)
                 (A) (A) (A) (A) (A) (A) (A) (A) (A) (A) (A) (A)
                 (A) (A) (A) (A) (A) (A) (A) (A) (A) (A) (A) (A)
                 (A) (A) (A) (A) (A) (A) (A) (A) (A) (A) (A) (A)
                 (A) (A) (A) (A) (A) (A) (A) (A) (A) (A) (A) (A)
                 (A) (A) (A) (A) (A) (A) (A) (A) (A) (A) (A) (A)
                 (A) (A) (A) (A) (A) (A) (A) (A) (A) (A) (A) (A)
                 (A) (A) (A) (A) (A) (A) (A) (A) (A) (A) (A) (A)
                 (A) (A) (A) (A) (A) (A) (A) (A) (A) (A) (A) (A)
                 (A) (A) (A) (A) (A) (A) (A) (A) (A) (A) (A) (A)
                 (A) (A) (A) (A) (A) (A) (A) (A) (A) (A) (A) (A)
                 (A) (A) (A) (A) (A) (A) (A) (A) (A) (A) (A) (A)
                 (A) (A) (A) (A) (A) (A) (A) (A) (A) (A) (A) (A)
                 (A) (A) (A) (A) (A) (A) (A) (A) (A) (A) (A) (A)
                 (A) (A) (A) (A) (A) (A) (A) (A) (A) (A) (A) (A)
                 (A) (A) (A) (A) (A) (A) (A) (A) (A) (A) (A) (A)
                 (A) (A) (A) (A) (A) (A) (A) (A) (A) (A) (A) (A)
                 (A) (A) (A) (A) (A) (A) (A) (A) (A) (A) (A) (A)
                 (A) (A) (A) (A) (A) (A) (A) (A) (A) (A) (A) (A)
                 (A) (A) (A) (A) (A) (A) (A) (A) (A) (A) (A) (A)
                 (A) (A) (A) (A) (A) (A) (A) (A) (A) (A) (A) (A)
                 (A) (A) (A) (A) (A) (A) (A) (A) (A) (A) (A) (A)
                 (A) (A) (A) (A) (A) (A) (A) (A) (A) (A) (A) (A)
                 (A) (A) (A) (A) (A) (A) (A) (A) (A) (A) (A) (A)
                 (A) (A) (A) (A) (A) (A) (A) (A) (A) (A) (A) (A)
                 (A) (A) (A) (A) (A) (A) (A) (A) (A) (A) (A) (A)
                 (A) (A) (A) (A) (A) (A) (A) (A) (A) (A) (A) (A)
                 (A) (A) (A) (A) (A) (A) (A) (A) (A) (A) (A) (A)
                 (A) (A) (A) (A) (A) (A) (A) (A) (A) (A) (A) (A)
                 (A) (A) (A) (A) (A) (A) (A) (A) (A) (A) (A) (A)
                 (A) (A) (A) (A) (A) (A) (A) (A) (A) (A) (A) (A)
                 (A) (A) (A) (A) (A) (A) (A) (A) (A) (A) (A) (A)
                 (A) (A) (A) (A) (A) (A) (A) (A) (A) (A) (A) (A)
                 (A) (A) (A) (A) (A) (A) (A) (A) (A) (A) (A) (A)
                 (A) (A) (A) (A) (A) (A) (A) (A) (A) (A) (A) (A)
                 (A) (A) (A) (A) (A) (A) (A) (A) (A) (A) (A) (A)
                 (A) (A) (A) (A) (A) (A) (A)
 The electronic state is 1-A.
 Alpha  occ. eigenvalues --  -19.25983 -19.22126 -19.20707 -14.52531 -14.52130
 Alpha  occ. eigenvalues --  -14.48805 -14.48642 -14.47943 -14.47759 -14.46811
 Alpha  occ. eigenvalues --  -14.46565 -14.45058 -14.43561 -14.43059 -14.42189
 Alpha  occ. eigenvalues --  -14.42108 -14.41321 -14.40782 -14.40773 -14.40033
 Alpha  occ. eigenvalues --  -10.45583 -10.41220 -10.40233 -10.39322 -10.38263
 Alpha  occ. eigenvalues --  -10.37954 -10.37604 -10.36533 -10.35319 -10.35125
 Alpha  occ. eigenvalues --  -10.35003 -10.34406 -10.34000 -10.33985 -10.33236
 Alpha  occ. eigenvalues --  -10.33231 -10.32977 -10.32048 -10.31272 -10.30952
 Alpha  occ. eigenvalues --  -10.30845 -10.28414 -10.28150  -1.19543  -1.14802
 Alpha  occ. eigenvalues --   -1.13335  -1.13142  -1.11224  -1.10632  -1.09423
 Alpha  occ. eigenvalues --   -1.08863  -1.08510  -1.04860  -1.04227  -1.02583
 Alpha  occ. eigenvalues --   -1.00715  -1.00342  -0.99862  -0.98605  -0.96877
 Alpha  occ. eigenvalues --   -0.96606  -0.96186  -0.92521  -0.91174  -0.87220
 Alpha  occ. eigenvalues --   -0.85737  -0.84156  -0.83820  -0.83632  -0.82560
 Alpha  occ. eigenvalues --   -0.82206  -0.78993  -0.76587  -0.74720  -0.74310
 Alpha  occ. eigenvalues --   -0.73767  -0.73444  -0.72805  -0.70947  -0.70019
 Alpha  occ. eigenvalues --   -0.67497  -0.66647  -0.66367  -0.66218  -0.64533
 Alpha  occ. eigenvalues --   -0.63915  -0.63835  -0.62825  -0.62616  -0.61981
 Alpha  occ. eigenvalues --   -0.60278  -0.60181  -0.59956  -0.59603  -0.59473
 Alpha  occ. eigenvalues --   -0.59140  -0.58489  -0.56942  -0.56446  -0.56254
 Alpha  occ. eigenvalues --   -0.56060  -0.55515  -0.55341  -0.54822  -0.54428
 Alpha  occ. eigenvalues --   -0.53766  -0.53662  -0.53173  -0.53016  -0.52791
 Alpha  occ. eigenvalues --   -0.52414  -0.52276  -0.51658  -0.50614  -0.50220
 Alpha  occ. eigenvalues --   -0.50098  -0.49496  -0.49356  -0.48882  -0.48720
 Alpha  occ. eigenvalues --   -0.48664  -0.48414  -0.48255  -0.48205  -0.47452
 Alpha  occ. eigenvalues --   -0.46827  -0.45849  -0.44940  -0.44079  -0.43541
 Alpha  occ. eigenvalues --   -0.41043  -0.40153  -0.39526  -0.37751  -0.37298
 Alpha  occ. eigenvalues --   -0.37208  -0.37064  -0.36806  -0.35887  -0.34532
 Alpha  occ. eigenvalues --   -0.34104  -0.33469  -0.33373  -0.33272  -0.32754
 Alpha  occ. eigenvalues --   -0.32671  -0.32452  -0.32086  -0.31848  -0.30709
 Alpha  occ. eigenvalues --   -0.30256  -0.29151  -0.25830  -0.25326
 Alpha virt. eigenvalues --    0.02916   0.04460   0.07567   0.08075   0.08536
 Alpha virt. eigenvalues --    0.09061   0.09473   0.10959   0.11420   0.11860
 Alpha virt. eigenvalues --    0.12461   0.14019   0.14195   0.14660   0.14991
 Alpha virt. eigenvalues --    0.15867   0.15936   0.16895   0.16991   0.17824
 Alpha virt. eigenvalues --    0.18582   0.19322   0.19900   0.20397   0.20420
 Alpha virt. eigenvalues --    0.20851   0.20970   0.20996   0.21285   0.22009
 Alpha virt. eigenvalues --    0.22699   0.23297   0.23328   0.23730   0.23924
 Alpha virt. eigenvalues --    0.24009   0.24116   0.24563   0.24871   0.25326
 Alpha virt. eigenvalues --    0.25696   0.26597   0.27410   0.27837   0.27976
 Alpha virt. eigenvalues --    0.29095   0.29344   0.29611   0.30501   0.30881
 Alpha virt. eigenvalues --    0.31291   0.31861   0.32666   0.33477   0.33752
 Alpha virt. eigenvalues --    0.34152   0.34189   0.34966   0.35830   0.36686
 Alpha virt. eigenvalues --    0.37141   0.37374   0.37996   0.39384   0.39816
 Alpha virt. eigenvalues --    0.39864   0.40390   0.40735   0.41400   0.41672
 Alpha virt. eigenvalues --    0.42378   0.42696   0.43570   0.43673   0.44545
 Alpha virt. eigenvalues --    0.44651   0.45503   0.46315   0.46694   0.47351
 Alpha virt. eigenvalues --    0.47450   0.48072   0.48729   0.49098   0.49730
 Alpha virt. eigenvalues --    0.49927   0.50289   0.50600   0.50765   0.50887
 Alpha virt. eigenvalues --    0.51663   0.52238   0.52459   0.53048   0.53396
 Alpha virt. eigenvalues --    0.53626   0.54149   0.54970   0.55299   0.55872
 Alpha virt. eigenvalues --    0.56386   0.56714   0.56945   0.57167   0.57687
 Alpha virt. eigenvalues --    0.58307   0.58502   0.58956   0.59391   0.59544
 Alpha virt. eigenvalues --    0.59914   0.60351   0.60654   0.60785   0.61284
 Alpha virt. eigenvalues --    0.61752   0.62165   0.62371   0.62979   0.63416
 Alpha virt. eigenvalues --    0.63656   0.63897   0.64547   0.64885   0.65330
 Alpha virt. eigenvalues --    0.65467   0.66467   0.66756   0.66847   0.67579
 Alpha virt. eigenvalues --    0.67705   0.68364   0.68611   0.68790   0.69317
 Alpha virt. eigenvalues --    0.70005   0.70048   0.70156   0.70404   0.70799
 Alpha virt. eigenvalues --    0.71707   0.71824   0.72986   0.73119   0.73394
 Alpha virt. eigenvalues --    0.74000   0.74560   0.74900   0.75065   0.75523
 Alpha virt. eigenvalues --    0.75904   0.75917   0.76330   0.76726   0.77028
 Alpha virt. eigenvalues --    0.77203   0.77446   0.77947   0.78225   0.78519
 Alpha virt. eigenvalues --    0.78979   0.79158   0.80088   0.80676   0.81130
 Alpha virt. eigenvalues --    0.81535   0.81926   0.81950   0.82421   0.82947
 Alpha virt. eigenvalues --    0.83293   0.83691   0.83953   0.84805   0.85348
 Alpha virt. eigenvalues --    0.85613   0.85762   0.86209   0.87389   0.87566
 Alpha virt. eigenvalues --    0.88140   0.88205   0.89286   0.89583   0.89993
 Alpha virt. eigenvalues --    0.90220   0.90639   0.91197   0.91413   0.91879
 Alpha virt. eigenvalues --    0.92322   0.93320   0.93374   0.93793   0.93977
 Alpha virt. eigenvalues --    0.94146   0.94749   0.95486   0.96143   0.96480
 Alpha virt. eigenvalues --    0.96866   0.97059   0.97321   0.98229   0.98475
 Alpha virt. eigenvalues --    0.99095   0.99580   1.00675   1.00907   1.01161
 Alpha virt. eigenvalues --    1.01791   1.02145   1.02316   1.02963   1.03183
 Alpha virt. eigenvalues --    1.03337   1.04185   1.04807   1.05555   1.05694
 Alpha virt. eigenvalues --    1.05800   1.06430   1.06857   1.07652   1.08386
 Alpha virt. eigenvalues --    1.08550   1.09104   1.09361   1.10558   1.10762
 Alpha virt. eigenvalues --    1.11475   1.11820   1.12717   1.13602   1.13870
 Alpha virt. eigenvalues --    1.14083   1.14272   1.14999   1.15654   1.16024
 Alpha virt. eigenvalues --    1.16242   1.16343   1.16663   1.17186   1.17885
 Alpha virt. eigenvalues --    1.18830   1.19128   1.19276   1.19385   1.20212
 Alpha virt. eigenvalues --    1.20307   1.20588   1.20782   1.21308   1.21604
 Alpha virt. eigenvalues --    1.22274   1.22756   1.22884   1.23079   1.23251
 Alpha virt. eigenvalues --    1.23855   1.24127   1.24567   1.24826   1.25060
 Alpha virt. eigenvalues --    1.25754   1.26465   1.27425   1.27616   1.28253
 Alpha virt. eigenvalues --    1.28917   1.29504   1.30219   1.30994   1.32237
 Alpha virt. eigenvalues --    1.32410   1.32785   1.33526   1.34395   1.34676
 Alpha virt. eigenvalues --    1.35250   1.35667   1.36136   1.36825   1.37641
 Alpha virt. eigenvalues --    1.38041   1.39245   1.39403   1.39974   1.41311
 Alpha virt. eigenvalues --    1.42005   1.42421   1.43476   1.44436   1.45381
 Alpha virt. eigenvalues --    1.46287   1.47320   1.47729   1.48275   1.48373
 Alpha virt. eigenvalues --    1.48804   1.49179   1.49388   1.50247   1.50992
 Alpha virt. eigenvalues --    1.51283   1.51750   1.52703   1.53513   1.53844
 Alpha virt. eigenvalues --    1.56013   1.56096   1.56220   1.57370   1.57732
 Alpha virt. eigenvalues --    1.58461   1.59154   1.59293   1.59914   1.60876
 Alpha virt. eigenvalues --    1.61547   1.62026   1.62378   1.62795   1.63601
 Alpha virt. eigenvalues --    1.63968   1.65222   1.65678   1.66367   1.66799
 Alpha virt. eigenvalues --    1.67253   1.67865   1.68504   1.68733   1.69408
 Alpha virt. eigenvalues --    1.70311   1.70360   1.70557   1.71007   1.71422
 Alpha virt. eigenvalues --    1.71899   1.72805   1.72973   1.73037   1.73508
 Alpha virt. eigenvalues --    1.74286   1.74712   1.74974   1.75117   1.75466
 Alpha virt. eigenvalues --    1.75950   1.76460   1.76565   1.76810   1.77182
 Alpha virt. eigenvalues --    1.77578   1.77929   1.78348   1.78855   1.79100
 Alpha virt. eigenvalues --    1.79609   1.79994   1.80199   1.80394   1.80480
 Alpha virt. eigenvalues --    1.80944   1.81245   1.81520   1.81740   1.82323
 Alpha virt. eigenvalues --    1.82950   1.83465   1.83636   1.84130   1.84373
 Alpha virt. eigenvalues --    1.85503   1.85983   1.86332   1.87130   1.87382
 Alpha virt. eigenvalues --    1.87756   1.88117   1.88512   1.88728   1.89088
 Alpha virt. eigenvalues --    1.89726   1.89992   1.90531   1.90745   1.92031
 Alpha virt. eigenvalues --    1.92286   1.93109   1.93423   1.93608   1.93998
 Alpha virt. eigenvalues --    1.94515   1.95307   1.95639   1.96547   1.97282
 Alpha virt. eigenvalues --    1.98261   1.99085   2.00088   2.00792   2.01199
 Alpha virt. eigenvalues --    2.01489   2.01939   2.02470   2.02686   2.03996
 Alpha virt. eigenvalues --    2.05096   2.05451   2.06216   2.06439   2.07009
 Alpha virt. eigenvalues --    2.07975   2.08448   2.08825   2.09125   2.09659
 Alpha virt. eigenvalues --    2.10462   2.10603   2.11557   2.12899   2.13619
 Alpha virt. eigenvalues --    2.14126   2.15258   2.15337   2.16649   2.18112
 Alpha virt. eigenvalues --    2.19005   2.19944   2.20266   2.20612   2.21159
 Alpha virt. eigenvalues --    2.21647   2.22208   2.22890   2.23591   2.24119
 Alpha virt. eigenvalues --    2.24327   2.24833   2.25679   2.25814   2.26596
 Alpha virt. eigenvalues --    2.27660   2.28506   2.29366   2.29720   2.29861
 Alpha virt. eigenvalues --    2.30005   2.30742   2.31194   2.31922   2.32759
 Alpha virt. eigenvalues --    2.33161   2.34163   2.34548   2.34980   2.35058
 Alpha virt. eigenvalues --    2.35655   2.36037   2.36900   2.36936   2.37353
 Alpha virt. eigenvalues --    2.38183   2.39751   2.40070   2.41024   2.41758
 Alpha virt. eigenvalues --    2.41967   2.42633   2.43071   2.43524   2.44518
 Alpha virt. eigenvalues --    2.45663   2.45960   2.46272   2.46553   2.47208
 Alpha virt. eigenvalues --    2.47800   2.49077   2.50147   2.50434   2.51844
 Alpha virt. eigenvalues --    2.52683   2.53592   2.54519   2.55009   2.55584
 Alpha virt. eigenvalues --    2.56614   2.57506   2.57941   2.58311   2.59107
 Alpha virt. eigenvalues --    2.60762   2.61510   2.61909   2.62108   2.63454
 Alpha virt. eigenvalues --    2.64352   2.64644   2.65103   2.65139   2.66216
 Alpha virt. eigenvalues --    2.66609   2.67940   2.68709   2.68767   2.69310
 Alpha virt. eigenvalues --    2.69718   2.70548   2.70992   2.71440   2.72389
 Alpha virt. eigenvalues --    2.73216   2.73725   2.74419   2.75448   2.75791
 Alpha virt. eigenvalues --    2.77765   2.78883   2.78946   2.79182   2.79539
 Alpha virt. eigenvalues --    2.80151   2.80191   2.80682   2.81121   2.81677
 Alpha virt. eigenvalues --    2.81786   2.82259   2.82815   2.83103   2.84187
 Alpha virt. eigenvalues --    2.84796   2.85410   2.86295   2.86692   2.87271
 Alpha virt. eigenvalues --    2.87826   2.88842   2.89358   2.92131   2.93723
 Alpha virt. eigenvalues --    2.94793   2.95355   2.97168   2.98459   2.99285
 Alpha virt. eigenvalues --    3.00364   3.02508   3.03405   3.04973   3.06793
 Alpha virt. eigenvalues --    3.08203   3.10033   3.10384   3.13678   3.14627
 Alpha virt. eigenvalues --    3.15215   3.16050   3.16252   3.18061   3.20352
 Alpha virt. eigenvalues --    3.21804   3.22274   3.23892   3.24059   3.26641
 Alpha virt. eigenvalues --    3.45365   3.47339   3.47932   3.49599   3.50124
 Alpha virt. eigenvalues --    3.53448   3.54025   3.56253   3.58104   3.59919
 Alpha virt. eigenvalues --    3.62715   3.70536   3.74372
          Condensed to atoms (all electrons):
 Mulliken charges:
               1
     1  N   -0.312084
     2  C    0.181287
     3  C    0.036401
     4  N   -0.260040
     5  C    0.134418
     6  H    0.026173
     7  N   -0.292855
     8  C    0.140411
     9  H    0.006582
    10  N   -0.291912
    11  C    0.248331
    12  C    0.125068
    13  N   -0.057417
    14  H    0.109029
    15  H    0.087156
    16  H    0.024683
    17  H    0.033539
    18  H    0.026587
    19  N   -0.311722
    20  C    0.239694
    21  C    0.181360
    22  N   -0.095123
    23  H    0.115436
    24  H    0.112003
    25  N   -0.290732
    26  C    0.203987
    27  N   -0.116827
    28  H    0.114511
    29  C    0.146231
    30  O   -0.315922
    31  C    0.017027
    32  N   -0.222806
    33  C    0.126394
    34  H    0.028399
    35  H    0.028518
    36  H    0.027834
    37  H    0.024867
    38  H    0.063243
    39  H    0.057768
    40  H    0.074176
    41  H    0.031757
    42  C   -0.112358
    43  O   -0.264135
    44  C    0.168436
    45  H    0.133775
    46  N   -0.129826
    47  O   -0.346690
    48  C    0.354018
    49  H    0.048196
    50  C    0.166999
    51  C    0.042924
    52  N   -0.292150
    53  H    0.037719
    54  H    0.042246
    55  H    0.020848
    56  H    0.125180
    57  H    0.114618
    58  N   -0.068160
    59  C    0.084958
    60  C    0.211678
    61  N   -0.259135
    62  H    0.050152
    63  C    0.165272
    64  N   -0.301270
    65  H    0.033347
    66  C    0.133937
    67  N   -0.266836
    68  C    0.048550
    69  C    0.163740
    70  N   -0.311463
 Sum of Mulliken charges =  -0.00000
 Mulliken charges with hydrogens summed into heavy atoms:
               1
     1  N   -0.312084
     2  C    0.266096
     3  C    0.036401
     4  N   -0.260040
     5  C    0.160591
     7  N   -0.292855
     8  C    0.146993
    10  N   -0.291912
    11  C    0.248331
    12  C    0.125068
    13  N    0.138769
    19  N   -0.311722
    20  C    0.239694
    21  C    0.262578
    22  N    0.132315
    25  N   -0.290732
    26  C    0.203987
    27  N   -0.002317
    29  C    0.146231
    30  O   -0.315922
    31  C    0.017027
    32  N   -0.222806
    33  C    0.154794
    42  C   -0.080601
    43  O   -0.264135
    44  C    0.168436
    46  N    0.003949
    47  O   -0.346690
    48  C    0.354018
    50  C    0.215195
    51  C    0.238111
    52  N   -0.292150
    58  N    0.171637
    59  C    0.084958
    60  C    0.211678
    61  N   -0.259135
    63  C    0.215424
    64  N   -0.301270
    66  C    0.167285
    67  N   -0.266836
    68  C    0.048550
    69  C    0.264553
    70  N   -0.311463
 Electronic spatial extent (au):  <R**2>=          22674.4268
 Charge=             -0.0000 electrons
 Dipole moment (field-independent basis, Debye):
    X=              8.6243    Y=              5.1712    Z=              2.5478  Tot=             10.3736
 Quadrupole moment (field-independent basis, Debye-Ang):
   XX=           -155.9670   YY=           -214.1428   ZZ=           -253.5322
   XY=             -2.8574   XZ=              6.0055   YZ=             -9.2507
 Traceless Quadrupole moment (field-independent basis, Debye-Ang):
   XX=             51.9137   YY=             -6.2621   ZZ=            -45.6515
   XY=             -2.8574   XZ=              6.0055   YZ=             -9.2507
 Octapole moment (field-independent basis, Debye-Ang**2):
  XXX=            -28.1980  YYY=            140.8086  ZZZ=              0.7964  XYY=             93.4550
  XXY=            -65.6301  XXZ=            -46.7252  XZZ=             26.8352  YZZ=             26.2927
  YYZ=             42.9830  XYZ=             57.9170
 Hexadecapole moment (field-independent basis, Debye-Ang**3):
 XXXX=         -14383.2172 YYYY=          -6936.7121 ZZZZ=          -3409.1083 XXXY=            475.9945
 XXXZ=            -29.8367 YYYX=           -136.1451 YYYZ=           -109.0340 ZZZX=             21.4678
 ZZZY=              1.6142 XXYY=          -3446.1975 XXZZ=          -3730.5969 YYZZ=          -1739.3213
 XXYZ=             96.4719 YYXZ=            236.2992 ZZXY=             -0.2107
 N-N= 5.478751744665D+03 E-N=-1.573838768058D+04  KE= 2.037842295028D+03
 No NMR shielding tensors so no spin-rotation constants.
 Leave Link  601 at Fri Jan 26 15:24:22 2018, MaxMem=  4294967296 cpu:              48.8 elap:               1.7
 (Enter /share/apps/g16/l9999.exe)
 1\1\GINC-COMPUTE-0-3\SP\RwB97XD\CC-pVDZ\C23H27N17O3\SATYA\26-Jan-2018\
 0\\#p wb97xd/cc-pvdz sp scf=(maxcycles=20)\\Base pair stacking\\0,1\N,
 0,6.80328,0.5961,-7.07977\C,0,8.16754,1.13866,-7.22947\C,0,4.62543,0.4
 0951,-6.8359\N,0,5.12094,-0.88469,-6.90102\C,0,6.41318,-0.72048,-7.045
 34\H,0,7.13545,-1.53268,-7.13253\N,0,3.17326,2.25961,-6.65905\C,0,4.26
 122,3.02789,-6.77601\H,0,4.07784,4.10113,-6.74762\N,0,5.5357,2.67116,-
 6.92208\C,0,5.65056,1.33298,-6.94467\C,0,3.32212,0.91715,-6.68549\N,0,
 2.23729,0.14856,-6.56888\H,0,2.30042,-0.84995,-6.58319\H,0,1.32499,0.5
 4442,-6.4633\H,0,8.55753,0.82909,-8.09679\H,0,8.13287,2.13756,-7.21836
 \H,0,8.74054,0.81831,-6.47512\N,0,3.41999,4.72837,-3.357\C,0,2.15563,4
 .1948,-3.28806\C,0,3.73599,6.16932,-3.42418\N,0,-1.28861,4.62555,-3.17
 225\H,0,-2.10282,4.04809,-3.11893\H,0,-1.43514,5.6146,-3.20442\N,0,0.9
 9884,4.89162,-3.27026\C,0,-0.05528,4.09824,-3.19947\N,0,0.01587,2.7271
 2,-3.14982\H,0,-0.84247,2.20043,-3.09674\C,0,1.1952,1.98905,-3.16691\O
 ,0,1.14925,0.75364,-3.11794\C,0,2.33621,2.82764,-3.24276\N,0,3.68676,2
 .5093,-3.28246\C,0,4.28967,3.66523,-3.34977\H,0,5.37085,3.79988,-3.396
 44\H,0,4.23498,6.36384,-4.26797\H,0,2.88676,6.69555,-3.41168\H,0,4.297
 56,6.4261,-2.63836\H,0,-5.476,0.14409,-3.48991\H,0,-5.30946,-0.0526,-1
 .74686\H,0,-4.54195,1.31364,-2.5566\H,0,-2.60807,-3.7145,-3.30877\C,0,
 -2.54364,-2.63254,-3.19283\O,0,-0.18248,-2.56502,-3.41081\C,0,-1.26199
 ,-1.998,-3.24368\H,0,-0.40643,-0.14326,-3.11613\N,0,-1.29285,-0.62707,
 -3.08603\O,0,-2.32776,1.36821,-2.76199\C,0,-2.401,0.15886,-2.89147\H,0
 ,-4.64057,-2.32672,-2.95797\C,0,-3.64264,-1.89275,-3.00435\C,0,-4.8115
 1,0.27199,-2.64839\N,0,-3.59966,-0.52601,-2.85422\H,0,-3.78845,5.9776,
 -6.03178\H,0,-2.3995,5.83536,-5.18757\H,0,-3.83558,5.66835,-4.43004\H,
 0,-1.25839,-0.98472,-6.46812\H,0,-2.92163,-0.6064,-6.44347\N,0,-1.9745
 ,-0.29567,-6.35616\C,0,-1.6806,0.98106,-6.10172\C,0,-2.19017,3.26605,-
 5.67638\N,0,-0.90924,3.65477,-5.56437\H,0,0.97211,2.84796,-5.66522\C,0
 ,-0.09024,2.61974,-5.73998\N,0,-0.38266,1.34025,-5.9949\H,0,-5.40885,3
 .56775,-5.71159\C,0,-4.38088,3.20631,-5.7514\N,0,-4.03655,1.96276,-5.9
 8094\C,0,-2.65014,1.98679,-5.93612\C,0,-3.33606,5.49844,-5.27962\N,0,-
 3.31378,4.04931,-5.55809\\Version=EM64L-G16RevA.03\State=1-A\HF=-2048.
 7241661\RMSD=6.899e-09\Dipole=-3.6133477,1.89544,0.0882897\Quadrupole=
 36.0013929,-6.0328068,-29.9685861,6.9536261,-12.7900848,8.7280133\PG=C
 01 [X(C23H27N17O3)]\\@


 DO YOU KNOW THAT THE LETTERS IN "EPISCOPAL", WHEN
 REARRANGED, SPELL "PEPSI COLA"?
 Job cpu time:       0 days  5 hours 59 minutes 44.9 seconds.
 Elapsed time:       0 days  0 hours 11 minutes 40.0 seconds.
 File lengths (MBytes):  RWF=    298 Int=      0 D2E=      0 Chk=     33 Scr=      1
 Normal termination of Gaussian 16 at Fri Jan 26 15:24:22 2018.
