 Entering Gaussian System, Link 0=g16
 Input=str55.5.-1.0.com
 Output=str55.5.-1.0.log
 Initial command:
 /share/apps/g16/l1.exe "/state/partition1/scr/Gau-13675.inp" -scrdir="/state/partition1/scr/"
 Entering Link 1 = /share/apps/g16/l1.exe PID=     13676.
  
 Copyright (c) 1988,1990,1992,1993,1995,1998,2003,2009,2016,
            Gaussian, Inc.  All Rights Reserved.
  
 This is part of the Gaussian(R) 16 program.  It is based on
 the Gaussian(R) 09 system (copyright 2009, Gaussian, Inc.),
 the Gaussian(R) 03 system (copyright 2003, Gaussian, Inc.),
 the Gaussian(R) 98 system (copyright 1998, Gaussian, Inc.),
 the Gaussian(R) 94 system (copyright 1995, Gaussian, Inc.),
 the Gaussian 92(TM) system (copyright 1992, Gaussian, Inc.),
 the Gaussian 90(TM) system (copyright 1990, Gaussian, Inc.),
 the Gaussian 88(TM) system (copyright 1988, Gaussian, Inc.),
 the Gaussian 86(TM) system (copyright 1986, Carnegie Mellon
 University), and the Gaussian 82(TM) system (copyright 1983,
 Carnegie Mellon University). Gaussian is a federally registered
 trademark of Gaussian, Inc.
  
 This software contains proprietary and confidential information,
 including trade secrets, belonging to Gaussian, Inc.
  
 This software is provided under written license and may be
 used, copied, transmitted, or stored only in accord with that
 written license.
  
 The following legend is applicable only to US Government
 contracts under FAR:
  
                    RESTRICTED RIGHTS LEGEND
  
 Use, reproduction and disclosure by the US Government is
 subject to restrictions as set forth in subparagraphs (a)
 and (c) of the Commercial Computer Software - Restricted
 Rights clause in FAR 52.227-19.
  
 Gaussian, Inc.
 340 Quinnipiac St., Bldg. 40, Wallingford CT 06492
  
  
 ---------------------------------------------------------------
 Warning -- This program may not be used in any manner that
 competes with the business of Gaussian, Inc. or will provide
 assistance to any competitor of Gaussian, Inc.  The licensee
 of this program is prohibited from giving any competitor of
 Gaussian, Inc. access to this program.  By using this program,
 the user acknowledges that Gaussian, Inc. is engaged in the
 business of creating and licensing software in the field of
 computational chemistry and represents and warrants to the
 licensee that it is not a competitor of Gaussian, Inc. and that
 it will not use this program in any manner prohibited above.
 ---------------------------------------------------------------
  

 Cite this work as:
 Gaussian 16, Revision A.03,
 M. J. Frisch, G. W. Trucks, H. B. Schlegel, G. E. Scuseria, 
 M. A. Robb, J. R. Cheeseman, G. Scalmani, V. Barone, 
 G. A. Petersson, H. Nakatsuji, X. Li, M. Caricato, A. V. Marenich, 
 J. Bloino, B. G. Janesko, R. Gomperts, B. Mennucci, H. P. Hratchian, 
 J. V. Ortiz, A. F. Izmaylov, J. L. Sonnenberg, D. Williams-Young, 
 F. Ding, F. Lipparini, F. Egidi, J. Goings, B. Peng, A. Petrone, 
 T. Henderson, D. Ranasinghe, V. G. Zakrzewski, J. Gao, N. Rega, 
 G. Zheng, W. Liang, M. Hada, M. Ehara, K. Toyota, R. Fukuda, 
 J. Hasegawa, M. Ishida, T. Nakajima, Y. Honda, O. Kitao, H. Nakai, 
 T. Vreven, K. Throssell, J. A. Montgomery, Jr., J. E. Peralta, 
 F. Ogliaro, M. J. Bearpark, J. J. Heyd, E. N. Brothers, K. N. Kudin, 
 V. N. Staroverov, T. A. Keith, R. Kobayashi, J. Normand, 
 K. Raghavachari, A. P. Rendell, J. C. Burant, S. S. Iyengar, 
 J. Tomasi, M. Cossi, J. M. Millam, M. Klene, C. Adamo, R. Cammi, 
 J. W. Ochterski, R. L. Martin, K. Morokuma, O. Farkas, 
 J. B. Foresman, and D. J. Fox, Gaussian, Inc., Wallingford CT, 2016.
 
 ******************************************
 Gaussian 16:  EM64L-G16RevA.03 25-Dec-2016
                26-Jan-2018 
 ******************************************
 %nprocshared=32
 Will use up to   32 processors via shared memory.
 %mem=32GB
 %chk=allatoms_t.chk
 ---------------------------------------
 #p wb97xd/cc-pvdz sp scf=(maxcycles=20)
 ---------------------------------------
 1/38=1,172=1/1;
 2/12=2,17=6,18=5,40=1/2;
 3/5=16,11=2,25=1,30=1,74=-58/1,2,3;
 4//1;
 5/5=2,7=20,38=5/2;
 6/7=2,8=2,9=2,10=2,28=1/1;
 99/5=1,9=1/99;
 Leave Link    1 at Fri Jan 26 15:35:52 2018, MaxMem=  4294967296 cpu:               2.7 elap:               0.1
 (Enter /share/apps/g16/l101.exe)
 ------------------
 Base pair stacking
 ------------------
 Symbolic Z-matrix:
 Charge =  0 Multiplicity = 1
 N                     7.69041   0.1122   -5.80997 
 C                     9.07068   0.6318   -5.86351 
 C                     5.49812  -0.05367  -5.87048 
 N                     5.97506  -1.32122  -5.56953 
 C                     7.27674  -1.17056  -5.54512 
 H                     7.98951  -1.96912  -5.33726 
 N                     4.06861   1.76393  -6.33505 
 C                     5.17483   2.50602  -6.44986 
 H                     5.00804   3.55544  -6.68891 
 N                     6.45014   2.14808  -6.31434 
 C                     6.54372   0.84044  -6.02153 
 C                     4.1963    0.45184  -6.03975 
 N                     3.09323  -0.29057  -5.92473 
 H                     3.14035  -1.26613  -5.70728 
 H                     2.18263   0.10284  -6.05192 
 H                     9.58461   0.14443  -6.56959 
 H                     9.05217   1.60752  -6.07973 
 H                     9.51449   0.49679  -4.97762 
 N                     3.70922   4.7209   -3.16555 
 C                     2.44469   4.18742  -3.23193 
 C                     4.03845   6.15495  -3.29124 
 N                    -0.98103   4.60852  -3.61779 
 H                    -1.79771   4.03234  -3.63509 
 H                    -1.11698   5.59205  -3.73984 
 N                     1.29968   4.8781   -3.42161 
 C                     0.24191   4.08663  -3.43902 
 N                     0.29894   2.72286  -3.28282 
 H                    -0.56118   2.1971   -3.30999 
 C                     1.46597   1.9912   -3.08643 
 O                     1.40775   0.76219  -2.95652 
 C                     2.61074   2.82783  -3.06538 
 N                     3.95252   2.51406  -2.89782 
 C                     4.5646    3.66522  -2.96426 
 H                     5.64269   3.80147  -2.8725 
 H                     4.64879   6.29144  -4.07077 
 H                     3.19803   6.67659  -3.43209 
 H                     4.48886   6.46966  -2.45644 
 H                    -5.10778   0.09546  -4.18421 
 H                    -5.18145   0.02395  -2.4252 
 H                    -4.30403   1.33291  -3.21774 
 H                    -2.31018  -3.72648  -3.33991 
 C                    -2.25689  -2.63872  -3.29346 
 O                     0.11223  -2.57535  -3.19166 
 C                    -0.97721  -2.00316  -3.21403 
 H                    -0.13799  -0.13989  -3.10313 
 N                    -1.02259  -0.62466  -3.15989 
 O                    -2.08228   1.38354  -3.12263 
 C                    -2.14308   0.1677   -3.1746 
 H                    -4.36474  -2.32721  -3.36908 
 C                    -3.3677   -1.89277  -3.30966 
 C                    -4.56363   0.28607  -3.27117 
 N                    -3.33894  -0.51863  -3.25259 
 H                    -2.84035   5.40623  -7.63201 
 H                    -1.60131   5.47906  -6.57297 
 H                    -3.13994   5.45916  -6.02862 
 H                    -0.39526  -1.43417  -6.11678 
 H                    -2.03545  -1.08893  -6.4341 
 N                    -1.10793  -0.75007  -6.27253 
 C                    -0.83464   0.55623  -6.2653 
 C                    -1.36384   2.86938  -6.44136 
 N                    -0.10904   3.29559  -6.22171 
 H                     1.7509    2.51949  -5.84901 
 C                     0.70906   2.26185  -6.03461 
 N                     0.43726   0.95278  -6.04147 
 H                    -4.53262   3.09948  -7.03978 
 C                    -3.51732   2.75624  -6.83902 
 N                    -3.16343   1.49895  -6.73098 
 C                    -1.8004    1.55655  -6.47881 
 C                    -2.51812   5.11381  -6.73165 
 N                    -2.47837   3.63963  -6.67491 
 
 ITRead=  0  0  0  0  0  0  0  0  0  0  0  0  0  0  0  0  0  0  0  0
 ITRead=  0  0  0  0  0  0  0  0  0  0  0  0  0  0  0  0  0  0  0  0
 ITRead=  0  0  0  0  0  0  0  0  0  0  0  0  0  0  0  0  0  0  0  0
 ITRead=  0  0  0  0  0  0  0  0  0  0
 MicOpt= -1 -1 -1 -1 -1 -1 -1 -1 -1 -1 -1 -1 -1 -1 -1 -1 -1 -1 -1 -1
 MicOpt= -1 -1 -1 -1 -1 -1 -1 -1 -1 -1 -1 -1 -1 -1 -1 -1 -1 -1 -1 -1
 MicOpt= -1 -1 -1 -1 -1 -1 -1 -1 -1 -1 -1 -1 -1 -1 -1 -1 -1 -1 -1 -1
 MicOpt= -1 -1 -1 -1 -1 -1 -1 -1 -1 -1
 NAtoms=     70 NQM=       70 NQMF=       0 NMMI=      0 NMMIF=      0
                NMic=       0 NMicF=      0.
                    Isotopes and Nuclear Properties:
 (Nuclear quadrupole moments (NQMom) in fm**2, nuclear magnetic moments (NMagM)
  in nuclear magnetons)

  Atom         1           2           3           4           5           6           7           8           9          10
 IAtWgt=          14          12          12          14          12           1          14          12           1          14
 AtmWgt=  14.0030740  12.0000000  12.0000000  14.0030740  12.0000000   1.0078250  14.0030740  12.0000000   1.0078250  14.0030740
 NucSpn=           2           0           0           2           0           1           2           0           1           2
 AtZEff=  -0.0000000  -0.0000000  -0.0000000  -0.0000000  -0.0000000  -0.0000000  -0.0000000  -0.0000000  -0.0000000  -0.0000000
 NQMom=    2.0440000   0.0000000   0.0000000   2.0440000   0.0000000   0.0000000   2.0440000   0.0000000   0.0000000   2.0440000
 NMagM=    0.4037610   0.0000000   0.0000000   0.4037610   0.0000000   2.7928460   0.4037610   0.0000000   2.7928460   0.4037610
 AtZNuc=   7.0000000   6.0000000   6.0000000   7.0000000   6.0000000   1.0000000   7.0000000   6.0000000   1.0000000   7.0000000

  Atom        11          12          13          14          15          16          17          18          19          20
 IAtWgt=          12          12          14           1           1           1           1           1          14          12
 AtmWgt=  12.0000000  12.0000000  14.0030740   1.0078250   1.0078250   1.0078250   1.0078250   1.0078250  14.0030740  12.0000000
 NucSpn=           0           0           2           1           1           1           1           1           2           0
 AtZEff=  -0.0000000  -0.0000000  -0.0000000  -0.0000000  -0.0000000  -0.0000000  -0.0000000  -0.0000000  -0.0000000  -0.0000000
 NQMom=    0.0000000   0.0000000   2.0440000   0.0000000   0.0000000   0.0000000   0.0000000   0.0000000   2.0440000   0.0000000
 NMagM=    0.0000000   0.0000000   0.4037610   2.7928460   2.7928460   2.7928460   2.7928460   2.7928460   0.4037610   0.0000000
 AtZNuc=   6.0000000   6.0000000   7.0000000   1.0000000   1.0000000   1.0000000   1.0000000   1.0000000   7.0000000   6.0000000

  Atom        21          22          23          24          25          26          27          28          29          30
 IAtWgt=          12          14           1           1          14          12          14           1          12          16
 AtmWgt=  12.0000000  14.0030740   1.0078250   1.0078250  14.0030740  12.0000000  14.0030740   1.0078250  12.0000000  15.9949146
 NucSpn=           0           2           1           1           2           0           2           1           0           0
 AtZEff=  -0.0000000  -0.0000000  -0.0000000  -0.0000000  -0.0000000  -0.0000000  -0.0000000  -0.0000000  -0.0000000  -0.0000000
 NQMom=    0.0000000   2.0440000   0.0000000   0.0000000   2.0440000   0.0000000   2.0440000   0.0000000   0.0000000   0.0000000
 NMagM=    0.0000000   0.4037610   2.7928460   2.7928460   0.4037610   0.0000000   0.4037610   2.7928460   0.0000000   0.0000000
 AtZNuc=   6.0000000   7.0000000   1.0000000   1.0000000   7.0000000   6.0000000   7.0000000   1.0000000   6.0000000   8.0000000

  Atom        31          32          33          34          35          36          37          38          39          40
 IAtWgt=          12          14          12           1           1           1           1           1           1           1
 AtmWgt=  12.0000000  14.0030740  12.0000000   1.0078250   1.0078250   1.0078250   1.0078250   1.0078250   1.0078250   1.0078250
 NucSpn=           0           2           0           1           1           1           1           1           1           1
 AtZEff=  -0.0000000  -0.0000000  -0.0000000  -0.0000000  -0.0000000  -0.0000000  -0.0000000  -0.0000000  -0.0000000  -0.0000000
 NQMom=    0.0000000   2.0440000   0.0000000   0.0000000   0.0000000   0.0000000   0.0000000   0.0000000   0.0000000   0.0000000
 NMagM=    0.0000000   0.4037610   0.0000000   2.7928460   2.7928460   2.7928460   2.7928460   2.7928460   2.7928460   2.7928460
 AtZNuc=   6.0000000   7.0000000   6.0000000   1.0000000   1.0000000   1.0000000   1.0000000   1.0000000   1.0000000   1.0000000

  Atom        41          42          43          44          45          46          47          48          49          50
 IAtWgt=           1          12          16          12           1          14          16          12           1          12
 AtmWgt=   1.0078250  12.0000000  15.9949146  12.0000000   1.0078250  14.0030740  15.9949146  12.0000000   1.0078250  12.0000000
 NucSpn=           1           0           0           0           1           2           0           0           1           0
 AtZEff=  -0.0000000  -0.0000000  -0.0000000  -0.0000000  -0.0000000  -0.0000000  -0.0000000  -0.0000000  -0.0000000  -0.0000000
 NQMom=    0.0000000   0.0000000   0.0000000   0.0000000   0.0000000   2.0440000   0.0000000   0.0000000   0.0000000   0.0000000
 NMagM=    2.7928460   0.0000000   0.0000000   0.0000000   2.7928460   0.4037610   0.0000000   0.0000000   2.7928460   0.0000000
 AtZNuc=   1.0000000   6.0000000   8.0000000   6.0000000   1.0000000   7.0000000   8.0000000   6.0000000   1.0000000   6.0000000

  Atom        51          52          53          54          55          56          57          58          59          60
 IAtWgt=          12          14           1           1           1           1           1          14          12          12
 AtmWgt=  12.0000000  14.0030740   1.0078250   1.0078250   1.0078250   1.0078250   1.0078250  14.0030740  12.0000000  12.0000000
 NucSpn=           0           2           1           1           1           1           1           2           0           0
 AtZEff=  -0.0000000  -0.0000000  -0.0000000  -0.0000000  -0.0000000  -0.0000000  -0.0000000  -0.0000000  -0.0000000  -0.0000000
 NQMom=    0.0000000   2.0440000   0.0000000   0.0000000   0.0000000   0.0000000   0.0000000   2.0440000   0.0000000   0.0000000
 NMagM=    0.0000000   0.4037610   2.7928460   2.7928460   2.7928460   2.7928460   2.7928460   0.4037610   0.0000000   0.0000000
 AtZNuc=   6.0000000   7.0000000   1.0000000   1.0000000   1.0000000   1.0000000   1.0000000   7.0000000   6.0000000   6.0000000

  Atom        61          62          63          64          65          66          67          68          69          70
 IAtWgt=          14           1          12          14           1          12          14          12          12          14
 AtmWgt=  14.0030740   1.0078250  12.0000000  14.0030740   1.0078250  12.0000000  14.0030740  12.0000000  12.0000000  14.0030740
 NucSpn=           2           1           0           2           1           0           2           0           0           2
 AtZEff=  -0.0000000  -0.0000000  -0.0000000  -0.0000000  -0.0000000  -0.0000000  -0.0000000  -0.0000000  -0.0000000  -0.0000000
 NQMom=    2.0440000   0.0000000   0.0000000   2.0440000   0.0000000   0.0000000   2.0440000   0.0000000   0.0000000   2.0440000
 NMagM=    0.4037610   2.7928460   0.0000000   0.4037610   2.7928460   0.0000000   0.4037610   0.0000000   0.0000000   0.4037610
 AtZNuc=   7.0000000   1.0000000   6.0000000   7.0000000   1.0000000   6.0000000   7.0000000   6.0000000   6.0000000   7.0000000
 Leave Link  101 at Fri Jan 26 15:35:52 2018, MaxMem=  4294967296 cpu:               7.7 elap:               0.3
 (Enter /share/apps/g16/l202.exe)
 Stoichiometry    C23H27N17O3
 Framework group  C1[X(C23H27N17O3)]
 Deg. of freedom   204
 Full point group                 C1      NOp   1
 Largest Abelian subgroup         C1      NOp   1
 Largest concise Abelian subgroup C1      NOp   1
                         Standard orientation:                         
 ---------------------------------------------------------------------
 Center     Atomic      Atomic             Coordinates (Angstroms)
 Number     Number       Type             X           Y           Z
 ---------------------------------------------------------------------
      1          7           0       -6.464708   -1.660351    0.564552
      2          6           0       -7.864774   -1.197401    0.505498
      3          6           0       -4.279400   -1.736729    0.800992
      4          7           0       -4.678854   -3.022789    0.467510
      5          6           0       -5.979429   -2.925304    0.338411
      6          1           0       -6.640253   -3.752333    0.077107
      7          7           0       -2.966661    0.137809    1.371797
      8          6           0       -4.107724    0.834257    1.394934
      9          1           0       -4.003353    1.889705    1.642691
     10          7           0       -5.352492    0.424592    1.159073
     11          6           0       -5.369162   -0.885901    0.864544
     12          6           0       -3.016923   -1.178521    1.072071
     13          7           0       -1.878967   -1.875418    1.048474
     14          1           0       -1.868880   -2.852182    0.831555
     15          1           0       -0.998207   -1.445176    1.246703
     16          1           0       -8.413436   -1.705002    1.169963
     17          1           0       -7.903263   -0.221644    0.718900
     18          1           0       -8.230314   -1.350764   -0.412574
     19          7           0       -2.474709    3.105602   -1.769660
     20          6           0       -1.198962    2.624119   -1.600287
     21          6           0       -2.870876    4.525100   -1.676030
     22          7           0        2.164895    3.184621   -0.942966
     23          1           0        3.000269    2.642204   -0.858211
     24          1           0        2.250602    4.172926   -0.814058
     25          7           0       -0.101811    3.360962   -1.322101
     26          6           0        0.982405    2.613257   -1.217139
     27          7           0        0.993467    1.248229   -1.372364
     28          1           0        1.869268    0.757964   -1.274479
     29          6           0       -0.123414    0.469539   -1.658850
     30          8           0       -0.005144   -0.756134   -1.779141
     31          6           0       -1.295820    1.258820   -1.774572
     32          7           0       -2.606013    0.890566   -2.047854
     33          6           0       -3.267658    2.015858   -2.034883
     34          1           0       -4.339565    2.108027   -2.213161
     35          1           0       -3.546761    4.636943   -0.948375
     36          1           0       -2.066311    5.080611   -1.470278
     37          1           0       -3.265333    4.820836   -2.545367
     38          1           0        6.412711   -1.156296   -0.031314
     39          1           0        6.629956   -1.225503   -1.778504
     40          1           0        5.639449    0.046960   -1.063594
     41          1           0        3.849183   -5.089418   -1.082749
     42          6           0        3.755689   -4.004753   -1.137335
     43          8           0        1.401734   -4.038012   -1.428710
     44          6           0        2.461757   -3.421897   -1.321307
     45          1           0        1.559205   -1.594418   -1.505920
     46          7           0        2.455352   -2.042716   -1.376732
     47          8           0        3.432249    0.006978   -1.336454
     48          6           0        3.537978   -1.205352   -1.275292
     49          1           0        5.836315   -3.607581   -0.894358
     50          6           0        4.830439   -3.214154   -1.035013
     51          6           0        5.936199   -0.988410   -0.985685
     52          7           0        4.750605   -1.842351   -1.099279
     53          1           0        3.662617    4.059158    3.204249
     54          1           0        2.510505    4.080985    2.049151
     55          1           0        4.087347    4.123560    1.629806
     56          1           0        1.626436   -2.875842    1.523414
     57          1           0        3.220554   -2.463920    1.969749
     58          7           0        2.295981   -2.163204    1.733191
     59          6           0        1.971365   -0.869128    1.699279
     60          6           0        2.390446    1.463739    1.908594
     61          7           0        1.141026    1.838372    1.587619
     62          1           0       -0.650030    0.986970    1.070081
     63          6           0        0.383178    0.772076    1.339444
     64          7           0        0.706453   -0.524829    1.372878
     65          1           0        5.489118    1.823023    2.757926
     66          6           0        4.507941    1.438611    2.477797
     67          7           0        4.215162    0.167899    2.346417
     68          6           0        2.875515    0.169804    1.985724
     69          6           0        3.425713    3.753463    2.282068
     70          7           0        3.450495    2.278863    2.227774
 ---------------------------------------------------------------------
 Rotational constants (GHZ):           0.1196611           0.0574690           0.0487943
 Leave Link  202 at Fri Jan 26 15:35:53 2018, MaxMem=  4294967296 cpu:               0.4 elap:               0.0
 (Enter /share/apps/g16/l301.exe)
 Standard basis: CC-pVDZ (5D, 7F)
 Ernie: Thresh=  0.10000D-02 Tol=  0.10000D-05 Strict=F.
 Ernie:  86 primitive shells out of 1081 were deleted.
 There are   780 symmetry adapted cartesian basis functions of A   symmetry.
 There are   737 symmetry adapted basis functions of A   symmetry.
   737 basis functions,  1608 primitive gaussians,   780 cartesian basis functions
   154 alpha electrons      154 beta electrons
       nuclear repulsion energy      5445.1914065294 Hartrees.
 IExCor= 4639 DFT=T Ex+Corr=wB97XD ExCW=0 ScaHFX=  1.000000
 ScaDFX=  1.000000  1.000000  1.000000  1.000000 ScalE2=  1.000000  1.000000
 IRadAn=      5 IRanWt=     -1 IRanGd=            0 ICorTp=0 IEmpDi=121
 HFx  wShort=  0.000000 wLong=  0.200000 cFull=  0.222036 cShort=  0.000000 cLong=  0.777964
 DFx  wShort=  0.000000 wLong=  0.200000 cFull=  0.000000 cShort=  0.000000 cLong=  1.000000
 NAtoms=   70 NActive=   70 NUniq=   70 SFac= 1.00D+00 NAtFMM=   60 NAOKFM=T Big=T
 Integral buffers will be    131072 words long.
 Raffenetti 2 integral format.
 Two-electron integral symmetry is turned on.
 R6Disp:  Grimme-D2 Dispersion energy=       -0.0673723436 Hartrees.
 Nuclear repulsion after empirical dispersion term =     5445.1240341858 Hartrees.
 Leave Link  301 at Fri Jan 26 15:35:53 2018, MaxMem=  4294967296 cpu:               3.0 elap:               0.1
 (Enter /share/apps/g16/l302.exe)
 NPDir=0 NMtPBC=     1 NCelOv=     1 NCel=       1 NClECP=     1 NCelD=      1
         NCelK=      1 NCelE2=     1 NClLst=     1 CellRange=     0.0.
 One-electron integrals computed using PRISM.
 One-electron integral symmetry used in STVInt
 NBasis=   737 RedAO= T EigKep=  7.06D-04  NBF=   737
 NBsUse=   737 1.00D-06 EigRej= -1.00D+00 NBFU=   737
 Precomputing XC quadrature grid using
 IXCGrd= 4 IRadAn=           5 IRanWt=          -1 IRanGd=           0 AccXCQ= 0.00D+00.
 Generated NRdTot=       0 NPtTot=           0 NUsed=           0 NTot=          32
 NSgBfM=   768   768   768   768   768 MxSgAt=    70 MxSgA2=    70.
 Leave Link  302 at Fri Jan 26 15:35:57 2018, MaxMem=  4294967296 cpu:             137.0 elap:               4.3
 (Enter /share/apps/g16/l303.exe)
 DipDrv:  MaxL=1.
 Leave Link  303 at Fri Jan 26 15:35:58 2018, MaxMem=  4294967296 cpu:              12.5 elap:               0.4
 (Enter /share/apps/g16/l401.exe)
 ExpMin= 1.22D-01 ExpMax= 1.17D+04 ExpMxC= 4.01D+02 IAcc=3 IRadAn=         5 AccDes= 0.00D+00
 Harris functional with IExCor= 4639 and IRadAn=       5 diagonalized for initial guess.
 HarFok:  IExCor= 4639 AccDes= 0.00D+00 IRadAn=         5 IDoV= 1 UseB2=F ITyADJ=14
 ICtDFT=  3500011 ScaDFX=  1.000000  1.000000  1.000000  1.000000
 FoFCou: FMM=F IPFlag=           0 FMFlag=      100000 FMFlg1=        2001
         NFxFlg=           0 DoJE=T BraDBF=F KetDBF=T FulRan=T
         wScrn=  0.000000 ICntrl=       500 IOpCl=  0 I1Cent=   200000004 NGrid=           0
         NMat0=    1 NMatS0=      1 NMatT0=    0 NMatD0=    1 NMtDS0=    0 NMtDT0=    0
 Petite list used in FoFCou.
 Harris En= -1963.88144384892    
 JPrj=0 DoOrth=F DoCkMO=F.
 Leave Link  401 at Fri Jan 26 15:36:10 2018, MaxMem=  4294967296 cpu:             391.6 elap:              12.3
 (Enter /share/apps/g16/l502.exe)
 Integral symmetry usage will be decided dynamically.
 Closed shell SCF:
 Using DIIS extrapolation, IDIIS=  1040.
 NGot=  4294967296 LenX=  4293717438 LenY=  4293108258
 Requested convergence on RMS density matrix=1.00D-08 within  20 cycles.
 Requested convergence on MAX density matrix=1.00D-06.
 Requested convergence on             energy=1.00D-06.
 No special actions if energy rises.
 Fock matrices will be formed incrementally for  20 cycles.
 Integral accuracy reduced to 1.0D-05 until final iterations.

 Cycle   1  Pass 0  IDiag  1:
 FoFJK:  IHMeth= 1 ICntrl=       0 DoSepK=T KAlg= 0 I1Cent=           0 FoldK=F
 IRaf=         1 NMat=       1 IRICut=       1 DoRegI=T DoRafI=F ISym2E= 0 IDoP0=0 IntGTp=1.
 FoFCou: FMM=T IPFlag=           0 FMFlag=      100000 FMFlg1=        2001
         NFxFlg=           0 DoJE=T BraDBF=F KetDBF=F FulRan=T
         wScrn=  0.000000 ICntrl=       500 IOpCl=  0 I1Cent=           0 NGrid=           0
         NMat0=    1 NMatS0=      1 NMatT0=    0 NMatD0=    1 NMtDS0=    0 NMtDT0=    0
 Symmetry not used in FoFCou.
 FMM levels:  10  Number of levels for PrismC:   9
 E= -2048.30771736379    
 DIIS: error= 2.29D-02 at cycle   1 NSaved=   1.
 NSaved= 1 IEnMin= 1 EnMin= -2048.30771736379     IErMin= 1 ErrMin= 2.29D-02
 ErrMax= 2.29D-02  0.00D+00 EMaxC= 1.00D-01 BMatC= 8.32D-01 BMatP= 8.32D-01
 IDIUse=3 WtCom= 7.71D-01 WtEn= 2.29D-01
 Coeff-Com:  0.100D+01
 Coeff-En:   0.100D+01
 Coeff:      0.100D+01
 Gap=     0.250 Goal=   None    Shift=    0.000
 GapD=    0.250 DampG=1.000 DampE=0.500 DampFc=0.5000 IDamp=-1.
 Damping current iteration by 5.00D-01
 RMSDP=1.57D-03 MaxDP=1.32D-01              OVMax= 2.04D-01

 Cycle   2  Pass 0  IDiag  1:
 RMSU=  7.87D-04    CP:  9.98D-01
 E= -2048.50629052543     Delta-E=       -0.198573161647 Rises=F Damp=T
 DIIS: error= 1.26D-02 at cycle   2 NSaved=   2.
 NSaved= 2 IEnMin= 2 EnMin= -2048.50629052543     IErMin= 2 ErrMin= 1.26D-02
 ErrMax= 1.26D-02  0.00D+00 EMaxC= 1.00D-01 BMatC= 1.45D-01 BMatP= 8.32D-01
 IDIUse=3 WtCom= 8.74D-01 WtEn= 1.26D-01
 Coeff-Com: -0.199D+00 0.120D+01
 Coeff-En:   0.000D+00 0.100D+01
 Coeff:     -0.174D+00 0.117D+01
 Gap=     0.359 Goal=   None    Shift=    0.000
 RMSDP=5.82D-04 MaxDP=3.49D-02 DE=-1.99D-01 OVMax= 1.52D-01

 Cycle   3  Pass 0  IDiag  1:
 RMSU=  5.69D-04    CP:  9.94D-01  1.15D+00
 E= -2048.68797163495     Delta-E=       -0.181681109520 Rises=F Damp=F
 DIIS: error= 9.41D-03 at cycle   3 NSaved=   3.
 NSaved= 3 IEnMin= 3 EnMin= -2048.68797163495     IErMin= 3 ErrMin= 9.41D-03
 ErrMax= 9.41D-03  0.00D+00 EMaxC= 1.00D-01 BMatC= 6.09D-02 BMatP= 1.45D-01
 IDIUse=3 WtCom= 9.06D-01 WtEn= 9.41D-02
 Coeff-Com: -0.230D+00 0.544D+00 0.686D+00
 Coeff-En:   0.000D+00 0.000D+00 0.100D+01
 Coeff:     -0.209D+00 0.493D+00 0.716D+00
 Gap=     0.275 Goal=   None    Shift=    0.000
 RMSDP=3.52D-04 MaxDP=3.44D-02 DE=-1.82D-01 OVMax= 7.65D-02

 Cycle   4  Pass 0  IDiag  1:
 RMSU=  2.01D-04    CP:  9.94D-01  1.42D+00  6.73D-01
 E= -2048.73337965553     Delta-E=       -0.045408020574 Rises=F Damp=F
 DIIS: error= 3.84D-03 at cycle   4 NSaved=   4.
 NSaved= 4 IEnMin= 4 EnMin= -2048.73337965553     IErMin= 4 ErrMin= 3.84D-03
 ErrMax= 3.84D-03  0.00D+00 EMaxC= 1.00D-01 BMatC= 9.59D-03 BMatP= 6.09D-02
 IDIUse=3 WtCom= 9.62D-01 WtEn= 3.84D-02
 Coeff-Com: -0.932D-01 0.181D+00 0.386D+00 0.527D+00
 Coeff-En:   0.000D+00 0.000D+00 0.806D-01 0.919D+00
 Coeff:     -0.896D-01 0.174D+00 0.374D+00 0.542D+00
 Gap=     0.281 Goal=   None    Shift=    0.000
 RMSDP=1.30D-04 MaxDP=1.31D-02 DE=-4.54D-02 OVMax= 1.49D-02

 Cycle   5  Pass 0  IDiag  1:
 RMSU=  6.17D-05    CP:  9.94D-01  1.39D+00  8.11D-01  6.10D-01
 E= -2048.74117713462     Delta-E=       -0.007797479090 Rises=F Damp=F
 DIIS: error= 7.52D-04 at cycle   5 NSaved=   5.
 NSaved= 5 IEnMin= 5 EnMin= -2048.74117713462     IErMin= 5 ErrMin= 7.52D-04
 ErrMax= 7.52D-04  0.00D+00 EMaxC= 1.00D-01 BMatC= 3.15D-04 BMatP= 9.59D-03
 IDIUse=3 WtCom= 9.92D-01 WtEn= 7.52D-03
 Coeff-Com: -0.237D-01 0.403D-01 0.125D+00 0.245D+00 0.614D+00
 Coeff-En:   0.000D+00 0.000D+00 0.000D+00 0.000D+00 0.100D+01
 Coeff:     -0.235D-01 0.400D-01 0.124D+00 0.243D+00 0.617D+00
 Gap=     0.280 Goal=   None    Shift=    0.000
 RMSDP=2.60D-05 MaxDP=2.26D-03 DE=-7.80D-03 OVMax= 3.49D-03

 Failed to achieve initial convergence to 1.0D-08 in  6 cycles.
 Switch to full accuracy anyway.
 Cycle   6  Pass 1  IDiag  1:
 E= -2048.74159961210     Delta-E=       -0.000422477479 Rises=F Damp=F
 DIIS: error= 1.98D-04 at cycle   1 NSaved=   1.
 NSaved= 1 IEnMin= 1 EnMin= -2048.74159961210     IErMin= 1 ErrMin= 1.98D-04
 ErrMax= 1.98D-04  0.00D+00 EMaxC= 1.00D-01 BMatC= 7.51D-05 BMatP= 7.51D-05
 IDIUse=3 WtCom= 9.98D-01 WtEn= 1.98D-03
 Coeff-Com:  0.100D+01
 Coeff-En:   0.100D+01
 Coeff:      0.100D+01
 Gap=     0.281 Goal=   None    Shift=    0.000
 RMSDP=2.60D-05 MaxDP=2.26D-03 DE=-4.22D-04 OVMax= 2.37D-03

 Cycle   7  Pass 1  IDiag  1:
 RMSU=  1.14D-04    CP:  1.00D+00
 E= -2048.74165519177     Delta-E=       -0.000055579676 Rises=F Damp=F
 DIIS: error= 2.88D-04 at cycle   2 NSaved=   2.
 NSaved= 2 IEnMin= 2 EnMin= -2048.74165519177     IErMin= 1 ErrMin= 1.98D-04
 ErrMax= 2.88D-04  0.00D+00 EMaxC= 1.00D-01 BMatC= 4.24D-05 BMatP= 7.51D-05
 IDIUse=3 WtCom= 9.97D-01 WtEn= 2.88D-03
 Coeff-Com:  0.404D+00 0.596D+00
 Coeff-En:   0.000D+00 0.100D+01
 Coeff:      0.403D+00 0.597D+00
 Gap=     0.280 Goal=   None    Shift=    0.000
 RMSDP=1.11D-05 MaxDP=1.27D-03 DE=-5.56D-05 OVMax= 1.48D-03

 Cycle   8  Pass 1  IDiag  1:
 RMSU=  1.06D-05    CP:  1.00D+00  1.03D+00
 E= -2048.74168474250     Delta-E=       -0.000029550723 Rises=F Damp=F
 DIIS: error= 1.34D-04 at cycle   3 NSaved=   3.
 NSaved= 3 IEnMin= 3 EnMin= -2048.74168474250     IErMin= 3 ErrMin= 1.34D-04
 ErrMax= 1.34D-04  0.00D+00 EMaxC= 1.00D-01 BMatC= 1.05D-05 BMatP= 4.24D-05
 IDIUse=3 WtCom= 9.99D-01 WtEn= 1.34D-03
 Coeff-Com: -0.193D-01 0.320D+00 0.699D+00
 Coeff-En:   0.000D+00 0.144D+00 0.856D+00
 Coeff:     -0.193D-01 0.320D+00 0.700D+00
 Gap=     0.281 Goal=   None    Shift=    0.000
 RMSDP=5.51D-06 MaxDP=5.12D-04 DE=-2.96D-05 OVMax= 5.37D-04

 Cycle   9  Pass 1  IDiag  1:
 RMSU=  3.73D-06    CP:  1.00D+00  1.05D+00  7.57D-01
 E= -2048.74169409956     Delta-E=       -0.000009357066 Rises=F Damp=F
 DIIS: error= 3.94D-05 at cycle   4 NSaved=   4.
 NSaved= 4 IEnMin= 4 EnMin= -2048.74169409956     IErMin= 4 ErrMin= 3.94D-05
 ErrMax= 3.94D-05  0.00D+00 EMaxC= 1.00D-01 BMatC= 4.78D-07 BMatP= 1.05D-05
 IDIUse=1 WtCom= 1.00D+00 WtEn= 0.00D+00
 Coeff-Com: -0.295D-01 0.896D-01 0.257D+00 0.683D+00
 Coeff:     -0.295D-01 0.896D-01 0.257D+00 0.683D+00
 Gap=     0.281 Goal=   None    Shift=    0.000
 RMSDP=1.38D-06 MaxDP=1.46D-04 DE=-9.36D-06 OVMax= 4.99D-04

 Cycle  10  Pass 1  IDiag  1:
 RMSU=  1.24D-06    CP:  1.00D+00  1.06D+00  7.89D-01  1.10D+00
 E= -2048.74169488075     Delta-E=       -0.000000781189 Rises=F Damp=F
 DIIS: error= 1.74D-05 at cycle   5 NSaved=   5.
 NSaved= 5 IEnMin= 5 EnMin= -2048.74169488075     IErMin= 5 ErrMin= 1.74D-05
 ErrMax= 1.74D-05  0.00D+00 EMaxC= 1.00D-01 BMatC= 1.14D-07 BMatP= 4.78D-07
 IDIUse=1 WtCom= 1.00D+00 WtEn= 0.00D+00
 Coeff-Com: -0.249D-02-0.567D-01-0.122D+00 0.202D+00 0.979D+00
 Coeff:     -0.249D-02-0.567D-01-0.122D+00 0.202D+00 0.979D+00
 Gap=     0.281 Goal=   None    Shift=    0.000
 RMSDP=1.16D-06 MaxDP=7.48D-05 DE=-7.81D-07 OVMax= 2.36D-04

 Cycle  11  Pass 1  IDiag  1:
 RMSU=  4.84D-07    CP:  1.00D+00  1.06D+00  7.98D-01  1.37D+00  1.17D+00
 E= -2048.74169512192     Delta-E=       -0.000000241167 Rises=F Damp=F
 DIIS: error= 1.15D-05 at cycle   6 NSaved=   6.
 NSaved= 6 IEnMin= 6 EnMin= -2048.74169512192     IErMin= 6 ErrMin= 1.15D-05
 ErrMax= 1.15D-05  0.00D+00 EMaxC= 1.00D-01 BMatC= 2.56D-08 BMatP= 1.14D-07
 IDIUse=1 WtCom= 1.00D+00 WtEn= 0.00D+00
 Coeff-Com:  0.452D-02-0.454D-01-0.112D+00-0.427D-03 0.515D+00 0.638D+00
 Coeff:      0.452D-02-0.454D-01-0.112D+00-0.427D-03 0.515D+00 0.638D+00
 Gap=     0.281 Goal=   None    Shift=    0.000
 RMSDP=3.50D-07 MaxDP=3.64D-05 DE=-2.41D-07 OVMax= 1.24D-04

 Cycle  12  Pass 1  IDiag  1:
 RMSU=  1.77D-07    CP:  1.00D+00  1.06D+00  7.99D-01  1.44D+00  1.29D+00
                    CP:  9.32D-01
 E= -2048.74169515902     Delta-E=       -0.000000037107 Rises=F Damp=F
 DIIS: error= 1.13D-06 at cycle   7 NSaved=   7.
 NSaved= 7 IEnMin= 7 EnMin= -2048.74169515902     IErMin= 7 ErrMin= 1.13D-06
 ErrMax= 1.13D-06  0.00D+00 EMaxC= 1.00D-01 BMatC= 7.66D-10 BMatP= 2.56D-08
 IDIUse=1 WtCom= 1.00D+00 WtEn= 0.00D+00
 Coeff-Com:  0.106D-02-0.728D-02-0.195D-01-0.697D-02 0.540D-01 0.140D+00
 Coeff-Com:  0.838D+00
 Coeff:      0.106D-02-0.728D-02-0.195D-01-0.697D-02 0.540D-01 0.140D+00
 Coeff:      0.838D+00
 Gap=     0.281 Goal=   None    Shift=    0.000
 RMSDP=8.13D-08 MaxDP=5.21D-06 DE=-3.71D-08 OVMax= 2.19D-05

 Cycle  13  Pass 1  IDiag  1:
 RMSU=  4.90D-08    CP:  1.00D+00  1.06D+00  7.99D-01  1.45D+00  1.31D+00
                    CP:  1.02D+00  1.13D+00
 E= -2048.74169516084     Delta-E=       -0.000000001813 Rises=F Damp=F
 DIIS: error= 6.80D-07 at cycle   8 NSaved=   8.
 NSaved= 8 IEnMin= 8 EnMin= -2048.74169516084     IErMin= 8 ErrMin= 6.80D-07
 ErrMax= 6.80D-07  0.00D+00 EMaxC= 1.00D-01 BMatC= 3.08D-10 BMatP= 7.66D-10
 IDIUse=1 WtCom= 1.00D+00 WtEn= 0.00D+00
 Coeff-Com: -0.649D-03 0.829D-02 0.193D-01-0.171D-02-0.109D+00-0.911D-01
 Coeff-Com:  0.429D+00 0.746D+00
 Coeff:     -0.649D-03 0.829D-02 0.193D-01-0.171D-02-0.109D+00-0.911D-01
 Coeff:      0.429D+00 0.746D+00
 Gap=     0.281 Goal=   None    Shift=    0.000
 RMSDP=4.45D-08 MaxDP=2.66D-06 DE=-1.81D-09 OVMax= 1.09D-05

 Cycle  14  Pass 1  IDiag  1:
 RMSU=  2.66D-08    CP:  1.00D+00  1.06D+00  7.98D-01  1.45D+00  1.32D+00
                    CP:  1.06D+00  1.27D+00  1.04D+00
 E= -2048.74169516098     Delta-E=       -0.000000000138 Rises=F Damp=F
 DIIS: error= 2.17D-07 at cycle   9 NSaved=   9.
 NSaved= 9 IEnMin= 9 EnMin= -2048.74169516098     IErMin= 9 ErrMin= 2.17D-07
 ErrMax= 2.17D-07  0.00D+00 EMaxC= 1.00D-01 BMatC= 3.39D-11 BMatP= 3.08D-10
 IDIUse=1 WtCom= 1.00D+00 WtEn= 0.00D+00
 Coeff-Com: -0.423D-03 0.470D-02 0.112D-01 0.433D-03-0.555D-01-0.579D-01
 Coeff-Com:  0.938D-01 0.323D+00 0.680D+00
 Coeff:     -0.423D-03 0.470D-02 0.112D-01 0.433D-03-0.555D-01-0.579D-01
 Coeff:      0.938D-01 0.323D+00 0.680D+00
 Gap=     0.281 Goal=   None    Shift=    0.000
 RMSDP=1.32D-08 MaxDP=7.63D-07 DE=-1.38D-10 OVMax= 3.37D-06

 Cycle  15  Pass 1  IDiag  1:
 RMSU=  9.08D-09    CP:  1.00D+00  1.06D+00  7.98D-01  1.45D+00  1.32D+00
                    CP:  1.07D+00  1.30D+00  1.19D+00  1.08D+00
 E= -2048.74169516086     Delta-E=        0.000000000119 Rises=F Damp=F
 DIIS: error= 7.43D-08 at cycle  10 NSaved=  10.
 NSaved=10 IEnMin= 9 EnMin= -2048.74169516098     IErMin=10 ErrMin= 7.43D-08
 ErrMax= 7.43D-08  0.00D+00 EMaxC= 1.00D-01 BMatC= 4.90D-12 BMatP= 3.39D-11
 IDIUse=1 WtCom= 1.00D+00 WtEn= 0.00D+00
 Coeff-Com:  0.168D-07-0.252D-03-0.481D-03 0.148D-03 0.468D-02 0.503D-03
 Coeff-Com: -0.562D-01-0.531D-01 0.250D+00 0.855D+00
 Coeff:      0.168D-07-0.252D-03-0.481D-03 0.148D-03 0.468D-02 0.503D-03
 Coeff:     -0.562D-01-0.531D-01 0.250D+00 0.855D+00
 Gap=     0.281 Goal=   None    Shift=    0.000
 RMSDP=6.68D-09 MaxDP=4.14D-07 DE= 1.19D-10 OVMax= 1.59D-06

 SCF Done:  E(RwB97XD) =  -2048.74169516     A.U. after   15 cycles
            NFock= 15  Conv=0.67D-08     -V/T= 2.0054
 KE= 2.037716739729D+03 PE=-1.567115139836D+04 EE= 6.139568929289D+03
 Leave Link  502 at Fri Jan 26 15:47:04 2018, MaxMem=  4294967296 cpu:           20256.1 elap:             653.9
 (Enter /share/apps/g16/l601.exe)
 Copying SCF densities to generalized density rwf, IOpCl= 0 IROHF=0.

 **********************************************************************

            Population analysis using the SCF density.

 **********************************************************************

 Orbital symmetries:
       Occupied  (A) (A) (A) (A) (A) (A) (A) (A) (A) (A) (A) (A)
                 (A) (A) (A) (A) (A) (A) (A) (A) (A) (A) (A) (A)
                 (A) (A) (A) (A) (A) (A) (A) (A) (A) (A) (A) (A)
                 (A) (A) (A) (A) (A) (A) (A) (A) (A) (A) (A) (A)
                 (A) (A) (A) (A) (A) (A) (A) (A) (A) (A) (A) (A)
                 (A) (A) (A) (A) (A) (A) (A) (A) (A) (A) (A) (A)
                 (A) (A) (A) (A) (A) (A) (A) (A) (A) (A) (A) (A)
                 (A) (A) (A) (A) (A) (A) (A) (A) (A) (A) (A) (A)
                 (A) (A) (A) (A) (A) (A) (A) (A) (A) (A) (A) (A)
                 (A) (A) (A) (A) (A) (A) (A) (A) (A) (A) (A) (A)
                 (A) (A) (A) (A) (A) (A) (A) (A) (A) (A) (A) (A)
                 (A) (A) (A) (A) (A) (A) (A) (A) (A) (A) (A) (A)
                 (A) (A) (A) (A) (A) (A) (A) (A) (A) (A)
       Virtual   (A) (A) (A) (A) (A) (A) (A) (A) (A) (A) (A) (A)
                 (A) (A) (A) (A) (A) (A) (A) (A) (A) (A) (A) (A)
                 (A) (A) (A) (A) (A) (A) (A) (A) (A) (A) (A) (A)
                 (A) (A) (A) (A) (A) (A) (A) (A) (A) (A) (A) (A)
                 (A) (A) (A) (A) (A) (A) (A) (A) (A) (A) (A) (A)
                 (A) (A) (A) (A) (A) (A) (A) (A) (A) (A) (A) (A)
                 (A) (A) (A) (A) (A) (A) (A) (A) (A) (A) (A) (A)
                 (A) (A) (A) (A) (A) (A) (A) (A) (A) (A) (A) (A)
                 (A) (A) (A) (A) (A) (A) (A) (A) (A) (A) (A) (A)
                 (A) (A) (A) (A) (A) (A) (A) (A) (A) (A) (A) (A)
                 (A) (A) (A) (A) (A) (A) (A) (A) (A) (A) (A) (A)
                 (A) (A) (A) (A) (A) (A) (A) (A) (A) (A) (A) (A)
                 (A) (A) (A) (A) (A) (A) (A) (A) (A) (A) (A) (A)
                 (A) (A) (A) (A) (A) (A) (A) (A) (A) (A) (A) (A)
                 (A) (A) (A) (A) (A) (A) (A) (A) (A) (A) (A) (A)
                 (A) (A) (A) (A) (A) (A) (A) (A) (A) (A) (A) (A)
                 (A) (A) (A) (A) (A) (A) (A) (A) (A) (A) (A) (A)
                 (A) (A) (A) (A) (A) (A) (A) (A) (A) (A) (A) (A)
                 (A) (A) (A) (A) (A) (A) (A) (A) (A) (A) (A) (A)
                 (A) (A) (A) (A) (A) (A) (A) (A) (A) (A) (A) (A)
                 (A) (A) (A) (A) (A) (A) (A) (A) (A) (A) (A) (A)
                 (A) (A) (A) (A) (A) (A) (A) (A) (A) (A) (A) (A)
                 (A) (A) (A) (A) (A) (A) (A) (A) (A) (A) (A) (A)
                 (A) (A) (A) (A) (A) (A) (A) (A) (A) (A) (A) (A)
                 (A) (A) (A) (A) (A) (A) (A) (A) (A) (A) (A) (A)
                 (A) (A) (A) (A) (A) (A) (A) (A) (A) (A) (A) (A)
                 (A) (A) (A) (A) (A) (A) (A) (A) (A) (A) (A) (A)
                 (A) (A) (A) (A) (A) (A) (A) (A) (A) (A) (A) (A)
                 (A) (A) (A) (A) (A) (A) (A) (A) (A) (A) (A) (A)
                 (A) (A) (A) (A) (A) (A) (A) (A) (A) (A) (A) (A)
                 (A) (A) (A) (A) (A) (A) (A) (A) (A) (A) (A) (A)
                 (A) (A) (A) (A) (A) (A) (A) (A) (A) (A) (A) (A)
                 (A) (A) (A) (A) (A) (A) (A) (A) (A) (A) (A) (A)
                 (A) (A) (A) (A) (A) (A) (A) (A) (A) (A) (A) (A)
                 (A) (A) (A) (A) (A) (A) (A) (A) (A) (A) (A) (A)
                 (A) (A) (A) (A) (A) (A) (A) (A) (A) (A) (A) (A)
                 (A) (A) (A) (A) (A) (A) (A) (A) (A) (A) (A) (A)
                 (A) (A) (A) (A) (A) (A) (A) (A) (A) (A) (A) (A)
                 (A) (A) (A) (A) (A) (A) (A) (A) (A) (A) (A) (A)
                 (A) (A) (A) (A) (A) (A) (A) (A) (A) (A) (A) (A)
                 (A) (A) (A) (A) (A) (A) (A) (A) (A) (A) (A) (A)
                 (A) (A) (A) (A) (A) (A) (A) (A) (A) (A) (A) (A)
                 (A) (A) (A) (A) (A) (A) (A) (A) (A) (A) (A) (A)
                 (A) (A) (A) (A) (A) (A) (A) (A) (A) (A) (A) (A)
                 (A) (A) (A) (A) (A) (A) (A) (A) (A) (A) (A) (A)
                 (A) (A) (A) (A) (A) (A) (A) (A) (A) (A) (A) (A)
                 (A) (A) (A) (A) (A) (A) (A) (A) (A) (A) (A) (A)
                 (A) (A) (A) (A) (A) (A) (A) (A) (A) (A) (A) (A)
                 (A) (A) (A) (A) (A) (A) (A)
 The electronic state is 1-A.
 Alpha  occ. eigenvalues --  -19.26077 -19.22385 -19.20747 -14.52677 -14.51883
 Alpha  occ. eigenvalues --  -14.48850 -14.48518 -14.48024 -14.47536 -14.47016
 Alpha  occ. eigenvalues --  -14.46998 -14.44897 -14.43454 -14.43308 -14.42179
 Alpha  occ. eigenvalues --  -14.41951 -14.41180 -14.40848 -14.40621 -14.39883
 Alpha  occ. eigenvalues --  -10.45692 -10.41380 -10.40448 -10.39180 -10.38336
 Alpha  occ. eigenvalues --  -10.38140 -10.37441 -10.36425 -10.35241 -10.35139
 Alpha  occ. eigenvalues --  -10.34891 -10.34461 -10.33848 -10.33612 -10.33293
 Alpha  occ. eigenvalues --  -10.33093 -10.32820 -10.31958 -10.31442 -10.30983
 Alpha  occ. eigenvalues --  -10.30754 -10.28260 -10.28216  -1.19645  -1.14565
 Alpha  occ. eigenvalues --   -1.13377  -1.13349  -1.11091  -1.10675  -1.09565
 Alpha  occ. eigenvalues --   -1.08751  -1.08506  -1.04698  -1.04086  -1.02718
 Alpha  occ. eigenvalues --   -1.00413  -1.00159  -1.00006  -0.98657  -0.96732
 Alpha  occ. eigenvalues --   -0.96654  -0.96031  -0.92353  -0.91344  -0.86989
 Alpha  occ. eigenvalues --   -0.85418  -0.84215  -0.83761  -0.83689  -0.82599
 Alpha  occ. eigenvalues --   -0.82077  -0.79147  -0.76376  -0.74755  -0.74076
 Alpha  occ. eigenvalues --   -0.73859  -0.73581  -0.72646  -0.70791  -0.69788
 Alpha  occ. eigenvalues --   -0.67565  -0.66770  -0.66150  -0.66054  -0.64649
 Alpha  occ. eigenvalues --   -0.63922  -0.63647  -0.62841  -0.62445  -0.61956
 Alpha  occ. eigenvalues --   -0.60089  -0.59966  -0.59895  -0.59735  -0.59288
 Alpha  occ. eigenvalues --   -0.58923  -0.58623  -0.56786  -0.56314  -0.56162
 Alpha  occ. eigenvalues --   -0.56149  -0.55199  -0.54974  -0.54643  -0.54546
 Alpha  occ. eigenvalues --   -0.53810  -0.53643  -0.53095  -0.53082  -0.52787
 Alpha  occ. eigenvalues --   -0.52538  -0.52163  -0.51534  -0.50470  -0.50304
 Alpha  occ. eigenvalues --   -0.49957  -0.49630  -0.49263  -0.49032  -0.48657
 Alpha  occ. eigenvalues --   -0.48563  -0.48493  -0.48345  -0.47980  -0.47533
 Alpha  occ. eigenvalues --   -0.46696  -0.45719  -0.44797  -0.44317  -0.43764
 Alpha  occ. eigenvalues --   -0.40875  -0.40015  -0.39618  -0.37602  -0.37364
 Alpha  occ. eigenvalues --   -0.37200  -0.36911  -0.36812  -0.35880  -0.34365
 Alpha  occ. eigenvalues --   -0.34022  -0.33559  -0.33454  -0.33208  -0.33135
 Alpha  occ. eigenvalues --   -0.32743  -0.32499  -0.32266  -0.31900  -0.30604
 Alpha  occ. eigenvalues --   -0.30118  -0.29247  -0.25711  -0.25365
 Alpha virt. eigenvalues --    0.02697   0.04678   0.07554   0.08225   0.08488
 Alpha virt. eigenvalues --    0.09093   0.09468   0.11100   0.11477   0.11763
 Alpha virt. eigenvalues --    0.12412   0.14228   0.14254   0.14723   0.15016
 Alpha virt. eigenvalues --    0.15825   0.16223   0.17075   0.17277   0.17934
 Alpha virt. eigenvalues --    0.18528   0.19271   0.19994   0.20295   0.20429
 Alpha virt. eigenvalues --    0.20783   0.20928   0.20940   0.21367   0.22192
 Alpha virt. eigenvalues --    0.22682   0.22947   0.23223   0.23438   0.23887
 Alpha virt. eigenvalues --    0.24092   0.24199   0.24630   0.24675   0.25155
 Alpha virt. eigenvalues --    0.25739   0.26513   0.26821   0.27403   0.27913
 Alpha virt. eigenvalues --    0.29172   0.29353   0.29733   0.30578   0.30973
 Alpha virt. eigenvalues --    0.31171   0.31622   0.32560   0.33525   0.33606
 Alpha virt. eigenvalues --    0.34054   0.34278   0.35176   0.35754   0.36703
 Alpha virt. eigenvalues --    0.37045   0.37312   0.38078   0.39407   0.39604
 Alpha virt. eigenvalues --    0.39966   0.40233   0.40838   0.41357   0.41601
 Alpha virt. eigenvalues --    0.42364   0.42686   0.43667   0.43902   0.44624
 Alpha virt. eigenvalues --    0.44915   0.45469   0.46215   0.46343   0.47058
 Alpha virt. eigenvalues --    0.47435   0.47785   0.48291   0.48712   0.49675
 Alpha virt. eigenvalues --    0.49781   0.50195   0.50429   0.50579   0.50957
 Alpha virt. eigenvalues --    0.51510   0.52096   0.52440   0.52627   0.53151
 Alpha virt. eigenvalues --    0.53719   0.53920   0.54726   0.55121   0.55428
 Alpha virt. eigenvalues --    0.56172   0.56322   0.56594   0.56696   0.57315
 Alpha virt. eigenvalues --    0.57899   0.58319   0.58550   0.58906   0.59180
 Alpha virt. eigenvalues --    0.59942   0.60202   0.60701   0.60994   0.61216
 Alpha virt. eigenvalues --    0.61625   0.62081   0.62377   0.62979   0.63363
 Alpha virt. eigenvalues --    0.63518   0.63918   0.64471   0.64911   0.65475
 Alpha virt. eigenvalues --    0.65785   0.66167   0.66631   0.66896   0.67149
 Alpha virt. eigenvalues --    0.67707   0.68020   0.68347   0.68890   0.69086
 Alpha virt. eigenvalues --    0.69496   0.70003   0.70086   0.70364   0.70659
 Alpha virt. eigenvalues --    0.71411   0.71838   0.72040   0.72994   0.73086
 Alpha virt. eigenvalues --    0.73866   0.74056   0.74777   0.74916   0.75346
 Alpha virt. eigenvalues --    0.75583   0.75880   0.76222   0.76491   0.76904
 Alpha virt. eigenvalues --    0.76987   0.77197   0.77717   0.78033   0.78218
 Alpha virt. eigenvalues --    0.78679   0.78819   0.79635   0.80199   0.80509
 Alpha virt. eigenvalues --    0.81317   0.81450   0.81840   0.82273   0.82546
 Alpha virt. eigenvalues --    0.83027   0.83631   0.83798   0.84453   0.84866
 Alpha virt. eigenvalues --    0.85449   0.85603   0.86290   0.87253   0.87651
 Alpha virt. eigenvalues --    0.88290   0.88717   0.88987   0.89412   0.90057
 Alpha virt. eigenvalues --    0.90349   0.90633   0.91251   0.91627   0.91790
 Alpha virt. eigenvalues --    0.92734   0.93033   0.93467   0.93531   0.94069
 Alpha virt. eigenvalues --    0.94409   0.95058   0.95534   0.95696   0.96374
 Alpha virt. eigenvalues --    0.96673   0.97275   0.97698   0.98113   0.98485
 Alpha virt. eigenvalues --    0.99242   0.99745   1.00475   1.00783   1.01185
 Alpha virt. eigenvalues --    1.01311   1.01635   1.01965   1.02248   1.03068
 Alpha virt. eigenvalues --    1.03202   1.03597   1.04233   1.04406   1.05107
 Alpha virt. eigenvalues --    1.05770   1.06021   1.06804   1.06991   1.07854
 Alpha virt. eigenvalues --    1.08094   1.08418   1.09085   1.09920   1.10826
 Alpha virt. eigenvalues --    1.11098   1.11294   1.11891   1.13008   1.13224
 Alpha virt. eigenvalues --    1.13776   1.13945   1.14866   1.15302   1.15563
 Alpha virt. eigenvalues --    1.15990   1.16159   1.16354   1.16862   1.17212
 Alpha virt. eigenvalues --    1.18427   1.18856   1.19103   1.19460   1.19671
 Alpha virt. eigenvalues --    1.19982   1.20202   1.20720   1.21075   1.21301
 Alpha virt. eigenvalues --    1.21618   1.22299   1.22698   1.22736   1.23099
 Alpha virt. eigenvalues --    1.23519   1.23605   1.24008   1.24366   1.24888
 Alpha virt. eigenvalues --    1.25370   1.25626   1.26134   1.27155   1.27604
 Alpha virt. eigenvalues --    1.28096   1.28948   1.29445   1.30480   1.31084
 Alpha virt. eigenvalues --    1.31564   1.32429   1.32885   1.33246   1.34076
 Alpha virt. eigenvalues --    1.34735   1.35181   1.35637   1.36092   1.36966
 Alpha virt. eigenvalues --    1.37665   1.38319   1.39194   1.39351   1.40039
 Alpha virt. eigenvalues --    1.40907   1.41553   1.41820   1.43680   1.43946
 Alpha virt. eigenvalues --    1.44781   1.45822   1.46472   1.47511   1.48001
 Alpha virt. eigenvalues --    1.48282   1.48775   1.49100   1.49447   1.49492
 Alpha virt. eigenvalues --    1.50665   1.50893   1.52153   1.53035   1.53623
 Alpha virt. eigenvalues --    1.54752   1.55355   1.56067   1.56295   1.56636
 Alpha virt. eigenvalues --    1.58130   1.58385   1.59420   1.59488   1.61056
 Alpha virt. eigenvalues --    1.61127   1.61607   1.61903   1.62844   1.63519
 Alpha virt. eigenvalues --    1.63952   1.64829   1.65539   1.66200   1.66252
 Alpha virt. eigenvalues --    1.66924   1.67597   1.67942   1.68386   1.68832
 Alpha virt. eigenvalues --    1.69676   1.69953   1.70227   1.71084   1.71146
 Alpha virt. eigenvalues --    1.71590   1.72300   1.72493   1.72918   1.73030
 Alpha virt. eigenvalues --    1.73644   1.74285   1.74715   1.74948   1.75142
 Alpha virt. eigenvalues --    1.75439   1.75872   1.76106   1.76383   1.76672
 Alpha virt. eigenvalues --    1.76896   1.77523   1.77869   1.78244   1.78999
 Alpha virt. eigenvalues --    1.79390   1.79677   1.80204   1.80326   1.80476
 Alpha virt. eigenvalues --    1.80544   1.80929   1.81208   1.81794   1.82048
 Alpha virt. eigenvalues --    1.82480   1.83057   1.83600   1.83858   1.84090
 Alpha virt. eigenvalues --    1.84821   1.85247   1.85922   1.86422   1.86636
 Alpha virt. eigenvalues --    1.87161   1.87484   1.88015   1.88702   1.88980
 Alpha virt. eigenvalues --    1.89496   1.89713   1.90144   1.90278   1.90306
 Alpha virt. eigenvalues --    1.92164   1.92486   1.93270   1.93453   1.93653
 Alpha virt. eigenvalues --    1.93904   1.95232   1.95466   1.95977   1.96911
 Alpha virt. eigenvalues --    1.97690   1.98478   1.99425   2.00265   2.00848
 Alpha virt. eigenvalues --    2.01267   2.01654   2.01847   2.02522   2.03851
 Alpha virt. eigenvalues --    2.04367   2.05048   2.06197   2.06562   2.06930
 Alpha virt. eigenvalues --    2.07521   2.08164   2.08450   2.08936   2.09261
 Alpha virt. eigenvalues --    2.10295   2.10464   2.11068   2.12360   2.13174
 Alpha virt. eigenvalues --    2.13412   2.13885   2.14539   2.16217   2.17285
 Alpha virt. eigenvalues --    2.18001   2.19983   2.20230   2.20445   2.20855
 Alpha virt. eigenvalues --    2.21505   2.21913   2.22349   2.23179   2.23827
 Alpha virt. eigenvalues --    2.24398   2.24469   2.25311   2.25693   2.26660
 Alpha virt. eigenvalues --    2.27047   2.27619   2.28468   2.28996   2.29773
 Alpha virt. eigenvalues --    2.30175   2.30428   2.30821   2.31497   2.32161
 Alpha virt. eigenvalues --    2.32761   2.33836   2.34435   2.34602   2.34737
 Alpha virt. eigenvalues --    2.35070   2.35384   2.36216   2.36565   2.37506
 Alpha virt. eigenvalues --    2.38405   2.39166   2.39998   2.40960   2.41384
 Alpha virt. eigenvalues --    2.41935   2.42343   2.42902   2.43429   2.44066
 Alpha virt. eigenvalues --    2.45070   2.45352   2.46175   2.46417   2.46933
 Alpha virt. eigenvalues --    2.47074   2.47589   2.49067   2.50554   2.51484
 Alpha virt. eigenvalues --    2.52075   2.53094   2.54106   2.54613   2.55359
 Alpha virt. eigenvalues --    2.56283   2.57107   2.57805   2.57834   2.58853
 Alpha virt. eigenvalues --    2.60521   2.61150   2.61975   2.62014   2.62553
 Alpha virt. eigenvalues --    2.63942   2.64539   2.64605   2.65181   2.65434
 Alpha virt. eigenvalues --    2.66574   2.67437   2.68538   2.68724   2.68775
 Alpha virt. eigenvalues --    2.69543   2.70267   2.70673   2.70880   2.71519
 Alpha virt. eigenvalues --    2.73160   2.73488   2.74254   2.75082   2.75898
 Alpha virt. eigenvalues --    2.77195   2.78207   2.78770   2.78924   2.79366
 Alpha virt. eigenvalues --    2.79590   2.80268   2.80553   2.80727   2.81143
 Alpha virt. eigenvalues --    2.81754   2.82116   2.82485   2.83080   2.84068
 Alpha virt. eigenvalues --    2.84592   2.84967   2.86044   2.86564   2.86987
 Alpha virt. eigenvalues --    2.87500   2.87990   2.88816   2.91278   2.92392
 Alpha virt. eigenvalues --    2.94238   2.95231   2.96478   2.97589   2.99403
 Alpha virt. eigenvalues --    3.00209   3.01338   3.02820   3.04648   3.06092
 Alpha virt. eigenvalues --    3.06615   3.09662   3.10303   3.13505   3.14672
 Alpha virt. eigenvalues --    3.15112   3.15794   3.15882   3.17724   3.19647
 Alpha virt. eigenvalues --    3.21836   3.22105   3.23714   3.24073   3.25910
 Alpha virt. eigenvalues --    3.45416   3.47248   3.47717   3.49441   3.49958
 Alpha virt. eigenvalues --    3.53483   3.54029   3.56030   3.57796   3.59743
 Alpha virt. eigenvalues --    3.62510   3.70454   3.74260
          Condensed to atoms (all electrons):
 Mulliken charges:
               1
     1  N   -0.311738
     2  C    0.181217
     3  C    0.036348
     4  N   -0.259188
     5  C    0.133750
     6  H    0.025649
     7  N   -0.294542
     8  C    0.138583
     9  H    0.007104
    10  N   -0.292286
    11  C    0.246255
    12  C    0.125217
    13  N   -0.055347
    14  H    0.110509
    15  H    0.088589
    16  H    0.024576
    17  H    0.033627
    18  H    0.025939
    19  N   -0.312534
    20  C    0.244719
    21  C    0.181412
    22  N   -0.112038
    23  H    0.115431
    24  H    0.115015
    25  N   -0.299681
    26  C    0.226742
    27  N   -0.127552
    28  H    0.112737
    29  C    0.155560
    30  O   -0.316877
    31  C    0.009099
    32  N   -0.223599
    33  C    0.129231
    34  H    0.028788
    35  H    0.029036
    36  H    0.028047
    37  H    0.024901
    38  H    0.064089
    39  H    0.058138
    40  H    0.074380
    41  H    0.032062
    42  C   -0.111156
    43  O   -0.265525
    44  C    0.157119
    45  H    0.134516
    46  N   -0.124048
    47  O   -0.346770
    48  C    0.352800
    49  H    0.049155
    50  C    0.166182
    51  C    0.043203
    52  N   -0.290573
    53  H    0.034861
    54  H    0.044260
    55  H    0.019331
    56  H    0.128795
    57  H    0.113671
    58  N   -0.067062
    59  C    0.083460
    60  C    0.224063
    61  N   -0.258424
    62  H    0.047688
    63  C    0.162975
    64  N   -0.301226
    65  H    0.032747
    66  C    0.134035
    67  N   -0.268361
    68  C    0.041690
    69  C    0.172528
    70  N   -0.311301
 Sum of Mulliken charges =  -0.00000
 Mulliken charges with hydrogens summed into heavy atoms:
               1
     1  N   -0.311738
     2  C    0.265359
     3  C    0.036348
     4  N   -0.259188
     5  C    0.159399
     7  N   -0.294542
     8  C    0.145688
    10  N   -0.292286
    11  C    0.246255
    12  C    0.125217
    13  N    0.143750
    19  N   -0.312534
    20  C    0.244719
    21  C    0.263396
    22  N    0.118408
    25  N   -0.299681
    26  C    0.226742
    27  N   -0.014815
    29  C    0.155560
    30  O   -0.316877
    31  C    0.009099
    32  N   -0.223599
    33  C    0.158019
    42  C   -0.079093
    43  O   -0.265525
    44  C    0.157119
    46  N    0.010467
    47  O   -0.346770
    48  C    0.352800
    50  C    0.215338
    51  C    0.239810
    52  N   -0.290573
    58  N    0.175403
    59  C    0.083460
    60  C    0.224063
    61  N   -0.258424
    63  C    0.210663
    64  N   -0.301226
    66  C    0.166781
    67  N   -0.268361
    68  C    0.041690
    69  C    0.270980
    70  N   -0.311301
 Electronic spatial extent (au):  <R**2>=          22903.0102
 Charge=             -0.0000 electrons
 Dipole moment (field-independent basis, Debye):
    X=              8.9675    Y=              5.2331    Z=              1.8851  Tot=             10.5524
 Quadrupole moment (field-independent basis, Debye-Ang):
   XX=           -155.8073   YY=           -213.2267   ZZ=           -251.8851
   XY=             -3.1058   XZ=              6.3723   YZ=             -7.1089
 Traceless Quadrupole moment (field-independent basis, Debye-Ang):
   XX=             51.1657   YY=             -6.2537   ZZ=            -44.9121
   XY=             -3.1058   XZ=              6.3723   YZ=             -7.1089
 Octapole moment (field-independent basis, Debye-Ang**2):
  XXX=            -17.5039  YYY=            140.9635  ZZZ=              0.4995  XYY=             93.1410
  XXY=            -65.0136  XXZ=            -53.7899  XZZ=             33.7114  YZZ=             35.2988
  YYZ=             34.6380  XYZ=             64.9717
 Hexadecapole moment (field-independent basis, Debye-Ang**3):
 XXXX=         -14401.0046 YYYY=          -6951.3930 ZZZZ=          -3594.6220 XXXY=            468.2710
 XXXZ=             -7.3646 YYYX=           -159.2615 YYYZ=           -101.1622 ZZZX=             43.9777
 ZZZY=             41.3078 XXYY=          -3465.3367 XXZZ=          -3745.8319 YYZZ=          -1757.2394
 XXYZ=            115.1878 YYXZ=            230.4428 ZZXY=             32.8850
 N-N= 5.445124034186D+03 E-N=-1.567115139453D+04  KE= 2.037716739729D+03
 No NMR shielding tensors so no spin-rotation constants.
 Leave Link  601 at Fri Jan 26 15:47:06 2018, MaxMem=  4294967296 cpu:              49.2 elap:               1.7
 (Enter /share/apps/g16/l9999.exe)
 1\1\GINC-COMPUTE-0-3\SP\RwB97XD\CC-pVDZ\C23H27N17O3\SATYA\26-Jan-2018\
 0\\#p wb97xd/cc-pvdz sp scf=(maxcycles=20)\\Base pair stacking\\0,1\N,
 0,7.69041,0.1122,-5.80997\C,0,9.07068,0.6318,-5.86351\C,0,5.49812,-0.0
 5367,-5.87048\N,0,5.97506,-1.32122,-5.56953\C,0,7.27674,-1.17056,-5.54
 512\H,0,7.98951,-1.96912,-5.33726\N,0,4.06861,1.76393,-6.33505\C,0,5.1
 7483,2.50602,-6.44986\H,0,5.00804,3.55544,-6.68891\N,0,6.45014,2.14808
 ,-6.31434\C,0,6.54372,0.84044,-6.02153\C,0,4.1963,0.45184,-6.03975\N,0
 ,3.09323,-0.29057,-5.92473\H,0,3.14035,-1.26613,-5.70728\H,0,2.18263,0
 .10284,-6.05192\H,0,9.58461,0.14443,-6.56959\H,0,9.05217,1.60752,-6.07
 973\H,0,9.51449,0.49679,-4.97762\N,0,3.70922,4.7209,-3.16555\C,0,2.444
 69,4.18742,-3.23193\C,0,4.03845,6.15495,-3.29124\N,0,-0.98103,4.60852,
 -3.61779\H,0,-1.79771,4.03234,-3.63509\H,0,-1.11698,5.59205,-3.73984\N
 ,0,1.29968,4.8781,-3.42161\C,0,0.24191,4.08663,-3.43902\N,0,0.29894,2.
 72286,-3.28282\H,0,-0.56118,2.1971,-3.30999\C,0,1.46597,1.9912,-3.0864
 3\O,0,1.40775,0.76219,-2.95652\C,0,2.61074,2.82783,-3.06538\N,0,3.9525
 2,2.51406,-2.89782\C,0,4.5646,3.66522,-2.96426\H,0,5.64269,3.80147,-2.
 8725\H,0,4.64879,6.29144,-4.07077\H,0,3.19803,6.67659,-3.43209\H,0,4.4
 8886,6.46966,-2.45644\H,0,-5.10778,0.09546,-4.18421\H,0,-5.18145,0.023
 95,-2.4252\H,0,-4.30403,1.33291,-3.21774\H,0,-2.31018,-3.72648,-3.3399
 1\C,0,-2.25689,-2.63872,-3.29346\O,0,0.11223,-2.57535,-3.19166\C,0,-0.
 97721,-2.00316,-3.21403\H,0,-0.13799,-0.13989,-3.10313\N,0,-1.02259,-0
 .62466,-3.15989\O,0,-2.08228,1.38354,-3.12263\C,0,-2.14308,0.1677,-3.1
 746\H,0,-4.36474,-2.32721,-3.36908\C,0,-3.3677,-1.89277,-3.30966\C,0,-
 4.56363,0.28607,-3.27117\N,0,-3.33894,-0.51863,-3.25259\H,0,-2.84035,5
 .40623,-7.63201\H,0,-1.60131,5.47906,-6.57297\H,0,-3.13994,5.45916,-6.
 02862\H,0,-0.39526,-1.43417,-6.11678\H,0,-2.03545,-1.08893,-6.4341\N,0
 ,-1.10793,-0.75007,-6.27253\C,0,-0.83464,0.55623,-6.2653\C,0,-1.36384,
 2.86938,-6.44136\N,0,-0.10904,3.29559,-6.22171\H,0,1.7509,2.51949,-5.8
 4901\C,0,0.70906,2.26185,-6.03461\N,0,0.43726,0.95278,-6.04147\H,0,-4.
 53262,3.09948,-7.03978\C,0,-3.51732,2.75624,-6.83902\N,0,-3.16343,1.49
 895,-6.73098\C,0,-1.8004,1.55655,-6.47881\C,0,-2.51812,5.11381,-6.7316
 5\N,0,-2.47837,3.63963,-6.67491\\Version=EM64L-G16RevA.03\State=1-A\HF
 =-2048.7416952\RMSD=6.680e-09\Dipole=-3.6570717,1.9112292,-0.4574044\Q
 uadrupole=38.0453784,-4.3518381,-33.6935403,4.4657308,-1.2364331,5.024
 5096\PG=C01 [X(C23H27N17O3)]\\@


 ALL OUR THINKING ABOUT NATURE MUST NECESSARILY MOVE IN CIRCLES OR SPIRALS;
 FOR WE CAN ONLY UNDERSTAND NATURE IF WE THINK ABOUT HER, AND WE CAN ONLY
 THINK BECAUSE OUR BRAIN IS BUILT IN ACCORDANCE WITH NATURE'S LAWS.

                                             -- TIMOTHY FERRIS, "GALAXIES"
 Job cpu time:       0 days  5 hours 47 minutes 42.6 seconds.
 Elapsed time:       0 days  0 hours 11 minutes 13.2 seconds.
 File lengths (MBytes):  RWF=    298 Int=      0 D2E=      0 Chk=     33 Scr=      1
 Normal termination of Gaussian 16 at Fri Jan 26 15:47:06 2018.
