 Entering Gaussian System, Link 0=g16
 Input=str55.0.-0.5.com
 Output=str55.0.-0.5.log
 Initial command:
 /share/apps/g16/l1.exe "/state/partition1/scr/Gau-30761.inp" -scrdir="/state/partition1/scr/"
 Entering Link 1 = /share/apps/g16/l1.exe PID=     30762.
  
 Copyright (c) 1988,1990,1992,1993,1995,1998,2003,2009,2016,
            Gaussian, Inc.  All Rights Reserved.
  
 This is part of the Gaussian(R) 16 program.  It is based on
 the Gaussian(R) 09 system (copyright 2009, Gaussian, Inc.),
 the Gaussian(R) 03 system (copyright 2003, Gaussian, Inc.),
 the Gaussian(R) 98 system (copyright 1998, Gaussian, Inc.),
 the Gaussian(R) 94 system (copyright 1995, Gaussian, Inc.),
 the Gaussian 92(TM) system (copyright 1992, Gaussian, Inc.),
 the Gaussian 90(TM) system (copyright 1990, Gaussian, Inc.),
 the Gaussian 88(TM) system (copyright 1988, Gaussian, Inc.),
 the Gaussian 86(TM) system (copyright 1986, Carnegie Mellon
 University), and the Gaussian 82(TM) system (copyright 1983,
 Carnegie Mellon University). Gaussian is a federally registered
 trademark of Gaussian, Inc.
  
 This software contains proprietary and confidential information,
 including trade secrets, belonging to Gaussian, Inc.
  
 This software is provided under written license and may be
 used, copied, transmitted, or stored only in accord with that
 written license.
  
 The following legend is applicable only to US Government
 contracts under FAR:
  
                    RESTRICTED RIGHTS LEGEND
  
 Use, reproduction and disclosure by the US Government is
 subject to restrictions as set forth in subparagraphs (a)
 and (c) of the Commercial Computer Software - Restricted
 Rights clause in FAR 52.227-19.
  
 Gaussian, Inc.
 340 Quinnipiac St., Bldg. 40, Wallingford CT 06492
  
  
 ---------------------------------------------------------------
 Warning -- This program may not be used in any manner that
 competes with the business of Gaussian, Inc. or will provide
 assistance to any competitor of Gaussian, Inc.  The licensee
 of this program is prohibited from giving any competitor of
 Gaussian, Inc. access to this program.  By using this program,
 the user acknowledges that Gaussian, Inc. is engaged in the
 business of creating and licensing software in the field of
 computational chemistry and represents and warrants to the
 licensee that it is not a competitor of Gaussian, Inc. and that
 it will not use this program in any manner prohibited above.
 ---------------------------------------------------------------
  

 Cite this work as:
 Gaussian 16, Revision A.03,
 M. J. Frisch, G. W. Trucks, H. B. Schlegel, G. E. Scuseria, 
 M. A. Robb, J. R. Cheeseman, G. Scalmani, V. Barone, 
 G. A. Petersson, H. Nakatsuji, X. Li, M. Caricato, A. V. Marenich, 
 J. Bloino, B. G. Janesko, R. Gomperts, B. Mennucci, H. P. Hratchian, 
 J. V. Ortiz, A. F. Izmaylov, J. L. Sonnenberg, D. Williams-Young, 
 F. Ding, F. Lipparini, F. Egidi, J. Goings, B. Peng, A. Petrone, 
 T. Henderson, D. Ranasinghe, V. G. Zakrzewski, J. Gao, N. Rega, 
 G. Zheng, W. Liang, M. Hada, M. Ehara, K. Toyota, R. Fukuda, 
 J. Hasegawa, M. Ishida, T. Nakajima, Y. Honda, O. Kitao, H. Nakai, 
 T. Vreven, K. Throssell, J. A. Montgomery, Jr., J. E. Peralta, 
 F. Ogliaro, M. J. Bearpark, J. J. Heyd, E. N. Brothers, K. N. Kudin, 
 V. N. Staroverov, T. A. Keith, R. Kobayashi, J. Normand, 
 K. Raghavachari, A. P. Rendell, J. C. Burant, S. S. Iyengar, 
 J. Tomasi, M. Cossi, J. M. Millam, M. Klene, C. Adamo, R. Cammi, 
 J. W. Ochterski, R. L. Martin, K. Morokuma, O. Farkas, 
 J. B. Foresman, and D. J. Fox, Gaussian, Inc., Wallingford CT, 2016.
 
 ******************************************
 Gaussian 16:  EM64L-G16RevA.03 25-Dec-2016
                25-Jan-2018 
 ******************************************
 %nprocshared=32
 Will use up to   32 processors via shared memory.
 %mem=32GB
 %chk=allatoms_t.chk
 ---------------------------------------
 #p wb97xd/cc-pvdz sp scf=(maxcycles=20)
 ---------------------------------------
 1/38=1,172=1/1;
 2/12=2,17=6,18=5,40=1/2;
 3/5=16,11=2,25=1,30=1,74=-58/1,2,3;
 4//1;
 5/5=2,7=20,38=5/2;
 6/7=2,8=2,9=2,10=2,28=1/1;
 99/5=1,9=1/99;
 Leave Link    1 at Thu Jan 25 19:04:55 2018, MaxMem=  4294967296 cpu:               2.7 elap:               0.1
 (Enter /share/apps/g16/l101.exe)
 ------------------
 Base pair stacking
 ------------------
 Symbolic Z-matrix:
 Charge =  0 Multiplicity = 1
 N                     6.54922  -0.16139  -6.47105 
 C                     7.92123   0.37254  -6.57363 
 C                     4.35888  -0.33791  -6.3785 
 N                     4.85749  -1.62707  -6.25948 
 C                     6.15713  -1.46913  -6.32 
 H                     6.88372  -2.27987  -6.25909 
 N                     2.898     1.50809  -6.52372 
 C                     3.99207   2.26764  -6.6407 
 H                     3.80743   3.33575  -6.74702 
 N                     5.27395   1.90756  -6.64602 
 C                     5.38973   0.57624  -6.50964 
 C                     3.04798   0.17236  -6.38803 
 N                     1.95706  -0.58751  -6.27112 
 H                     2.02074  -1.58081  -6.1686 
 H                     1.03943  -0.19003  -6.28203 
 H                     8.37797  -0.02862  -7.36775 
 H                     7.88616   1.36611  -6.67715 
 H                     8.43313   0.14322  -5.74576 
 N                     3.33408   4.28307  -3.26456 
 C                     2.06774   3.74974  -3.26328 
 C                     3.65455   5.72134  -3.36129 
 N                    -1.37617   4.1774   -3.39872 
 H                    -2.19236   3.60056  -3.38065 
 H                    -1.51973   5.16438  -3.47605 
 N                     0.91274   4.44442  -3.34948 
 C                    -0.14409   3.65194  -3.32272 
 N                    -0.07709   2.2836   -3.21948 
 H                    -0.93727   1.7574   -3.20649 
 C                     1.10034   1.54777  -3.12957 
 O                     1.05062   0.31479  -3.03986 
 C                     2.24422   2.38542  -3.15705 
 N                     3.59418   2.0686   -3.09292 
 C                     4.20078   3.22261  -3.16 
 H                     5.28268   3.35769  -3.13738 
 H                     4.21018   5.88672  -4.17537 
 H                     2.80668   6.24597  -3.42565 
 H                     4.16115   6.00705  -2.54855 
 H                    -5.53392  -0.32095  -3.84208 
 H                    -5.4871   -0.45517  -2.08582 
 H                    -4.66541   0.88294  -2.88935 
 H                    -2.68673  -4.16487  -3.32784 
 C                    -2.62992  -3.07934  -3.2464 
 O                    -0.25936  -3.01487  -3.30466 
 C                    -1.34754  -2.44443  -3.23206 
 H                    -0.50191  -0.58461  -3.11248 
 N                    -1.38852  -1.06883  -3.12585 
 O                    -2.44233   0.93463  -2.94466 
 C                    -2.50706  -0.27871  -3.03565 
 H                    -4.73788  -2.76959  -3.16654 
 C                    -3.73893  -2.33554  -3.16 
 C                    -4.9285   -0.16186  -2.96218 
 N                    -3.70575  -0.96423  -3.05609 
 H                    -4.09007   5.21414  -6.86174 
 H                    -2.77172   5.17872  -5.90113 
 H                    -4.26289   5.08523  -5.24405 
 H                    -1.53617  -1.73184  -6.31721 
 H                    -3.19607  -1.36714  -6.46493 
 N                    -2.25861  -1.04065  -6.33931 
 C                    -1.9851    0.25894  -6.20724 
 C                    -2.52563   2.57275  -6.08142 
 N                    -1.2573    2.98232  -5.91402 
 H                     0.62586   2.18515  -5.77681 
 C                    -0.42743   1.94108  -5.90822 
 N                    -0.69942   0.63872  -6.04035 
 H                    -5.73151   2.84154  -6.40123 
 C                    -4.70372   2.48658  -6.32 
 N                    -4.3429    1.22812  -6.38132 
 C                    -2.96427   1.26868  -6.23142 
 C                    -3.69829   4.82576  -6.02768 
 N                    -3.65476   3.35485  -6.13959 
 
 ITRead=  0  0  0  0  0  0  0  0  0  0  0  0  0  0  0  0  0  0  0  0
 ITRead=  0  0  0  0  0  0  0  0  0  0  0  0  0  0  0  0  0  0  0  0
 ITRead=  0  0  0  0  0  0  0  0  0  0  0  0  0  0  0  0  0  0  0  0
 ITRead=  0  0  0  0  0  0  0  0  0  0
 MicOpt= -1 -1 -1 -1 -1 -1 -1 -1 -1 -1 -1 -1 -1 -1 -1 -1 -1 -1 -1 -1
 MicOpt= -1 -1 -1 -1 -1 -1 -1 -1 -1 -1 -1 -1 -1 -1 -1 -1 -1 -1 -1 -1
 MicOpt= -1 -1 -1 -1 -1 -1 -1 -1 -1 -1 -1 -1 -1 -1 -1 -1 -1 -1 -1 -1
 MicOpt= -1 -1 -1 -1 -1 -1 -1 -1 -1 -1
 NAtoms=     70 NQM=       70 NQMF=       0 NMMI=      0 NMMIF=      0
                NMic=       0 NMicF=      0.
                    Isotopes and Nuclear Properties:
 (Nuclear quadrupole moments (NQMom) in fm**2, nuclear magnetic moments (NMagM)
  in nuclear magnetons)

  Atom         1           2           3           4           5           6           7           8           9          10
 IAtWgt=          14          12          12          14          12           1          14          12           1          14
 AtmWgt=  14.0030740  12.0000000  12.0000000  14.0030740  12.0000000   1.0078250  14.0030740  12.0000000   1.0078250  14.0030740
 NucSpn=           2           0           0           2           0           1           2           0           1           2
 AtZEff=  -0.0000000  -0.0000000  -0.0000000  -0.0000000  -0.0000000  -0.0000000  -0.0000000  -0.0000000  -0.0000000  -0.0000000
 NQMom=    2.0440000   0.0000000   0.0000000   2.0440000   0.0000000   0.0000000   2.0440000   0.0000000   0.0000000   2.0440000
 NMagM=    0.4037610   0.0000000   0.0000000   0.4037610   0.0000000   2.7928460   0.4037610   0.0000000   2.7928460   0.4037610
 AtZNuc=   7.0000000   6.0000000   6.0000000   7.0000000   6.0000000   1.0000000   7.0000000   6.0000000   1.0000000   7.0000000

  Atom        11          12          13          14          15          16          17          18          19          20
 IAtWgt=          12          12          14           1           1           1           1           1          14          12
 AtmWgt=  12.0000000  12.0000000  14.0030740   1.0078250   1.0078250   1.0078250   1.0078250   1.0078250  14.0030740  12.0000000
 NucSpn=           0           0           2           1           1           1           1           1           2           0
 AtZEff=  -0.0000000  -0.0000000  -0.0000000  -0.0000000  -0.0000000  -0.0000000  -0.0000000  -0.0000000  -0.0000000  -0.0000000
 NQMom=    0.0000000   0.0000000   2.0440000   0.0000000   0.0000000   0.0000000   0.0000000   0.0000000   2.0440000   0.0000000
 NMagM=    0.0000000   0.0000000   0.4037610   2.7928460   2.7928460   2.7928460   2.7928460   2.7928460   0.4037610   0.0000000
 AtZNuc=   6.0000000   6.0000000   7.0000000   1.0000000   1.0000000   1.0000000   1.0000000   1.0000000   7.0000000   6.0000000

  Atom        21          22          23          24          25          26          27          28          29          30
 IAtWgt=          12          14           1           1          14          12          14           1          12          16
 AtmWgt=  12.0000000  14.0030740   1.0078250   1.0078250  14.0030740  12.0000000  14.0030740   1.0078250  12.0000000  15.9949146
 NucSpn=           0           2           1           1           2           0           2           1           0           0
 AtZEff=  -0.0000000  -0.0000000  -0.0000000  -0.0000000  -0.0000000  -0.0000000  -0.0000000  -0.0000000  -0.0000000  -0.0000000
 NQMom=    0.0000000   2.0440000   0.0000000   0.0000000   2.0440000   0.0000000   2.0440000   0.0000000   0.0000000   0.0000000
 NMagM=    0.0000000   0.4037610   2.7928460   2.7928460   0.4037610   0.0000000   0.4037610   2.7928460   0.0000000   0.0000000
 AtZNuc=   6.0000000   7.0000000   1.0000000   1.0000000   7.0000000   6.0000000   7.0000000   1.0000000   6.0000000   8.0000000

  Atom        31          32          33          34          35          36          37          38          39          40
 IAtWgt=          12          14          12           1           1           1           1           1           1           1
 AtmWgt=  12.0000000  14.0030740  12.0000000   1.0078250   1.0078250   1.0078250   1.0078250   1.0078250   1.0078250   1.0078250
 NucSpn=           0           2           0           1           1           1           1           1           1           1
 AtZEff=  -0.0000000  -0.0000000  -0.0000000  -0.0000000  -0.0000000  -0.0000000  -0.0000000  -0.0000000  -0.0000000  -0.0000000
 NQMom=    0.0000000   2.0440000   0.0000000   0.0000000   0.0000000   0.0000000   0.0000000   0.0000000   0.0000000   0.0000000
 NMagM=    0.0000000   0.4037610   0.0000000   2.7928460   2.7928460   2.7928460   2.7928460   2.7928460   2.7928460   2.7928460
 AtZNuc=   6.0000000   7.0000000   6.0000000   1.0000000   1.0000000   1.0000000   1.0000000   1.0000000   1.0000000   1.0000000

  Atom        41          42          43          44          45          46          47          48          49          50
 IAtWgt=           1          12          16          12           1          14          16          12           1          12
 AtmWgt=   1.0078250  12.0000000  15.9949146  12.0000000   1.0078250  14.0030740  15.9949146  12.0000000   1.0078250  12.0000000
 NucSpn=           1           0           0           0           1           2           0           0           1           0
 AtZEff=  -0.0000000  -0.0000000  -0.0000000  -0.0000000  -0.0000000  -0.0000000  -0.0000000  -0.0000000  -0.0000000  -0.0000000
 NQMom=    0.0000000   0.0000000   0.0000000   0.0000000   0.0000000   2.0440000   0.0000000   0.0000000   0.0000000   0.0000000
 NMagM=    2.7928460   0.0000000   0.0000000   0.0000000   2.7928460   0.4037610   0.0000000   0.0000000   2.7928460   0.0000000
 AtZNuc=   1.0000000   6.0000000   8.0000000   6.0000000   1.0000000   7.0000000   8.0000000   6.0000000   1.0000000   6.0000000

  Atom        51          52          53          54          55          56          57          58          59          60
 IAtWgt=          12          14           1           1           1           1           1          14          12          12
 AtmWgt=  12.0000000  14.0030740   1.0078250   1.0078250   1.0078250   1.0078250   1.0078250  14.0030740  12.0000000  12.0000000
 NucSpn=           0           2           1           1           1           1           1           2           0           0
 AtZEff=  -0.0000000  -0.0000000  -0.0000000  -0.0000000  -0.0000000  -0.0000000  -0.0000000  -0.0000000  -0.0000000  -0.0000000
 NQMom=    0.0000000   2.0440000   0.0000000   0.0000000   0.0000000   0.0000000   0.0000000   2.0440000   0.0000000   0.0000000
 NMagM=    0.0000000   0.4037610   2.7928460   2.7928460   2.7928460   2.7928460   2.7928460   0.4037610   0.0000000   0.0000000
 AtZNuc=   6.0000000   7.0000000   1.0000000   1.0000000   1.0000000   1.0000000   1.0000000   7.0000000   6.0000000   6.0000000

  Atom        61          62          63          64          65          66          67          68          69          70
 IAtWgt=          14           1          12          14           1          12          14          12          12          14
 AtmWgt=  14.0030740   1.0078250  12.0000000  14.0030740   1.0078250  12.0000000  14.0030740  12.0000000  12.0000000  14.0030740
 NucSpn=           2           1           0           2           1           0           2           0           0           2
 AtZEff=  -0.0000000  -0.0000000  -0.0000000  -0.0000000  -0.0000000  -0.0000000  -0.0000000  -0.0000000  -0.0000000  -0.0000000
 NQMom=    2.0440000   0.0000000   0.0000000   2.0440000   0.0000000   0.0000000   2.0440000   0.0000000   0.0000000   2.0440000
 NMagM=    0.4037610   2.7928460   0.0000000   0.4037610   2.7928460   0.0000000   0.4037610   0.0000000   0.0000000   0.4037610
 AtZNuc=   7.0000000   1.0000000   6.0000000   7.0000000   1.0000000   6.0000000   7.0000000   6.0000000   6.0000000   7.0000000
 Leave Link  101 at Thu Jan 25 19:04:55 2018, MaxMem=  4294967296 cpu:               7.5 elap:               0.3
 (Enter /share/apps/g16/l202.exe)
 Stoichiometry    C23H27N17O3
 Framework group  C1[X(C23H27N17O3)]
 Deg. of freedom   204
 Full point group                 C1      NOp   1
 Largest Abelian subgroup         C1      NOp   1
 Largest concise Abelian subgroup C1      NOp   1
                         Standard orientation:                         
 ---------------------------------------------------------------------
 Center     Atomic      Atomic             Coordinates (Angstroms)
 Number     Number       Type             X           Y           Z
 ---------------------------------------------------------------------
      1          7           0       -6.176826   -1.713712    0.786698
      2          6           0       -7.578063   -1.252933    0.739455
      3          6           0       -3.986756   -1.781197    0.977370
      4          7           0       -4.392995   -3.079936    0.707263
      5          6           0       -5.696169   -2.987302    0.603199
      6          1           0       -6.362305   -3.824244    0.391697
      7          7           0       -2.662419    0.115009    1.439438
      8          6           0       -3.802974    0.812399    1.458694
      9          1           0       -3.693559    1.877284    1.659452
     10          7           0       -5.052517    0.393821    1.268068
     11          6           0       -5.075189   -0.927891    1.029365
     12          6           0       -2.718789   -1.212734    1.196537
     13          7           0       -1.581343   -1.910593    1.176906
     14          1           0       -1.575685   -2.895616    1.001098
     15          1           0       -0.696563   -1.472839    1.337187
     16          1           0       -8.111549   -1.731856    1.436731
     17          1           0       -7.612187   -0.269042    0.912431
     18          1           0       -7.963896   -1.444585   -0.162987
     19          7           0       -2.822960    3.097715   -1.657415
     20          6           0       -1.539584    2.625223   -1.524151
     21          6           0       -3.232895    4.508639   -1.509354
     22          7           0        1.827945    3.201120   -0.899776
     23          1           0        2.670345    2.665630   -0.846399
     24          1           0        1.904999    4.185395   -0.738575
     25          7           0       -0.446218    3.364564   -1.237862
     26          6           0        0.647526    2.626042   -1.175095
     27          7           0        0.670873    1.267287   -1.376942
     28          1           0        1.553334    0.783915   -1.309280
     29          6           0       -0.441920    0.486182   -1.672639
     30          8           0       -0.312339   -0.733297   -1.836467
     31          6           0       -1.624442    1.265614   -1.743377
     32          7           0       -2.934713    0.892055   -2.008936
     33          6           0       -3.608182    2.008684   -1.947441
     34          1           0       -4.683691    2.094726   -2.106010
     35          1           0       -3.898420    4.588081   -0.768026
     36          1           0       -2.431228    5.065920   -1.297150
     37          1           0       -3.644133    4.829222   -2.361957
     38          1           0        6.136139   -1.119891   -0.201977
     39          1           0        6.326624   -1.127322   -1.953638
     40          1           0        5.333817    0.108872   -1.180636
     41          1           0        3.598965   -5.043825   -1.347465
     42          6           0        3.492926   -3.959053   -1.363593
     43          8           0        1.135179   -4.009048   -1.619783
     44          6           0        2.190057   -3.384965   -1.507713
     45          1           0        1.265059   -1.562613   -1.616023
     46          7           0        2.167903   -2.004864   -1.515966
     47          8           0        3.123153    0.053202   -1.420803
     48          6           0        3.242901   -1.159231   -1.402650
     49          1           0        5.572718   -3.546845   -1.139166
     50          6           0        4.560574   -3.160285   -1.250871
     51          6           0        5.642904   -0.925125   -1.142642
     52          7           0        4.464948   -1.788067   -1.267085
     53          1           0        4.004383    4.106561    2.957151
     54          1           0        2.826808    4.080381    1.828123
     55          1           0        4.393891    4.104472    1.372322
     56          1           0        1.934199   -2.891956    1.615265
     57          1           0        3.537690   -2.462434    2.008235
     58          7           0        2.607952   -2.171469    1.779906
     59          6           0        2.282102   -0.879789    1.698845
     60          6           0        2.704761    1.459602    1.800474
     61          7           0        1.448335    1.821043    1.491953
     62          1           0       -0.353448    0.949552    1.050727
     63          6           0        0.685601    0.745646    1.305790
     64          7           0        1.010093   -0.548868    1.386523
     65          1           0        5.821438    1.852699    2.564664
     66          6           0        4.834430    1.457339    2.322896
     67          7           0        4.539325    0.182386    2.251621
     68          6           0        3.191976    0.169808    1.921122
     69          6           0        3.747119    3.762472    2.054154
     70          7           0        3.771312    2.286884    2.061377
 ---------------------------------------------------------------------
 Rotational constants (GHZ):           0.1192609           0.0592958           0.0502018
 Leave Link  202 at Thu Jan 25 19:04:55 2018, MaxMem=  4294967296 cpu:               0.3 elap:               0.0
 (Enter /share/apps/g16/l301.exe)
 Standard basis: CC-pVDZ (5D, 7F)
 Ernie: Thresh=  0.10000D-02 Tol=  0.10000D-05 Strict=F.
 Ernie:  86 primitive shells out of 1081 were deleted.
 There are   780 symmetry adapted cartesian basis functions of A   symmetry.
 There are   737 symmetry adapted basis functions of A   symmetry.
   737 basis functions,  1608 primitive gaussians,   780 cartesian basis functions
   154 alpha electrons      154 beta electrons
       nuclear repulsion energy      5470.4007099748 Hartrees.
 IExCor= 4639 DFT=T Ex+Corr=wB97XD ExCW=0 ScaHFX=  1.000000
 ScaDFX=  1.000000  1.000000  1.000000  1.000000 ScalE2=  1.000000  1.000000
 IRadAn=      5 IRanWt=     -1 IRanGd=            0 ICorTp=0 IEmpDi=121
 HFx  wShort=  0.000000 wLong=  0.200000 cFull=  0.222036 cShort=  0.000000 cLong=  0.777964
 DFx  wShort=  0.000000 wLong=  0.200000 cFull=  0.000000 cShort=  0.000000 cLong=  1.000000
 NAtoms=   70 NActive=   70 NUniq=   70 SFac= 1.00D+00 NAtFMM=   60 NAOKFM=T Big=T
 Integral buffers will be    131072 words long.
 Raffenetti 2 integral format.
 Two-electron integral symmetry is turned on.
 R6Disp:  Grimme-D2 Dispersion energy=       -0.0682831307 Hartrees.
 Nuclear repulsion after empirical dispersion term =     5470.3324268441 Hartrees.
 Leave Link  301 at Thu Jan 25 19:04:55 2018, MaxMem=  4294967296 cpu:               2.1 elap:               0.1
 (Enter /share/apps/g16/l302.exe)
 NPDir=0 NMtPBC=     1 NCelOv=     1 NCel=       1 NClECP=     1 NCelD=      1
         NCelK=      1 NCelE2=     1 NClLst=     1 CellRange=     0.0.
 One-electron integrals computed using PRISM.
 One-electron integral symmetry used in STVInt
 NBasis=   737 RedAO= T EigKep=  7.04D-04  NBF=   737
 NBsUse=   737 1.00D-06 EigRej= -1.00D+00 NBFU=   737
 Precomputing XC quadrature grid using
 IXCGrd= 4 IRadAn=           5 IRanWt=          -1 IRanGd=           0 AccXCQ= 0.00D+00.
 Generated NRdTot=       0 NPtTot=           0 NUsed=           0 NTot=          32
 NSgBfM=   770   770   770   770   770 MxSgAt=    70 MxSgA2=    70.
 Leave Link  302 at Thu Jan 25 19:04:59 2018, MaxMem=  4294967296 cpu:             134.3 elap:               4.2
 (Enter /share/apps/g16/l303.exe)
 DipDrv:  MaxL=1.
 Leave Link  303 at Thu Jan 25 19:05:00 2018, MaxMem=  4294967296 cpu:              12.5 elap:               0.4
 (Enter /share/apps/g16/l401.exe)
 ExpMin= 1.22D-01 ExpMax= 1.17D+04 ExpMxC= 4.01D+02 IAcc=3 IRadAn=         5 AccDes= 0.00D+00
 Harris functional with IExCor= 4639 and IRadAn=       5 diagonalized for initial guess.
 HarFok:  IExCor= 4639 AccDes= 0.00D+00 IRadAn=         5 IDoV= 1 UseB2=F ITyADJ=14
 ICtDFT=  3500011 ScaDFX=  1.000000  1.000000  1.000000  1.000000
 FoFCou: FMM=F IPFlag=           0 FMFlag=      100000 FMFlg1=        2001
         NFxFlg=           0 DoJE=T BraDBF=F KetDBF=T FulRan=T
         wScrn=  0.000000 ICntrl=       500 IOpCl=  0 I1Cent=   200000004 NGrid=           0
         NMat0=    1 NMatS0=      1 NMatT0=    0 NMatD0=    1 NMtDS0=    0 NMtDT0=    0
 Petite list used in FoFCou.
 Harris En= -1963.87872519762    
 JPrj=0 DoOrth=F DoCkMO=F.
 Leave Link  401 at Thu Jan 25 19:05:12 2018, MaxMem=  4294967296 cpu:             395.5 elap:              12.4
 (Enter /share/apps/g16/l502.exe)
 Integral symmetry usage will be decided dynamically.
 Closed shell SCF:
 Using DIIS extrapolation, IDIIS=  1040.
 NGot=  4294967296 LenX=  4293717438 LenY=  4293108258
 Requested convergence on RMS density matrix=1.00D-08 within  20 cycles.
 Requested convergence on MAX density matrix=1.00D-06.
 Requested convergence on             energy=1.00D-06.
 No special actions if energy rises.
 Fock matrices will be formed incrementally for  20 cycles.
 Integral accuracy reduced to 1.0D-05 until final iterations.

 Cycle   1  Pass 0  IDiag  1:
 FoFJK:  IHMeth= 1 ICntrl=       0 DoSepK=T KAlg= 0 I1Cent=           0 FoldK=F
 IRaf=         1 NMat=       1 IRICut=       1 DoRegI=T DoRafI=F ISym2E= 0 IDoP0=0 IntGTp=1.
 FoFCou: FMM=T IPFlag=           0 FMFlag=      100000 FMFlg1=        2001
         NFxFlg=           0 DoJE=T BraDBF=F KetDBF=F FulRan=T
         wScrn=  0.000000 ICntrl=       500 IOpCl=  0 I1Cent=           0 NGrid=           0
         NMat0=    1 NMatS0=      1 NMatT0=    0 NMatD0=    1 NMtDS0=    0 NMtDT0=    0
 Symmetry not used in FoFCou.
 FMM levels:  10  Number of levels for PrismC:   9
 E= -2048.30488703424    
 DIIS: error= 2.43D-02 at cycle   1 NSaved=   1.
 NSaved= 1 IEnMin= 1 EnMin= -2048.30488703424     IErMin= 1 ErrMin= 2.43D-02
 ErrMax= 2.43D-02  0.00D+00 EMaxC= 1.00D-01 BMatC= 8.32D-01 BMatP= 8.32D-01
 IDIUse=3 WtCom= 7.57D-01 WtEn= 2.43D-01
 Coeff-Com:  0.100D+01
 Coeff-En:   0.100D+01
 Coeff:      0.100D+01
 Gap=     0.250 Goal=   None    Shift=    0.000
 GapD=    0.250 DampG=1.000 DampE=0.500 DampFc=0.5000 IDamp=-1.
 Damping current iteration by 5.00D-01
 RMSDP=1.57D-03 MaxDP=1.32D-01              OVMax= 1.94D-01

 Cycle   2  Pass 0  IDiag  1:
 RMSU=  7.83D-04    CP:  9.98D-01
 E= -2048.50362717364     Delta-E=       -0.198740139404 Rises=F Damp=T
 DIIS: error= 1.33D-02 at cycle   2 NSaved=   2.
 NSaved= 2 IEnMin= 2 EnMin= -2048.50362717364     IErMin= 2 ErrMin= 1.33D-02
 ErrMax= 1.33D-02  0.00D+00 EMaxC= 1.00D-01 BMatC= 1.45D-01 BMatP= 8.32D-01
 IDIUse=3 WtCom= 8.67D-01 WtEn= 1.33D-01
 Coeff-Com: -0.200D+00 0.120D+01
 Coeff-En:   0.000D+00 0.100D+01
 Coeff:     -0.173D+00 0.117D+01
 Gap=     0.357 Goal=   None    Shift=    0.000
 RMSDP=5.77D-04 MaxDP=3.51D-02 DE=-1.99D-01 OVMax= 1.38D-01

 Cycle   3  Pass 0  IDiag  1:
 RMSU=  5.64D-04    CP:  9.94D-01  1.14D+00
 E= -2048.68610238169     Delta-E=       -0.182475208048 Rises=F Damp=F
 DIIS: error= 1.04D-02 at cycle   3 NSaved=   3.
 NSaved= 3 IEnMin= 3 EnMin= -2048.68610238169     IErMin= 3 ErrMin= 1.04D-02
 ErrMax= 1.04D-02  0.00D+00 EMaxC= 1.00D-01 BMatC= 6.01D-02 BMatP= 1.45D-01
 IDIUse=3 WtCom= 8.96D-01 WtEn= 1.04D-01
 Coeff-Com: -0.229D+00 0.541D+00 0.688D+00
 Coeff-En:   0.000D+00 0.000D+00 0.100D+01
 Coeff:     -0.205D+00 0.485D+00 0.720D+00
 Gap=     0.274 Goal=   None    Shift=    0.000
 RMSDP=3.51D-04 MaxDP=3.54D-02 DE=-1.82D-01 OVMax= 7.78D-02

 Cycle   4  Pass 0  IDiag  1:
 RMSU=  2.01D-04    CP:  9.94D-01  1.43D+00  6.72D-01
 E= -2048.73036930569     Delta-E=       -0.044266924006 Rises=F Damp=F
 DIIS: error= 4.39D-03 at cycle   4 NSaved=   4.
 NSaved= 4 IEnMin= 4 EnMin= -2048.73036930569     IErMin= 4 ErrMin= 4.39D-03
 ErrMax= 4.39D-03  0.00D+00 EMaxC= 1.00D-01 BMatC= 9.96D-03 BMatP= 6.01D-02
 IDIUse=3 WtCom= 9.56D-01 WtEn= 4.39D-02
 Coeff-Com: -0.917D-01 0.178D+00 0.390D+00 0.524D+00
 Coeff-En:   0.000D+00 0.000D+00 0.914D-01 0.909D+00
 Coeff:     -0.877D-01 0.170D+00 0.377D+00 0.541D+00
 Gap=     0.280 Goal=   None    Shift=    0.000
 RMSDP=1.32D-04 MaxDP=1.37D-02 DE=-4.43D-02 OVMax= 1.60D-02

 Cycle   5  Pass 0  IDiag  1:
 RMSU=  6.21D-05    CP:  9.94D-01  1.39D+00  8.14D-01  6.06D-01
 E= -2048.73842231031     Delta-E=       -0.008053004618 Rises=F Damp=F
 DIIS: error= 7.09D-04 at cycle   5 NSaved=   5.
 NSaved= 5 IEnMin= 5 EnMin= -2048.73842231031     IErMin= 5 ErrMin= 7.09D-04
 ErrMax= 7.09D-04  0.00D+00 EMaxC= 1.00D-01 BMatC= 3.21D-04 BMatP= 9.96D-03
 IDIUse=3 WtCom= 9.93D-01 WtEn= 7.09D-03
 Coeff-Com: -0.227D-01 0.384D-01 0.125D+00 0.245D+00 0.614D+00
 Coeff-En:   0.000D+00 0.000D+00 0.000D+00 0.000D+00 0.100D+01
 Coeff:     -0.226D-01 0.381D-01 0.124D+00 0.243D+00 0.617D+00
 Gap=     0.280 Goal=   None    Shift=    0.000
 RMSDP=2.59D-05 MaxDP=2.45D-03 DE=-8.05D-03 OVMax= 3.73D-03

 Failed to achieve initial convergence to 1.0D-08 in  6 cycles.
 Switch to full accuracy anyway.
 Cycle   6  Pass 1  IDiag  1:
 E= -2048.73881302209     Delta-E=       -0.000390711779 Rises=F Damp=F
 DIIS: error= 2.13D-04 at cycle   1 NSaved=   1.
 NSaved= 1 IEnMin= 1 EnMin= -2048.73881302209     IErMin= 1 ErrMin= 2.13D-04
 ErrMax= 2.13D-04  0.00D+00 EMaxC= 1.00D-01 BMatC= 7.71D-05 BMatP= 7.71D-05
 IDIUse=3 WtCom= 9.98D-01 WtEn= 2.13D-03
 Coeff-Com:  0.100D+01
 Coeff-En:   0.100D+01
 Coeff:      0.100D+01
 Gap=     0.280 Goal=   None    Shift=    0.000
 RMSDP=2.59D-05 MaxDP=2.45D-03 DE=-3.91D-04 OVMax= 2.36D-03

 Cycle   7  Pass 1  IDiag  1:
 RMSU=  1.15D-04    CP:  1.00D+00
 E= -2048.73886991056     Delta-E=       -0.000056888466 Rises=F Damp=F
 DIIS: error= 2.74D-04 at cycle   2 NSaved=   2.
 NSaved= 2 IEnMin= 2 EnMin= -2048.73886991056     IErMin= 1 ErrMin= 2.13D-04
 ErrMax= 2.74D-04  0.00D+00 EMaxC= 1.00D-01 BMatC= 4.38D-05 BMatP= 7.71D-05
 IDIUse=3 WtCom= 9.97D-01 WtEn= 2.74D-03
 Coeff-Com:  0.405D+00 0.595D+00
 Coeff-En:   0.000D+00 0.100D+01
 Coeff:      0.404D+00 0.596D+00
 Gap=     0.280 Goal=   None    Shift=    0.000
 RMSDP=1.10D-05 MaxDP=1.38D-03 DE=-5.69D-05 OVMax= 1.66D-03

 Cycle   8  Pass 1  IDiag  1:
 RMSU=  1.06D-05    CP:  1.00D+00  1.03D+00
 E= -2048.73890006247     Delta-E=       -0.000030151912 Rises=F Damp=F
 DIIS: error= 1.49D-04 at cycle   3 NSaved=   3.
 NSaved= 3 IEnMin= 3 EnMin= -2048.73890006247     IErMin= 3 ErrMin= 1.49D-04
 ErrMax= 1.49D-04  0.00D+00 EMaxC= 1.00D-01 BMatC= 1.09D-05 BMatP= 4.38D-05
 IDIUse=3 WtCom= 9.99D-01 WtEn= 1.49D-03
 Coeff-Com: -0.190D-01 0.321D+00 0.698D+00
 Coeff-En:   0.000D+00 0.145D+00 0.855D+00
 Coeff:     -0.190D-01 0.320D+00 0.699D+00
 Gap=     0.280 Goal=   None    Shift=    0.000
 RMSDP=5.57D-06 MaxDP=5.40D-04 DE=-3.02D-05 OVMax= 5.97D-04

 Cycle   9  Pass 1  IDiag  1:
 RMSU=  3.77D-06    CP:  1.00D+00  1.05D+00  7.57D-01
 E= -2048.73890961949     Delta-E=       -0.000009557018 Rises=F Damp=F
 DIIS: error= 4.07D-05 at cycle   4 NSaved=   4.
 NSaved= 4 IEnMin= 4 EnMin= -2048.73890961949     IErMin= 4 ErrMin= 4.07D-05
 ErrMax= 4.07D-05  0.00D+00 EMaxC= 1.00D-01 BMatC= 4.88D-07 BMatP= 1.09D-05
 IDIUse=1 WtCom= 1.00D+00 WtEn= 0.00D+00
 Coeff-Com: -0.293D-01 0.909D-01 0.257D+00 0.681D+00
 Coeff:     -0.293D-01 0.909D-01 0.257D+00 0.681D+00
 Gap=     0.280 Goal=   None    Shift=    0.000
 RMSDP=1.39D-06 MaxDP=1.51D-04 DE=-9.56D-06 OVMax= 5.16D-04

 Cycle  10  Pass 1  IDiag  1:
 RMSU=  1.26D-06    CP:  1.00D+00  1.06D+00  7.89D-01  1.10D+00
 E= -2048.73891041164     Delta-E=       -0.000000792153 Rises=F Damp=F
 DIIS: error= 1.77D-05 at cycle   5 NSaved=   5.
 NSaved= 5 IEnMin= 5 EnMin= -2048.73891041164     IErMin= 5 ErrMin= 1.77D-05
 ErrMax= 1.77D-05  0.00D+00 EMaxC= 1.00D-01 BMatC= 1.16D-07 BMatP= 4.88D-07
 IDIUse=1 WtCom= 1.00D+00 WtEn= 0.00D+00
 Coeff-Com: -0.246D-02-0.559D-01-0.121D+00 0.202D+00 0.978D+00
 Coeff:     -0.246D-02-0.559D-01-0.121D+00 0.202D+00 0.978D+00
 Gap=     0.280 Goal=   None    Shift=    0.000
 RMSDP=1.17D-06 MaxDP=7.52D-05 DE=-7.92D-07 OVMax= 2.41D-04

 Cycle  11  Pass 1  IDiag  1:
 RMSU=  4.88D-07    CP:  1.00D+00  1.06D+00  7.98D-01  1.37D+00  1.16D+00
 E= -2048.73891065657     Delta-E=       -0.000000244934 Rises=F Damp=F
 DIIS: error= 1.15D-05 at cycle   6 NSaved=   6.
 NSaved= 6 IEnMin= 6 EnMin= -2048.73891065657     IErMin= 6 ErrMin= 1.15D-05
 ErrMax= 1.15D-05  0.00D+00 EMaxC= 1.00D-01 BMatC= 2.64D-08 BMatP= 1.16D-07
 IDIUse=1 WtCom= 1.00D+00 WtEn= 0.00D+00
 Coeff-Com:  0.454D-02-0.457D-01-0.113D+00-0.202D-02 0.516D+00 0.640D+00
 Coeff:      0.454D-02-0.457D-01-0.113D+00-0.202D-02 0.516D+00 0.640D+00
 Gap=     0.280 Goal=   None    Shift=    0.000
 RMSDP=3.62D-07 MaxDP=3.70D-05 DE=-2.45D-07 OVMax= 1.28D-04

 Cycle  12  Pass 1  IDiag  1:
 RMSU=  1.82D-07    CP:  1.00D+00  1.06D+00  7.99D-01  1.44D+00  1.30D+00
                    CP:  9.24D-01
 E= -2048.73891069495     Delta-E=       -0.000000038379 Rises=F Damp=F
 DIIS: error= 1.09D-06 at cycle   7 NSaved=   7.
 NSaved= 7 IEnMin= 7 EnMin= -2048.73891069495     IErMin= 7 ErrMin= 1.09D-06
 ErrMax= 1.09D-06  0.00D+00 EMaxC= 1.00D-01 BMatC= 8.41D-10 BMatP= 2.64D-08
 IDIUse=1 WtCom= 1.00D+00 WtEn= 0.00D+00
 Coeff-Com:  0.118D-02-0.845D-02-0.224D-01-0.689D-02 0.680D-01 0.157D+00
 Coeff-Com:  0.812D+00
 Coeff:      0.118D-02-0.845D-02-0.224D-01-0.689D-02 0.680D-01 0.157D+00
 Coeff:      0.812D+00
 Gap=     0.280 Goal=   None    Shift=    0.000
 RMSDP=7.97D-08 MaxDP=5.18D-06 DE=-3.84D-08 OVMax= 2.19D-05

 Cycle  13  Pass 1  IDiag  1:
 RMSU=  5.05D-08    CP:  1.00D+00  1.06D+00  7.99D-01  1.45D+00  1.31D+00
                    CP:  1.01D+00  1.11D+00
 E= -2048.73891069664     Delta-E=       -0.000000001687 Rises=F Damp=F
 DIIS: error= 6.50D-07 at cycle   8 NSaved=   8.
 NSaved= 8 IEnMin= 8 EnMin= -2048.73891069664     IErMin= 8 ErrMin= 6.50D-07
 ErrMax= 6.50D-07  0.00D+00 EMaxC= 1.00D-01 BMatC= 3.34D-10 BMatP= 8.41D-10
 IDIUse=1 WtCom= 1.00D+00 WtEn= 0.00D+00
 Coeff-Com: -0.640D-03 0.822D-02 0.191D-01-0.155D-02-0.108D+00-0.901D-01
 Coeff-Com:  0.419D+00 0.754D+00
 Coeff:     -0.640D-03 0.822D-02 0.191D-01-0.155D-02-0.108D+00-0.901D-01
 Coeff:      0.419D+00 0.754D+00
 Gap=     0.280 Goal=   None    Shift=    0.000
 RMSDP=4.77D-08 MaxDP=2.85D-06 DE=-1.69D-09 OVMax= 1.16D-05

 Cycle  14  Pass 1  IDiag  1:
 RMSU=  2.77D-08    CP:  1.00D+00  1.06D+00  7.98D-01  1.45D+00  1.32D+00
                    CP:  1.05D+00  1.27D+00  1.03D+00
 E= -2048.73891069740     Delta-E=       -0.000000000758 Rises=F Damp=F
 DIIS: error= 2.39D-07 at cycle   9 NSaved=   9.
 NSaved= 9 IEnMin= 9 EnMin= -2048.73891069740     IErMin= 9 ErrMin= 2.39D-07
 ErrMax= 2.39D-07  0.00D+00 EMaxC= 1.00D-01 BMatC= 3.68D-11 BMatP= 3.34D-10
 IDIUse=1 WtCom= 1.00D+00 WtEn= 0.00D+00
 Coeff-Com: -0.433D-03 0.483D-02 0.115D-01 0.659D-03-0.567D-01-0.593D-01
 Coeff-Com:  0.910D-01 0.329D+00 0.680D+00
 Coeff:     -0.433D-03 0.483D-02 0.115D-01 0.659D-03-0.567D-01-0.593D-01
 Coeff:      0.910D-01 0.329D+00 0.680D+00
 Gap=     0.280 Goal=   None    Shift=    0.000
 RMSDP=1.36D-08 MaxDP=7.92D-07 DE=-7.58D-10 OVMax= 3.49D-06

 Cycle  15  Pass 1  IDiag  1:
 RMSU=  9.33D-09    CP:  1.00D+00  1.06D+00  7.98D-01  1.45D+00  1.32D+00
                    CP:  1.06D+00  1.29D+00  1.18D+00  1.09D+00
 E= -2048.73891069725     Delta-E=        0.000000000146 Rises=F Damp=F
 DIIS: error= 7.04D-08 at cycle  10 NSaved=  10.
 NSaved=10 IEnMin= 9 EnMin= -2048.73891069740     IErMin=10 ErrMin= 7.04D-08
 ErrMax= 7.04D-08  0.00D+00 EMaxC= 1.00D-01 BMatC= 4.74D-12 BMatP= 3.68D-11
 IDIUse=1 WtCom= 1.00D+00 WtEn= 0.00D+00
 Coeff-Com:  0.974D-08-0.253D-03-0.477D-03 0.131D-03 0.471D-02 0.465D-03
 Coeff-Com: -0.554D-01-0.549D-01 0.230D+00 0.876D+00
 Coeff:      0.974D-08-0.253D-03-0.477D-03 0.131D-03 0.471D-02 0.465D-03
 Coeff:     -0.554D-01-0.549D-01 0.230D+00 0.876D+00
 Gap=     0.280 Goal=   None    Shift=    0.000
 RMSDP=6.94D-09 MaxDP=4.20D-07 DE= 1.46D-10 OVMax= 1.67D-06

 SCF Done:  E(RwB97XD) =  -2048.73891070     A.U. after   15 cycles
            NFock= 15  Conv=0.69D-08     -V/T= 2.0054
 KE= 2.037739486333D+03 PE=-1.572156821584D+04 EE= 6.164757391961D+03
 Leave Link  502 at Thu Jan 25 19:16:20 2018, MaxMem=  4294967296 cpu:           20695.6 elap:             667.7
 (Enter /share/apps/g16/l601.exe)
 Copying SCF densities to generalized density rwf, IOpCl= 0 IROHF=0.

 **********************************************************************

            Population analysis using the SCF density.

 **********************************************************************

 Orbital symmetries:
       Occupied  (A) (A) (A) (A) (A) (A) (A) (A) (A) (A) (A) (A)
                 (A) (A) (A) (A) (A) (A) (A) (A) (A) (A) (A) (A)
                 (A) (A) (A) (A) (A) (A) (A) (A) (A) (A) (A) (A)
                 (A) (A) (A) (A) (A) (A) (A) (A) (A) (A) (A) (A)
                 (A) (A) (A) (A) (A) (A) (A) (A) (A) (A) (A) (A)
                 (A) (A) (A) (A) (A) (A) (A) (A) (A) (A) (A) (A)
                 (A) (A) (A) (A) (A) (A) (A) (A) (A) (A) (A) (A)
                 (A) (A) (A) (A) (A) (A) (A) (A) (A) (A) (A) (A)
                 (A) (A) (A) (A) (A) (A) (A) (A) (A) (A) (A) (A)
                 (A) (A) (A) (A) (A) (A) (A) (A) (A) (A) (A) (A)
                 (A) (A) (A) (A) (A) (A) (A) (A) (A) (A) (A) (A)
                 (A) (A) (A) (A) (A) (A) (A) (A) (A) (A) (A) (A)
                 (A) (A) (A) (A) (A) (A) (A) (A) (A) (A)
       Virtual   (A) (A) (A) (A) (A) (A) (A) (A) (A) (A) (A) (A)
                 (A) (A) (A) (A) (A) (A) (A) (A) (A) (A) (A) (A)
                 (A) (A) (A) (A) (A) (A) (A) (A) (A) (A) (A) (A)
                 (A) (A) (A) (A) (A) (A) (A) (A) (A) (A) (A) (A)
                 (A) (A) (A) (A) (A) (A) (A) (A) (A) (A) (A) (A)
                 (A) (A) (A) (A) (A) (A) (A) (A) (A) (A) (A) (A)
                 (A) (A) (A) (A) (A) (A) (A) (A) (A) (A) (A) (A)
                 (A) (A) (A) (A) (A) (A) (A) (A) (A) (A) (A) (A)
                 (A) (A) (A) (A) (A) (A) (A) (A) (A) (A) (A) (A)
                 (A) (A) (A) (A) (A) (A) (A) (A) (A) (A) (A) (A)
                 (A) (A) (A) (A) (A) (A) (A) (A) (A) (A) (A) (A)
                 (A) (A) (A) (A) (A) (A) (A) (A) (A) (A) (A) (A)
                 (A) (A) (A) (A) (A) (A) (A) (A) (A) (A) (A) (A)
                 (A) (A) (A) (A) (A) (A) (A) (A) (A) (A) (A) (A)
                 (A) (A) (A) (A) (A) (A) (A) (A) (A) (A) (A) (A)
                 (A) (A) (A) (A) (A) (A) (A) (A) (A) (A) (A) (A)
                 (A) (A) (A) (A) (A) (A) (A) (A) (A) (A) (A) (A)
                 (A) (A) (A) (A) (A) (A) (A) (A) (A) (A) (A) (A)
                 (A) (A) (A) (A) (A) (A) (A) (A) (A) (A) (A) (A)
                 (A) (A) (A) (A) (A) (A) (A) (A) (A) (A) (A) (A)
                 (A) (A) (A) (A) (A) (A) (A) (A) (A) (A) (A) (A)
                 (A) (A) (A) (A) (A) (A) (A) (A) (A) (A) (A) (A)
                 (A) (A) (A) (A) (A) (A) (A) (A) (A) (A) (A) (A)
                 (A) (A) (A) (A) (A) (A) (A) (A) (A) (A) (A) (A)
                 (A) (A) (A) (A) (A) (A) (A) (A) (A) (A) (A) (A)
                 (A) (A) (A) (A) (A) (A) (A) (A) (A) (A) (A) (A)
                 (A) (A) (A) (A) (A) (A) (A) (A) (A) (A) (A) (A)
                 (A) (A) (A) (A) (A) (A) (A) (A) (A) (A) (A) (A)
                 (A) (A) (A) (A) (A) (A) (A) (A) (A) (A) (A) (A)
                 (A) (A) (A) (A) (A) (A) (A) (A) (A) (A) (A) (A)
                 (A) (A) (A) (A) (A) (A) (A) (A) (A) (A) (A) (A)
                 (A) (A) (A) (A) (A) (A) (A) (A) (A) (A) (A) (A)
                 (A) (A) (A) (A) (A) (A) (A) (A) (A) (A) (A) (A)
                 (A) (A) (A) (A) (A) (A) (A) (A) (A) (A) (A) (A)
                 (A) (A) (A) (A) (A) (A) (A) (A) (A) (A) (A) (A)
                 (A) (A) (A) (A) (A) (A) (A) (A) (A) (A) (A) (A)
                 (A) (A) (A) (A) (A) (A) (A) (A) (A) (A) (A) (A)
                 (A) (A) (A) (A) (A) (A) (A) (A) (A) (A) (A) (A)
                 (A) (A) (A) (A) (A) (A) (A) (A) (A) (A) (A) (A)
                 (A) (A) (A) (A) (A) (A) (A) (A) (A) (A) (A) (A)
                 (A) (A) (A) (A) (A) (A) (A) (A) (A) (A) (A) (A)
                 (A) (A) (A) (A) (A) (A) (A) (A) (A) (A) (A) (A)
                 (A) (A) (A) (A) (A) (A) (A) (A) (A) (A) (A) (A)
                 (A) (A) (A) (A) (A) (A) (A) (A) (A) (A) (A) (A)
                 (A) (A) (A) (A) (A) (A) (A) (A) (A) (A) (A) (A)
                 (A) (A) (A) (A) (A) (A) (A) (A) (A) (A) (A) (A)
                 (A) (A) (A) (A) (A) (A) (A) (A) (A) (A) (A) (A)
                 (A) (A) (A) (A) (A) (A) (A) (A) (A) (A) (A) (A)
                 (A) (A) (A) (A) (A) (A) (A)
 The electronic state is 1-A.
 Alpha  occ. eigenvalues --  -19.25971 -19.22168 -19.20669 -14.52533 -14.52183
 Alpha  occ. eigenvalues --  -14.48787 -14.48433 -14.47974 -14.47917 -14.46917
 Alpha  occ. eigenvalues --  -14.46607 -14.45180 -14.43779 -14.43536 -14.42089
 Alpha  occ. eigenvalues --  -14.42014 -14.41096 -14.40783 -14.40567 -14.39883
 Alpha  occ. eigenvalues --  -10.45574 -10.41164 -10.40262 -10.39501 -10.38236
 Alpha  occ. eigenvalues --  -10.37989 -10.37684 -10.36718 -10.35211 -10.35131
 Alpha  occ. eigenvalues --  -10.35060 -10.34360 -10.33927 -10.33772 -10.33251
 Alpha  occ. eigenvalues --  -10.33018 -10.32777 -10.32203 -10.31316 -10.30945
 Alpha  occ. eigenvalues --  -10.30687 -10.28196 -10.28116  -1.19532  -1.14855
 Alpha  occ. eigenvalues --   -1.13265  -1.13171  -1.11008  -1.10605  -1.09422
 Alpha  occ. eigenvalues --   -1.08898  -1.08553  -1.04677  -1.04425  -1.02570
 Alpha  occ. eigenvalues --   -1.00707  -1.00143  -0.99793  -0.98584  -0.96697
 Alpha  occ. eigenvalues --   -0.96591  -0.96334  -0.92340  -0.91199  -0.87283
 Alpha  occ. eigenvalues --   -0.85728  -0.84118  -0.83619  -0.83601  -0.82526
 Alpha  occ. eigenvalues --   -0.82018  -0.79005  -0.76681  -0.74658  -0.74421
 Alpha  occ. eigenvalues --   -0.73702  -0.73437  -0.72613  -0.70747  -0.70107
 Alpha  occ. eigenvalues --   -0.67414  -0.66625  -0.66490  -0.66023  -0.64521
 Alpha  occ. eigenvalues --   -0.63987  -0.63814  -0.62777  -0.62426  -0.61778
 Alpha  occ. eigenvalues --   -0.60309  -0.60124  -0.59976  -0.59605  -0.59407
 Alpha  occ. eigenvalues --   -0.59167  -0.58409  -0.56759  -0.56292  -0.56070
 Alpha  occ. eigenvalues --   -0.56055  -0.55302  -0.55090  -0.54755  -0.54432
 Alpha  occ. eigenvalues --   -0.53771  -0.53700  -0.53155  -0.53005  -0.52973
 Alpha  occ. eigenvalues --   -0.52426  -0.52380  -0.51486  -0.50416  -0.50207
 Alpha  occ. eigenvalues --   -0.49921  -0.49499  -0.49411  -0.48896  -0.48842
 Alpha  occ. eigenvalues --   -0.48551  -0.48371  -0.48267  -0.47914  -0.47420
 Alpha  occ. eigenvalues --   -0.46632  -0.45733  -0.44727  -0.44248  -0.44048
 Alpha  occ. eigenvalues --   -0.40826  -0.40378  -0.39519  -0.37675  -0.37391
 Alpha  occ. eigenvalues --   -0.37290  -0.36913  -0.36845  -0.35948  -0.34733
 Alpha  occ. eigenvalues --   -0.34083  -0.33404  -0.33298  -0.33213  -0.32898
 Alpha  occ. eigenvalues --   -0.32655  -0.32419  -0.32117  -0.31836  -0.30544
 Alpha  occ. eigenvalues --   -0.30102  -0.29492  -0.25756  -0.25133
 Alpha virt. eigenvalues --    0.02865   0.04435   0.07505   0.08318   0.08360
 Alpha virt. eigenvalues --    0.09180   0.09563   0.10930   0.11439   0.11686
 Alpha virt. eigenvalues --    0.12271   0.14050   0.14402   0.14669   0.15086
 Alpha virt. eigenvalues --    0.15716   0.16157   0.17104   0.17136   0.17821
 Alpha virt. eigenvalues --    0.18288   0.19457   0.19904   0.20396   0.20525
 Alpha virt. eigenvalues --    0.20834   0.20985   0.21058   0.21429   0.21947
 Alpha virt. eigenvalues --    0.22491   0.23237   0.23360   0.23649   0.23973
 Alpha virt. eigenvalues --    0.24123   0.24200   0.24609   0.24719   0.25193
 Alpha virt. eigenvalues --    0.25567   0.26585   0.27113   0.27282   0.28075
 Alpha virt. eigenvalues --    0.29182   0.29253   0.29605   0.30418   0.31029
 Alpha virt. eigenvalues --    0.31432   0.31641   0.32621   0.33308   0.33602
 Alpha virt. eigenvalues --    0.34077   0.34252   0.34917   0.35774   0.36702
 Alpha virt. eigenvalues --    0.36867   0.37155   0.37820   0.39333   0.39562
 Alpha virt. eigenvalues --    0.39997   0.40379   0.40779   0.41309   0.41649
 Alpha virt. eigenvalues --    0.42500   0.42773   0.43490   0.43695   0.44485
 Alpha virt. eigenvalues --    0.44657   0.45299   0.46370   0.47009   0.47401
 Alpha virt. eigenvalues --    0.47547   0.47667   0.48539   0.48888   0.49705
 Alpha virt. eigenvalues --    0.49904   0.50241   0.50389   0.50556   0.50788
 Alpha virt. eigenvalues --    0.51742   0.52151   0.52577   0.52807   0.53239
 Alpha virt. eigenvalues --    0.53544   0.54171   0.54759   0.55167   0.55810
 Alpha virt. eigenvalues --    0.56129   0.56633   0.56905   0.57000   0.57516
 Alpha virt. eigenvalues --    0.57859   0.58192   0.58440   0.58856   0.59493
 Alpha virt. eigenvalues --    0.59989   0.60417   0.60511   0.60790   0.61517
 Alpha virt. eigenvalues --    0.61696   0.62006   0.62367   0.63118   0.63404
 Alpha virt. eigenvalues --    0.63782   0.63998   0.64452   0.64914   0.65671
 Alpha virt. eigenvalues --    0.65703   0.66251   0.66679   0.66926   0.67440
 Alpha virt. eigenvalues --    0.67840   0.68064   0.68651   0.68985   0.69315
 Alpha virt. eigenvalues --    0.69479   0.69629   0.70130   0.70352   0.70686
 Alpha virt. eigenvalues --    0.71058   0.72108   0.72346   0.73049   0.73346
 Alpha virt. eigenvalues --    0.73799   0.74394   0.74700   0.75139   0.75604
 Alpha virt. eigenvalues --    0.75853   0.76012   0.76083   0.76455   0.77145
 Alpha virt. eigenvalues --    0.77222   0.77526   0.77942   0.78172   0.78614
 Alpha virt. eigenvalues --    0.78757   0.78959   0.80094   0.80386   0.80671
 Alpha virt. eigenvalues --    0.81369   0.81697   0.82100   0.82135   0.82720
 Alpha virt. eigenvalues --    0.83162   0.83842   0.84124   0.84782   0.85052
 Alpha virt. eigenvalues --    0.85303   0.85803   0.86339   0.86945   0.87576
 Alpha virt. eigenvalues --    0.87790   0.88709   0.89075   0.89729   0.89996
 Alpha virt. eigenvalues --    0.90602   0.90877   0.91285   0.91743   0.92233
 Alpha virt. eigenvalues --    0.92571   0.92616   0.92907   0.93503   0.93867
 Alpha virt. eigenvalues --    0.94454   0.94804   0.95352   0.95500   0.96554
 Alpha virt. eigenvalues --    0.96918   0.97100   0.97566   0.97856   0.98240
 Alpha virt. eigenvalues --    0.99150   0.99621   1.00552   1.00759   1.01072
 Alpha virt. eigenvalues --    1.01624   1.01806   1.02181   1.02590   1.03064
 Alpha virt. eigenvalues --    1.03412   1.03695   1.04092   1.04591   1.05155
 Alpha virt. eigenvalues --    1.05825   1.05970   1.06176   1.06476   1.07140
 Alpha virt. eigenvalues --    1.08055   1.09022   1.09080   1.10119   1.10241
 Alpha virt. eigenvalues --    1.11278   1.12165   1.12404   1.12973   1.13192
 Alpha virt. eigenvalues --    1.13712   1.14673   1.14717   1.15145   1.15556
 Alpha virt. eigenvalues --    1.15932   1.16048   1.16767   1.17000   1.17171
 Alpha virt. eigenvalues --    1.17978   1.18371   1.18835   1.19257   1.19951
 Alpha virt. eigenvalues --    1.20025   1.20409   1.20737   1.21035   1.21535
 Alpha virt. eigenvalues --    1.21879   1.22333   1.22628   1.22913   1.23130
 Alpha virt. eigenvalues --    1.23377   1.23630   1.24280   1.24686   1.24822
 Alpha virt. eigenvalues --    1.25350   1.25563   1.26392   1.27085   1.27540
 Alpha virt. eigenvalues --    1.28243   1.28643   1.29426   1.30780   1.30964
 Alpha virt. eigenvalues --    1.32112   1.32400   1.32937   1.34063   1.34279
 Alpha virt. eigenvalues --    1.34442   1.34925   1.35548   1.36442   1.36933
 Alpha virt. eigenvalues --    1.38044   1.38673   1.39499   1.39737   1.40259
 Alpha virt. eigenvalues --    1.40852   1.41959   1.42586   1.44266   1.44836
 Alpha virt. eigenvalues --    1.45573   1.46189   1.46982   1.47437   1.47934
 Alpha virt. eigenvalues --    1.48433   1.49130   1.49356   1.49934   1.50308
 Alpha virt. eigenvalues --    1.50800   1.51618   1.52059   1.53256   1.54190
 Alpha virt. eigenvalues --    1.55227   1.56100   1.56319   1.56424   1.57198
 Alpha virt. eigenvalues --    1.58017   1.58335   1.59279   1.59833   1.60263
 Alpha virt. eigenvalues --    1.60971   1.61751   1.62336   1.62707   1.63085
 Alpha virt. eigenvalues --    1.63445   1.64736   1.65259   1.65577   1.66101
 Alpha virt. eigenvalues --    1.66881   1.68027   1.68270   1.68725   1.69356
 Alpha virt. eigenvalues --    1.70018   1.70269   1.70543   1.70876   1.71116
 Alpha virt. eigenvalues --    1.71488   1.71572   1.72503   1.73057   1.73472
 Alpha virt. eigenvalues --    1.73864   1.74291   1.74395   1.75166   1.75337
 Alpha virt. eigenvalues --    1.75776   1.75927   1.76368   1.76766   1.76911
 Alpha virt. eigenvalues --    1.77101   1.77381   1.77972   1.78331   1.78597
 Alpha virt. eigenvalues --    1.78878   1.79589   1.80245   1.80458   1.80539
 Alpha virt. eigenvalues --    1.80574   1.80655   1.81198   1.81784   1.82002
 Alpha virt. eigenvalues --    1.82118   1.82967   1.83418   1.83673   1.84510
 Alpha virt. eigenvalues --    1.85043   1.85559   1.85882   1.86422   1.86829
 Alpha virt. eigenvalues --    1.87194   1.87779   1.88141   1.88704   1.88880
 Alpha virt. eigenvalues --    1.89569   1.90037   1.90256   1.90846   1.91237
 Alpha virt. eigenvalues --    1.92242   1.92529   1.93013   1.93639   1.93840
 Alpha virt. eigenvalues --    1.94111   1.94902   1.95494   1.96712   1.97022
 Alpha virt. eigenvalues --    1.97611   1.98367   1.99563   2.00623   2.00940
 Alpha virt. eigenvalues --    2.01434   2.01646   2.02063   2.02523   2.03563
 Alpha virt. eigenvalues --    2.04394   2.05043   2.06171   2.06362   2.07151
 Alpha virt. eigenvalues --    2.07674   2.08161   2.08564   2.09020   2.09194
 Alpha virt. eigenvalues --    2.10024   2.10725   2.11088   2.11701   2.12722
 Alpha virt. eigenvalues --    2.13644   2.13789   2.14548   2.16117   2.16701
 Alpha virt. eigenvalues --    2.18207   2.19844   2.20145   2.20436   2.20971
 Alpha virt. eigenvalues --    2.21614   2.22072   2.22528   2.22972   2.23556
 Alpha virt. eigenvalues --    2.24532   2.24616   2.24948   2.25894   2.26878
 Alpha virt. eigenvalues --    2.27614   2.27798   2.28648   2.29118   2.29866
 Alpha virt. eigenvalues --    2.30219   2.30543   2.30922   2.31685   2.32525
 Alpha virt. eigenvalues --    2.33382   2.33779   2.34226   2.34433   2.34594
 Alpha virt. eigenvalues --    2.34967   2.35322   2.36268   2.36662   2.37141
 Alpha virt. eigenvalues --    2.37681   2.38739   2.39729   2.39942   2.41016
 Alpha virt. eigenvalues --    2.41952   2.42543   2.43136   2.43693   2.43916
 Alpha virt. eigenvalues --    2.45115   2.45305   2.45821   2.46278   2.46790
 Alpha virt. eigenvalues --    2.47389   2.48155   2.49667   2.50541   2.51780
 Alpha virt. eigenvalues --    2.52673   2.53199   2.54006   2.54939   2.55224
 Alpha virt. eigenvalues --    2.56452   2.56844   2.57770   2.58668   2.59374
 Alpha virt. eigenvalues --    2.60789   2.61285   2.61809   2.62154   2.63293
 Alpha virt. eigenvalues --    2.63986   2.64548   2.65420   2.65518   2.65714
 Alpha virt. eigenvalues --    2.66186   2.67715   2.68253   2.68871   2.69051
 Alpha virt. eigenvalues --    2.69445   2.70143   2.70548   2.70970   2.71906
 Alpha virt. eigenvalues --    2.72866   2.73687   2.74467   2.75021   2.75961
 Alpha virt. eigenvalues --    2.77573   2.78283   2.78520   2.79173   2.79414
 Alpha virt. eigenvalues --    2.79590   2.80346   2.80501   2.80806   2.81400
 Alpha virt. eigenvalues --    2.81689   2.81866   2.82648   2.83163   2.84108
 Alpha virt. eigenvalues --    2.84628   2.84900   2.86224   2.86529   2.87000
 Alpha virt. eigenvalues --    2.87796   2.88078   2.88939   2.91916   2.93393
 Alpha virt. eigenvalues --    2.94241   2.95202   2.96669   2.97653   2.99411
 Alpha virt. eigenvalues --    3.00332   3.01614   3.02038   3.04726   3.05825
 Alpha virt. eigenvalues --    3.06836   3.09456   3.10395   3.13353   3.14688
 Alpha virt. eigenvalues --    3.15301   3.15927   3.16355   3.17956   3.20217
 Alpha virt. eigenvalues --    3.21635   3.22360   3.23535   3.24178   3.25996
 Alpha virt. eigenvalues --    3.45095   3.47333   3.47767   3.49640   3.50028
 Alpha virt. eigenvalues --    3.53522   3.54059   3.56206   3.57845   3.59834
 Alpha virt. eigenvalues --    3.62935   3.70413   3.74435
          Condensed to atoms (all electrons):
 Mulliken charges:
               1
     1  N   -0.312436
     2  C    0.181425
     3  C    0.039545
     4  N   -0.259680
     5  C    0.134511
     6  H    0.025545
     7  N   -0.294016
     8  C    0.141892
     9  H    0.006749
    10  N   -0.292447
    11  C    0.250553
    12  C    0.122702
    13  N   -0.057173
    14  H    0.110141
    15  H    0.085535
    16  H    0.024159
    17  H    0.032934
    18  H    0.026379
    19  N   -0.312526
    20  C    0.246817
    21  C    0.181115
    22  N   -0.099027
    23  H    0.114485
    24  H    0.113421
    25  N   -0.301802
    26  C    0.220985
    27  N   -0.131896
    28  H    0.116257
    29  C    0.164675
    30  O   -0.318450
    31  C    0.006638
    32  N   -0.224530
    33  C    0.129060
    34  H    0.026748
    35  H    0.028883
    36  H    0.028056
    37  H    0.024678
    38  H    0.063027
    39  H    0.058010
    40  H    0.073985
    41  H    0.031511
    42  C   -0.111251
    43  O   -0.263559
    44  C    0.162891
    45  H    0.133738
    46  N   -0.124690
    47  O   -0.345741
    48  C    0.347589
    49  H    0.048046
    50  C    0.163526
    51  C    0.041821
    52  N   -0.287928
    53  H    0.036368
    54  H    0.040003
    55  H    0.024500
    56  H    0.126186
    57  H    0.115188
    58  N   -0.066240
    59  C    0.079321
    60  C    0.224663
    61  N   -0.262829
    62  H    0.040615
    63  C    0.166430
    64  N   -0.302067
    65  H    0.034624
    66  C    0.135873
    67  N   -0.268881
    68  C    0.046909
    69  C    0.171495
    70  N   -0.313036
 Sum of Mulliken charges =  -0.00000
 Mulliken charges with hydrogens summed into heavy atoms:
               1
     1  N   -0.312436
     2  C    0.264898
     3  C    0.039545
     4  N   -0.259680
     5  C    0.160056
     7  N   -0.294016
     8  C    0.148641
    10  N   -0.292447
    11  C    0.250553
    12  C    0.122702
    13  N    0.138503
    19  N   -0.312526
    20  C    0.246817
    21  C    0.262731
    22  N    0.128879
    25  N   -0.301802
    26  C    0.220985
    27  N   -0.015639
    29  C    0.164675
    30  O   -0.318450
    31  C    0.006638
    32  N   -0.224530
    33  C    0.155808
    42  C   -0.079740
    43  O   -0.263559
    44  C    0.162891
    46  N    0.009048
    47  O   -0.345741
    48  C    0.347589
    50  C    0.211572
    51  C    0.236842
    52  N   -0.287928
    58  N    0.175135
    59  C    0.079321
    60  C    0.224663
    61  N   -0.262829
    63  C    0.207045
    64  N   -0.302067
    66  C    0.170496
    67  N   -0.268881
    68  C    0.046909
    69  C    0.272366
    70  N   -0.313036
 Electronic spatial extent (au):  <R**2>=          22380.5907
 Charge=             -0.0000 electrons
 Dipole moment (field-independent basis, Debye):
    X=              8.8933    Y=              5.3228    Z=              2.0532  Tot=             10.5659
 Quadrupole moment (field-independent basis, Debye-Ang):
   XX=           -158.0610   YY=           -213.0213   ZZ=           -253.1933
   XY=             -3.8919   XZ=              2.9269   YZ=             -7.5646
 Traceless Quadrupole moment (field-independent basis, Debye-Ang):
   XX=             50.0309   YY=             -4.9294   ZZ=            -45.1014
   XY=             -3.8919   XZ=              2.9269   YZ=             -7.5646
 Octapole moment (field-independent basis, Debye-Ang**2):
  XXX=            -43.0910  YYY=            141.9591  ZZZ=             -0.7585  XYY=             93.3506
  XXY=            -38.3955  XXZ=            -39.9500  XZZ=             37.2583  YZZ=             29.1800
  YYZ=             38.1776  XYZ=             68.5719
 Hexadecapole moment (field-independent basis, Debye-Ang**3):
 XXXX=         -14169.1411 YYYY=          -6946.4232 ZZZZ=          -3645.7642 XXXY=            498.0389
 XXXZ=           -103.2074 YYYX=           -166.0167 YYYZ=            -96.1150 ZZZX=             22.7342
 ZZZY=             25.9311 XXYY=          -3293.8445 XXZZ=          -3622.3952 YYZZ=          -1786.9339
 XXYZ=             99.7009 YYXZ=            220.8927 ZZXY=             16.1541
 N-N= 5.470332426844D+03 E-N=-1.572156821033D+04  KE= 2.037739486333D+03
 No NMR shielding tensors so no spin-rotation constants.
 Leave Link  601 at Thu Jan 25 19:16:22 2018, MaxMem=  4294967296 cpu:              49.9 elap:               1.7
 (Enter /share/apps/g16/l9999.exe)
 1\1\GINC-COMPUTE-0-3\SP\RwB97XD\CC-pVDZ\C23H27N17O3\SATYA\25-Jan-2018\
 0\\#p wb97xd/cc-pvdz sp scf=(maxcycles=20)\\Base pair stacking\\0,1\N,
 0,6.54922,-0.16139,-6.47105\C,0,7.92123,0.37254,-6.57363\C,0,4.35888,-
 0.33791,-6.3785\N,0,4.85749,-1.62707,-6.25948\C,0,6.15713,-1.46913,-6.
 32\H,0,6.88372,-2.27987,-6.25909\N,0,2.898,1.50809,-6.52372\C,0,3.9920
 7,2.26764,-6.6407\H,0,3.80743,3.33575,-6.74702\N,0,5.27395,1.90756,-6.
 64602\C,0,5.38973,0.57624,-6.50964\C,0,3.04798,0.17236,-6.38803\N,0,1.
 95706,-0.58751,-6.27112\H,0,2.02074,-1.58081,-6.1686\H,0,1.03943,-0.19
 003,-6.28203\H,0,8.37797,-0.02862,-7.36775\H,0,7.88616,1.36611,-6.6771
 5\H,0,8.43313,0.14322,-5.74576\N,0,3.33408,4.28307,-3.26456\C,0,2.0677
 4,3.74974,-3.26328\C,0,3.65455,5.72134,-3.36129\N,0,-1.37617,4.1774,-3
 .39872\H,0,-2.19236,3.60056,-3.38065\H,0,-1.51973,5.16438,-3.47605\N,0
 ,0.91274,4.44442,-3.34948\C,0,-0.14409,3.65194,-3.32272\N,0,-0.07709,2
 .2836,-3.21948\H,0,-0.93727,1.7574,-3.20649\C,0,1.10034,1.54777,-3.129
 57\O,0,1.05062,0.31479,-3.03986\C,0,2.24422,2.38542,-3.15705\N,0,3.594
 18,2.0686,-3.09292\C,0,4.20078,3.22261,-3.16\H,0,5.28268,3.35769,-3.13
 738\H,0,4.21018,5.88672,-4.17537\H,0,2.80668,6.24597,-3.42565\H,0,4.16
 115,6.00705,-2.54855\H,0,-5.53392,-0.32095,-3.84208\H,0,-5.4871,-0.455
 17,-2.08582\H,0,-4.66541,0.88294,-2.88935\H,0,-2.68673,-4.16487,-3.327
 84\C,0,-2.62992,-3.07934,-3.2464\O,0,-0.25936,-3.01487,-3.30466\C,0,-1
 .34754,-2.44443,-3.23206\H,0,-0.50191,-0.58461,-3.11248\N,0,-1.38852,-
 1.06883,-3.12585\O,0,-2.44233,0.93463,-2.94466\C,0,-2.50706,-0.27871,-
 3.03565\H,0,-4.73788,-2.76959,-3.16654\C,0,-3.73893,-2.33554,-3.16\C,0
 ,-4.9285,-0.16186,-2.96218\N,0,-3.70575,-0.96423,-3.05609\H,0,-4.09007
 ,5.21414,-6.86174\H,0,-2.77172,5.17872,-5.90113\H,0,-4.26289,5.08523,-
 5.24405\H,0,-1.53617,-1.73184,-6.31721\H,0,-3.19607,-1.36714,-6.46493\
 N,0,-2.25861,-1.04065,-6.33931\C,0,-1.9851,0.25894,-6.20724\C,0,-2.525
 63,2.57275,-6.08142\N,0,-1.2573,2.98232,-5.91402\H,0,0.62586,2.18515,-
 5.77681\C,0,-0.42743,1.94108,-5.90822\N,0,-0.69942,0.63872,-6.04035\H,
 0,-5.73151,2.84154,-6.40123\C,0,-4.70372,2.48658,-6.32\N,0,-4.3429,1.2
 2812,-6.38132\C,0,-2.96427,1.26868,-6.23142\C,0,-3.69829,4.82576,-6.02
 768\N,0,-3.65476,3.35485,-6.13959\\Version=EM64L-G16RevA.03\State=1-A\
 HF=-2048.7389107\RMSD=6.944e-09\Dipole=-3.6689628,1.9450505,-0.1885936
 \Quadrupole=36.0777689,-4.1082117,-31.9695572,6.006311,-7.1285794,6.94
 85356\PG=C01 [X(C23H27N17O3)]\\@


 Sometimes the fool who rushes in gets the job done.
                                    -- Al Bernstein
 Job cpu time:       0 days  5 hours 55 minutes  2.8 seconds.
 Elapsed time:       0 days  0 hours 11 minutes 27.1 seconds.
 File lengths (MBytes):  RWF=    298 Int=      0 D2E=      0 Chk=     33 Scr=      1
 Normal termination of Gaussian 16 at Thu Jan 25 19:16:22 2018.
