 Entering Gaussian System, Link 0=g16
 Input=str55.-15.-2.5.com
 Output=str55.-15.-2.5.log
 Initial command:
 /share/apps/g16/l1.exe "/state/partition1/scr/Gau-29472.inp" -scrdir="/state/partition1/scr/"
 Entering Link 1 = /share/apps/g16/l1.exe PID=     29473.
  
 Copyright (c) 1988,1990,1992,1993,1995,1998,2003,2009,2016,
            Gaussian, Inc.  All Rights Reserved.
  
 This is part of the Gaussian(R) 16 program.  It is based on
 the Gaussian(R) 09 system (copyright 2009, Gaussian, Inc.),
 the Gaussian(R) 03 system (copyright 2003, Gaussian, Inc.),
 the Gaussian(R) 98 system (copyright 1998, Gaussian, Inc.),
 the Gaussian(R) 94 system (copyright 1995, Gaussian, Inc.),
 the Gaussian 92(TM) system (copyright 1992, Gaussian, Inc.),
 the Gaussian 90(TM) system (copyright 1990, Gaussian, Inc.),
 the Gaussian 88(TM) system (copyright 1988, Gaussian, Inc.),
 the Gaussian 86(TM) system (copyright 1986, Carnegie Mellon
 University), and the Gaussian 82(TM) system (copyright 1983,
 Carnegie Mellon University). Gaussian is a federally registered
 trademark of Gaussian, Inc.
  
 This software contains proprietary and confidential information,
 including trade secrets, belonging to Gaussian, Inc.
  
 This software is provided under written license and may be
 used, copied, transmitted, or stored only in accord with that
 written license.
  
 The following legend is applicable only to US Government
 contracts under FAR:
  
                    RESTRICTED RIGHTS LEGEND
  
 Use, reproduction and disclosure by the US Government is
 subject to restrictions as set forth in subparagraphs (a)
 and (c) of the Commercial Computer Software - Restricted
 Rights clause in FAR 52.227-19.
  
 Gaussian, Inc.
 340 Quinnipiac St., Bldg. 40, Wallingford CT 06492
  
  
 ---------------------------------------------------------------
 Warning -- This program may not be used in any manner that
 competes with the business of Gaussian, Inc. or will provide
 assistance to any competitor of Gaussian, Inc.  The licensee
 of this program is prohibited from giving any competitor of
 Gaussian, Inc. access to this program.  By using this program,
 the user acknowledges that Gaussian, Inc. is engaged in the
 business of creating and licensing software in the field of
 computational chemistry and represents and warrants to the
 licensee that it is not a competitor of Gaussian, Inc. and that
 it will not use this program in any manner prohibited above.
 ---------------------------------------------------------------
  

 Cite this work as:
 Gaussian 16, Revision A.03,
 M. J. Frisch, G. W. Trucks, H. B. Schlegel, G. E. Scuseria, 
 M. A. Robb, J. R. Cheeseman, G. Scalmani, V. Barone, 
 G. A. Petersson, H. Nakatsuji, X. Li, M. Caricato, A. V. Marenich, 
 J. Bloino, B. G. Janesko, R. Gomperts, B. Mennucci, H. P. Hratchian, 
 J. V. Ortiz, A. F. Izmaylov, J. L. Sonnenberg, D. Williams-Young, 
 F. Ding, F. Lipparini, F. Egidi, J. Goings, B. Peng, A. Petrone, 
 T. Henderson, D. Ranasinghe, V. G. Zakrzewski, J. Gao, N. Rega, 
 G. Zheng, W. Liang, M. Hada, M. Ehara, K. Toyota, R. Fukuda, 
 J. Hasegawa, M. Ishida, T. Nakajima, Y. Honda, O. Kitao, H. Nakai, 
 T. Vreven, K. Throssell, J. A. Montgomery, Jr., J. E. Peralta, 
 F. Ogliaro, M. J. Bearpark, J. J. Heyd, E. N. Brothers, K. N. Kudin, 
 V. N. Staroverov, T. A. Keith, R. Kobayashi, J. Normand, 
 K. Raghavachari, A. P. Rendell, J. C. Burant, S. S. Iyengar, 
 J. Tomasi, M. Cossi, J. M. Millam, M. Klene, C. Adamo, R. Cammi, 
 J. W. Ochterski, R. L. Martin, K. Morokuma, O. Farkas, 
 J. B. Foresman, and D. J. Fox, Gaussian, Inc., Wallingford CT, 2016.
 
 ******************************************
 Gaussian 16:  EM64L-G16RevA.03 25-Dec-2016
                26-Jan-2018 
 ******************************************
 %nprocshared=32
 Will use up to   32 processors via shared memory.
 %mem=32GB
 %chk=allatoms_t.chk
 ---------------------------------------
 #p wb97xd/cc-pvdz sp scf=(maxcycles=20)
 ---------------------------------------
 1/38=1,172=1/1;
 2/12=2,17=6,18=5,40=1/2;
 3/5=16,11=2,25=1,30=1,74=-58/1,2,3;
 4//1;
 5/5=2,7=20,38=5/2;
 6/7=2,8=2,9=2,10=2,28=1/1;
 99/5=1,9=1/99;
 Leave Link    1 at Fri Jan 26 06:36:36 2018, MaxMem=  4294967296 cpu:               2.7 elap:               0.1
 (Enter /share/apps/g16/l101.exe)
 ------------------
 Base pair stacking
 ------------------
 Symbolic Z-matrix:
 Charge =  0 Multiplicity = 1
 N                     7.81029   2.6649   -8.58052 
 C                     9.16066   3.20805  -8.82443 
 C                     5.68871   2.45913  -8.0384 
 N                     6.10436   1.20519  -8.46221 
 C                     7.36589   1.37935  -8.77186 
 H                     8.02564   0.59699  -9.14813 
 N                     4.37314   4.2434   -7.23306 
 C                     5.46685   5.00313  -7.35213 
 H                     5.34285   6.0455   -7.0617 
 N                     6.68503   4.67014  -7.77412 
 C                     6.72928   3.36918  -8.10573 
 C                     4.45015   2.93865  -7.57476 
 N                     3.35946   2.17865  -7.4566 
 H                     3.37058   1.20766  -7.69798 
 H                     2.49451   2.55374  -7.12295 
 H                     9.39797   3.09414  -9.78925 
 H                     9.17715   4.17973  -8.59059 
 H                     9.8257    2.71965  -8.25947 
 N                     3.80723   6.03999  -3.61339 
 C                     2.55836   5.50445  -3.40946 
 C                     4.127     7.48165  -3.62123 
 N                    -0.83265   5.93014  -2.79177 
 H                    -1.63825   5.35138  -2.66817 
 H                    -0.97124   6.91914  -2.73348 
 N                     1.42267   6.19967  -3.18379 
 C                     0.37944   5.40458  -3.02526 
 N                     0.44153   4.03333  -3.08295 
 H                    -0.40725   3.50528  -2.94993 
 C                     1.59918   3.29689  -3.31393 
 O                     1.54669   2.06121  -3.34663 
 C                     2.72829   4.13732  -3.48619 
 N                     4.0571    3.82094  -3.73332 
 C                     4.65789   4.97797  -3.80083 
 H                     5.72395   5.11424  -3.98583 
 H                     4.50796   7.73544  -4.50963 
 H                     3.29334   8.0067   -3.45508 
 H                     4.79362   7.68081  -2.90376 
 H                    -5.07348   1.4882   -2.84778 
 H                    -4.67219   1.16703  -1.16241 
 H                    -4.00762   2.58676  -1.97116 
 H                    -2.25063  -2.37707  -3.33542 
 C                    -2.15897  -1.30627  -3.15319 
 O                     0.15075  -1.2263   -3.6879 
 C                    -0.88939  -0.67133  -3.33448 
 H                    -0.00394   1.16844  -3.19472 
 N                    -0.88321   0.68483  -3.07752 
 O                    -1.84189   2.6531   -2.47418 
 C                    -1.94555   1.45621  -2.67758 
 H                    -4.20053  -1.0154   -2.61167 
 C                    -3.21358  -0.58049  -2.76378 
 C                    -4.29872   1.55469  -2.09852 
 N                    -3.13534   0.77195  -2.52468 
 H                    -2.22022   7.82506  -4.70686 
 H                    -0.72733   7.47884  -4.14695 
 H                    -2.03735   7.16729  -3.22452 
 H                    -0.1312    1.10041  -7.04795 
 H                    -1.75058   1.48695  -6.67606 
 N                    -0.78713   1.75712  -6.67563 
 C                    -0.39553   2.9408   -6.19947 
 C                    -0.72143   5.08042  -5.21075 
 N                     0.57909   5.41645  -5.22288 
 H                     2.3811    4.62618  -5.79633 
 C                     1.30989   4.43524  -5.7483 
 N                     0.91954   3.24897  -6.22576 
 H                    -3.88901   5.42736  -4.66467 
 C                    -2.89817   5.06955  -4.94598 
 N                    -2.65437   3.90374  -5.49291 
 C                    -1.27788   3.89779  -5.66602 
 C                    -1.68235   7.18404  -4.15934 
 N                    -1.77399   5.83326  -4.74671 
 
 ITRead=  0  0  0  0  0  0  0  0  0  0  0  0  0  0  0  0  0  0  0  0
 ITRead=  0  0  0  0  0  0  0  0  0  0  0  0  0  0  0  0  0  0  0  0
 ITRead=  0  0  0  0  0  0  0  0  0  0  0  0  0  0  0  0  0  0  0  0
 ITRead=  0  0  0  0  0  0  0  0  0  0
 MicOpt= -1 -1 -1 -1 -1 -1 -1 -1 -1 -1 -1 -1 -1 -1 -1 -1 -1 -1 -1 -1
 MicOpt= -1 -1 -1 -1 -1 -1 -1 -1 -1 -1 -1 -1 -1 -1 -1 -1 -1 -1 -1 -1
 MicOpt= -1 -1 -1 -1 -1 -1 -1 -1 -1 -1 -1 -1 -1 -1 -1 -1 -1 -1 -1 -1
 MicOpt= -1 -1 -1 -1 -1 -1 -1 -1 -1 -1
 NAtoms=     70 NQM=       70 NQMF=       0 NMMI=      0 NMMIF=      0
                NMic=       0 NMicF=      0.
                    Isotopes and Nuclear Properties:
 (Nuclear quadrupole moments (NQMom) in fm**2, nuclear magnetic moments (NMagM)
  in nuclear magnetons)

  Atom         1           2           3           4           5           6           7           8           9          10
 IAtWgt=          14          12          12          14          12           1          14          12           1          14
 AtmWgt=  14.0030740  12.0000000  12.0000000  14.0030740  12.0000000   1.0078250  14.0030740  12.0000000   1.0078250  14.0030740
 NucSpn=           2           0           0           2           0           1           2           0           1           2
 AtZEff=  -0.0000000  -0.0000000  -0.0000000  -0.0000000  -0.0000000  -0.0000000  -0.0000000  -0.0000000  -0.0000000  -0.0000000
 NQMom=    2.0440000   0.0000000   0.0000000   2.0440000   0.0000000   0.0000000   2.0440000   0.0000000   0.0000000   2.0440000
 NMagM=    0.4037610   0.0000000   0.0000000   0.4037610   0.0000000   2.7928460   0.4037610   0.0000000   2.7928460   0.4037610
 AtZNuc=   7.0000000   6.0000000   6.0000000   7.0000000   6.0000000   1.0000000   7.0000000   6.0000000   1.0000000   7.0000000

  Atom        11          12          13          14          15          16          17          18          19          20
 IAtWgt=          12          12          14           1           1           1           1           1          14          12
 AtmWgt=  12.0000000  12.0000000  14.0030740   1.0078250   1.0078250   1.0078250   1.0078250   1.0078250  14.0030740  12.0000000
 NucSpn=           0           0           2           1           1           1           1           1           2           0
 AtZEff=  -0.0000000  -0.0000000  -0.0000000  -0.0000000  -0.0000000  -0.0000000  -0.0000000  -0.0000000  -0.0000000  -0.0000000
 NQMom=    0.0000000   0.0000000   2.0440000   0.0000000   0.0000000   0.0000000   0.0000000   0.0000000   2.0440000   0.0000000
 NMagM=    0.0000000   0.0000000   0.4037610   2.7928460   2.7928460   2.7928460   2.7928460   2.7928460   0.4037610   0.0000000
 AtZNuc=   6.0000000   6.0000000   7.0000000   1.0000000   1.0000000   1.0000000   1.0000000   1.0000000   7.0000000   6.0000000

  Atom        21          22          23          24          25          26          27          28          29          30
 IAtWgt=          12          14           1           1          14          12          14           1          12          16
 AtmWgt=  12.0000000  14.0030740   1.0078250   1.0078250  14.0030740  12.0000000  14.0030740   1.0078250  12.0000000  15.9949146
 NucSpn=           0           2           1           1           2           0           2           1           0           0
 AtZEff=  -0.0000000  -0.0000000  -0.0000000  -0.0000000  -0.0000000  -0.0000000  -0.0000000  -0.0000000  -0.0000000  -0.0000000
 NQMom=    0.0000000   2.0440000   0.0000000   0.0000000   2.0440000   0.0000000   2.0440000   0.0000000   0.0000000   0.0000000
 NMagM=    0.0000000   0.4037610   2.7928460   2.7928460   0.4037610   0.0000000   0.4037610   2.7928460   0.0000000   0.0000000
 AtZNuc=   6.0000000   7.0000000   1.0000000   1.0000000   7.0000000   6.0000000   7.0000000   1.0000000   6.0000000   8.0000000

  Atom        31          32          33          34          35          36          37          38          39          40
 IAtWgt=          12          14          12           1           1           1           1           1           1           1
 AtmWgt=  12.0000000  14.0030740  12.0000000   1.0078250   1.0078250   1.0078250   1.0078250   1.0078250   1.0078250   1.0078250
 NucSpn=           0           2           0           1           1           1           1           1           1           1
 AtZEff=  -0.0000000  -0.0000000  -0.0000000  -0.0000000  -0.0000000  -0.0000000  -0.0000000  -0.0000000  -0.0000000  -0.0000000
 NQMom=    0.0000000   2.0440000   0.0000000   0.0000000   0.0000000   0.0000000   0.0000000   0.0000000   0.0000000   0.0000000
 NMagM=    0.0000000   0.4037610   0.0000000   2.7928460   2.7928460   2.7928460   2.7928460   2.7928460   2.7928460   2.7928460
 AtZNuc=   6.0000000   7.0000000   6.0000000   1.0000000   1.0000000   1.0000000   1.0000000   1.0000000   1.0000000   1.0000000

  Atom        41          42          43          44          45          46          47          48          49          50
 IAtWgt=           1          12          16          12           1          14          16          12           1          12
 AtmWgt=   1.0078250  12.0000000  15.9949146  12.0000000   1.0078250  14.0030740  15.9949146  12.0000000   1.0078250  12.0000000
 NucSpn=           1           0           0           0           1           2           0           0           1           0
 AtZEff=  -0.0000000  -0.0000000  -0.0000000  -0.0000000  -0.0000000  -0.0000000  -0.0000000  -0.0000000  -0.0000000  -0.0000000
 NQMom=    0.0000000   0.0000000   0.0000000   0.0000000   0.0000000   2.0440000   0.0000000   0.0000000   0.0000000   0.0000000
 NMagM=    2.7928460   0.0000000   0.0000000   0.0000000   2.7928460   0.4037610   0.0000000   0.0000000   2.7928460   0.0000000
 AtZNuc=   1.0000000   6.0000000   8.0000000   6.0000000   1.0000000   7.0000000   8.0000000   6.0000000   1.0000000   6.0000000

  Atom        51          52          53          54          55          56          57          58          59          60
 IAtWgt=          12          14           1           1           1           1           1          14          12          12
 AtmWgt=  12.0000000  14.0030740   1.0078250   1.0078250   1.0078250   1.0078250   1.0078250  14.0030740  12.0000000  12.0000000
 NucSpn=           0           2           1           1           1           1           1           2           0           0
 AtZEff=  -0.0000000  -0.0000000  -0.0000000  -0.0000000  -0.0000000  -0.0000000  -0.0000000  -0.0000000  -0.0000000  -0.0000000
 NQMom=    0.0000000   2.0440000   0.0000000   0.0000000   0.0000000   0.0000000   0.0000000   2.0440000   0.0000000   0.0000000
 NMagM=    0.0000000   0.4037610   2.7928460   2.7928460   2.7928460   2.7928460   2.7928460   0.4037610   0.0000000   0.0000000
 AtZNuc=   6.0000000   7.0000000   1.0000000   1.0000000   1.0000000   1.0000000   1.0000000   7.0000000   6.0000000   6.0000000

  Atom        61          62          63          64          65          66          67          68          69          70
 IAtWgt=          14           1          12          14           1          12          14          12          12          14
 AtmWgt=  14.0030740   1.0078250  12.0000000  14.0030740   1.0078250  12.0000000  14.0030740  12.0000000  12.0000000  14.0030740
 NucSpn=           2           1           0           2           1           0           2           0           0           2
 AtZEff=  -0.0000000  -0.0000000  -0.0000000  -0.0000000  -0.0000000  -0.0000000  -0.0000000  -0.0000000  -0.0000000  -0.0000000
 NQMom=    2.0440000   0.0000000   0.0000000   2.0440000   0.0000000   0.0000000   2.0440000   0.0000000   0.0000000   2.0440000
 NMagM=    0.4037610   2.7928460   0.0000000   0.4037610   2.7928460   0.0000000   0.4037610   0.0000000   0.0000000   0.4037610
 AtZNuc=   7.0000000   1.0000000   6.0000000   7.0000000   1.0000000   6.0000000   7.0000000   6.0000000   6.0000000   7.0000000
 Leave Link  101 at Fri Jan 26 06:36:36 2018, MaxMem=  4294967296 cpu:               6.5 elap:               0.2
 (Enter /share/apps/g16/l202.exe)
 Stoichiometry    C23H27N17O3
 Framework group  C1[X(C23H27N17O3)]
 Deg. of freedom   204
 Full point group                 C1      NOp   1
 Largest Abelian subgroup         C1      NOp   1
 Largest concise Abelian subgroup C1      NOp   1
                         Standard orientation:                         
 ---------------------------------------------------------------------
 Center     Atomic      Atomic             Coordinates (Angstroms)
 Number     Number       Type             X           Y           Z
 ---------------------------------------------------------------------
      1          7           0       -7.134504   -1.595464    0.153081
      2          6           0       -8.507376   -1.143461   -0.145110
      3          6           0       -4.982366   -1.639057    0.604454
      4          7           0       -5.394419   -2.962695    0.550235
      5          6           0       -6.674507   -2.883452    0.280478
      6          1           0       -7.337492   -3.741045    0.162485
      7          7           0       -3.661995    0.301804    0.833791
      8          6           0       -4.776298    0.997083    0.583822
      9          1           0       -4.658318    2.079829    0.582329
     10          7           0       -6.008686    0.557752    0.336581
     11          6           0       -6.043911   -0.784838    0.361673
     12          6           0       -3.730403   -1.047287    0.852105
     13          7           0       -2.619160   -1.743083    1.101447
     14          1           0       -2.623242   -2.743408    1.124776
     15          1           0       -1.745149   -1.288426    1.273333
     16          1           0       -9.129343   -1.470345    0.566559
     17          1           0       -8.531286   -0.144615   -0.174263
     18          1           0       -8.795651   -1.508079   -1.030516
     19          7           0       -1.775309    2.858017   -1.726714
     20          6           0       -0.511307    2.402841   -1.438300
     21          6           0       -2.229687    4.256886   -1.594786
     22          7           0        2.732410    3.014735   -0.358678
     23          1           0        3.571146    2.491785   -0.209424
     24          1           0        2.767609    3.994799   -0.161291
     25          7           0        0.519668    3.151012   -0.989547
     26          6           0        1.610389    2.428976   -0.803481
     27          7           0        1.687635    1.077535   -1.038319
     28          1           0        2.563143    0.606898   -0.868185
     29          6           0        0.639508    0.287593   -1.500130
     30          8           0        0.814211   -0.924051   -1.679369
     31          6           0       -0.538985    1.049298   -1.704689
     32          7           0       -1.795085    0.662501   -2.151352
     33          6           0       -2.493288    1.765554   -2.148228
     34          1           0       -3.540110    1.838687   -2.445033
     35          1           0       -2.988439    4.302854   -0.945958
     36          1           0       -1.474371    4.820552   -1.263050
     37          1           0       -2.531580    4.596393   -2.484958
     38          1           0        6.998057   -1.254141    0.781306
     39          1           0        7.417485   -1.205278   -0.929351
     40          1           0        6.306739   -0.009580   -0.260088
     41          1           0        4.713766   -5.182631   -0.798429
     42          6           0        4.588803   -4.099762   -0.798136
     43          8           0        2.286764   -4.180662   -1.364872
     44          6           0        3.304843   -3.543031   -1.097045
     45          1           0        2.365386   -1.733663   -1.275698
     46          7           0        3.255999   -2.163865   -1.069624
     47          8           0        4.148485   -0.094230   -0.791680
     48          6           0        4.289365   -1.304526   -0.791710
     49          1           0        6.612188   -3.660451   -0.289476
     50          6           0        5.615909   -3.287354   -0.523098
     51          6           0        6.629043   -1.039039   -0.210472
     52          7           0        5.495442   -1.917032   -0.513497
     53          1           0        2.909713    4.468548    2.294364
     54          1           0        1.865202    4.226572    1.064513
     55          1           0        3.473375    4.148494    0.796604
     56          1           0        0.794745   -2.642316    2.126601
     57          1           0        2.356454   -2.154483    2.609500
     58          7           0        1.467061   -1.908232    2.222759
     59          6           0        1.190899   -0.656237    1.852058
     60          6           0        1.669034    1.653597    1.539319
     61          7           0        0.466200    1.955256    1.022978
     62          1           0       -1.300250    1.026100    0.557215
     63          6           0       -0.302685    0.869707    0.965454
     64          7           0       -0.027909   -0.385123    1.336236
     65          1           0        4.691293    2.168938    2.565238
     66          6           0        3.726101    1.740336    2.293885
     67          7           0        3.402965    0.478787    2.441400
     68          6           0        2.101135    0.410182    1.966786
     69          6           0        2.744668    3.953521    1.453236
     70          7           0        2.723965    2.508724    1.753472
 ---------------------------------------------------------------------
 Rotational constants (GHZ):           0.1314058           0.0522337           0.0439329
 Leave Link  202 at Fri Jan 26 06:36:36 2018, MaxMem=  4294967296 cpu:               0.3 elap:               0.0
 (Enter /share/apps/g16/l301.exe)
 Standard basis: CC-pVDZ (5D, 7F)
 Ernie: Thresh=  0.10000D-02 Tol=  0.10000D-05 Strict=F.
 Ernie:  86 primitive shells out of 1081 were deleted.
 There are   780 symmetry adapted cartesian basis functions of A   symmetry.
 There are   737 symmetry adapted basis functions of A   symmetry.
   737 basis functions,  1608 primitive gaussians,   780 cartesian basis functions
   154 alpha electrons      154 beta electrons
       nuclear repulsion energy      5463.4218869796 Hartrees.
 IExCor= 4639 DFT=T Ex+Corr=wB97XD ExCW=0 ScaHFX=  1.000000
 ScaDFX=  1.000000  1.000000  1.000000  1.000000 ScalE2=  1.000000  1.000000
 IRadAn=      5 IRanWt=     -1 IRanGd=            0 ICorTp=0 IEmpDi=121
 HFx  wShort=  0.000000 wLong=  0.200000 cFull=  0.222036 cShort=  0.000000 cLong=  0.777964
 DFx  wShort=  0.000000 wLong=  0.200000 cFull=  0.000000 cShort=  0.000000 cLong=  1.000000
 NAtoms=   70 NActive=   70 NUniq=   70 SFac= 1.00D+00 NAtFMM=   60 NAOKFM=T Big=T
 Integral buffers will be    131072 words long.
 Raffenetti 2 integral format.
 Two-electron integral symmetry is turned on.
 R6Disp:  Grimme-D2 Dispersion energy=       -0.0681857874 Hartrees.
 Nuclear repulsion after empirical dispersion term =     5463.3537011922 Hartrees.
 Leave Link  301 at Fri Jan 26 06:36:36 2018, MaxMem=  4294967296 cpu:               2.1 elap:               0.1
 (Enter /share/apps/g16/l302.exe)
 NPDir=0 NMtPBC=     1 NCelOv=     1 NCel=       1 NClECP=     1 NCelD=      1
         NCelK=      1 NCelE2=     1 NClLst=     1 CellRange=     0.0.
 One-electron integrals computed using PRISM.
 One-electron integral symmetry used in STVInt
 NBasis=   737 RedAO= T EigKep=  6.55D-04  NBF=   737
 NBsUse=   737 1.00D-06 EigRej= -1.00D+00 NBFU=   737
 Precomputing XC quadrature grid using
 IXCGrd= 4 IRadAn=           5 IRanWt=          -1 IRanGd=           0 AccXCQ= 0.00D+00.
 Generated NRdTot=       0 NPtTot=           0 NUsed=           0 NTot=          32
 NSgBfM=   761   760   761   761   761 MxSgAt=    70 MxSgA2=    70.
 Leave Link  302 at Fri Jan 26 06:36:41 2018, MaxMem=  4294967296 cpu:             133.2 elap:               4.2
 (Enter /share/apps/g16/l303.exe)
 DipDrv:  MaxL=1.
 Leave Link  303 at Fri Jan 26 06:36:41 2018, MaxMem=  4294967296 cpu:              12.3 elap:               0.4
 (Enter /share/apps/g16/l401.exe)
 ExpMin= 1.22D-01 ExpMax= 1.17D+04 ExpMxC= 4.01D+02 IAcc=3 IRadAn=         5 AccDes= 0.00D+00
 Harris functional with IExCor= 4639 and IRadAn=       5 diagonalized for initial guess.
 HarFok:  IExCor= 4639 AccDes= 0.00D+00 IRadAn=         5 IDoV= 1 UseB2=F ITyADJ=14
 ICtDFT=  3500011 ScaDFX=  1.000000  1.000000  1.000000  1.000000
 FoFCou: FMM=F IPFlag=           0 FMFlag=      100000 FMFlg1=        2001
         NFxFlg=           0 DoJE=T BraDBF=F KetDBF=T FulRan=T
         wScrn=  0.000000 ICntrl=       500 IOpCl=  0 I1Cent=   200000004 NGrid=           0
         NMat0=    1 NMatS0=      1 NMatT0=    0 NMatD0=    1 NMtDS0=    0 NMtDT0=    0
 Petite list used in FoFCou.
 Harris En= -1963.65266740803    
 JPrj=0 DoOrth=F DoCkMO=F.
 Leave Link  401 at Fri Jan 26 06:36:53 2018, MaxMem=  4294967296 cpu:             392.5 elap:              12.3
 (Enter /share/apps/g16/l502.exe)
 Integral symmetry usage will be decided dynamically.
 Closed shell SCF:
 Using DIIS extrapolation, IDIIS=  1040.
 NGot=  4294967296 LenX=  4293717438 LenY=  4293108258
 Requested convergence on RMS density matrix=1.00D-08 within  20 cycles.
 Requested convergence on MAX density matrix=1.00D-06.
 Requested convergence on             energy=1.00D-06.
 No special actions if energy rises.
 Fock matrices will be formed incrementally for  20 cycles.
 Integral accuracy reduced to 1.0D-05 until final iterations.

 Cycle   1  Pass 0  IDiag  1:
 FoFJK:  IHMeth= 1 ICntrl=       0 DoSepK=T KAlg= 0 I1Cent=           0 FoldK=F
 IRaf=         1 NMat=       1 IRICut=       1 DoRegI=T DoRafI=F ISym2E= 0 IDoP0=0 IntGTp=1.
 FoFCou: FMM=T IPFlag=           0 FMFlag=      100000 FMFlg1=        2001
         NFxFlg=           0 DoJE=T BraDBF=F KetDBF=F FulRan=T
         wScrn=  0.000000 ICntrl=       500 IOpCl=  0 I1Cent=           0 NGrid=           0
         NMat0=    1 NMatS0=      1 NMatT0=    0 NMatD0=    1 NMtDS0=    0 NMtDT0=    0
 Symmetry not used in FoFCou.
 FMM levels:  10  Number of levels for PrismC:   9
 E= -2048.10663936532    
 DIIS: error= 2.57D-02 at cycle   1 NSaved=   1.
 NSaved= 1 IEnMin= 1 EnMin= -2048.10663936532     IErMin= 1 ErrMin= 2.57D-02
 ErrMax= 2.57D-02  0.00D+00 EMaxC= 1.00D-01 BMatC= 8.41D-01 BMatP= 8.41D-01
 IDIUse=3 WtCom= 7.43D-01 WtEn= 2.57D-01
 Coeff-Com:  0.100D+01
 Coeff-En:   0.100D+01
 Coeff:      0.100D+01
 Gap=     0.277 Goal=   None    Shift=    0.000
 GapD=    0.277 DampG=1.000 DampE=0.500 DampFc=0.5000 IDamp=-1.
 Damping current iteration by 5.00D-01
 RMSDP=1.66D-03 MaxDP=1.29D-01              OVMax= 2.10D-01

 Cycle   2  Pass 0  IDiag  1:
 RMSU=  8.28D-04    CP:  9.97D-01
 E= -2048.30600092907     Delta-E=       -0.199361563746 Rises=F Damp=T
 DIIS: error= 1.29D-02 at cycle   2 NSaved=   2.
 NSaved= 2 IEnMin= 2 EnMin= -2048.30600092907     IErMin= 2 ErrMin= 1.29D-02
 ErrMax= 1.29D-02  0.00D+00 EMaxC= 1.00D-01 BMatC= 1.47D-01 BMatP= 8.41D-01
 IDIUse=3 WtCom= 8.71D-01 WtEn= 1.29D-01
 Coeff-Com: -0.176D+00 0.118D+01
 Coeff-En:   0.000D+00 0.100D+01
 Coeff:     -0.153D+00 0.115D+01
 Gap=     0.355 Goal=   None    Shift=    0.000
 RMSDP=6.14D-04 MaxDP=3.22D-02 DE=-1.99D-01 OVMax= 1.58D-01

 Cycle   3  Pass 0  IDiag  1:
 RMSU=  6.07D-04    CP:  9.93D-01  1.10D+00
 E= -2048.49192796817     Delta-E=       -0.185927039109 Rises=F Damp=F
 DIIS: error= 8.65D-03 at cycle   3 NSaved=   3.
 NSaved= 3 IEnMin= 3 EnMin= -2048.49192796817     IErMin= 3 ErrMin= 8.65D-03
 ErrMax= 8.65D-03  0.00D+00 EMaxC= 1.00D-01 BMatC= 6.58D-02 BMatP= 1.47D-01
 IDIUse=3 WtCom= 9.14D-01 WtEn= 8.65D-02
 Coeff-Com: -0.227D+00 0.542D+00 0.684D+00
 Coeff-En:   0.000D+00 0.000D+00 0.100D+01
 Coeff:     -0.207D+00 0.496D+00 0.711D+00
 Gap=     0.277 Goal=   None    Shift=    0.000
 RMSDP=3.84D-04 MaxDP=3.25D-02 DE=-1.86D-01 OVMax= 6.62D-02

 Cycle   4  Pass 0  IDiag  1:
 RMSU=  2.18D-04    CP:  9.94D-01  1.40D+00  6.75D-01
 E= -2048.54100285592     Delta-E=       -0.049074887744 Rises=F Damp=F
 DIIS: error= 3.25D-03 at cycle   4 NSaved=   4.
 NSaved= 4 IEnMin= 4 EnMin= -2048.54100285592     IErMin= 4 ErrMin= 3.25D-03
 ErrMax= 3.25D-03  0.00D+00 EMaxC= 1.00D-01 BMatC= 1.05D-02 BMatP= 6.58D-02
 IDIUse=3 WtCom= 9.68D-01 WtEn= 3.25D-02
 Coeff-Com: -0.944D-01 0.183D+00 0.387D+00 0.524D+00
 Coeff-En:   0.000D+00 0.000D+00 0.896D-01 0.910D+00
 Coeff:     -0.913D-01 0.177D+00 0.378D+00 0.536D+00
 Gap=     0.276 Goal=   None    Shift=    0.000
 RMSDP=1.42D-04 MaxDP=1.16D-02 DE=-4.91D-02 OVMax= 1.70D-02

 Cycle   5  Pass 0  IDiag  1:
 RMSU=  6.64D-05    CP:  9.93D-01  1.36D+00  8.15D-01  6.04D-01
 E= -2048.54975273005     Delta-E=       -0.008749874131 Rises=F Damp=F
 DIIS: error= 5.88D-04 at cycle   5 NSaved=   5.
 NSaved= 5 IEnMin= 5 EnMin= -2048.54975273005     IErMin= 5 ErrMin= 5.88D-04
 ErrMax= 5.88D-04  0.00D+00 EMaxC= 1.00D-01 BMatC= 3.51D-04 BMatP= 1.05D-02
 IDIUse=3 WtCom= 9.94D-01 WtEn= 5.88D-03
 Coeff-Com: -0.253D-01 0.433D-01 0.129D+00 0.245D+00 0.608D+00
 Coeff-En:   0.000D+00 0.000D+00 0.000D+00 0.000D+00 0.100D+01
 Coeff:     -0.252D-01 0.430D-01 0.129D+00 0.244D+00 0.610D+00
 Gap=     0.277 Goal=   None    Shift=    0.000
 RMSDP=3.06D-05 MaxDP=2.09D-03 DE=-8.75D-03 OVMax= 5.00D-03

 Failed to achieve initial convergence to 1.0D-08 in  6 cycles.
 Switch to full accuracy anyway.
 Cycle   6  Pass 1  IDiag  1:
 E= -2048.55034145349     Delta-E=       -0.000588723438 Rises=F Damp=F
 DIIS: error= 2.58D-04 at cycle   1 NSaved=   1.
 NSaved= 1 IEnMin= 1 EnMin= -2048.55034145349     IErMin= 1 ErrMin= 2.58D-04
 ErrMax= 2.58D-04  0.00D+00 EMaxC= 1.00D-01 BMatC= 7.93D-05 BMatP= 7.93D-05
 IDIUse=3 WtCom= 9.97D-01 WtEn= 2.58D-03
 Coeff-Com:  0.100D+01
 Coeff-En:   0.100D+01
 Coeff:      0.100D+01
 Gap=     0.276 Goal=   None    Shift=    0.000
 RMSDP=3.06D-05 MaxDP=2.09D-03 DE=-5.89D-04 OVMax= 2.82D-03

 Cycle   7  Pass 1  IDiag  1:
 RMSU=  1.03D-04    CP:  1.00D+00
 E= -2048.55038910028     Delta-E=       -0.000047646788 Rises=F Damp=F
 DIIS: error= 1.83D-04 at cycle   2 NSaved=   2.
 NSaved= 2 IEnMin= 2 EnMin= -2048.55038910028     IErMin= 2 ErrMin= 1.83D-04
 ErrMax= 1.83D-04  0.00D+00 EMaxC= 1.00D-01 BMatC= 6.05D-05 BMatP= 7.93D-05
 IDIUse=3 WtCom= 9.98D-01 WtEn= 1.83D-03
 Coeff-Com:  0.456D+00 0.544D+00
 Coeff-En:   0.174D+00 0.826D+00
 Coeff:      0.455D+00 0.545D+00
 Gap=     0.277 Goal=   None    Shift=    0.000
 RMSDP=1.39D-05 MaxDP=1.20D-03 DE=-4.76D-05 OVMax= 2.27D-03

 Cycle   8  Pass 1  IDiag  1:
 RMSU=  1.38D-05    CP:  1.00D+00  1.01D+00
 E= -2048.55043702126     Delta-E=       -0.000047920981 Rises=F Damp=F
 DIIS: error= 6.95D-05 at cycle   3 NSaved=   3.
 NSaved= 3 IEnMin= 3 EnMin= -2048.55043702126     IErMin= 3 ErrMin= 6.95D-05
 ErrMax= 6.95D-05  0.00D+00 EMaxC= 1.00D-01 BMatC= 9.89D-06 BMatP= 6.05D-05
 IDIUse=1 WtCom= 1.00D+00 WtEn= 0.00D+00
 Coeff-Com: -0.179D-01 0.271D+00 0.747D+00
 Coeff:     -0.179D-01 0.271D+00 0.747D+00
 Gap=     0.277 Goal=   None    Shift=    0.000
 RMSDP=6.25D-06 MaxDP=3.50D-04 DE=-4.79D-05 OVMax= 8.52D-04

 Cycle   9  Pass 1  IDiag  1:
 RMSU=  4.39D-06    CP:  1.00D+00  1.05D+00  7.98D-01
 E= -2048.55044739739     Delta-E=       -0.000010376135 Rises=F Damp=F
 DIIS: error= 4.57D-05 at cycle   4 NSaved=   4.
 NSaved= 4 IEnMin= 4 EnMin= -2048.55044739739     IErMin= 4 ErrMin= 4.57D-05
 ErrMax= 4.57D-05  0.00D+00 EMaxC= 1.00D-01 BMatC= 6.92D-07 BMatP= 9.89D-06
 IDIUse=1 WtCom= 1.00D+00 WtEn= 0.00D+00
 Coeff-Com: -0.378D-01 0.747D-01 0.295D+00 0.669D+00
 Coeff:     -0.378D-01 0.747D-01 0.295D+00 0.669D+00
 Gap=     0.277 Goal=   None    Shift=    0.000
 RMSDP=1.76D-06 MaxDP=1.21D-04 DE=-1.04D-05 OVMax= 4.02D-04

 Cycle  10  Pass 1  IDiag  1:
 RMSU=  1.53D-06    CP:  1.00D+00  1.05D+00  8.38D-01  1.12D+00
 E= -2048.55044854956     Delta-E=       -0.000001152167 Rises=F Damp=F
 DIIS: error= 1.58D-05 at cycle   5 NSaved=   5.
 NSaved= 5 IEnMin= 5 EnMin= -2048.55044854956     IErMin= 5 ErrMin= 1.58D-05
 ErrMax= 1.58D-05  0.00D+00 EMaxC= 1.00D-01 BMatC= 1.42D-07 BMatP= 6.92D-07
 IDIUse=1 WtCom= 1.00D+00 WtEn= 0.00D+00
 Coeff-Com: -0.555D-02-0.469D-01-0.121D+00 0.192D+00 0.981D+00
 Coeff:     -0.555D-02-0.469D-01-0.121D+00 0.192D+00 0.981D+00
 Gap=     0.277 Goal=   None    Shift=    0.000
 RMSDP=1.43D-06 MaxDP=7.62D-05 DE=-1.15D-06 OVMax= 2.80D-04

 Cycle  11  Pass 1  IDiag  1:
 RMSU=  5.60D-07    CP:  1.00D+00  1.05D+00  8.47D-01  1.41D+00  1.21D+00
 E= -2048.55044889567     Delta-E=       -0.000000346115 Rises=F Damp=F
 DIIS: error= 1.04D-05 at cycle   6 NSaved=   6.
 NSaved= 6 IEnMin= 6 EnMin= -2048.55044889567     IErMin= 6 ErrMin= 1.04D-05
 ErrMax= 1.04D-05  0.00D+00 EMaxC= 1.00D-01 BMatC= 4.02D-08 BMatP= 1.42D-07
 IDIUse=1 WtCom= 1.00D+00 WtEn= 0.00D+00
 Coeff-Com:  0.503D-02-0.394D-01-0.125D+00-0.128D-01 0.540D+00 0.633D+00
 Coeff:      0.503D-02-0.394D-01-0.125D+00-0.128D-01 0.540D+00 0.633D+00
 Gap=     0.277 Goal=   None    Shift=    0.000
 RMSDP=4.76D-07 MaxDP=3.14D-05 DE=-3.46D-07 OVMax= 1.01D-04

 Cycle  12  Pass 1  IDiag  1:
 RMSU=  2.24D-07    CP:  1.00D+00  1.05D+00  8.50D-01  1.49D+00  1.35D+00
                    CP:  9.15D-01
 E= -2048.55044895291     Delta-E=       -0.000000057239 Rises=F Damp=F
 DIIS: error= 1.36D-06 at cycle   7 NSaved=   7.
 NSaved= 7 IEnMin= 7 EnMin= -2048.55044895291     IErMin= 7 ErrMin= 1.36D-06
 ErrMax= 1.36D-06  0.00D+00 EMaxC= 1.00D-01 BMatC= 1.03D-09 BMatP= 4.02D-08
 IDIUse=1 WtCom= 1.00D+00 WtEn= 0.00D+00
 Coeff-Com:  0.138D-02-0.727D-02-0.253D-01-0.111D-01 0.786D-01 0.142D+00
 Coeff-Com:  0.822D+00
 Coeff:      0.138D-02-0.727D-02-0.253D-01-0.111D-01 0.786D-01 0.142D+00
 Coeff:      0.822D+00
 Gap=     0.277 Goal=   None    Shift=    0.000
 RMSDP=1.06D-07 MaxDP=6.42D-06 DE=-5.72D-08 OVMax= 2.65D-05

 Cycle  13  Pass 1  IDiag  1:
 RMSU=  6.52D-08    CP:  1.00D+00  1.05D+00  8.49D-01  1.50D+00  1.37D+00
                    CP:  1.01D+00  1.15D+00
 E= -2048.55044895599     Delta-E=       -0.000000003077 Rises=F Damp=F
 DIIS: error= 8.65D-07 at cycle   8 NSaved=   8.
 NSaved= 8 IEnMin= 8 EnMin= -2048.55044895599     IErMin= 8 ErrMin= 8.65D-07
 ErrMax= 8.65D-07  0.00D+00 EMaxC= 1.00D-01 BMatC= 5.19D-10 BMatP= 1.03D-09
 IDIUse=1 WtCom= 1.00D+00 WtEn= 0.00D+00
 Coeff-Com: -0.772D-03 0.801D-02 0.239D-01-0.853D-03-0.118D+00-0.120D+00
 Coeff-Com:  0.417D+00 0.791D+00
 Coeff:     -0.772D-03 0.801D-02 0.239D-01-0.853D-03-0.118D+00-0.120D+00
 Coeff:      0.417D+00 0.791D+00
 Gap=     0.277 Goal=   None    Shift=    0.000
 RMSDP=6.95D-08 MaxDP=3.58D-06 DE=-3.08D-09 OVMax= 1.62D-05

 Cycle  14  Pass 1  IDiag  1:
 RMSU=  3.55D-08    CP:  1.00D+00  1.05D+00  8.49D-01  1.51D+00  1.38D+00
                    CP:  1.06D+00  1.34D+00  1.10D+00
 E= -2048.55044895702     Delta-E=       -0.000000001028 Rises=F Damp=F
 DIIS: error= 3.03D-07 at cycle   9 NSaved=   9.
 NSaved= 9 IEnMin= 9 EnMin= -2048.55044895702     IErMin= 9 ErrMin= 3.03D-07
 ErrMax= 3.03D-07  0.00D+00 EMaxC= 1.00D-01 BMatC= 6.16D-11 BMatP= 5.19D-10
 IDIUse=1 WtCom= 1.00D+00 WtEn= 0.00D+00
 Coeff-Com: -0.541D-03 0.480D-02 0.146D-01 0.132D-02-0.644D-01-0.748D-01
 Coeff-Com:  0.108D+00 0.362D+00 0.649D+00
 Coeff:     -0.541D-03 0.480D-02 0.146D-01 0.132D-02-0.644D-01-0.748D-01
 Coeff:      0.108D+00 0.362D+00 0.649D+00
 Gap=     0.277 Goal=   None    Shift=    0.000
 RMSDP=1.83D-08 MaxDP=1.06D-06 DE=-1.03D-09 OVMax= 3.31D-06

 Cycle  15  Pass 1  IDiag  1:
 RMSU=  1.17D-08    CP:  1.00D+00  1.05D+00  8.49D-01  1.51D+00  1.39D+00
                    CP:  1.06D+00  1.37D+00  1.26D+00  1.10D+00
 E= -2048.55044895728     Delta-E=       -0.000000000260 Rises=F Damp=F
 DIIS: error= 1.36D-07 at cycle  10 NSaved=  10.
 NSaved=10 IEnMin=10 EnMin= -2048.55044895728     IErMin=10 ErrMin= 1.36D-07
 ErrMax= 1.36D-07  0.00D+00 EMaxC= 1.00D-01 BMatC= 7.79D-12 BMatP= 6.16D-11
 IDIUse=1 WtCom= 1.00D+00 WtEn= 0.00D+00
 Coeff-Com: -0.159D-04-0.119D-03-0.337D-03 0.212D-03 0.354D-02-0.215D-03
 Coeff-Com: -0.534D-01-0.500D-01 0.215D+00 0.886D+00
 Coeff:     -0.159D-04-0.119D-03-0.337D-03 0.212D-03 0.354D-02-0.215D-03
 Coeff:     -0.534D-01-0.500D-01 0.215D+00 0.886D+00
 Gap=     0.277 Goal=   None    Shift=    0.000
 RMSDP=1.06D-08 MaxDP=5.48D-07 DE=-2.60D-10 OVMax= 2.78D-06

 Cycle  16  Pass 1  IDiag  1:
 RMSU=  4.55D-09    CP:  1.00D+00  1.05D+00  8.49D-01  1.51D+00  1.39D+00
                    CP:  1.07D+00  1.39D+00  1.33D+00  1.27D+00  1.10D+00
 E= -2048.55044895705     Delta-E=        0.000000000224 Rises=F Damp=F
 DIIS: error= 6.64D-08 at cycle  11 NSaved=  11.
 NSaved=11 IEnMin=10 EnMin= -2048.55044895728     IErMin=11 ErrMin= 6.64D-08
 ErrMax= 6.64D-08  0.00D+00 EMaxC= 1.00D-01 BMatC= 1.90D-12 BMatP= 7.79D-12
 IDIUse=1 WtCom= 1.00D+00 WtEn= 0.00D+00
 Coeff-Com:  0.676D-04-0.708D-03-0.217D-02-0.964D-04 0.107D-01 0.104D-01
 Coeff-Com: -0.395D-01-0.711D-01-0.549D-02 0.411D+00 0.687D+00
 Coeff:      0.676D-04-0.708D-03-0.217D-02-0.964D-04 0.107D-01 0.104D-01
 Coeff:     -0.395D-01-0.711D-01-0.549D-02 0.411D+00 0.687D+00
 Gap=     0.277 Goal=   None    Shift=    0.000
 RMSDP=3.37D-09 MaxDP=1.89D-07 DE= 2.24D-10 OVMax= 6.76D-07

 SCF Done:  E(RwB97XD) =  -2048.55044896     A.U. after   16 cycles
            NFock= 16  Conv=0.34D-08     -V/T= 2.0048
 KE= 2.038703108904D+03 PE=-1.570767436138D+04 EE= 6.157067102325D+03
 Leave Link  502 at Fri Jan 26 06:49:01 2018, MaxMem=  4294967296 cpu:           22483.1 elap:             727.9
 (Enter /share/apps/g16/l601.exe)
 Copying SCF densities to generalized density rwf, IOpCl= 0 IROHF=0.

 **********************************************************************

            Population analysis using the SCF density.

 **********************************************************************

 Orbital symmetries:
       Occupied  (A) (A) (A) (A) (A) (A) (A) (A) (A) (A) (A) (A)
                 (A) (A) (A) (A) (A) (A) (A) (A) (A) (A) (A) (A)
                 (A) (A) (A) (A) (A) (A) (A) (A) (A) (A) (A) (A)
                 (A) (A) (A) (A) (A) (A) (A) (A) (A) (A) (A) (A)
                 (A) (A) (A) (A) (A) (A) (A) (A) (A) (A) (A) (A)
                 (A) (A) (A) (A) (A) (A) (A) (A) (A) (A) (A) (A)
                 (A) (A) (A) (A) (A) (A) (A) (A) (A) (A) (A) (A)
                 (A) (A) (A) (A) (A) (A) (A) (A) (A) (A) (A) (A)
                 (A) (A) (A) (A) (A) (A) (A) (A) (A) (A) (A) (A)
                 (A) (A) (A) (A) (A) (A) (A) (A) (A) (A) (A) (A)
                 (A) (A) (A) (A) (A) (A) (A) (A) (A) (A) (A) (A)
                 (A) (A) (A) (A) (A) (A) (A) (A) (A) (A) (A) (A)
                 (A) (A) (A) (A) (A) (A) (A) (A) (A) (A)
       Virtual   (A) (A) (A) (A) (A) (A) (A) (A) (A) (A) (A) (A)
                 (A) (A) (A) (A) (A) (A) (A) (A) (A) (A) (A) (A)
                 (A) (A) (A) (A) (A) (A) (A) (A) (A) (A) (A) (A)
                 (A) (A) (A) (A) (A) (A) (A) (A) (A) (A) (A) (A)
                 (A) (A) (A) (A) (A) (A) (A) (A) (A) (A) (A) (A)
                 (A) (A) (A) (A) (A) (A) (A) (A) (A) (A) (A) (A)
                 (A) (A) (A) (A) (A) (A) (A) (A) (A) (A) (A) (A)
                 (A) (A) (A) (A) (A) (A) (A) (A) (A) (A) (A) (A)
                 (A) (A) (A) (A) (A) (A) (A) (A) (A) (A) (A) (A)
                 (A) (A) (A) (A) (A) (A) (A) (A) (A) (A) (A) (A)
                 (A) (A) (A) (A) (A) (A) (A) (A) (A) (A) (A) (A)
                 (A) (A) (A) (A) (A) (A) (A) (A) (A) (A) (A) (A)
                 (A) (A) (A) (A) (A) (A) (A) (A) (A) (A) (A) (A)
                 (A) (A) (A) (A) (A) (A) (A) (A) (A) (A) (A) (A)
                 (A) (A) (A) (A) (A) (A) (A) (A) (A) (A) (A) (A)
                 (A) (A) (A) (A) (A) (A) (A) (A) (A) (A) (A) (A)
                 (A) (A) (A) (A) (A) (A) (A) (A) (A) (A) (A) (A)
                 (A) (A) (A) (A) (A) (A) (A) (A) (A) (A) (A) (A)
                 (A) (A) (A) (A) (A) (A) (A) (A) (A) (A) (A) (A)
                 (A) (A) (A) (A) (A) (A) (A) (A) (A) (A) (A) (A)
                 (A) (A) (A) (A) (A) (A) (A) (A) (A) (A) (A) (A)
                 (A) (A) (A) (A) (A) (A) (A) (A) (A) (A) (A) (A)
                 (A) (A) (A) (A) (A) (A) (A) (A) (A) (A) (A) (A)
                 (A) (A) (A) (A) (A) (A) (A) (A) (A) (A) (A) (A)
                 (A) (A) (A) (A) (A) (A) (A) (A) (A) (A) (A) (A)
                 (A) (A) (A) (A) (A) (A) (A) (A) (A) (A) (A) (A)
                 (A) (A) (A) (A) (A) (A) (A) (A) (A) (A) (A) (A)
                 (A) (A) (A) (A) (A) (A) (A) (A) (A) (A) (A) (A)
                 (A) (A) (A) (A) (A) (A) (A) (A) (A) (A) (A) (A)
                 (A) (A) (A) (A) (A) (A) (A) (A) (A) (A) (A) (A)
                 (A) (A) (A) (A) (A) (A) (A) (A) (A) (A) (A) (A)
                 (A) (A) (A) (A) (A) (A) (A) (A) (A) (A) (A) (A)
                 (A) (A) (A) (A) (A) (A) (A) (A) (A) (A) (A) (A)
                 (A) (A) (A) (A) (A) (A) (A) (A) (A) (A) (A) (A)
                 (A) (A) (A) (A) (A) (A) (A) (A) (A) (A) (A) (A)
                 (A) (A) (A) (A) (A) (A) (A) (A) (A) (A) (A) (A)
                 (A) (A) (A) (A) (A) (A) (A) (A) (A) (A) (A) (A)
                 (A) (A) (A) (A) (A) (A) (A) (A) (A) (A) (A) (A)
                 (A) (A) (A) (A) (A) (A) (A) (A) (A) (A) (A) (A)
                 (A) (A) (A) (A) (A) (A) (A) (A) (A) (A) (A) (A)
                 (A) (A) (A) (A) (A) (A) (A) (A) (A) (A) (A) (A)
                 (A) (A) (A) (A) (A) (A) (A) (A) (A) (A) (A) (A)
                 (A) (A) (A) (A) (A) (A) (A) (A) (A) (A) (A) (A)
                 (A) (A) (A) (A) (A) (A) (A) (A) (A) (A) (A) (A)
                 (A) (A) (A) (A) (A) (A) (A) (A) (A) (A) (A) (A)
                 (A) (A) (A) (A) (A) (A) (A) (A) (A) (A) (A) (A)
                 (A) (A) (A) (A) (A) (A) (A) (A) (A) (A) (A) (A)
                 (A) (A) (A) (A) (A) (A) (A) (A) (A) (A) (A) (A)
                 (A) (A) (A) (A) (A) (A) (A)
 The electronic state is 1-A.
 Alpha  occ. eigenvalues --  -19.25921 -19.22016 -19.20702 -14.52509 -14.51695
 Alpha  occ. eigenvalues --  -14.49182 -14.49022 -14.47960 -14.47133 -14.46503
 Alpha  occ. eigenvalues --  -14.45638 -14.44413 -14.42978 -14.42662 -14.42233
 Alpha  occ. eigenvalues --  -14.41896 -14.41832 -14.41350 -14.41012 -14.40579
 Alpha  occ. eigenvalues --  -10.45560 -10.41135 -10.40146 -10.38781 -10.38350
 Alpha  occ. eigenvalues --  -10.37852 -10.37032 -10.35942 -10.35874 -10.35356
 Alpha  occ. eigenvalues --  -10.34546 -10.34392 -10.34256 -10.34237 -10.33819
 Alpha  occ. eigenvalues --  -10.33654 -10.33556 -10.31565 -10.31237 -10.31158
 Alpha  occ. eigenvalues --  -10.31097 -10.29021 -10.28575  -1.19500  -1.15903
 Alpha  occ. eigenvalues --   -1.13252  -1.13045  -1.11790  -1.10837  -1.09604
 Alpha  occ. eigenvalues --   -1.09388  -1.08335  -1.05431  -1.03997  -1.03317
 Alpha  occ. eigenvalues --   -1.02557  -1.00892  -0.98820  -0.98701  -0.97395
 Alpha  occ. eigenvalues --   -0.96873  -0.95764  -0.93080  -0.91114  -0.88897
 Alpha  occ. eigenvalues --   -0.86049  -0.84360  -0.84261  -0.83746  -0.82753
 Alpha  occ. eigenvalues --   -0.82705  -0.78953  -0.76324  -0.75231  -0.74846
 Alpha  occ. eigenvalues --   -0.73958  -0.73439  -0.73355  -0.71512  -0.70247
 Alpha  occ. eigenvalues --   -0.68323  -0.66990  -0.66745  -0.66507  -0.65200
 Alpha  occ. eigenvalues --   -0.64604  -0.64072  -0.63576  -0.63137  -0.62947
 Alpha  occ. eigenvalues --   -0.60901  -0.60568  -0.60043  -0.59695  -0.59586
 Alpha  occ. eigenvalues --   -0.59384  -0.58745  -0.57010  -0.56741  -0.56704
 Alpha  occ. eigenvalues --   -0.56124  -0.55821  -0.55475  -0.54583  -0.54051
 Alpha  occ. eigenvalues --   -0.53761  -0.53434  -0.53259  -0.52998  -0.52517
 Alpha  occ. eigenvalues --   -0.52366  -0.52087  -0.51398  -0.51131  -0.50592
 Alpha  occ. eigenvalues --   -0.50305  -0.49529  -0.49510  -0.49028  -0.48887
 Alpha  occ. eigenvalues --   -0.48505  -0.48323  -0.47758  -0.47482  -0.47364
 Alpha  occ. eigenvalues --   -0.47112  -0.45562  -0.45514  -0.44046  -0.42232
 Alpha  occ. eigenvalues --   -0.41634  -0.40006  -0.39550  -0.38225  -0.37625
 Alpha  occ. eigenvalues --   -0.37442  -0.36712  -0.35985  -0.35589  -0.34636
 Alpha  occ. eigenvalues --   -0.33986  -0.33911  -0.33321  -0.33201  -0.32811
 Alpha  occ. eigenvalues --   -0.32110  -0.32043  -0.31991  -0.31672  -0.31331
 Alpha  occ. eigenvalues --   -0.30790  -0.28408  -0.26253  -0.24638
 Alpha virt. eigenvalues --    0.03068   0.04520   0.06866   0.07501   0.08350
 Alpha virt. eigenvalues --    0.08750   0.10448   0.10496   0.10968   0.12593
 Alpha virt. eigenvalues --    0.13260   0.13670   0.14055   0.14320   0.14982
 Alpha virt. eigenvalues --    0.15271   0.15946   0.16640   0.17361   0.18045
 Alpha virt. eigenvalues --    0.18794   0.19236   0.19668   0.19678   0.20271
 Alpha virt. eigenvalues --    0.20392   0.20715   0.20918   0.21289   0.21918
 Alpha virt. eigenvalues --    0.22423   0.23226   0.23403   0.23610   0.23788
 Alpha virt. eigenvalues --    0.24213   0.24341   0.24396   0.25437   0.25839
 Alpha virt. eigenvalues --    0.26157   0.26788   0.27762   0.27831   0.28359
 Alpha virt. eigenvalues --    0.28866   0.29559   0.29620   0.30586   0.30988
 Alpha virt. eigenvalues --    0.31328   0.31469   0.32989   0.33139   0.33838
 Alpha virt. eigenvalues --    0.34378   0.34813   0.35497   0.36230   0.36815
 Alpha virt. eigenvalues --    0.37302   0.37847   0.38308   0.39457   0.39806
 Alpha virt. eigenvalues --    0.40232   0.40687   0.40839   0.41361   0.41891
 Alpha virt. eigenvalues --    0.42521   0.42607   0.43774   0.44005   0.44511
 Alpha virt. eigenvalues --    0.45370   0.45510   0.45596   0.46591   0.46923
 Alpha virt. eigenvalues --    0.47808   0.48136   0.48904   0.49196   0.49545
 Alpha virt. eigenvalues --    0.49907   0.50439   0.50949   0.51288   0.51469
 Alpha virt. eigenvalues --    0.52343   0.52448   0.53070   0.53647   0.53867
 Alpha virt. eigenvalues --    0.54130   0.54334   0.54860   0.55481   0.55731
 Alpha virt. eigenvalues --    0.56232   0.56745   0.57235   0.57591   0.58040
 Alpha virt. eigenvalues --    0.58590   0.58760   0.59162   0.59501   0.59610
 Alpha virt. eigenvalues --    0.60137   0.60358   0.61031   0.61346   0.61503
 Alpha virt. eigenvalues --    0.61943   0.62323   0.62437   0.63727   0.63828
 Alpha virt. eigenvalues --    0.63915   0.64551   0.64844   0.65428   0.65815
 Alpha virt. eigenvalues --    0.65993   0.66743   0.66835   0.67052   0.67483
 Alpha virt. eigenvalues --    0.67790   0.68254   0.68488   0.68685   0.68883
 Alpha virt. eigenvalues --    0.69405   0.69636   0.70298   0.70724   0.70994
 Alpha virt. eigenvalues --    0.71873   0.72142   0.72947   0.73282   0.73707
 Alpha virt. eigenvalues --    0.74205   0.74510   0.75053   0.75173   0.75522
 Alpha virt. eigenvalues --    0.75736   0.76116   0.76416   0.76713   0.76998
 Alpha virt. eigenvalues --    0.77196   0.77646   0.77988   0.78590   0.78877
 Alpha virt. eigenvalues --    0.79287   0.79540   0.79950   0.80410   0.80838
 Alpha virt. eigenvalues --    0.81314   0.82128   0.82304   0.82572   0.83261
 Alpha virt. eigenvalues --    0.83499   0.83968   0.84495   0.84781   0.84994
 Alpha virt. eigenvalues --    0.85262   0.86072   0.86498   0.86692   0.87763
 Alpha virt. eigenvalues --    0.87906   0.88937   0.89275   0.89754   0.90038
 Alpha virt. eigenvalues --    0.90205   0.90900   0.91143   0.91186   0.92122
 Alpha virt. eigenvalues --    0.92508   0.92992   0.93873   0.93936   0.94981
 Alpha virt. eigenvalues --    0.95010   0.95343   0.95579   0.95912   0.96416
 Alpha virt. eigenvalues --    0.96723   0.97218   0.97460   0.98400   0.98877
 Alpha virt. eigenvalues --    0.99303   1.00127   1.00379   1.01346   1.01578
 Alpha virt. eigenvalues --    1.01853   1.02479   1.02687   1.03330   1.03611
 Alpha virt. eigenvalues --    1.04412   1.04805   1.05415   1.05694   1.06278
 Alpha virt. eigenvalues --    1.06807   1.07608   1.08334   1.08554   1.08765
 Alpha virt. eigenvalues --    1.09680   1.09876   1.10813   1.11047   1.11914
 Alpha virt. eigenvalues --    1.12293   1.12582   1.13370   1.13793   1.14217
 Alpha virt. eigenvalues --    1.14531   1.14818   1.15590   1.15911   1.16357
 Alpha virt. eigenvalues --    1.16935   1.17252   1.17578   1.18248   1.18649
 Alpha virt. eigenvalues --    1.18799   1.19098   1.19750   1.19937   1.20445
 Alpha virt. eigenvalues --    1.20897   1.21448   1.21661   1.22254   1.22340
 Alpha virt. eigenvalues --    1.22592   1.22671   1.23261   1.23474   1.24326
 Alpha virt. eigenvalues --    1.24637   1.25229   1.25461   1.26940   1.27536
 Alpha virt. eigenvalues --    1.27657   1.27961   1.28674   1.29301   1.30255
 Alpha virt. eigenvalues --    1.30719   1.31293   1.31419   1.32625   1.33132
 Alpha virt. eigenvalues --    1.33564   1.34154   1.34453   1.35339   1.35933
 Alpha virt. eigenvalues --    1.36657   1.37414   1.38016   1.38472   1.39026
 Alpha virt. eigenvalues --    1.39572   1.40539   1.41787   1.42600   1.43686
 Alpha virt. eigenvalues --    1.44107   1.44204   1.45056   1.45679   1.46731
 Alpha virt. eigenvalues --    1.47139   1.47437   1.48039   1.48632   1.48774
 Alpha virt. eigenvalues --    1.48882   1.50371   1.50817   1.51245   1.51719
 Alpha virt. eigenvalues --    1.52790   1.53748   1.55414   1.55853   1.55927
 Alpha virt. eigenvalues --    1.56089   1.57670   1.58800   1.58863   1.59435
 Alpha virt. eigenvalues --    1.59689   1.60186   1.60672   1.61385   1.62030
 Alpha virt. eigenvalues --    1.62391   1.62570   1.63406   1.63772   1.64784
 Alpha virt. eigenvalues --    1.65475   1.66324   1.66655   1.66918   1.67516
 Alpha virt. eigenvalues --    1.67680   1.68141   1.68494   1.68691   1.69005
 Alpha virt. eigenvalues --    1.69172   1.70121   1.70550   1.70940   1.71045
 Alpha virt. eigenvalues --    1.72162   1.72291   1.72810   1.73007   1.73585
 Alpha virt. eigenvalues --    1.73947   1.74651   1.74839   1.75530   1.75717
 Alpha virt. eigenvalues --    1.76256   1.76353   1.76490   1.77286   1.77903
 Alpha virt. eigenvalues --    1.78653   1.78865   1.79193   1.79663   1.79750
 Alpha virt. eigenvalues --    1.79974   1.80168   1.80543   1.80665   1.81444
 Alpha virt. eigenvalues --    1.82120   1.82453   1.82756   1.83285   1.83668
 Alpha virt. eigenvalues --    1.83976   1.84687   1.85649   1.86336   1.86600
 Alpha virt. eigenvalues --    1.87259   1.87542   1.87957   1.88122   1.88223
 Alpha virt. eigenvalues --    1.88641   1.88885   1.89835   1.90003   1.90503
 Alpha virt. eigenvalues --    1.90934   1.91637   1.92141   1.92826   1.93407
 Alpha virt. eigenvalues --    1.94065   1.94245   1.94667   1.95307   1.96239
 Alpha virt. eigenvalues --    1.97444   1.97940   1.98146   1.98502   1.99322
 Alpha virt. eigenvalues --    1.99612   2.00882   2.01625   2.01691   2.02957
 Alpha virt. eigenvalues --    2.03020   2.04087   2.05071   2.05271   2.06245
 Alpha virt. eigenvalues --    2.06738   2.07232   2.07731   2.08340   2.08428
 Alpha virt. eigenvalues --    2.08949   2.09879   2.10111   2.10337   2.11480
 Alpha virt. eigenvalues --    2.12522   2.12975   2.13722   2.14016   2.15348
 Alpha virt. eigenvalues --    2.16643   2.17495   2.18512   2.18821   2.19625
 Alpha virt. eigenvalues --    2.20498   2.20667   2.20917   2.21961   2.22112
 Alpha virt. eigenvalues --    2.22767   2.23763   2.24598   2.25365   2.25644
 Alpha virt. eigenvalues --    2.25854   2.26925   2.27827   2.28165   2.28936
 Alpha virt. eigenvalues --    2.29036   2.29530   2.29639   2.30731   2.31571
 Alpha virt. eigenvalues --    2.32294   2.32661   2.33235   2.33992   2.34420
 Alpha virt. eigenvalues --    2.34826   2.35162   2.35571   2.36139   2.36443
 Alpha virt. eigenvalues --    2.37281   2.38121   2.39042   2.40220   2.40352
 Alpha virt. eigenvalues --    2.41024   2.41245   2.41709   2.42212   2.42993
 Alpha virt. eigenvalues --    2.43205   2.44198   2.44971   2.45260   2.45825
 Alpha virt. eigenvalues --    2.46611   2.47014   2.47961   2.48751   2.49006
 Alpha virt. eigenvalues --    2.49917   2.50717   2.51367   2.52778   2.53691
 Alpha virt. eigenvalues --    2.54724   2.55144   2.56057   2.56557   2.57029
 Alpha virt. eigenvalues --    2.57555   2.58989   2.59360   2.60391   2.60463
 Alpha virt. eigenvalues --    2.61037   2.61375   2.62598   2.63638   2.64550
 Alpha virt. eigenvalues --    2.64720   2.66238   2.66681   2.67498   2.67860
 Alpha virt. eigenvalues --    2.67995   2.68678   2.69239   2.69586   2.70341
 Alpha virt. eigenvalues --    2.71012   2.72148   2.72790   2.73175   2.74151
 Alpha virt. eigenvalues --    2.74347   2.75199   2.75455   2.76834   2.77437
 Alpha virt. eigenvalues --    2.78827   2.79462   2.79623   2.79738   2.80123
 Alpha virt. eigenvalues --    2.80536   2.80878   2.81369   2.81533   2.82569
 Alpha virt. eigenvalues --    2.83412   2.83852   2.84243   2.84449   2.85908
 Alpha virt. eigenvalues --    2.86465   2.87092   2.87290   2.87497   2.88570
 Alpha virt. eigenvalues --    2.90036   2.90423   2.91325   2.93414   2.95563
 Alpha virt. eigenvalues --    2.97250   2.98551   2.98843   2.99556   3.00581
 Alpha virt. eigenvalues --    3.03274   3.03884   3.04869   3.06486   3.07476
 Alpha virt. eigenvalues --    3.09648   3.11388   3.14194   3.14618   3.15420
 Alpha virt. eigenvalues --    3.15429   3.16095   3.17803   3.19912   3.21911
 Alpha virt. eigenvalues --    3.22657   3.23401   3.23838   3.26760   3.36113
 Alpha virt. eigenvalues --    3.46270   3.47042   3.49786   3.50500   3.52018
 Alpha virt. eigenvalues --    3.53145   3.53762   3.56399   3.60185   3.60657
 Alpha virt. eigenvalues --    3.62347   3.71083   3.74397
          Condensed to atoms (all electrons):
 Mulliken charges:
               1
     1  N   -0.311346
     2  C    0.181036
     3  C    0.029932
     4  N   -0.260075
     5  C    0.134964
     6  H    0.028047
     7  N   -0.288378
     8  C    0.131389
     9  H    0.006960
    10  N   -0.287613
    11  C    0.244698
    12  C    0.124234
    13  N   -0.059039
    14  H    0.107205
    15  H    0.088481
    16  H    0.025923
    17  H    0.035413
    18  H    0.027196
    19  N   -0.308518
    20  C    0.232236
    21  C    0.182771
    22  N   -0.074538
    23  H    0.109009
    24  H    0.108291
    25  N   -0.232887
    26  C    0.115366
    27  N   -0.085438
    28  H    0.119112
    29  C    0.150430
    30  O   -0.318671
    31  C   -0.011171
    32  N   -0.214744
    33  C    0.129282
    34  H    0.031851
    35  H    0.029405
    36  H    0.026515
    37  H    0.025418
    38  H    0.061330
    39  H    0.059438
    40  H    0.073424
    41  H    0.032249
    42  C   -0.112187
    43  O   -0.264343
    44  C    0.178066
    45  H    0.134806
    46  N   -0.141544
    47  O   -0.348171
    48  C    0.363941
    49  H    0.048074
    50  C    0.170874
    51  C    0.043936
    52  N   -0.298708
    53  H   -0.001148
    54  H    0.024655
    55  H   -0.023203
    56  H    0.121040
    57  H    0.114595
    58  N   -0.068873
    59  C    0.104914
    60  C    0.206263
    61  N   -0.254573
    62  H    0.055188
    63  C    0.156197
    64  N   -0.296371
    65  H    0.028026
    66  C    0.106468
    67  N   -0.259380
    68  C    0.043516
    69  C    0.279833
    70  N   -0.311076
 Sum of Mulliken charges =  -0.00000
 Mulliken charges with hydrogens summed into heavy atoms:
               1
     1  N   -0.311346
     2  C    0.269569
     3  C    0.029932
     4  N   -0.260075
     5  C    0.163010
     7  N   -0.288378
     8  C    0.138349
    10  N   -0.287613
    11  C    0.244698
    12  C    0.124234
    13  N    0.136646
    19  N   -0.308518
    20  C    0.232236
    21  C    0.264110
    22  N    0.142762
    25  N   -0.232887
    26  C    0.115366
    27  N    0.033674
    29  C    0.150430
    30  O   -0.318671
    31  C   -0.011171
    32  N   -0.214744
    33  C    0.161132
    42  C   -0.079938
    43  O   -0.264343
    44  C    0.178066
    46  N   -0.006738
    47  O   -0.348171
    48  C    0.363941
    50  C    0.218948
    51  C    0.238128
    52  N   -0.298708
    58  N    0.166762
    59  C    0.104914
    60  C    0.206263
    61  N   -0.254573
    63  C    0.211386
    64  N   -0.296371
    66  C    0.134495
    67  N   -0.259380
    68  C    0.043516
    69  C    0.280137
    70  N   -0.311076
 Electronic spatial extent (au):  <R**2>=          24456.2612
 Charge=             -0.0000 electrons
 Dipole moment (field-independent basis, Debye):
    X=              7.6935    Y=              4.9884    Z=              3.3132  Tot=              9.7494
 Quadrupole moment (field-independent basis, Debye-Ang):
   XX=           -149.3632   YY=           -217.2313   ZZ=           -253.8498
   XY=              1.3079   XZ=             13.3468   YZ=            -12.9384
 Traceless Quadrupole moment (field-independent basis, Debye-Ang):
   XX=             57.4516   YY=            -10.4166   ZZ=            -47.0350
   XY=              1.3079   XZ=             13.3468   YZ=            -12.9384
 Octapole moment (field-independent basis, Debye-Ang**2):
  XXX=             29.6258  YYY=            138.1621  ZZZ=             -1.1732  XYY=             82.2190
  XXY=           -138.2282  XXZ=            -52.0588  XZZ=              2.4584  YZZ=             12.6746
  YYZ=             46.9405  XYZ=             25.9001
 Hexadecapole moment (field-independent basis, Debye-Ang**3):
 XXXX=         -15715.6128 YYYY=          -6937.7391 ZZZZ=          -2815.8277 XXXY=            435.1064
 XXXZ=            268.2161 YYYX=            -57.9658 YYYZ=           -143.7963 ZZZX=             15.2225
 ZZZY=            -57.2186 XXYY=          -4033.1089 XXZZ=          -4203.9058 YYZZ=          -1645.7870
 XXYZ=             89.4217 YYXZ=            239.2677 ZZXY=            -25.4040
 N-N= 5.463353701192D+03 E-N=-1.570767436932D+04  KE= 2.038703108904D+03
 No NMR shielding tensors so no spin-rotation constants.
 Leave Link  601 at Fri Jan 26 06:49:03 2018, MaxMem=  4294967296 cpu:              48.3 elap:               1.7
 (Enter /share/apps/g16/l9999.exe)
 1\1\GINC-COMPUTE-0-3\SP\RwB97XD\CC-pVDZ\C23H27N17O3\SATYA\26-Jan-2018\
 0\\#p wb97xd/cc-pvdz sp scf=(maxcycles=20)\\Base pair stacking\\0,1\N,
 0,7.81029,2.6649,-8.58052\C,0,9.16066,3.20805,-8.82443\C,0,5.68871,2.4
 5913,-8.0384\N,0,6.10436,1.20519,-8.46221\C,0,7.36589,1.37935,-8.77186
 \H,0,8.02564,0.59699,-9.14813\N,0,4.37314,4.2434,-7.23306\C,0,5.46685,
 5.00313,-7.35213\H,0,5.34285,6.0455,-7.0617\N,0,6.68503,4.67014,-7.774
 12\C,0,6.72928,3.36918,-8.10573\C,0,4.45015,2.93865,-7.57476\N,0,3.359
 46,2.17865,-7.4566\H,0,3.37058,1.20766,-7.69798\H,0,2.49451,2.55374,-7
 .12295\H,0,9.39797,3.09414,-9.78925\H,0,9.17715,4.17973,-8.59059\H,0,9
 .8257,2.71965,-8.25947\N,0,3.80723,6.03999,-3.61339\C,0,2.55836,5.5044
 5,-3.40946\C,0,4.127,7.48165,-3.62123\N,0,-0.83265,5.93014,-2.79177\H,
 0,-1.63825,5.35138,-2.66817\H,0,-0.97124,6.91914,-2.73348\N,0,1.42267,
 6.19967,-3.18379\C,0,0.37944,5.40458,-3.02526\N,0,0.44153,4.03333,-3.0
 8295\H,0,-0.40725,3.50528,-2.94993\C,0,1.59918,3.29689,-3.31393\O,0,1.
 54669,2.06121,-3.34663\C,0,2.72829,4.13732,-3.48619\N,0,4.0571,3.82094
 ,-3.73332\C,0,4.65789,4.97797,-3.80083\H,0,5.72395,5.11424,-3.98583\H,
 0,4.50796,7.73544,-4.50963\H,0,3.29334,8.0067,-3.45508\H,0,4.79362,7.6
 8081,-2.90376\H,0,-5.07348,1.4882,-2.84778\H,0,-4.67219,1.16703,-1.162
 41\H,0,-4.00762,2.58676,-1.97116\H,0,-2.25063,-2.37707,-3.33542\C,0,-2
 .15897,-1.30627,-3.15319\O,0,0.15075,-1.2263,-3.6879\C,0,-0.88939,-0.6
 7133,-3.33448\H,0,-0.00394,1.16844,-3.19472\N,0,-0.88321,0.68483,-3.07
 752\O,0,-1.84189,2.6531,-2.47418\C,0,-1.94555,1.45621,-2.67758\H,0,-4.
 20053,-1.0154,-2.61167\C,0,-3.21358,-0.58049,-2.76378\C,0,-4.29872,1.5
 5469,-2.09852\N,0,-3.13534,0.77195,-2.52468\H,0,-2.22022,7.82506,-4.70
 686\H,0,-0.72733,7.47884,-4.14695\H,0,-2.03735,7.16729,-3.22452\H,0,-0
 .1312,1.10041,-7.04795\H,0,-1.75058,1.48695,-6.67606\N,0,-0.78713,1.75
 712,-6.67563\C,0,-0.39553,2.9408,-6.19947\C,0,-0.72143,5.08042,-5.2107
 5\N,0,0.57909,5.41645,-5.22288\H,0,2.3811,4.62618,-5.79633\C,0,1.30989
 ,4.43524,-5.7483\N,0,0.91954,3.24897,-6.22576\H,0,-3.88901,5.42736,-4.
 66467\C,0,-2.89817,5.06955,-4.94598\N,0,-2.65437,3.90374,-5.49291\C,0,
 -1.27788,3.89779,-5.66602\C,0,-1.68235,7.18404,-4.15934\N,0,-1.77399,5
 .83326,-4.74671\\Version=EM64L-G16RevA.03\State=1-A\HF=-2048.550449\RM
 SD=3.373e-09\Dipole=-3.3237253,1.8102234,0.6234433\Quadrupole=34.61051
 98,-12.1945631,-22.4159567,9.7981196,-24.1651812,11.878624\PG=C01 [X(C
 23H27N17O3)]\\@


 GARBAGE IN, GARBAGE OUT
 Job cpu time:       0 days  6 hours 24 minutes 43.6 seconds.
 Elapsed time:       0 days  0 hours 12 minutes 27.1 seconds.
 File lengths (MBytes):  RWF=    298 Int=      0 D2E=      0 Chk=     33 Scr=      1
 Normal termination of Gaussian 16 at Fri Jan 26 06:49:04 2018.
