 Entering Gaussian System, Link 0=g16
 Input=str55.15.0.0.com
 Output=str55.15.0.0.log
 Initial command:
 /share/apps/g16/l1.exe "/state/partition1/scr/Gau-12019.inp" -scrdir="/state/partition1/scr/"
 Entering Link 1 = /share/apps/g16/l1.exe PID=     12020.
  
 Copyright (c) 1988,1990,1992,1993,1995,1998,2003,2009,2016,
            Gaussian, Inc.  All Rights Reserved.
  
 This is part of the Gaussian(R) 16 program.  It is based on
 the Gaussian(R) 09 system (copyright 2009, Gaussian, Inc.),
 the Gaussian(R) 03 system (copyright 2003, Gaussian, Inc.),
 the Gaussian(R) 98 system (copyright 1998, Gaussian, Inc.),
 the Gaussian(R) 94 system (copyright 1995, Gaussian, Inc.),
 the Gaussian 92(TM) system (copyright 1992, Gaussian, Inc.),
 the Gaussian 90(TM) system (copyright 1990, Gaussian, Inc.),
 the Gaussian 88(TM) system (copyright 1988, Gaussian, Inc.),
 the Gaussian 86(TM) system (copyright 1986, Carnegie Mellon
 University), and the Gaussian 82(TM) system (copyright 1983,
 Carnegie Mellon University). Gaussian is a federally registered
 trademark of Gaussian, Inc.
  
 This software contains proprietary and confidential information,
 including trade secrets, belonging to Gaussian, Inc.
  
 This software is provided under written license and may be
 used, copied, transmitted, or stored only in accord with that
 written license.
  
 The following legend is applicable only to US Government
 contracts under FAR:
  
                    RESTRICTED RIGHTS LEGEND
  
 Use, reproduction and disclosure by the US Government is
 subject to restrictions as set forth in subparagraphs (a)
 and (c) of the Commercial Computer Software - Restricted
 Rights clause in FAR 52.227-19.
  
 Gaussian, Inc.
 340 Quinnipiac St., Bldg. 40, Wallingford CT 06492
  
  
 ---------------------------------------------------------------
 Warning -- This program may not be used in any manner that
 competes with the business of Gaussian, Inc. or will provide
 assistance to any competitor of Gaussian, Inc.  The licensee
 of this program is prohibited from giving any competitor of
 Gaussian, Inc. access to this program.  By using this program,
 the user acknowledges that Gaussian, Inc. is engaged in the
 business of creating and licensing software in the field of
 computational chemistry and represents and warrants to the
 licensee that it is not a competitor of Gaussian, Inc. and that
 it will not use this program in any manner prohibited above.
 ---------------------------------------------------------------
  

 Cite this work as:
 Gaussian 16, Revision A.03,
 M. J. Frisch, G. W. Trucks, H. B. Schlegel, G. E. Scuseria, 
 M. A. Robb, J. R. Cheeseman, G. Scalmani, V. Barone, 
 G. A. Petersson, H. Nakatsuji, X. Li, M. Caricato, A. V. Marenich, 
 J. Bloino, B. G. Janesko, R. Gomperts, B. Mennucci, H. P. Hratchian, 
 J. V. Ortiz, A. F. Izmaylov, J. L. Sonnenberg, D. Williams-Young, 
 F. Ding, F. Lipparini, F. Egidi, J. Goings, B. Peng, A. Petrone, 
 T. Henderson, D. Ranasinghe, V. G. Zakrzewski, J. Gao, N. Rega, 
 G. Zheng, W. Liang, M. Hada, M. Ehara, K. Toyota, R. Fukuda, 
 J. Hasegawa, M. Ishida, T. Nakajima, Y. Honda, O. Kitao, H. Nakai, 
 T. Vreven, K. Throssell, J. A. Montgomery, Jr., J. E. Peralta, 
 F. Ogliaro, M. J. Bearpark, J. J. Heyd, E. N. Brothers, K. N. Kudin, 
 V. N. Staroverov, T. A. Keith, R. Kobayashi, J. Normand, 
 K. Raghavachari, A. P. Rendell, J. C. Burant, S. S. Iyengar, 
 J. Tomasi, M. Cossi, J. M. Millam, M. Klene, C. Adamo, R. Cammi, 
 J. W. Ochterski, R. L. Martin, K. Morokuma, O. Farkas, 
 J. B. Foresman, and D. J. Fox, Gaussian, Inc., Wallingford CT, 2016.
 
 ******************************************
 Gaussian 16:  EM64L-G16RevA.03 25-Dec-2016
                26-Jan-2018 
 ******************************************
 %nprocshared=32
 Will use up to   32 processors via shared memory.
 %mem=32GB
 %chk=allatoms_t.chk
 ---------------------------------------
 #p wb97xd/cc-pvdz sp scf=(maxcycles=20)
 ---------------------------------------
 1/38=1,172=1/1;
 2/12=2,17=6,18=5,40=1/2;
 3/5=16,11=2,25=1,30=1,74=-58/1,2,3;
 4//1;
 5/5=2,7=20,38=5/2;
 6/7=2,8=2,9=2,10=2,28=1/1;
 99/5=1,9=1/99;
 Leave Link    1 at Fri Jan 26 03:23:40 2018, MaxMem=  4294967296 cpu:               2.7 elap:               0.1
 (Enter /share/apps/g16/l101.exe)
 ------------------
 Base pair stacking
 ------------------
 Symbolic Z-matrix:
 Charge =  0 Multiplicity = 1
 N                     6.92047  -1.33005  -4.65313 
 C                     8.31655  -0.85481  -4.59735 
 C                     4.75766  -1.47456  -5.02553 
 N                     5.12027  -2.6497   -4.38344 
 C                     6.40877  -2.5156   -4.18478 
 H                     7.04139  -3.25764  -3.6968 
 N                     3.50679   0.21359  -6.09718 
 C                     4.65263   0.89588  -6.19264 
 H                     4.576     1.86786  -6.67807 
 N                     5.87317   0.55936  -5.78043 
 C                     5.85666  -0.65131  -5.19869 
 C                     3.52334  -1.00134  -5.50663 
 N                     2.38055  -1.68395  -5.41039 
 H                     2.346    -2.58707  -4.98098 
 H                     1.52047  -1.31608  -5.76405 
 H                     8.90772  -1.49441  -5.08889 
 H                     8.37917   0.04835  -5.02105 
 H                     8.61271  -0.79517  -3.64408 
 N                     3.54043   3.81884  -3.0054 
 C                     2.29104   3.28357  -3.20684 
 C                     3.89962   5.2398   -3.18583 
 N                    -1.04478   3.68028  -4.08811 
 H                    -1.85774   3.10538  -4.17656 
 H                    -1.15186   4.65273  -4.29692 
 N                     1.19048   3.96034  -3.60027 
 C                     0.13634   3.17099  -3.7067 
 N                     0.15635   1.82183  -3.44808 
 H                    -0.69772   1.29655  -3.55581 
 C                     1.27737   1.10463  -3.0421 
 O                     1.18831  -0.11186  -2.83481 
 C                     2.41768   1.93918  -2.92333 
 N                     3.72035   1.63652  -2.5514 
 C                     4.34848   2.77919  -2.61444 
 H                     5.40532   2.92031  -2.38543 
 H                     4.61235   5.31937  -3.88188 
 H                     3.09219   5.75108  -3.47725 
 H                     4.23502   5.61289  -2.32146 
 H                    -5.10492  -0.85654  -4.89501 
 H                    -5.41938  -0.80187  -3.16216 
 H                    -4.42733   0.4459   -3.91733 
 H                    -2.49165  -4.61176  -3.40649 
 C                    -2.43318  -3.52353  -3.43021 
 O                    -0.09971  -3.45603  -3.0089 
 C                    -1.16944  -2.88553  -3.22102 
 H                    -0.33272  -1.02017  -3.12804 
 N                    -1.20654  -1.50663  -3.27126 
 O                    -2.23907   0.50041  -3.52196 
 C                    -2.30564  -0.71595  -3.49566 
 H                    -4.50728  -3.21558  -3.81631 
 C                    -3.523    -2.77926  -3.65147 
 C                    -4.68875  -0.60175  -3.93171 
 N                    -3.48711  -1.40459  -3.68832 
 H                    -2.93597   3.57148  -9.24326 
 H                    -1.8711    3.86117  -8.04149 
 H                    -3.47391   3.9846   -7.75888 
 H                    -1.08957  -2.79269  -5.90354 
 H                    -2.64313  -2.50394  -6.54633 
 N                    -1.73566  -2.15061  -6.31639 
 C                    -1.4029   -0.8795   -6.55034 
 C                    -1.78486   1.3434   -7.30833 
 N                    -0.55893   1.79025  -6.98921 
 H                     1.18194   1.09081  -6.16413 
 C                     0.16928   0.81287  -6.45316 
 N                    -0.16219  -0.46086  -6.21801 
 H                    -4.80995   1.47863  -8.44091 
 C                    -3.8553    1.1746   -8.01062 
 N                    -3.58418  -0.03181  -7.57615 
 C                    -2.27448   0.06147  -7.12814 
 C                    -2.76974   3.48259  -8.26119 
 N                    -2.81151   2.05773  -7.87906 
 
 ITRead=  0  0  0  0  0  0  0  0  0  0  0  0  0  0  0  0  0  0  0  0
 ITRead=  0  0  0  0  0  0  0  0  0  0  0  0  0  0  0  0  0  0  0  0
 ITRead=  0  0  0  0  0  0  0  0  0  0  0  0  0  0  0  0  0  0  0  0
 ITRead=  0  0  0  0  0  0  0  0  0  0
 MicOpt= -1 -1 -1 -1 -1 -1 -1 -1 -1 -1 -1 -1 -1 -1 -1 -1 -1 -1 -1 -1
 MicOpt= -1 -1 -1 -1 -1 -1 -1 -1 -1 -1 -1 -1 -1 -1 -1 -1 -1 -1 -1 -1
 MicOpt= -1 -1 -1 -1 -1 -1 -1 -1 -1 -1 -1 -1 -1 -1 -1 -1 -1 -1 -1 -1
 MicOpt= -1 -1 -1 -1 -1 -1 -1 -1 -1 -1
 NAtoms=     70 NQM=       70 NQMF=       0 NMMI=      0 NMMIF=      0
                NMic=       0 NMicF=      0.
                    Isotopes and Nuclear Properties:
 (Nuclear quadrupole moments (NQMom) in fm**2, nuclear magnetic moments (NMagM)
  in nuclear magnetons)

  Atom         1           2           3           4           5           6           7           8           9          10
 IAtWgt=          14          12          12          14          12           1          14          12           1          14
 AtmWgt=  14.0030740  12.0000000  12.0000000  14.0030740  12.0000000   1.0078250  14.0030740  12.0000000   1.0078250  14.0030740
 NucSpn=           2           0           0           2           0           1           2           0           1           2
 AtZEff=  -0.0000000  -0.0000000  -0.0000000  -0.0000000  -0.0000000  -0.0000000  -0.0000000  -0.0000000  -0.0000000  -0.0000000
 NQMom=    2.0440000   0.0000000   0.0000000   2.0440000   0.0000000   0.0000000   2.0440000   0.0000000   0.0000000   2.0440000
 NMagM=    0.4037610   0.0000000   0.0000000   0.4037610   0.0000000   2.7928460   0.4037610   0.0000000   2.7928460   0.4037610
 AtZNuc=   7.0000000   6.0000000   6.0000000   7.0000000   6.0000000   1.0000000   7.0000000   6.0000000   1.0000000   7.0000000

  Atom        11          12          13          14          15          16          17          18          19          20
 IAtWgt=          12          12          14           1           1           1           1           1          14          12
 AtmWgt=  12.0000000  12.0000000  14.0030740   1.0078250   1.0078250   1.0078250   1.0078250   1.0078250  14.0030740  12.0000000
 NucSpn=           0           0           2           1           1           1           1           1           2           0
 AtZEff=  -0.0000000  -0.0000000  -0.0000000  -0.0000000  -0.0000000  -0.0000000  -0.0000000  -0.0000000  -0.0000000  -0.0000000
 NQMom=    0.0000000   0.0000000   2.0440000   0.0000000   0.0000000   0.0000000   0.0000000   0.0000000   2.0440000   0.0000000
 NMagM=    0.0000000   0.0000000   0.4037610   2.7928460   2.7928460   2.7928460   2.7928460   2.7928460   0.4037610   0.0000000
 AtZNuc=   6.0000000   6.0000000   7.0000000   1.0000000   1.0000000   1.0000000   1.0000000   1.0000000   7.0000000   6.0000000

  Atom        21          22          23          24          25          26          27          28          29          30
 IAtWgt=          12          14           1           1          14          12          14           1          12          16
 AtmWgt=  12.0000000  14.0030740   1.0078250   1.0078250  14.0030740  12.0000000  14.0030740   1.0078250  12.0000000  15.9949146
 NucSpn=           0           2           1           1           2           0           2           1           0           0
 AtZEff=  -0.0000000  -0.0000000  -0.0000000  -0.0000000  -0.0000000  -0.0000000  -0.0000000  -0.0000000  -0.0000000  -0.0000000
 NQMom=    0.0000000   2.0440000   0.0000000   0.0000000   2.0440000   0.0000000   2.0440000   0.0000000   0.0000000   0.0000000
 NMagM=    0.0000000   0.4037610   2.7928460   2.7928460   0.4037610   0.0000000   0.4037610   2.7928460   0.0000000   0.0000000
 AtZNuc=   6.0000000   7.0000000   1.0000000   1.0000000   7.0000000   6.0000000   7.0000000   1.0000000   6.0000000   8.0000000

  Atom        31          32          33          34          35          36          37          38          39          40
 IAtWgt=          12          14          12           1           1           1           1           1           1           1
 AtmWgt=  12.0000000  14.0030740  12.0000000   1.0078250   1.0078250   1.0078250   1.0078250   1.0078250   1.0078250   1.0078250
 NucSpn=           0           2           0           1           1           1           1           1           1           1
 AtZEff=  -0.0000000  -0.0000000  -0.0000000  -0.0000000  -0.0000000  -0.0000000  -0.0000000  -0.0000000  -0.0000000  -0.0000000
 NQMom=    0.0000000   2.0440000   0.0000000   0.0000000   0.0000000   0.0000000   0.0000000   0.0000000   0.0000000   0.0000000
 NMagM=    0.0000000   0.4037610   0.0000000   2.7928460   2.7928460   2.7928460   2.7928460   2.7928460   2.7928460   2.7928460
 AtZNuc=   6.0000000   7.0000000   6.0000000   1.0000000   1.0000000   1.0000000   1.0000000   1.0000000   1.0000000   1.0000000

  Atom        41          42          43          44          45          46          47          48          49          50
 IAtWgt=           1          12          16          12           1          14          16          12           1          12
 AtmWgt=   1.0078250  12.0000000  15.9949146  12.0000000   1.0078250  14.0030740  15.9949146  12.0000000   1.0078250  12.0000000
 NucSpn=           1           0           0           0           1           2           0           0           1           0
 AtZEff=  -0.0000000  -0.0000000  -0.0000000  -0.0000000  -0.0000000  -0.0000000  -0.0000000  -0.0000000  -0.0000000  -0.0000000
 NQMom=    0.0000000   0.0000000   0.0000000   0.0000000   0.0000000   2.0440000   0.0000000   0.0000000   0.0000000   0.0000000
 NMagM=    2.7928460   0.0000000   0.0000000   0.0000000   2.7928460   0.4037610   0.0000000   0.0000000   2.7928460   0.0000000
 AtZNuc=   1.0000000   6.0000000   8.0000000   6.0000000   1.0000000   7.0000000   8.0000000   6.0000000   1.0000000   6.0000000

  Atom        51          52          53          54          55          56          57          58          59          60
 IAtWgt=          12          14           1           1           1           1           1          14          12          12
 AtmWgt=  12.0000000  14.0030740   1.0078250   1.0078250   1.0078250   1.0078250   1.0078250  14.0030740  12.0000000  12.0000000
 NucSpn=           0           2           1           1           1           1           1           2           0           0
 AtZEff=  -0.0000000  -0.0000000  -0.0000000  -0.0000000  -0.0000000  -0.0000000  -0.0000000  -0.0000000  -0.0000000  -0.0000000
 NQMom=    0.0000000   2.0440000   0.0000000   0.0000000   0.0000000   0.0000000   0.0000000   2.0440000   0.0000000   0.0000000
 NMagM=    0.0000000   0.4037610   2.7928460   2.7928460   2.7928460   2.7928460   2.7928460   0.4037610   0.0000000   0.0000000
 AtZNuc=   6.0000000   7.0000000   1.0000000   1.0000000   1.0000000   1.0000000   1.0000000   7.0000000   6.0000000   6.0000000

  Atom        61          62          63          64          65          66          67          68          69          70
 IAtWgt=          14           1          12          14           1          12          14          12          12          14
 AtmWgt=  14.0030740   1.0078250  12.0000000  14.0030740   1.0078250  12.0000000  14.0030740  12.0000000  12.0000000  14.0030740
 NucSpn=           2           1           0           2           1           0           2           0           0           2
 AtZEff=  -0.0000000  -0.0000000  -0.0000000  -0.0000000  -0.0000000  -0.0000000  -0.0000000  -0.0000000  -0.0000000  -0.0000000
 NQMom=    2.0440000   0.0000000   0.0000000   2.0440000   0.0000000   0.0000000   2.0440000   0.0000000   0.0000000   2.0440000
 NMagM=    0.4037610   2.7928460   0.0000000   0.4037610   2.7928460   0.0000000   0.4037610   0.0000000   0.0000000   0.4037610
 AtZNuc=   7.0000000   1.0000000   6.0000000   7.0000000   1.0000000   6.0000000   7.0000000   6.0000000   6.0000000   7.0000000
 Leave Link  101 at Fri Jan 26 03:23:41 2018, MaxMem=  4294967296 cpu:               7.7 elap:               0.3
 (Enter /share/apps/g16/l202.exe)
 Stoichiometry    C23H27N17O3
 Framework group  C1[X(C23H27N17O3)]
 Deg. of freedom   204
 Full point group                 C1      NOp   1
 Largest Abelian subgroup         C1      NOp   1
 Largest concise Abelian subgroup C1      NOp   1
                         Standard orientation:                         
 ---------------------------------------------------------------------
 Center     Atomic      Atomic             Coordinates (Angstroms)
 Number     Number       Type             X           Y           Z
 ---------------------------------------------------------------------
      1          7           0       -5.937337   -1.837798    0.935016
      2          6           0       -7.344700   -1.411510    1.059968
      3          6           0       -3.738970   -1.886507    0.981100
      4          7           0       -4.144182   -3.118171    0.487615
      5          6           0       -5.452399   -3.039525    0.479601
      6          1           0       -6.119379   -3.836046    0.148470
      7          7           0       -2.413411   -0.083179    1.725318
      8          6           0       -3.559583    0.568792    1.946236
      9          1           0       -3.451843    1.577131    2.343609
     10          7           0       -4.812961    0.164105    1.750907
     11          6           0       -4.833131   -1.086640    1.261370
     12          6           0       -2.467381   -1.339866    1.232466
     13          7           0       -1.324326   -1.992310    1.011269
     14          1           0       -1.316727   -2.924290    0.647169
     15          1           0       -0.437112   -1.571994    1.201865
     16          1           0       -7.827697   -2.029321    1.680617
     17          1           0       -7.380885   -0.480795    1.422737
     18          1           0       -7.783149   -1.434529    0.161511
     19          7           0       -3.063763    3.270814   -1.574051
     20          6           0       -1.776845    2.791386   -1.528687
     21          6           0       -3.451304    4.689695   -1.442570
     22          7           0        1.633864    3.357330   -1.199327
     23          1           0        2.474385    2.816267   -1.195654
     24          1           0        1.730046    4.345798   -1.079294
     25          7           0       -0.659144    3.530011   -1.357764
     26          6           0        0.431340    2.784051   -1.358012
     27          7           0        0.429548    1.419021   -1.513600
     28          1           0        1.311482    0.930157   -1.500761
     29          6           0       -0.708546    0.638510   -1.690875
     30          8           0       -0.600479   -0.586997   -1.822042
     31          6           0       -1.887904    1.425909   -1.692816
     32          7           0       -3.217770    1.055532   -1.838281
     33          6           0       -3.876876    2.179762   -1.761456
     34          1           0       -4.961140    2.270209   -1.835367
     35          1           0       -4.053921    4.800565   -0.653038
     36          1           0       -2.631503    5.246518   -1.315486
     37          1           0       -3.928352    4.984677   -2.269756
     38          1           0        5.956802   -0.976685   -0.702254
     39          1           0        6.004403   -1.045803   -2.462254
     40          1           0        5.085541    0.225189   -1.655008
     41          1           0        3.310005   -4.914029   -1.501211
     42          6           0        3.209943   -3.829519   -1.546510
     43          8           0        0.838901   -3.866577   -1.609167
     44          6           0        1.903354   -3.248753   -1.604643
     45          1           0        0.984280   -1.422749   -1.701202
     46          7           0        1.889424   -1.869588   -1.659178
     47          8           0        2.862375    0.181656   -1.713413
     48          6           0        2.975451   -1.030492   -1.662757
     49          1           0        5.303675   -3.429005   -1.505614
     50          6           0        4.288289   -3.037201   -1.548451
     51          6           0        5.390081   -0.809695   -1.606137
     52          7           0        4.200429   -1.665530   -1.604702
     53          1           0        4.281965    3.703728    3.599796
     54          1           0        3.037163    3.867162    2.557742
     55          1           0        4.572570    4.017828    2.024892
     56          1           0        2.224113   -2.952353    1.044918
     57          1           0        3.843124   -2.567272    1.419912
     58          7           0        2.897309   -2.260812    1.307067
     59          6           0        2.550243   -0.986334    1.497941
     60          6           0        2.947831    1.298998    2.027948
     61          7           0        1.670108    1.681981    1.869311
     62          1           0       -0.144022    0.867826    1.372635
     63          6           0        0.911402    0.644285    1.522231
     64          7           0        1.257124   -0.632936    1.330559
     65          1           0        6.100457    1.614116    2.671253
     66          6           0        5.105615    1.248610    2.415060
     67          7           0        4.823323    0.004574    2.114428
     68          6           0        3.458375    0.022707    1.866808
     69          6           0        3.973780    3.534479    2.663649
     70          7           0        4.017619    2.086414    2.382264
 ---------------------------------------------------------------------
 Rotational constants (GHZ):           0.1129616           0.0591899           0.0510508
 Leave Link  202 at Fri Jan 26 03:23:41 2018, MaxMem=  4294967296 cpu:               0.4 elap:               0.0
 (Enter /share/apps/g16/l301.exe)
 Standard basis: CC-pVDZ (5D, 7F)
 Ernie: Thresh=  0.10000D-02 Tol=  0.10000D-05 Strict=F.
 Ernie:  86 primitive shells out of 1081 were deleted.
 There are   780 symmetry adapted cartesian basis functions of A   symmetry.
 There are   737 symmetry adapted basis functions of A   symmetry.
   737 basis functions,  1608 primitive gaussians,   780 cartesian basis functions
   154 alpha electrons      154 beta electrons
       nuclear repulsion energy      5429.1802506615 Hartrees.
 IExCor= 4639 DFT=T Ex+Corr=wB97XD ExCW=0 ScaHFX=  1.000000
 ScaDFX=  1.000000  1.000000  1.000000  1.000000 ScalE2=  1.000000  1.000000
 IRadAn=      5 IRanWt=     -1 IRanGd=            0 ICorTp=0 IEmpDi=121
 HFx  wShort=  0.000000 wLong=  0.200000 cFull=  0.222036 cShort=  0.000000 cLong=  0.777964
 DFx  wShort=  0.000000 wLong=  0.200000 cFull=  0.000000 cShort=  0.000000 cLong=  1.000000
 NAtoms=   70 NActive=   70 NUniq=   70 SFac= 1.00D+00 NAtFMM=   60 NAOKFM=T Big=T
 Integral buffers will be    131072 words long.
 Raffenetti 2 integral format.
 Two-electron integral symmetry is turned on.
 R6Disp:  Grimme-D2 Dispersion energy=       -0.0649688329 Hartrees.
 Nuclear repulsion after empirical dispersion term =     5429.1152818286 Hartrees.
 Leave Link  301 at Fri Jan 26 03:23:41 2018, MaxMem=  4294967296 cpu:               3.0 elap:               0.1
 (Enter /share/apps/g16/l302.exe)
 NPDir=0 NMtPBC=     1 NCelOv=     1 NCel=       1 NClECP=     1 NCelD=      1
         NCelK=      1 NCelE2=     1 NClLst=     1 CellRange=     0.0.
 One-electron integrals computed using PRISM.
 One-electron integral symmetry used in STVInt
 NBasis=   737 RedAO= T EigKep=  6.98D-04  NBF=   737
 NBsUse=   737 1.00D-06 EigRej= -1.00D+00 NBFU=   737
 Precomputing XC quadrature grid using
 IXCGrd= 4 IRadAn=           5 IRanWt=          -1 IRanGd=           0 AccXCQ= 0.00D+00.
 Generated NRdTot=       0 NPtTot=           0 NUsed=           0 NTot=          32
 NSgBfM=   766   766   766   766   766 MxSgAt=    70 MxSgA2=    70.
 Leave Link  302 at Fri Jan 26 03:23:45 2018, MaxMem=  4294967296 cpu:             135.2 elap:               4.3
 (Enter /share/apps/g16/l303.exe)
 DipDrv:  MaxL=1.
 Leave Link  303 at Fri Jan 26 03:23:46 2018, MaxMem=  4294967296 cpu:              12.5 elap:               0.4
 (Enter /share/apps/g16/l401.exe)
 ExpMin= 1.22D-01 ExpMax= 1.17D+04 ExpMxC= 4.01D+02 IAcc=3 IRadAn=         5 AccDes= 0.00D+00
 Harris functional with IExCor= 4639 and IRadAn=       5 diagonalized for initial guess.
 HarFok:  IExCor= 4639 AccDes= 0.00D+00 IRadAn=         5 IDoV= 1 UseB2=F ITyADJ=14
 ICtDFT=  3500011 ScaDFX=  1.000000  1.000000  1.000000  1.000000
 FoFCou: FMM=F IPFlag=           0 FMFlag=      100000 FMFlg1=        2001
         NFxFlg=           0 DoJE=T BraDBF=F KetDBF=T FulRan=T
         wScrn=  0.000000 ICntrl=       500 IOpCl=  0 I1Cent=   200000004 NGrid=           0
         NMat0=    1 NMatS0=      1 NMatT0=    0 NMatD0=    1 NMtDS0=    0 NMtDT0=    0
 Petite list used in FoFCou.
 Harris En= -1963.88575486929    
 JPrj=0 DoOrth=F DoCkMO=F.
 Leave Link  401 at Fri Jan 26 03:23:58 2018, MaxMem=  4294967296 cpu:             389.3 elap:              12.2
 (Enter /share/apps/g16/l502.exe)
 Integral symmetry usage will be decided dynamically.
 Closed shell SCF:
 Using DIIS extrapolation, IDIIS=  1040.
 NGot=  4294967296 LenX=  4293717438 LenY=  4293108258
 Requested convergence on RMS density matrix=1.00D-08 within  20 cycles.
 Requested convergence on MAX density matrix=1.00D-06.
 Requested convergence on             energy=1.00D-06.
 No special actions if energy rises.
 Fock matrices will be formed incrementally for  20 cycles.
 Integral accuracy reduced to 1.0D-05 until final iterations.

 Cycle   1  Pass 0  IDiag  1:
 FoFJK:  IHMeth= 1 ICntrl=       0 DoSepK=T KAlg= 0 I1Cent=           0 FoldK=F
 IRaf=         1 NMat=       1 IRICut=       1 DoRegI=T DoRafI=F ISym2E= 0 IDoP0=0 IntGTp=1.
 FoFCou: FMM=T IPFlag=           0 FMFlag=      100000 FMFlg1=        2001
         NFxFlg=           0 DoJE=T BraDBF=F KetDBF=F FulRan=T
         wScrn=  0.000000 ICntrl=       500 IOpCl=  0 I1Cent=           0 NGrid=           0
         NMat0=    1 NMatS0=      1 NMatT0=    0 NMatD0=    1 NMtDS0=    0 NMtDT0=    0
 Symmetry not used in FoFCou.
 FMM levels:  10  Number of levels for PrismC:   9
 E= -2048.31088540627    
 DIIS: error= 2.65D-02 at cycle   1 NSaved=   1.
 NSaved= 1 IEnMin= 1 EnMin= -2048.31088540627     IErMin= 1 ErrMin= 2.65D-02
 ErrMax= 2.65D-02  0.00D+00 EMaxC= 1.00D-01 BMatC= 8.33D-01 BMatP= 8.33D-01
 IDIUse=3 WtCom= 7.35D-01 WtEn= 2.65D-01
 Coeff-Com:  0.100D+01
 Coeff-En:   0.100D+01
 Coeff:      0.100D+01
 Gap=     0.245 Goal=   None    Shift=    0.000
 GapD=    0.245 DampG=1.000 DampE=0.500 DampFc=0.5000 IDamp=-1.
 Damping current iteration by 5.00D-01
 RMSDP=1.56D-03 MaxDP=1.32D-01              OVMax= 1.58D-01

 Cycle   2  Pass 0  IDiag  1:
 RMSU=  7.81D-04    CP:  9.98D-01
 E= -2048.50958657317     Delta-E=       -0.198701166902 Rises=F Damp=T
 DIIS: error= 1.48D-02 at cycle   2 NSaved=   2.
 NSaved= 2 IEnMin= 2 EnMin= -2048.50958657317     IErMin= 2 ErrMin= 1.48D-02
 ErrMax= 1.48D-02  0.00D+00 EMaxC= 1.00D-01 BMatC= 1.45D-01 BMatP= 8.33D-01
 IDIUse=3 WtCom= 8.52D-01 WtEn= 1.48D-01
 Coeff-Com: -0.201D+00 0.120D+01
 Coeff-En:   0.000D+00 0.100D+01
 Coeff:     -0.171D+00 0.117D+01
 Gap=     0.347 Goal=   None    Shift=    0.000
 RMSDP=5.76D-04 MaxDP=3.53D-02 DE=-1.99D-01 OVMax= 1.60D-01

 Cycle   3  Pass 0  IDiag  1:
 RMSU=  5.62D-04    CP:  9.94D-01  1.15D+00
 E= -2048.69226474148     Delta-E=       -0.182678168307 Rises=F Damp=F
 DIIS: error= 9.51D-03 at cycle   3 NSaved=   3.
 NSaved= 3 IEnMin= 3 EnMin= -2048.69226474148     IErMin= 3 ErrMin= 9.51D-03
 ErrMax= 9.51D-03  0.00D+00 EMaxC= 1.00D-01 BMatC= 5.96D-02 BMatP= 1.45D-01
 IDIUse=3 WtCom= 9.05D-01 WtEn= 9.51D-02
 Coeff-Com: -0.228D+00 0.540D+00 0.688D+00
 Coeff-En:   0.000D+00 0.000D+00 0.100D+01
 Coeff:     -0.206D+00 0.489D+00 0.717D+00
 Gap=     0.267 Goal=   None    Shift=    0.000
 RMSDP=3.47D-04 MaxDP=3.50D-02 DE=-1.83D-01 OVMax= 6.73D-02

 Cycle   4  Pass 0  IDiag  1:
 RMSU=  2.00D-04    CP:  9.95D-01  1.43D+00  6.75D-01
 E= -2048.73627518153     Delta-E=       -0.044010440055 Rises=F Damp=F
 DIIS: error= 4.07D-03 at cycle   4 NSaved=   4.
 NSaved= 4 IEnMin= 4 EnMin= -2048.73627518153     IErMin= 4 ErrMin= 4.07D-03
 ErrMax= 4.07D-03  0.00D+00 EMaxC= 1.00D-01 BMatC= 9.63D-03 BMatP= 5.96D-02
 IDIUse=3 WtCom= 9.59D-01 WtEn= 4.07D-02
 Coeff-Com: -0.919D-01 0.178D+00 0.387D+00 0.527D+00
 Coeff-En:   0.000D+00 0.000D+00 0.846D-01 0.915D+00
 Coeff:     -0.881D-01 0.171D+00 0.375D+00 0.543D+00
 Gap=     0.274 Goal=   None    Shift=    0.000
 RMSDP=1.29D-04 MaxDP=1.34D-02 DE=-4.40D-02 OVMax= 1.43D-02

 Cycle   5  Pass 0  IDiag  1:
 RMSU=  6.22D-05    CP:  9.94D-01  1.40D+00  8.14D-01  6.11D-01
 E= -2048.74402462801     Delta-E=       -0.007749446479 Rises=F Damp=F
 DIIS: error= 7.12D-04 at cycle   5 NSaved=   5.
 NSaved= 5 IEnMin= 5 EnMin= -2048.74402462801     IErMin= 5 ErrMin= 7.12D-04
 ErrMax= 7.12D-04  0.00D+00 EMaxC= 1.00D-01 BMatC= 3.24D-04 BMatP= 9.63D-03
 IDIUse=3 WtCom= 9.93D-01 WtEn= 7.12D-03
 Coeff-Com: -0.234D-01 0.398D-01 0.126D+00 0.247D+00 0.611D+00
 Coeff-En:   0.000D+00 0.000D+00 0.000D+00 0.000D+00 0.100D+01
 Coeff:     -0.233D-01 0.395D-01 0.125D+00 0.245D+00 0.613D+00
 Gap=     0.273 Goal=   None    Shift=    0.000
 RMSDP=2.57D-05 MaxDP=2.50D-03 DE=-7.75D-03 OVMax= 3.23D-03

 Failed to achieve initial convergence to 1.0D-08 in  6 cycles.
 Switch to full accuracy anyway.
 Cycle   6  Pass 1  IDiag  1:
 E= -2048.74442997872     Delta-E=       -0.000405350710 Rises=F Damp=F
 DIIS: error= 2.66D-04 at cycle   1 NSaved=   1.
 NSaved= 1 IEnMin= 1 EnMin= -2048.74442997872     IErMin= 1 ErrMin= 2.66D-04
 ErrMax= 2.66D-04  0.00D+00 EMaxC= 1.00D-01 BMatC= 7.51D-05 BMatP= 7.51D-05
 IDIUse=3 WtCom= 9.97D-01 WtEn= 2.66D-03
 Coeff-Com:  0.100D+01
 Coeff-En:   0.100D+01
 Coeff:      0.100D+01
 Gap=     0.274 Goal=   None    Shift=    0.000
 RMSDP=2.57D-05 MaxDP=2.50D-03 DE=-4.05D-04 OVMax= 2.00D-03

 Cycle   7  Pass 1  IDiag  1:
 RMSU=  1.11D-04    CP:  1.00D+00
 E= -2048.74448519255     Delta-E=       -0.000055213824 Rises=F Damp=F
 DIIS: error= 3.03D-04 at cycle   2 NSaved=   2.
 NSaved= 2 IEnMin= 2 EnMin= -2048.74448519255     IErMin= 1 ErrMin= 2.66D-04
 ErrMax= 3.03D-04  0.00D+00 EMaxC= 1.00D-01 BMatC= 4.45D-05 BMatP= 7.51D-05
 IDIUse=3 WtCom= 9.97D-01 WtEn= 3.03D-03
 Coeff-Com:  0.412D+00 0.588D+00
 Coeff-En:   0.000D+00 0.100D+01
 Coeff:      0.411D+00 0.589D+00
 Gap=     0.273 Goal=   None    Shift=    0.000
 RMSDP=1.09D-05 MaxDP=1.41D-03 DE=-5.52D-05 OVMax= 1.65D-03

 Cycle   8  Pass 1  IDiag  1:
 RMSU=  1.05D-05    CP:  1.00D+00  1.03D+00
 E= -2048.74451596293     Delta-E=       -0.000030770380 Rises=F Damp=F
 DIIS: error= 1.42D-04 at cycle   3 NSaved=   3.
 NSaved= 3 IEnMin= 3 EnMin= -2048.74451596293     IErMin= 3 ErrMin= 1.42D-04
 ErrMax= 1.42D-04  0.00D+00 EMaxC= 1.00D-01 BMatC= 1.05D-05 BMatP= 4.45D-05
 IDIUse=3 WtCom= 9.99D-01 WtEn= 1.42D-03
 Coeff-Com: -0.190D-01 0.315D+00 0.704D+00
 Coeff-En:   0.000D+00 0.136D+00 0.864D+00
 Coeff:     -0.190D-01 0.314D+00 0.704D+00
 Gap=     0.274 Goal=   None    Shift=    0.000
 RMSDP=5.55D-06 MaxDP=5.55D-04 DE=-3.08D-05 OVMax= 5.79D-04

 Cycle   9  Pass 1  IDiag  1:
 RMSU=  3.80D-06    CP:  1.00D+00  1.05D+00  7.62D-01
 E= -2048.74452524094     Delta-E=       -0.000009278013 Rises=F Damp=F
 DIIS: error= 4.06D-05 at cycle   4 NSaved=   4.
 NSaved= 4 IEnMin= 4 EnMin= -2048.74452524094     IErMin= 4 ErrMin= 4.06D-05
 ErrMax= 4.06D-05  0.00D+00 EMaxC= 1.00D-01 BMatC= 4.92D-07 BMatP= 1.05D-05
 IDIUse=1 WtCom= 1.00D+00 WtEn= 0.00D+00
 Coeff-Com: -0.306D-01 0.883D-01 0.260D+00 0.683D+00
 Coeff:     -0.306D-01 0.883D-01 0.260D+00 0.683D+00
 Gap=     0.274 Goal=   None    Shift=    0.000
 RMSDP=1.40D-06 MaxDP=1.49D-04 DE=-9.28D-06 OVMax= 4.41D-04

 Cycle  10  Pass 1  IDiag  1:
 RMSU=  1.26D-06    CP:  1.00D+00  1.06D+00  7.95D-01  1.10D+00
 E= -2048.74452604416     Delta-E=       -0.000000803218 Rises=F Damp=F
 DIIS: error= 1.53D-05 at cycle   5 NSaved=   5.
 NSaved= 5 IEnMin= 5 EnMin= -2048.74452604416     IErMin= 5 ErrMin= 1.53D-05
 ErrMax= 1.53D-05  0.00D+00 EMaxC= 1.00D-01 BMatC= 1.16D-07 BMatP= 4.92D-07
 IDIUse=1 WtCom= 1.00D+00 WtEn= 0.00D+00
 Coeff-Com: -0.284D-02-0.538D-01-0.119D+00 0.201D+00 0.975D+00
 Coeff:     -0.284D-02-0.538D-01-0.119D+00 0.201D+00 0.975D+00
 Gap=     0.274 Goal=   None    Shift=    0.000
 RMSDP=1.18D-06 MaxDP=7.60D-05 DE=-8.03D-07 OVMax= 2.09D-04

 Cycle  11  Pass 1  IDiag  1:
 RMSU=  4.86D-07    CP:  1.00D+00  1.06D+00  8.03D-01  1.37D+00  1.17D+00
 E= -2048.74452628982     Delta-E=       -0.000000245663 Rises=F Damp=F
 DIIS: error= 1.08D-05 at cycle   6 NSaved=   6.
 NSaved= 6 IEnMin= 6 EnMin= -2048.74452628982     IErMin= 6 ErrMin= 1.08D-05
 ErrMax= 1.08D-05  0.00D+00 EMaxC= 1.00D-01 BMatC= 2.67D-08 BMatP= 1.16D-07
 IDIUse=1 WtCom= 1.00D+00 WtEn= 0.00D+00
 Coeff-Com:  0.465D-02-0.443D-01-0.113D+00-0.398D-02 0.514D+00 0.642D+00
 Coeff:      0.465D-02-0.443D-01-0.113D+00-0.398D-02 0.514D+00 0.642D+00
 Gap=     0.274 Goal=   None    Shift=    0.000
 RMSDP=3.68D-07 MaxDP=3.76D-05 DE=-2.46D-07 OVMax= 1.10D-04

 Cycle  12  Pass 1  IDiag  1:
 RMSU=  1.85D-07    CP:  1.00D+00  1.06D+00  8.04D-01  1.44D+00  1.30D+00
                    CP:  9.26D-01
 E= -2048.74452632883     Delta-E=       -0.000000039012 Rises=F Damp=F
 DIIS: error= 1.18D-06 at cycle   7 NSaved=   7.
 NSaved= 7 IEnMin= 7 EnMin= -2048.74452632883     IErMin= 7 ErrMin= 1.18D-06
 ErrMax= 1.18D-06  0.00D+00 EMaxC= 1.00D-01 BMatC= 8.59D-10 BMatP= 2.67D-08
 IDIUse=1 WtCom= 1.00D+00 WtEn= 0.00D+00
 Coeff-Com:  0.121D-02-0.808D-02-0.224D-01-0.738D-02 0.662D-01 0.157D+00
 Coeff-Com:  0.814D+00
 Coeff:      0.121D-02-0.808D-02-0.224D-01-0.738D-02 0.662D-01 0.157D+00
 Coeff:      0.814D+00
 Gap=     0.274 Goal=   None    Shift=    0.000
 RMSDP=8.06D-08 MaxDP=5.41D-06 DE=-3.90D-08 OVMax= 1.95D-05

 Cycle  13  Pass 1  IDiag  1:
 RMSU=  5.03D-08    CP:  1.00D+00  1.06D+00  8.04D-01  1.45D+00  1.32D+00
                    CP:  1.01D+00  1.12D+00
 E= -2048.74452633051     Delta-E=       -0.000000001673 Rises=F Damp=F
 DIIS: error= 6.03D-07 at cycle   8 NSaved=   8.
 NSaved= 8 IEnMin= 8 EnMin= -2048.74452633051     IErMin= 8 ErrMin= 6.03D-07
 ErrMax= 6.03D-07  0.00D+00 EMaxC= 1.00D-01 BMatC= 3.32D-10 BMatP= 8.59D-10
 IDIUse=1 WtCom= 1.00D+00 WtEn= 0.00D+00
 Coeff-Com: -0.662D-03 0.810D-02 0.193D-01-0.100D-02-0.109D+00-0.918D-01
 Coeff-Com:  0.413D+00 0.762D+00
 Coeff:     -0.662D-03 0.810D-02 0.193D-01-0.100D-02-0.109D+00-0.918D-01
 Coeff:      0.413D+00 0.762D+00
 Gap=     0.274 Goal=   None    Shift=    0.000
 RMSDP=4.83D-08 MaxDP=2.91D-06 DE=-1.67D-09 OVMax= 1.02D-05

 Cycle  14  Pass 1  IDiag  1:
 RMSU=  2.76D-08    CP:  1.00D+00  1.06D+00  8.03D-01  1.46D+00  1.33D+00
                    CP:  1.05D+00  1.27D+00  1.05D+00
 E= -2048.74452633119     Delta-E=       -0.000000000680 Rises=F Damp=F
 DIIS: error= 2.41D-07 at cycle   9 NSaved=   9.
 NSaved= 9 IEnMin= 9 EnMin= -2048.74452633119     IErMin= 9 ErrMin= 2.41D-07
 ErrMax= 2.41D-07  0.00D+00 EMaxC= 1.00D-01 BMatC= 3.57D-11 BMatP= 3.32D-10
 IDIUse=1 WtCom= 1.00D+00 WtEn= 0.00D+00
 Coeff-Com: -0.440D-03 0.466D-02 0.115D-01 0.931D-03-0.562D-01-0.590D-01
 Coeff-Com:  0.897D-01 0.328D+00 0.681D+00
 Coeff:     -0.440D-03 0.466D-02 0.115D-01 0.931D-03-0.562D-01-0.590D-01
 Coeff:      0.897D-01 0.328D+00 0.681D+00
 Gap=     0.274 Goal=   None    Shift=    0.000
 RMSDP=1.35D-08 MaxDP=8.35D-07 DE=-6.80D-10 OVMax= 3.05D-06

 Cycle  15  Pass 1  IDiag  1:
 RMSU=  9.26D-09    CP:  1.00D+00  1.06D+00  8.03D-01  1.46D+00  1.33D+00
                    CP:  1.06D+00  1.29D+00  1.20D+00  1.09D+00
 E= -2048.74452633125     Delta-E=       -0.000000000057 Rises=F Damp=F
 DIIS: error= 6.80D-08 at cycle  10 NSaved=  10.
 NSaved=10 IEnMin=10 EnMin= -2048.74452633125     IErMin=10 ErrMin= 6.80D-08
 ErrMax= 6.80D-08  0.00D+00 EMaxC= 1.00D-01 BMatC= 4.91D-12 BMatP= 3.57D-11
 IDIUse=1 WtCom= 1.00D+00 WtEn= 0.00D+00
 Coeff-Com: -0.159D-05-0.237D-03-0.444D-03 0.114D-03 0.453D-02 0.396D-03
 Coeff-Com: -0.542D-01-0.548D-01 0.239D+00 0.866D+00
 Coeff:     -0.159D-05-0.237D-03-0.444D-03 0.114D-03 0.453D-02 0.396D-03
 Coeff:     -0.542D-01-0.548D-01 0.239D+00 0.866D+00
 Gap=     0.274 Goal=   None    Shift=    0.000
 RMSDP=6.91D-09 MaxDP=4.22D-07 DE=-5.73D-11 OVMax= 1.49D-06

 SCF Done:  E(RwB97XD) =  -2048.74452633     A.U. after   15 cycles
            NFock= 15  Conv=0.69D-08     -V/T= 2.0054
 KE= 2.037679835272D+03 PE=-1.563911655732D+04 EE= 6.123576913891D+03
 Leave Link  502 at Fri Jan 26 03:34:42 2018, MaxMem=  4294967296 cpu:           19844.3 elap:             644.1
 (Enter /share/apps/g16/l601.exe)
 Copying SCF densities to generalized density rwf, IOpCl= 0 IROHF=0.

 **********************************************************************

            Population analysis using the SCF density.

 **********************************************************************

 Orbital symmetries:
       Occupied  (A) (A) (A) (A) (A) (A) (A) (A) (A) (A) (A) (A)
                 (A) (A) (A) (A) (A) (A) (A) (A) (A) (A) (A) (A)
                 (A) (A) (A) (A) (A) (A) (A) (A) (A) (A) (A) (A)
                 (A) (A) (A) (A) (A) (A) (A) (A) (A) (A) (A) (A)
                 (A) (A) (A) (A) (A) (A) (A) (A) (A) (A) (A) (A)
                 (A) (A) (A) (A) (A) (A) (A) (A) (A) (A) (A) (A)
                 (A) (A) (A) (A) (A) (A) (A) (A) (A) (A) (A) (A)
                 (A) (A) (A) (A) (A) (A) (A) (A) (A) (A) (A) (A)
                 (A) (A) (A) (A) (A) (A) (A) (A) (A) (A) (A) (A)
                 (A) (A) (A) (A) (A) (A) (A) (A) (A) (A) (A) (A)
                 (A) (A) (A) (A) (A) (A) (A) (A) (A) (A) (A) (A)
                 (A) (A) (A) (A) (A) (A) (A) (A) (A) (A) (A) (A)
                 (A) (A) (A) (A) (A) (A) (A) (A) (A) (A)
       Virtual   (A) (A) (A) (A) (A) (A) (A) (A) (A) (A) (A) (A)
                 (A) (A) (A) (A) (A) (A) (A) (A) (A) (A) (A) (A)
                 (A) (A) (A) (A) (A) (A) (A) (A) (A) (A) (A) (A)
                 (A) (A) (A) (A) (A) (A) (A) (A) (A) (A) (A) (A)
                 (A) (A) (A) (A) (A) (A) (A) (A) (A) (A) (A) (A)
                 (A) (A) (A) (A) (A) (A) (A) (A) (A) (A) (A) (A)
                 (A) (A) (A) (A) (A) (A) (A) (A) (A) (A) (A) (A)
                 (A) (A) (A) (A) (A) (A) (A) (A) (A) (A) (A) (A)
                 (A) (A) (A) (A) (A) (A) (A) (A) (A) (A) (A) (A)
                 (A) (A) (A) (A) (A) (A) (A) (A) (A) (A) (A) (A)
                 (A) (A) (A) (A) (A) (A) (A) (A) (A) (A) (A) (A)
                 (A) (A) (A) (A) (A) (A) (A) (A) (A) (A) (A) (A)
                 (A) (A) (A) (A) (A) (A) (A) (A) (A) (A) (A) (A)
                 (A) (A) (A) (A) (A) (A) (A) (A) (A) (A) (A) (A)
                 (A) (A) (A) (A) (A) (A) (A) (A) (A) (A) (A) (A)
                 (A) (A) (A) (A) (A) (A) (A) (A) (A) (A) (A) (A)
                 (A) (A) (A) (A) (A) (A) (A) (A) (A) (A) (A) (A)
                 (A) (A) (A) (A) (A) (A) (A) (A) (A) (A) (A) (A)
                 (A) (A) (A) (A) (A) (A) (A) (A) (A) (A) (A) (A)
                 (A) (A) (A) (A) (A) (A) (A) (A) (A) (A) (A) (A)
                 (A) (A) (A) (A) (A) (A) (A) (A) (A) (A) (A) (A)
                 (A) (A) (A) (A) (A) (A) (A) (A) (A) (A) (A) (A)
                 (A) (A) (A) (A) (A) (A) (A) (A) (A) (A) (A) (A)
                 (A) (A) (A) (A) (A) (A) (A) (A) (A) (A) (A) (A)
                 (A) (A) (A) (A) (A) (A) (A) (A) (A) (A) (A) (A)
                 (A) (A) (A) (A) (A) (A) (A) (A) (A) (A) (A) (A)
                 (A) (A) (A) (A) (A) (A) (A) (A) (A) (A) (A) (A)
                 (A) (A) (A) (A) (A) (A) (A) (A) (A) (A) (A) (A)
                 (A) (A) (A) (A) (A) (A) (A) (A) (A) (A) (A) (A)
                 (A) (A) (A) (A) (A) (A) (A) (A) (A) (A) (A) (A)
                 (A) (A) (A) (A) (A) (A) (A) (A) (A) (A) (A) (A)
                 (A) (A) (A) (A) (A) (A) (A) (A) (A) (A) (A) (A)
                 (A) (A) (A) (A) (A) (A) (A) (A) (A) (A) (A) (A)
                 (A) (A) (A) (A) (A) (A) (A) (A) (A) (A) (A) (A)
                 (A) (A) (A) (A) (A) (A) (A) (A) (A) (A) (A) (A)
                 (A) (A) (A) (A) (A) (A) (A) (A) (A) (A) (A) (A)
                 (A) (A) (A) (A) (A) (A) (A) (A) (A) (A) (A) (A)
                 (A) (A) (A) (A) (A) (A) (A) (A) (A) (A) (A) (A)
                 (A) (A) (A) (A) (A) (A) (A) (A) (A) (A) (A) (A)
                 (A) (A) (A) (A) (A) (A) (A) (A) (A) (A) (A) (A)
                 (A) (A) (A) (A) (A) (A) (A) (A) (A) (A) (A) (A)
                 (A) (A) (A) (A) (A) (A) (A) (A) (A) (A) (A) (A)
                 (A) (A) (A) (A) (A) (A) (A) (A) (A) (A) (A) (A)
                 (A) (A) (A) (A) (A) (A) (A) (A) (A) (A) (A) (A)
                 (A) (A) (A) (A) (A) (A) (A) (A) (A) (A) (A) (A)
                 (A) (A) (A) (A) (A) (A) (A) (A) (A) (A) (A) (A)
                 (A) (A) (A) (A) (A) (A) (A) (A) (A) (A) (A) (A)
                 (A) (A) (A) (A) (A) (A) (A) (A) (A) (A) (A) (A)
                 (A) (A) (A) (A) (A) (A) (A)
 The electronic state is 1-A.
 Alpha  occ. eigenvalues --  -19.26135 -19.22604 -19.20735 -14.52745 -14.52071
 Alpha  occ. eigenvalues --  -14.48873 -14.48110 -14.48091 -14.47995 -14.47092
 Alpha  occ. eigenvalues --  -14.46896 -14.45162 -14.43883 -14.43835 -14.42168
 Alpha  occ. eigenvalues --  -14.41568 -14.40899 -14.40714 -14.40231 -14.39594
 Alpha  occ. eigenvalues --  -10.45760 -10.41384 -10.40619 -10.39553 -10.38336
 Alpha  occ. eigenvalues --  -10.38278 -10.37665 -10.36759 -10.35266 -10.35208
 Alpha  occ. eigenvalues --  -10.34760 -10.34441 -10.33607 -10.33408 -10.33353
 Alpha  occ. eigenvalues --  -10.32664 -10.32452 -10.32285 -10.31605 -10.31021
 Alpha  occ. eigenvalues --  -10.30424 -10.28199 -10.27825  -1.19706  -1.14801
 Alpha  occ. eigenvalues --   -1.13556  -1.13333  -1.10684  -1.10654  -1.09654
 Alpha  occ. eigenvalues --   -1.08921  -1.08701  -1.04495  -1.04329  -1.02811
 Alpha  occ. eigenvalues --   -1.00635  -0.99932  -0.99759  -0.98670  -0.96683
 Alpha  occ. eigenvalues --   -0.96502  -0.96222  -0.91999  -0.91493  -0.87228
 Alpha  occ. eigenvalues --   -0.85560  -0.84216  -0.83794  -0.83288  -0.82608
 Alpha  occ. eigenvalues --   -0.81694  -0.79268  -0.76672  -0.74747  -0.74401
 Alpha  occ. eigenvalues --   -0.73832  -0.73660  -0.72262  -0.70406  -0.70074
 Alpha  occ. eigenvalues --   -0.67539  -0.66844  -0.66489  -0.65659  -0.64720
 Alpha  occ. eigenvalues --   -0.63965  -0.63934  -0.62832  -0.62061  -0.61894
 Alpha  occ. eigenvalues --   -0.60291  -0.60080  -0.59920  -0.59812  -0.59276
 Alpha  occ. eigenvalues --   -0.59034  -0.58557  -0.56723  -0.56213  -0.55983
 Alpha  occ. eigenvalues --   -0.55773  -0.55005  -0.54758  -0.54689  -0.54396
 Alpha  occ. eigenvalues --   -0.53837  -0.53656  -0.53322  -0.53134  -0.53117
 Alpha  occ. eigenvalues --   -0.52610  -0.52416  -0.51187  -0.50351  -0.50084
 Alpha  occ. eigenvalues --   -0.49728  -0.49652  -0.49379  -0.49128  -0.48885
 Alpha  occ. eigenvalues --   -0.48538  -0.48432  -0.48238  -0.47837  -0.47537
 Alpha  occ. eigenvalues --   -0.46320  -0.45751  -0.44791  -0.44352  -0.44209
 Alpha  occ. eigenvalues --   -0.40452  -0.40307  -0.39672  -0.37508  -0.37402
 Alpha  occ. eigenvalues --   -0.37377  -0.37121  -0.36493  -0.36144  -0.34623
 Alpha  occ. eigenvalues --   -0.34090  -0.33853  -0.33642  -0.32925  -0.32849
 Alpha  occ. eigenvalues --   -0.32704  -0.32494  -0.32374  -0.31939  -0.30259
 Alpha  occ. eigenvalues --   -0.29818  -0.29668  -0.25705  -0.24936
 Alpha virt. eigenvalues --    0.02423   0.04365   0.07531   0.08062   0.08651
 Alpha virt. eigenvalues --    0.09151   0.09629   0.10906   0.11703   0.11725
 Alpha virt. eigenvalues --    0.12522   0.14340   0.14429   0.14971   0.15157
 Alpha virt. eigenvalues --    0.15440   0.16620   0.17369   0.17563   0.17698
 Alpha virt. eigenvalues --    0.18047   0.19658   0.20029   0.20210   0.20592
 Alpha virt. eigenvalues --    0.20753   0.20965   0.21115   0.21728   0.22118
 Alpha virt. eigenvalues --    0.22494   0.22609   0.23241   0.23518   0.23809
 Alpha virt. eigenvalues --    0.24237   0.24412   0.24668   0.24887   0.24944
 Alpha virt. eigenvalues --    0.25487   0.25851   0.26864   0.27309   0.28052
 Alpha virt. eigenvalues --    0.29039   0.29366   0.29750   0.30435   0.31122
 Alpha virt. eigenvalues --    0.31397   0.31593   0.32443   0.33050   0.33378
 Alpha virt. eigenvalues --    0.34071   0.34352   0.35139   0.35800   0.36434
 Alpha virt. eigenvalues --    0.36717   0.37149   0.37868   0.39255   0.39276
 Alpha virt. eigenvalues --    0.39862   0.40498   0.41003   0.41223   0.41665
 Alpha virt. eigenvalues --    0.42494   0.42958   0.43549   0.43795   0.44625
 Alpha virt. eigenvalues --    0.44948   0.45390   0.46382   0.46629   0.46924
 Alpha virt. eigenvalues --    0.47492   0.47721   0.48529   0.48918   0.49405
 Alpha virt. eigenvalues --    0.49557   0.50061   0.50377   0.50556   0.50984
 Alpha virt. eigenvalues --    0.51501   0.51823   0.52252   0.52442   0.53445
 Alpha virt. eigenvalues --    0.53601   0.54067   0.54348   0.54944   0.55254
 Alpha virt. eigenvalues --    0.55799   0.56466   0.56609   0.56800   0.57392
 Alpha virt. eigenvalues --    0.57582   0.57852   0.58113   0.58876   0.59245
 Alpha virt. eigenvalues --    0.59717   0.60301   0.60476   0.60783   0.60971
 Alpha virt. eigenvalues --    0.61536   0.61824   0.62475   0.62592   0.63239
 Alpha virt. eigenvalues --    0.63796   0.63992   0.64577   0.64736   0.65180
 Alpha virt. eigenvalues --    0.65893   0.65937   0.66658   0.66875   0.67431
 Alpha virt. eigenvalues --    0.67748   0.67852   0.68167   0.68421   0.68939
 Alpha virt. eigenvalues --    0.69504   0.69608   0.69707   0.70789   0.70905
 Alpha virt. eigenvalues --    0.71066   0.71370   0.72154   0.72457   0.73324
 Alpha virt. eigenvalues --    0.73798   0.74194   0.74514   0.74710   0.75263
 Alpha virt. eigenvalues --    0.75574   0.75691   0.76004   0.76370   0.77047
 Alpha virt. eigenvalues --    0.77173   0.77545   0.77701   0.78107   0.78312
 Alpha virt. eigenvalues --    0.78425   0.78826   0.79192   0.79811   0.80412
 Alpha virt. eigenvalues --    0.80722   0.81439   0.81745   0.81873   0.82655
 Alpha virt. eigenvalues --    0.82839   0.83421   0.84020   0.84346   0.84697
 Alpha virt. eigenvalues --    0.84783   0.85564   0.86754   0.87074   0.87507
 Alpha virt. eigenvalues --    0.87637   0.88104   0.88492   0.89117   0.89622
 Alpha virt. eigenvalues --    0.89907   0.91171   0.91351   0.91603   0.91813
 Alpha virt. eigenvalues --    0.92107   0.92387   0.93114   0.93634   0.93693
 Alpha virt. eigenvalues --    0.94630   0.94946   0.95079   0.95569   0.96557
 Alpha virt. eigenvalues --    0.96690   0.97287   0.97886   0.98094   0.98374
 Alpha virt. eigenvalues --    0.98938   0.99420   0.99475   0.99977   1.00202
 Alpha virt. eigenvalues --    1.00860   1.01478   1.01666   1.01785   1.02390
 Alpha virt. eigenvalues --    1.02989   1.03504   1.03816   1.04475   1.04776
 Alpha virt. eigenvalues --    1.05187   1.05372   1.06087   1.06278   1.07143
 Alpha virt. eigenvalues --    1.07446   1.07742   1.08704   1.09617   1.10643
 Alpha virt. eigenvalues --    1.11406   1.11846   1.12094   1.12411   1.12911
 Alpha virt. eigenvalues --    1.13380   1.14211   1.14313   1.14692   1.14787
 Alpha virt. eigenvalues --    1.15177   1.15585   1.16022   1.16487   1.16956
 Alpha virt. eigenvalues --    1.17351   1.17721   1.18154   1.18588   1.18919
 Alpha virt. eigenvalues --    1.19666   1.20066   1.20210   1.20610   1.20772
 Alpha virt. eigenvalues --    1.21551   1.21918   1.22295   1.22538   1.23015
 Alpha virt. eigenvalues --    1.23285   1.23572   1.23618   1.24178   1.24459
 Alpha virt. eigenvalues --    1.24654   1.25013   1.25544   1.25877   1.26364
 Alpha virt. eigenvalues --    1.27548   1.28071   1.28403   1.30016   1.30759
 Alpha virt. eigenvalues --    1.30910   1.31929   1.32303   1.32561   1.33177
 Alpha virt. eigenvalues --    1.34110   1.34556   1.34765   1.35747   1.36436
 Alpha virt. eigenvalues --    1.36676   1.37149   1.37994   1.39044   1.39737
 Alpha virt. eigenvalues --    1.40618   1.41020   1.41768   1.42107   1.42985
 Alpha virt. eigenvalues --    1.45166   1.45396   1.46447   1.46520   1.47434
 Alpha virt. eigenvalues --    1.47595   1.48449   1.48834   1.49328   1.50004
 Alpha virt. eigenvalues --    1.50118   1.51566   1.52343   1.53385   1.53619
 Alpha virt. eigenvalues --    1.54803   1.54981   1.56019   1.56499   1.56613
 Alpha virt. eigenvalues --    1.57453   1.58341   1.58968   1.59498   1.59752
 Alpha virt. eigenvalues --    1.60548   1.61367   1.61952   1.62282   1.62858
 Alpha virt. eigenvalues --    1.63236   1.63613   1.64348   1.64789   1.66193
 Alpha virt. eigenvalues --    1.66813   1.67473   1.67568   1.68759   1.69413
 Alpha virt. eigenvalues --    1.69627   1.69760   1.69950   1.70353   1.70998
 Alpha virt. eigenvalues --    1.71521   1.71656   1.72215   1.72441   1.72871
 Alpha virt. eigenvalues --    1.73312   1.73787   1.73878   1.74325   1.74708
 Alpha virt. eigenvalues --    1.75215   1.75697   1.75926   1.75990   1.76580
 Alpha virt. eigenvalues --    1.76798   1.77074   1.77476   1.77826   1.78223
 Alpha virt. eigenvalues --    1.78457   1.79024   1.79484   1.80183   1.80373
 Alpha virt. eigenvalues --    1.80455   1.80539   1.80846   1.80876   1.81352
 Alpha virt. eigenvalues --    1.81940   1.82431   1.82614   1.83362   1.83848
 Alpha virt. eigenvalues --    1.84598   1.85193   1.85391   1.85584   1.86292
 Alpha virt. eigenvalues --    1.86487   1.87529   1.88245   1.88562   1.88685
 Alpha virt. eigenvalues --    1.89147   1.89327   1.90152   1.90234   1.91030
 Alpha virt. eigenvalues --    1.91363   1.91596   1.91970   1.92540   1.93345
 Alpha virt. eigenvalues --    1.93885   1.94222   1.95034   1.95760   1.96420
 Alpha virt. eigenvalues --    1.97477   1.97887   1.98429   1.99655   2.00283
 Alpha virt. eigenvalues --    2.00974   2.01379   2.01928   2.02110   2.02803
 Alpha virt. eigenvalues --    2.03482   2.04123   2.05967   2.05993   2.06434
 Alpha virt. eigenvalues --    2.07045   2.07560   2.07934   2.08413   2.08801
 Alpha virt. eigenvalues --    2.09495   2.09647   2.10868   2.11214   2.11721
 Alpha virt. eigenvalues --    2.12467   2.14048   2.14307   2.15674   2.17459
 Alpha virt. eigenvalues --    2.18304   2.18838   2.19941   2.20412   2.20510
 Alpha virt. eigenvalues --    2.21367   2.22019   2.22121   2.22726   2.23356
 Alpha virt. eigenvalues --    2.23849   2.24276   2.24928   2.25466   2.26074
 Alpha virt. eigenvalues --    2.26900   2.27623   2.28225   2.28885   2.29421
 Alpha virt. eigenvalues --    2.30145   2.30287   2.30751   2.31028   2.32168
 Alpha virt. eigenvalues --    2.32567   2.33235   2.33627   2.33774   2.34156
 Alpha virt. eigenvalues --    2.35003   2.35296   2.36011   2.36516   2.36650
 Alpha virt. eigenvalues --    2.36828   2.37731   2.38689   2.39761   2.41059
 Alpha virt. eigenvalues --    2.42307   2.42608   2.42904   2.43720   2.44004
 Alpha virt. eigenvalues --    2.44347   2.44742   2.45210   2.45920   2.47218
 Alpha virt. eigenvalues --    2.47483   2.47865   2.49375   2.50852   2.51371
 Alpha virt. eigenvalues --    2.51730   2.53149   2.54079   2.54728   2.54870
 Alpha virt. eigenvalues --    2.56135   2.56831   2.57266   2.58619   2.59024
 Alpha virt. eigenvalues --    2.60620   2.60873   2.61631   2.62376   2.63041
 Alpha virt. eigenvalues --    2.63371   2.63792   2.64888   2.65137   2.65576
 Alpha virt. eigenvalues --    2.65817   2.67268   2.68006   2.68049   2.68700
 Alpha virt. eigenvalues --    2.69275   2.69603   2.69757   2.70802   2.71955
 Alpha virt. eigenvalues --    2.72794   2.74046   2.74298   2.74997   2.76235
 Alpha virt. eigenvalues --    2.77227   2.77341   2.78450   2.78762   2.79272
 Alpha virt. eigenvalues --    2.79335   2.80165   2.80608   2.80655   2.80954
 Alpha virt. eigenvalues --    2.81435   2.81646   2.82423   2.83375   2.83832
 Alpha virt. eigenvalues --    2.84609   2.84910   2.85838   2.85971   2.86609
 Alpha virt. eigenvalues --    2.87128   2.87639   2.88408   2.91244   2.92229
 Alpha virt. eigenvalues --    2.93773   2.94588   2.95598   2.96833   2.98811
 Alpha virt. eigenvalues --    2.99879   3.00464   3.01058   3.04165   3.04810
 Alpha virt. eigenvalues --    3.05624   3.09425   3.10671   3.12857   3.14686
 Alpha virt. eigenvalues --    3.15419   3.15926   3.16249   3.17293   3.19794
 Alpha virt. eigenvalues --    3.21165   3.22238   3.23206   3.24490   3.25249
 Alpha virt. eigenvalues --    3.44933   3.47254   3.47383   3.49418   3.49822
 Alpha virt. eigenvalues --    3.53441   3.54220   3.56019   3.57589   3.59586
 Alpha virt. eigenvalues --    3.62735   3.70249   3.74329
          Condensed to atoms (all electrons):
 Mulliken charges:
               1
     1  N   -0.312464
     2  C    0.181473
     3  C    0.042620
     4  N   -0.257772
     5  C    0.134262
     6  H    0.024386
     7  N   -0.298356
     8  C    0.140071
     9  H    0.007255
    10  N   -0.292663
    11  C    0.251102
    12  C    0.118462
    13  N   -0.055509
    14  H    0.113500
    15  H    0.084344
    16  H    0.023464
    17  H    0.032663
    18  H    0.025526
    19  N   -0.312339
    20  C    0.248694
    21  C    0.180915
    22  N   -0.117386
    23  H    0.114316
    24  H    0.115600
    25  N   -0.309797
    26  C    0.242565
    27  N   -0.146087
    28  H    0.118460
    29  C    0.185639
    30  O   -0.320173
    31  C   -0.006643
    32  N   -0.225332
    33  C    0.131171
    34  H    0.026215
    35  H    0.028993
    36  H    0.028565
    37  H    0.024893
    38  H    0.063467
    39  H    0.059036
    40  H    0.074536
    41  H    0.032124
    42  C   -0.111010
    43  O   -0.263097
    44  C    0.146611
    45  H    0.133780
    46  N   -0.114991
    47  O   -0.343802
    48  C    0.340284
    49  H    0.048428
    50  C    0.157314
    51  C    0.040812
    52  N   -0.279427
    53  H    0.033910
    54  H    0.043401
    55  H    0.025041
    56  H    0.128922
    57  H    0.115392
    58  N   -0.064049
    59  C    0.082541
    60  C    0.242072
    61  N   -0.267467
    62  H    0.040792
    63  C    0.167312
    64  N   -0.306535
    65  H    0.035353
    66  C    0.137622
    67  N   -0.271637
    68  C    0.037051
    69  C    0.178604
    70  N   -0.313024
 Sum of Mulliken charges =  -0.00000
 Mulliken charges with hydrogens summed into heavy atoms:
               1
     1  N   -0.312464
     2  C    0.263126
     3  C    0.042620
     4  N   -0.257772
     5  C    0.158648
     7  N   -0.298356
     8  C    0.147326
    10  N   -0.292663
    11  C    0.251102
    12  C    0.118462
    13  N    0.142336
    19  N   -0.312339
    20  C    0.248694
    21  C    0.263366
    22  N    0.112530
    25  N   -0.309797
    26  C    0.242565
    27  N   -0.027627
    29  C    0.185639
    30  O   -0.320173
    31  C   -0.006643
    32  N   -0.225332
    33  C    0.157385
    42  C   -0.078886
    43  O   -0.263097
    44  C    0.146611
    46  N    0.018789
    47  O   -0.343802
    48  C    0.340284
    50  C    0.205742
    51  C    0.237851
    52  N   -0.279427
    58  N    0.180266
    59  C    0.082541
    60  C    0.242072
    61  N   -0.267467
    63  C    0.208104
    64  N   -0.306535
    66  C    0.172975
    67  N   -0.271637
    68  C    0.037051
    69  C    0.280956
    70  N   -0.313024
 Electronic spatial extent (au):  <R**2>=          22460.6235
 Charge=             -0.0000 electrons
 Dipole moment (field-independent basis, Debye):
    X=              9.3655    Y=              5.5291    Z=              0.9123  Tot=             10.9141
 Quadrupole moment (field-independent basis, Debye-Ang):
   XX=           -160.3894   YY=           -211.7933   ZZ=           -250.5506
   XY=             -5.0888   XZ=              0.0671   YZ=             -2.8356
 Traceless Quadrupole moment (field-independent basis, Debye-Ang):
   XX=             47.1883   YY=             -4.2155   ZZ=            -42.9728
   XY=             -5.0888   XZ=              0.0671   YZ=             -2.8356
 Octapole moment (field-independent basis, Debye-Ang**2):
  XXX=            -46.9745  YYY=            142.8219  ZZZ=             -0.3916  XYY=             81.5334
  XXY=            -11.6023  XXZ=            -33.7497  XZZ=             61.7077  YZZ=             38.7788
  YYZ=             23.7655  XYZ=             86.0740
 Hexadecapole moment (field-independent basis, Debye-Ang**3):
 XXXX=         -14070.4318 YYYY=          -6964.6117 ZZZZ=          -4136.9867 XXXY=            510.0166
 XXXZ=           -125.0944 YYYX=           -227.6310 YYYZ=            -67.7702 ZZZX=             62.5807
 ZZZY=             91.4846 XXYY=          -3186.9272 XXZZ=          -3536.3006 YYZZ=          -1867.6261
 XXYZ=            144.9077 YYXZ=            181.6440 ZZXY=             76.7195
 N-N= 5.429115281829D+03 E-N=-1.563911655539D+04  KE= 2.037679835272D+03
 No NMR shielding tensors so no spin-rotation constants.
 Leave Link  601 at Fri Jan 26 03:34:45 2018, MaxMem=  4294967296 cpu:              72.0 elap:               2.5
 (Enter /share/apps/g16/l9999.exe)
 1\1\GINC-COMPUTE-0-3\SP\RwB97XD\CC-pVDZ\C23H27N17O3\SATYA\26-Jan-2018\
 0\\#p wb97xd/cc-pvdz sp scf=(maxcycles=20)\\Base pair stacking\\0,1\N,
 0,6.92047,-1.33005,-4.65313\C,0,8.31655,-0.85481,-4.59735\C,0,4.75766,
 -1.47456,-5.02553\N,0,5.12027,-2.6497,-4.38344\C,0,6.40877,-2.5156,-4.
 18478\H,0,7.04139,-3.25764,-3.6968\N,0,3.50679,0.21359,-6.09718\C,0,4.
 65263,0.89588,-6.19264\H,0,4.576,1.86786,-6.67807\N,0,5.87317,0.55936,
 -5.78043\C,0,5.85666,-0.65131,-5.19869\C,0,3.52334,-1.00134,-5.50663\N
 ,0,2.38055,-1.68395,-5.41039\H,0,2.346,-2.58707,-4.98098\H,0,1.52047,-
 1.31608,-5.76405\H,0,8.90772,-1.49441,-5.08889\H,0,8.37917,0.04835,-5.
 02105\H,0,8.61271,-0.79517,-3.64408\N,0,3.54043,3.81884,-3.0054\C,0,2.
 29104,3.28357,-3.20684\C,0,3.89962,5.2398,-3.18583\N,0,-1.04478,3.6802
 8,-4.08811\H,0,-1.85774,3.10538,-4.17656\H,0,-1.15186,4.65273,-4.29692
 \N,0,1.19048,3.96034,-3.60027\C,0,0.13634,3.17099,-3.7067\N,0,0.15635,
 1.82183,-3.44808\H,0,-0.69772,1.29655,-3.55581\C,0,1.27737,1.10463,-3.
 0421\O,0,1.18831,-0.11186,-2.83481\C,0,2.41768,1.93918,-2.92333\N,0,3.
 72035,1.63652,-2.5514\C,0,4.34848,2.77919,-2.61444\H,0,5.40532,2.92031
 ,-2.38543\H,0,4.61235,5.31937,-3.88188\H,0,3.09219,5.75108,-3.47725\H,
 0,4.23502,5.61289,-2.32146\H,0,-5.10492,-0.85654,-4.89501\H,0,-5.41938
 ,-0.80187,-3.16216\H,0,-4.42733,0.4459,-3.91733\H,0,-2.49165,-4.61176,
 -3.40649\C,0,-2.43318,-3.52353,-3.43021\O,0,-0.09971,-3.45603,-3.0089\
 C,0,-1.16944,-2.88553,-3.22102\H,0,-0.33272,-1.02017,-3.12804\N,0,-1.2
 0654,-1.50663,-3.27126\O,0,-2.23907,0.50041,-3.52196\C,0,-2.30564,-0.7
 1595,-3.49566\H,0,-4.50728,-3.21558,-3.81631\C,0,-3.523,-2.77926,-3.65
 147\C,0,-4.68875,-0.60175,-3.93171\N,0,-3.48711,-1.40459,-3.68832\H,0,
 -2.93597,3.57148,-9.24326\H,0,-1.8711,3.86117,-8.04149\H,0,-3.47391,3.
 9846,-7.75888\H,0,-1.08957,-2.79269,-5.90354\H,0,-2.64313,-2.50394,-6.
 54633\N,0,-1.73566,-2.15061,-6.31639\C,0,-1.4029,-0.8795,-6.55034\C,0,
 -1.78486,1.3434,-7.30833\N,0,-0.55893,1.79025,-6.98921\H,0,1.18194,1.0
 9081,-6.16413\C,0,0.16928,0.81287,-6.45316\N,0,-0.16219,-0.46086,-6.21
 801\H,0,-4.80995,1.47863,-8.44091\C,0,-3.8553,1.1746,-8.01062\N,0,-3.5
 8418,-0.03181,-7.57615\C,0,-2.27448,0.06147,-7.12814\C,0,-2.76974,3.48
 259,-8.26119\N,0,-2.81151,2.05773,-7.87906\\Version=EM64L-G16RevA.03\S
 tate=1-A\HF=-2048.7445263\RMSD=6.911e-09\Dipole=-3.6515049,1.9869039,-
 1.0754108\Quadrupole=33.2489438,-2.5948806,-30.6540632,5.3021724,9.732
 1822,0.8330185\PG=C01 [X(C23H27N17O3)]\\@


 WHEN ALL ELSE FAILS, LOOK AT THE SCHRODINGER EQUATION.
     -- RUSSELL T. PACK, APRIL 1978
 Job cpu time:       0 days  5 hours 41 minutes  9.6 seconds.
 Elapsed time:       0 days  0 hours 11 minutes  4.1 seconds.
 File lengths (MBytes):  RWF=    298 Int=      0 D2E=      0 Chk=     33 Scr=      1
 Normal termination of Gaussian 16 at Fri Jan 26 03:34:45 2018.
