 Entering Gaussian System, Link 0=g16
 Input=str55.-10.-1.0.com
 Output=str55.-10.-1.0.log
 Initial command:
 /share/apps/g16/l1.exe "/state/partition1/scr/Gau-21708.inp" -scrdir="/state/partition1/scr/"
 Entering Link 1 = /share/apps/g16/l1.exe PID=     21709.
  
 Copyright (c) 1988,1990,1992,1993,1995,1998,2003,2009,2016,
            Gaussian, Inc.  All Rights Reserved.
  
 This is part of the Gaussian(R) 16 program.  It is based on
 the Gaussian(R) 09 system (copyright 2009, Gaussian, Inc.),
 the Gaussian(R) 03 system (copyright 2003, Gaussian, Inc.),
 the Gaussian(R) 98 system (copyright 1998, Gaussian, Inc.),
 the Gaussian(R) 94 system (copyright 1995, Gaussian, Inc.),
 the Gaussian 92(TM) system (copyright 1992, Gaussian, Inc.),
 the Gaussian 90(TM) system (copyright 1990, Gaussian, Inc.),
 the Gaussian 88(TM) system (copyright 1988, Gaussian, Inc.),
 the Gaussian 86(TM) system (copyright 1986, Carnegie Mellon
 University), and the Gaussian 82(TM) system (copyright 1983,
 Carnegie Mellon University). Gaussian is a federally registered
 trademark of Gaussian, Inc.
  
 This software contains proprietary and confidential information,
 including trade secrets, belonging to Gaussian, Inc.
  
 This software is provided under written license and may be
 used, copied, transmitted, or stored only in accord with that
 written license.
  
 The following legend is applicable only to US Government
 contracts under FAR:
  
                    RESTRICTED RIGHTS LEGEND
  
 Use, reproduction and disclosure by the US Government is
 subject to restrictions as set forth in subparagraphs (a)
 and (c) of the Commercial Computer Software - Restricted
 Rights clause in FAR 52.227-19.
  
 Gaussian, Inc.
 340 Quinnipiac St., Bldg. 40, Wallingford CT 06492
  
  
 ---------------------------------------------------------------
 Warning -- This program may not be used in any manner that
 competes with the business of Gaussian, Inc. or will provide
 assistance to any competitor of Gaussian, Inc.  The licensee
 of this program is prohibited from giving any competitor of
 Gaussian, Inc. access to this program.  By using this program,
 the user acknowledges that Gaussian, Inc. is engaged in the
 business of creating and licensing software in the field of
 computational chemistry and represents and warrants to the
 licensee that it is not a competitor of Gaussian, Inc. and that
 it will not use this program in any manner prohibited above.
 ---------------------------------------------------------------
  

 Cite this work as:
 Gaussian 16, Revision A.03,
 M. J. Frisch, G. W. Trucks, H. B. Schlegel, G. E. Scuseria, 
 M. A. Robb, J. R. Cheeseman, G. Scalmani, V. Barone, 
 G. A. Petersson, H. Nakatsuji, X. Li, M. Caricato, A. V. Marenich, 
 J. Bloino, B. G. Janesko, R. Gomperts, B. Mennucci, H. P. Hratchian, 
 J. V. Ortiz, A. F. Izmaylov, J. L. Sonnenberg, D. Williams-Young, 
 F. Ding, F. Lipparini, F. Egidi, J. Goings, B. Peng, A. Petrone, 
 T. Henderson, D. Ranasinghe, V. G. Zakrzewski, J. Gao, N. Rega, 
 G. Zheng, W. Liang, M. Hada, M. Ehara, K. Toyota, R. Fukuda, 
 J. Hasegawa, M. Ishida, T. Nakajima, Y. Honda, O. Kitao, H. Nakai, 
 T. Vreven, K. Throssell, J. A. Montgomery, Jr., J. E. Peralta, 
 F. Ogliaro, M. J. Bearpark, J. J. Heyd, E. N. Brothers, K. N. Kudin, 
 V. N. Staroverov, T. A. Keith, R. Kobayashi, J. Normand, 
 K. Raghavachari, A. P. Rendell, J. C. Burant, S. S. Iyengar, 
 J. Tomasi, M. Cossi, J. M. Millam, M. Klene, C. Adamo, R. Cammi, 
 J. W. Ochterski, R. L. Martin, K. Morokuma, O. Farkas, 
 J. B. Foresman, and D. J. Fox, Gaussian, Inc., Wallingford CT, 2016.
 
 ******************************************
 Gaussian 16:  EM64L-G16RevA.03 25-Dec-2016
                25-Jan-2018 
 ******************************************
 %nprocshared=32
 Will use up to   32 processors via shared memory.
 %mem=32GB
 %chk=allatoms_t.chk
 ---------------------------------------
 #p wb97xd/cc-pvdz sp scf=(maxcycles=20)
 ---------------------------------------
 1/38=1,172=1/1;
 2/12=2,17=6,18=5,40=1/2;
 3/5=16,11=2,25=1,30=1,74=-58/1,2,3;
 4//1;
 5/5=2,7=20,38=5/2;
 6/7=2,8=2,9=2,10=2,28=1/1;
 99/5=1,9=1/99;
 Leave Link    1 at Thu Jan 25 23:21:33 2018, MaxMem=  4294967296 cpu:               2.7 elap:               0.1
 (Enter /share/apps/g16/l101.exe)
 ------------------
 Base pair stacking
 ------------------
 Symbolic Z-matrix:
 Charge =  0 Multiplicity = 1
 N                     6.27582   0.85921  -7.63367 
 C                     7.63289   1.40488  -7.83014 
 C                     4.12097   0.66281  -7.23952 
 N                     4.58859  -0.61959  -7.48753 
 C                     5.8681   -0.44994  -7.71507 
 H                     6.56793  -1.25262  -7.94933 
 N                     2.7176    2.49223  -6.7428 
 C                     3.80551   3.26058  -6.85973 
 H                     3.64252   4.32519  -6.69755 
 N                     5.05863   2.91292  -7.14558 
 C                     5.14944   1.58491  -7.32606 
 C                     2.84192   1.16014  -6.93028 
 N                     1.75709   0.3915   -6.81399 
 H                     1.80254  -0.59955  -6.94433 
 H                     0.86246   0.77985  -6.59273 
 H                     7.9487    1.19171  -8.75481 
 H                     7.61557   2.39645  -7.70519 
 H                     8.25783   0.99757  -7.16416 
 N                     3.27327   4.72646  -3.44353 
 C                     2.01476   4.19214  -3.30681 
 C                     3.58902   6.16855  -3.48087 
 N                    -1.41182   4.62221  -2.9389 
 H                    -2.22248   4.04409  -2.85029 
 H                    -1.5567    5.61193  -2.9256 
 N                     0.86441   4.88913  -3.18458 
 C                    -0.18515   4.09487  -3.06974 
 N                    -0.11563   2.72277  -3.07404 
 H                    -0.97015   2.19545  -2.98082 
 C                     1.05711   1.98451  -3.19859 
 O                     1.01024   0.74819  -3.19067 
 C                     2.19317   2.82403  -3.32284 
 N                     3.53666   2.50586  -3.46674 
 C                     4.13761   3.6628   -3.53412 
 H                     5.2135    3.79786  -3.65026 
 H                     4.0295    6.39263  -4.34953 
 H                     2.74453   6.69491  -3.39117 
 H                     4.2042    6.39639  -2.72691 
 H                    -5.62702   0.15956  -3.12721 
 H                    -5.34174  -0.09964  -1.40789 
 H                    -4.62687   1.2939   -2.21929 
 H                    -2.76714  -3.70616  -3.28167 
 C                    -2.69105  -2.62912  -3.13192 
 O                    -0.35024  -2.5564   -3.50937 
 C                    -1.41369  -1.99456  -3.24821 
 H                    -0.5448   -0.14651  -3.11377 
 N                    -1.42877  -0.63013  -3.04001 
 O                    -2.43186   1.35339  -2.57453 
 C                    -2.51812   0.14953  -2.74171 
 H                    -4.76577  -2.32963  -2.74252 
 C                    -3.77186  -1.89537  -2.84197 
 C                    -4.9058    0.2565   -2.3294 
 N                    -3.71381  -0.53493  -2.6465 
 H                    -4.11183   6.16853  -5.15348 
 H                    -2.6636    5.92198  -4.44359 
 H                    -4.03855   5.68178  -3.59748 
 H                    -1.73808  -0.71962  -6.56209 
 H                    -3.38787  -0.33396  -6.36319 
 N                    -2.43185  -0.04213  -6.31749 
 C                    -2.09806   1.19573  -5.94672 
 C                    -2.53528   3.42228  -5.23047 
 N                    -1.24333   3.78633  -5.17819 
 H                     0.6109    2.98182  -5.51764 
 C                    -0.45764   2.77143  -5.53255 
 N                    -0.79003   1.53088  -5.90423 
 H                    -5.74148   3.75022  -4.97559 
 C                    -4.72583   3.38782  -5.13707 
 N                    -4.42094   2.17534  -5.53029 
 C                    -3.03507   2.18377  -5.59355 
 C                    -3.60988   5.60457  -4.49774 
 N                    -3.63321   4.19575  -4.93667 
 
 ITRead=  0  0  0  0  0  0  0  0  0  0  0  0  0  0  0  0  0  0  0  0
 ITRead=  0  0  0  0  0  0  0  0  0  0  0  0  0  0  0  0  0  0  0  0
 ITRead=  0  0  0  0  0  0  0  0  0  0  0  0  0  0  0  0  0  0  0  0
 ITRead=  0  0  0  0  0  0  0  0  0  0
 MicOpt= -1 -1 -1 -1 -1 -1 -1 -1 -1 -1 -1 -1 -1 -1 -1 -1 -1 -1 -1 -1
 MicOpt= -1 -1 -1 -1 -1 -1 -1 -1 -1 -1 -1 -1 -1 -1 -1 -1 -1 -1 -1 -1
 MicOpt= -1 -1 -1 -1 -1 -1 -1 -1 -1 -1 -1 -1 -1 -1 -1 -1 -1 -1 -1 -1
 MicOpt= -1 -1 -1 -1 -1 -1 -1 -1 -1 -1
 NAtoms=     70 NQM=       70 NQMF=       0 NMMI=      0 NMMIF=      0
                NMic=       0 NMicF=      0.
                    Isotopes and Nuclear Properties:
 (Nuclear quadrupole moments (NQMom) in fm**2, nuclear magnetic moments (NMagM)
  in nuclear magnetons)

  Atom         1           2           3           4           5           6           7           8           9          10
 IAtWgt=          14          12          12          14          12           1          14          12           1          14
 AtmWgt=  14.0030740  12.0000000  12.0000000  14.0030740  12.0000000   1.0078250  14.0030740  12.0000000   1.0078250  14.0030740
 NucSpn=           2           0           0           2           0           1           2           0           1           2
 AtZEff=  -0.0000000  -0.0000000  -0.0000000  -0.0000000  -0.0000000  -0.0000000  -0.0000000  -0.0000000  -0.0000000  -0.0000000
 NQMom=    2.0440000   0.0000000   0.0000000   2.0440000   0.0000000   0.0000000   2.0440000   0.0000000   0.0000000   2.0440000
 NMagM=    0.4037610   0.0000000   0.0000000   0.4037610   0.0000000   2.7928460   0.4037610   0.0000000   2.7928460   0.4037610
 AtZNuc=   7.0000000   6.0000000   6.0000000   7.0000000   6.0000000   1.0000000   7.0000000   6.0000000   1.0000000   7.0000000

  Atom        11          12          13          14          15          16          17          18          19          20
 IAtWgt=          12          12          14           1           1           1           1           1          14          12
 AtmWgt=  12.0000000  12.0000000  14.0030740   1.0078250   1.0078250   1.0078250   1.0078250   1.0078250  14.0030740  12.0000000
 NucSpn=           0           0           2           1           1           1           1           1           2           0
 AtZEff=  -0.0000000  -0.0000000  -0.0000000  -0.0000000  -0.0000000  -0.0000000  -0.0000000  -0.0000000  -0.0000000  -0.0000000
 NQMom=    0.0000000   0.0000000   2.0440000   0.0000000   0.0000000   0.0000000   0.0000000   0.0000000   2.0440000   0.0000000
 NMagM=    0.0000000   0.0000000   0.4037610   2.7928460   2.7928460   2.7928460   2.7928460   2.7928460   0.4037610   0.0000000
 AtZNuc=   6.0000000   6.0000000   7.0000000   1.0000000   1.0000000   1.0000000   1.0000000   1.0000000   7.0000000   6.0000000

  Atom        21          22          23          24          25          26          27          28          29          30
 IAtWgt=          12          14           1           1          14          12          14           1          12          16
 AtmWgt=  12.0000000  14.0030740   1.0078250   1.0078250  14.0030740  12.0000000  14.0030740   1.0078250  12.0000000  15.9949146
 NucSpn=           0           2           1           1           2           0           2           1           0           0
 AtZEff=  -0.0000000  -0.0000000  -0.0000000  -0.0000000  -0.0000000  -0.0000000  -0.0000000  -0.0000000  -0.0000000  -0.0000000
 NQMom=    0.0000000   2.0440000   0.0000000   0.0000000   2.0440000   0.0000000   2.0440000   0.0000000   0.0000000   0.0000000
 NMagM=    0.0000000   0.4037610   2.7928460   2.7928460   0.4037610   0.0000000   0.4037610   2.7928460   0.0000000   0.0000000
 AtZNuc=   6.0000000   7.0000000   1.0000000   1.0000000   7.0000000   6.0000000   7.0000000   1.0000000   6.0000000   8.0000000

  Atom        31          32          33          34          35          36          37          38          39          40
 IAtWgt=          12          14          12           1           1           1           1           1           1           1
 AtmWgt=  12.0000000  14.0030740  12.0000000   1.0078250   1.0078250   1.0078250   1.0078250   1.0078250   1.0078250   1.0078250
 NucSpn=           0           2           0           1           1           1           1           1           1           1
 AtZEff=  -0.0000000  -0.0000000  -0.0000000  -0.0000000  -0.0000000  -0.0000000  -0.0000000  -0.0000000  -0.0000000  -0.0000000
 NQMom=    0.0000000   2.0440000   0.0000000   0.0000000   0.0000000   0.0000000   0.0000000   0.0000000   0.0000000   0.0000000
 NMagM=    0.0000000   0.4037610   0.0000000   2.7928460   2.7928460   2.7928460   2.7928460   2.7928460   2.7928460   2.7928460
 AtZNuc=   6.0000000   7.0000000   6.0000000   1.0000000   1.0000000   1.0000000   1.0000000   1.0000000   1.0000000   1.0000000

  Atom        41          42          43          44          45          46          47          48          49          50
 IAtWgt=           1          12          16          12           1          14          16          12           1          12
 AtmWgt=   1.0078250  12.0000000  15.9949146  12.0000000   1.0078250  14.0030740  15.9949146  12.0000000   1.0078250  12.0000000
 NucSpn=           1           0           0           0           1           2           0           0           1           0
 AtZEff=  -0.0000000  -0.0000000  -0.0000000  -0.0000000  -0.0000000  -0.0000000  -0.0000000  -0.0000000  -0.0000000  -0.0000000
 NQMom=    0.0000000   0.0000000   0.0000000   0.0000000   0.0000000   2.0440000   0.0000000   0.0000000   0.0000000   0.0000000
 NMagM=    2.7928460   0.0000000   0.0000000   0.0000000   2.7928460   0.4037610   0.0000000   0.0000000   2.7928460   0.0000000
 AtZNuc=   1.0000000   6.0000000   8.0000000   6.0000000   1.0000000   7.0000000   8.0000000   6.0000000   1.0000000   6.0000000

  Atom        51          52          53          54          55          56          57          58          59          60
 IAtWgt=          12          14           1           1           1           1           1          14          12          12
 AtmWgt=  12.0000000  14.0030740   1.0078250   1.0078250   1.0078250   1.0078250   1.0078250  14.0030740  12.0000000  12.0000000
 NucSpn=           0           2           1           1           1           1           1           2           0           0
 AtZEff=  -0.0000000  -0.0000000  -0.0000000  -0.0000000  -0.0000000  -0.0000000  -0.0000000  -0.0000000  -0.0000000  -0.0000000
 NQMom=    0.0000000   2.0440000   0.0000000   0.0000000   0.0000000   0.0000000   0.0000000   2.0440000   0.0000000   0.0000000
 NMagM=    0.0000000   0.4037610   2.7928460   2.7928460   2.7928460   2.7928460   2.7928460   0.4037610   0.0000000   0.0000000
 AtZNuc=   6.0000000   7.0000000   1.0000000   1.0000000   1.0000000   1.0000000   1.0000000   7.0000000   6.0000000   6.0000000

  Atom        61          62          63          64          65          66          67          68          69          70
 IAtWgt=          14           1          12          14           1          12          14          12          12          14
 AtmWgt=  14.0030740   1.0078250  12.0000000  14.0030740   1.0078250  12.0000000  14.0030740  12.0000000  12.0000000  14.0030740
 NucSpn=           2           1           0           2           1           0           2           0           0           2
 AtZEff=  -0.0000000  -0.0000000  -0.0000000  -0.0000000  -0.0000000  -0.0000000  -0.0000000  -0.0000000  -0.0000000  -0.0000000
 NQMom=    2.0440000   0.0000000   0.0000000   2.0440000   0.0000000   0.0000000   2.0440000   0.0000000   0.0000000   2.0440000
 NMagM=    0.4037610   2.7928460   0.0000000   0.4037610   2.7928460   0.0000000   0.4037610   0.0000000   0.0000000   0.4037610
 AtZNuc=   7.0000000   1.0000000   6.0000000   7.0000000   1.0000000   6.0000000   7.0000000   6.0000000   6.0000000   7.0000000
 Leave Link  101 at Thu Jan 25 23:21:33 2018, MaxMem=  4294967296 cpu:               6.5 elap:               0.2
 (Enter /share/apps/g16/l202.exe)
 Stoichiometry    C23H27N17O3
 Framework group  C1[X(C23H27N17O3)]
 Deg. of freedom   204
 Full point group                 C1      NOp   1
 Largest Abelian subgroup         C1      NOp   1
 Largest concise Abelian subgroup C1      NOp   1
                         Standard orientation:                         
 ---------------------------------------------------------------------
 Center     Atomic      Atomic             Coordinates (Angstroms)
 Number     Number       Type             X           Y           Z
 ---------------------------------------------------------------------
      1          7           0       -6.410410   -1.652659    0.621157
      2          6           0       -7.801275   -1.188736    0.453037
      3          6           0       -4.232414   -1.715708    0.920596
      4          7           0       -4.644699   -3.034056    0.791341
      5          6           0       -5.940370   -2.943307    0.616116
      6          1           0       -6.608249   -3.793880    0.476841
      7          7           0       -2.903125    0.210916    1.210541
      8          6           0       -4.033202    0.915482    1.091821
      9          1           0       -3.917632    1.995889    1.166832
     10          7           0       -5.278743    0.487830    0.895285
     11          6           0       -5.309662   -0.852871    0.817857
     12          6           0       -2.967587   -1.135976    1.128106
     13          7           0       -1.840599   -1.841027    1.246377
     14          1           0       -1.841203   -2.840153    1.191781
     15          1           0       -0.957763   -1.394827    1.393487
     16          1           0       -8.372624   -1.574424    1.177604
     17          1           0       -7.829008   -0.190840    0.503619
     18          1           0       -8.148616   -1.485485   -0.436499
     19          7           0       -2.579385    2.989988   -1.680425
     20          6           0       -1.301452    2.523716   -1.486736
     21          6           0       -3.010963    4.392314   -1.513274
     22          7           0        2.018137    3.106371   -0.648518
     23          1           0        2.861153    2.576142   -0.562340
     24          1           0        2.076083    4.085688   -0.452834
     25          7           0       -0.233895    3.262345   -1.114189
     26          6           0        0.861441    2.530885   -1.010173
     27          7           0        0.909740    1.179341   -1.252051
     28          1           0        1.791405    0.701080   -1.147679
     29          6           0       -0.176247    0.399111   -1.636414
     30          8           0       -0.025469   -0.813571   -1.829838
     31          6           0       -1.360140    1.171007   -1.752340
     32          7           0       -2.648995    0.795607   -2.105657
     33          6           0       -3.335715    1.904409   -2.049403
     34          1           0       -4.400921    1.986875   -2.268045
     35          1           0       -3.719363    4.443232   -0.810151
     36          1           0       -2.228498    4.948987   -1.237361
     37          1           0       -3.374834    4.736170   -2.378245
     38          1           0        6.320050   -1.200203    0.167317
     39          1           0        6.612526   -1.151261   -1.569546
     40          1           0        5.564320    0.052233   -0.818393
     41          1           0        3.892338   -5.106263   -1.245293
     42          6           0        3.776886   -4.022392   -1.234197
     43          8           0        1.438700   -4.082962   -1.629626
     44          6           0        2.479121   -3.454388   -1.436719
     45          1           0        1.544360   -1.636896   -1.542917
     46          7           0        2.444081   -2.074921   -1.403749
     47          8           0        3.372094   -0.013354   -1.189398
     48          6           0        3.502349   -1.224780   -1.201597
     49          1           0        5.835917   -3.600985   -0.875595
     50          6           0        4.828315   -3.219129   -1.034506
     51          6           0        5.880701   -0.979970   -0.794206
     52          7           0        4.720459   -1.847880   -1.014035
     53          1           0        3.745070    4.298711    2.542337
     54          1           0        2.619523    4.145562    1.371102
     55          1           0        4.205808    4.100130    0.989367
     56          1           0        1.636989   -2.792628    1.964074
     57          1           0        3.227088   -2.332584    2.376440
     58          7           0        2.312917   -2.063418    2.071370
     59          6           0        2.009737   -0.788413    1.819125
     60          6           0        2.461060    1.542114    1.655871
     61          7           0        1.225234    1.874333    1.247502
     62          1           0       -0.567136    0.971502    0.831642
     63          6           0        0.456262    0.791036    1.157760
     64          7           0        0.758059   -0.486816    1.409961
     65          1           0        5.545322    1.997894    2.511336
     66          6           0        4.564660    1.584744    2.273503
     67          7           0        4.254725    0.313250    2.343710
     68          6           0        2.923678    0.272379    1.954669
     69          6           0        3.523980    3.849453    1.676723
     70          7           0        3.526547    2.385588    1.863991
 ---------------------------------------------------------------------
 Rotational constants (GHZ):           0.1239410           0.0584392           0.0491124
 Leave Link  202 at Thu Jan 25 23:21:33 2018, MaxMem=  4294967296 cpu:               0.3 elap:               0.0
 (Enter /share/apps/g16/l301.exe)
 Standard basis: CC-pVDZ (5D, 7F)
 Ernie: Thresh=  0.10000D-02 Tol=  0.10000D-05 Strict=F.
 Ernie:  86 primitive shells out of 1081 were deleted.
 There are   780 symmetry adapted cartesian basis functions of A   symmetry.
 There are   737 symmetry adapted basis functions of A   symmetry.
   737 basis functions,  1608 primitive gaussians,   780 cartesian basis functions
   154 alpha electrons      154 beta electrons
       nuclear repulsion energy      5497.5380933555 Hartrees.
 IExCor= 4639 DFT=T Ex+Corr=wB97XD ExCW=0 ScaHFX=  1.000000
 ScaDFX=  1.000000  1.000000  1.000000  1.000000 ScalE2=  1.000000  1.000000
 IRadAn=      5 IRanWt=     -1 IRanGd=            0 ICorTp=0 IEmpDi=121
 HFx  wShort=  0.000000 wLong=  0.200000 cFull=  0.222036 cShort=  0.000000 cLong=  0.777964
 DFx  wShort=  0.000000 wLong=  0.200000 cFull=  0.000000 cShort=  0.000000 cLong=  1.000000
 NAtoms=   70 NActive=   70 NUniq=   70 SFac= 1.00D+00 NAtFMM=   60 NAOKFM=T Big=T
 Integral buffers will be    131072 words long.
 Raffenetti 2 integral format.
 Two-electron integral symmetry is turned on.
 R6Disp:  Grimme-D2 Dispersion energy=       -0.0698551349 Hartrees.
 Nuclear repulsion after empirical dispersion term =     5497.4682382207 Hartrees.
 Leave Link  301 at Thu Jan 25 23:21:33 2018, MaxMem=  4294967296 cpu:               2.1 elap:               0.1
 (Enter /share/apps/g16/l302.exe)
 NPDir=0 NMtPBC=     1 NCelOv=     1 NCel=       1 NClECP=     1 NCelD=      1
         NCelK=      1 NCelE2=     1 NClLst=     1 CellRange=     0.0.
 One-electron integrals computed using PRISM.
 One-electron integral symmetry used in STVInt
 NBasis=   737 RedAO= T EigKep=  6.82D-04  NBF=   737
 NBsUse=   737 1.00D-06 EigRej= -1.00D+00 NBFU=   737
 Precomputing XC quadrature grid using
 IXCGrd= 4 IRadAn=           5 IRanWt=          -1 IRanGd=           0 AccXCQ= 0.00D+00.
 Generated NRdTot=       0 NPtTot=           0 NUsed=           0 NTot=          32
 NSgBfM=   769   769   769   769   769 MxSgAt=    70 MxSgA2=    70.
 Leave Link  302 at Thu Jan 25 23:21:38 2018, MaxMem=  4294967296 cpu:             134.0 elap:               4.2
 (Enter /share/apps/g16/l303.exe)
 DipDrv:  MaxL=1.
 Leave Link  303 at Thu Jan 25 23:21:38 2018, MaxMem=  4294967296 cpu:              12.5 elap:               0.4
 (Enter /share/apps/g16/l401.exe)
 ExpMin= 1.22D-01 ExpMax= 1.17D+04 ExpMxC= 4.01D+02 IAcc=3 IRadAn=         5 AccDes= 0.00D+00
 Harris functional with IExCor= 4639 and IRadAn=       5 diagonalized for initial guess.
 HarFok:  IExCor= 4639 AccDes= 0.00D+00 IRadAn=         5 IDoV= 1 UseB2=F ITyADJ=14
 ICtDFT=  3500011 ScaDFX=  1.000000  1.000000  1.000000  1.000000
 FoFCou: FMM=F IPFlag=           0 FMFlag=      100000 FMFlg1=        2001
         NFxFlg=           0 DoJE=T BraDBF=F KetDBF=T FulRan=T
         wScrn=  0.000000 ICntrl=       500 IOpCl=  0 I1Cent=   200000004 NGrid=           0
         NMat0=    1 NMatS0=      1 NMatT0=    0 NMatD0=    1 NMtDS0=    0 NMtDT0=    0
 Petite list used in FoFCou.
 Harris En= -1963.82703626724    
 JPrj=0 DoOrth=F DoCkMO=F.
 Leave Link  401 at Thu Jan 25 23:21:50 2018, MaxMem=  4294967296 cpu:             397.7 elap:              12.5
 (Enter /share/apps/g16/l502.exe)
 Integral symmetry usage will be decided dynamically.
 Closed shell SCF:
 Using DIIS extrapolation, IDIIS=  1040.
 NGot=  4294967296 LenX=  4293717438 LenY=  4293108258
 Requested convergence on RMS density matrix=1.00D-08 within  20 cycles.
 Requested convergence on MAX density matrix=1.00D-06.
 Requested convergence on             energy=1.00D-06.
 No special actions if energy rises.
 Fock matrices will be formed incrementally for  20 cycles.
 Integral accuracy reduced to 1.0D-05 until final iterations.

 Cycle   1  Pass 0  IDiag  1:
 FoFJK:  IHMeth= 1 ICntrl=       0 DoSepK=T KAlg= 0 I1Cent=           0 FoldK=F
 IRaf=         1 NMat=       1 IRICut=       1 DoRegI=T DoRafI=F ISym2E= 0 IDoP0=0 IntGTp=1.
 FoFCou: FMM=T IPFlag=           0 FMFlag=      100000 FMFlg1=        2001
         NFxFlg=           0 DoJE=T BraDBF=F KetDBF=F FulRan=T
         wScrn=  0.000000 ICntrl=       500 IOpCl=  0 I1Cent=           0 NGrid=           0
         NMat0=    1 NMatS0=      1 NMatT0=    0 NMatD0=    1 NMtDS0=    0 NMtDT0=    0
 Symmetry not used in FoFCou.
 FMM levels:  10  Number of levels for PrismC:   9
 E= -2048.26395499030    
 DIIS: error= 2.42D-02 at cycle   1 NSaved=   1.
 NSaved= 1 IEnMin= 1 EnMin= -2048.26395499030     IErMin= 1 ErrMin= 2.42D-02
 ErrMax= 2.42D-02  0.00D+00 EMaxC= 1.00D-01 BMatC= 8.33D-01 BMatP= 8.33D-01
 IDIUse=3 WtCom= 7.58D-01 WtEn= 2.42D-01
 Coeff-Com:  0.100D+01
 Coeff-En:   0.100D+01
 Coeff:      0.100D+01
 Gap=     0.257 Goal=   None    Shift=    0.000
 GapD=    0.257 DampG=1.000 DampE=0.500 DampFc=0.5000 IDamp=-1.
 Damping current iteration by 5.00D-01
 RMSDP=1.59D-03 MaxDP=1.31D-01              OVMax= 1.76D-01

 Cycle   2  Pass 0  IDiag  1:
 RMSU=  7.95D-04    CP:  9.97D-01
 E= -2048.46329038799     Delta-E=       -0.199335397692 Rises=F Damp=T
 DIIS: error= 1.34D-02 at cycle   2 NSaved=   2.
 NSaved= 2 IEnMin= 2 EnMin= -2048.46329038799     IErMin= 2 ErrMin= 1.34D-02
 ErrMax= 1.34D-02  0.00D+00 EMaxC= 1.00D-01 BMatC= 1.45D-01 BMatP= 8.33D-01
 IDIUse=3 WtCom= 8.66D-01 WtEn= 1.34D-01
 Coeff-Com: -0.197D+00 0.120D+01
 Coeff-En:   0.000D+00 0.100D+01
 Coeff:     -0.170D+00 0.117D+01
 Gap=     0.361 Goal=   None    Shift=    0.000
 RMSDP=5.87D-04 MaxDP=3.44D-02 DE=-1.99D-01 OVMax= 1.59D-01

 Cycle   3  Pass 0  IDiag  1:
 RMSU=  5.73D-04    CP:  9.94D-01  1.15D+00
 E= -2048.64717029161     Delta-E=       -0.183879903611 Rises=F Damp=F
 DIIS: error= 8.52D-03 at cycle   3 NSaved=   3.
 NSaved= 3 IEnMin= 3 EnMin= -2048.64717029161     IErMin= 3 ErrMin= 8.52D-03
 ErrMax= 8.52D-03  0.00D+00 EMaxC= 1.00D-01 BMatC= 6.01D-02 BMatP= 1.45D-01
 IDIUse=3 WtCom= 9.15D-01 WtEn= 8.52D-02
 Coeff-Com: -0.228D+00 0.539D+00 0.689D+00
 Coeff-En:   0.000D+00 0.000D+00 0.100D+01
 Coeff:     -0.209D+00 0.493D+00 0.715D+00
 Gap=     0.278 Goal=   None    Shift=    0.000
 RMSDP=3.49D-04 MaxDP=3.47D-02 DE=-1.84D-01 OVMax= 7.62D-02

 Cycle   4  Pass 0  IDiag  1:
 RMSU=  2.03D-04    CP:  9.94D-01  1.42D+00  6.83D-01
 E= -2048.69215916327     Delta-E=       -0.044988871666 Rises=F Damp=F
 DIIS: error= 3.35D-03 at cycle   4 NSaved=   4.
 NSaved= 4 IEnMin= 4 EnMin= -2048.69215916327     IErMin= 4 ErrMin= 3.35D-03
 ErrMax= 3.35D-03  0.00D+00 EMaxC= 1.00D-01 BMatC= 9.22D-03 BMatP= 6.01D-02
 IDIUse=3 WtCom= 9.67D-01 WtEn= 3.35D-02
 Coeff-Com: -0.937D-01 0.182D+00 0.385D+00 0.527D+00
 Coeff-En:   0.000D+00 0.000D+00 0.729D-01 0.927D+00
 Coeff:     -0.906D-01 0.176D+00 0.374D+00 0.541D+00
 Gap=     0.283 Goal=   None    Shift=    0.000
 RMSDP=1.28D-04 MaxDP=1.30D-02 DE=-4.50D-02 OVMax= 1.28D-02

 Cycle   5  Pass 0  IDiag  1:
 RMSU=  6.23D-05    CP:  9.93D-01  1.39D+00  8.16D-01  6.12D-01
 E= -2048.69967396648     Delta-E=       -0.007514803205 Rises=F Damp=F
 DIIS: error= 7.21D-04 at cycle   5 NSaved=   5.
 NSaved= 5 IEnMin= 5 EnMin= -2048.69967396648     IErMin= 5 ErrMin= 7.21D-04
 ErrMax= 7.21D-04  0.00D+00 EMaxC= 1.00D-01 BMatC= 2.99D-04 BMatP= 9.22D-03
 IDIUse=3 WtCom= 9.93D-01 WtEn= 7.21D-03
 Coeff-Com: -0.232D-01 0.394D-01 0.121D+00 0.239D+00 0.623D+00
 Coeff-En:   0.000D+00 0.000D+00 0.000D+00 0.000D+00 0.100D+01
 Coeff:     -0.230D-01 0.391D-01 0.120D+00 0.238D+00 0.626D+00
 Gap=     0.283 Goal=   None    Shift=    0.000
 RMSDP=2.60D-05 MaxDP=2.21D-03 DE=-7.51D-03 OVMax= 3.01D-03

 Failed to achieve initial convergence to 1.0D-08 in  6 cycles.
 Switch to full accuracy anyway.
 Cycle   6  Pass 1  IDiag  1:
 E= -2048.70010089633     Delta-E=       -0.000426929853 Rises=F Damp=F
 DIIS: error= 2.02D-04 at cycle   1 NSaved=   1.
 NSaved= 1 IEnMin= 1 EnMin= -2048.70010089633     IErMin= 1 ErrMin= 2.02D-04
 ErrMax= 2.02D-04  0.00D+00 EMaxC= 1.00D-01 BMatC= 8.13D-05 BMatP= 8.13D-05
 IDIUse=3 WtCom= 9.98D-01 WtEn= 2.02D-03
 Coeff-Com:  0.100D+01
 Coeff-En:   0.100D+01
 Coeff:      0.100D+01
 Gap=     0.283 Goal=   None    Shift=    0.000
 RMSDP=2.60D-05 MaxDP=2.21D-03 DE=-4.27D-04 OVMax= 2.42D-03

 Cycle   7  Pass 1  IDiag  1:
 RMSU=  1.21D-04    CP:  1.00D+00
 E= -2048.70016090192     Delta-E=       -0.000060005590 Rises=F Damp=F
 DIIS: error= 2.80D-04 at cycle   2 NSaved=   2.
 NSaved= 2 IEnMin= 2 EnMin= -2048.70016090192     IErMin= 1 ErrMin= 2.02D-04
 ErrMax= 2.80D-04  0.00D+00 EMaxC= 1.00D-01 BMatC= 4.34D-05 BMatP= 8.13D-05
 IDIUse=3 WtCom= 9.97D-01 WtEn= 2.80D-03
 Coeff-Com:  0.394D+00 0.606D+00
 Coeff-En:   0.000D+00 0.100D+01
 Coeff:      0.393D+00 0.607D+00
 Gap=     0.283 Goal=   None    Shift=    0.000
 RMSDP=1.15D-05 MaxDP=1.30D-03 DE=-6.00D-05 OVMax= 1.56D-03

 Cycle   8  Pass 1  IDiag  1:
 RMSU=  1.11D-05    CP:  1.00D+00  1.03D+00
 E= -2048.70019060836     Delta-E=       -0.000029706442 Rises=F Damp=F
 DIIS: error= 1.21D-04 at cycle   3 NSaved=   3.
 NSaved= 3 IEnMin= 3 EnMin= -2048.70019060836     IErMin= 3 ErrMin= 1.21D-04
 ErrMax= 1.21D-04  0.00D+00 EMaxC= 1.00D-01 BMatC= 1.16D-05 BMatP= 4.34D-05
 IDIUse=3 WtCom= 9.99D-01 WtEn= 1.21D-03
 Coeff-Com: -0.189D-01 0.330D+00 0.689D+00
 Coeff-En:   0.000D+00 0.162D+00 0.838D+00
 Coeff:     -0.189D-01 0.330D+00 0.689D+00
 Gap=     0.283 Goal=   None    Shift=    0.000
 RMSDP=5.70D-06 MaxDP=5.22D-04 DE=-2.97D-05 OVMax= 5.86D-04

 Cycle   9  Pass 1  IDiag  1:
 RMSU=  3.77D-06    CP:  1.00D+00  1.05D+00  7.44D-01
 E= -2048.70020083376     Delta-E=       -0.000010225400 Rises=F Damp=F
 DIIS: error= 4.54D-05 at cycle   4 NSaved=   4.
 NSaved= 4 IEnMin= 4 EnMin= -2048.70020083376     IErMin= 4 ErrMin= 4.54D-05
 ErrMax= 4.54D-05  0.00D+00 EMaxC= 1.00D-01 BMatC= 4.98D-07 BMatP= 1.16D-05
 IDIUse=1 WtCom= 1.00D+00 WtEn= 0.00D+00
 Coeff-Com: -0.277D-01 0.956D-01 0.256D+00 0.676D+00
 Coeff:     -0.277D-01 0.956D-01 0.256D+00 0.676D+00
 Gap=     0.283 Goal=   None    Shift=    0.000
 RMSDP=1.39D-06 MaxDP=1.48D-04 DE=-1.02D-05 OVMax= 4.83D-04

 Cycle  10  Pass 1  IDiag  1:
 RMSU=  1.26D-06    CP:  1.00D+00  1.06D+00  7.73D-01  1.09D+00
 E= -2048.70020162619     Delta-E=       -0.000000792425 Rises=F Damp=F
 DIIS: error= 1.61D-05 at cycle   5 NSaved=   5.
 NSaved= 5 IEnMin= 5 EnMin= -2048.70020162619     IErMin= 5 ErrMin= 1.61D-05
 ErrMax= 1.61D-05  0.00D+00 EMaxC= 1.00D-01 BMatC= 1.16D-07 BMatP= 4.98D-07
 IDIUse=1 WtCom= 1.00D+00 WtEn= 0.00D+00
 Coeff-Com: -0.190D-02-0.588D-01-0.121D+00 0.196D+00 0.985D+00
 Coeff:     -0.190D-02-0.588D-01-0.121D+00 0.196D+00 0.985D+00
 Gap=     0.283 Goal=   None    Shift=    0.000
 RMSDP=1.18D-06 MaxDP=7.48D-05 DE=-7.92D-07 OVMax= 2.32D-04

 Cycle  11  Pass 1  IDiag  1:
 RMSU=  4.95D-07    CP:  1.00D+00  1.06D+00  7.83D-01  1.36D+00  1.17D+00
 E= -2048.70020187311     Delta-E=       -0.000000246927 Rises=F Damp=F
 DIIS: error= 1.16D-05 at cycle   6 NSaved=   6.
 NSaved= 6 IEnMin= 6 EnMin= -2048.70020187311     IErMin= 6 ErrMin= 1.16D-05
 ErrMax= 1.16D-05  0.00D+00 EMaxC= 1.00D-01 BMatC= 2.65D-08 BMatP= 1.16D-07
 IDIUse=1 WtCom= 1.00D+00 WtEn= 0.00D+00
 Coeff-Com:  0.448D-02-0.479D-01-0.112D+00-0.262D-02 0.520D+00 0.638D+00
 Coeff:      0.448D-02-0.479D-01-0.112D+00-0.262D-02 0.520D+00 0.638D+00
 Gap=     0.283 Goal=   None    Shift=    0.000
 RMSDP=3.57D-07 MaxDP=3.66D-05 DE=-2.47D-07 OVMax= 1.22D-04

 Cycle  12  Pass 1  IDiag  1:
 RMSU=  1.80D-07    CP:  1.00D+00  1.06D+00  7.83D-01  1.43D+00  1.30D+00
                    CP:  9.31D-01
 E= -2048.70020191173     Delta-E=       -0.000000038617 Rises=F Damp=F
 DIIS: error= 1.20D-06 at cycle   7 NSaved=   7.
 NSaved= 7 IEnMin= 7 EnMin= -2048.70020191173     IErMin= 7 ErrMin= 1.20D-06
 ErrMax= 1.20D-06  0.00D+00 EMaxC= 1.00D-01 BMatC= 7.76D-10 BMatP= 2.65D-08
 IDIUse=1 WtCom= 1.00D+00 WtEn= 0.00D+00
 Coeff-Com:  0.102D-02-0.760D-02-0.190D-01-0.754D-02 0.530D-01 0.138D+00
 Coeff-Com:  0.842D+00
 Coeff:      0.102D-02-0.760D-02-0.190D-01-0.754D-02 0.530D-01 0.138D+00
 Coeff:      0.842D+00
 Gap=     0.283 Goal=   None    Shift=    0.000
 RMSDP=8.35D-08 MaxDP=5.23D-06 DE=-3.86D-08 OVMax= 2.14D-05

 Cycle  13  Pass 1  IDiag  1:
 RMSU=  4.99D-08    CP:  1.00D+00  1.06D+00  7.83D-01  1.44D+00  1.32D+00
                    CP:  1.02D+00  1.14D+00
 E= -2048.70020191340     Delta-E=       -0.000000001666 Rises=F Damp=F
 DIIS: error= 6.50D-07 at cycle   8 NSaved=   8.
 NSaved= 8 IEnMin= 8 EnMin= -2048.70020191340     IErMin= 8 ErrMin= 6.50D-07
 ErrMax= 6.50D-07  0.00D+00 EMaxC= 1.00D-01 BMatC= 3.11D-10 BMatP= 7.76D-10
 IDIUse=1 WtCom= 1.00D+00 WtEn= 0.00D+00
 Coeff-Com: -0.644D-03 0.859D-02 0.191D-01-0.148D-02-0.108D+00-0.899D-01
 Coeff-Com:  0.429D+00 0.744D+00
 Coeff:     -0.644D-03 0.859D-02 0.191D-01-0.148D-02-0.108D+00-0.899D-01
 Coeff:      0.429D+00 0.744D+00
 Gap=     0.283 Goal=   None    Shift=    0.000
 RMSDP=4.45D-08 MaxDP=2.65D-06 DE=-1.67D-09 OVMax= 1.05D-05

 Cycle  14  Pass 1  IDiag  1:
 RMSU=  2.74D-08    CP:  1.00D+00  1.06D+00  7.83D-01  1.44D+00  1.32D+00
                    CP:  1.06D+00  1.27D+00  1.04D+00
 E= -2048.70020191393     Delta-E=       -0.000000000531 Rises=F Damp=F
 DIIS: error= 2.22D-07 at cycle   9 NSaved=   9.
 NSaved= 9 IEnMin= 9 EnMin= -2048.70020191393     IErMin= 9 ErrMin= 2.22D-07
 ErrMax= 2.22D-07  0.00D+00 EMaxC= 1.00D-01 BMatC= 3.53D-11 BMatP= 3.11D-10
 IDIUse=1 WtCom= 1.00D+00 WtEn= 0.00D+00
 Coeff-Com: -0.418D-03 0.491D-02 0.112D-01 0.592D-03-0.556D-01-0.577D-01
 Coeff-Com:  0.941D-01 0.325D+00 0.678D+00
 Coeff:     -0.418D-03 0.491D-02 0.112D-01 0.592D-03-0.556D-01-0.577D-01
 Coeff:      0.941D-01 0.325D+00 0.678D+00
 Gap=     0.283 Goal=   None    Shift=    0.000
 RMSDP=1.37D-08 MaxDP=7.87D-07 DE=-5.31D-10 OVMax= 3.25D-06

 Cycle  15  Pass 1  IDiag  1:
 RMSU=  9.24D-09    CP:  1.00D+00  1.06D+00  7.83D-01  1.44D+00  1.32D+00
                    CP:  1.07D+00  1.30D+00  1.19D+00  1.08D+00
 E= -2048.70020191393     Delta-E=        0.000000000000 Rises=F Damp=F
 DIIS: error= 7.57D-08 at cycle  10 NSaved=  10.
 NSaved=10 IEnMin= 9 EnMin= -2048.70020191393     IErMin=10 ErrMin= 7.57D-08
 ErrMax= 7.57D-08  0.00D+00 EMaxC= 1.00D-01 BMatC= 5.17D-12 BMatP= 3.53D-11
 IDIUse=1 WtCom= 1.00D+00 WtEn= 0.00D+00
 Coeff-Com:  0.369D-05-0.291D-03-0.554D-03 0.170D-03 0.511D-02 0.681D-03
 Coeff-Com: -0.576D-01-0.561D-01 0.251D+00 0.858D+00
 Coeff:      0.369D-05-0.291D-03-0.554D-03 0.170D-03 0.511D-02 0.681D-03
 Coeff:     -0.576D-01-0.561D-01 0.251D+00 0.858D+00
 Gap=     0.283 Goal=   None    Shift=    0.000
 RMSDP=6.98D-09 MaxDP=4.13D-07 DE= 0.00D+00 OVMax= 1.53D-06

 SCF Done:  E(RwB97XD) =  -2048.70020191     A.U. after   15 cycles
            NFock= 15  Conv=0.70D-08     -V/T= 2.0053
 KE= 2.037987284389D+03 PE=-1.577583227480D+04 EE= 6.191676550276D+03
 Leave Link  502 at Thu Jan 25 23:33:13 2018, MaxMem=  4294967296 cpu:           21149.0 elap:             682.5
 (Enter /share/apps/g16/l601.exe)
 Copying SCF densities to generalized density rwf, IOpCl= 0 IROHF=0.

 **********************************************************************

            Population analysis using the SCF density.

 **********************************************************************

 Orbital symmetries:
       Occupied  (A) (A) (A) (A) (A) (A) (A) (A) (A) (A) (A) (A)
                 (A) (A) (A) (A) (A) (A) (A) (A) (A) (A) (A) (A)
                 (A) (A) (A) (A) (A) (A) (A) (A) (A) (A) (A) (A)
                 (A) (A) (A) (A) (A) (A) (A) (A) (A) (A) (A) (A)
                 (A) (A) (A) (A) (A) (A) (A) (A) (A) (A) (A) (A)
                 (A) (A) (A) (A) (A) (A) (A) (A) (A) (A) (A) (A)
                 (A) (A) (A) (A) (A) (A) (A) (A) (A) (A) (A) (A)
                 (A) (A) (A) (A) (A) (A) (A) (A) (A) (A) (A) (A)
                 (A) (A) (A) (A) (A) (A) (A) (A) (A) (A) (A) (A)
                 (A) (A) (A) (A) (A) (A) (A) (A) (A) (A) (A) (A)
                 (A) (A) (A) (A) (A) (A) (A) (A) (A) (A) (A) (A)
                 (A) (A) (A) (A) (A) (A) (A) (A) (A) (A) (A) (A)
                 (A) (A) (A) (A) (A) (A) (A) (A) (A) (A)
       Virtual   (A) (A) (A) (A) (A) (A) (A) (A) (A) (A) (A) (A)
                 (A) (A) (A) (A) (A) (A) (A) (A) (A) (A) (A) (A)
                 (A) (A) (A) (A) (A) (A) (A) (A) (A) (A) (A) (A)
                 (A) (A) (A) (A) (A) (A) (A) (A) (A) (A) (A) (A)
                 (A) (A) (A) (A) (A) (A) (A) (A) (A) (A) (A) (A)
                 (A) (A) (A) (A) (A) (A) (A) (A) (A) (A) (A) (A)
                 (A) (A) (A) (A) (A) (A) (A) (A) (A) (A) (A) (A)
                 (A) (A) (A) (A) (A) (A) (A) (A) (A) (A) (A) (A)
                 (A) (A) (A) (A) (A) (A) (A) (A) (A) (A) (A) (A)
                 (A) (A) (A) (A) (A) (A) (A) (A) (A) (A) (A) (A)
                 (A) (A) (A) (A) (A) (A) (A) (A) (A) (A) (A) (A)
                 (A) (A) (A) (A) (A) (A) (A) (A) (A) (A) (A) (A)
                 (A) (A) (A) (A) (A) (A) (A) (A) (A) (A) (A) (A)
                 (A) (A) (A) (A) (A) (A) (A) (A) (A) (A) (A) (A)
                 (A) (A) (A) (A) (A) (A) (A) (A) (A) (A) (A) (A)
                 (A) (A) (A) (A) (A) (A) (A) (A) (A) (A) (A) (A)
                 (A) (A) (A) (A) (A) (A) (A) (A) (A) (A) (A) (A)
                 (A) (A) (A) (A) (A) (A) (A) (A) (A) (A) (A) (A)
                 (A) (A) (A) (A) (A) (A) (A) (A) (A) (A) (A) (A)
                 (A) (A) (A) (A) (A) (A) (A) (A) (A) (A) (A) (A)
                 (A) (A) (A) (A) (A) (A) (A) (A) (A) (A) (A) (A)
                 (A) (A) (A) (A) (A) (A) (A) (A) (A) (A) (A) (A)
                 (A) (A) (A) (A) (A) (A) (A) (A) (A) (A) (A) (A)
                 (A) (A) (A) (A) (A) (A) (A) (A) (A) (A) (A) (A)
                 (A) (A) (A) (A) (A) (A) (A) (A) (A) (A) (A) (A)
                 (A) (A) (A) (A) (A) (A) (A) (A) (A) (A) (A) (A)
                 (A) (A) (A) (A) (A) (A) (A) (A) (A) (A) (A) (A)
                 (A) (A) (A) (A) (A) (A) (A) (A) (A) (A) (A) (A)
                 (A) (A) (A) (A) (A) (A) (A) (A) (A) (A) (A) (A)
                 (A) (A) (A) (A) (A) (A) (A) (A) (A) (A) (A) (A)
                 (A) (A) (A) (A) (A) (A) (A) (A) (A) (A) (A) (A)
                 (A) (A) (A) (A) (A) (A) (A) (A) (A) (A) (A) (A)
                 (A) (A) (A) (A) (A) (A) (A) (A) (A) (A) (A) (A)
                 (A) (A) (A) (A) (A) (A) (A) (A) (A) (A) (A) (A)
                 (A) (A) (A) (A) (A) (A) (A) (A) (A) (A) (A) (A)
                 (A) (A) (A) (A) (A) (A) (A) (A) (A) (A) (A) (A)
                 (A) (A) (A) (A) (A) (A) (A) (A) (A) (A) (A) (A)
                 (A) (A) (A) (A) (A) (A) (A) (A) (A) (A) (A) (A)
                 (A) (A) (A) (A) (A) (A) (A) (A) (A) (A) (A) (A)
                 (A) (A) (A) (A) (A) (A) (A) (A) (A) (A) (A) (A)
                 (A) (A) (A) (A) (A) (A) (A) (A) (A) (A) (A) (A)
                 (A) (A) (A) (A) (A) (A) (A) (A) (A) (A) (A) (A)
                 (A) (A) (A) (A) (A) (A) (A) (A) (A) (A) (A) (A)
                 (A) (A) (A) (A) (A) (A) (A) (A) (A) (A) (A) (A)
                 (A) (A) (A) (A) (A) (A) (A) (A) (A) (A) (A) (A)
                 (A) (A) (A) (A) (A) (A) (A) (A) (A) (A) (A) (A)
                 (A) (A) (A) (A) (A) (A) (A) (A) (A) (A) (A) (A)
                 (A) (A) (A) (A) (A) (A) (A) (A) (A) (A) (A) (A)
                 (A) (A) (A) (A) (A) (A) (A)
 The electronic state is 1-A.
 Alpha  occ. eigenvalues --  -19.25955 -19.22031 -19.20706 -14.52479 -14.52282
 Alpha  occ. eigenvalues --  -14.48800 -14.48702 -14.47910 -14.47826 -14.46714
 Alpha  occ. eigenvalues --  -14.46128 -14.45148 -14.43584 -14.42805 -14.42301
 Alpha  occ. eigenvalues --  -14.42104 -14.41390 -14.40844 -14.40757 -14.40102
 Alpha  occ. eigenvalues --  -10.45545 -10.41147 -10.40151 -10.39359 -10.38239
 Alpha  occ. eigenvalues --  -10.37882 -10.37691 -10.36583 -10.35405 -10.35079
 Alpha  occ. eigenvalues --  -10.35034 -10.34394 -10.34197 -10.34052 -10.33304
 Alpha  occ. eigenvalues --  -10.33209 -10.33052 -10.32075 -10.31205 -10.30951
 Alpha  occ. eigenvalues --  -10.30888 -10.28488 -10.28129  -1.19512  -1.14977
 Alpha  occ. eigenvalues --   -1.13379  -1.13060  -1.11288  -1.10633  -1.09375
 Alpha  occ. eigenvalues --   -1.09027  -1.08477  -1.04937  -1.04285  -1.02533
 Alpha  occ. eigenvalues --   -1.00956  -1.00429  -0.99796  -0.98613  -0.96947
 Alpha  occ. eigenvalues --   -0.96610  -0.96245  -0.92601  -0.91110  -0.87371
 Alpha  occ. eigenvalues --   -0.85953  -0.84140  -0.83883  -0.83584  -0.82560
 Alpha  occ. eigenvalues --   -0.82268  -0.78937  -0.76727  -0.74745  -0.74497
 Alpha  occ. eigenvalues --   -0.73716  -0.73393  -0.72882  -0.71023  -0.70168
 Alpha  occ. eigenvalues --   -0.67513  -0.66644  -0.66470  -0.66297  -0.64499
 Alpha  occ. eigenvalues --   -0.64100  -0.63808  -0.62871  -0.62704  -0.62129
 Alpha  occ. eigenvalues --   -0.60390  -0.60294  -0.60076  -0.59563  -0.59548
 Alpha  occ. eigenvalues --   -0.59241  -0.58421  -0.57165  -0.56497  -0.56304
 Alpha  occ. eigenvalues --   -0.56029  -0.55822  -0.55432  -0.54865  -0.54361
 Alpha  occ. eigenvalues --   -0.53877  -0.53641  -0.53168  -0.52992  -0.52821
 Alpha  occ. eigenvalues --   -0.52383  -0.52257  -0.51716  -0.50690  -0.50195
 Alpha  occ. eigenvalues --   -0.50167  -0.49448  -0.49404  -0.48840  -0.48802
 Alpha  occ. eigenvalues --   -0.48696  -0.48412  -0.48320  -0.48207  -0.47429
 Alpha  occ. eigenvalues --   -0.46887  -0.46015  -0.45010  -0.43998  -0.43349
 Alpha  occ. eigenvalues --   -0.41122  -0.40229  -0.39503  -0.37848  -0.37318
 Alpha  occ. eigenvalues --   -0.37279  -0.37140  -0.36717  -0.35889  -0.34655
 Alpha  occ. eigenvalues --   -0.34205  -0.33522  -0.33440  -0.33197  -0.32679
 Alpha  occ. eigenvalues --   -0.32453  -0.32035  -0.31940  -0.31802  -0.30756
 Alpha  occ. eigenvalues --   -0.30310  -0.28970  -0.25919  -0.25273
 Alpha virt. eigenvalues --    0.03000   0.04328   0.07551   0.08010   0.08525
 Alpha virt. eigenvalues --    0.09060   0.09415   0.10910   0.11420   0.11952
 Alpha virt. eigenvalues --    0.12514   0.13942   0.14191   0.14641   0.14962
 Alpha virt. eigenvalues --    0.15791   0.15935   0.16663   0.16950   0.17764
 Alpha virt. eigenvalues --    0.18605   0.19338   0.19859   0.20422   0.20440
 Alpha virt. eigenvalues --    0.20942   0.21013   0.21062   0.21305   0.21938
 Alpha virt. eigenvalues --    0.22693   0.23344   0.23397   0.23869   0.23982
 Alpha virt. eigenvalues --    0.24080   0.24133   0.24531   0.24999   0.25504
 Alpha virt. eigenvalues --    0.25768   0.26623   0.27537   0.27995   0.28356
 Alpha virt. eigenvalues --    0.29061   0.29337   0.29559   0.30444   0.30855
 Alpha virt. eigenvalues --    0.31378   0.31961   0.32679   0.33436   0.33729
 Alpha virt. eigenvalues --    0.34163   0.34273   0.34858   0.35908   0.36648
 Alpha virt. eigenvalues --    0.37208   0.37400   0.37985   0.39329   0.39761
 Alpha virt. eigenvalues --    0.39977   0.40444   0.40735   0.41401   0.41694
 Alpha virt. eigenvalues --    0.42403   0.42714   0.43544   0.43644   0.44492
 Alpha virt. eigenvalues --    0.44619   0.45482   0.46245   0.46662   0.47332
 Alpha virt. eigenvalues --    0.47385   0.48008   0.48819   0.49595   0.49747
 Alpha virt. eigenvalues --    0.50004   0.50431   0.50562   0.50908   0.51127
 Alpha virt. eigenvalues --    0.51751   0.52324   0.52480   0.53299   0.53476
 Alpha virt. eigenvalues --    0.53563   0.54335   0.55121   0.55398   0.55923
 Alpha virt. eigenvalues --    0.56420   0.56972   0.57187   0.57396   0.57825
 Alpha virt. eigenvalues --    0.58394   0.58829   0.58985   0.59437   0.59786
 Alpha virt. eigenvalues --    0.59936   0.60329   0.60496   0.61099   0.61405
 Alpha virt. eigenvalues --    0.61845   0.62205   0.62596   0.63040   0.63385
 Alpha virt. eigenvalues --    0.63690   0.64110   0.64476   0.64852   0.65389
 Alpha virt. eigenvalues --    0.65495   0.66449   0.66813   0.67153   0.67662
 Alpha virt. eigenvalues --    0.67846   0.68446   0.68738   0.68834   0.69404
 Alpha virt. eigenvalues --    0.70032   0.70051   0.70253   0.70502   0.70832
 Alpha virt. eigenvalues --    0.71796   0.72126   0.73133   0.73403   0.73853
 Alpha virt. eigenvalues --    0.74260   0.74689   0.74962   0.75334   0.75721
 Alpha virt. eigenvalues --    0.75892   0.76066   0.76473   0.76645   0.77016
 Alpha virt. eigenvalues --    0.77315   0.77502   0.77963   0.78402   0.78735
 Alpha virt. eigenvalues --    0.79174   0.79436   0.80276   0.80818   0.81361
 Alpha virt. eigenvalues --    0.81616   0.81946   0.82405   0.82528   0.83068
 Alpha virt. eigenvalues --    0.83531   0.83681   0.84233   0.84935   0.85496
 Alpha virt. eigenvalues --    0.85743   0.86342   0.86467   0.86873   0.87425
 Alpha virt. eigenvalues --    0.87794   0.87993   0.89349   0.89782   0.89969
 Alpha virt. eigenvalues --    0.90378   0.90557   0.90717   0.91382   0.92090
 Alpha virt. eigenvalues --    0.92387   0.93156   0.93415   0.93680   0.93766
 Alpha virt. eigenvalues --    0.94345   0.94617   0.95566   0.96241   0.96512
 Alpha virt. eigenvalues --    0.97069   0.97279   0.97427   0.98044   0.98331
 Alpha virt. eigenvalues --    0.99206   1.00038   1.00683   1.00879   1.01287
 Alpha virt. eigenvalues --    1.01822   1.02417   1.02499   1.03006   1.03364
 Alpha virt. eigenvalues --    1.03647   1.04278   1.04746   1.05518   1.05687
 Alpha virt. eigenvalues --    1.06326   1.06366   1.07078   1.08308   1.08769
 Alpha virt. eigenvalues --    1.08894   1.09414   1.09941   1.10695   1.11214
 Alpha virt. eigenvalues --    1.11638   1.12279   1.13551   1.13862   1.14066
 Alpha virt. eigenvalues --    1.14350   1.14571   1.15343   1.15835   1.16049
 Alpha virt. eigenvalues --    1.16397   1.16543   1.16973   1.17271   1.18134
 Alpha virt. eigenvalues --    1.18793   1.19102   1.19172   1.19744   1.20357
 Alpha virt. eigenvalues --    1.20417   1.20640   1.20977   1.21418   1.22020
 Alpha virt. eigenvalues --    1.22631   1.22895   1.22957   1.23412   1.23559
 Alpha virt. eigenvalues --    1.24038   1.24315   1.24959   1.25392   1.25709
 Alpha virt. eigenvalues --    1.26419   1.27259   1.27437   1.27898   1.28898
 Alpha virt. eigenvalues --    1.29106   1.29903   1.31040   1.31775   1.32533
 Alpha virt. eigenvalues --    1.32667   1.33532   1.33860   1.34800   1.35216
 Alpha virt. eigenvalues --    1.35369   1.35921   1.36602   1.37214   1.37900
 Alpha virt. eigenvalues --    1.38692   1.39380   1.39856   1.40287   1.41758
 Alpha virt. eigenvalues --    1.42542   1.42981   1.43686   1.44578   1.45917
 Alpha virt. eigenvalues --    1.46581   1.47257   1.48204   1.48528   1.48810
 Alpha virt. eigenvalues --    1.49074   1.49224   1.49675   1.50512   1.51360
 Alpha virt. eigenvalues --    1.52266   1.52788   1.53906   1.54077   1.55521
 Alpha virt. eigenvalues --    1.56147   1.56178   1.56498   1.57825   1.58112
 Alpha virt. eigenvalues --    1.58775   1.59440   1.59512   1.60363   1.61378
 Alpha virt. eigenvalues --    1.62055   1.62484   1.62906   1.63451   1.64059
 Alpha virt. eigenvalues --    1.64246   1.65375   1.65991   1.66907   1.67091
 Alpha virt. eigenvalues --    1.67381   1.68048   1.68549   1.69142   1.69591
 Alpha virt. eigenvalues --    1.70308   1.70581   1.71026   1.71169   1.71503
 Alpha virt. eigenvalues --    1.71942   1.72908   1.73054   1.73357   1.73473
 Alpha virt. eigenvalues --    1.74431   1.74687   1.74883   1.75318   1.75522
 Alpha virt. eigenvalues --    1.75959   1.76397   1.76603   1.76939   1.77309
 Alpha virt. eigenvalues --    1.77645   1.78052   1.78736   1.79072   1.79503
 Alpha virt. eigenvalues --    1.80050   1.80130   1.80350   1.80432   1.80561
 Alpha virt. eigenvalues --    1.81242   1.81453   1.81803   1.81948   1.82499
 Alpha virt. eigenvalues --    1.83031   1.83489   1.83908   1.84216   1.84573
 Alpha virt. eigenvalues --    1.85404   1.86457   1.86594   1.87309   1.87754
 Alpha virt. eigenvalues --    1.88149   1.88267   1.88365   1.88957   1.89462
 Alpha virt. eigenvalues --    1.90050   1.90130   1.90904   1.91259   1.92439
 Alpha virt. eigenvalues --    1.93165   1.93470   1.93610   1.93837   1.94245
 Alpha virt. eigenvalues --    1.95136   1.95395   1.96375   1.96829   1.97418
 Alpha virt. eigenvalues --    1.98613   1.99402   2.00462   2.01275   2.01309
 Alpha virt. eigenvalues --    2.01990   2.02553   2.02884   2.03330   2.04389
 Alpha virt. eigenvalues --    2.05674   2.05775   2.06378   2.06827   2.07159
 Alpha virt. eigenvalues --    2.07997   2.08774   2.08865   2.09224   2.10216
 Alpha virt. eigenvalues --    2.10608   2.10794   2.12038   2.13070   2.13690
 Alpha virt. eigenvalues --    2.14251   2.15487   2.15592   2.16996   2.18641
 Alpha virt. eigenvalues --    2.19736   2.19846   2.20390   2.20817   2.21129
 Alpha virt. eigenvalues --    2.22035   2.22276   2.22767   2.23482   2.24262
 Alpha virt. eigenvalues --    2.24525   2.25326   2.25789   2.25864   2.26569
 Alpha virt. eigenvalues --    2.27940   2.28550   2.29429   2.29709   2.30254
 Alpha virt. eigenvalues --    2.30533   2.31041   2.31486   2.32434   2.33184
 Alpha virt. eigenvalues --    2.33977   2.34244   2.34618   2.35067   2.35726
 Alpha virt. eigenvalues --    2.36138   2.37103   2.37231   2.37806   2.38336
 Alpha virt. eigenvalues --    2.38461   2.39938   2.40254   2.41589   2.41746
 Alpha virt. eigenvalues --    2.42131   2.42741   2.43188   2.43523   2.44635
 Alpha virt. eigenvalues --    2.45719   2.46383   2.46619   2.46830   2.47543
 Alpha virt. eigenvalues --    2.48511   2.49266   2.50369   2.50586   2.52136
 Alpha virt. eigenvalues --    2.53120   2.53809   2.54757   2.55364   2.55799
 Alpha virt. eigenvalues --    2.56854   2.57835   2.58098   2.58640   2.59394
 Alpha virt. eigenvalues --    2.60872   2.61568   2.61896   2.62139   2.63523
 Alpha virt. eigenvalues --    2.64325   2.64968   2.65156   2.65236   2.66438
 Alpha virt. eigenvalues --    2.67276   2.68427   2.68770   2.68900   2.69707
 Alpha virt. eigenvalues --    2.69887   2.70615   2.71088   2.71884   2.73023
 Alpha virt. eigenvalues --    2.73398   2.74297   2.74830   2.75728   2.75822
 Alpha virt. eigenvalues --    2.78285   2.79026   2.79167   2.79558   2.79826
 Alpha virt. eigenvalues --    2.80129   2.80551   2.80720   2.81233   2.81716
 Alpha virt. eigenvalues --    2.81964   2.82707   2.82944   2.83300   2.84285
 Alpha virt. eigenvalues --    2.84949   2.85660   2.86360   2.86837   2.87401
 Alpha virt. eigenvalues --    2.88165   2.89316   2.89652   2.92621   2.94457
 Alpha virt. eigenvalues --    2.94991   2.95575   2.97717   2.98727   2.99239
 Alpha virt. eigenvalues --    3.00479   3.02878   3.03676   3.05146   3.07366
 Alpha virt. eigenvalues --    3.09221   3.10525   3.10649   3.13867   3.14690
 Alpha virt. eigenvalues --    3.15222   3.16316   3.16462   3.18302   3.20827
 Alpha virt. eigenvalues --    3.21775   3.22398   3.23879   3.24223   3.27087
 Alpha virt. eigenvalues --    3.45445   3.47328   3.48243   3.49735   3.50213
 Alpha virt. eigenvalues --    3.53443   3.54050   3.56373   3.58294   3.60024
 Alpha virt. eigenvalues --    3.62826   3.70599   3.74438
          Condensed to atoms (all electrons):
 Mulliken charges:
               1
     1  N   -0.312290
     2  C    0.181334
     3  C    0.036368
     4  N   -0.260463
     5  C    0.134692
     6  H    0.026402
     7  N   -0.291851
     8  C    0.141873
     9  H    0.006016
    10  N   -0.291677
    11  C    0.249307
    12  C    0.124723
    13  N   -0.058454
    14  H    0.108312
    15  H    0.086584
    16  H    0.024730
    17  H    0.033485
    18  H    0.026898
    19  N   -0.310603
    20  C    0.237038
    21  C    0.181343
    22  N   -0.089710
    23  H    0.115386
    24  H    0.109335
    25  N   -0.285306
    26  C    0.196995
    27  N   -0.112642
    28  H    0.116087
    29  C    0.141610
    30  O   -0.315506
    31  C    0.022039
    32  N   -0.222201
    33  C    0.123988
    34  H    0.028179
    35  H    0.028112
    36  H    0.027759
    37  H    0.024946
    38  H    0.062834
    39  H    0.057647
    40  H    0.074303
    41  H    0.031714
    42  C   -0.112283
    43  O   -0.263373
    44  C    0.172107
    45  H    0.133437
    46  N   -0.131509
    47  O   -0.346521
    48  C    0.354570
    49  H    0.047842
    50  C    0.167283
    51  C    0.042751
    52  N   -0.292861
    53  H    0.038219
    54  H    0.040983
    55  H    0.022511
    56  H    0.123311
    57  H    0.114954
    58  N   -0.068693
    59  C    0.085438
    60  C    0.210453
    61  N   -0.266156
    62  H    0.050854
    63  C    0.168907
    64  N   -0.301473
    65  H    0.033729
    66  C    0.134143
    67  N   -0.265863
    68  C    0.050361
    69  C    0.161335
    70  N   -0.313793
 Sum of Mulliken charges =  -0.00000
 Mulliken charges with hydrogens summed into heavy atoms:
               1
     1  N   -0.312290
     2  C    0.266447
     3  C    0.036368
     4  N   -0.260463
     5  C    0.161094
     7  N   -0.291851
     8  C    0.147889
    10  N   -0.291677
    11  C    0.249307
    12  C    0.124723
    13  N    0.136443
    19  N   -0.310603
    20  C    0.237038
    21  C    0.262159
    22  N    0.135011
    25  N   -0.285306
    26  C    0.196995
    27  N    0.003446
    29  C    0.141610
    30  O   -0.315506
    31  C    0.022039
    32  N   -0.222201
    33  C    0.152167
    42  C   -0.080569
    43  O   -0.263373
    44  C    0.172107
    46  N    0.001928
    47  O   -0.346521
    48  C    0.354570
    50  C    0.215125
    51  C    0.237535
    52  N   -0.292861
    58  N    0.169572
    59  C    0.085438
    60  C    0.210453
    61  N   -0.266156
    63  C    0.219760
    64  N   -0.301473
    66  C    0.167872
    67  N   -0.265863
    68  C    0.050361
    69  C    0.263048
    70  N   -0.313793
 Electronic spatial extent (au):  <R**2>=          22558.8810
 Charge=             -0.0000 electrons
 Dipole moment (field-independent basis, Debye):
    X=              8.4532    Y=              5.1360    Z=              2.8717  Tot=             10.2996
 Quadrupole moment (field-independent basis, Debye-Ang):
   XX=           -156.0554   YY=           -214.7259   ZZ=           -254.3028
   XY=             -2.8576   XZ=              5.8044   YZ=            -10.1954
 Traceless Quadrupole moment (field-independent basis, Debye-Ang):
   XX=             52.3060   YY=             -6.3645   ZZ=            -45.9414
   XY=             -2.8576   XZ=              5.8044   YZ=            -10.1954
 Octapole moment (field-independent basis, Debye-Ang**2):
  XXX=            -32.9435  YYY=            140.3676  ZZZ=              2.0829  XYY=             92.7746
  XXY=            -65.9955  XXZ=            -43.6097  XZZ=             24.1519  YZZ=             21.8659
  YYZ=             46.5282  XYZ=             54.3633
 Hexadecapole moment (field-independent basis, Debye-Ang**3):
 XXXX=         -14368.8674 YYYY=          -6918.5731 ZZZZ=          -3331.7083 XXXY=            477.4979
 XXXZ=            -41.4637 YYYX=           -126.9681 YYYZ=           -112.1984 ZZZX=             14.0396
 ZZZY=            -18.0995 XXYY=          -3433.9296 XXZZ=          -3723.5136 YYZZ=          -1731.1745
 XXYZ=             87.2705 YYXZ=            236.3613 ZZXY=            -16.6417
 N-N= 5.497468238221D+03 E-N=-1.577583226853D+04  KE= 2.037987284389D+03
 No NMR shielding tensors so no spin-rotation constants.
 Leave Link  601 at Thu Jan 25 23:33:15 2018, MaxMem=  4294967296 cpu:              49.5 elap:               1.8
 (Enter /share/apps/g16/l9999.exe)
 1\1\GINC-COMPUTE-0-3\SP\RwB97XD\CC-pVDZ\C23H27N17O3\SATYA\25-Jan-2018\
 0\\#p wb97xd/cc-pvdz sp scf=(maxcycles=20)\\Base pair stacking\\0,1\N,
 0,6.27582,0.85921,-7.63367\C,0,7.63289,1.40488,-7.83014\C,0,4.12097,0.
 66281,-7.23952\N,0,4.58859,-0.61959,-7.48753\C,0,5.8681,-0.44994,-7.71
 507\H,0,6.56793,-1.25262,-7.94933\N,0,2.7176,2.49223,-6.7428\C,0,3.805
 51,3.26058,-6.85973\H,0,3.64252,4.32519,-6.69755\N,0,5.05863,2.91292,-
 7.14558\C,0,5.14944,1.58491,-7.32606\C,0,2.84192,1.16014,-6.93028\N,0,
 1.75709,0.3915,-6.81399\H,0,1.80254,-0.59955,-6.94433\H,0,0.86246,0.77
 985,-6.59273\H,0,7.9487,1.19171,-8.75481\H,0,7.61557,2.39645,-7.70519\
 H,0,8.25783,0.99757,-7.16416\N,0,3.27327,4.72646,-3.44353\C,0,2.01476,
 4.19214,-3.30681\C,0,3.58902,6.16855,-3.48087\N,0,-1.41182,4.62221,-2.
 9389\H,0,-2.22248,4.04409,-2.85029\H,0,-1.5567,5.61193,-2.9256\N,0,0.8
 6441,4.88913,-3.18458\C,0,-0.18515,4.09487,-3.06974\N,0,-0.11563,2.722
 77,-3.07404\H,0,-0.97015,2.19545,-2.98082\C,0,1.05711,1.98451,-3.19859
 \O,0,1.01024,0.74819,-3.19067\C,0,2.19317,2.82403,-3.32284\N,0,3.53666
 ,2.50586,-3.46674\C,0,4.13761,3.6628,-3.53412\H,0,5.2135,3.79786,-3.65
 026\H,0,4.0295,6.39263,-4.34953\H,0,2.74453,6.69491,-3.39117\H,0,4.204
 2,6.39639,-2.72691\H,0,-5.62702,0.15956,-3.12721\H,0,-5.34174,-0.09964
 ,-1.40789\H,0,-4.62687,1.2939,-2.21929\H,0,-2.76714,-3.70616,-3.28167\
 C,0,-2.69105,-2.62912,-3.13192\O,0,-0.35024,-2.5564,-3.50937\C,0,-1.41
 369,-1.99456,-3.24821\H,0,-0.5448,-0.14651,-3.11377\N,0,-1.42877,-0.63
 013,-3.04001\O,0,-2.43186,1.35339,-2.57453\C,0,-2.51812,0.14953,-2.741
 71\H,0,-4.76577,-2.32963,-2.74252\C,0,-3.77186,-1.89537,-2.84197\C,0,-
 4.9058,0.2565,-2.3294\N,0,-3.71381,-0.53493,-2.6465\H,0,-4.11183,6.168
 53,-5.15348\H,0,-2.6636,5.92198,-4.44359\H,0,-4.03855,5.68178,-3.59748
 \H,0,-1.73808,-0.71962,-6.56209\H,0,-3.38787,-0.33396,-6.36319\N,0,-2.
 43185,-0.04213,-6.31749\C,0,-2.09806,1.19573,-5.94672\C,0,-2.53528,3.4
 2228,-5.23047\N,0,-1.24333,3.78633,-5.17819\H,0,0.6109,2.98182,-5.5176
 4\C,0,-0.45764,2.77143,-5.53255\N,0,-0.79003,1.53088,-5.90423\H,0,-5.7
 4148,3.75022,-4.97559\C,0,-4.72583,3.38782,-5.13707\N,0,-4.42094,2.175
 34,-5.53029\C,0,-3.03507,2.18377,-5.59355\C,0,-3.60988,5.60457,-4.4977
 4\N,0,-3.63321,4.19575,-4.93667\\Version=EM64L-G16RevA.03\State=1-A\HF
 =-2048.7002019\RMSD=6.980e-09\Dipole=-3.5660493,1.8906732,0.3586512\Qu
 adrupole=33.5796026,-7.3957843,-26.1838183,8.8949069,-17.8575885,9.965
 4406\PG=C01 [X(C23H27N17O3)]\\@


 SOME PEOPLE TRY TO PULL THE WOOL OVER YOUR EYES
 USING THE WRONG YARN.
 Job cpu time:       0 days  6 hours  2 minutes 36.8 seconds.
 Elapsed time:       0 days  0 hours 11 minutes 41.9 seconds.
 File lengths (MBytes):  RWF=    298 Int=      0 D2E=      0 Chk=     33 Scr=      1
 Normal termination of Gaussian 16 at Thu Jan 25 23:33:15 2018.
