 Entering Gaussian System, Link 0=g16
 Input=str55.-15.-1.0.com
 Output=str55.-15.-1.0.log
 Initial command:
 /share/apps/g16/l1.exe "/state/partition1/scr/Gau-17151.inp" -scrdir="/state/partition1/scr/"
 Entering Link 1 = /share/apps/g16/l1.exe PID=     17152.
  
 Copyright (c) 1988,1990,1992,1993,1995,1998,2003,2009,2016,
            Gaussian, Inc.  All Rights Reserved.
  
 This is part of the Gaussian(R) 16 program.  It is based on
 the Gaussian(R) 09 system (copyright 2009, Gaussian, Inc.),
 the Gaussian(R) 03 system (copyright 2003, Gaussian, Inc.),
 the Gaussian(R) 98 system (copyright 1998, Gaussian, Inc.),
 the Gaussian(R) 94 system (copyright 1995, Gaussian, Inc.),
 the Gaussian 92(TM) system (copyright 1992, Gaussian, Inc.),
 the Gaussian 90(TM) system (copyright 1990, Gaussian, Inc.),
 the Gaussian 88(TM) system (copyright 1988, Gaussian, Inc.),
 the Gaussian 86(TM) system (copyright 1986, Carnegie Mellon
 University), and the Gaussian 82(TM) system (copyright 1983,
 Carnegie Mellon University). Gaussian is a federally registered
 trademark of Gaussian, Inc.
  
 This software contains proprietary and confidential information,
 including trade secrets, belonging to Gaussian, Inc.
  
 This software is provided under written license and may be
 used, copied, transmitted, or stored only in accord with that
 written license.
  
 The following legend is applicable only to US Government
 contracts under FAR:
  
                    RESTRICTED RIGHTS LEGEND
  
 Use, reproduction and disclosure by the US Government is
 subject to restrictions as set forth in subparagraphs (a)
 and (c) of the Commercial Computer Software - Restricted
 Rights clause in FAR 52.227-19.
  
 Gaussian, Inc.
 340 Quinnipiac St., Bldg. 40, Wallingford CT 06492
  
  
 ---------------------------------------------------------------
 Warning -- This program may not be used in any manner that
 competes with the business of Gaussian, Inc. or will provide
 assistance to any competitor of Gaussian, Inc.  The licensee
 of this program is prohibited from giving any competitor of
 Gaussian, Inc. access to this program.  By using this program,
 the user acknowledges that Gaussian, Inc. is engaged in the
 business of creating and licensing software in the field of
 computational chemistry and represents and warrants to the
 licensee that it is not a competitor of Gaussian, Inc. and that
 it will not use this program in any manner prohibited above.
 ---------------------------------------------------------------
  

 Cite this work as:
 Gaussian 16, Revision A.03,
 M. J. Frisch, G. W. Trucks, H. B. Schlegel, G. E. Scuseria, 
 M. A. Robb, J. R. Cheeseman, G. Scalmani, V. Barone, 
 G. A. Petersson, H. Nakatsuji, X. Li, M. Caricato, A. V. Marenich, 
 J. Bloino, B. G. Janesko, R. Gomperts, B. Mennucci, H. P. Hratchian, 
 J. V. Ortiz, A. F. Izmaylov, J. L. Sonnenberg, D. Williams-Young, 
 F. Ding, F. Lipparini, F. Egidi, J. Goings, B. Peng, A. Petrone, 
 T. Henderson, D. Ranasinghe, V. G. Zakrzewski, J. Gao, N. Rega, 
 G. Zheng, W. Liang, M. Hada, M. Ehara, K. Toyota, R. Fukuda, 
 J. Hasegawa, M. Ishida, T. Nakajima, Y. Honda, O. Kitao, H. Nakai, 
 T. Vreven, K. Throssell, J. A. Montgomery, Jr., J. E. Peralta, 
 F. Ogliaro, M. J. Bearpark, J. J. Heyd, E. N. Brothers, K. N. Kudin, 
 V. N. Staroverov, T. A. Keith, R. Kobayashi, J. Normand, 
 K. Raghavachari, A. P. Rendell, J. C. Burant, S. S. Iyengar, 
 J. Tomasi, M. Cossi, J. M. Millam, M. Klene, C. Adamo, R. Cammi, 
 J. W. Ochterski, R. L. Martin, K. Morokuma, O. Farkas, 
 J. B. Foresman, and D. J. Fox, Gaussian, Inc., Wallingford CT, 2016.
 
 ******************************************
 Gaussian 16:  EM64L-G16RevA.03 25-Dec-2016
                26-Jan-2018 
 ******************************************
 %nprocshared=32
 Will use up to   32 processors via shared memory.
 %mem=32GB
 %chk=allatoms_t.chk
 ---------------------------------------
 #p wb97xd/cc-pvdz sp scf=(maxcycles=20)
 ---------------------------------------
 1/38=1,172=1/1;
 2/12=2,17=6,18=5,40=1/2;
 3/5=16,11=2,25=1,30=1,74=-58/1,2,3;
 4//1;
 5/5=2,7=20,38=5/2;
 6/7=2,8=2,9=2,10=2,28=1/1;
 99/5=1,9=1/99;
 Leave Link    1 at Fri Jan 26 04:20:22 2018, MaxMem=  4294967296 cpu:               2.7 elap:               0.1
 (Enter /share/apps/g16/l101.exe)
 ------------------
 Base pair stacking
 ------------------
 Symbolic Z-matrix:
 Charge =  0 Multiplicity = 1
 N                     5.70392   1.13252  -8.12379 
 C                     7.05429   1.67567  -8.3677 
 C                     3.58235   0.92675  -7.58167 
 N                     3.99799  -0.32718  -8.00548 
 C                     5.25953  -0.15303  -8.31513 
 H                     5.91928  -0.93539  -8.6914 
 N                     2.26677   2.71103  -6.77633 
 C                     3.36049   3.47076  -6.8954 
 H                     3.23648   4.51313  -6.60497 
 N                     4.57866   3.13776  -7.31739 
 C                     4.62292   1.8368   -7.649 
 C                     2.34379   1.40627  -7.11803 
 N                     1.25309   0.64627  -6.99987 
 H                     1.26422  -0.32472  -7.24125 
 H                     0.38815   1.02136  -6.66622 
 H                     7.29161   1.56176  -9.33252 
 H                     7.07078   2.64735  -8.13385 
 H                     7.71933   1.18727  -7.80274 
 N                     3.12629   4.72076  -3.52378 
 C                     1.87743   4.18522  -3.31985 
 C                     3.44606   6.16242  -3.53162 
 N                    -1.51359   4.61092  -2.70216 
 H                    -2.31919   4.03215  -2.57855 
 H                    -1.65218   5.59991  -2.64387 
 N                     0.74174   4.88044  -3.09418 
 C                    -0.30149   4.08536  -2.93565 
 N                    -0.23941   2.71411  -2.99334 
 H                    -1.08819   2.18605  -2.86032 
 C                     0.91825   1.97767  -3.22432 
 O                     0.86575   0.74198  -3.25702 
 C                     2.04736   2.8181   -3.39658 
 N                     3.37617   2.50172  -3.64371 
 C                     3.97695   3.65874  -3.71122 
 H                     5.04301   3.79502  -3.89622 
 H                     3.82702   6.41621  -4.42002 
 H                     2.61241   6.68748  -3.36547 
 H                     4.11268   6.36159  -2.81415 
 H                    -5.75441   0.16897  -2.75817 
 H                    -5.35313  -0.15219  -1.0728 
 H                    -4.68855   1.26754  -1.88155 
 H                    -2.93157  -3.6963   -3.24581 
 C                    -2.8399   -2.62549  -3.06358 
 O                    -0.53018  -2.54553  -3.59829 
 C                    -1.57033  -1.99056  -3.24487 
 H                    -0.68487  -0.15079  -3.10511 
 N                    -1.56414  -0.63439  -2.98791 
 O                    -2.52283   1.33388  -2.38457 
 C                    -2.62648   0.13699  -2.58797 
 H                    -4.88146  -2.33463  -2.52205 
 C                    -3.89452  -1.89971  -2.67417 
 C                    -4.97965   0.23546  -2.00891 
 N                    -3.81628  -0.54728  -2.43507 
 H                    -4.32659   6.29268  -4.25013 
 H                    -2.83369   5.94646  -3.69022 
 H                    -4.14371   5.63492  -2.76779 
 H                    -2.23756  -0.43196  -6.59121 
 H                    -3.85694  -0.04543  -6.21933 
 N                    -2.8935    0.22475  -6.2189 
 C                    -2.5019    1.40843  -5.74274 
 C                    -2.82779   3.54804  -4.75402 
 N                    -1.52727   3.88407  -4.76615 
 H                     0.27474   3.0938   -5.3396 
 C                    -0.79648   2.90286  -5.29157 
 N                    -1.18682   1.71659  -5.76903 
 H                    -5.99538   3.89498  -4.20794 
 C                    -5.00453   3.53717  -4.48925 
 N                    -4.76074   2.37136  -5.03618 
 C                    -3.38424   2.36541  -5.20929 
 C                    -3.78872   5.65166  -3.70261 
 N                    -3.88036   4.30088  -4.28998 
 
 ITRead=  0  0  0  0  0  0  0  0  0  0  0  0  0  0  0  0  0  0  0  0
 ITRead=  0  0  0  0  0  0  0  0  0  0  0  0  0  0  0  0  0  0  0  0
 ITRead=  0  0  0  0  0  0  0  0  0  0  0  0  0  0  0  0  0  0  0  0
 ITRead=  0  0  0  0  0  0  0  0  0  0
 MicOpt= -1 -1 -1 -1 -1 -1 -1 -1 -1 -1 -1 -1 -1 -1 -1 -1 -1 -1 -1 -1
 MicOpt= -1 -1 -1 -1 -1 -1 -1 -1 -1 -1 -1 -1 -1 -1 -1 -1 -1 -1 -1 -1
 MicOpt= -1 -1 -1 -1 -1 -1 -1 -1 -1 -1 -1 -1 -1 -1 -1 -1 -1 -1 -1 -1
 MicOpt= -1 -1 -1 -1 -1 -1 -1 -1 -1 -1
 NAtoms=     70 NQM=       70 NQMF=       0 NMMI=      0 NMMIF=      0
                NMic=       0 NMicF=      0.
                    Isotopes and Nuclear Properties:
 (Nuclear quadrupole moments (NQMom) in fm**2, nuclear magnetic moments (NMagM)
  in nuclear magnetons)

  Atom         1           2           3           4           5           6           7           8           9          10
 IAtWgt=          14          12          12          14          12           1          14          12           1          14
 AtmWgt=  14.0030740  12.0000000  12.0000000  14.0030740  12.0000000   1.0078250  14.0030740  12.0000000   1.0078250  14.0030740
 NucSpn=           2           0           0           2           0           1           2           0           1           2
 AtZEff=  -0.0000000  -0.0000000  -0.0000000  -0.0000000  -0.0000000  -0.0000000  -0.0000000  -0.0000000  -0.0000000  -0.0000000
 NQMom=    2.0440000   0.0000000   0.0000000   2.0440000   0.0000000   0.0000000   2.0440000   0.0000000   0.0000000   2.0440000
 NMagM=    0.4037610   0.0000000   0.0000000   0.4037610   0.0000000   2.7928460   0.4037610   0.0000000   2.7928460   0.4037610
 AtZNuc=   7.0000000   6.0000000   6.0000000   7.0000000   6.0000000   1.0000000   7.0000000   6.0000000   1.0000000   7.0000000

  Atom        11          12          13          14          15          16          17          18          19          20
 IAtWgt=          12          12          14           1           1           1           1           1          14          12
 AtmWgt=  12.0000000  12.0000000  14.0030740   1.0078250   1.0078250   1.0078250   1.0078250   1.0078250  14.0030740  12.0000000
 NucSpn=           0           0           2           1           1           1           1           1           2           0
 AtZEff=  -0.0000000  -0.0000000  -0.0000000  -0.0000000  -0.0000000  -0.0000000  -0.0000000  -0.0000000  -0.0000000  -0.0000000
 NQMom=    0.0000000   0.0000000   2.0440000   0.0000000   0.0000000   0.0000000   0.0000000   0.0000000   2.0440000   0.0000000
 NMagM=    0.0000000   0.0000000   0.4037610   2.7928460   2.7928460   2.7928460   2.7928460   2.7928460   0.4037610   0.0000000
 AtZNuc=   6.0000000   6.0000000   7.0000000   1.0000000   1.0000000   1.0000000   1.0000000   1.0000000   7.0000000   6.0000000

  Atom        21          22          23          24          25          26          27          28          29          30
 IAtWgt=          12          14           1           1          14          12          14           1          12          16
 AtmWgt=  12.0000000  14.0030740   1.0078250   1.0078250  14.0030740  12.0000000  14.0030740   1.0078250  12.0000000  15.9949146
 NucSpn=           0           2           1           1           2           0           2           1           0           0
 AtZEff=  -0.0000000  -0.0000000  -0.0000000  -0.0000000  -0.0000000  -0.0000000  -0.0000000  -0.0000000  -0.0000000  -0.0000000
 NQMom=    0.0000000   2.0440000   0.0000000   0.0000000   2.0440000   0.0000000   2.0440000   0.0000000   0.0000000   0.0000000
 NMagM=    0.0000000   0.4037610   2.7928460   2.7928460   0.4037610   0.0000000   0.4037610   2.7928460   0.0000000   0.0000000
 AtZNuc=   6.0000000   7.0000000   1.0000000   1.0000000   7.0000000   6.0000000   7.0000000   1.0000000   6.0000000   8.0000000

  Atom        31          32          33          34          35          36          37          38          39          40
 IAtWgt=          12          14          12           1           1           1           1           1           1           1
 AtmWgt=  12.0000000  14.0030740  12.0000000   1.0078250   1.0078250   1.0078250   1.0078250   1.0078250   1.0078250   1.0078250
 NucSpn=           0           2           0           1           1           1           1           1           1           1
 AtZEff=  -0.0000000  -0.0000000  -0.0000000  -0.0000000  -0.0000000  -0.0000000  -0.0000000  -0.0000000  -0.0000000  -0.0000000
 NQMom=    0.0000000   2.0440000   0.0000000   0.0000000   0.0000000   0.0000000   0.0000000   0.0000000   0.0000000   0.0000000
 NMagM=    0.0000000   0.4037610   0.0000000   2.7928460   2.7928460   2.7928460   2.7928460   2.7928460   2.7928460   2.7928460
 AtZNuc=   6.0000000   7.0000000   6.0000000   1.0000000   1.0000000   1.0000000   1.0000000   1.0000000   1.0000000   1.0000000

  Atom        41          42          43          44          45          46          47          48          49          50
 IAtWgt=           1          12          16          12           1          14          16          12           1          12
 AtmWgt=   1.0078250  12.0000000  15.9949146  12.0000000   1.0078250  14.0030740  15.9949146  12.0000000   1.0078250  12.0000000
 NucSpn=           1           0           0           0           1           2           0           0           1           0
 AtZEff=  -0.0000000  -0.0000000  -0.0000000  -0.0000000  -0.0000000  -0.0000000  -0.0000000  -0.0000000  -0.0000000  -0.0000000
 NQMom=    0.0000000   0.0000000   0.0000000   0.0000000   0.0000000   2.0440000   0.0000000   0.0000000   0.0000000   0.0000000
 NMagM=    2.7928460   0.0000000   0.0000000   0.0000000   2.7928460   0.4037610   0.0000000   0.0000000   2.7928460   0.0000000
 AtZNuc=   1.0000000   6.0000000   8.0000000   6.0000000   1.0000000   7.0000000   8.0000000   6.0000000   1.0000000   6.0000000

  Atom        51          52          53          54          55          56          57          58          59          60
 IAtWgt=          12          14           1           1           1           1           1          14          12          12
 AtmWgt=  12.0000000  14.0030740   1.0078250   1.0078250   1.0078250   1.0078250   1.0078250  14.0030740  12.0000000  12.0000000
 NucSpn=           0           2           1           1           1           1           1           2           0           0
 AtZEff=  -0.0000000  -0.0000000  -0.0000000  -0.0000000  -0.0000000  -0.0000000  -0.0000000  -0.0000000  -0.0000000  -0.0000000
 NQMom=    0.0000000   2.0440000   0.0000000   0.0000000   0.0000000   0.0000000   0.0000000   2.0440000   0.0000000   0.0000000
 NMagM=    0.0000000   0.4037610   2.7928460   2.7928460   2.7928460   2.7928460   2.7928460   0.4037610   0.0000000   0.0000000
 AtZNuc=   6.0000000   7.0000000   1.0000000   1.0000000   1.0000000   1.0000000   1.0000000   7.0000000   6.0000000   6.0000000

  Atom        61          62          63          64          65          66          67          68          69          70
 IAtWgt=          14           1          12          14           1          12          14          12          12          14
 AtmWgt=  14.0030740   1.0078250  12.0000000  14.0030740   1.0078250  12.0000000  14.0030740  12.0000000  12.0000000  14.0030740
 NucSpn=           2           1           0           2           1           0           2           0           0           2
 AtZEff=  -0.0000000  -0.0000000  -0.0000000  -0.0000000  -0.0000000  -0.0000000  -0.0000000  -0.0000000  -0.0000000  -0.0000000
 NQMom=    2.0440000   0.0000000   0.0000000   2.0440000   0.0000000   0.0000000   2.0440000   0.0000000   0.0000000   2.0440000
 NMagM=    0.4037610   2.7928460   0.0000000   0.4037610   2.7928460   0.0000000   0.4037610   0.0000000   0.0000000   0.4037610
 AtZNuc=   7.0000000   1.0000000   6.0000000   7.0000000   1.0000000   6.0000000   7.0000000   6.0000000   6.0000000   7.0000000
 Leave Link  101 at Fri Jan 26 04:20:22 2018, MaxMem=  4294967296 cpu:               6.6 elap:               0.2
 (Enter /share/apps/g16/l202.exe)
 Stoichiometry    C23H27N17O3
 Framework group  C1[X(C23H27N17O3)]
 Deg. of freedom   204
 Full point group                 C1      NOp   1
 Largest Abelian subgroup         C1      NOp   1
 Largest concise Abelian subgroup C1      NOp   1
                         Standard orientation:                         
 ---------------------------------------------------------------------
 Center     Atomic      Atomic             Coordinates (Angstroms)
 Number     Number       Type             X           Y           Z
 ---------------------------------------------------------------------
      1          7           0       -6.389929   -1.650325    0.636891
      2          6           0       -7.777344   -1.190701    0.432369
      3          6           0       -4.214774   -1.705670    0.957721
      4          7           0       -4.631686   -3.027437    0.895853
      5          6           0       -5.925459   -2.941199    0.705041
      6          1           0       -6.595837   -3.795425    0.605911
      7          7           0       -2.879593    0.228567    1.155207
      8          6           0       -4.005597    0.930127    0.989311
      9          1           0       -3.885972    2.012546    1.007264
     10          7           0       -5.251319    0.497380    0.805442
     11          6           0       -5.287391   -0.845411    0.799739
     12          6           0       -2.949205   -1.120555    1.144561
     13          7           0       -1.826295   -1.822616    1.310001
     14          1           0       -1.830774   -2.823210    1.309053
     15          1           0       -0.942780   -1.372593    1.440449
     16          1           0       -8.356310   -1.534740    1.171700
     17          1           0       -7.801162   -0.191430    0.429128
     18          1           0       -8.118612   -1.533402   -0.442893
     19          7           0       -2.614747    2.955379   -1.646797
     20          6           0       -1.336608    2.492859   -1.445611
     21          6           0       -3.057940    4.350738   -1.453789
     22          7           0        1.966871    3.077053   -0.546989
     23          1           0        2.812091    2.550322   -0.460940
     24          1           0        2.015543    4.051960   -0.328143
     25          7           0       -0.279346    3.229466   -1.041064
     26          6           0        0.819244    2.502742   -0.938186
     27          7           0        0.879928    1.157441   -1.210202
     28          1           0        1.763189    0.682481   -1.104224
     29          6           0       -0.195318    0.379401   -1.627780
     30          8           0       -0.033782   -0.827549   -1.846716
     31          6           0       -1.382558    1.146274   -1.742899
     32          7           0       -2.663771    0.770953   -2.123074
     33          6           0       -3.358560    1.873814   -2.051275
     34          1           0       -4.421102    1.954551   -2.283152
     35          1           0       -3.776522    4.381026   -0.759875
     36          1           0       -2.283171    4.905865   -1.154067
     37          1           0       -3.411828    4.712081   -2.315769
     38          1           0        6.285321   -1.219883    0.231438
     39          1           0        6.601974   -1.129208   -1.499502
     40          1           0        5.535291    0.050076   -0.736053
     41          1           0        3.903792   -5.107712   -1.304672
     42          6           0        3.780994   -4.025126   -1.270431
     43          8           0        1.449088   -4.091369   -1.700483
     44          6           0        2.482487   -3.460827   -1.478415
     45          1           0        1.537266   -1.647319   -1.556334
     46          7           0        2.437821   -2.082723   -1.414400
     47          8           0        3.349014   -0.020815   -1.139707
     48          6           0        3.487468   -1.230791   -1.177761
     49          1           0        5.831922   -3.599083   -0.872938
     50          6           0        4.824146   -3.220038   -1.037431
     51          6           0        5.858144   -0.980405   -0.730973
     52          7           0        4.706917   -1.850336   -0.987138
     53          1           0        3.775022    4.356106    2.322177
     54          1           0        2.658515    4.144701    1.151349
     55          1           0        4.247684    4.072707    0.786046
     56          1           0        1.641101   -2.747810    2.107125
     57          1           0        3.229718   -2.272483    2.507687
     58          7           0        2.319274   -2.016525    2.180900
     59          6           0        2.023713   -0.755725    1.858090
     60          6           0        2.486445    1.560919    1.573942
     61          7           0        1.255473    1.875538    1.137893
     62          1           0       -0.537289    0.958655    0.755869
     63          6           0        0.482596    0.791975    1.099858
     64          7           0        0.776764   -0.471659    1.422758
     65          1           0        5.565482    2.049969    2.429835
     66          6           0        4.585039    1.628462    2.206204
     67          7           0        4.269041    0.363779    2.341855
     68          6           0        2.941070    0.307255    1.944296
     69          6           0        3.559139    3.861915    1.480062
     70          7           0        3.553814    2.410196    1.745567
 ---------------------------------------------------------------------
 Rotational constants (GHZ):           0.1253375           0.0587254           0.0492710
 Leave Link  202 at Fri Jan 26 04:20:22 2018, MaxMem=  4294967296 cpu:               0.3 elap:               0.0
 (Enter /share/apps/g16/l301.exe)
 Standard basis: CC-pVDZ (5D, 7F)
 Ernie: Thresh=  0.10000D-02 Tol=  0.10000D-05 Strict=F.
 Ernie:  86 primitive shells out of 1081 were deleted.
 There are   780 symmetry adapted cartesian basis functions of A   symmetry.
 There are   737 symmetry adapted basis functions of A   symmetry.
   737 basis functions,  1608 primitive gaussians,   780 cartesian basis functions
   154 alpha electrons      154 beta electrons
       nuclear repulsion energy      5517.3776366337 Hartrees.
 IExCor= 4639 DFT=T Ex+Corr=wB97XD ExCW=0 ScaHFX=  1.000000
 ScaDFX=  1.000000  1.000000  1.000000  1.000000 ScalE2=  1.000000  1.000000
 IRadAn=      5 IRanWt=     -1 IRanGd=            0 ICorTp=0 IEmpDi=121
 HFx  wShort=  0.000000 wLong=  0.200000 cFull=  0.222036 cShort=  0.000000 cLong=  0.777964
 DFx  wShort=  0.000000 wLong=  0.200000 cFull=  0.000000 cShort=  0.000000 cLong=  1.000000
 NAtoms=   70 NActive=   70 NUniq=   70 SFac= 1.00D+00 NAtFMM=   60 NAOKFM=T Big=T
 Integral buffers will be    131072 words long.
 Raffenetti 2 integral format.
 Two-electron integral symmetry is turned on.
 R6Disp:  Grimme-D2 Dispersion energy=       -0.0703122201 Hartrees.
 Nuclear repulsion after empirical dispersion term =     5517.3073244135 Hartrees.
 Leave Link  301 at Fri Jan 26 04:20:23 2018, MaxMem=  4294967296 cpu:               2.1 elap:               0.1
 (Enter /share/apps/g16/l302.exe)
 NPDir=0 NMtPBC=     1 NCelOv=     1 NCel=       1 NClECP=     1 NCelD=      1
         NCelK=      1 NCelE2=     1 NClLst=     1 CellRange=     0.0.
 One-electron integrals computed using PRISM.
 One-electron integral symmetry used in STVInt
 NBasis=   737 RedAO= T EigKep=  6.74D-04  NBF=   737
 NBsUse=   737 1.00D-06 EigRej= -1.00D+00 NBFU=   737
 Precomputing XC quadrature grid using
 IXCGrd= 4 IRadAn=           5 IRanWt=          -1 IRanGd=           0 AccXCQ= 0.00D+00.
 Generated NRdTot=       0 NPtTot=           0 NUsed=           0 NTot=          32
 NSgBfM=   769   769   769   769   769 MxSgAt=    70 MxSgA2=    70.
 Leave Link  302 at Fri Jan 26 04:20:27 2018, MaxMem=  4294967296 cpu:             135.3 elap:               4.3
 (Enter /share/apps/g16/l303.exe)
 DipDrv:  MaxL=1.
 Leave Link  303 at Fri Jan 26 04:20:27 2018, MaxMem=  4294967296 cpu:              12.5 elap:               0.4
 (Enter /share/apps/g16/l401.exe)
 ExpMin= 1.22D-01 ExpMax= 1.17D+04 ExpMxC= 4.01D+02 IAcc=3 IRadAn=         5 AccDes= 0.00D+00
 Harris functional with IExCor= 4639 and IRadAn=       5 diagonalized for initial guess.
 HarFok:  IExCor= 4639 AccDes= 0.00D+00 IRadAn=         5 IDoV= 1 UseB2=F ITyADJ=14
 ICtDFT=  3500011 ScaDFX=  1.000000  1.000000  1.000000  1.000000
 FoFCou: FMM=F IPFlag=           0 FMFlag=      100000 FMFlg1=        2001
         NFxFlg=           0 DoJE=T BraDBF=F KetDBF=T FulRan=T
         wScrn=  0.000000 ICntrl=       500 IOpCl=  0 I1Cent=   200000004 NGrid=           0
         NMat0=    1 NMatS0=      1 NMatT0=    0 NMatD0=    1 NMtDS0=    0 NMtDT0=    0
 Petite list used in FoFCou.
 Harris En= -1963.77239157353    
 JPrj=0 DoOrth=F DoCkMO=F.
 Leave Link  401 at Fri Jan 26 04:20:40 2018, MaxMem=  4294967296 cpu:             400.0 elap:              12.6
 (Enter /share/apps/g16/l502.exe)
 Integral symmetry usage will be decided dynamically.
 Closed shell SCF:
 Using DIIS extrapolation, IDIIS=  1040.
 NGot=  4294967296 LenX=  4293717438 LenY=  4293108258
 Requested convergence on RMS density matrix=1.00D-08 within  20 cycles.
 Requested convergence on MAX density matrix=1.00D-06.
 Requested convergence on             energy=1.00D-06.
 No special actions if energy rises.
 Fock matrices will be formed incrementally for  20 cycles.
 Integral accuracy reduced to 1.0D-05 until final iterations.

 Cycle   1  Pass 0  IDiag  1:
 FoFJK:  IHMeth= 1 ICntrl=       0 DoSepK=T KAlg= 0 I1Cent=           0 FoldK=F
 IRaf=         1 NMat=       1 IRICut=       1 DoRegI=T DoRafI=F ISym2E= 0 IDoP0=0 IntGTp=1.
 FoFCou: FMM=T IPFlag=           0 FMFlag=      100000 FMFlg1=        2001
         NFxFlg=           0 DoJE=T BraDBF=F KetDBF=F FulRan=T
         wScrn=  0.000000 ICntrl=       500 IOpCl=  0 I1Cent=           0 NGrid=           0
         NMat0=    1 NMatS0=      1 NMatT0=    0 NMatD0=    1 NMtDS0=    0 NMtDT0=    0
 Symmetry not used in FoFCou.
 FMM levels:  10  Number of levels for PrismC:   9
 E= -2048.21759059363    
 DIIS: error= 2.57D-02 at cycle   1 NSaved=   1.
 NSaved= 1 IEnMin= 1 EnMin= -2048.21759059363     IErMin= 1 ErrMin= 2.57D-02
 ErrMax= 2.57D-02  0.00D+00 EMaxC= 1.00D-01 BMatC= 8.35D-01 BMatP= 8.35D-01
 IDIUse=3 WtCom= 7.43D-01 WtEn= 2.57D-01
 Coeff-Com:  0.100D+01
 Coeff-En:   0.100D+01
 Coeff:      0.100D+01
 Gap=     0.280 Goal=   None    Shift=    0.000
 GapD=    0.280 DampG=1.000 DampE=0.500 DampFc=0.5000 IDamp=-1.
 Damping current iteration by 5.00D-01
 RMSDP=1.61D-03 MaxDP=1.31D-01              OVMax= 2.12D-01

 Cycle   2  Pass 0  IDiag  1:
 RMSU=  8.02D-04    CP:  9.97D-01
 E= -2048.41772585403     Delta-E=       -0.200135260401 Rises=F Damp=T
 DIIS: error= 1.29D-02 at cycle   2 NSaved=   2.
 NSaved= 2 IEnMin= 2 EnMin= -2048.41772585403     IErMin= 2 ErrMin= 1.29D-02
 ErrMax= 1.29D-02  0.00D+00 EMaxC= 1.00D-01 BMatC= 1.45D-01 BMatP= 8.35D-01
 IDIUse=3 WtCom= 8.71D-01 WtEn= 1.29D-01
 Coeff-Com: -0.194D+00 0.119D+01
 Coeff-En:   0.000D+00 0.100D+01
 Coeff:     -0.169D+00 0.117D+01
 Gap=     0.361 Goal=   None    Shift=    0.000
 RMSDP=5.91D-04 MaxDP=3.42D-02 DE=-2.00D-01 OVMax= 1.61D-01

 Cycle   3  Pass 0  IDiag  1:
 RMSU=  5.78D-04    CP:  9.93D-01  1.14D+00
 E= -2048.60260688273     Delta-E=       -0.184881028701 Rises=F Damp=F
 DIIS: error= 7.46D-03 at cycle   3 NSaved=   3.
 NSaved= 3 IEnMin= 3 EnMin= -2048.60260688273     IErMin= 3 ErrMin= 7.46D-03
 ErrMax= 7.46D-03  0.00D+00 EMaxC= 1.00D-01 BMatC= 6.06D-02 BMatP= 1.45D-01
 IDIUse=3 WtCom= 9.25D-01 WtEn= 7.46D-02
 Coeff-Com: -0.228D+00 0.539D+00 0.689D+00
 Coeff-En:   0.000D+00 0.000D+00 0.100D+01
 Coeff:     -0.211D+00 0.499D+00 0.712D+00
 Gap=     0.279 Goal=   None    Shift=    0.000
 RMSDP=3.50D-04 MaxDP=3.43D-02 DE=-1.85D-01 OVMax= 7.54D-02

 Cycle   4  Pass 0  IDiag  1:
 RMSU=  2.04D-04    CP:  9.94D-01  1.42D+00  6.87D-01
 E= -2048.64832224770     Delta-E=       -0.045715364962 Rises=F Damp=F
 DIIS: error= 2.79D-03 at cycle   4 NSaved=   4.
 NSaved= 4 IEnMin= 4 EnMin= -2048.64832224770     IErMin= 4 ErrMin= 2.79D-03
 ErrMax= 2.79D-03  0.00D+00 EMaxC= 1.00D-01 BMatC= 8.91D-03 BMatP= 6.06D-02
 IDIUse=3 WtCom= 9.72D-01 WtEn= 2.79D-02
 Coeff-Com: -0.951D-01 0.184D+00 0.382D+00 0.529D+00
 Coeff-En:   0.000D+00 0.000D+00 0.623D-01 0.938D+00
 Coeff:     -0.924D-01 0.179D+00 0.373D+00 0.540D+00
 Gap=     0.283 Goal=   None    Shift=    0.000
 RMSDP=1.27D-04 MaxDP=1.26D-02 DE=-4.57D-02 OVMax= 1.31D-02

 Cycle   5  Pass 0  IDiag  1:
 RMSU=  6.27D-05    CP:  9.93D-01  1.39D+00  8.17D-01  6.16D-01
 E= -2048.65560975567     Delta-E=       -0.007287507972 Rises=F Damp=F
 DIIS: error= 6.19D-04 at cycle   5 NSaved=   5.
 NSaved= 5 IEnMin= 5 EnMin= -2048.65560975567     IErMin= 5 ErrMin= 6.19D-04
 ErrMax= 6.19D-04  0.00D+00 EMaxC= 1.00D-01 BMatC= 2.89D-04 BMatP= 8.91D-03
 IDIUse=3 WtCom= 9.94D-01 WtEn= 6.19D-03
 Coeff-Com: -0.234D-01 0.397D-01 0.118D+00 0.236D+00 0.630D+00
 Coeff-En:   0.000D+00 0.000D+00 0.000D+00 0.000D+00 0.100D+01
 Coeff:     -0.232D-01 0.395D-01 0.118D+00 0.234D+00 0.632D+00
 Gap=     0.283 Goal=   None    Shift=    0.000
 RMSDP=2.62D-05 MaxDP=2.07D-03 DE=-7.29D-03 OVMax= 3.27D-03

 Failed to achieve initial convergence to 1.0D-08 in  6 cycles.
 Switch to full accuracy anyway.
 Cycle   6  Pass 1  IDiag  1:
 E= -2048.65605726304     Delta-E=       -0.000447507371 Rises=F Damp=F
 DIIS: error= 2.26D-04 at cycle   1 NSaved=   1.
 NSaved= 1 IEnMin= 1 EnMin= -2048.65605726304     IErMin= 1 ErrMin= 2.26D-04
 ErrMax= 2.26D-04  0.00D+00 EMaxC= 1.00D-01 BMatC= 8.13D-05 BMatP= 8.13D-05
 IDIUse=3 WtCom= 9.98D-01 WtEn= 2.26D-03
 Coeff-Com:  0.100D+01
 Coeff-En:   0.100D+01
 Coeff:      0.100D+01
 Gap=     0.283 Goal=   None    Shift=    0.000
 RMSDP=2.62D-05 MaxDP=2.07D-03 DE=-4.48D-04 OVMax= 2.59D-03

 Cycle   7  Pass 1  IDiag  1:
 RMSU=  1.19D-04    CP:  1.00D+00
 E= -2048.65611686474     Delta-E=       -0.000059601698 Rises=F Damp=F
 DIIS: error= 2.40D-04 at cycle   2 NSaved=   2.
 NSaved= 2 IEnMin= 2 EnMin= -2048.65611686474     IErMin= 1 ErrMin= 2.26D-04
 ErrMax= 2.40D-04  0.00D+00 EMaxC= 1.00D-01 BMatC= 4.40D-05 BMatP= 8.13D-05
 IDIUse=3 WtCom= 9.98D-01 WtEn= 2.40D-03
 Coeff-Com:  0.396D+00 0.604D+00
 Coeff-En:   0.000D+00 0.100D+01
 Coeff:      0.395D+00 0.605D+00
 Gap=     0.283 Goal=   None    Shift=    0.000
 RMSDP=1.17D-05 MaxDP=1.23D-03 DE=-5.96D-05 OVMax= 1.48D-03

 Cycle   8  Pass 1  IDiag  1:
 RMSU=  1.13D-05    CP:  1.00D+00  1.03D+00
 E= -2048.65614754265     Delta-E=       -0.000030677911 Rises=F Damp=F
 DIIS: error= 1.03D-04 at cycle   3 NSaved=   3.
 NSaved= 3 IEnMin= 3 EnMin= -2048.65614754265     IErMin= 3 ErrMin= 1.03D-04
 ErrMax= 1.03D-04  0.00D+00 EMaxC= 1.00D-01 BMatC= 1.14D-05 BMatP= 4.40D-05
 IDIUse=3 WtCom= 9.99D-01 WtEn= 1.03D-03
 Coeff-Com: -0.187D-01 0.326D+00 0.693D+00
 Coeff-En:   0.000D+00 0.154D+00 0.846D+00
 Coeff:     -0.186D-01 0.325D+00 0.693D+00
 Gap=     0.283 Goal=   None    Shift=    0.000
 RMSDP=5.77D-06 MaxDP=5.01D-04 DE=-3.07D-05 OVMax= 5.60D-04

 Cycle   9  Pass 1  IDiag  1:
 RMSU=  3.84D-06    CP:  1.00D+00  1.05D+00  7.48D-01
 E= -2048.65615774766     Delta-E=       -0.000010205008 Rises=F Damp=F
 DIIS: error= 4.61D-05 at cycle   4 NSaved=   4.
 NSaved= 4 IEnMin= 4 EnMin= -2048.65615774766     IErMin= 4 ErrMin= 4.61D-05
 ErrMax= 4.61D-05  0.00D+00 EMaxC= 1.00D-01 BMatC= 5.17D-07 BMatP= 1.14D-05
 IDIUse=1 WtCom= 1.00D+00 WtEn= 0.00D+00
 Coeff-Com: -0.285D-01 0.936D-01 0.259D+00 0.676D+00
 Coeff:     -0.285D-01 0.936D-01 0.259D+00 0.676D+00
 Gap=     0.283 Goal=   None    Shift=    0.000
 RMSDP=1.43D-06 MaxDP=1.44D-04 DE=-1.02D-05 OVMax= 5.06D-04

 Cycle  10  Pass 1  IDiag  1:
 RMSU=  1.29D-06    CP:  1.00D+00  1.06D+00  7.79D-01  1.09D+00
 E= -2048.65615857461     Delta-E=       -0.000000826958 Rises=F Damp=F
 DIIS: error= 1.62D-05 at cycle   5 NSaved=   5.
 NSaved= 5 IEnMin= 5 EnMin= -2048.65615857461     IErMin= 5 ErrMin= 1.62D-05
 ErrMax= 1.62D-05  0.00D+00 EMaxC= 1.00D-01 BMatC= 1.19D-07 BMatP= 5.17D-07
 IDIUse=1 WtCom= 1.00D+00 WtEn= 0.00D+00
 Coeff-Com: -0.213D-02-0.587D-01-0.122D+00 0.194D+00 0.989D+00
 Coeff:     -0.213D-02-0.587D-01-0.122D+00 0.194D+00 0.989D+00
 Gap=     0.283 Goal=   None    Shift=    0.000
 RMSDP=1.21D-06 MaxDP=7.40D-05 DE=-8.27D-07 OVMax= 2.42D-04

 Cycle  11  Pass 1  IDiag  1:
 RMSU=  5.06D-07    CP:  1.00D+00  1.06D+00  7.89D-01  1.37D+00  1.18D+00
 E= -2048.65615883220     Delta-E=       -0.000000257586 Rises=F Damp=F
 DIIS: error= 8.63D-06 at cycle   6 NSaved=   6.
 NSaved= 6 IEnMin= 6 EnMin= -2048.65615883220     IErMin= 6 ErrMin= 8.63D-06
 ErrMax= 8.63D-06  0.00D+00 EMaxC= 1.00D-01 BMatC= 2.74D-08 BMatP= 1.19D-07
 IDIUse=1 WtCom= 1.00D+00 WtEn= 0.00D+00
 Coeff-Com:  0.450D-02-0.474D-01-0.112D+00-0.367D-02 0.522D+00 0.636D+00
 Coeff:      0.450D-02-0.474D-01-0.112D+00-0.367D-02 0.522D+00 0.636D+00
 Gap=     0.283 Goal=   None    Shift=    0.000
 RMSDP=3.64D-07 MaxDP=3.63D-05 DE=-2.58D-07 OVMax= 1.27D-04

 Cycle  12  Pass 1  IDiag  1:
 RMSU=  1.83D-07    CP:  1.00D+00  1.06D+00  7.90D-01  1.44D+00  1.31D+00
                    CP:  9.35D-01
 E= -2048.65615887223     Delta-E=       -0.000000040031 Rises=F Damp=F
 DIIS: error= 1.06D-06 at cycle   7 NSaved=   7.
 NSaved= 7 IEnMin= 7 EnMin= -2048.65615887223     IErMin= 7 ErrMin= 1.06D-06
 ErrMax= 1.06D-06  0.00D+00 EMaxC= 1.00D-01 BMatC= 7.28D-10 BMatP= 2.74D-08
 IDIUse=1 WtCom= 1.00D+00 WtEn= 0.00D+00
 Coeff-Com:  0.881D-03-0.599D-02-0.155D-01-0.795D-02 0.359D-01 0.115D+00
 Coeff-Com:  0.878D+00
 Coeff:      0.881D-03-0.599D-02-0.155D-01-0.795D-02 0.359D-01 0.115D+00
 Coeff:      0.878D+00
 Gap=     0.283 Goal=   None    Shift=    0.000
 RMSDP=8.90D-08 MaxDP=5.32D-06 DE=-4.00D-08 OVMax= 2.29D-05

 Cycle  13  Pass 1  IDiag  1:
 RMSU=  5.07D-08    CP:  1.00D+00  1.06D+00  7.90D-01  1.45D+00  1.33D+00
                    CP:  1.03D+00  1.16D+00
 E= -2048.65615887420     Delta-E=       -0.000000001972 Rises=F Damp=F
 DIIS: error= 5.67D-07 at cycle   8 NSaved=   8.
 NSaved= 8 IEnMin= 8 EnMin= -2048.65615887420     IErMin= 8 ErrMin= 5.67D-07
 ErrMax= 5.67D-07  0.00D+00 EMaxC= 1.00D-01 BMatC= 3.07D-10 BMatP= 7.28D-10
 IDIUse=1 WtCom= 1.00D+00 WtEn= 0.00D+00
 Coeff-Com: -0.686D-03 0.894D-02 0.204D-01-0.129D-02-0.112D+00-0.981D-01
 Coeff-Com:  0.438D+00 0.745D+00
 Coeff:     -0.686D-03 0.894D-02 0.204D-01-0.129D-02-0.112D+00-0.981D-01
 Coeff:      0.438D+00 0.745D+00
 Gap=     0.283 Goal=   None    Shift=    0.000
 RMSDP=4.49D-08 MaxDP=2.41D-06 DE=-1.97D-09 OVMax= 1.01D-05

 Cycle  14  Pass 1  IDiag  1:
 RMSU=  2.77D-08    CP:  1.00D+00  1.06D+00  7.89D-01  1.45D+00  1.33D+00
                    CP:  1.07D+00  1.30D+00  1.09D+00
 E= -2048.65615887464     Delta-E=       -0.000000000437 Rises=F Damp=F
 DIIS: error= 1.78D-07 at cycle   9 NSaved=   9.
 NSaved= 9 IEnMin= 9 EnMin= -2048.65615887464     IErMin= 9 ErrMin= 1.78D-07
 ErrMax= 1.78D-07  0.00D+00 EMaxC= 1.00D-01 BMatC= 3.13D-11 BMatP= 3.07D-10
 IDIUse=1 WtCom= 1.00D+00 WtEn= 0.00D+00
 Coeff-Com: -0.399D-03 0.458D-02 0.107D-01 0.600D-03-0.521D-01-0.560D-01
 Coeff-Com:  0.850D-01 0.300D+00 0.708D+00
 Coeff:     -0.399D-03 0.458D-02 0.107D-01 0.600D-03-0.521D-01-0.560D-01
 Coeff:      0.850D-01 0.300D+00 0.708D+00
 Gap=     0.283 Goal=   None    Shift=    0.000
 RMSDP=1.42D-08 MaxDP=8.24D-07 DE=-4.37D-10 OVMax= 3.28D-06

 Cycle  15  Pass 1  IDiag  1:
 RMSU=  9.25D-09    CP:  1.00D+00  1.06D+00  7.89D-01  1.45D+00  1.34D+00
                    CP:  1.07D+00  1.33D+00  1.25D+00  1.10D+00
 E= -2048.65615887455     Delta-E=        0.000000000089 Rises=F Damp=F
 DIIS: error= 7.66D-08 at cycle  10 NSaved=  10.
 NSaved=10 IEnMin= 9 EnMin= -2048.65615887464     IErMin=10 ErrMin= 7.66D-08
 ErrMax= 7.66D-08  0.00D+00 EMaxC= 1.00D-01 BMatC= 6.12D-12 BMatP= 3.13D-11
 IDIUse=1 WtCom= 1.00D+00 WtEn= 0.00D+00
 Coeff-Com:  0.151D-04-0.441D-03-0.909D-03 0.135D-03 0.697D-02 0.240D-02
 Coeff-Com: -0.636D-01-0.654D-01 0.288D+00 0.833D+00
 Coeff:      0.151D-04-0.441D-03-0.909D-03 0.135D-03 0.697D-02 0.240D-02
 Coeff:     -0.636D-01-0.654D-01 0.288D+00 0.833D+00
 Gap=     0.283 Goal=   None    Shift=    0.000
 RMSDP=7.51D-09 MaxDP=3.79D-07 DE= 8.91D-11 OVMax= 1.51D-06

 SCF Done:  E(RwB97XD) =  -2048.65615887     A.U. after   15 cycles
            NFock= 15  Conv=0.75D-08     -V/T= 2.0051
 KE= 2.038225589365D+03 PE=-1.581554205096D+04 EE= 6.211352978306D+03
 Leave Link  502 at Fri Jan 26 04:32:18 2018, MaxMem=  4294967296 cpu:           21646.0 elap:             698.1
 (Enter /share/apps/g16/l601.exe)
 Copying SCF densities to generalized density rwf, IOpCl= 0 IROHF=0.

 **********************************************************************

            Population analysis using the SCF density.

 **********************************************************************

 Orbital symmetries:
       Occupied  (A) (A) (A) (A) (A) (A) (A) (A) (A) (A) (A) (A)
                 (A) (A) (A) (A) (A) (A) (A) (A) (A) (A) (A) (A)
                 (A) (A) (A) (A) (A) (A) (A) (A) (A) (A) (A) (A)
                 (A) (A) (A) (A) (A) (A) (A) (A) (A) (A) (A) (A)
                 (A) (A) (A) (A) (A) (A) (A) (A) (A) (A) (A) (A)
                 (A) (A) (A) (A) (A) (A) (A) (A) (A) (A) (A) (A)
                 (A) (A) (A) (A) (A) (A) (A) (A) (A) (A) (A) (A)
                 (A) (A) (A) (A) (A) (A) (A) (A) (A) (A) (A) (A)
                 (A) (A) (A) (A) (A) (A) (A) (A) (A) (A) (A) (A)
                 (A) (A) (A) (A) (A) (A) (A) (A) (A) (A) (A) (A)
                 (A) (A) (A) (A) (A) (A) (A) (A) (A) (A) (A) (A)
                 (A) (A) (A) (A) (A) (A) (A) (A) (A) (A) (A) (A)
                 (A) (A) (A) (A) (A) (A) (A) (A) (A) (A)
       Virtual   (A) (A) (A) (A) (A) (A) (A) (A) (A) (A) (A) (A)
                 (A) (A) (A) (A) (A) (A) (A) (A) (A) (A) (A) (A)
                 (A) (A) (A) (A) (A) (A) (A) (A) (A) (A) (A) (A)
                 (A) (A) (A) (A) (A) (A) (A) (A) (A) (A) (A) (A)
                 (A) (A) (A) (A) (A) (A) (A) (A) (A) (A) (A) (A)
                 (A) (A) (A) (A) (A) (A) (A) (A) (A) (A) (A) (A)
                 (A) (A) (A) (A) (A) (A) (A) (A) (A) (A) (A) (A)
                 (A) (A) (A) (A) (A) (A) (A) (A) (A) (A) (A) (A)
                 (A) (A) (A) (A) (A) (A) (A) (A) (A) (A) (A) (A)
                 (A) (A) (A) (A) (A) (A) (A) (A) (A) (A) (A) (A)
                 (A) (A) (A) (A) (A) (A) (A) (A) (A) (A) (A) (A)
                 (A) (A) (A) (A) (A) (A) (A) (A) (A) (A) (A) (A)
                 (A) (A) (A) (A) (A) (A) (A) (A) (A) (A) (A) (A)
                 (A) (A) (A) (A) (A) (A) (A) (A) (A) (A) (A) (A)
                 (A) (A) (A) (A) (A) (A) (A) (A) (A) (A) (A) (A)
                 (A) (A) (A) (A) (A) (A) (A) (A) (A) (A) (A) (A)
                 (A) (A) (A) (A) (A) (A) (A) (A) (A) (A) (A) (A)
                 (A) (A) (A) (A) (A) (A) (A) (A) (A) (A) (A) (A)
                 (A) (A) (A) (A) (A) (A) (A) (A) (A) (A) (A) (A)
                 (A) (A) (A) (A) (A) (A) (A) (A) (A) (A) (A) (A)
                 (A) (A) (A) (A) (A) (A) (A) (A) (A) (A) (A) (A)
                 (A) (A) (A) (A) (A) (A) (A) (A) (A) (A) (A) (A)
                 (A) (A) (A) (A) (A) (A) (A) (A) (A) (A) (A) (A)
                 (A) (A) (A) (A) (A) (A) (A) (A) (A) (A) (A) (A)
                 (A) (A) (A) (A) (A) (A) (A) (A) (A) (A) (A) (A)
                 (A) (A) (A) (A) (A) (A) (A) (A) (A) (A) (A) (A)
                 (A) (A) (A) (A) (A) (A) (A) (A) (A) (A) (A) (A)
                 (A) (A) (A) (A) (A) (A) (A) (A) (A) (A) (A) (A)
                 (A) (A) (A) (A) (A) (A) (A) (A) (A) (A) (A) (A)
                 (A) (A) (A) (A) (A) (A) (A) (A) (A) (A) (A) (A)
                 (A) (A) (A) (A) (A) (A) (A) (A) (A) (A) (A) (A)
                 (A) (A) (A) (A) (A) (A) (A) (A) (A) (A) (A) (A)
                 (A) (A) (A) (A) (A) (A) (A) (A) (A) (A) (A) (A)
                 (A) (A) (A) (A) (A) (A) (A) (A) (A) (A) (A) (A)
                 (A) (A) (A) (A) (A) (A) (A) (A) (A) (A) (A) (A)
                 (A) (A) (A) (A) (A) (A) (A) (A) (A) (A) (A) (A)
                 (A) (A) (A) (A) (A) (A) (A) (A) (A) (A) (A) (A)
                 (A) (A) (A) (A) (A) (A) (A) (A) (A) (A) (A) (A)
                 (A) (A) (A) (A) (A) (A) (A) (A) (A) (A) (A) (A)
                 (A) (A) (A) (A) (A) (A) (A) (A) (A) (A) (A) (A)
                 (A) (A) (A) (A) (A) (A) (A) (A) (A) (A) (A) (A)
                 (A) (A) (A) (A) (A) (A) (A) (A) (A) (A) (A) (A)
                 (A) (A) (A) (A) (A) (A) (A) (A) (A) (A) (A) (A)
                 (A) (A) (A) (A) (A) (A) (A) (A) (A) (A) (A) (A)
                 (A) (A) (A) (A) (A) (A) (A) (A) (A) (A) (A) (A)
                 (A) (A) (A) (A) (A) (A) (A) (A) (A) (A) (A) (A)
                 (A) (A) (A) (A) (A) (A) (A) (A) (A) (A) (A) (A)
                 (A) (A) (A) (A) (A) (A) (A) (A) (A) (A) (A) (A)
                 (A) (A) (A) (A) (A) (A) (A)
 The electronic state is 1-A.
 Alpha  occ. eigenvalues --  -19.25935 -19.21955 -19.20732 -14.52448 -14.52438
 Alpha  occ. eigenvalues --  -14.48828 -14.48758 -14.47883 -14.47858 -14.46639
 Alpha  occ. eigenvalues --  -14.45510 -14.45242 -14.43577 -14.42438 -14.42404
 Alpha  occ. eigenvalues --  -14.42166 -14.41454 -14.40906 -14.40763 -14.40160
 Alpha  occ. eigenvalues --  -10.45515 -10.41117 -10.40083 -10.39356 -10.38241
 Alpha  occ. eigenvalues --  -10.37821 -10.37776 -10.36636 -10.35484 -10.35039
 Alpha  occ. eigenvalues --  -10.35030 -10.34416 -10.34326 -10.34114 -10.33367
 Alpha  occ. eigenvalues --  -10.33218 -10.33120 -10.32088 -10.31148 -10.30976
 Alpha  occ. eigenvalues --  -10.30929 -10.28555 -10.28143  -1.19495  -1.15236
 Alpha  occ. eigenvalues --   -1.13510  -1.12993  -1.11347  -1.10674  -1.09373
 Alpha  occ. eigenvalues --   -1.09281  -1.08461  -1.05009  -1.04326  -1.02494
 Alpha  occ. eigenvalues --   -1.01308  -1.00511  -0.99786  -0.98678  -0.97011
 Alpha  occ. eigenvalues --   -0.96665  -0.96258  -0.92674  -0.91057  -0.87546
 Alpha  occ. eigenvalues --   -0.86219  -0.84152  -0.83942  -0.83545  -0.82594
 Alpha  occ. eigenvalues --   -0.82326  -0.78894  -0.76930  -0.74893  -0.74718
 Alpha  occ. eigenvalues --   -0.73666  -0.73351  -0.72954  -0.71095  -0.70357
 Alpha  occ. eigenvalues --   -0.67629  -0.66760  -0.66498  -0.66369  -0.64512
 Alpha  occ. eigenvalues --   -0.64356  -0.63803  -0.62989  -0.62807  -0.62418
 Alpha  occ. eigenvalues --   -0.60558  -0.60441  -0.60279  -0.59662  -0.59522
 Alpha  occ. eigenvalues --   -0.59293  -0.58333  -0.57571  -0.56551  -0.56359
 Alpha  occ. eigenvalues --   -0.56105  -0.56023  -0.55495  -0.54773  -0.54278
 Alpha  occ. eigenvalues --   -0.54015  -0.53581  -0.53144  -0.53000  -0.52869
 Alpha  occ. eigenvalues --   -0.52338  -0.52166  -0.51767  -0.50770  -0.50233
 Alpha  occ. eigenvalues --   -0.50194  -0.49460  -0.49411  -0.48896  -0.48821
 Alpha  occ. eigenvalues --   -0.48759  -0.48556  -0.48294  -0.48161  -0.47427
 Alpha  occ. eigenvalues --   -0.46945  -0.46287  -0.45072  -0.43941  -0.43176
 Alpha  occ. eigenvalues --   -0.41200  -0.40309  -0.39500  -0.37944  -0.37458
 Alpha  occ. eigenvalues --   -0.37310  -0.37214  -0.36644  -0.35902  -0.34778
 Alpha  occ. eigenvalues --   -0.34317  -0.33608  -0.33497  -0.33143  -0.32683
 Alpha  occ. eigenvalues --   -0.32483  -0.31968  -0.31868  -0.30797  -0.30689
 Alpha  occ. eigenvalues --   -0.30190  -0.28590  -0.26004  -0.25217
 Alpha virt. eigenvalues --    0.03070   0.04189   0.07507   0.07958   0.08460
 Alpha virt. eigenvalues --    0.09084   0.09259   0.10868   0.11463   0.12049
 Alpha virt. eigenvalues --    0.12586   0.13893   0.14187   0.14628   0.14898
 Alpha virt. eigenvalues --    0.15737   0.15949   0.16497   0.16912   0.17723
 Alpha virt. eigenvalues --    0.18652   0.19351   0.19817   0.20427   0.20472
 Alpha virt. eigenvalues --    0.21014   0.21044   0.21109   0.21364   0.21876
 Alpha virt. eigenvalues --    0.22679   0.23352   0.23478   0.23841   0.23952
 Alpha virt. eigenvalues --    0.24053   0.24417   0.24499   0.25096   0.25687
 Alpha virt. eigenvalues --    0.26191   0.26632   0.27727   0.28061   0.28790
 Alpha virt. eigenvalues --    0.29068   0.29372   0.29529   0.30388   0.30858
 Alpha virt. eigenvalues --    0.31495   0.31994   0.32654   0.33402   0.33681
 Alpha virt. eigenvalues --    0.34149   0.34413   0.34750   0.36020   0.36611
 Alpha virt. eigenvalues --    0.37238   0.37426   0.38012   0.39214   0.39731
 Alpha virt. eigenvalues --    0.40098   0.40511   0.40783   0.41366   0.41702
 Alpha virt. eigenvalues --    0.42434   0.42702   0.43567   0.43671   0.44428
 Alpha virt. eigenvalues --    0.44667   0.45458   0.46065   0.46510   0.47167
 Alpha virt. eigenvalues --    0.47327   0.47964   0.48921   0.49708   0.49803
 Alpha virt. eigenvalues --    0.50057   0.50528   0.50741   0.50993   0.51503
 Alpha virt. eigenvalues --    0.51919   0.52451   0.52521   0.53238   0.53444
 Alpha virt. eigenvalues --    0.53619   0.54506   0.55250   0.55457   0.55925
 Alpha virt. eigenvalues --    0.56451   0.57235   0.57372   0.57517   0.57893
 Alpha virt. eigenvalues --    0.58360   0.58812   0.58985   0.59445   0.59789
 Alpha virt. eigenvalues --    0.59956   0.60269   0.60516   0.61081   0.61478
 Alpha virt. eigenvalues --    0.62160   0.62372   0.62907   0.63014   0.63367
 Alpha virt. eigenvalues --    0.63805   0.64252   0.64479   0.64742   0.65554
 Alpha virt. eigenvalues --    0.65951   0.66577   0.66858   0.67463   0.67902
 Alpha virt. eigenvalues --    0.67999   0.68595   0.68764   0.69066   0.69490
 Alpha virt. eigenvalues --    0.70032   0.70052   0.70300   0.70629   0.70927
 Alpha virt. eigenvalues --    0.71927   0.72492   0.73290   0.73636   0.74194
 Alpha virt. eigenvalues --    0.74526   0.74745   0.75062   0.75540   0.75735
 Alpha virt. eigenvalues --    0.75847   0.76009   0.76371   0.76584   0.76980
 Alpha virt. eigenvalues --    0.77166   0.77526   0.77925   0.78499   0.78658
 Alpha virt. eigenvalues --    0.79167   0.79495   0.80551   0.80810   0.81414
 Alpha virt. eigenvalues --    0.81876   0.81994   0.82379   0.82778   0.83248
 Alpha virt. eigenvalues --    0.83660   0.83867   0.84376   0.84967   0.85498
 Alpha virt. eigenvalues --    0.85899   0.86607   0.86692   0.87066   0.87237
 Alpha virt. eigenvalues --    0.87778   0.88188   0.89454   0.89762   0.90149
 Alpha virt. eigenvalues --    0.90297   0.90897   0.91188   0.91477   0.92136
 Alpha virt. eigenvalues --    0.92576   0.93090   0.93443   0.93758   0.94179
 Alpha virt. eigenvalues --    0.94365   0.94795   0.95782   0.96375   0.96493
 Alpha virt. eigenvalues --    0.97035   0.97433   0.97823   0.98116   0.98297
 Alpha virt. eigenvalues --    0.99144   1.00244   1.00677   1.01080   1.01572
 Alpha virt. eigenvalues --    1.01935   1.02462   1.02851   1.03064   1.03364
 Alpha virt. eigenvalues --    1.03825   1.04466   1.04824   1.05528   1.05741
 Alpha virt. eigenvalues --    1.06395   1.06867   1.07129   1.08709   1.09009
 Alpha virt. eigenvalues --    1.09499   1.10310   1.10608   1.10974   1.11761
 Alpha virt. eigenvalues --    1.11783   1.12323   1.13809   1.14101   1.14467
 Alpha virt. eigenvalues --    1.14742   1.14940   1.15645   1.15794   1.16249
 Alpha virt. eigenvalues --    1.16495   1.17145   1.17229   1.17462   1.18072
 Alpha virt. eigenvalues --    1.18809   1.19279   1.19524   1.20240   1.20443
 Alpha virt. eigenvalues --    1.20660   1.20762   1.21215   1.21557   1.22280
 Alpha virt. eigenvalues --    1.22943   1.23007   1.23426   1.23489   1.24186
 Alpha virt. eigenvalues --    1.24264   1.24456   1.24926   1.25918   1.26384
 Alpha virt. eigenvalues --    1.27236   1.27424   1.27816   1.28897   1.29080
 Alpha virt. eigenvalues --    1.29679   1.30288   1.31649   1.32369   1.32484
 Alpha virt. eigenvalues --    1.33094   1.33955   1.34338   1.35003   1.35489
 Alpha virt. eigenvalues --    1.35922   1.36386   1.37396   1.37773   1.38199
 Alpha virt. eigenvalues --    1.39148   1.39811   1.40443   1.41213   1.42052
 Alpha virt. eigenvalues --    1.42859   1.43806   1.44751   1.45176   1.46464
 Alpha virt. eigenvalues --    1.46656   1.47415   1.48085   1.48615   1.48688
 Alpha virt. eigenvalues --    1.49177   1.49491   1.50181   1.50581   1.51569
 Alpha virt. eigenvalues --    1.52883   1.53014   1.54813   1.55424   1.56141
 Alpha virt. eigenvalues --    1.56220   1.56877   1.57017   1.58194   1.58542
 Alpha virt. eigenvalues --    1.58879   1.59540   1.60179   1.60571   1.61600
 Alpha virt. eigenvalues --    1.61769   1.62630   1.63159   1.63547   1.64623
 Alpha virt. eigenvalues --    1.65221   1.65699   1.66179   1.67044   1.67519
 Alpha virt. eigenvalues --    1.67956   1.68199   1.68585   1.69234   1.70020
 Alpha virt. eigenvalues --    1.70397   1.70578   1.70746   1.71150   1.71528
 Alpha virt. eigenvalues --    1.72517   1.72879   1.73128   1.73447   1.73894
 Alpha virt. eigenvalues --    1.74378   1.74847   1.75254   1.75496   1.75598
 Alpha virt. eigenvalues --    1.76092   1.76288   1.76597   1.76930   1.77486
 Alpha virt. eigenvalues --    1.78063   1.78300   1.79272   1.79613   1.79958
 Alpha virt. eigenvalues --    1.80089   1.80313   1.80405   1.80772   1.81004
 Alpha virt. eigenvalues --    1.81553   1.81816   1.82147   1.82919   1.83041
 Alpha virt. eigenvalues --    1.83525   1.83575   1.83901   1.84543   1.85094
 Alpha virt. eigenvalues --    1.85469   1.86877   1.87235   1.87352   1.88094
 Alpha virt. eigenvalues --    1.88326   1.88456   1.88782   1.89251   1.89459
 Alpha virt. eigenvalues --    1.90280   1.90695   1.91051   1.91775   1.92711
 Alpha virt. eigenvalues --    1.93182   1.93501   1.93904   1.94498   1.94827
 Alpha virt. eigenvalues --    1.95394   1.96229   1.96670   1.97373   1.97710
 Alpha virt. eigenvalues --    1.99172   1.99476   2.00731   2.01450   2.01733
 Alpha virt. eigenvalues --    2.02268   2.02679   2.03901   2.04096   2.05054
 Alpha virt. eigenvalues --    2.05829   2.05942   2.06893   2.07437   2.07937
 Alpha virt. eigenvalues --    2.08637   2.08964   2.09422   2.10029   2.10491
 Alpha virt. eigenvalues --    2.10614   2.11034   2.12801   2.13159   2.13593
 Alpha virt. eigenvalues --    2.14198   2.15317   2.15716   2.17771   2.19673
 Alpha virt. eigenvalues --    2.20080   2.20376   2.20736   2.21191   2.21431
 Alpha virt. eigenvalues --    2.22065   2.22573   2.23165   2.23983   2.24295
 Alpha virt. eigenvalues --    2.25255   2.25630   2.25964   2.26182   2.27136
 Alpha virt. eigenvalues --    2.28360   2.28635   2.29655   2.30110   2.30589
 Alpha virt. eigenvalues --    2.31043   2.31620   2.32077   2.32772   2.33400
 Alpha virt. eigenvalues --    2.34051   2.34749   2.35033   2.35292   2.36172
 Alpha virt. eigenvalues --    2.36388   2.36948   2.37495   2.38727   2.39268
 Alpha virt. eigenvalues --    2.39936   2.40640   2.41290   2.41798   2.42212
 Alpha virt. eigenvalues --    2.42862   2.43400   2.43543   2.43888   2.45190
 Alpha virt. eigenvalues --    2.45756   2.46662   2.46724   2.47564   2.48650
 Alpha virt. eigenvalues --    2.49307   2.50291   2.50748   2.51407   2.52685
 Alpha virt. eigenvalues --    2.53650   2.54008   2.55061   2.55747   2.56122
 Alpha virt. eigenvalues --    2.57179   2.58136   2.58356   2.59215   2.59719
 Alpha virt. eigenvalues --    2.60999   2.61618   2.61901   2.62179   2.63254
 Alpha virt. eigenvalues --    2.64323   2.64991   2.65281   2.65698   2.66606
 Alpha virt. eigenvalues --    2.68276   2.68597   2.68789   2.69161   2.69882
 Alpha virt. eigenvalues --    2.70612   2.71123   2.71393   2.72184   2.73444
 Alpha virt. eigenvalues --    2.73741   2.74440   2.75520   2.75721   2.76786
 Alpha virt. eigenvalues --    2.78552   2.79100   2.79147   2.79610   2.80081
 Alpha virt. eigenvalues --    2.80344   2.80578   2.81010   2.81428   2.82051
 Alpha virt. eigenvalues --    2.82733   2.82944   2.83478   2.84394   2.85086
 Alpha virt. eigenvalues --    2.85661   2.85942   2.86441   2.87452   2.88174
 Alpha virt. eigenvalues --    2.88758   2.89751   2.90060   2.93105   2.95122
 Alpha virt. eigenvalues --    2.95283   2.96002   2.98536   2.98932   2.99254
 Alpha virt. eigenvalues --    3.00664   3.03047   3.04028   3.05305   3.08153
 Alpha virt. eigenvalues --    3.10070   3.11077   3.11466   3.14192   3.14893
 Alpha virt. eigenvalues --    3.15234   3.16456   3.17095   3.19007   3.21475
 Alpha virt. eigenvalues --    3.21822   3.22575   3.23852   3.24564   3.27626
 Alpha virt. eigenvalues --    3.45542   3.47327   3.48713   3.50003   3.50340
 Alpha virt. eigenvalues --    3.53448   3.54086   3.56532   3.58559   3.60156
 Alpha virt. eigenvalues --    3.62996   3.70685   3.74524
          Condensed to atoms (all electrons):
 Mulliken charges:
               1
     1  N   -0.312521
     2  C    0.181394
     3  C    0.036289
     4  N   -0.260863
     5  C    0.134879
     6  H    0.026589
     7  N   -0.290876
     8  C    0.145079
     9  H    0.004877
    10  N   -0.291825
    11  C    0.250114
    12  C    0.124028
    13  N   -0.059466
    14  H    0.107620
    15  H    0.086065
    16  H    0.024763
    17  H    0.033407
    18  H    0.027188
    19  N   -0.308720
    20  C    0.234844
    21  C    0.181287
    22  N   -0.087573
    23  H    0.114347
    24  H    0.104528
    25  N   -0.279824
    26  C    0.200706
    27  N   -0.112629
    28  H    0.118056
    29  C    0.138556
    30  O   -0.315102
    31  C    0.026516
    32  N   -0.221003
    33  C    0.120604
    34  H    0.028012
    35  H    0.027740
    36  H    0.027796
    37  H    0.025138
    38  H    0.062448
    39  H    0.057540
    40  H    0.074477
    41  H    0.031732
    42  C   -0.111958
    43  O   -0.262735
    44  C    0.174878
    45  H    0.133119
    46  N   -0.132752
    47  O   -0.346284
    48  C    0.355531
    49  H    0.047567
    50  C    0.167464
    51  C    0.042664
    52  N   -0.293562
    53  H    0.037576
    54  H    0.036763
    55  H    0.025352
    56  H    0.121640
    57  H    0.115139
    58  N   -0.069623
    59  C    0.086300
    60  C    0.220245
    61  N   -0.283322
    62  H    0.049860
    63  C    0.174810
    64  N   -0.301770
    65  H    0.034173
    66  C    0.134544
    67  N   -0.264494
    68  C    0.048848
    69  C    0.163829
    70  N   -0.320020
 Sum of Mulliken charges =  -0.00000
 Mulliken charges with hydrogens summed into heavy atoms:
               1
     1  N   -0.312521
     2  C    0.266751
     3  C    0.036289
     4  N   -0.260863
     5  C    0.161468
     7  N   -0.290876
     8  C    0.149957
    10  N   -0.291825
    11  C    0.250114
    12  C    0.124028
    13  N    0.134219
    19  N   -0.308720
    20  C    0.234844
    21  C    0.261961
    22  N    0.131302
    25  N   -0.279824
    26  C    0.200706
    27  N    0.005427
    29  C    0.138556
    30  O   -0.315102
    31  C    0.026516
    32  N   -0.221003
    33  C    0.148616
    42  C   -0.080226
    43  O   -0.262735
    44  C    0.174878
    46  N    0.000367
    47  O   -0.346284
    48  C    0.355531
    50  C    0.215032
    51  C    0.237129
    52  N   -0.293562
    58  N    0.167156
    59  C    0.086300
    60  C    0.220245
    61  N   -0.283322
    63  C    0.224669
    64  N   -0.301770
    66  C    0.168717
    67  N   -0.264494
    68  C    0.048848
    69  C    0.263521
    70  N   -0.320020
 Electronic spatial extent (au):  <R**2>=          22443.4168
 Charge=              0.0000 electrons
 Dipole moment (field-independent basis, Debye):
    X=              8.2687    Y=              5.1038    Z=              3.1638  Tot=             10.2191
 Quadrupole moment (field-independent basis, Debye-Ang):
   XX=           -156.1771   YY=           -215.4159   ZZ=           -255.0217
   XY=             -2.9986   XZ=              5.5926   YZ=            -11.0984
 Traceless Quadrupole moment (field-independent basis, Debye-Ang):
   XX=             52.6945   YY=             -6.5444   ZZ=            -46.1501
   XY=             -2.9986   XZ=              5.5926   YZ=            -11.0984
 Octapole moment (field-independent basis, Debye-Ang**2):
  XXX=            -37.1924  YYY=            139.6063  ZZZ=              4.0093  XYY=             91.2983
  XXY=            -66.3078  XXZ=            -40.9879  XZZ=             21.8748  YZZ=             17.6339
  YYZ=             49.4178  XYZ=             50.7596
 Hexadecapole moment (field-independent basis, Debye-Ang**3):
 XXXX=         -14352.3967 YYYY=          -6893.7907 ZZZZ=          -3265.2559 XXXY=            476.8443
 XXXZ=            -53.2677 YYYX=           -120.5159 YYYZ=           -115.3282 ZZZX=              9.2005
 ZZZY=            -37.7908 XXYY=          -3420.2266 XXZZ=          -3716.9840 YYZZ=          -1723.5467
 XXYZ=             77.2330 YYXZ=            234.1904 ZZXY=            -32.8409
 N-N= 5.517307324414D+03 E-N=-1.581554204793D+04  KE= 2.038225589365D+03
 No NMR shielding tensors so no spin-rotation constants.
 Leave Link  601 at Fri Jan 26 04:32:20 2018, MaxMem=  4294967296 cpu:              48.0 elap:               1.7
 (Enter /share/apps/g16/l9999.exe)
 1\1\GINC-COMPUTE-0-3\SP\RwB97XD\CC-pVDZ\C23H27N17O3\SATYA\26-Jan-2018\
 0\\#p wb97xd/cc-pvdz sp scf=(maxcycles=20)\\Base pair stacking\\0,1\N,
 0,5.70392,1.13252,-8.12379\C,0,7.05429,1.67567,-8.3677\C,0,3.58235,0.9
 2675,-7.58167\N,0,3.99799,-0.32718,-8.00548\C,0,5.25953,-0.15303,-8.31
 513\H,0,5.91928,-0.93539,-8.6914\N,0,2.26677,2.71103,-6.77633\C,0,3.36
 049,3.47076,-6.8954\H,0,3.23648,4.51313,-6.60497\N,0,4.57866,3.13776,-
 7.31739\C,0,4.62292,1.8368,-7.649\C,0,2.34379,1.40627,-7.11803\N,0,1.2
 5309,0.64627,-6.99987\H,0,1.26422,-0.32472,-7.24125\H,0,0.38815,1.0213
 6,-6.66622\H,0,7.29161,1.56176,-9.33252\H,0,7.07078,2.64735,-8.13385\H
 ,0,7.71933,1.18727,-7.80274\N,0,3.12629,4.72076,-3.52378\C,0,1.87743,4
 .18522,-3.31985\C,0,3.44606,6.16242,-3.53162\N,0,-1.51359,4.61092,-2.7
 0216\H,0,-2.31919,4.03215,-2.57855\H,0,-1.65218,5.59991,-2.64387\N,0,0
 .74174,4.88044,-3.09418\C,0,-0.30149,4.08536,-2.93565\N,0,-0.23941,2.7
 1411,-2.99334\H,0,-1.08819,2.18605,-2.86032\C,0,0.91825,1.97767,-3.224
 32\O,0,0.86575,0.74198,-3.25702\C,0,2.04736,2.8181,-3.39658\N,0,3.3761
 7,2.50172,-3.64371\C,0,3.97695,3.65874,-3.71122\H,0,5.04301,3.79502,-3
 .89622\H,0,3.82702,6.41621,-4.42002\H,0,2.61241,6.68748,-3.36547\H,0,4
 .11268,6.36159,-2.81415\H,0,-5.75441,0.16897,-2.75817\H,0,-5.35313,-0.
 15219,-1.0728\H,0,-4.68855,1.26754,-1.88155\H,0,-2.93157,-3.6963,-3.24
 581\C,0,-2.8399,-2.62549,-3.06358\O,0,-0.53018,-2.54553,-3.59829\C,0,-
 1.57033,-1.99056,-3.24487\H,0,-0.68487,-0.15079,-3.10511\N,0,-1.56414,
 -0.63439,-2.98791\O,0,-2.52283,1.33388,-2.38457\C,0,-2.62648,0.13699,-
 2.58797\H,0,-4.88146,-2.33463,-2.52205\C,0,-3.89452,-1.89971,-2.67417\
 C,0,-4.97965,0.23546,-2.00891\N,0,-3.81628,-0.54728,-2.43507\H,0,-4.32
 659,6.29268,-4.25013\H,0,-2.83369,5.94646,-3.69022\H,0,-4.14371,5.6349
 2,-2.76779\H,0,-2.23756,-0.43196,-6.59121\H,0,-3.85694,-0.04543,-6.219
 33\N,0,-2.8935,0.22475,-6.2189\C,0,-2.5019,1.40843,-5.74274\C,0,-2.827
 79,3.54804,-4.75402\N,0,-1.52727,3.88407,-4.76615\H,0,0.27474,3.0938,-
 5.3396\C,0,-0.79648,2.90286,-5.29157\N,0,-1.18682,1.71659,-5.76903\H,0
 ,-5.99538,3.89498,-4.20794\C,0,-5.00453,3.53717,-4.48925\N,0,-4.76074,
 2.37136,-5.03618\C,0,-3.38424,2.36541,-5.20929\C,0,-3.78872,5.65166,-3
 .70261\N,0,-3.88036,4.30088,-4.28998\\Version=EM64L-G16RevA.03\State=1
 -A\HF=-2048.6561589\RMSD=7.506e-09\Dipole=-3.4927342,1.8882397,0.63226
 44\Quadrupole=30.4025331,-9.0339314,-21.3686017,11.2178837,-22.1005987
 ,10.6156898\PG=C01 [X(C23H27N17O3)]\\@


 I CLAIM NOT TO HAVE CONTROLLED EVENTS,
 BUT CONFESS PLAINLY THAT EVENTS HAVE CONTROLLED ME.

                                         A. LINCOLN
 Job cpu time:       0 days  6 hours 10 minutes 56.2 seconds.
 Elapsed time:       0 days  0 hours 11 minutes 57.6 seconds.
 File lengths (MBytes):  RWF=    298 Int=      0 D2E=      0 Chk=     33 Scr=      1
 Normal termination of Gaussian 16 at Fri Jan 26 04:32:20 2018.
